FOO
138240
    1MOL0     O    1   9.248   8.564   7.347  0.8492 -0.0370  0.3652
    1MOL0     C    2   9.296   8.553   7.235 -0.2276  0.3274 -0.5823
    1MOL0     O    3   9.269   8.451   7.142 -0.3465  1.1383  0.7251
    1MOL0     C    4   9.255   8.319   7.181  0.8027  0.9150  0.4214
    1MOL0     C    5   9.159   8.276   7.284 -0.1051 -0.3110  0.5233
    1MOL0     C    6   9.131   8.145   7.313  0.2984 -0.8376  0.3794
    1MOL0     C    7   9.197   8.040   7.243 -0.7337 -0.0847 -0.4078
    1MOL0     O    8   9.190   7.907   7.274  0.5087 -0.3900  0.1863
    1MOL0     C    9   9.116   7.876   7.395  0.4775  1.1440 -0.3223
    1MOL0     C   10   9.142   7.730   7.407 -0.1225  0.3148 -0.6732
    1MOL0     C   11   9.286   7.694   7.434  0.1332  0.6106 -0.6723
    1MOL0     C   12   9.303   7.551   7.495 -0.1952  0.2677  0.3866
    1MOL0     C   13   9.287   7.450   7.372  0.1028 -0.6097 -0.3976
    1MOL0     C   14   9.297   7.299   7.409 -0.1978  1.1688  0.3775
    1MOL0     C   15   9.277   7.197   7.291  0.5257  0.4723  0.4589
    1MOL0     C   16   9.359   7.235   7.166 -1.0138  0.1622 -0.0973
    1MOL0     N   17   9.367   7.128   7.068 -0.1894 -0.0679  0.1266
    1MOL0     C   18   9.268   7.066   6.996 -0.1937 -0.5699 -0.2091
    1MOL0     C   19   9.337   7.000   6.895  0.5065 -0.2988  0.0071
    1MOL0     C   20   9.276   6.927   6.775  0.0513  0.2370 -0.6877
    1MOL0     C   21   9.287   7.000   6.637 -0.0009 -0.4040 -0.1297
    1MOL0     C   22   9.436   6.995   6.583  0.4951  0.4046  0.1206
    1MOL0     C   23   9.501   6.852   6.571 -0.0037 -0.2751  0.1032
    1MOL0     O   24   9.418   6.791   6.476 -0.3645  0.1052  0.2560
    1MOL0     C   25   9.437   6.653   6.453  0.5033 -0.7721 -0.3280
    1MOL0     C   26   9.388   6.587   6.345 -0.9814 -0.0407  0.4352
    1MOL0     C   27   9.399   6.448   6.332 -0.0814  0.3231 -0.3116
    1MOL0     C   28   9.481   6.381   6.428  0.5350 -0.7775  0.3291
    1MOL0     C   29   9.512   6.245   6.408  0.1073  0.4329 -0.0285
    1MOL0     O   30   9.564   6.174   6.511 -0.2518  0.2693 -0.3217
    1MOL0     C   31   9.622   6.054   6.467  0.2326  0.1624 -0.3450
    1MOL0     C   32   9.537   5.954   6.410 -0.4156 -0.2917  0.1488
    1MOL0     C   33   9.593   5.840   6.346  0.3082  0.0475 -0.2550
    1MOL0     C   34   9.730   5.821   6.339 -0.3156 -0.6251  0.5301
    1MOL0     O   35   9.810   5.718   6.279  0.1745 -0.5898 -1.0788
    1MOL0     C   36   9.752   5.588   6.287 -0.2395  0.0089 -0.3318
    1MOL0     C   37   9.848   5.494   6.197  0.0304 -0.8636 -0.3707
    1MOL0     C   38   9.975   5.462   6.271  0.6388 -0.5016  0.0339
    1MOL0     C   39   9.953   5.368   6.388 -0.0427  0.4280  0.5372
    1MOL0     C   40  10.074   5.344   6.475  0.0161 -0.0892 -0.0716
    1MOL0     C   41  10.123   5.465   6.550  0.2958 -0.3074 -0.9401
    1MOL0     C   42  10.195   5.421   6.684  0.3625 -0.3841 -0.0471
    1MOL0     C   43  10.328   5.342   6.662  0.0296  0.3491 -0.8661
    1MOL0    Cl   44  10.396   5.259   6.807  0.1722 -0.1251  0.1926
    1MOL0     C   45   9.809   5.921   6.401 -0.0652  0.3028 -0.2194
    1MOL0     C   46   9.757   6.038   6.464  0.1836  0.1891 -0.2467
    1MOL0     O   47   9.504   6.198   6.292 -0.3417 -0.2378  0.3403
    1MOL0     C   48   9.530   6.442   6.541 -0.4848 -0.5016 -0.2483
    1MOL0     C   49   9.509   6.583   6.546  0.6809 -0.9913 -0.2419
    1MOL0     N   50   9.471   7.018   6.926 -1.4861  0.2004 -0.8803
    1MOL0     N   51   9.492   7.101   7.018 -0.1557  0.4123  0.3969
    1MOL0     C   52   9.304   8.075   7.157  0.0885 -0.9551  0.2716
    1MOL0     C   53   9.331   8.212   7.128 -0.0570 -0.0615  0.0956
    1MOL0     C   54   9.379   8.660   7.182  1.2570  0.5950 -0.9569
    1MOL0     C   55   9.361   8.685   7.045  0.9881  0.0406 -0.0493
    1MOL0     C   56   9.430   8.800   6.989 -0.6658 -0.7406 -1.2336
    1MOL0     C   57   9.526   8.875   7.057 -0.3041  0.4507  0.2154
    1MOL0     O   58   9.577   8.978   6.980 -0.1005 -0.9851 -0.7622
    1MOL0     C   59   9.629   9.090   7.053 -0.7647 -0.1853 -0.2281
    1MOL0     C   60   9.719   9.180   6.966  0.2232  0.2848  0.4205
    1MOL0     C   61   9.771   9.297   7.045 -0.3875 -0.2293  0.5495
    1MOL0     C   62   9.859   9.258   7.165 -0.4351  0.2696 -0.4047
    1MOL0     C   63   9.778   9.265   7.291  0.2192  0.1519  0.2933
    1MOL0     C   64   9.707   9.274   7.389  0.6614  0.4312  0.5680
    1MOL0     C   65   9.554   8.846   7.191 -0.4484  0.5298  0.1902
    1MOL0     C   66   9.475   8.743   7.252 -0.3582  0.1370 -0.9626
    1MOL0     C   67   9.482   8.737   7.397 -0.5188 -0.6175  0.2089
    1MOL0     H   68   9.099   8.358   7.323 -0.6079  0.5605 -1.9089
    1MOL0     H   69   9.058   8.133   7.392  0.3513 -2.5866  0.1831
    1MOL0     H   70   9.146   7.936   7.482  1.3842  0.9586 -0.4967
    1MOL0     H   71   9.011   7.894   7.373 -0.5766 -2.7851  0.6875
    1MOL0     H   72   9.110   7.688   7.311  0.0880  0.8746 -0.9902
    1MOL0     H   73   9.078   7.676   7.478  2.9193 -1.1109  1.1940
    1MOL0     H   74   9.340   7.767   7.495  1.2723  0.3780 -1.3646
    1MOL0     H   75   9.339   7.703   7.338  0.7899  1.7660 -0.2198
    1MOL0     H   76   9.403   7.532   7.536  0.4598 -0.7469 -1.5479
    1MOL0     H   77   9.228   7.523   7.569 -2.6675  0.5415 -1.8613
    1MOL0     H   78   9.190   7.458   7.322 -0.4344 -2.3896  0.2850
    1MOL0     H   79   9.352   7.489   7.292 -0.6548  1.8497  0.0910
    1MOL0     H   80   9.395   7.280   7.455 -0.6496 -2.5483  0.1212
    1MOL0     H   81   9.219   7.279   7.483 -1.8397  0.0386 -1.5771
    1MOL0     H   82   9.171   7.191   7.266  0.9703 -4.1350 -1.3793
    1MOL0     H   83   9.312   7.096   7.316 -0.0782 -0.8182 -3.3177
    1MOL0     H   84   9.317   7.325   7.120 -2.4459  0.3836  1.5355
    1MOL0     H   85   9.460   7.265   7.194 -0.2607 -0.4912 -1.9680
    1MOL0     H   86   9.161   7.076   7.015  0.4074  1.1241  3.2601
    1MOL0     H   87   9.311   6.824   6.766 -1.7615 -0.5563  0.8209
    1MOL0     H   88   9.170   6.919   6.797  0.0774  2.9819  1.0345
    1MOL0     H   89   9.212   6.950   6.575  1.2938 -3.7480  0.7770
    1MOL0     H   90   9.251   7.102   6.655 -0.4679 -0.6526  0.3969
    1MOL0     H   91   9.513   7.051   6.637  0.3855 -1.9106  2.8868
    1MOL0     H   92   9.432   7.048   6.487  2.9316  2.9048  1.2730
    1MOL0     H   93   9.486   6.814   6.673 -2.9076  0.7735  0.1558
    1MOL0     H   94   9.600   6.869   6.530 -1.0097  0.9311 -1.9840
    1MOL0     H   95   9.348   6.649   6.266  0.9842  0.3732 -0.2967
    1MOL0     H   96   9.363   6.402   6.241  3.1754  0.4621 -1.8079
    1MOL0     H   97   9.430   5.972   6.423 -1.2006 -3.5630 -0.8363
    1MOL0     H   98   9.521   5.773   6.299 -1.0695  1.3753 -0.0946
    1MOL0     H   99   9.742   5.554   6.391 -2.0759  2.3705  0.3404
    1MOL0     H  100   9.653   5.591   6.241  0.6235  0.0261 -2.2561
    1MOL0     H  101   9.793   5.406   6.164  1.4588 -1.2874 -1.7205
    1MOL0     H  102   9.867   5.550   6.105 -1.1289  1.2973  0.6264
    1MOL0     H  103  10.038   5.419   6.193  1.1038  2.7702 -1.5431
    1MOL0     H  104  10.026   5.553   6.305 -1.0350 -0.0730  1.5356
    1MOL0     H  105   9.902   5.279   6.351  0.3212  0.2039  0.5714
    1MOL0     H  106   9.872   5.403   6.453 -1.6230  1.1523 -1.7297
    1MOL0     H  107  10.156   5.321   6.406  1.3783  5.2149 -0.6412
    1MOL0     H  108  10.044   5.276   6.555  0.4674  0.6055  0.7006
    1MOL0     H  109  10.202   5.521   6.498 -2.0700  3.8121 -0.5200
    1MOL0     H  110  10.041   5.529   6.583  0.4148 -0.8300  0.4299
    1MOL0     H  111  10.125   5.358   6.741  0.2644  0.1332  0.4072
    1MOL0     H  112  10.233   5.505   6.741 -2.4475  2.1772 -1.6667
    1MOL0     H  113  10.302   5.261   6.593  1.7297 -0.3090 -0.7830
    1MOL0     H  114  10.395   5.416   6.617  1.0398 -0.9605 -1.6032
    1MOL0     H  115   9.918   5.920   6.398 -0.0433  0.8905 -3.6851
    1MOL0     H  116   9.827   6.110   6.505  1.0799  0.5878 -2.3619
    1MOL0     H  117   9.592   6.387   6.611 -1.2439 -1.3456 -0.2195
    1MOL0     H  118   9.554   6.631   6.633 -0.0168 -0.4929 -0.1458
    1MOL0     H  119   9.353   7.996   7.101 -0.8247  0.2712 -2.4540
    1MOL0     H  120   9.407   8.239   7.056 -0.4274 -0.8272 -0.5873
    1MOL0     H  121   9.289   8.633   6.984  0.6926  0.1732  0.1861
    1MOL0     H  122   9.416   8.819   6.884  0.8502 -2.5769 -1.8229
    1MOL0     H  123   9.693   9.062   7.137  1.6066  2.5672 -0.9650
    1MOL0     H  124   9.551   9.155   7.094  0.4614  0.3771  1.3031
    1MOL0     H  125   9.654   9.200   6.880  0.0249 -0.5631  0.3607
    1MOL0     H  126   9.807   9.128   6.927  0.9858  0.8038  1.4091
    1MOL0     H  127   9.687   9.356   7.082 -1.0396 -1.9938  2.0121
    1MOL0     H  128   9.832   9.357   6.976 -2.0984  0.7806 -0.1419
    1MOL0     H  129   9.887   9.153   7.154 -0.4458  0.0272  1.4840
    1MOL0     H  130   9.945   9.323   7.181  1.4880 -1.5828 -2.5540
    1MOL0     H  131   9.654   9.264   7.481  1.4329  1.9192  1.2231
    1MOL0     H  132   9.636   8.898   7.240  1.1713 -0.9797 -0.7878
    1MOL0     H  133   9.572   8.772   7.448 -0.9042  2.1373 -0.8159
    1MOL0     H  134   9.398   8.794   7.437 -0.6985 -1.0711  0.4749
    1MOL0     H  135   9.496   8.631   7.420  4.8260 -0.2213  0.0032
    2MOL0     O  136   4.900   6.517  10.417  0.6337 -0.0191  0.0671
    2MOL0     C  137   4.946   6.515  10.532  0.5144  0.5815  0.1842
    2MOL0     O  138   4.881   6.469  10.644  0.9603 -0.1004 -0.1019
    2MOL0     C  139   4.779   6.385  10.642 -0.0069  0.0983  0.2023
    2MOL0     C  140   4.764   6.271  10.560  0.9113  0.2273  0.8815
    2MOL0     C  141   4.654   6.185  10.566  0.6214  0.3212  0.1296
    2MOL0     C  142   4.556   6.197  10.670 -1.2247 -0.0156  0.4436
    2MOL0     O  143   4.437   6.129  10.683  0.0991 -0.2913  0.8558
    2MOL0     C  144   4.401   6.037  10.575  0.2383 -0.1196 -1.0359
    2MOL0     C  145   4.253   6.016  10.592  0.9874  0.5413 -0.1789
    2MOL0     C  146   4.193   5.896  10.505 -0.8107  0.4858 -0.4279
    2MOL0     C  147   4.045   5.870  10.530 -0.3285 -0.5582 -0.4513
    2MOL0     C  148   3.981   5.767  10.437 -0.5041  0.5859 -1.1989
    2MOL0     C  149   4.034   5.630  10.465  0.1764 -0.7743 -0.8063
    2MOL0     C  150   4.003   5.542  10.348 -0.6648  0.5353  0.1601
    2MOL0     C  151   4.080   5.408  10.349 -0.4476  0.6254 -0.1213
    2MOL0     N  152   4.054   5.331  10.473 -0.0560 -0.4375  0.0176
    2MOL0     C  153   3.972   5.216  10.487 -0.0494 -1.7021 -0.1019
    2MOL0     C  154   3.986   5.173  10.612 -0.2034 -0.3414 -0.1042
    2MOL0     C  155   3.910   5.050  10.668  0.0021 -0.3161 -0.4458
    2MOL0     C  156   3.987   4.916  10.696  0.6110 -0.2032  0.2350
    2MOL0     C  157   3.891   4.799  10.737 -0.1539  0.1010 -0.1425
    2MOL0     C  158   3.963   4.674  10.788  0.6854  0.4338 -0.1077
    2MOL0     O  159   4.053   4.694  10.893 -0.5238 -0.5096 -0.2349
    2MOL0     C  160   4.004   4.705  11.021 -0.4789 -0.4903 -0.5066
    2MOL0     C  161   3.874   4.686  11.074  0.2662  0.4140  0.3110
    2MOL0     C  162   3.844   4.700  11.213 -0.0830  0.2045  0.7474
    2MOL0     C  163   3.949   4.721  11.298 -0.1547 -0.1352 -0.5191
    2MOL0     C  164   3.931   4.712  11.450  0.6190  0.7895  0.0114
    2MOL0     O  165   4.046   4.698  11.519  0.2134  0.6125  0.0969
    2MOL0     C  166   4.056   4.711  11.657  0.0160 -0.5725 -0.0747
    2MOL0     C  167   3.950   4.711  11.756 -0.2258 -0.4369  1.4001
    2MOL0     C  168   3.977   4.733  11.889 -1.5860 -0.2469  0.0195
    2MOL0     C  169   4.116   4.736  11.940  0.6252  0.4342 -0.1603
    2MOL0     O  170   4.143   4.726  12.072  0.0138 -0.0829  0.6097
    2MOL0     C  171   4.263   4.783  12.123 -0.2396 -0.3119  0.7367
    2MOL0     C  172   4.344   4.686  12.212 -0.2340 -0.5736  0.0471
    2MOL0     C  173   4.479   4.759  12.249 -0.7215  0.1362  0.2901
    2MOL0     C  174   4.564   4.691  12.346 -0.3480 -0.0663  0.8849
    2MOL0     C  175   4.710   4.755  12.347  0.1367 -0.9815 -0.3124
    2MOL0     C  176   4.721   4.899  12.404 -0.3568 -0.1500  0.1695
    2MOL0     C  177   4.704   4.906  12.552  0.8031 -0.1219 -1.2349
    2MOL0     C  178   4.755   5.038  12.613  1.1616 -0.6105  0.3563
    2MOL0    Cl  179   4.644   5.174  12.569 -0.0013  0.0559 -0.5469
    2MOL0     C  180   4.219   4.721  11.844 -0.4715 -0.1388 -0.2195
    2MOL0     C  181   4.187   4.713  11.707  0.0265 -0.9815  0.2525
    2MOL0     O  182   3.823   4.703  11.492 -0.0869 -0.0327 -1.0312
    2MOL0     C  183   4.078   4.735  11.254  0.3600 -0.8259 -0.4083
    2MOL0     C  184   4.109   4.724  11.119  0.1927 -0.4463 -0.6662
    2MOL0     N  185   4.077   5.256  10.677 -0.0848  0.4918  0.1070
    2MOL0     N  186   4.127   5.343  10.591  0.2099 -0.5633  0.5385
    2MOL0     C  187   4.579   6.310  10.761 -0.0294  0.3048  0.1999
    2MOL0     C  188   4.696   6.387  10.761 -0.3333  0.3334 -0.6402
    2MOL0     C  189   5.081   6.560  10.553  0.7003 -0.3618 -0.3861
    2MOL0     C  190   5.160   6.500  10.648 -1.1990  0.5907 -0.4971
    2MOL0     C  191   5.293   6.524  10.660  0.6301 -0.5819  0.4323
    2MOL0     C  192   5.351   6.620  10.584  0.6413 -0.0211  0.1343
    2MOL0     O  193   5.491   6.640  10.575 -0.4888  0.6171 -0.3867
    2MOL0     C  194   5.581   6.550  10.646 -0.2338 -0.8604 -0.5808
    2MOL0     C  195   5.731   6.579  10.613 -0.8629 -0.7740  0.8089
    2MOL0     C  196   5.744   6.519  10.472  0.0987  0.0017 -0.0838
    2MOL0     C  197   5.880   6.521  10.415 -1.0110 -0.0888  0.0815
    2MOL0     C  198   5.962   6.419  10.479 -0.7343  0.8905 -0.3230
    2MOL0     C  199   6.051   6.336  10.511 -0.6961  1.1123  0.0363
    2MOL0     C  200   5.272   6.693  10.500  0.9071  0.2583  0.8116
    2MOL0     C  201   5.132   6.672  10.484  0.1014  0.2508  0.5038
    2MOL0     C  202   5.058   6.764  10.378 -0.1521  0.2044  0.8003
    2MOL0     H  203   4.843   6.261  10.487  2.3997 -1.6814  2.6246
    2MOL0     H  204   4.644   6.100  10.499 -1.2653 -1.3170  2.3231
    2MOL0     H  205   4.429   6.069  10.474  1.7139 -0.3798 -0.7399
    2MOL0     H  206   4.443   5.937  10.588 -5.0976 -2.4915  0.7292
    2MOL0     H  207   4.190   6.102  10.568 -1.6304 -0.9922  0.8530
    2MOL0     H  208   4.228   5.987  10.694  0.6633  1.4093 -0.0012
    2MOL0     H  209   4.253   5.808  10.531  0.3526  1.3974  0.0696
    2MOL0     H  210   4.212   5.916  10.400  0.6803 -2.2148 -0.7690
    2MOL0     H  211   4.023   5.835  10.632 -1.8870  1.1299 -0.1710
    2MOL0     H  212   3.995   5.967  10.526 -1.7331 -1.2725 -0.6558
    2MOL0     H  213   3.873   5.759  10.452 -0.3268  0.5037  0.2379
    2MOL0     H  214   4.004   5.786  10.332  0.3729 -0.8507 -1.2928
    2MOL0     H  215   4.143   5.631  10.476  0.1794 -0.6378 -0.8483
    2MOL0     H  216   3.986   5.595  10.557 -0.5254  1.6601 -0.1921
    2MOL0     H  217   4.036   5.592  10.256  1.5580 -0.6351  0.2375
    2MOL0     H  218   3.896   5.520  10.350 -0.6427  0.4154  0.0543
    2MOL0     H  219   4.039   5.355  10.263  1.2294  2.8550 -2.4137
    2MOL0     H  220   4.188   5.415  10.341 -0.3920 -0.3787 -0.3137
    2MOL0     H  221   3.917   5.177  10.402  0.2238  2.2401 -2.3363
    2MOL0     H  222   3.880   5.081  10.768  0.4380  0.3614 -0.5203
    2MOL0     H  223   3.821   5.032  10.607 -1.3710 -0.1640  1.4345
    2MOL0     H  224   4.052   4.880  10.616 -1.1081 -0.6271 -1.0144
    2MOL0     H  225   4.060   4.935  10.775  1.3778 -1.3366 -0.1729
    2MOL0     H  226   3.828   4.760  10.657  2.6628  0.0649 -2.4903
    2MOL0     H  227   3.821   4.828  10.817 -0.1605  2.6457 -0.9827
    2MOL0     H  228   4.019   4.640  10.700  2.0622  2.3022  0.0042
    2MOL0     H  229   3.878   4.607  10.805  2.9519 -3.9094 -3.7119
    2MOL0     H  230   3.785   4.665  11.016  0.9993 -3.9251  0.4794
    2MOL0     H  231   3.740   4.679  11.237 -0.5989  1.8318  0.0656
    2MOL0     H  232   3.844   4.706  11.734  0.1142 -4.7801 -0.1622
    2MOL0     H  233   3.897   4.739  11.963 -1.1048 -0.7250  0.5964
    2MOL0     H  234   4.335   4.813  12.046 -0.1223 -0.6947  0.6934
    2MOL0     H  235   4.241   4.873  12.182  2.0538  1.2179 -0.5829
    2MOL0     H  236   4.274   4.672  12.295  1.0959 -1.0963  1.1235
    2MOL0     H  237   4.379   4.597  12.160  2.7451  0.1463  0.6024
    2MOL0     H  238   4.542   4.766  12.161 -0.5099 -3.2464  0.0761
    2MOL0     H  239   4.460   4.862  12.282  1.2826  0.6971 -0.2100
    2MOL0     H  240   4.558   4.593  12.296 -2.1447  0.2303  0.4644
    2MOL0     H  241   4.521   4.681  12.446  0.0452  3.3216  1.4932
    2MOL0     H  242   4.739   4.757  12.242 -1.9511 -2.0403 -0.9616
    2MOL0     H  243   4.783   4.695  12.403  0.4962  0.3973  0.7490
    2MOL0     H  244   4.817   4.947  12.383  0.2728 -0.9496  1.1734
    2MOL0     H  245   4.650   4.967  12.356  0.6244  0.1415 -0.9440
    2MOL0     H  246   4.759   4.828  12.604  3.0300  2.5155  0.6783
    2MOL0     H  247   4.596   4.893  12.562  0.5510  1.8104 -0.9741
    2MOL0     H  248   4.754   5.032  12.722 -1.4158  0.2813  0.4271
    2MOL0     H  249   4.855   5.064  12.575 -0.2574  0.8850 -2.7106
    2MOL0     H  250   4.325   4.711  11.866 -0.9208 -0.5407  1.9411
    2MOL0     H  251   4.258   4.725  11.627 -2.0995  0.9387 -1.4905
    2MOL0     H  252   4.156   4.750  11.328  0.7964 -1.2903 -0.7645
    2MOL0     H  253   4.212   4.728  11.085  1.0083  0.4438  1.6751
    2MOL0     H  254   4.496   6.319  10.831 -1.4024  0.0211 -1.3263
    2MOL0     H  255   4.729   6.461  10.833 -1.7497  1.8527 -1.4782
    2MOL0     H  256   5.118   6.426  10.716 -0.8351 -1.3924 -2.3112
    2MOL0     H  257   5.351   6.473  10.736  0.8325 -0.1175  0.5895
    2MOL0     H  258   5.558   6.451  10.607  1.7217 -0.6372 -2.5280
    2MOL0     H  259   5.573   6.551  10.755  1.9654  2.2113 -0.2956
    2MOL0     H  260   5.793   6.539  10.694 -0.4463  0.9501  1.3940
    2MOL0     H  261   5.744   6.688  10.610  3.3516 -1.1201 -0.6899
    2MOL0     H  262   5.681   6.571  10.400  1.5450 -1.3047 -2.4291
    2MOL0     H  263   5.716   6.414  10.468  1.0096 -0.3370  1.5395
    2MOL0     H  264   5.890   6.510  10.306  0.9073  0.6156  0.1678
    2MOL0     H  265   5.919   6.620  10.436  0.2513  0.0122 -2.3144
    2MOL0     H  266   6.118   6.258  10.541 -1.3469  0.1311 -1.0073
    2MOL0     H  267   5.320   6.762  10.432  2.6710 -0.9492  0.7909
    2MOL0     H  268   5.079   6.737  10.274  3.4780 -0.9449  1.6999
    2MOL0     H  269   4.950   6.776  10.392 -0.8469 -1.7928 -1.8825
    2MOL0     H  270   5.090   6.868  10.391 -2.6691  1.1941 -0.1275
    3MOL0     O  271   6.989  10.177   7.095 -0.6816  0.9437 -0.4306
    3MOL0     C  272   6.863  10.180   7.106  0.0443  0.5016  0.2013
    3MOL0     O  273   6.792  10.138   7.216  0.2202  0.0255 -0.0179
    3MOL0     C  274   6.856  10.067   7.315 -0.7926 -0.1497  0.4787
    3MOL0     C  275   6.968  10.115   7.383  0.2674  0.5591 -0.1380
    3MOL0     C  276   7.031  10.035   7.483 -0.6316 -0.2336 -0.3516
    3MOL0     C  277   6.993   9.906   7.502 -0.5319  0.4652  0.7905
    3MOL0     O  278   7.071   9.815   7.568 -0.6180  0.1921  0.4896
    3MOL0     C  279   7.199   9.853   7.631  0.1312 -0.1259  0.6457
    3MOL0     C  280   7.253   9.718   7.663 -0.1320  0.0848 -0.0189
    3MOL0     C  281   7.401   9.719   7.697  0.4143 -0.0692  0.2957
    3MOL0     C  282   7.426   9.811   7.819 -0.0114  0.3738 -0.3840
    3MOL0     C  283   7.576   9.828   7.841 -0.0969 -0.1202 -0.1233
    3MOL0     C  284   7.601   9.904   7.975  0.7354 -1.2120 -0.3424
    3MOL0     C  285   7.753   9.903   8.019 -0.1291  0.2461 -0.2808
    3MOL0     C  286   7.789   9.788   8.121 -0.9050  0.4337  0.4008
    3MOL0     N  287   7.738   9.659   8.087 -0.3082  0.1365  0.4087
    3MOL0     C  288   7.797   9.564   7.992  0.7390 -0.6760 -0.2813
    3MOL0     C  289   7.742   9.444   8.013  0.3904 -0.7217 -0.1826
    3MOL0     C  290   7.780   9.312   7.957 -0.0434  0.2360 -0.6476
    3MOL0     C  291   7.920   9.259   8.001  0.1469  0.4051 -0.8245
    3MOL0     C  292   7.948   9.120   7.955 -0.1902 -0.8431  0.4368
    3MOL0     C  293   8.077   9.070   7.995 -0.3138  0.2072 -0.0654
    3MOL0     O  294   8.077   9.017   8.130 -0.8450  0.1055 -0.0053
    3MOL0     C  295   8.138   8.900   8.160  0.0187 -0.0888 -1.0737
    3MOL0     C  296   8.261   8.913   8.225  0.8749  0.2190  0.0383
    3MOL0     C  297   8.325   8.795   8.273 -0.2650 -0.7357 -0.6592
    3MOL0     C  298   8.273   8.664   8.248  1.0561 -0.8965 -0.3320
    3MOL0     C  299   8.333   8.540   8.291 -0.5164  0.7231  0.2315
    3MOL0     O  300   8.461   8.540   8.345  1.1620  0.3459 -0.0573
    3MOL0     C  301   8.528   8.427   8.374 -0.6054 -0.1218 -1.4325
    3MOL0     C  302   8.594   8.407   8.502  0.4589 -0.8302 -0.4725
    3MOL0     C  303   8.643   8.281   8.541 -0.6456 -0.6001 -0.0922
    3MOL0     C  304   8.645   8.173   8.448 -0.6127 -0.1053  0.4546
    3MOL0     O  305   8.720   8.064   8.490 -0.4719 -0.2479  0.6795
    3MOL0     C  306   8.665   7.943   8.443  1.1197 -0.5321 -0.0504
    3MOL0     C  307   8.727   7.827   8.519  0.5882  0.0987  0.0970
    3MOL0     C  308   8.881   7.832   8.490  0.5258  0.5564  0.5575
    3MOL0     C  309   8.930   7.688   8.476  0.1560  0.2141 -0.4450
    3MOL0     C  310   9.084   7.686   8.447  0.9466  0.3165  0.5640
    3MOL0     C  311   9.141   7.546   8.460  0.6599  0.2339 -0.2763
    3MOL0     C  312   9.174   7.523   8.612  0.9998 -0.1854  0.2175
    3MOL0     C  313   9.246   7.386   8.623  0.0543 -1.3559 -0.0459
    3MOL0    Cl  314   9.385   7.364   8.517 -0.1933 -0.5668 -0.1785
    3MOL0     C  315   8.596   8.198   8.318  0.9037  0.1571 -0.2504
    3MOL0     C  316   8.535   8.323   8.282 -0.2378  0.3408 -0.0019
    3MOL0     O  317   8.268   8.441   8.265  0.8099  0.1880  0.2729
    3MOL0     C  318   8.143   8.663   8.183 -0.6119  0.1882 -0.5900
    3MOL0     C  319   8.079   8.777   8.142  0.3415  0.4542  0.6193
    3MOL0     N  320   7.644   9.465   8.112  0.6675  0.5865  0.6345
    3MOL0     N  321   7.650   9.584   8.156 -0.2397 -0.8710 -0.4231
    3MOL0     C  322   6.879   9.860   7.441  0.2168 -0.1899  0.0739
    3MOL0     C  323   6.808   9.943   7.354 -0.7200  0.3719 -0.2603
    3MOL0     C  324   6.792  10.238   6.987  1.9511 -0.4835 -0.0894
    3MOL0     C  325   6.646  10.256   7.006 -0.2007  0.5012 -0.0811
    3MOL0     C  326   6.561  10.301   6.908  0.3389 -0.3908  0.6563
    3MOL0     C  327   6.609  10.329   6.782 -0.3410 -0.5971 -0.1730
    3MOL0     O  328   6.535  10.358   6.668 -0.0110  0.3316 -0.1411
    3MOL0     C  329   6.397  10.352   6.683  0.2839 -0.6388 -0.5393
    3MOL0     C  330   6.338  10.399   6.556  0.4181  0.0664  0.6058
    3MOL0     C  331   6.306  10.291   6.445 -0.1059  0.4068 -0.9611
    3MOL0     C  332   6.225  10.353   6.329 -0.0866 -0.3649 -0.3722
    3MOL0     C  333   6.164  10.243   6.251  0.1271 -0.3673  0.6368
    3MOL0     C  334   6.125  10.148   6.180  0.1103 -0.4870  0.1729
    3MOL0     C  335   6.751  10.312   6.757  0.6316  0.5087 -0.5806
    3MOL0     C  336   6.836  10.250   6.856 -0.7787 -0.7995  0.1653
    3MOL0     C  337   6.974  10.237   6.802 -0.4736 -0.7845 -0.3725
    3MOL0     H  338   6.999  10.216   7.360  0.0926 -0.0927 -3.7615
    3MOL0     H  339   7.119  10.075   7.531 -1.6514  0.3963  1.0508
    3MOL0     H  340   7.274   9.900   7.567  1.6199  0.6822  2.8462
    3MOL0     H  341   7.186   9.919   7.717 -1.1471  0.1195  0.2863
    3MOL0     H  342   7.250   9.649   7.578  0.5160 -1.1807  0.9573
    3MOL0     H  343   7.188   9.667   7.735 -3.1906  3.7324  0.1128
    3MOL0     H  344   7.457   9.749   7.608  0.7103 -2.7123 -0.5078
    3MOL0     H  345   7.433   9.619   7.725  2.0854 -0.1428 -1.6879
    3MOL0     H  346   7.384   9.910   7.801 -2.4263 -0.4923  0.1596
    3MOL0     H  347   7.383   9.776   7.913  2.6846 -0.9042  0.4867
    3MOL0     H  348   7.629   9.735   7.864  1.5307  0.9580  0.7255
    3MOL0     H  349   7.630   9.853   7.749  0.3121 -0.6320 -0.0277
    3MOL0     H  350   7.577  10.008   7.953  2.8785 -1.0423 -2.2450
    3MOL0     H  351   7.535   9.874   8.056  1.4938 -2.1938 -0.0652
    3MOL0     H  352   7.773  10.004   8.056  0.5610 -0.0001  0.0315
    3MOL0     H  353   7.808   9.887   7.925 -0.0540 -2.2914  0.1165
    3MOL0     H  354   7.898   9.782   8.107 -1.0763  2.0281 -2.4673
    3MOL0     H  355   7.765   9.813   8.225  2.0267  0.4568  1.1727
    3MOL0     H  356   7.871   9.574   7.913  0.5303  1.8325 -0.2308
    3MOL0     H  357   7.691   9.249   7.967 -0.7455  0.9968 -1.7733
    3MOL0     H  358   7.793   9.318   7.848  1.3950 -0.6233 -0.5498
    3MOL0     H  359   7.995   9.331   7.967 -1.2812  2.7704  0.7211
    3MOL0     H  360   7.934   9.252   8.109  3.0765 -1.0666 -1.2043
    3MOL0     H  361   7.928   9.112   7.848  0.3967 -2.3455  0.4195
    3MOL0     H  362   7.879   9.054   8.009  0.8615 -1.4207  1.1031
    3MOL0     H  363   8.146   9.155   7.986  0.3413 -0.3667 -0.5815
    3MOL0     H  364   8.105   8.993   7.923 -1.7543 -1.2687  0.8899
    3MOL0     H  365   8.310   9.008   8.242  2.3331 -0.1202 -1.8990
    3MOL0     H  366   8.421   8.810   8.323 -0.8111  1.3307 -0.1381
    3MOL0     H  367   8.597   8.497   8.562  1.3834 -2.3345  1.8806
    3MOL0     H  368   8.692   8.275   8.637 -3.1057  3.7316  1.7341
    3MOL0     H  369   8.558   7.960   8.462  0.9016 -0.6617 -1.1129
    3MOL0     H  370   8.672   7.933   8.334 -0.3903 -0.9092 -0.1389
    3MOL0     H  371   8.720   7.855   8.625  2.7087  0.7697  0.1022
    3MOL0     H  372   8.673   7.735   8.495  1.0576 -0.1974  0.1594
    3MOL0     H  373   8.904   7.880   8.395  0.2667  0.9680  0.6999
    3MOL0     H  374   8.934   7.882   8.572  0.2441  1.0803  0.4230
    3MOL0     H  375   8.885   7.621   8.402 -1.9221 -1.1143  1.8732
    3MOL0     H  376   8.923   7.640   8.574 -1.3341 -0.4198 -0.8319
    3MOL0     H  377   9.128   7.757   8.518 -1.7407 -1.2237  4.0679
    3MOL0     H  378   9.094   7.712   8.341 -2.6516 -5.7017 -1.7247
    3MOL0     H  379   9.061   7.476   8.435 -0.7012  1.2892  0.8949
    3MOL0     H  380   9.225   7.515   8.399  1.2292  0.7188  0.2440
    3MOL0     H  381   9.082   7.521   8.670  1.3790  0.3698  0.8602
    3MOL0     H  382   9.230   7.612   8.644  0.0096  0.5492 -0.0427
    3MOL0     H  383   9.274   7.385   8.729  1.4594 -0.1292 -0.3695
    3MOL0     H  384   9.168   7.310   8.608 -2.3608  1.2129 -1.3630
    3MOL0     H  385   8.606   8.119   8.244  1.4254 -0.9979  1.0062
    3MOL0     H  386   8.486   8.337   8.187 -0.7824 -1.7768 -0.0718
    3MOL0     H  387   8.089   8.572   8.159  1.0485 -0.1211 -3.6445
    3MOL0     H  388   7.978   8.774   8.103  0.7567  2.0002 -0.7051
    3MOL0     H  389   6.843   9.758   7.451  0.1963 -0.7602 -3.8880
    3MOL0     H  390   6.732   9.888   7.300 -1.6815 -0.0394  1.4482
    3MOL0     H  391   6.600  10.253   7.104 -1.5105  1.5593 -0.6233
    3MOL0     H  392   6.458  10.323   6.936 -0.2595  0.5357 -1.9755
    3MOL0     H  393   6.369  10.433   6.751  1.7655 -2.1855  2.0995
    3MOL0     H  394   6.355  10.260   6.726 -1.7229  0.7876  0.7079
    3MOL0     H  395   6.391  10.484   6.512 -0.7662  0.0024 -1.0392
    3MOL0     H  396   6.240  10.435   6.588  1.0733  3.1966 -0.5711
    3MOL0     H  397   6.248  10.213   6.495  1.7192  2.3099  4.9319
    3MOL0     H  398   6.405  10.262   6.410 -0.6360 -0.8073 -1.5460
    3MOL0     H  399   6.154  10.433   6.354  0.8248  1.5990 -3.5044
    3MOL0     H  400   6.290  10.410   6.262  2.1741 -0.1374  1.8673
    3MOL0     H  401   6.101  10.071   6.110 -1.3757  0.9226 -0.9514
    3MOL0     H  402   6.780  10.343   6.658  2.8495  0.7383  0.0911
    3MOL0     H  403   7.022  10.334   6.794 -0.7838 -0.2351  3.0390
    3MOL0     H  404   7.029  10.161   6.858 -0.2202 -0.1903  0.1939
    3MOL0     H  405   6.970  10.198   6.699 -0.9927  0.7646 -0.9737
    4MOL0     O  406  11.448   9.543  10.193 -0.1568  0.9474  0.2442
    4MOL0     C  407  11.484   9.660  10.197  0.2338 -0.2045  0.9000
    4MOL0     O  408  11.418   9.760  10.252  0.7009 -0.1448  0.2995
    4MOL0     C  409  11.298   9.732  10.306 -0.9266  0.5876  1.1204
    4MOL0     C  410  11.284   9.667  10.433 -0.2211  0.3665  0.5893
    4MOL0     C  411  11.159   9.662  10.489  0.8876 -0.0248 -0.1223
    4MOL0     C  412  11.044   9.696  10.411  0.7219 -0.0597  0.3313
    4MOL0     O  413  10.924   9.664  10.467  0.2760  0.1813  0.2346
    4MOL0     C  414  10.806   9.680  10.381  0.1518  0.1199 -0.2069
    4MOL0     C  415  10.674   9.645  10.454 -0.5111 -0.5144  0.5426
    4MOL0     C  416  10.551   9.692  10.392 -0.5057  0.0130  0.5139
    4MOL0     C  417  10.533   9.656  10.244 -0.2943  0.3768  0.3593
    4MOL0     C  418  10.381   9.663  10.201 -0.2219  0.1376 -0.4697
    4MOL0     C  419  10.336   9.805  10.208  0.6826  0.2606  0.0114
    4MOL0     C  420  10.187   9.820  10.170  0.3426  0.3857  0.1021
    4MOL0     C  421  10.087   9.716  10.236 -0.3757 -0.4934 -0.2402
    4MOL0     N  422   9.949   9.720  10.183 -0.4942 -0.9066 -0.7231
    4MOL0     C  423   9.840   9.801  10.230 -0.3665 -0.5317  0.2016
    4MOL0     C  424   9.740   9.771  10.147 -0.2000 -0.8115 -0.2979
    4MOL0     C  425   9.602   9.844  10.152 -0.3729  0.3368 -0.0346
    4MOL0     C  426   9.486   9.744  10.147 -0.0648  0.2869  0.2394
    4MOL0     C  427   9.349   9.807  10.182 -0.1245  0.1872  0.8647
    4MOL0     C  428   9.220   9.717  10.179  0.4684 -0.2179 -0.2956
    4MOL0     O  429   9.245   9.624  10.288 -0.1301 -0.2943  0.2172
    4MOL0     C  430   9.178   9.635  10.407  0.2821 -0.5099 -0.4869
    4MOL0     C  431   9.188   9.518  10.486 -0.7465 -0.8162  0.3260
    4MOL0     C  432   9.102   9.494  10.593  0.4052 -0.1644  0.3369
    4MOL0     C  433   9.003   9.584  10.624  0.0655  0.5995  0.2550
    4MOL0     C  434   8.907   9.552  10.726 -0.5694 -0.3730 -0.7939
    4MOL0     O  435   8.802   9.625  10.736  0.3875  0.6866 -0.2087
    4MOL0     C  436   8.711   9.597  10.834 -0.6824 -0.2330  0.6153
    4MOL0     C  437   8.606   9.512  10.811 -0.6553 -0.7009  0.8633
    4MOL0     C  438   8.502   9.497  10.905  0.0123  0.6221 -0.7796
    4MOL0     C  439   8.488   9.564  11.016 -0.2548 -0.4035 -0.0201
    4MOL0     O  440   8.394   9.530  11.110  0.2249  0.8332 -1.0599
    4MOL0     C  441   8.336   9.642  11.177 -0.0177 -0.1229  0.3458
    4MOL0     C  442   8.229   9.598  11.288 -0.4062 -1.0550  0.0365
    4MOL0     C  443   8.309   9.531  11.406  0.3081  0.4712  1.4172
    4MOL0     C  444   8.329   9.617  11.527 -0.0845 -0.1397 -0.3296
    4MOL0     C  445   8.393   9.549  11.644  0.1499  0.2626 -0.8739
    4MOL0     C  446   8.313   9.480  11.750 -0.3051  0.5388 -0.5882
    4MOL0     C  447   8.219   9.581  11.832  0.0572 -0.0050  0.6517
    4MOL0     C  448   8.197   9.544  11.980  0.2204 -0.5748 -0.2011
    4MOL0    Cl  449   8.038   9.614  12.031  0.1334  0.5649 -0.2831
    4MOL0     C  450   8.599   9.660  11.032 -0.3658 -0.3427 -0.4154
    4MOL0     C  451   8.707   9.668  10.946 -0.8786 -0.5689  0.2331
    4MOL0     O  452   8.942   9.458  10.798  0.1565  0.0388 -0.0039
    4MOL0     C  453   8.998   9.711  10.552 -0.0104  0.5603  0.4799
    4MOL0     C  454   9.083   9.727  10.437 -0.2418  0.2672 -1.0304
    4MOL0     N  455   9.777   9.677  10.067 -0.1396  0.4190 -0.2397
    4MOL0     N  456   9.901   9.649  10.084  0.5063  0.0751  0.1249
    4MOL0     C  457  11.060   9.761  10.288 -0.6709  0.1225  0.6635
    4MOL0     C  458  11.191   9.782  10.237  0.1359  0.6249  0.1507
    4MOL0     C  459  11.623   9.683  10.143  0.0583  0.3169 -1.2400
    4MOL0     C  460  11.709   9.749  10.227  0.9234 -0.4611 -0.4300
    4MOL0     C  461  11.840   9.757  10.182  0.2072 -0.0254  0.3447
    4MOL0     C  462  11.884   9.719  10.057  1.1458  1.7514  0.7606
    4MOL0     O  463  12.010   9.733  10.003 -0.1464  0.0221 -0.1036
    4MOL0     C  464  12.120   9.797  10.069 -0.2248 -0.7617  0.8312
    4MOL0     C  465  12.114   9.953  10.056 -0.1778 -0.4156  0.2693
    4MOL0     C  466  12.213  10.016  10.142 -0.0871  0.1779 -0.1973
    4MOL0     C  467  12.157  10.016  10.290  0.5184  0.4173  0.0059
    4MOL0     C  468  12.284  10.035  10.365 -1.1155 -0.8858  1.2115
    4MOL0     C  469  12.383  10.054  10.429 -0.2880  0.2998  0.0271
    4MOL0     C  470  11.785   9.657   9.978 -0.2453 -0.5034 -0.4688
    4MOL0     C  471  11.656   9.623  10.023 -0.1733  0.6547  0.4075
    4MOL0     C  472  11.570   9.557   9.924  0.8719  0.6229  0.0035
    4MOL0     H  473  11.365   9.613  10.481 -0.2917 -0.8199 -0.5424
    4MOL0     H  474  11.136   9.615  10.584 -1.9113 -0.9453 -1.1444
    4MOL0     H  475  10.807   9.784  10.345  1.8292  0.7960  1.5714
    4MOL0     H  476  10.824   9.626  10.288  0.0102  1.4477 -1.0362
    4MOL0     H  477  10.668   9.698  10.549 -1.6147  1.1395 -0.3867
    4MOL0     H  478  10.666   9.536  10.463  1.0920 -0.6459  0.5837
    4MOL0     H  479  10.543   9.801  10.401  1.5670  0.1456  1.4782
    4MOL0     H  480  10.468   9.655  10.452 -0.8498  0.7936  0.5335
    4MOL0     H  481  10.585   9.730  10.182 -2.6640  2.8340  1.1287
    4MOL0     H  482  10.569   9.557  10.214 -0.7285  0.1644  0.5315
    4MOL0     H  483  10.376   9.625  10.098 -0.5899  1.7384 -1.0761
    4MOL0     H  484  10.323   9.598  10.267  0.5861 -1.8551 -1.6389
    4MOL0     H  485  10.353   9.844  10.309  4.0065  1.5880 -0.9272
    4MOL0     H  486  10.397   9.876  10.151  0.6307  0.1030 -0.2400
    4MOL0     H  487  10.181   9.811  10.061  0.9171 -0.6317  0.1435
    4MOL0     H  488  10.162   9.923  10.199 -1.8706 -1.1070  4.4013
    4MOL0     H  489  10.135   9.618  10.234 -1.4252 -1.0692  1.0151
    4MOL0     H  490  10.081   9.729  10.344  1.1079  0.5126 -0.2532
    4MOL0     H  491   9.847   9.875  10.309  2.1524  1.5872 -1.7697
    4MOL0     H  492   9.608   9.923  10.227 -0.0914 -0.1754  0.4855
    4MOL0     H  493   9.592   9.909  10.064 -0.7547 -0.9585 -0.9743
    4MOL0     H  494   9.494   9.702  10.046  0.7813  1.6608 -0.3007
    4MOL0     H  495   9.507   9.657  10.209 -0.3428 -0.5518 -0.8108
    4MOL0     H  496   9.331   9.888  10.111  2.5145 -2.6563 -3.5048
    4MOL0     H  497   9.361   9.853  10.281 -0.8899  1.1391  0.5359
    4MOL0     H  498   9.198   9.655  10.092  0.4660 -3.1116  1.6088
    4MOL0     H  499   9.133   9.782  10.192 -0.6382 -2.0984  2.7482
    4MOL0     H  500   9.259   9.441  10.458 -2.0769 -2.5426  1.5058
    4MOL0     H  501   9.094   9.396  10.638 -3.7990 -0.4246 -0.5250
    4MOL0     H  502   8.604   9.448  10.723  3.0187 -0.4833  0.4474
    4MOL0     H  503   8.439   9.409  10.898  0.7361  0.0121  0.0077
    4MOL0     H  504   8.410   9.712  11.216  2.3168 -2.6911  0.8120
    4MOL0     H  505   8.279   9.699  11.103 -2.3398 -0.2617  1.8927
    4MOL0     H  506   8.183   9.688  11.330 -0.4619 -0.7500 -0.6763
    4MOL0     H  507   8.155   9.528  11.249  0.6925 -1.6955 -0.9805
    4MOL0     H  508   8.259   9.437  11.432  1.3885 -0.0622  1.6270
    4MOL0     H  509   8.413   9.509  11.382  0.6939  3.6414 -0.2114
    4MOL0     H  510   8.237   9.652  11.576  0.9875 -0.4003  1.9764
    4MOL0     H  511   8.387   9.704  11.494  0.4615  0.1788  1.3684
    4MOL0     H  512   8.452   9.623  11.697 -2.0099  0.4894  1.3832
    4MOL0     H  513   8.472   9.479  11.615  1.1092 -0.2339  2.5856
    4MOL0     H  514   8.254   9.413  11.687 -0.2640  1.9937 -2.2354
    4MOL0     H  515   8.381   9.423  11.815 -1.4777 -2.3846 -1.7319
    4MOL0     H  516   8.121   9.587  11.783  0.0474  0.4349  0.7203
    4MOL0     H  517   8.256   9.684  11.822  0.4485 -0.0629  1.4609
    4MOL0     H  518   8.176   9.437  11.975 -1.0282 -0.2985 -1.9807
    4MOL0     H  519   8.276   9.577  12.047 -0.2388  2.3576 -0.9641
    4MOL0     H  520   8.600   9.717  11.125 -1.6412  0.6651 -0.9830
    4MOL0     H  521   8.790   9.737  10.960 -3.0913  2.2261  0.5662
    4MOL0     H  522   8.916   9.781  10.567 -0.5904  0.2111 -0.9172
    4MOL0     H  523   9.058   9.821  10.388 -1.8491  0.5676  0.2770
    4MOL0     H  524  10.986   9.803  10.220 -0.3977  1.4540  1.1581
    4MOL0     H  525  11.219   9.839  10.149 -0.4321 -0.9668 -1.1015
    4MOL0     H  526  11.686   9.780  10.329 -0.7329 -0.1812 -0.8605
    4MOL0     H  527  11.911   9.805  10.248  0.0153  1.2746 -0.3494
    4MOL0     H  528  12.215   9.764  10.027  0.5321 -0.8815  2.5560
    4MOL0     H  529  12.125   9.776  10.176 -0.8504  2.0273  1.4990
    4MOL0     H  530  12.016   9.994  10.083  0.0172 -0.1395  0.5755
    4MOL0     H  531  12.133   9.971   9.950  1.9668 -1.2371  0.4723
    4MOL0     H  532  12.227  10.123  10.123 -0.7035 -0.0208 -1.9961
    4MOL0     H  533  12.307   9.961  10.136 -0.2789 -0.1980  0.2089
    4MOL0     H  534  12.084  10.094  10.312 -1.5837 -1.9581  2.1555
    4MOL0     H  535  12.117   9.920  10.323  1.5162 -0.1057 -0.2399
    4MOL0     H  536  12.470  10.051  10.492 -0.3850 -2.0042  0.1334
    4MOL0     H  537  11.834   9.610   9.893  1.3601  0.8504 -0.3417
    4MOL0     H  538  11.560   9.450   9.943  0.2745  0.8489  1.0239
    4MOL0     H  539  11.470   9.601   9.916 -0.3059 -2.0430 -1.0052
    4MOL0     H  540  11.591   9.578   9.819 -4.3625  1.6022 -1.1114
    5MOL0     O  541  10.622   0.199  11.352 -0.2336  1.0873  0.3197
    5MOL0     C  542  10.561   0.277  11.422  0.1393 -0.7039 -0.0626
    5MOL0     O  543  10.440   0.263  11.476 -0.1485  0.1951  0.0704
    5MOL0     C  544  10.370   0.145  11.470 -0.0493  0.6787  1.1069
    5MOL0     C  545  10.383   0.046  11.367 -0.3317 -0.4604  0.3696
    5MOL0     C  546  10.289  -0.059  11.361  0.6519 -0.4220 -0.7408
    5MOL0     C  547  10.185  -0.073  11.458  0.1521 -0.3889  0.3979
    5MOL0     O  548  10.102  -0.181  11.431 -0.5313  0.1274  0.7752
    5MOL0     C  549  10.031  -0.236  11.550  0.7117  0.5338 -0.1184
    5MOL0     C  550  10.126  -0.317  11.642  0.3340 -0.1108  0.0393
    5MOL0     C  551  10.210  -0.423  11.580 -0.4324  0.3119 -0.0926
    5MOL0     C  552  10.298  -0.488  11.689  0.0216 -0.1144 -1.2060
    5MOL0     C  553  10.359  -0.619  11.644 -0.0232 -0.5963 -0.5084
    5MOL0     C  554  10.451  -0.603  11.527  0.4976 -1.0734 -0.2181
    5MOL0     C  555  10.510  -0.745  11.514 -0.1092  0.9416  0.2697
    5MOL0     C  556  10.616  -0.767  11.403 -0.3203  0.4572 -0.6549
    5MOL0     N  557  10.559  -0.766  11.262  0.5952 -0.3700 -0.2845
    5MOL0     C  558  10.488  -0.879  11.219  0.1289  0.3011 -0.1656
    5MOL0     C  559  10.478  -0.853  11.087 -0.3738  0.4198 -1.0948
    5MOL0     C  560  10.418  -0.941  10.979  0.5828 -0.5525 -0.0052
    5MOL0     C  561  10.281  -0.905  10.929  0.2203 -0.1626 -0.4630
    5MOL0     C  562  10.276  -0.953  10.783 -0.2113 -0.0848 -0.5178
    5MOL0     C  563  10.138  -0.906  10.729 -0.5619  0.0888 -0.3651
    5MOL0     O  564  10.028  -0.966  10.806 -0.0010  0.8589  0.0861
    5MOL0     C  565   9.903  -0.966  10.764  0.4812  0.1687  0.4614
    5MOL0     C  566   9.812  -1.049  10.834 -0.1605 -0.0144 -0.0252
    5MOL0     C  567   9.678  -1.026  10.816  0.1860  0.0049  0.4595
    5MOL0     C  568   9.630  -0.956  10.703 -0.3603  0.7441 -0.0021
    5MOL0     C  569   9.490  -0.953  10.667  0.2001  0.1181  1.0221
    5MOL0     O  570   9.430  -0.841  10.609 -0.0989  0.5116  0.5997
    5MOL0     C  571   9.302  -0.811  10.607  1.7843  0.1902  0.3093
    5MOL0     C  572   9.201  -0.852  10.705 -0.2575 -0.5194  0.0602
    5MOL0     C  573   9.059  -0.837  10.693  0.4794 -0.0780 -0.1450
    5MOL0     C  574   9.009  -0.770  10.582  0.2992 -0.5261 -0.1405
    5MOL0     O  575   8.875  -0.735  10.574 -0.2518 -0.5660  0.4949
    5MOL0     C  576   8.794  -0.701  10.687 -0.3154  0.4914  0.9003
    5MOL0     C  577   8.668  -0.609  10.644 -0.6718  0.8068  0.1875
    5MOL0     C  578   8.568  -0.577  10.757  0.1898 -0.5679 -0.1929
    5MOL0     C  579   8.629  -0.476  10.852  0.7267 -0.6266  0.5444
    5MOL0     C  580   8.568  -0.488  10.984  0.0856  0.3674  1.0805
    5MOL0     C  581   8.416  -0.450  10.988  0.0947  0.4752 -0.4002
    5MOL0     C  582   8.350  -0.506  11.122  0.2783  0.6577 -0.6691
    5MOL0     C  583   8.194  -0.490  11.098 -0.6129 -0.0274 -0.3264
    5MOL0    Cl  584   8.108  -0.483  11.258 -0.1463  0.0083  0.1661
    5MOL0     C  585   9.103  -0.733  10.487  0.1528 -0.2608 -0.1804
    5MOL0     C  586   9.244  -0.750  10.495 -0.4830 -0.2582  1.0425
    5MOL0     O  587   9.425  -1.045  10.709 -0.1947 -0.5545 -0.1271
    5MOL0     C  588   9.723  -0.877  10.628  0.0799 -0.1085  0.2836
    5MOL0     C  589   9.856  -0.885  10.658 -0.2192  0.6144  0.1788
    5MOL0     N  590  10.535  -0.727  11.065 -0.0613  0.1811  0.3033
    5MOL0     N  591  10.589  -0.677  11.171  0.3658 -0.0472 -0.2383
    5MOL0     C  592  10.178   0.032  11.557  0.0617  0.3872 -0.7428
    5MOL0     C  593  10.268   0.140  11.561  0.2645  0.0068 -0.6586
    5MOL0     C  594  10.616   0.417  11.444 -0.1324  0.5639  0.3267
    5MOL0     C  595  10.643   0.441  11.579  0.3829 -0.2629  0.7394
    5MOL0     C  596  10.692   0.566  11.614 -0.5656  0.8123 -0.1412
    5MOL0     C  597  10.719   0.661  11.512 -0.5298  0.7250 -0.2347
    5MOL0     O  598  10.771   0.775  11.566  0.2247 -0.4816  0.6031
    5MOL0     C  599  10.801   0.882  11.470  0.4213  0.7671  0.0240
    5MOL0     C  600  10.868   0.994  11.540 -0.3553 -0.6185  0.0479
    5MOL0     C  601  10.996   0.956  11.602  0.1095  0.5979  0.0095
    5MOL0     C  602  11.068   1.072  11.677  0.1019 -0.1562 -0.3510
    5MOL0     C  603  11.041   1.050  11.820  0.2201 -0.5854 -0.8135
    5MOL0     C  604  11.008   1.032  11.936  0.9602 -0.0798  0.4535
    5MOL0     C  605  10.681   0.635  11.380  1.6148  0.4087 -0.1863
    5MOL0     C  606  10.620   0.515  11.354 -0.2703 -0.7222 -0.6969
    5MOL0     C  607  10.578   0.493  11.214  0.3305 -0.0922 -1.0894
    5MOL0     H  608  10.462   0.042  11.292 -1.9512 -1.0953 -1.4117
    5MOL0     H  609  10.304  -0.131  11.281  4.1426 -0.5207 -0.1449
    5MOL0     H  610   9.979  -0.155  11.603  0.6961  0.4146  0.0480
    5MOL0     H  611   9.959  -0.312  11.522  1.1709 -0.1196  0.4530
    5MOL0     H  612  10.066  -0.372  11.715  1.6888 -2.0540 -0.2453
    5MOL0     H  613  10.190  -0.251  11.702 -0.1581  1.2162 -0.8553
    5MOL0     H  614  10.277  -0.384  11.503  1.3102  1.7968  2.0582
    5MOL0     H  615  10.143  -0.502  11.545  1.8274 -0.5337 -2.9448
    5MOL0     H  616  10.384  -0.429  11.724  0.6373 -2.1347  0.9229
    5MOL0     H  617  10.242  -0.504  11.782  0.9921  4.9924  0.6144
    5MOL0     H  618  10.422  -0.644  11.730  1.5952 -1.5644 -1.9135
    5MOL0     H  619  10.281  -0.689  11.614  1.0216 -2.4899  0.9413
    5MOL0     H  620  10.408  -0.564  11.434 -0.4843 -1.9382 -0.1361
    5MOL0     H  621  10.531  -0.535  11.556 -0.6435 -0.1236  0.7957
    5MOL0     H  622  10.428  -0.813  11.491 -0.9881  1.0679  2.7882
    5MOL0     H  623  10.555  -0.785  11.605  1.7674  0.8048 -0.6670
    5MOL0     H  624  10.695  -0.694  11.421  0.1758 -0.2816  0.2970
    5MOL0     H  625  10.673  -0.858  11.425  1.7833  1.9002  0.2167
    5MOL0     H  626  10.450  -0.962  11.277 -1.5972  1.4415  0.4099
    5MOL0     H  627  10.490  -0.944  10.898  0.2778 -1.4421 -0.2539
    5MOL0     H  628  10.397  -1.041  11.017  0.5786 -0.0657  1.3635
    5MOL0     H  629  10.196  -0.942  10.988  0.3736 -2.9615 -1.8344
    5MOL0     H  630  10.278  -0.796  10.941  2.0326 -0.1691  0.4825
    5MOL0     H  631  10.286  -1.061  10.774 -1.1606 -0.1031 -1.6010
    5MOL0     H  632  10.360  -0.905  10.730  0.4960  0.4167  1.0153
    5MOL0     H  633  10.143  -0.940  10.626  3.1874 -1.3438  0.1528
    5MOL0     H  634  10.131  -0.797  10.718  1.5453 -0.0040 -3.8252
    5MOL0     H  635   9.844  -1.102  10.923  0.5658  1.6995  0.7703
    5MOL0     H  636   9.615  -1.079  10.887 -0.7276  3.0656  2.0881
    5MOL0     H  637   9.236  -0.909  10.791  0.4616  0.7111  0.6074
    5MOL0     H  638   9.001  -0.871  10.779 -0.0003  1.2215  0.0668
    5MOL0     H  639   8.769  -0.796  10.735 -3.3815 -0.4737 -2.1599
    5MOL0     H  640   8.853  -0.650  10.764  4.2786 -1.5181 -0.8879
    5MOL0     H  641   8.713  -0.514  10.612 -0.0533  0.5266  0.2064
    5MOL0     H  642   8.615  -0.664  10.566  1.8977 -0.2692 -0.9218
    5MOL0     H  643   8.477  -0.528  10.722  1.1239  3.4019  2.3555
    5MOL0     H  644   8.543  -0.669  10.810 -0.0148  0.4003  1.4550
    5MOL0     H  645   8.605  -0.381  10.804 -0.4860  0.0783  2.4360
    5MOL0     H  646   8.736  -0.480  10.871  0.5870 -0.6270  1.3618
    5MOL0     H  647   8.622  -0.414  11.044 -1.5810  2.8852 -0.3056
    5MOL0     H  648   8.589  -0.588  11.023 -0.4232 -0.5809 -0.9217
    5MOL0     H  649   8.398  -0.342  10.978 -0.4230  0.9089  3.5309
    5MOL0     H  650   8.366  -0.498  10.903  0.6963 -0.0036 -0.4845
    5MOL0     H  651   8.394  -0.448  11.203 -0.5438  1.5061 -0.8191
    5MOL0     H  652   8.382  -0.610  11.137  1.4729  1.0558 -0.3601
    5MOL0     H  653   8.177  -0.390  11.058  0.7481 -0.1945 -1.4086
    5MOL0     H  654   8.154  -0.567  11.032 -3.7013 -0.6450  2.0138
    5MOL0     H  655   9.070  -0.661  10.413  0.4177  0.2388  0.1866
    5MOL0     H  656   9.309  -0.725  10.411 -0.2201 -2.9135  0.3458
    5MOL0     H  657   9.690  -0.807  10.552 -1.1377 -0.9892 -0.0202
    5MOL0     H  658   9.932  -0.833  10.601 -0.9544  3.2562  1.4468
    5MOL0     H  659  10.092   0.035  11.624  1.5480 -0.6629  1.3465
    5MOL0     H  660  10.253   0.208  11.644  1.9431 -1.2752  0.7702
    5MOL0     H  661  10.634   0.364  11.655  4.0506 -1.2114  0.4186
    5MOL0     H  662  10.726   0.576  11.717  0.8791 -1.1139 -0.3674
    5MOL0     H  663  10.704   0.923  11.440 -2.4223 -3.6515  2.1807
    5MOL0     H  664  10.859   0.854  11.381 -1.7845 -2.0560 -0.6453
    5MOL0     H  665  10.798   1.038  11.612  0.8113  1.0496  0.2241
    5MOL0     H  666  10.894   1.070  11.466  1.0311 -0.5138  0.6125
    5MOL0     H  667  11.070   0.922  11.529 -0.2332 -0.4301  0.1139
    5MOL0     H  668  10.991   0.873  11.675  2.5981 -0.2431 -0.7057
    5MOL0     H  669  11.177   1.078  11.668 -0.0418  3.3513 -0.9793
    5MOL0     H  670  11.028   1.167  11.642  2.2204  0.5593 -0.9869
    5MOL0     H  671  10.994   1.011  12.040 -1.8181  0.7787  0.3203
    5MOL0     H  672  10.698   0.702  11.296 -0.5812  1.1171 -0.1355
    5MOL0     H  673  10.472   0.516  11.199 -0.3597 -1.2052  1.5392
    5MOL0     H  674  10.633   0.566  11.154  3.0675 -1.5331 -0.4776
    5MOL0     H  675  10.605   0.391  11.185  1.5932 -0.6927  1.9104
    6MOL0     O  676   0.637   9.626   8.055  0.1036  0.2313  0.0975
    6MOL0     C  677   0.604   9.563   7.958  0.8014 -0.2136  0.1850
    6MOL0     O  678   0.668   9.559   7.833 -0.3367 -0.3164  0.1376
    6MOL0     C  679   0.806   9.592   7.813  0.2876 -0.1070  0.2592
    6MOL0     C  680   0.853   9.717   7.851  0.1630  0.4191  0.3950
    6MOL0     C  681   0.993   9.745   7.838 -0.0267  0.3438  0.3090
    6MOL0     C  682   1.083   9.655   7.787 -0.8354 -0.1691  1.0426
    6MOL0     O  683   1.222   9.681   7.774  0.3950  0.3252 -0.5009
    6MOL0     C  684   1.272   9.813   7.771  0.1943 -0.0085  0.5415
    6MOL0     C  685   1.406   9.813   7.697 -0.0887  0.0295 -0.6047
    6MOL0     C  686   1.526   9.816   7.798  1.1379 -0.7323  0.6338
    6MOL0     C  687   1.659   9.783   7.721 -0.1097 -0.1306 -0.3829
    6MOL0     C  688   1.776   9.780   7.831  0.7722 -0.5390  0.0275
    6MOL0     C  689   1.914   9.783   7.773 -0.3557  0.4637  0.1092
    6MOL0     C  690   1.941   9.650   7.714 -0.8925  0.3127 -0.3600
    6MOL0     C  691   2.091   9.640   7.679  0.4452 -0.9032 -0.3914
    6MOL0     N  692   2.105   9.506   7.617 -0.0978 -0.1830 -0.4663
    6MOL0     C  693   2.141   9.399   7.696  0.2180  0.7461  0.0780
    6MOL0     C  694   2.135   9.296   7.607  0.0456  0.3791  0.5341
    6MOL0     C  695   2.167   9.152   7.647  0.1267 -0.0978  0.4313
    6MOL0     C  696   2.034   9.063   7.660 -0.7786 -1.2607 -1.2431
    6MOL0     C  697   1.958   9.114   7.795 -0.7900 -0.4400  0.1001
    6MOL0     C  698   1.849   9.020   7.838 -0.6929  0.7610  0.3909
    6MOL0     O  699   1.901   8.888   7.870  0.7408  0.4801  0.7762
    6MOL0     C  700   1.978   8.885   7.975 -0.8074  1.1611 -0.8737
    6MOL0     C  701   2.117   8.888   7.977 -0.2552  0.3334  0.1290
    6MOL0     C  702   2.187   8.873   8.100  0.1595 -0.5455  0.8546
    6MOL0     C  703   2.120   8.844   8.217 -0.1891  0.2784 -1.2505
    6MOL0     C  704   2.191   8.803   8.348 -0.4695 -0.3240  0.8028
    6MOL0     O  705   2.326   8.781   8.341 -0.0039  0.7521  0.2784
    6MOL0     C  706   2.405   8.769   8.447 -1.0985  0.1537  0.2124
    6MOL0     C  707   2.384   8.797   8.581  0.0471  0.1506  0.2284
    6MOL0     C  708   2.487   8.777   8.682 -0.0424 -0.1596  1.0109
    6MOL0     C  709   2.617   8.727   8.645  0.0854  0.2619 -0.1190
    6MOL0     O  710   2.709   8.689   8.739 -0.5137 -1.0307 -0.3151
    6MOL0     C  711   2.680   8.629   8.865  0.1717 -0.7676 -0.5326
    6MOL0     C  712   2.715   8.478   8.852  0.6772  0.6288  0.0213
    6MOL0     C  713   2.863   8.442   8.842  0.0097 -0.8981  0.3641
    6MOL0     C  714   2.889   8.286   8.852  0.2738  0.1463  0.1471
    6MOL0     C  715   3.007   8.250   8.778 -0.3592  0.0834  0.5542
    6MOL0     C  716   3.039   8.097   8.785  0.0893  0.2219  0.0208
    6MOL0     C  717   2.918   8.001   8.797 -0.1882 -0.7384 -0.2744
    6MOL0     C  718   2.977   7.867   8.760  0.4066 -0.7518  0.1582
    6MOL0    Cl  719   3.037   7.769   8.903 -0.2751 -0.4345  0.0897
    6MOL0     C  720   2.630   8.681   8.513 -0.5549  0.4076 -0.0808
    6MOL0     C  721   2.527   8.711   8.420 -0.8286  0.2376 -0.0158
    6MOL0     O  722   2.122   8.784   8.444  0.1276  0.5578 -0.5972
    6MOL0     C  723   1.982   8.863   8.217 -0.4996  1.1038 -0.2693
    6MOL0     C  724   1.918   8.885   8.100 -0.5830  0.3857  0.7681
    6MOL0     N  725   2.086   9.344   7.480 -0.4812  0.0092  0.4185
    6MOL0     N  726   2.095   9.468   7.488 -0.6169  0.1101 -0.8789
    6MOL0     C  727   1.033   9.538   7.730 -0.3591  0.2075 -1.2678
    6MOL0     C  728   0.898   9.507   7.745  1.2888 -0.6827 -0.4447
    6MOL0     C  729   0.477   9.470   7.961  0.1896  0.1899 -0.1278
    6MOL0     C  730   0.416   9.430   7.843 -0.8062 -0.3390 -0.6750
    6MOL0     C  731   0.301   9.358   7.839  0.5409  0.2376  0.0531
    6MOL0     C  732   0.235   9.321   7.959  0.5922  0.9029  0.2939
    6MOL0     O  733   0.110   9.255   7.970  0.0866 -0.6122  0.1357
    6MOL0     C  734   0.049   9.196   7.859 -0.2403 -0.1525  0.6305
    6MOL0     C  735  -0.031   9.301   7.775 -0.2386  0.5487 -0.4461
    6MOL0     C  736  -0.151   9.358   7.848 -1.0433 -0.5674  0.0262
    6MOL0     C  737  -0.115   9.472   7.948  1.0595 -0.3675 -0.3162
    6MOL0     C  738  -0.195   9.591   7.928  0.0245  0.6266  0.0994
    6MOL0     C  739  -0.252   9.698   7.937  1.0267 -0.3291 -0.2179
    6MOL0     C  740   0.299   9.341   8.083  0.1584  0.1154  0.0574
    6MOL0     C  741   0.423   9.414   8.085  0.2483 -0.4220 -0.1573
    6MOL0     C  742   0.502   9.436   8.221 -0.1653  0.0705  0.4731
    6MOL0     H  743   0.784   9.776   7.910  1.0528  0.2558  1.6192
    6MOL0     H  744   1.035   9.827   7.895  1.4536 -1.0484  1.3414
    6MOL0     H  745   1.210   9.888   7.719  2.9354  2.0219 -0.0630
    6MOL0     H  746   1.284   9.842   7.876 -2.4553 -1.1286  1.2334
    6MOL0     H  747   1.435   9.902   7.640  0.5779 -0.0675 -0.4241
    6MOL0     H  748   1.417   9.721   7.639  1.6042 -0.9052  1.1045
    6MOL0     H  749   1.515   9.739   7.875 -1.3290 -1.6149 -0.4956
    6MOL0     H  750   1.544   9.913   7.844  1.8722 -0.1464 -0.8147
    6MOL0     H  751   1.660   9.688   7.667  0.2485 -0.2671 -0.1455
    6MOL0     H  752   1.677   9.861   7.647 -0.4304 -0.0775 -0.4057
    6MOL0     H  753   1.782   9.876   7.885 -2.3089  0.8566 -1.8623
    6MOL0     H  754   1.762   9.705   7.909  3.7522 -2.0622 -0.7486
    6MOL0     H  755   1.919   9.858   7.693  0.7877  0.6104  0.2958
    6MOL0     H  756   1.988   9.800   7.851 -1.0287 -0.7068  1.0299
    6MOL0     H  757   1.876   9.636   7.627  1.2463 -0.0051 -1.9899
    6MOL0     H  758   1.931   9.567   7.785  0.1519  0.8808  0.4953
    6MOL0     H  759   2.107   9.727   7.616 -2.8483 -0.4524 -0.7836
    6MOL0     H  760   2.158   9.649   7.764 -2.1709  0.8354  1.6596
    6MOL0     H  761   2.167   9.398   7.801 -0.5287 -0.6532  0.2754
    6MOL0     H  762   2.240   9.103   7.583  0.6091 -2.8592  2.9173
    6MOL0     H  763   2.215   9.151   7.745  0.8012  0.6856  0.1263
    6MOL0     H  764   1.961   9.082   7.580 -1.1442  0.8788 -0.4616
    6MOL0     H  765   2.061   8.958   7.673  1.3084 -0.9092 -2.2452
    6MOL0     H  766   1.919   9.213   7.771  1.5483  0.4171 -0.4739
    6MOL0     H  767   2.031   9.122   7.877 -0.7074 -2.9074  0.3239
    6MOL0     H  768   1.780   8.998   7.755  1.1916 -0.1444 -1.0041
    6MOL0     H  769   1.786   9.052   7.922 -1.6108 -2.2228  0.9550
    6MOL0     H  770   2.173   8.896   7.884 -0.2849 -3.6867 -0.4038
    6MOL0     H  771   2.295   8.868   8.089  0.3722  3.2325  0.0229
    6MOL0     H  772   2.290   8.842   8.611 -0.7601 -0.6935 -0.9128
    6MOL0     H  773   2.479   8.792   8.789  2.2949 -2.3699  1.5877
    6MOL0     H  774   2.750   8.665   8.940 -1.2769 -0.8640  0.9144
    6MOL0     H  775   2.579   8.626   8.908  0.5160  1.3736  0.5876
    6MOL0     H  776   2.679   8.423   8.939  1.9169 -1.3885 -0.6733
    6MOL0     H  777   2.671   8.442   8.759  0.9694  1.0804 -0.2978
    6MOL0     H  778   2.890   8.485   8.745  1.2766  1.7697  1.7821
    6MOL0     H  779   2.914   8.496   8.922 -0.0133  1.6858 -1.2416
    6MOL0     H  780   2.801   8.239   8.807 -0.0548  4.3312 -4.3462
    6MOL0     H  781   2.887   8.253   8.956  0.0917  2.5803  0.9709
    6MOL0     H  782   3.096   8.301   8.815  1.0399 -0.0633 -2.3112
    6MOL0     H  783   2.984   8.288   8.678 -1.0560  1.9852  1.3998
    6MOL0     H  784   3.104   8.062   8.703 -0.1375  0.9224 -0.4722
    6MOL0     H  785   3.106   8.098   8.872 -0.3163  2.3920  0.3703
    6MOL0     H  786   2.848   8.031   8.718  0.3004 -0.3485 -0.5715
    6MOL0     H  787   2.865   8.013   8.891  0.5544  2.1880 -0.1303
    6MOL0     H  788   2.892   7.810   8.723 -0.5431 -0.1285  1.2893
    6MOL0     H  789   3.048   7.867   8.677  1.1205 -1.1282  0.7554
    6MOL0     H  790   2.721   8.628   8.489  0.1270  1.1259  0.8516
    6MOL0     H  791   2.538   8.690   8.314 -1.6449  2.9472 -0.7153
    6MOL0     H  792   1.921   8.854   8.306 -1.2632 -1.3581 -0.9635
    6MOL0     H  793   1.810   8.885   8.110 -0.5915 -0.4649  0.7305
    6MOL0     H  794   1.104   9.471   7.683  0.8961  0.3105  0.3771
    6MOL0     H  795   0.861   9.413   7.706 -3.3072  1.0460 -0.9217
    6MOL0     H  796   0.458   9.475   7.753  1.9746  1.8740  1.4900
    6MOL0     H  797   0.254   9.328   7.746 -1.4736 -0.8187  1.3352
    6MOL0     H  798  -0.025   9.121   7.889 -1.2877 -0.2763 -1.9755
    6MOL0     H  799   0.128   9.152   7.798 -1.0191 -0.9192  0.1530
    6MOL0     H  800  -0.071   9.248   7.688  2.9973  0.0359 -1.7759
    6MOL0     H  801   0.030   9.378   7.725  0.5271 -0.5509 -1.2635
    6MOL0     H  802  -0.210   9.280   7.896 -1.4017 -2.4285 -3.1563
    6MOL0     H  803  -0.206   9.406   7.768  1.9825  1.6042 -0.9345
    6MOL0     H  804  -0.136   9.440   8.051  2.2616  1.1147  0.4378
    6MOL0     H  805  -0.012   9.506   7.938  1.4932 -1.5072  0.0956
    6MOL0     H  806  -0.288   9.799   7.936  2.3714  0.2029  1.2306
    6MOL0     H  807   0.245   9.306   8.170  0.8300  1.3686  1.0159
    6MOL0     H  808   0.610   9.429   8.209  0.0617  2.4716  0.6000
    6MOL0     H  809   0.489   9.536   8.264 -1.0357  1.7054 -3.2158
    6MOL0     H  810   0.469   9.355   8.287 -0.6413  1.6973  2.3375
    7MOL0     O  811  10.062   4.758   6.449 -0.6255 -0.1204  0.9200
    7MOL0     C  812  10.123   4.858   6.479 -0.8082  0.4687 -0.2607
    7MOL0     O  813  10.119   4.980   6.418  0.4754  0.1151 -0.0422
    7MOL0     C  814  10.035   4.994   6.309 -0.1416  0.6619  0.3032
    7MOL0     C  815  10.084   5.069   6.207  0.0923  0.4843 -0.6456
    7MOL0     C  816  10.018   5.081   6.090  0.1511  0.1544 -0.8156
    7MOL0     C  817   9.882   5.043   6.078 -0.4510  0.6226 -0.8761
    7MOL0     O  818   9.831   5.055   5.948 -0.5527  0.1373 -0.1172
    7MOL0     C  819   9.698   4.999   5.920 -0.6097 -0.7534 -0.5627
    7MOL0     C  820   9.648   5.078   5.801 -0.5284  0.0855 -0.0279
    7MOL0     C  821   9.509   5.020   5.756 -0.2184  0.5356 -0.7748
    7MOL0     C  822   9.442   5.124   5.665  0.0964 -0.2537 -1.9447
    7MOL0     C  823   9.310   5.089   5.630 -0.2850  0.6200  0.0771
    7MOL0     C  824   9.228   5.033   5.751 -0.3407  0.6054 -0.5605
    7MOL0     C  825   9.083   5.013   5.712  0.4038 -0.5774 -0.1764
    7MOL0     C  826   9.064   4.900   5.610  0.3833 -0.2514  0.3122
    7MOL0     N  827   8.918   4.870   5.606  0.0245 -0.1800 -0.5579
    7MOL0     C  828   8.868   4.751   5.660 -0.0807 -1.2994 -0.3717
    7MOL0     C  829   8.739   4.760   5.619 -0.7311  0.2988 -0.2839
    7MOL0     C  830   8.643   4.647   5.647 -0.1102  0.1196 -0.0480
    7MOL0     C  831   8.576   4.590   5.514 -0.5651  0.3384 -0.8290
    7MOL0     C  832   8.506   4.456   5.551  0.9638  0.5925 -0.0455
    7MOL0     C  833   8.381   4.474   5.630  0.4795  0.5298 -0.4437
    7MOL0     O  834   8.275   4.520   5.547 -0.0559  0.2869 -0.5421
    7MOL0     C  835   8.144   4.505   5.596 -0.2074 -0.0738 -0.2030
    7MOL0     C  836   8.049   4.545   5.514  0.1009 -0.5977  0.2427
    7MOL0     C  837   7.917   4.547   5.551  0.9955  0.2069  0.0999
    7MOL0     C  838   7.877   4.500   5.681  1.6924 -0.4688  0.6371
    7MOL0     C  839   7.727   4.513   5.729 -0.6916  0.8396 -0.8511
    7MOL0     O  840   7.699   4.447   5.849  0.7699 -0.1091  0.2850
    7MOL0     C  841   7.568   4.459   5.889  0.1506  0.1790  0.4303
    7MOL0     C  842   7.484   4.578   5.902 -0.3155  0.4159 -0.4811
    7MOL0     C  843   7.358   4.561   5.950  0.2334 -0.7077 -0.3088
    7MOL0     C  844   7.298   4.434   5.951 -1.0575  0.2841 -0.8146
    7MOL0     O  845   7.163   4.405   5.977  0.6378  0.6036  0.7513
    7MOL0     C  846   7.070   4.500   5.928 -0.0740 -0.8549  0.5581
    7MOL0     C  847   6.920   4.469   5.964 -0.3379 -0.6302 -0.8797
    7MOL0     C  848   6.890   4.326   5.927  0.0404  0.0119 -0.3894
    7MOL0     C  849   6.738   4.309   5.925  0.4908  0.6015 -0.6531
    7MOL0     C  850   6.691   4.166   5.886 -0.1497  0.8133 -0.0117
    7MOL0     C  851   6.739   4.051   5.979 -0.6030 -0.1041  0.9622
    7MOL0     C  852   6.647   3.943   6.028 -0.5260  0.9726 -0.3292
    7MOL0     C  853   6.706   3.834   6.109  0.1817  0.0486  0.1255
    7MOL0    Cl  854   6.768   3.719   6.002 -0.0384 -0.1125 -0.2946
    7MOL0     C  855   7.372   4.322   5.933 -0.5755 -0.4247 -0.6223
    7MOL0     C  856   7.508   4.332   5.903  0.6343  0.1597 -0.0876
    7MOL0     O  857   7.655   4.582   5.659  0.5516 -0.3526 -0.2388
    7MOL0     C  858   7.970   4.445   5.763 -0.7741 -0.3605  0.1812
    7MOL0     C  859   8.112   4.452   5.721 -0.2054 -1.2210  0.2055
    7MOL0     N  860   8.716   4.869   5.550 -0.4392 -0.9327 -0.1657
    7MOL0     N  861   8.821   4.945   5.546  0.0659 -0.1909  0.4745
    7MOL0     C  862   9.821   4.981   6.186 -0.8238 -0.8056  0.6051
    7MOL0     C  863   9.899   4.956   6.302 -0.6112 -0.0998  0.3590
    7MOL0     C  864  10.229   4.834   6.585 -0.4239 -0.3721 -0.6306
    7MOL0     C  865  10.335   4.934   6.579  0.8874 -0.0527  0.7719
    7MOL0     C  866  10.447   4.917   6.652  0.5755 -0.3190  0.6049
    7MOL0     C  867  10.464   4.808   6.738 -0.1317  0.6485 -0.1533
    7MOL0     O  868  10.571   4.807   6.822 -1.2417  0.4734 -0.7416
    7MOL0     C  869  10.585   4.910   6.920  0.1116  0.0660  0.3346
    7MOL0     C  870  10.723   4.895   6.971  0.7019 -0.2296  0.4453
    7MOL0     C  871  10.823   4.942   6.867  0.1946 -0.3578  0.4874
    7MOL0     C  872  10.831   5.096   6.863 -0.3038  0.2739  0.1462
    7MOL0     C  873  10.932   5.130   6.764 -0.6067 -0.0371 -0.1653
    7MOL0     C  874  11.025   5.157   6.688  0.5435 -0.6070 -0.3481
    7MOL0     C  875  10.369   4.708   6.746  0.9609 -0.4043  0.2063
    7MOL0     C  876  10.249   4.725   6.673  0.3643  0.8388  0.0195
    7MOL0     C  877  10.130   4.631   6.720  0.7626  0.1729 -0.7045
    7MOL0     H  878  10.183   5.114   6.208 -0.6208  2.1844 -1.3932
    7MOL0     H  879  10.084   5.115   6.011  0.4560 -2.3987 -1.7537
    7MOL0     H  880   9.701   4.894   5.890 -2.5760 -1.6043  1.9055
    7MOL0     H  881   9.628   5.013   6.002 -3.3112  0.1693 -2.8774
    7MOL0     H  882   9.718   5.090   5.718 -2.1330  3.1060 -1.1276
    7MOL0     H  883   9.632   5.183   5.830 -1.3869 -0.7447  2.8108
    7MOL0     H  884   9.460   5.003   5.852  1.9066 -1.3346  0.0568
    7MOL0     H  885   9.514   4.917   5.721  4.0329 -0.1214  1.1268
    7MOL0     H  886   9.437   5.219   5.719 -0.6109 -0.4122 -1.7255
    7MOL0     H  887   9.499   5.141   5.573  2.6662 -1.1492 -0.6299
    7MOL0     H  888   9.263   5.178   5.587  0.9008  0.8515 -0.7922
    7MOL0     H  889   9.308   5.019   5.546 -4.1764 -0.1025  0.5779
    7MOL0     H  890   9.259   4.936   5.792 -4.9129 -0.0874  1.9204
    7MOL0     H  891   9.248   5.111   5.825  3.4571  2.5207 -3.2665
    7MOL0     H  892   9.040   5.107   5.673  1.9738  0.0265 -0.5459
    7MOL0     H  893   9.024   4.994   5.801 -1.7108  0.4152 -1.2887
    7MOL0     H  894   9.097   4.946   5.516  1.0771 -2.2268 -0.4630
    7MOL0     H  895   9.106   4.807   5.647 -1.9861 -0.0207  4.1948
    7MOL0     H  896   8.932   4.675   5.703  0.0130  0.0123  2.0032
    7MOL0     H  897   8.695   4.570   5.703  0.3235  0.6344  0.2677
    7MOL0     H  898   8.567   4.686   5.716 -0.0620 -3.0719  1.9847
    7MOL0     H  899   8.504   4.664   5.477  0.7551  2.4136  0.6130
    7MOL0     H  900   8.661   4.569   5.448  0.1798 -0.1757  0.2677
    7MOL0     H  901   8.570   4.390   5.610  0.1750 -1.9032 -1.8500
    7MOL0     H  902   8.470   4.397   5.466 -1.4717  1.3576  0.3728
    7MOL0     H  903   8.397   4.530   5.722  0.8044  0.4280 -0.4391
    7MOL0     H  904   8.359   4.372   5.662  0.4006  1.1195  1.4557
    7MOL0     H  905   8.076   4.586   5.417 -0.5858 -0.6720  0.0147
    7MOL0     H  906   7.850   4.601   5.485 -3.3741 -3.5981  0.9982
    7MOL0     H  907   7.532   4.674   5.884  2.4568 -0.5296  1.2514
    7MOL0     H  908   7.307   4.653   5.979  1.6582 -0.7326  2.5308
    7MOL0     H  909   7.088   4.600   5.969 -1.4004 -1.5700  3.0842
    7MOL0     H  910   7.078   4.498   5.819 -0.8754 -0.4571  0.4860
    7MOL0     H  911   6.906   4.487   6.071  1.6835  0.0140 -0.6854
    7MOL0     H  912   6.849   4.531   5.908  0.1069 -0.6542 -1.4706
    7MOL0     H  913   6.925   4.305   5.825  4.7040  1.3574  0.6858
    7MOL0     H  914   6.939   4.265   6.003  2.5209  0.8828 -1.1869
    7MOL0     H  915   6.694   4.370   5.846 -1.4507  1.7077  1.1940
    7MOL0     H  916   6.709   4.334   6.027 -0.3347  2.2246 -1.2600
    7MOL0     H  917   6.727   4.142   5.785 -0.2566  0.2437  0.0827
    7MOL0     H  918   6.583   4.152   5.882  0.1745 -3.0696  0.7728
    7MOL0     H  919   6.816   3.996   5.924 -0.1228  1.6801 -0.2363
    7MOL0     H  920   6.795   4.095   6.062 -1.8098  1.3487  1.0536
    7MOL0     H  921   6.592   3.889   5.949 -0.7833 -1.8805  1.6319
    7MOL0     H  922   6.578   3.994   6.095 -1.2378 -0.4398  0.0603
    7MOL0     H  923   6.762   3.876   6.193 -2.6724  0.9511  1.7140
    7MOL0     H  924   6.623   3.776   6.152 -0.2469  0.6827  0.1667
    7MOL0     H  925   7.318   4.228   5.923  0.1143 -1.2379  2.2125
    7MOL0     H  926   7.556   4.235   5.889  0.8224  0.5453 -2.4753
    7MOL0     H  927   7.946   4.388   5.852 -1.7284 -2.4435 -1.3335
    7MOL0     H  928   8.182   4.408   5.791  2.0155  2.0328  0.2196
    7MOL0     H  929   9.716   4.954   6.185 -1.2711  0.8144  0.3965
    7MOL0     H  930   9.852   4.909   6.388  0.6410 -0.0469  1.1032
    7MOL0     H  931  10.326   5.022   6.518  1.4519 -0.5340 -0.0246
    7MOL0     H  932  10.515   5.001   6.664 -0.2025  0.3813  0.1932
    7MOL0     H  933  10.510   4.890   6.997 -0.6854 -0.8792 -0.6507
    7MOL0     H  934  10.567   5.011   6.882 -0.0610  0.2826  0.9900
    7MOL0     H  935  10.750   4.791   6.993  0.1383 -0.3227  0.7317
    7MOL0     H  936  10.728   4.950   7.065 -1.7999  4.5984 -1.8634
    7MOL0     H  937  10.792   4.899   6.772 -2.1061 -0.2145  1.0957
    7MOL0     H  938  10.916   4.896   6.902  1.5216  1.3897 -0.5699
    7MOL0     H  939  10.737   5.150   6.848 -0.9411 -0.7549  0.3839
    7MOL0     H  940  10.871   5.133   6.958  0.4374 -2.1993  0.8702
    7MOL0     H  941  11.107   5.187   6.626  0.0619  0.3764 -0.5299
    7MOL0     H  942  10.381   4.616   6.802 -2.7647 -0.8132  0.5777
    7MOL0     H  943  10.069   4.604   6.633  0.7503 -0.0646 -0.6238
    7MOL0     H  944  10.185   4.540   6.748  3.2555  1.2006 -1.9026
    7MOL0     H  945  10.071   4.665   6.805  2.2428  0.9189  0.0719
    8MOL0     O  946   9.945   4.757   2.942  0.3379  0.0283 -0.4431
    8MOL0     C  947   9.841   4.735   2.874 -0.0527 -0.2260 -0.1747
    8MOL0     O  948   9.844   4.660   2.759 -0.6725  0.7299 -0.0231
    8MOL0     C  949   9.963   4.591   2.720  0.3214 -0.1760 -0.1141
    8MOL0     C  950  10.053   4.651   2.631  0.5268 -0.2148  0.4009
    8MOL0     C  951  10.160   4.569   2.582 -0.4662 -0.3611 -0.9008
    8MOL0     C  952  10.193   4.447   2.647  0.3054 -0.1084  1.6385
    8MOL0     O  953  10.299   4.358   2.626 -0.9097 -0.2240  0.4886
    8MOL0     C  954  10.393   4.404   2.521 -0.3896  0.5219 -0.4260
    8MOL0     C  955  10.515   4.316   2.543  0.0325  0.0798 -0.0220
    8MOL0     C  956  10.592   4.348   2.671 -0.0263  0.7146 -0.3847
    8MOL0     C  957  10.718   4.269   2.665 -0.1248 -0.2259  0.4055
    8MOL0     C  958  10.816   4.315   2.782 -0.4607  0.7047  0.2375
    8MOL0     C  959  10.902   4.428   2.748  0.2890  0.4729  1.3371
    8MOL0     C  960  11.024   4.470   2.828  0.3568  0.3980 -0.9984
    8MOL0     C  961  11.147   4.398   2.783 -0.0655 -0.2252 -0.1359
    8MOL0     N  962  11.197   4.456   2.653 -0.0033 -0.6112 -0.8813
    8MOL0     C  963  11.223   4.589   2.640  0.0475  0.7924  1.3251
    8MOL0     C  964  11.296   4.590   2.529 -0.7110 -1.1898 -0.5766
    8MOL0     C  965  11.322   4.727   2.461 -0.4200 -0.0999 -0.6945
    8MOL0     C  966  11.447   4.717   2.362 -0.2497 -0.5016 -0.0637
    8MOL0     C  967  11.448   4.834   2.259 -0.0688  1.0337  0.6645
    8MOL0     C  968  11.564   4.818   2.155 -0.4103  1.0587 -0.0353
    8MOL0     O  969  11.570   4.675   2.094  0.4044  0.2010 -0.4185
    8MOL0     C  970  11.665   4.649   2.001  0.6545  0.1561  0.2655
    8MOL0     C  971  11.775   4.731   1.970  0.4558  0.1486  0.3504
    8MOL0     C  972  11.878   4.695   1.882  0.5378 -0.7656  0.1211
    8MOL0     C  973  11.875   4.563   1.824  0.8080  0.0008  0.3790
    8MOL0     C  974  11.979   4.507   1.741  0.1479 -0.5350  0.8305
    8MOL0     O  975  11.955   4.390   1.671 -0.1373  0.0724  0.6050
    8MOL0     C  976  12.042   4.367   1.571  1.0108  0.3342  1.0277
    8MOL0     C  977  11.979   4.358   1.447  0.4176 -0.0759 -0.3721
    8MOL0     C  978  12.064   4.351   1.331  0.5901  0.4195 -0.7784
    8MOL0     C  979  12.199   4.365   1.333  0.0106 -0.1482  0.3702
    8MOL0     O  980  12.283   4.388   1.227 -0.4206  0.6113 -0.1328
    8MOL0     C  981  12.236   4.361   1.089 -0.8499  0.1449 -0.1942
    8MOL0     C  982  12.355   4.300   1.011  0.1682  0.6080  0.1799
    8MOL0     C  983  12.334   4.305   0.860  0.0760  0.8775 -0.3354
    8MOL0     C  984  12.461   4.256   0.783  0.1987  0.1074 -0.7687
    8MOL0     C  985  12.452   4.255   0.625  0.4385 -0.8728  0.5989
    8MOL0     C  986  12.596   4.222   0.570 -0.8655  0.7802  0.2416
    8MOL0     C  987  12.616   4.069   0.546 -0.1835  0.1478  0.4355
    8MOL0     C  988  12.765   4.031   0.547 -1.0148 -0.3045 -0.1428
    8MOL0    Cl  989  12.803   4.074   0.380  0.1582 -0.2994 -0.2479
    8MOL0     C  990  12.262   4.368   1.458  0.0569  0.3992 -0.8558
    8MOL0     C  991  12.184   4.365   1.580 -0.2620  0.6629 -0.5976
    8MOL0     O  992  12.083   4.572   1.731  0.2423  0.4279 -0.4103
    8MOL0     C  993  11.765   4.483   1.847 -0.7464 -0.5870  0.1974
    8MOL0     C  994  11.656   4.529   1.936 -0.0245  0.5544  1.2014
    8MOL0     N  995  11.287   4.475   2.463 -0.3420 -0.0468 -0.1030
    8MOL0     N  996  11.235   4.384   2.543  0.1432  0.9131  0.4890
    8MOL0     C  997  10.107   4.402   2.740 -0.8794 -1.6347  0.3588
    8MOL0     C  998   9.993   4.472   2.778 -0.7615  0.6112  0.1499
    8MOL0     C  999   9.703   4.790   2.896 -1.0827  0.2571 -0.2570
    8MOL0     C 1000   9.655   4.892   2.814 -0.0784 -0.2845 -0.3858
    8MOL0     C 1001   9.531   4.952   2.847 -0.7087 -0.4350 -0.9113
    8MOL0     C 1002   9.465   4.922   2.964  0.5946 -1.1508  0.4509
    8MOL0     O 1003   9.333   4.961   2.994  0.6727 -0.0831 -0.6466
    8MOL0     C 1004   9.279   5.073   2.928  0.9075 -0.3477  0.7084
    8MOL0     C 1005   9.357   5.202   2.959  0.2760 -0.0832  1.1238
    8MOL0     C 1006   9.365   5.241   3.108  0.9723  0.2497  0.2547
    8MOL0     C 1007   9.234   5.279   3.183  0.0134 -0.1934 -0.8860
    8MOL0     C 1008   9.165   5.385   3.115 -0.6889  0.4628  1.0808
    8MOL0     C 1009   9.110   5.472   3.040 -0.3102  0.1928  0.0283
    8MOL0     C 1010   9.511   4.821   3.050 -0.4583 -0.2579  0.5318
    8MOL0     C 1011   9.633   4.753   3.018 -0.0782  0.1500  0.9392
    8MOL0     C 1012   9.675   4.656   3.114  0.3571 -0.3300 -0.6010
    8MOL0     H 1013  10.034   4.742   2.576  0.4165 -0.6644 -0.3131
    8MOL0     H 1014  10.228   4.616   2.513 -0.9303 -1.8031 -2.4009
    8MOL0     H 1015  10.349   4.391   2.422 -1.9369  3.8990 -0.3304
    8MOL0     H 1016  10.420   4.509   2.534  0.0816  0.6070 -1.9650
    8MOL0     H 1017  10.578   4.320   2.454  0.2773 -0.0710  0.1427
    8MOL0     H 1018  10.481   4.212   2.552  0.2700  0.0680  0.8722
    8MOL0     H 1019  10.529   4.314   2.753  1.0722 -2.0189 -0.5669
    8MOL0     H 1020  10.628   4.450   2.690  2.1496 -0.1726  0.6304
    8MOL0     H 1021  10.689   4.164   2.670 -2.0952  0.2078 -0.7336
    8MOL0     H 1022  10.758   4.287   2.565  0.6646  1.3465  0.9759
    8MOL0     H 1023  10.747   4.331   2.865 -3.4668 -2.1497 -1.4356
    8MOL0     H 1024  10.885   4.232   2.795  1.5509  2.0733 -1.1724
    8MOL0     H 1025  10.938   4.404   2.647  1.7394  1.0868  1.6730
    8MOL0     H 1026  10.830   4.508   2.731 -2.7103 -2.1379  0.6897
    8MOL0     H 1027  11.016   4.442   2.933  0.3714 -0.6946 -1.2742
    8MOL0     H 1028  11.041   4.577   2.814 -0.5526  0.7474  0.4063
    8MOL0     H 1029  11.217   4.428   2.862 -3.6010  3.7675  1.8638
    8MOL0     H 1030  11.137   4.291   2.762 -0.3554  0.0610 -1.5786
    8MOL0     H 1031  11.205   4.676   2.702 -3.2844  0.8520  0.4550
    8MOL0     H 1032  11.241   4.757   2.394 -0.7309 -0.6347 -0.5618
    8MOL0     H 1033  11.342   4.808   2.531  0.0002  0.8052 -1.8298
    8MOL0     H 1034  11.541   4.740   2.411 -1.1076  0.1020  1.3479
    8MOL0     H 1035  11.453   4.620   2.312 -1.1313  0.3827 -2.0033
    8MOL0     H 1036  11.435   4.927   2.315 -3.8410 -0.6840  3.0732
    8MOL0     H 1037  11.353   4.826   2.207  1.2117  0.7768 -1.7602
    8MOL0     H 1038  11.657   4.833   2.210 -0.6199  1.7365  0.1375
    8MOL0     H 1039  11.561   4.893   2.075  0.5188  1.6772  0.4946
    8MOL0     H 1040  11.790   4.827   2.020 -0.5686  0.1972  0.5819
    8MOL0     H 1041  11.958   4.767   1.870  0.3948 -0.5997  0.1527
    8MOL0     H 1042  11.872   4.371   1.440  0.6573  2.6075 -0.3267
    8MOL0     H 1043  12.005   4.330   1.242 -0.3648 -1.5528  0.2631
    8MOL0     H 1044  12.154   4.289   1.080 -0.7462  0.1595 -1.3858
    8MOL0     H 1045  12.202   4.457   1.051 -0.9247 -0.0995 -0.7506
    8MOL0     H 1046  12.441   4.361   1.040 -0.1525  1.7249 -1.1169
    8MOL0     H 1047  12.359   4.196   1.044 -2.7045  0.8736  1.6494
    8MOL0     H 1048  12.244   4.247   0.835  0.0854  1.8386 -2.8622
    8MOL0     H 1049  12.314   4.404   0.819  1.4151  1.6461  0.7781
    8MOL0     H 1050  12.512   4.165   0.815 -1.4429  0.0446  2.0482
    8MOL0     H 1051  12.527   4.340   0.808  0.9907 -0.3427 -1.2937
    8MOL0     H 1052  12.426   4.359   0.606  0.5422 -0.8192  0.7426
    8MOL0     H 1053  12.369   4.197   0.585 -0.7799 -1.2212  3.4230
    8MOL0     H 1054  12.616   4.279   0.480  3.1152 -0.6761  0.0063
    8MOL0     H 1055  12.665   4.256   0.648  0.7249 -1.2939 -0.1475
    8MOL0     H 1056  12.561   4.039   0.456 -0.4086 -1.5249  1.0998
    8MOL0     H 1057  12.568   4.011   0.625 -2.5513  1.1974 -0.1527
    8MOL0     H 1058  12.832   4.093   0.606 -0.3980  0.9008 -2.0228
    8MOL0     H 1059  12.782   3.924   0.567  0.7451  0.2835  1.8356
    8MOL0     H 1060  12.370   4.375   1.461  0.0874 -0.2264  0.0102
    8MOL0     H 1061  12.246   4.368   1.669  1.0277  1.4522 -1.4845
    8MOL0     H 1062  11.750   4.380   1.814 -2.8669 -0.0083 -0.7953
    8MOL0     H 1063  11.570   4.466   1.953 -2.0203  2.5660 -0.7455
    8MOL0     H 1064  10.144   4.311   2.787  3.2541 -1.8816 -2.7625
    8MOL0     H 1065   9.927   4.412   2.838  1.2932 -1.3253  0.6177
    8MOL0     H 1066   9.698   4.926   2.721 -2.6327 -0.0077 -1.5467
    8MOL0     H 1067   9.485   5.018   2.774  1.3477  0.4252 -1.5280
    8MOL0     H 1068   9.175   5.083   2.957 -0.6152 -0.4738 -3.8410
    8MOL0     H 1069   9.272   5.062   2.819 -0.8731  3.2257  0.3337
    8MOL0     H 1070   9.295   5.273   2.903 -0.3490 -0.0543  1.8434
    8MOL0     H 1071   9.456   5.196   2.913 -0.4029 -2.6520 -0.2026
    8MOL0     H 1072   9.428   5.330   3.102  1.9447 -0.4864 -0.9355
    8MOL0     H 1073   9.419   5.162   3.161 -0.3597 -1.0985 -0.3309
    8MOL0     H 1074   9.173   5.190   3.201  1.1262 -0.8939 -0.4255
    8MOL0     H 1075   9.271   5.324   3.276 -1.3933  0.0105 -0.4094
    8MOL0     H 1076   9.057   5.551   2.992  0.3784  0.1247 -0.8817
    8MOL0     H 1077   9.462   4.807   3.146 -0.0898  1.8743  1.0895
    8MOL0     H 1078   9.650   4.554   3.082 -0.5200 -0.0863 -0.7154
    8MOL0     H 1079   9.781   4.661   3.144  0.6581 -1.2856 -1.4224
    8MOL0     H 1080   9.622   4.662   3.209 -1.1396  1.0577 -1.4860
    9MOL0     O 1081  10.964   5.574   8.168  0.2869 -0.3460  0.5218
    9MOL0     C 1082  11.029   5.577   8.067 -0.0821  0.1677  0.2219
    9MOL0     O 1083  11.019   5.678   7.969  0.0406 -0.3306  0.1764
    9MOL0     C 1084  10.928   5.778   7.978 -0.2077 -0.3635 -0.5650
    9MOL0     C 1085  10.842   5.808   7.879  0.0340  0.4949  0.1812
    9MOL0     C 1086  10.765   5.927   7.881  0.4360 -0.3408  0.2863
    9MOL0     C 1087  10.774   6.019   7.988 -1.0813 -0.0963  0.2084
    9MOL0     O 1088  10.683   6.123   7.991  0.1340  1.0037  0.1963
    9MOL0     C 1089  10.690   6.232   8.080  0.0414 -0.4208 -0.0490
    9MOL0     C 1090  10.803   6.332   8.044  0.3923  0.2323 -0.2276
    9MOL0     C 1091  10.819   6.427   8.157  0.2421 -0.1143 -0.6915
    9MOL0     C 1092  10.931   6.541   8.149  0.1450 -0.7526  0.2018
    9MOL0     C 1093  10.955   6.613   8.288 -0.1675  0.5140  0.0558
    9MOL0     C 1094  11.055   6.720   8.266  0.3674  0.4814 -0.7776
    9MOL0     C 1095  11.126   6.767   8.397  0.3423  0.2637 -0.3654
    9MOL0     C 1096  11.247   6.849   8.357 -0.9652  0.1158  0.2020
    9MOL0     N 1097  11.283   6.949   8.465  0.2575 -0.0292  1.1319
    9MOL0     C 1098  11.335   7.074   8.423 -0.4315 -0.0973  0.3004
    9MOL0     C 1099  11.357   7.141   8.542  0.3972 -0.5659  0.2524
    9MOL0     C 1100  11.422   7.272   8.560 -0.0869 -0.5926  0.0440
    9MOL0     C 1101  11.572   7.270   8.539 -0.3003  0.6057 -0.4978
    9MOL0     C 1102  11.621   7.415   8.543 -0.0095 -0.0814  0.4287
    9MOL0     C 1103  11.753   7.430   8.482 -0.6010  0.5377  0.4725
    9MOL0     O 1104  11.855   7.362   8.561  0.2642  0.4613 -0.2486
    9MOL0     C 1105  11.991   7.382   8.543 -0.3436 -0.5913 -0.2352
    9MOL0     C 1106  12.066   7.362   8.655 -0.8980 -1.0387 -0.5519
    9MOL0     C 1107  12.215   7.375   8.657  0.2318 -0.0759  0.1056
    9MOL0     C 1108  12.272   7.423   8.541  0.2016  0.8774  0.3382
    9MOL0     C 1109  12.416   7.452   8.552  0.1228  0.2567 -0.0596
    9MOL0     O 1110  12.488   7.429   8.440  0.2262  0.5246  0.1560
    9MOL0     C 1111  12.625   7.418   8.450 -0.7415 -0.5481  0.1325
    9MOL0     C 1112  12.690   7.347   8.553 -0.1654 -0.8705 -1.2794
    9MOL0     C 1113  12.828   7.340   8.563  1.1968 -0.5972 -0.3395
    9MOL0     C 1114  12.908   7.411   8.469  1.2948  0.1321  0.1565
    9MOL0     O 1115  13.039   7.411   8.487  0.0842  0.5580 -0.0504
    9MOL0     C 1116  13.143   7.502   8.429 -0.1208 -0.7582  0.9013
    9MOL0     C 1117  13.233   7.424   8.327 -0.5232 -0.5261  0.3552
    9MOL0     C 1118  13.330   7.510   8.246 -0.0840  0.4368 -0.1100
    9MOL0     C 1119  13.438   7.543   8.341  0.4148 -0.5587  0.0808
    9MOL0     C 1120  13.543   7.604   8.266  0.4801 -0.2355  0.7096
    9MOL0     C 1121  13.642   7.685   8.350  0.3938 -0.4446 -0.3516
    9MOL0     C 1122  13.764   7.742   8.269  0.4677  0.0820  0.5124
    9MOL0     C 1123  13.727   7.845   8.168 -0.2660  0.0021  0.2543
    9MOL0    Cl 1124  13.885   7.936   8.130  0.2877  0.0123 -0.1937
    9MOL0     C 1125  12.845   7.482   8.372  0.7376  0.1692  0.8145
    9MOL0     C 1126  12.707   7.487   8.358 -0.4102 -0.8047  0.4932
    9MOL0     O 1127  12.468   7.488   8.662  0.3124 -0.2785 -0.8730
    9MOL0     C 1128  12.198   7.447   8.422 -0.1819  0.5070 -1.0924
    9MOL0     C 1129  12.064   7.429   8.425  0.3828 -0.3428 -0.0145
    9MOL0     N 1130  11.305   7.061   8.644  1.1127  0.2270  0.8147
    9MOL0     N 1131  11.258   6.948   8.596  0.3834 -0.7372  0.5088
    9MOL0     C 1132  10.850   5.977   8.100 -0.4334  0.3640 -0.0065
    9MOL0     C 1133  10.926   5.857   8.097  0.6291 -0.0961  0.4314
    9MOL0     C 1134  11.132   5.476   8.039  0.3500 -0.3401  0.2434
    9MOL0     C 1135  11.227   5.499   7.943 -0.2496 -0.7947  0.3467
    9MOL0     C 1136  11.321   5.396   7.906 -0.1737 -0.0129  0.0995
    9MOL0     C 1137  11.324   5.274   7.975  0.4644 -0.3808  0.4149
    9MOL0     O 1138  11.418   5.177   7.946  0.2602 -0.0277 -0.3247
    9MOL0     C 1139  11.548   5.206   7.900  0.4688 -0.0708  0.0092
    9MOL0     C 1140  11.635   5.079   7.923  0.6902  0.0410 -0.8963
    9MOL0     C 1141  11.644   5.026   8.066 -0.3851 -0.3205  0.8665
    9MOL0     C 1142  11.749   4.911   8.059 -0.6373  0.4724  0.0574
    9MOL0     C 1143  11.772   4.876   8.197 -0.3866  0.6403 -0.3796
    9MOL0     C 1144  11.803   4.828   8.310 -0.9853 -1.1692  0.4694
    9MOL0     C 1145  11.221   5.246   8.060  0.7019  0.3096 -0.0323
    9MOL0     C 1146  11.124   5.339   8.099  0.4544  0.9518 -0.0525
    9MOL0     C 1147  11.019   5.292   8.195  0.1205  0.1386  0.5282
    9MOL0     H 1148  10.835   5.731   7.803  0.1698  0.6900 -0.0300
    9MOL0     H 1149  10.699   5.936   7.794  0.9043  0.8631  0.0332
    9MOL0     H 1150  10.595   6.283   8.092  0.1007 -0.5856  1.3783
    9MOL0     H 1151  10.711   6.190   8.179  0.5832  1.6607  0.7621
    9MOL0     H 1152  10.780   6.388   7.953  1.7704  0.5277 -0.4231
    9MOL0     H 1153  10.892   6.272   8.020  0.4075  1.0726 -2.5033
    9MOL0     H 1154  10.845   6.366   8.244  2.3448  2.2434  0.4671
    9MOL0     H 1155  10.721   6.467   8.181  0.9329  0.8609  0.6275
    9MOL0     H 1156  11.026   6.497   8.119  1.3092  1.7567 -0.0843
    9MOL0     H 1157  10.898   6.610   8.071 -0.3300 -1.6688 -0.4273
    9MOL0     H 1158  10.861   6.649   8.330 -0.8473  0.6898 -1.5325
    9MOL0     H 1159  10.982   6.536   8.360 -3.5431  0.4826  1.4917
    9MOL0     H 1160  11.131   6.672   8.203  1.1455  0.6308  0.0224
    9MOL0     H 1161  11.019   6.809   8.214 -3.5524  1.5391  3.1755
    9MOL0     H 1162  11.168   6.681   8.449  2.4882  1.2863 -0.2934
    9MOL0     H 1163  11.058   6.821   8.464  0.4493 -1.9714  1.6677
    9MOL0     H 1164  11.333   6.787   8.331 -2.1875 -0.6267 -2.4338
    9MOL0     H 1165  11.221   6.903   8.265  0.0137 -1.8407 -1.2916
    9MOL0     H 1166  11.352   7.115   8.324 -0.4927  1.1476  0.7799
    9MOL0     H 1167  11.380   7.346   8.492  1.9186 -1.2684 -2.0277
    9MOL0     H 1168  11.406   7.300   8.665 -2.5185  0.2915 -0.4857
    9MOL0     H 1169  11.620   7.209   8.616  1.8230  0.6299 -1.7128
    9MOL0     H 1170  11.587   7.238   8.435  1.6420 -0.6825  0.1106
    9MOL0     H 1171  11.633   7.448   8.647  0.7249  1.7640 -0.1858
    9MOL0     H 1172  11.552   7.482   8.490  2.1339  0.4437 -1.8989
    9MOL0     H 1173  11.783   7.534   8.465  1.0922 -0.1998 -1.4960
    9MOL0     H 1174  11.751   7.388   8.381 -1.8474 -0.6628  0.9631
    9MOL0     H 1175  12.021   7.328   8.748  2.4875 -1.6862  1.0215
    9MOL0     H 1176  12.269   7.341   8.745  0.8319 -0.1054 -0.2648
    9MOL0     H 1177  12.621   7.293   8.617  0.3254  1.7211  1.6959
    9MOL0     H 1178  12.874   7.297   8.651 -2.0582 -1.0973  1.2673
    9MOL0     H 1179  13.095   7.589   8.383  0.9247  0.9246  2.8535
    9MOL0     H 1180  13.214   7.543   8.501  0.8718  0.7602 -0.8582
    9MOL0     H 1181  13.288   7.348   8.383 -0.3292 -0.2716  0.5122
    9MOL0     H 1182  13.170   7.371   8.255  3.2024 -1.7272 -2.3306
    9MOL0     H 1183  13.375   7.442   8.173  0.1323  1.9045 -1.3970
    9MOL0     H 1184  13.281   7.591   8.192 -0.3348 -1.1493 -2.3915
    9MOL0     H 1185  13.486   7.456   8.389  1.0488  0.1529  0.7768
    9MOL0     H 1186  13.397   7.610   8.417 -0.8847  0.2704 -1.3102
    9MOL0     H 1187  13.507   7.664   8.182 -1.2965  0.4538  1.8950
    9MOL0     H 1188  13.597   7.524   8.216  1.1269 -1.2301  2.8560
    9MOL0     H 1189  13.593   7.767   8.403  1.4071 -0.9452  1.4385
    9MOL0     H 1190  13.684   7.621   8.428 -0.4219 -0.0157  0.4512
    9MOL0     H 1191  13.796   7.657   8.207 -2.0346 -0.7208  0.2260
    9MOL0     H 1192  13.843   7.782   8.334 -2.7352  3.5008  2.6580
    9MOL0     H 1193  13.691   7.791   8.079 -3.2262  1.5318  0.3862
    9MOL0     H 1194  13.644   7.911   8.193  0.3486  1.1277 -0.6082
    9MOL0     H 1195  12.907   7.536   8.300 -0.8975 -1.0296 -1.6366
    9MOL0     H 1196  12.679   7.559   8.282  4.5730 -0.5223 -1.4590
    9MOL0     H 1197  12.234   7.489   8.329 -0.8089  2.4412 -0.4960
    9MOL0     H 1198  12.024   7.464   8.330  2.8707  2.9936  0.0078
    9MOL0     H 1199  10.851   6.023   8.198  3.0286  1.0012 -0.2230
    9MOL0     H 1200  10.990   5.838   8.183  0.5356 -2.4328  0.0429
    9MOL0     H 1201  11.223   5.597   7.896 -4.1310 -1.4821 -1.0908
    9MOL0     H 1202  11.389   5.424   7.826  0.5167 -2.8590 -0.4413
    9MOL0     H 1203  11.595   5.288   7.955  4.6701 -3.4859  2.0822
    9MOL0     H 1204  11.548   5.243   7.797  3.0539 -0.8924 -0.3670
    9MOL0     H 1205  11.736   5.091   7.881  0.2027 -1.9090 -2.8113
    9MOL0     H 1206  11.591   4.997   7.865  1.0157 -0.0042 -1.0874
    9MOL0     H 1207  11.543   4.995   8.093 -1.3242 -0.5797 -2.5683
    9MOL0     H 1208  11.662   5.108   8.136 -1.5845 -1.6773  2.8625
    9MOL0     H 1209  11.717   4.820   8.008 -0.0919 -0.5855  1.5358
    9MOL0     H 1210  11.840   4.956   8.017  0.1660 -2.0655 -1.1002
    9MOL0     H 1211  11.850   4.804   8.403 -1.8034 -1.7134  0.7605
    9MOL0     H 1212  11.218   5.145   8.097  3.2443 -0.3240 -1.3327
    9MOL0     H 1213  10.918   5.317   8.160  0.4287 -0.3827 -0.7921
    9MOL0     H 1214  11.023   5.185   8.213 -0.3025  0.5396  3.4295
    9MOL0     H 1215  11.053   5.346   8.283  3.0836 -2.4400  1.1221
   10MOL0     O 1216  11.170   7.542   3.431  0.4156  0.0153  0.9769
   10MOL0     C 1217  11.074   7.588   3.370  0.4074 -0.1803 -0.4940
   10MOL0     O 1218  11.039   7.719   3.363 -0.2268 -0.1907 -0.5083
   10MOL0     C 1219  11.120   7.803   3.443  0.7436 -0.6275  0.8304
   10MOL0     C 1220  11.092   7.820   3.584 -0.7754 -0.0969  0.0172
   10MOL0     C 1221  11.167   7.917   3.655 -1.0392  0.4887 -0.6263
   10MOL0     C 1222  11.266   7.990   3.601  0.0588  0.1626 -0.9644
   10MOL0     O 1223  11.331   8.084   3.673 -0.1613 -0.4922 -0.0408
   10MOL0     C 1224  11.452   8.143   3.635  1.0970  0.1630  0.2457
   10MOL0     C 1225  11.511   8.206   3.764  0.0951  0.3399 -0.5939
   10MOL0     C 1226  11.661   8.227   3.761  0.4014  0.0683  0.5400
   10MOL0     C 1227  11.721   8.266   3.627 -0.5470 -0.4255  0.0857
   10MOL0     C 1228  11.860   8.328   3.643  0.2072  0.8861 -0.1894
   10MOL0     C 1229  11.908   8.387   3.514  0.1528 -0.5835  0.3100
   10MOL0     C 1230  12.047   8.444   3.536  0.0179 -0.1604 -0.7419
   10MOL0     C 1231  12.103   8.541   3.433 -0.2728 -0.4412  0.4795
   10MOL0     N 1232  12.178   8.647   3.497  0.9867 -0.5989 -0.5693
   10MOL0     C 1233  12.307   8.645   3.528 -0.3866  1.2013  0.6803
   10MOL0     C 1234  12.334   8.753   3.609  0.1944 -0.1711 -0.1116
   10MOL0     C 1235  12.469   8.807   3.654  0.3464 -0.2766  0.2844
   10MOL0     C 1236  12.538   8.693   3.729  0.3912 -0.5573  0.1978
   10MOL0     C 1237  12.669   8.751   3.795  0.0004 -0.3478  0.7508
   10MOL0     C 1238  12.634   8.805   3.940 -1.0577  0.8464  0.8123
   10MOL0     O 1239  12.750   8.836   4.002  0.0111  0.1589  0.1038
   10MOL0     C 1240  12.824   8.740   4.068  0.4281  0.2866 -0.3135
   10MOL0     C 1241  12.767   8.664   4.171  0.9257 -0.5155 -0.5667
   10MOL0     C 1242  12.850   8.573   4.245 -0.2439 -0.4906 -0.1518
   10MOL0     C 1243  12.978   8.544   4.206  0.2841 -1.0708  0.2506
   10MOL0     C 1244  13.067   8.448   4.274  0.1605 -0.9586 -0.6596
   10MOL0     O 1245  13.001   8.375   4.370  0.4709  0.8634 -0.2922
   10MOL0     C 1246  13.068   8.280   4.451 -0.2048  0.6267  0.0073
   10MOL0     C 1247  13.205   8.293   4.490  0.8672 -0.1982  0.1755
   10MOL0     C 1248  13.262   8.199   4.578  0.1486  0.9619 -0.3674
   10MOL0     C 1249  13.187   8.079   4.619 -0.9148 -0.4189  0.0126
   10MOL0     O 1250  13.241   7.993   4.709 -0.0439 -0.5279 -0.4742
   10MOL0     C 1251  13.173   7.908   4.807  0.2446 -0.3250  0.6889
   10MOL0     C 1252  13.267   7.792   4.833  0.0240  0.2543 -0.4161
   10MOL0     C 1253  13.190   7.674   4.896 -0.6196 -0.6429 -0.0534
   10MOL0     C 1254  13.130   7.589   4.779  0.1223 -0.3277  0.4060
   10MOL0     C 1255  13.030   7.481   4.829  0.1373  0.9896 -0.8686
   10MOL0     C 1256  12.908   7.466   4.744  0.4543  0.7915  0.0986
   10MOL0     C 1257  12.830   7.343   4.797 -0.1383  0.1167 -0.0913
   10MOL0     C 1258  12.683   7.350   4.756 -0.0085  0.1603 -0.0928
   10MOL0    Cl 1259  12.578   7.341   4.907 -0.4205  0.4178  0.5187
   10MOL0     C 1260  13.060   8.060   4.563 -0.3758 -0.0722 -1.8182
   10MOL0     C 1261  13.007   8.162   4.481 -0.2620 -0.4877 -0.8259
   10MOL0     O 1262  13.183   8.448   4.248 -0.3226 -0.4642 -0.3010
   10MOL0     C 1263  13.031   8.620   4.102  0.0673 -0.2916 -0.0924
   10MOL0     C 1264  12.958   8.716   4.030  1.5412 -0.0292 -0.7477
   10MOL0     N 1265  12.208   8.815   3.625 -0.6156 -0.2392 -0.5057
   10MOL0     N 1266  12.116   8.751   3.570  0.1567  0.1509  0.8000
   10MOL0     C 1267  11.285   7.972   3.468  0.3529 -0.2204 -0.4683
   10MOL0     C 1268  11.214   7.887   3.382  0.3580 -0.9081  0.0191
   10MOL0     C 1269  10.991   7.492   3.295 -0.5695  0.0836 -0.1560
   10MOL0     C 1270  11.054   7.392   3.224 -0.2840  1.0126  0.8140
   10MOL0     C 1271  10.989   7.299   3.139 -0.9112 -0.0965 -0.2920
   10MOL0     C 1272  10.857   7.298   3.139  0.1929  0.1553 -0.9192
   10MOL0     O 1273  10.794   7.196   3.076 -0.0041  1.0922  0.0772
   10MOL0     C 1274  10.654   7.211   3.041  1.2019  0.4210 -0.3063
   10MOL0     C 1275  10.598   7.072   2.976 -0.6856 -0.5610 -0.1289
   10MOL0     C 1276  10.584   6.972   3.089 -0.2615 -0.1093  0.3799
   10MOL0     C 1277  10.561   6.836   3.047  0.2800  0.6110  0.1194
   10MOL0     C 1278  10.445   6.830   2.954  0.0338 -0.5395  0.0251
   10MOL0     C 1279  10.366   6.817   2.863  0.1994 -0.3545  0.6404
   10MOL0     C 1280  10.790   7.401   3.204 -0.2465 -0.0701  0.1704
   10MOL0     C 1281  10.851   7.500   3.280  0.5928  0.2785  1.3536
   10MOL0     C 1282  10.776   7.608   3.357  0.1450  0.4660  0.1457
   10MOL0     H 1283  11.015   7.762   3.635  0.3290  0.4419  2.4443
   10MOL0     H 1284  11.165   7.919   3.763  0.6113  0.7607 -0.5831
   10MOL0     H 1285  11.525   8.069   3.602  0.1432 -1.2558  1.2108
   10MOL0     H 1286  11.427   8.203   3.547 -1.3579 -3.6370 -1.9209
   10MOL0     H 1287  11.506   8.128   3.841  2.9524  1.0592  0.4784
   10MOL0     H 1288  11.460   8.299   3.792 -0.6733 -0.0234 -0.7639
   10MOL0     H 1289  11.718   8.136   3.785  0.8672  0.5738  1.4094
   10MOL0     H 1290  11.688   8.310   3.826 -0.4385  1.2569 -0.5793
   10MOL0     H 1291  11.726   8.182   3.557 -0.6498 -2.0589  1.9370
   10MOL0     H 1292  11.649   8.341   3.595 -0.9317 -0.4815  0.8007
   10MOL0     H 1293  11.852   8.402   3.722  0.6765  2.5101 -1.5930
   10MOL0     H 1294  11.929   8.248   3.672 -0.5788 -0.3543 -1.5594
   10MOL0     H 1295  11.895   8.319   3.429 -0.4273 -1.6276  1.2178
   10MOL0     H 1296  11.835   8.462   3.482  1.0357  0.5635  0.9320
   10MOL0     H 1297  12.123   8.366   3.549  2.2008  1.7573 -1.3969
   10MOL0     H 1298  12.042   8.501   3.629  2.9031  0.1359 -0.6636
   10MOL0     H 1299  12.170   8.497   3.359 -2.3627 -0.2422 -1.6523
   10MOL0     H 1300  12.020   8.588   3.379  0.0864 -1.9353 -1.5060
   10MOL0     H 1301  12.377   8.577   3.480 -1.7564 -1.1636  1.8560
   10MOL0     H 1302  12.534   8.839   3.572  0.9534 -0.4781  0.6821
   10MOL0     H 1303  12.444   8.896   3.712 -1.2561 -1.4558  1.5132
   10MOL0     H 1304  12.479   8.646   3.809 -0.8231 -1.1972 -1.0360
   10MOL0     H 1305  12.555   8.614   3.655  2.2611  0.0115 -0.0255
   10MOL0     H 1306  12.710   8.828   3.729 -1.5212  0.6333  0.9145
   10MOL0     H 1307  12.741   8.670   3.814 -2.2556 -1.8497  3.6892
   10MOL0     H 1308  12.588   8.724   3.997  1.4504 -0.6128  0.9057
   10MOL0     H 1309  12.569   8.894   3.943 -3.0584 -0.5336  0.8082
   10MOL0     H 1310  12.664   8.668   4.207  0.8823  0.5328 -0.7858
   10MOL0     H 1311  12.808   8.533   4.336 -1.3140 -0.0382 -0.4337
   10MOL0     H 1312  13.256   8.384   4.461  1.9626 -1.1932 -1.1654
   10MOL0     H 1313  13.368   8.201   4.601  0.0525  1.6626  0.0276
   10MOL0     H 1314  13.152   7.960   4.901  0.5573 -0.3875  0.7926
   10MOL0     H 1315  13.079   7.866   4.769 -0.2082  0.9862  0.2885
   10MOL0     H 1316  13.309   7.773   4.734 -0.5747  0.4649 -0.7153
   10MOL0     H 1317  13.349   7.820   4.899 -1.9289  0.8111  1.8984
   10MOL0     H 1318  13.259   7.618   4.959  0.9867  1.6293  0.3488
   10MOL0     H 1319  13.105   7.708   4.957 -1.9322 -1.7341 -1.2016
   10MOL0     H 1320  13.214   7.546   4.723  1.4386  3.4046 -0.8260
   10MOL0     H 1321  13.075   7.657   4.712  1.0932  0.3731  0.2977
   10MOL0     H 1322  13.010   7.505   4.934  3.2159 -0.2250  0.1084
   10MOL0     H 1323  13.083   7.386   4.837  0.2411  1.0163 -1.2154
   10MOL0     H 1324  12.849   7.558   4.745 -0.6001  0.1532 -0.6138
   10MOL0     H 1325  12.942   7.436   4.644 -0.8998  0.9150 -0.4324
   10MOL0     H 1326  12.844   7.319   4.903 -1.2566 -3.6168 -0.6282
   10MOL0     H 1327  12.874   7.257   4.746  0.9570  1.2985 -1.2254
   10MOL0     H 1328  12.647   7.445   4.715 -5.3520 -0.6130  1.9197
   10MOL0     H 1329  12.656   7.271   4.685  2.2558  0.2963 -1.1771
   10MOL0     H 1330  12.991   7.980   4.591  1.8239 -1.5114 -0.1267
   10MOL0     H 1331  12.904   8.143   4.451 -1.2857 -3.5896  3.5950
   10MOL0     H 1332  13.134   8.601   4.075 -0.1552 -0.9086 -0.5088
   10MOL0     H 1333  13.007   8.780   3.957 -0.3085 -0.2814 -2.3108
   10MOL0     H 1334  11.359   8.036   3.420 -1.8464  3.6210  0.7773
   10MOL0     H 1335  11.244   7.872   3.279 -0.4258 -4.2960  0.1610
   10MOL0     H 1336  11.161   7.389   3.238  0.2264  0.5715 -2.4375
   10MOL0     H 1337  11.035   7.217   3.085  3.6607  1.7218  0.4553
   10MOL0     H 1338  10.644   7.297   2.974 -0.7992  1.3338  1.0734
   10MOL0     H 1339  10.601   7.234   3.134  1.9267 -0.4686  0.3410
   10MOL0     H 1340  10.667   7.047   2.896 -0.9090  6.1093 -3.1132
   10MOL0     H 1341  10.499   7.091   2.932 -1.0871  0.3986  1.0977
   10MOL0     H 1342  10.513   7.005   3.166 -2.2421  0.9538 -1.7818
   10MOL0     H 1343  10.681   6.961   3.138 -0.4603  1.4468  1.1978
   10MOL0     H 1344  10.650   6.803   2.992  0.5588  0.6600  0.5357
   10MOL0     H 1345  10.534   6.761   3.122  1.1216 -0.2032 -0.3592
   10MOL0     H 1346  10.305   6.813   2.775  0.7813  0.0192  0.2116
   10MOL0     H 1347  10.683   7.416   3.201 -0.4694 -1.1366  1.6995
   10MOL0     H 1348  10.677   7.571   3.387 -1.4925  4.1101 -0.2064
   10MOL0     H 1349  10.827   7.639   3.449  0.0360 -2.0428  1.1563
   10MOL0     H 1350  10.766   7.690   3.286  1.7891  0.0677 -0.5921
   11MOL0     O 1351   9.976   2.673   4.756 -0.3022  0.9246 -0.0074
   11MOL0     C 1352  10.083   2.695   4.812  0.3635  0.5623 -0.6219
   11MOL0     O 1353  10.148   2.816   4.809 -0.1828 -0.1086 -0.0979
   11MOL0     C 1354  10.117   2.914   4.713  0.3312 -0.0372  0.2708
   11MOL0     C 1355  10.161   3.038   4.752 -1.0415  0.4032  0.3315
   11MOL0     C 1356  10.126   3.143   4.655 -0.0123 -0.0724  0.0410
   11MOL0     C 1357  10.076   3.121   4.531 -0.4283 -0.1349 -0.1168
   11MOL0     O 1358  10.075   3.238   4.446 -0.8445 -0.7596  0.7357
   11MOL0     C 1359   9.967   3.238   4.349 -0.1586  0.3506 -1.0505
   11MOL0     C 1360   9.928   3.385   4.320 -0.0704 -0.6387  0.0745
   11MOL0     C 1361  10.019   3.451   4.225  0.3744 -0.1403  0.4257
   11MOL0     C 1362   9.979   3.597   4.224 -0.2162 -0.9749 -0.2790
   11MOL0     C 1363  10.077   3.681   4.133  0.2726  0.3282  0.1196
   11MOL0     C 1364  10.193   3.734   4.211  0.3553 -0.4636 -0.4156
   11MOL0     C 1365  10.255   3.863   4.151 -0.2189 -0.7144  0.4195
   11MOL0     C 1366  10.378   3.897   4.237  0.1365 -0.3163 -0.0603
   11MOL0     N 1367  10.415   4.034   4.222  0.4780  0.1736 -0.8056
   11MOL0     C 1368  10.374   4.138   4.297 -0.3274 -0.5469 -0.0491
   11MOL0     C 1369  10.457   4.245   4.261  0.5694 -0.0328  1.6158
   11MOL0     C 1370  10.439   4.395   4.276  0.3652 -0.3345 -0.0483
   11MOL0     C 1371  10.429   4.449   4.423 -0.4911  0.2739  1.0355
   11MOL0     C 1372  10.564   4.498   4.488  0.3640 -0.2293  0.1841
   11MOL0     C 1373  10.669   4.385   4.496  0.1804  0.3710 -0.4029
   11MOL0     O 1374  10.623   4.284   4.592 -0.1629 -0.4009 -0.0220
   11MOL0     C 1375  10.640   4.155   4.564  0.4634 -1.0665  0.2929
   11MOL0     C 1376  10.583   4.058   4.647  1.0790 -0.8046 -0.2035
   11MOL0     C 1377  10.586   3.922   4.625 -0.4256  0.1413  0.8606
   11MOL0     C 1378  10.647   3.877   4.510 -0.1060 -0.5093  0.2355
   11MOL0     C 1379  10.646   3.734   4.469  0.4709  0.9372  0.0304
   11MOL0     O 1380  10.573   3.645   4.557  0.1555 -0.3477  0.3688
   11MOL0     C 1381  10.579   3.512   4.532 -0.1445 -0.1946 -0.2674
   11MOL0     C 1382  10.700   3.438   4.523  0.2115 -0.1664  0.6389
   11MOL0     C 1383  10.698   3.301   4.511 -0.4775  0.3595  0.1102
   11MOL0     C 1384  10.576   3.232   4.493 -0.2217 -0.1732 -0.0391
   11MOL0     O 1385  10.572   3.098   4.465  0.8253 -0.7226 -0.5312
   11MOL0     C 1386  10.607   3.006   4.574 -0.0275 -0.8327  0.2840
   11MOL0     C 1387  10.527   2.868   4.570 -0.7767  0.8270  0.7661
   11MOL0     C 1388  10.521   2.794   4.434  0.0299 -0.1973 -0.3436
   11MOL0     C 1389  10.391   2.705   4.438 -0.2901 -0.4117  0.7651
   11MOL0     C 1390  10.363   2.645   4.294  0.0384  0.2752 -1.2140
   11MOL0     C 1391  10.238   2.566   4.305  0.7791 -0.1024  0.1686
   11MOL0     C 1392  10.203   2.491   4.177 -0.2650 -0.2916 -0.1930
   11MOL0     C 1393  10.098   2.376   4.195 -0.8291  0.2833  0.7058
   11MOL0    Cl 1394   9.941   2.452   4.231 -0.0264 -0.2515  0.2083
   11MOL0     C 1395  10.462   3.307   4.496  0.3996  0.2318 -0.7883
   11MOL0     C 1396  10.460   3.443   4.524  0.7522 -0.0913  0.3691
   11MOL0     O 1397  10.705   3.700   4.366 -0.0804 -0.7601  0.0396
   11MOL0     C 1398  10.710   3.969   4.430 -0.1097  0.0727 -0.7291
   11MOL0     C 1399  10.716   4.103   4.456  1.3555  0.4865  1.0817
   11MOL0     N 1400  10.544   4.199   4.174 -1.0966  0.5230  0.0408
   11MOL0     N 1401  10.527   4.071   4.159 -0.4316 -0.3700 -0.2306
   11MOL0     C 1402  10.028   2.996   4.500 -0.5437  1.0706  0.2637
   11MOL0     C 1403  10.052   2.891   4.589 -0.1488  0.1676 -1.1831
   11MOL0     C 1404  10.143   2.601   4.913 -0.5549  0.2264 -0.0006
   11MOL0     C 1405  10.260   2.650   4.982 -0.8495  0.2470 -0.5922
   11MOL0     C 1406  10.325   2.567   5.072  0.2489 -0.2991 -0.1821
   11MOL0     C 1407  10.289   2.432   5.097  0.5593  0.2677  0.5712
   11MOL0     O 1408  10.346   2.346   5.192  0.2257  0.2218 -0.0361
   11MOL0     C 1409  10.455   2.385   5.277  0.2802 -0.3959  0.5111
   11MOL0     C 1410  10.515   2.261   5.322  0.9257  0.8881 -0.8939
   11MOL0     C 1411  10.610   2.205   5.219 -1.0270  0.0796  0.2888
   11MOL0     C 1412  10.706   2.104   5.266 -0.9228 -0.8991 -0.4336
   11MOL0     C 1413  10.644   1.976   5.310  0.4503  0.1135 -0.8503
   11MOL0     C 1414  10.589   1.882   5.370 -0.0718 -1.1358  0.7320
   11MOL0     C 1415  10.183   2.389   5.025 -0.3922  0.3379 -0.8233
   11MOL0     C 1416  10.112   2.468   4.929  0.7558 -0.5358  0.9727
   11MOL0     C 1417  10.001   2.398   4.856  1.2165 -0.4742  0.1415
   11MOL0     H 1418  10.213   3.065   4.843 -0.4806 -1.4916  0.6176
   11MOL0     H 1419  10.145   3.247   4.677  0.7525 -0.1801 -0.0906
   11MOL0     H 1420   9.999   3.187   4.258  3.2225 -3.0514  1.7364
   11MOL0     H 1421   9.873   3.188   4.373 -0.9503  2.0308 -0.4545
   11MOL0     H 1422   9.916   3.425   4.421  0.1943 -1.6119  0.5033
   11MOL0     H 1423   9.834   3.388   4.264 -0.7024 -4.4538  0.6611
   11MOL0     H 1424  10.010   3.413   4.123 -1.5275  1.4907 -0.0911
   11MOL0     H 1425  10.123   3.448   4.256  0.2098 -2.0854  0.8988
   11MOL0     H 1426   9.874   3.596   4.191 -0.6927 -0.7017  1.1573
   11MOL0     H 1427   9.966   3.652   4.318 -3.8502  3.0313 -2.7582
   11MOL0     H 1428  10.111   3.613   4.055 -2.3733 -1.2774  0.2444
   11MOL0     H 1429  10.022   3.768   4.094 -0.9044 -1.1227 -1.5610
   11MOL0     H 1430  10.165   3.758   4.313  1.7357  0.0516 -0.1333
   11MOL0     H 1431  10.265   3.652   4.222 -0.7912 -1.3367  0.9188
   11MOL0     H 1432  10.185   3.947   4.145  1.5182  0.6766 -2.6450
   11MOL0     H 1433  10.301   3.856   4.053  2.4621  0.4355  1.4983
   11MOL0     H 1434  10.364   3.876   4.343  2.1614 -0.9526  0.1330
   11MOL0     H 1435  10.462   3.839   4.197 -0.0114  0.2942 -1.2942
   11MOL0     H 1436  10.288   4.145   4.362 -1.5113 -1.2590 -1.4865
   11MOL0     H 1437  10.517   4.448   4.220 -3.4665  5.2826 -0.8691
   11MOL0     H 1438  10.345   4.429   4.233  0.0696 -1.8934 -0.6871
   11MOL0     H 1439  10.368   4.539   4.431  1.2465  1.6500 -0.4579
   11MOL0     H 1440  10.394   4.370   4.491 -1.9673 -1.3046 -1.3948
   11MOL0     H 1441  10.542   4.525   4.592 -1.6101  0.9342 -0.4774
   11MOL0     H 1442  10.602   4.585   4.434 -1.3136  1.3509  1.4438
   11MOL0     H 1443  10.774   4.412   4.507  0.7122 -0.3105 -3.0386
   11MOL0     H 1444  10.685   4.355   4.392 -1.1875  0.4853 -0.6623
   11MOL0     H 1445  10.529   4.090   4.735 -1.1494  0.8355 -2.0471
   11MOL0     H 1446  10.548   3.853   4.700  1.8802 -0.5796  1.4339
   11MOL0     H 1447  10.793   3.493   4.527 -1.9772  3.9103  4.6450
   11MOL0     H 1448  10.793   3.250   4.499  0.1145  1.0099  1.7749
   11MOL0     H 1449  10.714   2.985   4.570  0.2137  0.3507  0.2344
   11MOL0     H 1450  10.591   3.048   4.673  2.0266 -1.9437  1.1441
   11MOL0     H 1451  10.572   2.796   4.639  4.5836  0.1162 -2.9025
   11MOL0     H 1452  10.426   2.889   4.606 -0.5188  1.2594  1.2582
   11MOL0     H 1453  10.529   2.871   4.356  0.6591 -0.1350 -0.2204
   11MOL0     H 1454  10.609   2.734   4.409 -0.4744 -0.7806 -0.7337
   11MOL0     H 1455  10.304   2.767   4.464 -1.8226 -0.4366 -3.4671
   11MOL0     H 1456  10.398   2.620   4.506 -0.8192 -0.1805  1.1191
   11MOL0     H 1457  10.441   2.572   4.273 -0.3895 -0.1219 -1.4403
   11MOL0     H 1458  10.342   2.731   4.229 -1.0114  2.4006  1.6992
   11MOL0     H 1459  10.222   2.502   4.392 -0.3139  1.7102  1.3700
   11MOL0     H 1460  10.160   2.643   4.306  0.6241 -0.2687  0.8891
   11MOL0     H 1461  10.290   2.428   4.156 -1.0936 -2.6002  2.5251
   11MOL0     H 1462  10.171   2.559   4.098 -1.1170  1.1066  1.2955
   11MOL0     H 1463  10.080   2.327   4.098 -2.5872  3.0902 -0.5088
   11MOL0     H 1464  10.125   2.309   4.277 -1.4219 -0.7044  0.1169
   11MOL0     H 1465  10.371   3.249   4.486 -1.0915  2.2084  0.3325
   11MOL0     H 1466  10.362   3.489   4.533  0.3057 -1.0977  0.8312
   11MOL0     H 1467  10.741   3.947   4.328 -1.8101  2.3508 -1.8386
   11MOL0     H 1468  10.758   4.160   4.373  0.4932 -0.4818 -0.0522
   11MOL0     H 1469   9.984   2.987   4.401 -1.0214  0.2372  0.5461
   11MOL0     H 1470  10.020   2.791   4.562  1.0757 -0.4097 -0.5739
   11MOL0     H 1471  10.296   2.747   4.949 -2.5688  0.1464 -3.0020
   11MOL0     H 1472  10.416   2.593   5.125 -0.2316  2.1304 -0.4413
   11MOL0     H 1473  10.412   2.433   5.366  2.6691  4.8431 -0.7654
   11MOL0     H 1474  10.527   2.458   5.239 -0.5537  1.7296  2.7333
   11MOL0     H 1475  10.437   2.186   5.335 -0.9219  2.5587 -1.8926
   11MOL0     H 1476  10.559   2.279   5.421  1.8491  2.2526 -1.5219
   11MOL0     H 1477  10.674   2.285   5.182 -1.0185  0.3901  0.9729
   11MOL0     H 1478  10.571   2.163   5.126  0.0189 -0.6520  0.1605
   11MOL0     H 1479  10.775   2.076   5.186  1.8529  0.0382  1.5099
   11MOL0     H 1480  10.763   2.148   5.348 -1.0954 -0.1095 -0.7204
   11MOL0     H 1481  10.545   1.798   5.420 -1.7690  0.7394  2.5265
   11MOL0     H 1482  10.158   2.285   5.045 -0.3158 -0.6153 -4.8602
   11MOL0     H 1483  10.003   2.292   4.882  1.6580 -0.5436 -0.1716
   11MOL0     H 1484   9.904   2.434   4.891  1.4251 -0.0113  0.2537
   11MOL0     H 1485  10.013   2.416   4.749 -0.4765 -3.5624 -0.6839
   12MOL0     O 1486   9.233   9.736   2.979  0.1831  0.7596 -0.4320
   12MOL0     C 1487   9.148   9.789   3.043  0.0305 -0.8479  1.3820
   12MOL0     O 1488   9.131   9.926   3.051 -0.0556 -0.1747 -0.2740
   12MOL0     C 1489   9.212  10.004   2.967 -0.4446 -0.8267 -0.1998
   12MOL0     C 1490   9.218   9.991   2.826  0.7854  0.1590 -0.4592
   12MOL0     C 1491   9.304  10.059   2.744 -0.3113 -0.6305  0.6706
   12MOL0     C 1492   9.386  10.158   2.793 -0.2272  0.2483 -0.2070
   12MOL0     O 1493   9.450  10.222   2.693 -0.0226  0.6223  0.2506
   12MOL0     C 1494   9.498  10.354   2.730  0.2547  0.4733  0.0173
   12MOL0     C 1495   9.573  10.410   2.605  0.8204  0.1078 -0.3252
   12MOL0     C 1496   9.621  10.557   2.616  0.7948  0.1329  1.1829
   12MOL0     C 1497   9.773  10.560   2.583  0.4340 -0.3625 -0.5436
   12MOL0     C 1498   9.842  10.646   2.689 -0.0342 -0.6007  0.8176
   12MOL0     C 1499   9.978  10.676   2.643  0.2155 -0.3332 -1.0796
   12MOL0     C 1500  10.039  10.753   2.761 -0.2103 -0.7279 -0.3733
   12MOL0     C 1501  10.161  10.829   2.714  0.1156 -1.3604  0.8002
   12MOL0     N 1502  10.270  10.748   2.657  0.8188  0.0703 -1.0867
   12MOL0     C 1503  10.381  10.716   2.730 -0.1286 -0.4374 -0.0877
   12MOL0     C 1504  10.463  10.661   2.644 -0.2003  0.1265 -0.3729
   12MOL0     C 1505  10.588  10.600   2.684  0.1865 -0.0453 -0.7120
   12MOL0     C 1506  10.578  10.446   2.709 -0.1405  0.1509  1.1121
   12MOL0     C 1507  10.587  10.369   2.571  0.3684 -0.6705  0.0221
   12MOL0     C 1508  10.586  10.211   2.583 -0.8518  0.3341  0.7602
   12MOL0     O 1509  10.460  10.180   2.637  0.6423  0.0487  0.7553
   12MOL0     C 1510  10.438  10.075   2.717 -0.7078  0.6034  0.1023
   12MOL0     C 1511  10.506   9.953   2.698  0.3925 -0.1291 -0.0087
   12MOL0     C 1512  10.475   9.845   2.776 -0.2264  0.3569 -0.2525
   12MOL0     C 1513  10.366   9.853   2.870 -0.7713  1.0097  0.4978
   12MOL0     C 1514  10.342   9.730   2.953  0.3580  0.0472  1.1796
   12MOL0     O 1515  10.403   9.613   2.903  0.4238  0.3696 -0.0678
   12MOL0     C 1516  10.392   9.496   2.975  0.0502 -0.3380  0.4489
   12MOL0     C 1517  10.348   9.371   2.917 -1.2629 -0.0460  0.4616
   12MOL0     C 1518  10.388   9.250   2.982  0.2800  0.6111 -0.1894
   12MOL0     C 1519  10.477   9.250   3.089 -0.9775  0.0551  0.7542
   12MOL0     O 1520  10.529   9.127   3.116 -0.7099  0.2164  0.3575
   12MOL0     C 1521  10.610   9.111   3.236  0.6276  0.4692  0.1488
   12MOL0     C 1522  10.538   9.120   3.374  0.0271 -0.5002 -0.4645
   12MOL0     C 1523  10.629   9.100   3.486 -1.0502 -0.1500  0.4701
   12MOL0     C 1524  10.559   9.046   3.611 -0.3851 -0.4056 -0.0582
   12MOL0     C 1525  10.657   9.059   3.730  0.5146 -0.0969  0.2223
   12MOL0     C 1526  10.592   8.987   3.853  0.0604 -0.0315 -0.0379
   12MOL0     C 1527  10.697   8.967   3.962 -0.5161 -0.0430  0.4192
   12MOL0     C 1528  10.816   8.890   3.919 -0.1656  0.2755  0.7100
   12MOL0    Cl 1529  10.752   8.722   3.863 -0.1220  0.1313  0.1672
   12MOL0     C 1530  10.506   9.369   3.147  0.2656  0.9507 -0.6449
   12MOL0     C 1531  10.471   9.491   3.094 -0.0037  0.0766  0.3738
   12MOL0     O 1532  10.273   9.734   3.051 -0.1941  0.1534  0.2585
   12MOL0     C 1533  10.299   9.972   2.885  0.1910 -0.4692  0.4966
   12MOL0     C 1534  10.335  10.081   2.802  0.0236 -0.3657  1.1398
   12MOL0     N 1535  10.404  10.650   2.525 -0.2117 -0.5242 -0.0678
   12MOL0     N 1536  10.278  10.698   2.525  0.4779 -0.5326  0.8147
   12MOL0     C 1537   9.379  10.176   2.934 -0.5812 -0.2366 -0.4309
   12MOL0     C 1538   9.297  10.102   3.020 -0.9074 -0.0646 -0.7676
   12MOL0     C 1539   9.040   9.702   3.095  0.2864 -1.1701  0.1109
   12MOL0     C 1540   8.986   9.736   3.222 -0.2297 -0.9236  0.1535
   12MOL0     C 1541   8.894   9.649   3.287 -0.1597  0.7398  0.5217
   12MOL0     C 1542   8.850   9.539   3.212  0.6692  1.0941 -0.7542
   12MOL0     O 1543   8.746   9.457   3.262 -0.4999 -0.1072  0.3936
   12MOL0     C 1544   8.612   9.478   3.211 -0.2095 -0.6673  0.5402
   12MOL0     C 1545   8.494   9.427   3.293 -0.2132  0.8394 -0.4256
   12MOL0     C 1546   8.527   9.402   3.440 -0.1443 -0.2588 -0.1359
   12MOL0     C 1547   8.448   9.300   3.515 -0.1108  0.7534  0.6174
   12MOL0     C 1548   8.309   9.332   3.522 -0.3274 -0.6241 -1.1848
   12MOL0     C 1549   8.190   9.371   3.511  0.2243 -0.6595 -0.0512
   12MOL0     C 1550   8.891   9.518   3.076  0.6280  0.1851  0.1996
   12MOL0     C 1551   8.980   9.599   3.012 -0.7107  0.3834  0.1467
   12MOL0     C 1552   9.020   9.553   2.868 -1.0551 -0.9233 -1.3973
   12MOL0     H 1553   9.151   9.916   2.784 -0.8265  0.7231  0.9881
   12MOL0     H 1554   9.291  10.042   2.637 -0.5929  0.3815  0.5361
   12MOL0     H 1555   9.417  10.416   2.771 -0.8838 -1.4807  0.8449
   12MOL0     H 1556   9.582  10.344   2.799 -0.0258  3.7001  1.0153
   12MOL0     H 1557   9.512  10.406   2.514  0.4160 -1.5863 -0.0317
   12MOL0     H 1558   9.654  10.338   2.591  1.1417  0.9400 -3.4076
   12MOL0     H 1559   9.596  10.601   2.714 -1.0772  0.8416  0.4312
   12MOL0     H 1560   9.568  10.618   2.543 -0.0129  0.4998  2.0434
   12MOL0     H 1561   9.824  10.464   2.597  0.5053 -0.1032  1.1542
   12MOL0     H 1562   9.801  10.594   2.483  1.7858  0.7174  0.1607
   12MOL0     H 1563   9.788  10.742   2.694  0.5681 -0.1472 -0.9025
   12MOL0     H 1564   9.837  10.595   2.786  0.0312  0.3361  1.3338
   12MOL0     H 1565  10.028  10.578   2.647  2.8290  0.9503  1.0486
   12MOL0     H 1566   9.981  10.720   2.543 -0.4901 -1.9165 -1.8451
   12MOL0     H 1567  10.066  10.676   2.834 -1.1970 -0.0749  0.7249
   12MOL0     H 1568   9.964  10.820   2.804 -0.7554 -0.4162 -1.7454
   12MOL0     H 1569  10.130  10.906   2.643 -0.5372 -0.9476  1.5292
   12MOL0     H 1570  10.203  10.885   2.798 -0.0085  0.5454 -0.3450
   12MOL0     H 1571  10.394  10.739   2.836 -2.4287  0.4974  0.0319
   12MOL0     H 1572  10.663  10.617   2.606 -0.9974 -0.6408 -2.0267
   12MOL0     H 1573  10.626  10.641   2.777 -0.4665 -2.5771  0.7797
   12MOL0     H 1574  10.668  10.418   2.764  2.5320 -2.0278 -3.7262
   12MOL0     H 1575  10.490  10.424   2.769  0.0923  0.7406  1.6828
   12MOL0     H 1576  10.681  10.387   2.518  1.8410  0.1519  2.7657
   12MOL0     H 1577  10.495  10.387   2.513 -0.2538 -0.8269  0.9336
   12MOL0     H 1578  10.668  10.167   2.641  1.3430  0.1348 -2.2497
   12MOL0     H 1579  10.587  10.176   2.480  0.1762  0.9258  0.5468
   12MOL0     H 1580  10.595   9.952   2.636  0.3734  2.6892 -0.1895
   12MOL0     H 1581  10.533   9.754   2.762 -0.9290  0.2299 -2.8559
   12MOL0     H 1582  10.289   9.365   2.827 -0.6935  0.7183  0.0232
   12MOL0     H 1583  10.351   9.149   2.965 -1.8316  1.1669  0.7602
   12MOL0     H 1584  10.674   9.022   3.229  1.1027  0.9444 -2.3235
   12MOL0     H 1585  10.689   9.187   3.242  0.5442  0.4525  2.3004
   12MOL0     H 1586  10.483   9.214   3.383 -0.4332 -0.8191  0.0966
   12MOL0     H 1587  10.460   9.044   3.385 -2.8686  2.2745 -0.1539
   12MOL0     H 1588  10.714   9.035   3.463  0.2443  2.1234 -1.6240
   12MOL0     H 1589  10.681   9.193   3.511 -0.5608 -0.2164 -0.2758
   12MOL0     H 1590  10.518   8.945   3.598  1.6314 -1.2184 -0.4726
   12MOL0     H 1591  10.479   9.119   3.629 -0.1029  0.0932 -0.7996
   12MOL0     H 1592  10.664   9.166   3.749  0.4679  0.3587 -2.1029
   12MOL0     H 1593  10.756   9.017   3.707  2.7545  2.1555  4.5518
   12MOL0     H 1594  10.518   9.063   3.878 -0.1522  0.8026 -2.8500
   12MOL0     H 1595  10.536   8.897   3.826 -2.7001  1.9227 -1.2817
   12MOL0     H 1596  10.646   8.909   4.039 -0.8608 -2.1016 -1.2703
   12MOL0     H 1597  10.721   9.068   3.995 -1.9178 -0.1394  1.8406
   12MOL0     H 1598  10.873   8.936   3.838 -2.5958 -0.9717 -1.9085
   12MOL0     H 1599  10.885   8.886   4.003 -0.6624  0.3161  1.1266
   12MOL0     H 1600  10.569   9.366   3.235 -0.8740 -1.0343  0.1773
   12MOL0     H 1601  10.504   9.590   3.126  1.4004  0.0004 -0.7551
   12MOL0     H 1602  10.221   9.975   2.961  0.8084 -1.1228  1.1735
   12MOL0     H 1603  10.269  10.166   2.793  1.5179  0.5997 -2.4866
   12MOL0     H 1604   9.454  10.242   2.976 -0.1816 -0.7249 -0.3679
   12MOL0     H 1605   9.287  10.116   3.127  0.0291  3.2230 -0.9972
   12MOL0     H 1606   9.029   9.822   3.273  0.9908 -2.0259  1.0291
   12MOL0     H 1607   8.871   9.679   3.388 -0.3972  2.8473 -0.1007
   12MOL0     H 1608   8.606   9.441   3.108 -0.7169  3.7935 -1.3093
   12MOL0     H 1609   8.606   9.588   3.209  0.5825 -0.6199 -1.3123
   12MOL0     H 1610   8.458   9.337   3.242  0.6920  0.2597 -0.0501
   12MOL0     H 1611   8.412   9.500   3.299 -2.1132 -1.1779 -0.4867
   12MOL0     H 1612   8.523   9.499   3.489  0.8187  1.2674 -2.8609
   12MOL0     H 1613   8.630   9.367   3.454  0.4029  1.0715 -0.6752
   12MOL0     H 1614   8.453   9.204   3.463 -0.7449 -0.1210  2.1094
   12MOL0     H 1615   8.477   9.289   3.619 -1.2936 -1.3287  0.7847
   12MOL0     H 1616   8.105   9.436   3.498  0.1955 -0.7286 -0.2115
   12MOL0     H 1617   8.839   9.445   3.015 -1.5898  3.0515 -1.5559
   12MOL0     H 1618   9.085   9.616   2.807  0.9567 -0.8944  0.6530
   12MOL0     H 1619   9.056   9.449   2.865 -0.9739 -0.9428 -0.0822
   12MOL0     H 1620   8.929   9.566   2.809 -2.0509  3.3858  0.7126
   13MOL0     O 1621   5.776  10.981   6.217 -0.0459 -0.1621  0.0126
   13MOL0     C 1622   5.866  11.030   6.285  0.1465  0.5788  0.3058
   13MOL0     O 1623   5.857  11.146   6.361  0.1244  0.9973 -1.0171
   13MOL0     C 1624   5.742  11.227   6.376  0.1855  0.2509 -0.5504
   13MOL0     C 1625   5.616  11.187   6.338  0.0311  0.1877  0.2098
   13MOL0     C 1626   5.515  11.286   6.340 -0.0406 -0.6157  1.0577
   13MOL0     C 1627   5.541  11.420   6.371 -0.0501 -0.0831 -0.6385
   13MOL0     O 1628   5.433  11.504   6.361 -0.4592  0.1198  0.6441
   13MOL0     C 1629   5.451  11.643   6.340 -0.0891 -1.3635  0.2568
   13MOL0     C 1630   5.324  11.710   6.276 -0.1591  0.2055 -0.6077
   13MOL0     C 1631   5.189  11.666   6.335 -0.1608 -0.4553 -0.9581
   13MOL0     C 1632   5.154  11.746   6.461  0.2933 -0.1459  0.0300
   13MOL0     C 1633   5.060  11.662   6.549 -0.0916  0.4200 -0.0252
   13MOL0     C 1634   4.929  11.610   6.494  0.2663 -0.6638  0.0685
   13MOL0     C 1635   4.842  11.728   6.443 -0.3601  0.2010 -0.1391
   13MOL0     C 1636   4.709  11.668   6.401 -0.3644 -0.2449 -0.3125
   13MOL0     N 1637   4.645  11.776   6.324 -0.4285  0.4812  0.1067
   13MOL0     C 1638   4.604  11.897   6.377  0.1242 -0.3253  0.1775
   13MOL0     C 1639   4.588  11.983   6.277  0.1193  0.1628 -0.5953
   13MOL0     C 1640   4.550  12.130   6.279  0.3200  0.2362  0.4938
   13MOL0     C 1641   4.429  12.174   6.356  0.9055 -0.3704  1.1514
   13MOL0     C 1642   4.456  12.275   6.471 -0.7456  0.5022 -0.1235
   13MOL0     C 1643   4.546  12.227   6.588  0.0871 -0.1203  0.5433
   13MOL0     O 1644   4.682  12.207   6.565  0.0274 -0.1734 -0.0867
   13MOL0     C 1645   4.773  12.310   6.559  0.2933 -0.2963  0.1763
   13MOL0     C 1646   4.752  12.442   6.583 -0.5821 -0.0770 -0.6692
   13MOL0     C 1647   4.864  12.530   6.601  0.0759  0.2140  0.0629
   13MOL0     C 1648   4.997  12.490   6.591 -1.1388  0.8737  0.4780
   13MOL0     C 1649   5.111  12.580   6.590 -0.5553  0.0833 -0.3420
   13MOL0     O 1650   5.086  12.717   6.568  0.1871 -0.6483 -0.3651
   13MOL0     C 1651   5.182  12.790   6.493  0.3938 -0.4676  0.3293
   13MOL0     C 1652   5.263  12.737   6.382 -0.1415 -0.2597 -0.8921
   13MOL0     C 1653   5.360  12.815   6.325  0.1094  0.0535 -0.6222
   13MOL0     C 1654   5.377  12.954   6.365 -0.2859  0.2754 -0.0379
   13MOL0     O 1655   5.485  13.017   6.314 -0.4741  0.9170  0.8744
   13MOL0     C 1656   5.538  13.130   6.378  0.1637  0.1055  0.0768
   13MOL0     C 1657   5.663  13.188   6.306  0.1352  0.3847  0.9891
   13MOL0     C 1658   5.621  13.265   6.177 -0.4950  0.1624  0.1996
   13MOL0     C 1659   5.722  13.364   6.120  0.0314 -0.2698 -0.6983
   13MOL0     C 1660   5.672  13.432   5.997 -0.2708  0.2045  0.3443
   13MOL0     C 1661   5.774  13.539   5.941  0.0519 -0.4903  0.7735
   13MOL0     C 1662   5.894  13.466   5.872  0.1648 -0.1274  0.4703
   13MOL0     C 1663   6.007  13.562   5.839  0.3135 -0.9474  0.4555
   13MOL0    Cl 1664   6.146  13.491   5.759  0.4276 -0.0106 -0.2322
   13MOL0     C 1665   5.289  13.011   6.457  0.6896 -0.0496 -0.7202
   13MOL0     C 1666   5.192  12.934   6.523 -0.1235  0.3994  0.4816
   13MOL0     O 1667   5.219  12.529   6.599  0.0575 -0.9826 -0.0438
   13MOL0     C 1668   5.016  12.351   6.586 -0.2719 -0.0644 -0.1151
   13MOL0     C 1669   4.904  12.266   6.573  0.2665 -1.1366 -0.7744
   13MOL0     N 1670   4.637  11.920   6.165  0.1090 -0.0357  0.8068
   13MOL0     N 1671   4.669  11.797   6.197 -0.6074 -0.4300 -0.3577
   13MOL0     C 1672   5.674  11.456   6.402  0.5933  0.2088  0.2378
   13MOL0     C 1673   5.770  11.358   6.398  0.2524  0.1096  0.0860
   13MOL0     C 1674   6.006  10.979   6.278  0.2816 -0.4924 -0.4174
   13MOL0     C 1675   6.020  10.843   6.232 -0.0173 -0.4410 -0.4354
   13MOL0     C 1676   6.145  10.776   6.223 -0.7673 -0.9710  0.1597
   13MOL0     C 1677   6.263  10.850   6.254  0.5720 -0.3175 -0.2311
   13MOL0     O 1678   6.384  10.792   6.255  0.4879 -0.1741 -0.1916
   13MOL0     C 1679   6.421  10.703   6.147 -0.6673 -0.4930 -0.3701
   13MOL0     C 1680   6.564  10.653   6.151 -0.1980 -0.1559 -0.0950
   13MOL0     C 1681   6.683  10.755   6.156  0.0540  0.1306 -1.2528
   13MOL0     C 1682   6.682  10.859   6.052  1.0030  0.9246  1.2158
   13MOL0     C 1683   6.819  10.907   6.044 -0.2529 -0.3233 -1.0615
   13MOL0     C 1684   6.933  10.949   6.027 -0.4835 -0.2658  0.0536
   13MOL0     C 1685   6.255  10.975   6.310  0.4798 -0.5023  0.5975
   13MOL0     C 1686   6.127  11.048   6.317  0.7157  0.1543  0.1247
   13MOL0     C 1687   6.137  11.176   6.384 -0.2115 -0.5242 -0.2301
   13MOL0     H 1688   5.595  11.082   6.321  0.5810  0.3138 -1.4154
   13MOL0     H 1689   5.412  11.257   6.321 -0.8616  0.3049  3.7238
   13MOL0     H 1690   5.477  11.697   6.432 -0.0280  1.8672 -1.5010
   13MOL0     H 1691   5.534  11.644   6.269  0.4018  1.1054  0.7496
   13MOL0     H 1692   5.322  11.685   6.169  1.2807 -1.6169 -0.2551
   13MOL0     H 1693   5.325  11.820   6.281 -2.3552  0.1979  2.0698
   13MOL0     H 1694   5.194  11.561   6.367 -0.1304 -0.4987 -1.1031
   13MOL0     H 1695   5.113  11.679   6.258  0.1570 -1.8154 -1.5493
   13MOL0     H 1696   5.240  11.779   6.521  1.3475 -0.6406 -1.1622
   13MOL0     H 1697   5.103  11.838   6.431 -2.5181 -2.0275 -1.4089
   13MOL0     H 1698   5.111  11.571   6.582 -2.3155 -2.0443 -2.9272
   13MOL0     H 1699   5.043  11.722   6.639 -0.3655 -0.0397  0.2301
   13MOL0     H 1700   4.941  11.541   6.410 -1.5480  0.5169 -1.2599
   13MOL0     H 1701   4.875  11.552   6.569  1.5909 -1.8870  0.1071
   13MOL0     H 1702   4.898  11.777   6.363 -0.8796  0.5692 -0.2828
   13MOL0     H 1703   4.826  11.813   6.510 -3.5307 -0.8533  0.5921
   13MOL0     H 1704   4.722  11.586   6.330  0.5563  0.1921 -0.6593
   13MOL0     H 1705   4.657  11.635   6.491 -1.4075  0.1209 -0.7550
   13MOL0     H 1706   4.577  11.920   6.479  2.7554 -0.1048  0.8915
   13MOL0     H 1707   4.636  12.188   6.312  2.3353 -1.2514 -1.8009
   13MOL0     H 1708   4.535  12.140   6.171  0.5260  0.4128  0.4819
   13MOL0     H 1709   4.359  12.212   6.281  4.7761 -0.0868 -2.7244
   13MOL0     H 1710   4.395  12.077   6.395  2.9018 -2.9540 -2.8231
   13MOL0     H 1711   4.358  12.300   6.511 -1.2151 -0.4158 -0.6805
   13MOL0     H 1712   4.489  12.371   6.428 -2.0481  0.9019 -0.2693
   13MOL0     H 1713   4.504  12.130   6.616 -3.4395  0.7420 -1.1811
   13MOL0     H 1714   4.527  12.295   6.672  0.3341 -0.0157  0.5135
   13MOL0     H 1715   4.651  12.482   6.581  0.3783  2.4648 -1.9942
   13MOL0     H 1716   4.826  12.631   6.600 -2.2081 -0.4798  2.4461
   13MOL0     H 1717   5.257  12.629   6.373  0.0563 -0.9572  4.3427
   13MOL0     H 1718   5.427  12.784   6.246 -1.0219 -1.4629 -1.0402
   13MOL0     H 1719   5.460  13.207   6.371  1.4651  1.3274 -2.2207
   13MOL0     H 1720   5.547  13.102   6.483  0.6474 -0.9209 -0.2325
   13MOL0     H 1721   5.716  13.250   6.379  0.4605 -0.5632  1.5737
   13MOL0     H 1722   5.727  13.101   6.287 -0.3165  0.3338 -0.3996
   13MOL0     H 1723   5.615  13.193   6.095  2.0069 -0.8765  0.8293
   13MOL0     H 1724   5.527  13.320   6.191  0.5783  2.4851 -1.2673
   13MOL0     H 1725   5.820  13.316   6.114  0.5354  0.1034  2.6023
   13MOL0     H 1726   5.738  13.441   6.196 -0.2998  0.0158 -0.9167
   13MOL0     H 1727   5.575  13.480   6.011 -0.0958  0.6143  0.1616
   13MOL0     H 1728   5.648  13.351   5.927 -0.1086  1.8884 -1.7489
   13MOL0     H 1729   5.722  13.592   5.861  3.3227  0.5013 -0.8523
   13MOL0     H 1730   5.814  13.606   6.018 -0.2312 -0.2647  0.7244
   13MOL0     H 1731   5.864  13.414   5.780 -4.5281  0.8186  1.1820
   13MOL0     H 1732   5.940  13.389   5.934 -0.3872 -1.6213 -0.9129
   13MOL0     H 1733   5.975  13.640   5.771 -0.5169 -0.3173  1.5362
   13MOL0     H 1734   6.055  13.609   5.926  3.1242 -3.2047  0.3079
   13MOL0     H 1735   5.297  13.117   6.480 -0.7407  0.1305 -0.9651
   13MOL0     H 1736   5.125  12.976   6.598  0.5398  1.7698  0.3434
   13MOL0     H 1737   5.115  12.307   6.579 -0.6390 -0.6592 -2.2314
   13MOL0     H 1738   4.926  12.162   6.594 -1.2538 -1.3331 -0.0246
   13MOL0     H 1739   5.707  11.555   6.430 -4.3364  2.0402  0.6404
   13MOL0     H 1740   5.876  11.380   6.408  0.3864 -0.4313 -0.1151
   13MOL0     H 1741   5.935  10.796   6.184 -0.6898  1.9904 -1.8377
   13MOL0     H 1742   6.141  10.669   6.201 -4.5103 -0.4932 -2.3939
   13MOL0     H 1743   6.399  10.753   6.053  0.5278 -0.4405 -0.6356
   13MOL0     H 1744   6.362  10.611   6.143 -0.0198 -0.9233 -0.2121
   13MOL0     H 1745   6.591  10.582   6.073  2.3834 -1.4296  1.7921
   13MOL0     H 1746   6.576  10.589   6.239 -0.3043  0.2804  0.2400
   13MOL0     H 1747   6.772  10.692   6.155  0.7474  1.0519  0.2597
   13MOL0     H 1748   6.699  10.810   6.249  0.1353 -0.3703 -0.9696
   13MOL0     H 1749   6.655  10.821   5.953  3.2120  2.2779  0.0073
   13MOL0     H 1750   6.606  10.932   6.080  0.5724  0.3741  1.4945
   13MOL0     H 1751   7.029  10.991   6.006  0.6079 -2.6900 -0.1549
   13MOL0     H 1752   6.346  11.016   6.353 -1.7164  0.7801  4.4801
   13MOL0     H 1753   6.108  11.171   6.489  1.5930 -1.2687  0.2843
   13MOL0     H 1754   6.243  11.204   6.379  0.6241 -3.2164  0.4973
   13MOL0     H 1755   6.083  11.257   6.333 -0.8333  0.4413  1.8576
   14MOL0     O 1756   1.145   8.271   0.388 -0.5715  0.4041 -0.2317
   14MOL0     C 1757   1.151   8.209   0.282 -0.1297 -0.4130  0.2708
   14MOL0     O 1758   1.263   8.209   0.200  0.0342  0.0898  0.2441
   14MOL0     C 1759   1.379   8.272   0.241  0.5534  0.9082 -0.8263
   14MOL0     C 1760   1.407   8.404   0.216  0.0051 -0.9609 -0.5114
   14MOL0     C 1761   1.532   8.455   0.251  0.8256  0.4225  1.0662
   14MOL0     C 1762   1.639   8.379   0.306  0.5653  0.2910  0.3057
   14MOL0     O 1763   1.770   8.432   0.325  0.6625 -0.1107 -0.0883
   14MOL0     C 1764   1.787   8.570   0.332  0.2024 -0.7108 -0.1038
   14MOL0     C 1765   1.925   8.614   0.389 -0.4956  0.0057 -0.1606
   14MOL0     C 1766   1.947   8.641   0.543 -0.4769  0.5455  0.7251
   14MOL0     C 1767   1.820   8.642   0.631  1.0160  0.0231  0.3726
   14MOL0     C 1768   1.843   8.662   0.780 -0.8071 -0.6968 -0.4532
   14MOL0     C 1769   1.856   8.817   0.827  0.1333 -0.4817  0.0612
   14MOL0     C 1770   1.883   8.806   0.977 -0.1118 -0.4658 -0.9042
   14MOL0     C 1771   1.925   8.947   1.033  0.0210 -1.0492 -1.1948
   14MOL0     N 1772   1.953   8.928   1.186 -0.0833  0.2463  0.4828
   14MOL0     C 1773   1.852   8.905   1.278 -0.3703 -0.0587 -0.7121
   14MOL0     C 1774   1.916   8.900   1.394 -0.4385 -0.0150 -0.6942
   14MOL0     C 1775   1.849   8.890   1.524 -0.0059  0.3684 -0.0240
   14MOL0     C 1776   1.946   8.919   1.640 -0.0860  0.2219  0.2594
   14MOL0     C 1777   1.893   8.913   1.785 -0.3086  0.3984 -0.3419
   14MOL0     C 1778   1.805   8.793   1.824 -0.5433  0.0555 -1.2278
   14MOL0     O 1779   1.675   8.819   1.776 -0.1278 -0.5687  0.2981
   14MOL0     C 1780   1.591   8.713   1.768 -0.3057 -0.8402  0.4035
   14MOL0     C 1781   1.464   8.742   1.710 -0.2906 -0.4039  0.0952
   14MOL0     C 1782   1.366   8.635   1.701  0.1976 -0.5586  0.6034
   14MOL0     C 1783   1.393   8.500   1.739 -0.6542  0.3629  0.3236
   14MOL0     C 1784   1.296   8.395   1.721 -0.6518  0.9278 -0.0960
   14MOL0     O 1785   1.201   8.422   1.629  0.4012  0.1022 -0.2341
   14MOL0     C 1786   1.073   8.359   1.639 -0.2755 -0.0686  0.0448
   14MOL0     C 1787   1.068   8.215   1.637 -0.1250  1.4515  0.7536
   14MOL0     C 1788   0.946   8.146   1.622  0.6121 -0.0259 -0.3017
   14MOL0     C 1789   0.831   8.217   1.614  0.3495 -0.3599  0.0332
   14MOL0     O 1790   0.713   8.143   1.608  1.1293 -0.3942  0.1332
   14MOL0     C 1791   0.702   8.073   1.479  0.4307 -0.7101  0.4483
   14MOL0     C 1792   0.549   8.052   1.459  0.7299 -0.4949 -0.5424
   14MOL0     C 1793   0.490   7.929   1.545 -0.2925 -0.6647  0.7143
   14MOL0     C 1794   0.577   7.805   1.530 -0.7438  0.3997  0.1118
   14MOL0     C 1795   0.499   7.683   1.574 -0.7996 -0.7380  0.1010
   14MOL0     C 1796   0.508   7.656   1.728 -0.4336 -0.6653  0.5192
   14MOL0     C 1797   0.386   7.590   1.790  0.5916 -0.0650  0.0286
   14MOL0     C 1798   0.345   7.465   1.709  1.1717 -0.2530 -0.4244
   14MOL0    Cl 1799   0.471   7.346   1.693  0.0149 -0.1196  0.2537
   14MOL0     C 1800   0.835   8.364   1.617  0.2171  0.4147  0.1552
   14MOL0     C 1801   0.956   8.434   1.627  0.0151 -0.0143  0.1451
   14MOL0     O 1802   1.297   8.307   1.810 -0.2744  0.7938  1.4345
   14MOL0     C 1803   1.518   8.478   1.797 -0.8162  0.3993 -1.1039
   14MOL0     C 1804   1.616   8.582   1.813  0.3466 -0.0675  0.1999
   14MOL0     N 1805   2.048   8.921   1.374 -0.0398  0.3091 -0.6739
   14MOL0     N 1806   2.075   8.930   1.248 -0.0860 -0.1023 -0.0440
   14MOL0     C 1807   1.615   8.247   0.331  0.5604  0.3496  1.2214
   14MOL0     C 1808   1.487   8.194   0.289  0.4560 -0.6447 -0.1056
   14MOL0     C 1809   1.027   8.160   0.217 -0.3766 -0.1414 -0.8106
   14MOL0     C 1810   0.928   8.122   0.311 -0.5994 -0.1247 -0.3995
   14MOL0     C 1811   0.803   8.081   0.279 -0.6370  2.1671  0.7482
   14MOL0     C 1812   0.768   8.082   0.147 -0.3217  0.3521  0.0406
   14MOL0     O 1813   0.631   8.067   0.105  0.6033 -0.8953  0.7369
   14MOL0     C 1814   0.530   7.994   0.178  0.0466  0.1847 -0.0614
   14MOL0     C 1815   0.562   7.847   0.168 -0.0649 -0.1795 -0.2699
   14MOL0     C 1816   0.433   7.763   0.197  0.4468  0.8730 -0.2277
   14MOL0     C 1817   0.417   7.745   0.351  0.9942  0.1144  0.5494
   14MOL0     C 1818   0.525   7.678   0.424 -0.8900 -0.8078 -0.0220
   14MOL0     C 1819   0.624   7.633   0.476  0.5560 -0.1170  0.2200
   14MOL0     C 1820   0.860   8.116   0.048  0.0646  0.1854  0.3980
   14MOL0     C 1821   0.993   8.159   0.085 -0.8287 -0.7352  0.5393
   14MOL0     C 1822   1.088   8.203  -0.025  0.2451 -0.4564 -0.6732
   14MOL0     H 1823   1.327   8.460   0.168  0.9935  0.1637 -0.8909
   14MOL0     H 1824   1.555   8.558   0.227  0.6596  0.4438  0.9978
   14MOL0     H 1825   1.788   8.611   0.230  2.1214  0.5963  0.3841
   14MOL0     H 1826   1.706   8.621   0.385 -0.6619 -0.1377 -1.8682
   14MOL0     H 1827   1.939   8.716   0.351  1.7771 -0.6008 -1.0985
   14MOL0     H 1828   2.007   8.556   0.347  1.3874 -0.1836  3.3541
   14MOL0     H 1829   1.995   8.738   0.554  3.2812 -1.0788  0.2424
   14MOL0     H 1830   2.012   8.564   0.586 -2.8486 -0.5912  2.5155
   14MOL0     H 1831   1.746   8.713   0.594  0.8390  0.6151  1.8354
   14MOL0     H 1832   1.772   8.543   0.625 -2.8413  1.6640  1.3675
   14MOL0     H 1833   1.757   8.629   0.839  1.0428 -0.7986  2.3673
   14MOL0     H 1834   1.931   8.613   0.821 -0.2234  0.0811 -0.7531
   14MOL0     H 1835   1.943   8.858   0.775 -0.5338  1.3933  0.3296
   14MOL0     H 1836   1.765   8.870   0.799 -0.3364 -1.6776 -0.7360
   14MOL0     H 1837   1.956   8.729   1.005  1.4970  1.9071  1.9761
   14MOL0     H 1838   1.792   8.771   1.027 -0.1077 -0.4004 -0.8505
   14MOL0     H 1839   2.012   8.979   0.975 -0.3180  2.2098 -0.1470
   14MOL0     H 1840   1.846   9.017   1.005  0.5068 -0.6303 -1.5354
   14MOL0     H 1841   1.747   8.889   1.257 -1.3375  2.9900  1.2628
   14MOL0     H 1842   1.774   8.969   1.539  0.5987  0.8970  0.2618
   14MOL0     H 1843   1.796   8.795   1.538  0.2738 -0.0329 -1.5598
   14MOL0     H 1844   2.031   8.851   1.633  0.0644  0.2945  1.2211
   14MOL0     H 1845   1.978   9.023   1.633 -3.4024  1.6376  3.0863
   14MOL0     H 1846   1.844   9.002   1.826 -0.5344  0.3285 -0.4559
   14MOL0     H 1847   1.983   8.916   1.848 -0.7639  0.8775  0.3062
   14MOL0     H 1848   1.792   8.784   1.932  1.9709 -3.5376 -1.0540
   14MOL0     H 1849   1.852   8.702   1.787  1.3697  0.1982  0.6414
   14MOL0     H 1850   1.438   8.844   1.684  1.9985  1.2949  3.7408
   14MOL0     H 1851   1.274   8.672   1.658 -0.8575  1.2401  4.0400
   14MOL0     H 1852   1.160   8.159   1.650 -1.0257 -1.9689 -4.3793
   14MOL0     H 1853   0.944   8.037   1.618  1.2492 -0.0528  0.0622
   14MOL0     H 1854   0.738   8.131   1.393 -0.5310 -0.7465  0.0104
   14MOL0     H 1855   0.767   7.985   1.471  1.2553 -0.1141  0.4021
   14MOL0     H 1856   0.498   8.144   1.490  1.0501 -0.4672 -0.0893
   14MOL0     H 1857   0.538   8.028   1.353 -2.0732  2.5531 -1.0885
   14MOL0     H 1858   0.485   7.948   1.652 -0.3924 -0.4215  0.6681
   14MOL0     H 1859   0.386   7.918   1.513 -0.9787  0.0118  2.5617
   14MOL0     H 1860   0.664   7.821   1.594 -1.7635  0.4637  1.5307
   14MOL0     H 1861   0.617   7.800   1.428  1.1361 -6.4644  0.7198
   14MOL0     H 1862   0.537   7.593   1.525  0.5091  0.0341 -0.3352
   14MOL0     H 1863   0.395   7.707   1.549 -0.8971  2.2461  2.7116
   14MOL0     H 1864   0.599   7.597   1.741 -0.7259 -0.8447  1.9185
   14MOL0     H 1865   0.531   7.744   1.788 -2.5295  0.3268 -0.0082
   14MOL0     H 1866   0.304   7.659   1.808  0.3296  0.1032 -1.6598
   14MOL0     H 1867   0.420   7.539   1.881  0.7304  0.4621  0.2767
   14MOL0     H 1868   0.262   7.415   1.759 -0.4462  0.6682 -2.0461
   14MOL0     H 1869   0.308   7.494   1.610  0.1250 -4.4434 -1.4412
   14MOL0     H 1870   0.739   8.414   1.613  1.0388  1.9881 -0.5313
   14MOL0     H 1871   0.960   8.543   1.629  1.0984 -0.0171  2.7804
   14MOL0     H 1872   1.538   8.375   1.826 -1.7314  0.6774  0.6065
   14MOL0     H 1873   1.707   8.551   1.862 -0.1625 -0.3372  1.0050
   14MOL0     H 1874   1.693   8.175   0.356  0.6117 -0.4911 -1.1290
   14MOL0     H 1875   1.465   8.094   0.326  0.6776 -0.1497  1.4267
   14MOL0     H 1876   0.941   8.130   0.418  1.1770 -1.1345 -0.5045
   14MOL0     H 1877   0.731   8.059   0.357 -0.6280  0.5607  0.3390
   14MOL0     H 1878   0.429   8.020   0.146 -0.6922 -0.0450  1.9624
   14MOL0     H 1879   0.540   8.031   0.280  2.5498  2.8702 -1.1551
   14MOL0     H 1880   0.647   7.825   0.234 -0.3547  1.2012  0.5916
   14MOL0     H 1881   0.607   7.826   0.070  1.3553 -2.5088  0.7790
   14MOL0     H 1882   0.427   7.670   0.139  2.4753  1.5969 -1.6992
   14MOL0     H 1883   0.339   7.811   0.171 -3.0051 -3.6828  2.2807
   14MOL0     H 1884   0.421   7.850   0.383  0.1088  0.4444 -0.3765
   14MOL0     H 1885   0.318   7.708   0.379 -0.5890 -0.0050 -4.2401
   14MOL0     H 1886   0.718   7.592   0.506  0.6915 -3.5700 -3.9468
   14MOL0     H 1887   0.836   8.109  -0.057 -3.9008 -0.8073  1.2149
   14MOL0     H 1888   1.043   8.193  -0.123 -1.9254 -2.0032  0.3941
   14MOL0     H 1889   1.126   8.304  -0.005  3.8254 -1.3902 -1.9147
   14MOL0     H 1890   1.180   8.143  -0.017  0.2787 -0.2302  1.2980
   15MOL0     O 1891   0.949   0.766   5.499 -0.1187 -0.4128  0.1406
   15MOL0     C 1892   0.912   0.783   5.615 -1.0419 -0.2601  1.0236
   15MOL0     O 1893   0.993   0.853   5.709  0.6766 -0.3524  0.2506
   15MOL0     C 1894   1.117   0.891   5.669  0.6229 -0.6798  0.4780
   15MOL0     C 1895   1.143   1.025   5.675 -0.0917  0.8403 -0.5293
   15MOL0     C 1896   1.275   1.071   5.637 -0.1150  0.4572 -0.1534
   15MOL0     C 1897   1.368   0.979   5.595  0.0853  0.0171  0.6753
   15MOL0     O 1898   1.496   1.014   5.553  0.1280  0.4206  0.5097
   15MOL0     C 1899   1.570   0.925   5.463  0.0681  0.1859 -0.0904
   15MOL0     C 1900   1.650   1.017   5.375  0.4898 -0.3947 -0.1072
   15MOL0     C 1901   1.787   1.055   5.435  0.0812  0.6242  0.6979
   15MOL0     C 1902   1.866   1.139   5.330 -1.0919 -0.8821 -0.1124
   15MOL0     C 1903   1.990   1.192   5.396 -0.1318  0.4601 -0.7384
   15MOL0     C 1904   2.097   1.093   5.427 -0.1318  0.2963  1.0532
   15MOL0     C 1905   2.225   1.169   5.465 -0.6325  0.2579 -0.5036
   15MOL0     C 1906   2.338   1.075   5.515  1.0117 -0.4592 -0.1528
   15MOL0     N 1907   2.278   0.995   5.624  0.5046  0.4253 -0.6320
   15MOL0     C 1908   2.208   1.032   5.739 -0.0631  0.9650 -0.4710
   15MOL0     C 1909   2.187   0.923   5.818  0.0421  0.5912  0.4655
   15MOL0     C 1910   2.090   0.917   5.933  0.9557 -0.8126  0.2055
   15MOL0     C 1911   1.949   0.964   5.899  0.8155 -0.5694 -0.1490
   15MOL0     C 1912   1.845   0.921   6.006 -0.6442 -0.2102 -0.0095
   15MOL0     C 1913   1.703   0.966   5.965 -0.2927  0.5177 -0.0451
   15MOL0     O 1914   1.632   0.969   6.081 -0.8488  0.5886 -0.2163
   15MOL0     C 1915   1.614   0.847   6.148 -1.0027 -0.7845 -0.4777
   15MOL0     C 1916   1.631   0.837   6.282 -0.1850 -0.2722  0.3369
   15MOL0     C 1917   1.607   0.716   6.352 -0.9203  0.6633  0.5259
   15MOL0     C 1918   1.579   0.598   6.278  0.3804  0.9674  0.0597
   15MOL0     C 1919   1.571   0.463   6.342  0.1574  0.2900  0.1398
   15MOL0     O 1920   1.558   0.354   6.265 -0.2289  0.1074 -1.0304
   15MOL0     C 1921   1.526   0.239   6.331  1.1985 -0.3996 -0.2850
   15MOL0     C 1922   1.612   0.139   6.327  0.3877  0.4616  0.2029
   15MOL0     C 1923   1.561   0.008   6.338  0.7861  0.0010 -0.0434
   15MOL0     C 1924   1.433  -0.015   6.391 -0.0331  0.4777  0.0495
   15MOL0     O 1925   1.385  -0.141   6.414 -0.5725  0.5150  0.1093
   15MOL0     C 1926   1.373  -0.185   6.550 -0.3230 -0.8265 -0.7260
   15MOL0     C 1927   1.425  -0.325   6.559 -0.0622  0.8959  0.2092
   15MOL0     C 1928   1.566  -0.326   6.503  0.1083 -0.7363  0.0584
   15MOL0     C 1929   1.643  -0.439   6.579  0.5294 -0.5928 -0.0976
   15MOL0     C 1930   1.761  -0.497   6.488  0.7024 -0.4238  0.0497
   15MOL0     C 1931   1.835  -0.608   6.569 -0.4517 -0.4002  0.2840
   15MOL0     C 1932   1.966  -0.642   6.510 -0.0784 -0.4355  0.8382
   15MOL0     C 1933   2.043  -0.741   6.600  0.7048 -0.1033 -0.0084
   15MOL0    Cl 1934   1.961  -0.895   6.633 -0.0477 -0.2020  0.5192
   15MOL0     C 1935   1.342   0.091   6.413  0.3663  0.4523 -0.6024
   15MOL0     C 1936   1.392   0.216   6.375  0.8145 -0.2894 -0.5976
   15MOL0     O 1937   1.575   0.462   6.462 -0.0409  0.1488 -0.1131
   15MOL0     C 1938   1.557   0.611   6.143 -0.4114 -0.0980  0.1045
   15MOL0     C 1939   1.573   0.734   6.082  0.1529  0.6116 -0.2110
   15MOL0     N 1940   2.239   0.816   5.750 -0.0761 -0.0328 -1.0816
   15MOL0     N 1941   2.278   0.858   5.634 -0.0154  0.2328  0.1851
   15MOL0     C 1942   1.336   0.839   5.594 -0.1586 -0.2345 -0.4688
   15MOL0     C 1943   1.212   0.798   5.633  0.2549  0.3490  0.3598
   15MOL0     C 1944   0.774   0.751   5.662 -0.2926 -0.0095  0.3903
   15MOL0     C 1945   0.727   0.825   5.761  0.6451 -0.5532 -0.7702
   15MOL0     C 1946   0.593   0.818   5.807 -0.4185 -0.0808  0.5555
   15MOL0     C 1947   0.508   0.734   5.732 -0.5081  0.2327 -0.1974
   15MOL0     O 1948   0.373   0.719   5.752  0.0549 -0.4221  0.0757
   15MOL0     C 1949   0.311   0.811   5.848 -0.5432 -0.2734  0.1968
   15MOL0     C 1950   0.166   0.788   5.870  0.6191  0.5759 -0.5393
   15MOL0     C 1951   0.082   0.831   5.742 -0.9832  0.3302  0.0943
   15MOL0     C 1952  -0.068   0.821   5.750 -0.5443 -0.5337  1.0277
   15MOL0     C 1953  -0.130   0.891   5.637  0.0132 -1.3948 -0.2530
   15MOL0     C 1954  -0.177   0.938   5.536 -0.0119 -0.5257  0.3893
   15MOL0     C 1955   0.558   0.653   5.631 -0.0731  0.0131 -0.0633
   15MOL0     C 1956   0.693   0.658   5.595  0.3586 -0.2356  0.2538
   15MOL0     C 1957   0.737   0.569   5.489  0.2581 -0.3083 -0.5417
   15MOL0     H 1958   1.065   1.091   5.711  0.5551  1.0674  0.5231
   15MOL0     H 1959   1.309   1.174   5.631  4.8744 -0.9372 -0.2378
   15MOL0     H 1960   1.638   0.860   5.518  2.4401  2.8584  0.3494
   15MOL0     H 1961   1.503   0.865   5.400 -2.5040  0.9061  1.7893
   15MOL0     H 1962   1.596   1.098   5.325  1.3738 -0.4330 -1.1607
   15MOL0     H 1963   1.668   0.945   5.295 -0.9101 -0.9918  0.0936
   15MOL0     H 1964   1.841   0.962   5.451 -1.6760 -0.1221  2.8323
   15MOL0     H 1965   1.783   1.101   5.534  0.7372  0.6791  0.7032
   15MOL0     H 1966   1.899   1.089   5.239 -0.8218  0.2261 -0.6489
   15MOL0     H 1967   1.808   1.230   5.311  1.5396  1.4341  1.9204
   15MOL0     H 1968   2.028   1.269   5.329  1.1265 -0.0965 -0.6860
   15MOL0     H 1969   1.966   1.240   5.492  1.8708 -0.8185  0.4811
   15MOL0     H 1970   2.049   1.027   5.500 -0.4735 -1.0635 -0.3508
   15MOL0     H 1971   2.126   1.037   5.338 -0.9102 -2.7912  2.6155
   15MOL0     H 1972   2.194   1.234   5.548 -0.1350  0.3070 -0.3546
   15MOL0     H 1973   2.250   1.238   5.384 -0.7453  0.4211 -0.4025
   15MOL0     H 1974   2.371   1.001   5.441  2.1502 -1.0709  0.9173
   15MOL0     H 1975   2.419   1.136   5.556 -0.2521  0.7117  0.6909
   15MOL0     H 1976   2.175   1.131   5.770  0.1291  0.9150 -0.1028
   15MOL0     H 1977   2.088   0.810   5.957  0.3971 -0.3573  2.3881
   15MOL0     H 1978   2.133   0.950   6.028  0.9851  1.8530 -0.6652
   15MOL0     H 1979   1.947   1.074   5.897  2.4122 -0.5265 -0.4553
   15MOL0     H 1980   1.917   0.936   5.799 -3.4282 -0.2501  0.9313
   15MOL0     H 1981   1.868   0.964   6.104 -1.4953 -2.1921  1.1227
   15MOL0     H 1982   1.839   0.816   6.033 -2.8480 -0.4591 -1.2796
   15MOL0     H 1983   1.664   0.902   5.885  2.2047 -0.0381 -0.9314
   15MOL0     H 1984   1.703   1.071   5.931 -2.0942  1.6825  3.2083
   15MOL0     H 1985   1.661   0.923   6.341  2.9827  0.5169 -2.1398
   15MOL0     H 1986   1.618   0.722   6.460 -0.9121  3.3361  0.4493
   15MOL0     H 1987   1.713   0.155   6.292  1.3567 -0.5359  2.3867
   15MOL0     H 1988   1.615  -0.081   6.308  1.9874  0.4491  0.7063
   15MOL0     H 1989   1.431  -0.124   6.620  0.5190 -0.4617 -1.7227
   15MOL0     H 1990   1.268  -0.195   6.581  0.7326 -3.2078  2.7678
   15MOL0     H 1991   1.410  -0.371   6.657 -2.2610 -0.8334 -0.8447
   15MOL0     H 1992   1.366  -0.382   6.486 -2.6991  3.3414  0.2279
   15MOL0     H 1993   1.578  -0.323   6.394 -1.9198 -0.5088 -0.1915
   15MOL0     H 1994   1.613  -0.235   6.542  1.9956 -1.6748  0.1004
   15MOL0     H 1995   1.578  -0.526   6.585  0.0244 -0.4072 -2.0997
   15MOL0     H 1996   1.683  -0.401   6.673  0.2583  2.2757 -1.0394
   15MOL0     H 1997   1.830  -0.416   6.461 -0.4552  0.2257 -1.0859
   15MOL0     H 1998   1.713  -0.541   6.400 -0.9520 -0.0052  0.7158
   15MOL0     H 1999   1.858  -0.579   6.672  3.3821  4.1048 -1.5046
   15MOL0     H 2000   1.770  -0.696   6.559 -0.3216 -0.2770 -2.3180
   15MOL0     H 2001   2.041  -0.562   6.505  0.3483 -0.8634  0.2347
   15MOL0     H 2002   1.954  -0.690   6.413 -1.4569 -1.8033  1.6458
   15MOL0     H 2003   2.136  -0.767   6.548  1.4178 -0.1541  1.2674
   15MOL0     H 2004   2.076  -0.694   6.693  1.0135 -1.6138  0.6764
   15MOL0     H 2005   1.243   0.091   6.458 -0.3892  1.1181 -2.1546
   15MOL0     H 2006   1.325   0.302   6.376  1.7593  0.4737 -1.3714
   15MOL0     H 2007   1.525   0.527   6.082 -0.1509  0.7263 -1.2027
   15MOL0     H 2008   1.547   0.736   5.977 -3.0848 -0.6918  0.4527
   15MOL0     H 2009   1.412   0.771   5.556  2.1431  2.0912 -0.3692
   15MOL0     H 2010   1.188   0.692   5.646  0.1661  0.1152 -1.4488
   15MOL0     H 2011   0.789   0.906   5.799 -1.0637  1.4411 -1.9879
   15MOL0     H 2012   0.563   0.872   5.897 -0.9699  1.9679 -0.7717
   15MOL0     H 2013   0.332   0.917   5.830  3.5440 -1.2823 -2.3535
   15MOL0     H 2014   0.356   0.791   5.946 -0.3590 -0.2327  0.1205
   15MOL0     H 2015   0.128   0.838   5.959 -0.0463 -1.9193  0.6604
   15MOL0     H 2016   0.158   0.680   5.882 -3.9793  0.7816  0.1756
   15MOL0     H 2017   0.127   0.778   5.658  0.2442  0.3212  0.7304
   15MOL0     H 2018   0.099   0.937   5.719 -0.2421 -0.3170 -2.7871
   15MOL0     H 2019  -0.092   0.715   5.757 -2.9614 -0.0173  1.8128
   15MOL0     H 2020  -0.118   0.870   5.835 -1.4802  2.1945 -0.9360
   15MOL0     H 2021  -0.219   0.979   5.447  1.4532 -2.6138 -1.4022
   15MOL0     H 2022   0.488   0.589   5.578 -0.0396  0.8617 -1.1720
   15MOL0     H 2023   0.843   0.549   5.502  1.2156  2.7561 -2.6041
   15MOL0     H 2024   0.683   0.474   5.484  1.6759 -1.1377 -0.7095
   15MOL0     H 2025   0.745   0.619   5.392  0.3234  0.4733 -0.1393
   16MOL0     O 2026  10.275   2.205   9.561  0.1112 -0.1261  0.6871
   16MOL0     C 2027  10.233   2.224   9.677  0.4687  0.0422  0.5746
   16MOL0     O 2028  10.096   2.256   9.708  0.0793  0.2988 -0.4627
   16MOL0     C 2029  10.020   2.295   9.602 -0.4964  0.6802  0.0494
   16MOL0     C 2030   9.940   2.193   9.539 -0.5082  0.0944  0.6278
   16MOL0     C 2031   9.855   2.224   9.437  0.3027 -0.8126  0.2302
   16MOL0     C 2032   9.846   2.363   9.401 -0.7447 -0.4672 -0.7374
   16MOL0     O 2033   9.776   2.395   9.284  0.6602 -0.4974  0.5457
   16MOL0     C 2034   9.842   2.365   9.156  0.5915 -0.0786 -0.2161
   16MOL0     C 2035   9.923   2.484   9.109 -1.4821  0.0273 -0.9263
   16MOL0     C 2036   9.838   2.602   9.057 -0.2326 -0.0237  0.0461
   16MOL0     C 2037   9.919   2.701   8.979  0.6401 -0.7202 -0.1301
   16MOL0     C 2038   9.843   2.806   8.886  0.5732 -0.4211  0.2185
   16MOL0     C 2039   9.933   2.884   8.788 -0.6371  0.0401 -0.1996
   16MOL0     C 2040   9.872   2.980   8.677  0.6564  0.3560 -0.7372
   16MOL0     C 2041   9.813   3.114   8.732  0.3569  0.2525  0.0113
   16MOL0     N 2042   9.699   3.087   8.819 -0.3787 -0.3835  0.2903
   16MOL0     C 2043   9.592   3.016   8.782 -0.2487  0.6091  0.4225
   16MOL0     C 2044   9.520   3.013   8.899  0.7146  0.2888 -0.0424
   16MOL0     C 2045   9.389   2.932   8.928 -0.9686  0.3637 -0.2665
   16MOL0     C 2046   9.399   2.783   8.980 -0.6966  0.7267 -0.7121
   16MOL0     C 2047   9.394   2.687   8.858 -0.0685  1.1400 -0.2166
   16MOL0     C 2048   9.388   2.542   8.917 -0.1881 -0.2242  0.5949
   16MOL0     O 2049   9.378   2.443   8.813 -0.4426  0.1164 -0.9527
   16MOL0     C 2050   9.260   2.428   8.757  1.2420  0.0278 -0.0649
   16MOL0     C 2051   9.132   2.471   8.806  0.0998 -0.0890 -0.3606
   16MOL0     C 2052   9.018   2.447   8.734  0.1800  0.4287  0.0823
   16MOL0     C 2053   9.024   2.369   8.620  0.3874 -0.6605  0.7626
   16MOL0     C 2054   8.896   2.333   8.550 -0.1196 -0.0899 -0.2631
   16MOL0     O 2055   8.913   2.239   8.453 -0.3346  0.5967  0.0253
   16MOL0     C 2056   8.816   2.214   8.364  0.5877 -0.4489  0.8828
   16MOL0     C 2057   8.872   2.192   8.242  0.8210 -0.8120  0.0834
   16MOL0     C 2058   8.794   2.142   8.142  0.3628  0.3423  0.0179
   16MOL0     C 2059   8.658   2.111   8.160 -0.4840  0.5620 -0.5787
   16MOL0     O 2060   8.589   2.062   8.055  0.7551  0.1131  0.6363
   16MOL0     C 2061   8.505   1.955   8.092 -0.3433  0.2330  0.1343
   16MOL0     C 2062   8.354   1.981   8.082 -1.2905  0.6194 -0.0272
   16MOL0     C 2063   8.266   1.852   8.121 -0.3486  0.2964 -0.3231
   16MOL0     C 2064   8.219   1.794   7.990  0.1405  0.5090 -0.0444
   16MOL0     C 2065   8.113   1.687   8.018  0.3423  0.0085  0.0700
   16MOL0     C 2066   8.074   1.620   7.881  0.8975 -0.3904  0.2326
   16MOL0     C 2067   7.995   1.492   7.901  0.8174  0.4706  1.0860
   16MOL0     C 2068   7.955   1.418   7.765 -1.0015  0.7797  0.2087
   16MOL0    Cl 2069   7.851   1.287   7.810  0.7484 -0.2898 -0.2113
   16MOL0     C 2070   8.607   2.137   8.285 -0.7619  0.5183  0.4844
   16MOL0     C 2071   8.685   2.194   8.384 -0.8876 -0.4728  0.2701
   16MOL0     O 2072   8.794   2.403   8.570 -0.3589 -0.3767 -0.0981
   16MOL0     C 2073   9.148   2.323   8.575  0.3119  1.1488 -0.4380
   16MOL0     C 2074   9.263   2.348   8.645 -0.0871  0.2373 -0.6613
   16MOL0     N 2075   9.594   3.077   8.996  0.0122 -0.1884  0.0063
   16MOL0     N 2076   9.696   3.121   8.943 -0.1867  0.5536  0.1378
   16MOL0     C 2077   9.908   2.462   9.472 -0.2151 -0.2658  0.2181
   16MOL0     C 2078  10.000   2.428   9.565  0.6997 -0.2602  0.3025
   16MOL0     C 2079  10.327   2.208   9.785  0.3145  0.6470 -0.2817
   16MOL0     C 2080  10.297   2.138   9.903  0.0283 -0.4607  1.0799
   16MOL0     C 2081  10.389   2.119  10.009 -0.1222 -0.8503  0.3738
   16MOL0     C 2082  10.525   2.159   9.992 -0.0200 -0.1127 -0.3861
   16MOL0     O 2083  10.620   2.135  10.091  0.2136 -0.5101  0.9563
   16MOL0     C 2084  10.715   2.237  10.107  0.2520  0.5153  0.3832
   16MOL0     C 2085  10.723   2.281  10.253  0.2587  0.2696 -0.0227
   16MOL0     C 2086  10.585   2.302  10.323 -0.1317  0.1403 -0.2263
   16MOL0     C 2087  10.502   2.425  10.301  0.6852  1.0287  0.2426
   16MOL0     C 2088  10.378   2.402  10.377 -0.6699 -0.2230  0.0887
   16MOL0     C 2089  10.274   2.389  10.432  0.3300 -0.1525 -0.3494
   16MOL0     C 2090  10.561   2.214   9.872 -0.1545 -0.2725  0.3881
   16MOL0     C 2091  10.465   2.243   9.772  0.3151  0.1397  0.1771
   16MOL0     C 2092  10.528   2.308   9.653  0.0658  0.5744 -0.1881
   16MOL0     H 2093   9.948   2.086   9.555  1.2053 -0.8508 -4.7692
   16MOL0     H 2094   9.800   2.151   9.379 -0.7673  0.1291  0.0087
   16MOL0     H 2095   9.902   2.273   9.157  0.2900 -0.4155  3.5171
   16MOL0     H 2096   9.764   2.338   9.084 -1.0796  2.7524  0.3820
   16MOL0     H 2097   9.980   2.444   9.024 -2.4915 -1.8494 -0.7708
   16MOL0     H 2098   9.995   2.517   9.184 -2.8869  0.5921  0.2263
   16MOL0     H 2099   9.795   2.650   9.146 -0.2667  0.5448 -0.2684
   16MOL0     H 2100   9.754   2.568   8.997  0.2481 -0.6540 -0.2774
   16MOL0     H 2101   9.991   2.748   9.046  0.6612 -1.2061  0.1889
   16MOL0     H 2102   9.973   2.644   8.902  0.4006  1.5600 -2.1297
   16MOL0     H 2103   9.761   2.756   8.833  0.1355  3.0115 -2.7554
   16MOL0     H 2104   9.801   2.882   8.954  1.1305  0.1462 -0.0639
   16MOL0     H 2105   9.999   2.947   8.849 -3.6849  2.6926  0.6986
   16MOL0     H 2106   9.983   2.807   8.730 -0.9217  0.3778 -0.9055
   16MOL0     H 2107   9.797   2.932   8.613 -1.1877  4.8090 -2.3082
   16MOL0     H 2108   9.949   3.010   8.605 -0.6195 -2.3699 -3.5034
   16MOL0     H 2109   9.898   3.173   8.769  0.9741 -0.4045 -0.3645
   16MOL0     H 2110   9.764   3.170   8.652 -0.7391 -0.0684  0.4336
   16MOL0     H 2111   9.570   2.961   8.691 -1.7151  0.3944  0.8837
   16MOL0     H 2112   9.336   2.989   9.005 -2.6494 -0.4833 -0.7381
   16MOL0     H 2113   9.338   2.936   8.831  0.4257 -0.6917 -1.0892
   16MOL0     H 2114   9.490   2.758   9.036 -0.0903 -0.2152 -2.0783
   16MOL0     H 2115   9.321   2.757   9.052  0.0957  0.1406 -0.0381
   16MOL0     H 2116   9.478   2.698   8.789 -0.1664 -0.5943 -0.6569
   16MOL0     H 2117   9.299   2.704   8.805 -1.4221  1.3336  2.1513
   16MOL0     H 2118   9.305   2.539   8.988 -1.0003 -0.9939 -0.3640
   16MOL0     H 2119   9.474   2.530   8.983 -0.5782 -0.9057  0.9909
   16MOL0     H 2120   9.118   2.535   8.893 -0.2191  1.5999 -1.5953
   16MOL0     H 2121   8.927   2.494   8.770  0.7860 -0.0144  2.3431
   16MOL0     H 2122   8.977   2.220   8.239  0.1451  2.2130  0.6679
   16MOL0     H 2123   8.832   2.115   8.044  0.7167 -1.6474  0.6400
   16MOL0     H 2124   8.534   1.869   8.031 -3.3487  0.9072 -2.4702
   16MOL0     H 2125   8.534   1.923   8.192  0.7107 -0.4101 -0.3464
   16MOL0     H 2126   8.331   2.058   8.157 -3.9180  0.0297 -0.1476
   16MOL0     H 2127   8.339   2.012   7.979  4.0887  2.8088 -0.4490
   16MOL0     H 2128   8.324   1.782   8.182  1.8855  1.6194 -0.8051
   16MOL0     H 2129   8.174   1.885   8.171 -1.9795 -2.6772 -1.0925
   16MOL0     H 2130   8.304   1.755   7.932  0.6958  1.7170 -0.0692
   16MOL0     H 2131   8.178   1.870   7.923 -0.1132  1.0780  0.7526
   16MOL0     H 2132   8.029   1.727   8.076  0.9760 -0.4057  1.2960
   16MOL0     H 2133   8.142   1.612   8.092 -1.7253 -0.5267  0.3906
   16MOL0     H 2134   8.034   1.697   7.815 -0.4966 -2.3607 -1.3631
   16MOL0     H 2135   8.162   1.575   7.834  1.0755 -0.8637  0.9954
   16MOL0     H 2136   7.901   1.505   7.956  0.5032  1.3667  0.3640
   16MOL0     H 2137   8.059   1.427   7.960 -1.1053 -0.5475  2.1673
   16MOL0     H 2138   7.907   1.481   7.690 -0.0992  1.2215 -0.0220
   16MOL0     H 2139   8.042   1.384   7.709 -0.4522  0.1272  1.4267
   16MOL0     H 2140   8.500   2.130   8.300 -0.4897 -0.8975  2.2434
   16MOL0     H 2141   8.618   2.204   8.469 -0.6894 -0.8823  0.4739
   16MOL0     H 2142   9.150   2.267   8.482  1.2512 -1.0822  0.8380
   16MOL0     H 2143   9.342   2.292   8.596 -0.0413 -0.3807  0.0854
   16MOL0     H 2144   9.900   2.568   9.454  1.0012 -0.3641 -1.1086
   16MOL0     H 2145  10.066   2.504   9.608  0.3711  1.2972 -1.8115
   16MOL0     H 2146  10.191   2.113   9.909 -0.4962  1.0974 -0.6819
   16MOL0     H 2147  10.351   2.075  10.101 -1.8436 -0.2803 -0.0331
   16MOL0     H 2148  10.692   2.333  10.060 -0.7326 -0.1772 -0.6081
   16MOL0     H 2149  10.817   2.201  10.086 -0.0102 -0.4550  0.7475
   16MOL0     H 2150  10.779   2.375  10.258  1.9003 -0.7178  1.6441
   16MOL0     H 2151  10.777   2.204  10.309 -1.2862  0.2137  1.4348
   16MOL0     H 2152  10.608   2.288  10.429  2.9773 -1.9403 -1.0399
   16MOL0     H 2153  10.525   2.217  10.289 -1.0519  0.1567  1.2592
   16MOL0     H 2154  10.553   2.516  10.334  3.8754 -0.4082 -0.2948
   16MOL0     H 2155  10.477   2.432  10.195  0.6470  0.1002  0.1794
   16MOL0     H 2156  10.180   2.377  10.480  0.8806 -1.2054  0.5048
   16MOL0     H 2157  10.662   2.249   9.854 -0.2513  0.2142  0.7551
   16MOL0     H 2158  10.605   2.384   9.665  1.3259 -0.7915  0.8104
   16MOL0     H 2159  10.577   2.229   9.594 -1.1694  1.0066 -1.8800
   16MOL0     H 2160  10.464   2.358   9.580 -0.3413  2.6747  1.5435
   17MOL0     O 2161   1.686   0.667   8.554 -0.3376 -0.5154  0.6216
   17MOL0     C 2162   1.574   0.620   8.578  0.5910 -0.3153  0.5813
   17MOL0     O 2163   1.483   0.676   8.661 -0.2241 -0.2127  0.0502
   17MOL0     C 2164   1.526   0.778   8.738 -0.5307  0.8381 -0.8301
   17MOL0     C 2165   1.501   0.899   8.684  0.9349  0.4756  0.0796
   17MOL0     C 2166   1.533   1.016   8.756 -0.5804 -0.4068 -0.9115
   17MOL0     C 2167   1.590   1.005   8.887 -0.4739 -0.0428  0.1064
   17MOL0     O 2168   1.636   1.110   8.981 -0.5398  0.1602  0.0368
   17MOL0     C 2169   1.622   1.241   8.929  0.9417  0.1401 -0.4443
   17MOL0     C 2170   1.734   1.325   8.985 -0.2763 -0.6083 -0.5585
   17MOL0     C 2171   1.862   1.246   8.975 -0.7251 -0.4695  0.4090
   17MOL0     C 2172   1.974   1.328   9.051 -0.2934 -0.2348  0.4910
   17MOL0     C 2173   2.112   1.258   9.034 -0.1097 -0.8891 -0.1806
   17MOL0     C 2174   2.218   1.314   9.135  0.2290  0.1771 -0.2869
   17MOL0     C 2175   2.354   1.255   9.121  0.1109  0.1829  0.7473
   17MOL0     C 2176   2.460   1.327   9.196  0.0940  0.8930  0.2382
   17MOL0     N 2177   2.479   1.271   9.330 -0.7068 -0.0832  0.0193
   17MOL0     C 2178   2.539   1.150   9.364 -0.2934  0.1671  0.1684
   17MOL0     C 2179   2.494   1.120   9.490  0.0617  1.6997  0.7886
   17MOL0     C 2180   2.538   1.007   9.575  0.0619 -0.0614  0.4465
   17MOL0     C 2181   2.690   0.985   9.565 -0.5001 -0.6099  0.7988
   17MOL0     C 2182   2.730   0.846   9.616  0.0634  0.0258 -0.8571
   17MOL0     C 2183   2.875   0.844   9.668 -0.5383 -0.6500  1.0645
   17MOL0     O 2184   2.892   0.722   9.744 -0.0235  0.7212 -0.2050
   17MOL0     C 2185   3.016   0.685   9.777 -0.8140  0.6959  0.0190
   17MOL0     C 2186   3.046   0.548   9.770 -0.4481 -0.8104 -0.3181
   17MOL0     C 2187   3.179   0.502   9.805 -0.1773  0.0093  0.7854
   17MOL0     C 2188   3.273   0.597   9.855 -0.7225 -0.1561  0.1437
   17MOL0     C 2189   3.405   0.550   9.910  0.6239 -0.9838 -0.4113
   17MOL0     O 2190   3.490   0.640   9.979  0.0368 -0.4378 -0.5768
   17MOL0     C 2191   3.606   0.605  10.026 -0.2599 -0.3684 -0.1763
   17MOL0     C 2192   3.645   0.656  10.149 -0.9367  0.6114 -0.0086
   17MOL0     C 2193   3.766   0.634  10.206 -0.1253  0.8021 -0.2442
   17MOL0     C 2194   3.859   0.549  10.149  0.3122 -0.3434 -0.0298
   17MOL0     O 2195   3.977   0.515  10.208 -0.6822  0.6714 -0.7378
   17MOL0     C 2196   4.008   0.552  10.348  0.0873 -0.1297 -0.2982
   17MOL0     C 2197   4.140   0.493  10.398  0.5644  0.9475 -0.0815
   17MOL0     C 2198   4.127   0.335  10.394  0.7983 -1.0752  0.6779
   17MOL0     C 2199   4.257   0.274  10.447 -0.6124 -0.7225 -0.4251
   17MOL0     C 2200   4.233   0.210  10.581  0.2214 -0.2807  0.1583
   17MOL0     C 2201   4.189   0.303  10.705 -0.1865 -0.2746  0.1890
   17MOL0     C 2202   4.199   0.217  10.833  0.4103 -0.9153 -0.0699
   17MOL0     C 2203   4.126   0.307  10.933 -0.3010 -0.1414 -0.6261
   17MOL0    Cl 2204   4.213   0.480  10.947 -0.2722 -0.3196 -0.3986
   17MOL0     C 2205   3.825   0.491  10.022  0.8699 -0.5394 -0.3635
   17MOL0     C 2206   3.702   0.528   9.957  0.1076  0.5083  0.0683
   17MOL0     O 2207   3.431   0.429   9.902  0.1278 -0.9367  0.6068
   17MOL0     C 2208   3.250   0.735   9.847 -0.1576 -0.2030  0.1982
   17MOL0     C 2209   3.120   0.775   9.810  0.3440  0.3036  0.8645
   17MOL0     N 2210   2.413   1.226   9.537  0.3190 -0.5945  0.5419
   17MOL0     N 2211   2.414   1.321   9.441  0.3252 -0.5775 -0.2373
   17MOL0     C 2212   1.608   0.877   8.939 -0.2737  0.6281  0.0359
   17MOL0     C 2213   1.582   0.763   8.871 -0.2796  0.1085  0.2415
   17MOL0     C 2214   1.533   0.484   8.509  0.1346 -0.2108 -0.3668
   17MOL0     C 2215   1.412   0.487   8.433 -0.5164  0.0097 -0.0459
   17MOL0     C 2216   1.362   0.362   8.376 -0.0450 -0.6623  0.1577
   17MOL0     C 2217   1.442   0.254   8.391 -0.9428  0.2855 -0.7235
   17MOL0     O 2218   1.406   0.153   8.303  0.4863  0.5738 -0.0796
   17MOL0     C 2219   1.451   0.019   8.320  0.2438  0.0193 -0.1316
   17MOL0     C 2220   1.355  -0.082   8.269  0.9086 -0.0256  1.1951
   17MOL0     C 2221   1.290  -0.032   8.145  0.2895 -0.7084 -0.3848
   17MOL0     C 2222   1.216  -0.137   8.062  0.5398  0.1037 -0.2942
   17MOL0     C 2223   1.307  -0.189   7.959  0.7737 -0.6120 -0.8484
   17MOL0     C 2224   1.376  -0.247   7.878 -0.4487  0.2361 -0.3516
   17MOL0     C 2225   1.557   0.256   8.466 -0.0718  0.3028  0.2829
   17MOL0     C 2226   1.614   0.368   8.514 -0.2114  0.4442  0.3496
   17MOL0     C 2227   1.743   0.362   8.567 -1.0957  0.4347  0.1054
   17MOL0     H 2228   1.458   0.904   8.584  1.8250 -2.4094 -0.5274
   17MOL0     H 2229   1.498   1.108   8.712  1.1381  0.1578 -1.1558
   17MOL0     H 2230   1.641   1.256   8.822 -1.5144 -1.1921 -1.1466
   17MOL0     H 2231   1.519   1.267   8.955  0.7563 -2.0785  1.4172
   17MOL0     H 2232   1.718   1.355   9.089  2.3041  0.7194 -0.4743
   17MOL0     H 2233   1.739   1.418   8.927 -0.5841 -0.6399 -0.6412
   17MOL0     H 2234   1.885   1.233   8.869  1.1966  2.3781  0.3673
   17MOL0     H 2235   1.869   1.145   9.017  1.0390 -0.0097  1.3640
   17MOL0     H 2236   1.977   1.426   9.003 -1.0762 -0.4694 -0.0686
   17MOL0     H 2237   1.941   1.332   9.155 -2.3740  2.4785 -0.1476
   17MOL0     H 2238   2.104   1.149   9.040  1.3190 -0.9343  1.7728
   17MOL0     H 2239   2.154   1.302   8.943 -1.8390  3.1432  0.7475
   17MOL0     H 2240   2.216   1.423   9.130 -0.1149  0.2655  1.1430
   17MOL0     H 2241   2.186   1.292   9.238  2.8483  0.8664  0.7365
   17MOL0     H 2242   2.381   1.254   9.015 -2.4389 -1.6480  0.0230
   17MOL0     H 2243   2.360   1.150   9.149  1.4278 -0.7686 -2.6581
   17MOL0     H 2244   2.558   1.310   9.150  0.2059  2.3745 -0.0984
   17MOL0     H 2245   2.428   1.431   9.196 -1.9389  0.3084  0.2188
   17MOL0     H 2246   2.606   1.093   9.301 -0.4080  0.0255  0.1729
   17MOL0     H 2247   2.515   1.032   9.679 -0.5919 -0.5616  0.4248
   17MOL0     H 2248   2.489   0.913   9.550 -0.8107  0.2355  0.9995
   17MOL0     H 2249   2.724   0.983   9.461 -0.4029  2.3745  0.6877
   17MOL0     H 2250   2.743   1.066   9.615 -0.9764  0.9523 -1.1008
   17MOL0     H 2251   2.704   0.760   9.553 -1.9641 -0.4724  0.5544
   17MOL0     H 2252   2.668   0.833   9.706  0.6781  0.6677 -0.3279
   17MOL0     H 2253   2.899   0.920   9.744 -1.5710  0.7720  0.0158
   17MOL0     H 2254   2.944   0.856   9.585  1.5039  1.0965  2.8870
   17MOL0     H 2255   2.965   0.480   9.748 -1.7562  1.1914 -1.9971
   17MOL0     H 2256   3.199   0.396   9.794 -1.7360 -0.3387  1.0304
   17MOL0     H 2257   3.570   0.713  10.204 -0.1391  1.3801  0.2925
   17MOL0     H 2258   3.780   0.672  10.307  1.6205 -0.8508  0.1901
   17MOL0     H 2259   4.003   0.656  10.381 -5.1336 -0.9183  2.3349
   17MOL0     H 2260   3.931   0.507  10.411 -2.3594 -0.0041 -2.9916
   17MOL0     H 2261   4.225   0.536  10.346  0.0321  0.7450 -1.1472
   17MOL0     H 2262   4.142   0.510  10.506  0.1421  0.5639 -0.0075
   17MOL0     H 2263   4.040   0.289  10.444 -0.2549 -3.1167 -2.7237
   17MOL0     H 2264   4.122   0.305  10.289 -0.4026 -2.0569  0.9766
   17MOL0     H 2265   4.335   0.351  10.450 -0.2201 -1.1373  0.1800
   17MOL0     H 2266   4.290   0.204  10.370 -2.5519 -0.7186 -1.3341
   17MOL0     H 2267   4.329   0.161  10.602  1.7120  1.8347 -1.3113
   17MOL0     H 2268   4.158   0.132  10.568  0.1615  0.1605 -3.0058
   17MOL0     H 2269   4.258   0.387  10.713  0.5994 -0.6888 -1.6465
   17MOL0     H 2270   4.087   0.341  10.689 -0.1998 -1.6096 -4.1778
   17MOL0     H 2271   4.301   0.203  10.869 -0.6737 -2.6848  2.6251
   17MOL0     H 2272   4.154   0.117  10.825  2.5217 -1.8526 -0.9695
   17MOL0     H 2273   4.021   0.315  10.902 -1.2842 -1.4585  1.9693
   17MOL0     H 2274   4.119   0.247  11.024 -1.6721  1.9673  0.7571
   17MOL0     H 2275   3.899   0.440   9.962  3.1489  1.3357  0.7064
   17MOL0     H 2276   3.663   0.490   9.863 -0.8577  2.7143 -0.4835
   17MOL0     H 2277   3.327   0.801   9.886 -1.6187  2.7388 -1.5834
   17MOL0     H 2278   3.108   0.882   9.821  1.8231  0.4849  0.9760
   17MOL0     H 2279   1.650   0.863   9.038  2.4207  1.8675 -0.8195
   17MOL0     H 2280   1.611   0.664   8.904  0.6618  0.1140 -0.5390
   17MOL0     H 2281   1.354   0.579   8.436 -1.0339 -0.3236  0.4294
   17MOL0     H 2282   1.270   0.355   8.319 -0.6559  2.5049  0.5772
   17MOL0     H 2283   1.469  -0.003   8.426 -1.8797  0.7713  0.4336
   17MOL0     H 2284   1.552   0.000   8.280  1.6352 -2.0135  3.8228
   17MOL0     H 2285   1.270  -0.081   8.338 -1.1497  3.4433 -1.0880
   17MOL0     H 2286   1.400  -0.181   8.260 -1.6306 -1.2122  0.5326
   17MOL0     H 2287   1.372   0.016   8.092  3.3598 -2.5503  2.2954
   17MOL0     H 2288   1.217   0.038   8.188  1.3977 -0.3103  0.9388
   17MOL0     H 2289   1.168  -0.214   8.123 -1.1843  0.0423 -1.6427
   17MOL0     H 2290   1.137  -0.100   7.996  0.6545  1.6048  0.3578
   17MOL0     H 2291   1.433  -0.304   7.808 -2.8508 -1.6790 -0.8773
   17MOL0     H 2292   1.614   0.163   8.468  2.1039  1.5749  0.1961
   17MOL0     H 2293   1.760   0.426   8.654 -0.8955 -0.7663  0.9683
   17MOL0     H 2294   1.775   0.263   8.600 -0.2390  0.8594  0.5788
   17MOL0     H 2295   1.805   0.385   8.480 -0.2200 -1.7369  0.1055
   18MOL0     O 2296   5.969   3.644   5.105  0.2860  0.1482  0.1549
   18MOL0     C 2297   5.896   3.588   5.029 -0.0132  0.8356 -0.6920
   18MOL0     O 2298   5.937   3.527   4.917  0.9830  0.5121 -0.1972
   18MOL0     C 2299   6.046   3.573   4.860 -1.5904 -0.0235 -0.3622
   18MOL0     C 2300   6.054   3.616   4.738 -0.2646  0.3591  0.4104
   18MOL0     C 2301   6.177   3.626   4.666  0.0757 -0.0599  0.1305
   18MOL0     C 2302   6.298   3.586   4.725 -0.2958  0.3389  0.5845
   18MOL0     O 2303   6.408   3.578   4.651 -0.3825  0.2491 -0.5709
   18MOL0     C 2304   6.473   3.706   4.642 -0.0217 -0.5891 -0.0580
   18MOL0     C 2305   6.574   3.713   4.524  0.2874  0.5040  0.7398
   18MOL0     C 2306   6.675   3.603   4.537 -0.3945 -0.2451 -0.5219
   18MOL0     C 2307   6.779   3.637   4.646  0.4530 -0.5808  0.5765
   18MOL0     C 2308   6.872   3.518   4.675 -0.7476  0.0261 -0.5011
   18MOL0     C 2309   6.809   3.394   4.739  0.5216  0.3706 -0.9138
   18MOL0     C 2310   6.913   3.292   4.791  0.5659  0.3556 -0.0338
   18MOL0     C 2311   6.847   3.187   4.879 -0.8724  0.2152  0.2935
   18MOL0     N 2312   6.953   3.121   4.959 -0.0112  0.3476  0.7740
   18MOL0     C 2313   7.053   3.190   5.027  0.0224  0.8298 -0.7295
   18MOL0     C 2314   7.150   3.091   5.049 -0.5203 -0.2768 -0.4098
   18MOL0     C 2315   7.282   3.094   5.116  0.4747 -1.1519 -0.3958
   18MOL0     C 2316   7.401   3.103   5.019  0.3875  0.3472 -0.4953
   18MOL0     C 2317   7.538   3.122   5.093 -0.6596 -0.1372  0.1374
   18MOL0     C 2318   7.574   2.990   5.165 -0.7154 -0.2988 -1.0057
   18MOL0     O 2319   7.716   2.963   5.171 -0.2675  0.7753  0.4747
   18MOL0     C 2320   7.805   3.036   5.247  0.0874 -0.0155 -0.3281
   18MOL0     C 2321   7.942   2.997   5.252 -0.8210 -0.0233  0.5380
   18MOL0     C 2322   8.036   3.085   5.304 -0.4444 -0.6627  0.7469
   18MOL0     C 2323   7.996   3.204   5.367 -0.2940 -1.3482  0.0018
   18MOL0     C 2324   8.086   3.290   5.443  0.0729  0.3007  0.0754
   18MOL0     O 2325   8.220   3.278   5.419  0.1636 -0.1953  0.1579
   18MOL0     C 2326   8.326   3.364   5.445  0.8546 -0.3739  0.0310
   18MOL0     C 2327   8.453   3.304   5.430  0.4105 -0.5529  0.3908
   18MOL0     C 2328   8.562   3.390   5.433  0.0278 -0.6093  0.2769
   18MOL0     C 2329   8.554   3.530   5.473 -0.2123 -0.2487  0.1068
   18MOL0     O 2330   8.662   3.620   5.490 -0.0311  0.0963 -0.0694
   18MOL0     C 2331   8.788   3.553   5.487 -0.1332  0.3965  1.0610
   18MOL0     C 2332   8.892   3.639   5.549 -0.0098 -0.0643  0.4639
   18MOL0     C 2333   8.942   3.729   5.439 -0.0388  0.5957  0.1542
   18MOL0     C 2334   9.021   3.848   5.478  0.7874  0.3955  1.0183
   18MOL0     C 2335   9.029   3.953   5.362  1.2343 -0.0683 -0.4749
   18MOL0     C 2336   8.901   4.030   5.326 -0.0053  0.4289 -0.0963
   18MOL0     C 2337   8.909   4.165   5.402  0.0464 -1.1527 -0.0031
   18MOL0     C 2338   8.790   4.251   5.350 -0.3464  0.2189  0.1436
   18MOL0    Cl 2339   8.799   4.264   5.168  0.0429 -0.1142 -0.1955
   18MOL0     C 2340   8.425   3.576   5.495  0.4501  0.9643  0.2920
   18MOL0     C 2341   8.309   3.499   5.473  1.1632  0.3245 -0.4894
   18MOL0     O 2342   8.034   3.382   5.505 -0.6093  0.3335 -0.2327
   18MOL0     C 2343   7.851   3.230   5.375 -1.0434 -0.5617 -0.1599
   18MOL0     C 2344   7.764   3.147   5.320 -0.2259  0.3708 -0.4693
   18MOL0     N 2345   7.120   2.976   4.981  0.3661 -0.1140  0.2332
   18MOL0     N 2346   7.001   2.997   4.931 -0.6490 -0.3670 -0.2332
   18MOL0     C 2347   6.297   3.544   4.861  0.4105  0.1051 -0.4073
   18MOL0     C 2348   6.168   3.533   4.919  0.1013 -0.2344 -1.0023
   18MOL0     C 2349   5.751   3.567   5.066 -0.1750 -0.0405 -0.6976
   18MOL0     C 2350   5.712   3.644   5.184  0.6533 -0.1332 -0.3344
   18MOL0     C 2351   5.578   3.641   5.236 -1.3680  0.1786  0.0740
   18MOL0     C 2352   5.488   3.550   5.177  0.4831  0.7668 -0.4190
   18MOL0     O 2353   5.352   3.531   5.212 -0.3898 -0.5363 -0.2505
   18MOL0     C 2354   5.291   3.605   5.312  0.3624 -0.3663  0.2957
   18MOL0     C 2355   5.220   3.731   5.252  0.8517 -0.2747  0.3917
   18MOL0     C 2356   5.105   3.706   5.151  0.0935 -0.0044  0.1739
   18MOL0     C 2357   5.160   3.655   5.008  0.1180  0.1088 -0.8415
   18MOL0     C 2358   5.056   3.655   4.912  0.4045  0.0908  0.8516
   18MOL0     C 2359   4.969   3.665   4.832  0.7412  0.5247 -0.4324
   18MOL0     C 2360   5.527   3.475   5.060  0.8695  0.3350  0.5433
   18MOL0     C 2361   5.652   3.490   4.999  0.2731 -0.3442  0.8641
   18MOL0     C 2362   5.680   3.416   4.874 -0.4677 -0.0791 -0.4452
   18MOL0     H 2363   5.956   3.632   4.693 -0.0825  0.0231 -0.1118
   18MOL0     H 2364   6.175   3.656   4.561  0.1555 -1.6829 -0.3646
   18MOL0     H 2365   6.397   3.784   4.626 -0.2915 -1.0287 -1.0201
   18MOL0     H 2366   6.507   3.726   4.744  0.9895 -1.3103 -0.2483
   18MOL0     H 2367   6.625   3.810   4.527 -0.5656  1.0266 -0.7656
   18MOL0     H 2368   6.523   3.697   4.429 -3.5786 -0.0689  2.6855
   18MOL0     H 2369   6.738   3.587   4.449  1.7283  1.8692  0.5341
   18MOL0     H 2370   6.641   3.504   4.571  3.6931 -1.9842 -0.9038
   18MOL0     H 2371   6.845   3.720   4.621 -0.5547  0.1070  0.1397
   18MOL0     H 2372   6.739   3.658   4.746  1.2829  0.0790  0.7783
   18MOL0     H 2373   6.924   3.502   4.580 -0.7824  0.4005 -0.5849
   18MOL0     H 2374   6.935   3.555   4.756 -1.1012  0.3869 -0.3934
   18MOL0     H 2375   6.740   3.418   4.819  1.5884 -2.0681  0.8698
   18MOL0     H 2376   6.751   3.344   4.661  1.4191  1.0395 -2.0588
   18MOL0     H 2377   6.974   3.353   4.858  1.4461  0.3358 -0.8097
   18MOL0     H 2378   6.972   3.248   4.710 -2.5150 -6.3418  0.6968
   18MOL0     H 2379   6.785   3.237   4.954 -2.8992 -2.2629  0.4048
   18MOL0     H 2380   6.789   3.108   4.830 -0.4627 -2.3861  3.6079
   18MOL0     H 2381   7.076   3.295   5.043  1.6009  0.7472 -2.0584
   18MOL0     H 2382   7.276   3.178   5.185 -1.2589  0.5587 -2.4767
   18MOL0     H 2383   7.289   2.996   5.164 -2.7344 -2.5417 -2.4643
   18MOL0     H 2384   7.405   3.027   4.940  0.5628 -0.5722  0.3728
   18MOL0     H 2385   7.380   3.193   4.961 -2.7496 -1.2420 -2.0621
   18MOL0     H 2386   7.526   3.204   5.164 -1.8531 -0.7407  0.6539
   18MOL0     H 2387   7.621   3.147   5.026 -0.0127  0.1314  1.0165
   18MOL0     H 2388   7.525   2.903   5.119 -1.9186 -0.0729 -0.2040
   18MOL0     H 2389   7.525   2.990   5.263 -0.6471 -0.4691 -0.9697
   18MOL0     H 2390   7.960   2.911   5.188 -3.7838 -0.7300  0.5012
   18MOL0     H 2391   8.138   3.055   5.284  0.1178  1.2429  0.5892
   18MOL0     H 2392   8.444   3.199   5.400 -0.0310 -0.3062 -0.3827
   18MOL0     H 2393   8.649   3.330   5.412  0.2810  0.4837 -2.1090
   18MOL0     H 2394   8.787   3.464   5.550  1.2668 -1.8408 -1.8464
   18MOL0     H 2395   8.809   3.518   5.386 -0.0035 -2.0376  1.8817
   18MOL0     H 2396   8.854   3.691   5.638  1.7097  1.3351  0.4543
   18MOL0     H 2397   8.976   3.577   5.582 -1.0440 -1.3287  0.7843
   18MOL0     H 2398   8.998   3.668   5.368 -2.4792  1.3858 -2.6583
   18MOL0     H 2399   8.854   3.763   5.383  1.2962  1.0077 -1.7936
   18MOL0     H 2400   9.125   3.819   5.496  0.2918 -0.3503  3.0392
   18MOL0     H 2401   8.991   3.892   5.573 -2.8866  1.6208 -0.5607
   18MOL0     H 2402   9.045   3.878   5.284  1.5667 -1.5626  0.9734
   18MOL0     H 2403   9.123   4.008   5.371  1.3245 -0.0516 -1.4734
   18MOL0     H 2404   8.905   4.042   5.218  1.4589 -5.8976 -1.1276
   18MOL0     H 2405   8.813   3.967   5.348  1.4248 -2.1862 -1.4040
   18MOL0     H 2406   9.010   4.206   5.396  0.4841 -2.0450  0.8756
   18MOL0     H 2407   8.885   4.146   5.507 -0.9007 -1.3106 -0.2337
   18MOL0     H 2408   8.695   4.201   5.370 -0.9150  0.7319 -1.1883
   18MOL0     H 2409   8.778   4.350   5.395 -1.1073  1.0565 -1.8086
   18MOL0     H 2410   8.408   3.682   5.512 -2.6513  0.1959  3.0966
   18MOL0     H 2411   8.209   3.540   5.480  0.3046 -1.7025  0.0257
   18MOL0     H 2412   7.802   3.307   5.434  0.7004  0.9770 -0.6410
   18MOL0     H 2413   7.662   3.180   5.336  0.4117  1.0246  2.9564
   18MOL0     H 2414   6.379   3.505   4.919  0.5357  1.1241  0.1213
   18MOL0     H 2415   6.165   3.488   5.018 -0.7752 -0.0882 -0.9539
   18MOL0     H 2416   5.784   3.711   5.230  0.4168  1.2817 -1.9431
   18MOL0     H 2417   5.560   3.707   5.320  1.5080  2.4608 -0.9124
   18MOL0     H 2418   5.367   3.642   5.382 -1.0843 -0.2896  1.9083
   18MOL0     H 2419   5.217   3.547   5.368  0.4873  0.7514  1.6677
   18MOL0     H 2420   5.277   3.808   5.199 -1.4331  0.6961 -0.7491
   18MOL0     H 2421   5.175   3.786   5.335 -0.2467  0.2563 -0.5358
   18MOL0     H 2422   5.046   3.798   5.153 -2.0795 -1.3341  0.2695
   18MOL0     H 2423   5.036   3.628   5.183  1.7424 -2.6387 -2.2310
   18MOL0     H 2424   5.245   3.717   4.977  2.0920 -2.0727 -0.0972
   18MOL0     H 2425   5.192   3.551   5.022  0.8418  0.4817  0.5368
   18MOL0     H 2426   4.887   3.667   4.762  1.4623 -1.6011 -1.4237
   18MOL0     H 2427   5.445   3.421   5.014  0.0008  1.6138  0.5267
   18MOL0     H 2428   5.691   3.479   4.785  2.1296 -0.8489 -0.7760
   18MOL0     H 2429   5.775   3.361   4.883  0.7399  1.4800 -2.6637
   18MOL0     H 2430   5.608   3.337   4.851 -2.3680  0.9977  1.4327
   19MOL0     O 2431   7.950   5.649   9.095 -0.7184  0.1084  0.6192
   19MOL0     C 2432   7.840   5.707   9.089  0.1821 -0.0802 -0.0095
   19MOL0     O 2433   7.781   5.770   9.193 -0.0961  0.1192 -0.5902
   19MOL0     C 2434   7.803   5.716   9.319 -0.5390 -0.3431  0.2288
   19MOL0     C 2435   7.750   5.794   9.429  0.2905  0.0280 -0.0279
   19MOL0     C 2436   7.757   5.747   9.556 -0.2055 -0.4224  0.9351
   19MOL0     C 2437   7.831   5.635   9.589  0.0424 -1.1437  0.1125
   19MOL0     O 2438   7.828   5.591   9.717  0.5062  0.3048 -0.7678
   19MOL0     C 2439   7.951   5.594   9.786 -0.6697 -0.7218 -0.1257
   19MOL0     C 2440   7.933   5.583   9.939  0.4129  0.4364  0.2688
   19MOL0     C 2441   7.863   5.703   9.997 -0.2919 -0.4656 -0.1887
   19MOL0     C 2442   7.957   5.806  10.059  0.3753 -0.0325  0.1836
   19MOL0     C 2443   8.035   5.888   9.953 -0.5267 -0.3443  0.4893
   19MOL0     C 2444   8.073   6.023  10.008  0.3384  0.3901  0.5770
   19MOL0     C 2445   8.181   6.078   9.916 -0.0245  0.0900 -0.7330
   19MOL0     C 2446   8.115   6.164   9.801 -0.0565 -1.3783 -0.0286
   19MOL0     N 2447   8.211   6.202   9.696  0.1175 -0.6253  0.2185
   19MOL0     C 2448   8.347   6.218   9.705 -0.4015  0.8194 -0.8132
   19MOL0     C 2449   8.397   6.204   9.580 -0.6926  0.6408  0.1968
   19MOL0     C 2450   8.541   6.182   9.532 -0.2420 -0.8673  0.0840
   19MOL0     C 2451   8.568   6.246   9.403 -0.7515  0.1892 -0.2107
   19MOL0     C 2452   8.520   6.177   9.278 -0.4176 -0.0398 -0.0496
   19MOL0     C 2453   8.593   6.243   9.153  1.2164  0.0347  0.1786
   19MOL0     O 2454   8.565   6.131   9.057  0.4382 -0.9933 -0.2969
   19MOL0     C 2455   8.586   6.155   8.925  0.3188  0.8042 -0.1085
   19MOL0     C 2456   8.625   6.279   8.872 -0.5869 -0.2799 -1.1843
   19MOL0     C 2457   8.653   6.278   8.742  0.6595 -1.3385  1.1875
   19MOL0     C 2458   8.632   6.173   8.646  0.5339 -0.9374  0.2128
   19MOL0     C 2459   8.683   6.196   8.515 -0.0532  0.2948  0.1373
   19MOL0     O 2460   8.702   6.328   8.470  0.0833  0.2297  0.0806
   19MOL0     C 2461   8.744   6.336   8.341 -0.4186  0.5851 -0.7740
   19MOL0     C 2462   8.661   6.362   8.232 -0.6052  0.0876  0.0763
   19MOL0     C 2463   8.707   6.362   8.107 -0.2264  0.3985 -0.0956
   19MOL0     C 2464   8.842   6.338   8.076 -0.5436  0.8985 -0.6628
   19MOL0     O 2465   8.907   6.344   7.957  0.0934 -0.0102  0.4484
   19MOL0     C 2466   8.849   6.410   7.849 -0.3387 -0.5878 -0.3872
   19MOL0     C 2467   8.967   6.479   7.777 -0.6739 -0.2614  0.3540
   19MOL0     C 2468   8.929   6.557   7.652 -0.9925 -0.0239 -0.0446
   19MOL0     C 2469   9.058   6.612   7.595 -0.1703  0.1164 -1.3598
   19MOL0     C 2470   9.044   6.697   7.465 -0.0218 -0.0847  0.6400
   19MOL0     C 2471   9.035   6.613   7.335 -0.0316  0.3773 -1.0955
   19MOL0     C 2472   9.167   6.553   7.285 -0.5695  0.5410  0.1640
   19MOL0     C 2473   9.148   6.519   7.137  0.1372  1.1654 -0.1300
   19MOL0    Cl 2474   8.994   6.425   7.095 -0.1485 -0.1802 -0.7249
   19MOL0     C 2475   8.931   6.297   8.184 -0.2518  0.2302  0.4220
   19MOL0     C 2476   8.875   6.296   8.309 -0.6069  0.2808 -0.1386
   19MOL0     O 2477   8.669   6.099   8.441 -0.0855 -0.0574 -0.5450
   19MOL0     C 2478   8.576   6.053   8.697 -0.8169 -0.0579  0.2335
   19MOL0     C 2479   8.548   6.051   8.838 -0.0381  0.2255  0.0874
   19MOL0     N 2480   8.287   6.196   9.503 -0.0237  0.1431  0.5938
   19MOL0     N 2481   8.174   6.190   9.572 -0.2282  0.3964  0.6982
   19MOL0     C 2482   7.890   5.566   9.485 -0.0478  0.0832  0.4620
   19MOL0     C 2483   7.874   5.602   9.348 -0.3956 -0.1777 -0.0770
   19MOL0     C 2484   7.782   5.742   8.956  0.1990 -0.0327 -1.3299
   19MOL0     C 2485   7.852   5.694   8.845  0.0313  0.0113 -0.4322
   19MOL0     C 2486   7.822   5.738   8.725 -0.5272  0.5486  0.2616
   19MOL0     C 2487   7.726   5.830   8.699 -0.5699 -0.5033 -1.5076
   19MOL0     O 2488   7.721   5.873   8.575 -0.0183  0.3267 -0.4643
   19MOL0     C 2489   7.604   5.943   8.531 -0.9530  0.3384  0.4455
   19MOL0     C 2490   7.638   5.997   8.383  0.8151 -0.6744  0.5546
   19MOL0     C 2491   7.503   6.010   8.315 -0.1412 -0.3204  0.1864
   19MOL0     C 2492   7.480   6.138   8.234  0.5585  0.0006  0.8699
   19MOL0     C 2493   7.356   6.142   8.157 -0.4258  0.3238  0.8309
   19MOL0     C 2494   7.245   6.140   8.103  0.5032 -0.2406  0.2096
   19MOL0     C 2495   7.650   5.880   8.800 -0.1119 -1.2165  0.2734
   19MOL0     C 2496   7.673   5.836   8.933  0.5070 -0.3971 -0.1679
   19MOL0     C 2497   7.571   5.873   9.036  0.7205 -0.7818  0.0217
   19MOL0     H 2498   7.706   5.892   9.416 -2.1473 -1.2597 -2.7490
   19MOL0     H 2499   7.692   5.800   9.625 -2.4070 -0.3787 -1.0539
   19MOL0     H 2500   8.011   5.508   9.756  1.1510  0.6455 -0.5937
   19MOL0     H 2501   8.017   5.677   9.760  1.2999 -2.4099 -0.7390
   19MOL0     H 2502   8.028   5.576   9.992  1.2490 -2.9921 -1.3891
   19MOL0     H 2503   7.878   5.489   9.951  2.1082 -0.5378  0.7801
   19MOL0     H 2504   7.795   5.671  10.076 -0.0179  0.9973  0.6725
   19MOL0     H 2505   7.800   5.741   9.915  0.9778 -4.9636 -3.6830
   19MOL0     H 2506   7.893   5.884  10.103  0.4783 -0.6582  1.4888
   19MOL0     H 2507   8.028   5.761  10.129  1.9071 -0.0042 -1.2998
   19MOL0     H 2508   8.129   5.843   9.918  0.1728  1.3568  0.1087
   19MOL0     H 2509   7.978   5.892   9.860  0.7185  1.7111 -0.2354
   19MOL0     H 2510   7.990   6.095   9.999 -0.7578 -1.0005 -1.1331
   19MOL0     H 2511   8.112   6.013  10.109  1.5201  0.0606  0.0971
   19MOL0     H 2512   8.240   5.996   9.874 -1.2053 -0.6009 -1.1122
   19MOL0     H 2513   8.235   6.152   9.975 -1.1543 -0.8160  1.5526
   19MOL0     H 2514   8.023   6.126   9.757 -1.8726  0.6281  1.7851
   19MOL0     H 2515   8.079   6.257   9.846  1.5141 -0.9544  0.4447
   19MOL0     H 2516   8.398   6.232   9.800  2.1927 -2.6068 -1.4810
   19MOL0     H 2517   8.613   6.230   9.599  0.1711  1.9010 -2.1749
   19MOL0     H 2518   8.557   6.073   9.534 -0.9075 -0.9688  0.2676
   19MOL0     H 2519   8.530   6.349   9.409 -1.7840 -0.1574 -0.5201
   19MOL0     H 2520   8.677   6.246   9.398 -0.5094 -0.0379  3.0917
   19MOL0     H 2521   8.412   6.194   9.269 -0.0495  1.2543 -3.4140
   19MOL0     H 2522   8.543   6.070   9.287 -0.7189 -0.2074 -1.1174
   19MOL0     H 2523   8.700   6.258   9.171  1.3514 -0.0297 -0.5468
   19MOL0     H 2524   8.557   6.343   9.126  3.8770  1.7696  2.3771
   19MOL0     H 2525   8.642   6.362   8.939 -0.2611 -1.0108 -0.3417
   19MOL0     H 2526   8.690   6.375   8.710  2.2334 -2.6659 -1.2508
   19MOL0     H 2527   8.554   6.379   8.225 -0.3930  0.8699 -3.1838
   19MOL0     H 2528   8.636   6.387   8.028  1.5776  3.6582 -0.8706
   19MOL0     H 2529   8.795   6.348   7.777 -1.6752  2.3126 -2.0827
   19MOL0     H 2530   8.777   6.488   7.877 -0.3471 -0.8976  0.4684
   19MOL0     H 2531   9.010   6.541   7.856  4.1845 -1.4063 -1.0682
   19MOL0     H 2532   9.045   6.404   7.763 -1.7264 -1.3519  0.1977
   19MOL0     H 2533   8.898   6.479   7.583 -3.4339  0.4445  0.4522
   19MOL0     H 2534   8.857   6.636   7.673 -1.0754  0.0776 -0.6908
   19MOL0     H 2535   9.127   6.529   7.580 -0.5204 -0.2650 -0.9050
   19MOL0     H 2536   9.096   6.667   7.682  0.4526  1.0109 -2.1846
   19MOL0     H 2537   9.131   6.762   7.456 -0.5909  0.4047 -4.3336
   19MOL0     H 2538   8.950   6.753   7.474 -0.6629 -0.5312 -2.1628
   19MOL0     H 2539   8.962   6.533   7.355  1.6756 -0.3129  3.3988
   19MOL0     H 2540   9.007   6.691   7.263 -0.3977  1.2575 -0.0210
   19MOL0     H 2541   9.168   6.461   7.343 -1.7625  0.4953  0.1248
   19MOL0     H 2542   9.244   6.631   7.295 -2.6434  3.1397 -2.2732
   19MOL0     H 2543   9.145   6.610   7.078 -0.5422  0.1578 -1.7178
   19MOL0     H 2544   9.232   6.462   7.096  3.0773  3.7216  1.8861
   19MOL0     H 2545   9.038   6.288   8.168 -0.5138  0.5715 -1.9177
   19MOL0     H 2546   8.939   6.259   8.389 -1.5843 -1.4682 -0.1000
   19MOL0     H 2547   8.553   5.973   8.628 -1.0743  0.9044 -0.8405
   19MOL0     H 2548   8.489   5.969   8.880 -1.0992  0.1900 -1.3789
   19MOL0     H 2549   7.948   5.481   9.522 -0.3550 -0.2738  0.1379
   19MOL0     H 2550   7.922   5.530   9.283  0.6189  0.4361 -0.0400
   19MOL0     H 2551   7.941   5.632   8.850 -0.3277 -0.4124  2.3440
   19MOL0     H 2552   7.868   5.705   8.632  2.1082  3.5536  0.3466
   19MOL0     H 2553   7.581   6.028   8.596 -0.9249  1.4716 -0.9801
   19MOL0     H 2554   7.510   5.888   8.527 -2.5664  2.8609  1.3908
   19MOL0     H 2555   7.707   5.936   8.325  3.4839  1.3900  1.3279
   19MOL0     H 2556   7.680   6.097   8.394 -3.0116  0.9751  1.8231
   19MOL0     H 2557   7.419   5.983   8.379  1.0779 -1.7884  1.2356
   19MOL0     H 2558   7.502   5.925   8.246 -1.6196 -0.0407 -0.1513
   19MOL0     H 2559   7.479   6.218   8.308  0.1167  1.0934 -0.2730
   19MOL0     H 2560   7.571   6.151   8.175 -0.2444  0.2293 -0.3597
   19MOL0     H 2561   7.149   6.133   8.058 -0.2773  0.8294  1.6137
   19MOL0     H 2562   7.570   5.950   8.777 -0.7547 -1.4419  1.6923
   19MOL0     H 2563   7.481   5.907   8.985  1.2782 -1.7704 -1.7025
   19MOL0     H 2564   7.541   5.789   9.100 -2.4602  1.2171  1.3651
   19MOL0     H 2565   7.611   5.957   9.093  0.4233 -1.2155  0.8898
   20MOL0     O 2566   3.986   3.020   6.754 -0.1211 -0.4864 -0.1618
   20MOL0     C 2567   4.011   2.930   6.676  0.1853 -0.0648  0.2872
   20MOL0     O 2568   4.103   2.931   6.583 -0.1380  0.3466  0.2511
   20MOL0     C 2569   4.196   3.029   6.567 -0.1411  0.0100 -1.0172
   20MOL0     C 2570   4.250   3.110   6.667 -0.2188 -0.7584 -0.9368
   20MOL0     C 2571   4.359   3.187   6.643 -0.6871 -0.4547 -0.1106
   20MOL0     C 2572   4.406   3.199   6.519 -0.4359 -0.4062 -0.3196
   20MOL0     O 2573   4.504   3.291   6.505 -0.0806 -0.1051 -0.1580
   20MOL0     C 2574   4.566   3.324   6.380  0.4403  0.4651  0.5800
   20MOL0     C 2575   4.479   3.428   6.296 -0.0074 -0.0802 -0.4646
   20MOL0     C 2576   4.530   3.427   6.151  0.6653 -0.0273  0.3195
   20MOL0     C 2577   4.684   3.473   6.148  0.3492 -0.6895  0.1906
   20MOL0     C 2578   4.711   3.619   6.192  1.0618  0.3723  0.2429
   20MOL0     C 2579   4.860   3.654   6.159  0.1073 -0.6962 -0.6241
   20MOL0     C 2580   4.914   3.757   6.262 -0.1220 -0.3040  0.7803
   20MOL0     C 2581   5.069   3.799   6.243 -0.0868  0.8639 -0.3776
   20MOL0     N 2582   5.152   3.677   6.279 -0.3394  0.0197 -0.2028
   20MOL0     C 2583   5.148   3.616   6.402  0.3786  0.0416 -0.0907
   20MOL0     C 2584   5.250   3.528   6.407  0.5978 -0.8895 -0.1413
   20MOL0     C 2585   5.302   3.454   6.519 -0.4285  0.5942 -1.0531
   20MOL0     C 2586   5.189   3.400   6.611 -0.3781 -0.3526 -0.2368
   20MOL0     C 2587   5.124   3.266   6.576 -0.6010 -0.6337  0.8274
   20MOL0     C 2588   4.972   3.304   6.536 -0.0449 -0.1454 -0.3372
   20MOL0     O 2589   4.885   3.316   6.642  0.2953 -0.8459 -0.1457
   20MOL0     C 2590   4.835   3.197   6.690  0.3020 -0.2108 -0.1140
   20MOL0     C 2591   4.891   3.066   6.683  0.0815 -0.0372  0.1024
   20MOL0     C 2592   4.831   2.953   6.749  0.3514 -0.5786  0.8464
   20MOL0     C 2593   4.715   2.958   6.819  0.1148 -0.0700  0.2805
   20MOL0     C 2594   4.638   2.842   6.871  0.1434 -0.5086  0.3300
   20MOL0     O 2595   4.504   2.870   6.905  1.2521  0.1454  0.2687
   20MOL0     C 2596   4.413   2.772   6.942 -0.5992  0.2435 -0.4691
   20MOL0     C 2597   4.290   2.761   6.871  0.4929  0.6865 -0.2174
   20MOL0     C 2598   4.197   2.668   6.906 -0.1299 -0.7886  0.4540
   20MOL0     C 2599   4.219   2.591   7.026 -0.3331 -0.6878  0.0268
   20MOL0     O 2600   4.138   2.486   7.058  0.4319  0.6772 -0.4512
   20MOL0     C 2601   3.991   2.505   7.068 -1.1561  0.9607 -0.3568
   20MOL0     C 2602   3.942   2.390   7.158  0.4432  0.1782 -0.3278
   20MOL0     C 2603   3.799   2.377   7.191  0.5480 -0.0602 -0.1998
   20MOL0     C 2604   3.746   2.480   7.289 -0.4570 -0.7163  0.1000
   20MOL0     C 2605   3.591   2.480   7.315  0.4292 -0.6234 -0.1239
   20MOL0     C 2606   3.525   2.568   7.208  0.3449 -0.7786  1.3835
   20MOL0     C 2607   3.375   2.557   7.191 -0.2642 -0.0367  0.7859
   20MOL0     C 2608   3.328   2.415   7.136  0.8022  0.5201  0.0041
   20MOL0    Cl 2609   3.148   2.394   7.163  0.1011 -0.2031 -0.0023
   20MOL0     C 2610   4.344   2.600   7.088  0.1369 -0.1134  0.0534
   20MOL0     C 2611   4.439   2.700   7.063  0.7099  0.9923 -0.2625
   20MOL0     O 2612   4.695   2.732   6.874  0.3021  0.3591 -0.2308
   20MOL0     C 2613   4.664   3.086   6.843  1.1136  0.0836  0.3809
   20MOL0     C 2614   4.718   3.195   6.770 -0.2026 -0.0278 -0.4535
   20MOL0     N 2615   5.302   3.517   6.275  0.4847 -0.0587  0.5864
   20MOL0     N 2616   5.245   3.608   6.201 -0.3567  0.0564  1.0222
   20MOL0     C 2617   4.341   3.127   6.413 -0.5677 -0.5672 -0.0106
   20MOL0     C 2618   4.246   3.035   6.436  0.5113 -0.1985 -0.8297
   20MOL0     C 2619   3.918   2.808   6.693 -0.5589 -0.1720 -0.3991
   20MOL0     C 2620   3.946   2.703   6.602 -0.2597 -0.5603  0.2151
   20MOL0     C 2621   3.865   2.591   6.582  0.1607  0.0373 -1.0504
   20MOL0     C 2622   3.753   2.575   6.673 -0.5505  0.3181  0.0361
   20MOL0     O 2623   3.684   2.459   6.656 -0.1642  0.3516  0.6341
   20MOL0     C 2624   3.596   2.416   6.767 -0.0533  0.6474  0.0742
   20MOL0     C 2625   3.444   2.435   6.737 -0.0814 -0.5844 -0.6995
   20MOL0     C 2626   3.400   2.387   6.599 -0.5384 -0.0644 -0.0955
   20MOL0     C 2627   3.245   2.385   6.571 -0.2028  0.4196  0.6645
   20MOL0     C 2628   3.185   2.284   6.657  0.4419 -0.1468 -0.0022
   20MOL0     C 2629   3.128   2.190   6.710 -0.4960 -0.0020 -0.1747
   20MOL0     C 2630   3.739   2.668   6.776 -0.1308 -0.9023 -0.0799
   20MOL0     C 2631   3.805   2.789   6.781 -0.0709  0.1145  0.8095
   20MOL0     C 2632   3.769   2.895   6.884  0.4284 -1.0540 -0.3885
   20MOL0     H 2633   4.222   3.106   6.772 -0.2377 -1.0605 -0.9529
   20MOL0     H 2634   4.410   3.242   6.722  2.4745 -0.8699 -1.7157
   20MOL0     H 2635   4.651   3.382   6.415  0.6684  2.5140 -2.9316
   20MOL0     H 2636   4.607   3.240   6.323 -3.4868 -2.3445  1.3774
   20MOL0     H 2637   4.487   3.525   6.347  1.9053 -0.7179  0.5663
   20MOL0     H 2638   4.374   3.400   6.304  0.4094 -1.2228  1.4845
   20MOL0     H 2639   4.452   3.485   6.101 -1.5289 -1.9167  1.3451
   20MOL0     H 2640   4.515   3.331   6.100 -2.8181  0.5813 -0.0671
   20MOL0     H 2641   4.742   3.410   6.216 -2.6902 -0.7353  2.9844
   20MOL0     H 2642   4.706   3.453   6.042 -4.7589  3.4104 -2.0979
   20MOL0     H 2643   4.655   3.689   6.128 -1.8512 -2.9959 -1.2329
   20MOL0     H 2644   4.676   3.625   6.295  0.6529  1.2007  0.0724
   20MOL0     H 2645   4.937   3.580   6.182  2.6459  2.0920  0.6234
   20MOL0     H 2646   4.857   3.687   6.055 -2.4415 -1.9501 -1.0153
   20MOL0     H 2647   4.880   3.715   6.358 -2.4042  1.4308  0.8226
   20MOL0     H 2648   4.849   3.843   6.242  1.4680  0.7180 -0.1681
   20MOL0     H 2649   5.084   3.844   6.144 -0.5961 -0.1159 -0.9140
   20MOL0     H 2650   5.096   3.868   6.323  2.0866  0.1162 -0.4044
   20MOL0     H 2651   5.083   3.652   6.481  1.9782 -0.2942  1.4432
   20MOL0     H 2652   5.375   3.376   6.495  2.4866  2.7901  0.0460
   20MOL0     H 2653   5.358   3.521   6.585 -0.8198 -0.5255  0.4647
   20MOL0     H 2654   5.240   3.373   6.704  2.4639  1.4211 -1.1524
   20MOL0     H 2655   5.109   3.469   6.640 -1.8045 -2.3753  0.9667
   20MOL0     H 2656   5.143   3.198   6.659 -1.0975 -0.6885  0.8999
   20MOL0     H 2657   5.153   3.221   6.481 -0.1581  1.2803  0.0189
   20MOL0     H 2658   4.946   3.220   6.472  1.8998  0.4936 -2.0841
   20MOL0     H 2659   4.965   3.393   6.472 -1.5209 -0.2019 -0.2759
   20MOL0     H 2660   4.988   3.050   6.636  0.6435  2.1355  0.4335
   20MOL0     H 2661   4.875   2.858   6.724 -0.1018 -0.1022 -2.1746
   20MOL0     H 2662   4.269   2.818   6.780 -4.7516 -0.6222 -0.1597
   20MOL0     H 2663   4.109   2.667   6.843 -1.1308  0.5383  1.7922
   20MOL0     H 2664   3.967   2.604   7.108  0.2827  1.9116 -1.7229
   20MOL0     H 2665   3.948   2.498   6.968 -0.5005  3.0347 -0.8233
   20MOL0     H 2666   3.965   2.298   7.103  0.6427  0.0746 -0.0749
   20MOL0     H 2667   3.996   2.380   7.253 -2.8310 -1.1684  1.5554
   20MOL0     H 2668   3.740   2.376   7.098 -1.3544 -0.8998  0.9544
   20MOL0     H 2669   3.783   2.286   7.249  3.3666 -0.1342  0.6053
   20MOL0     H 2670   3.784   2.578   7.261  3.3519 -1.8451  0.7748
   20MOL0     H 2671   3.798   2.462   7.383 -0.0948  0.6707  0.1777
   20MOL0     H 2672   3.561   2.509   7.416 -0.0998 -1.6024  0.0118
   20MOL0     H 2673   3.553   2.377   7.304  2.9354 -1.7905  1.3675
   20MOL0     H 2674   3.549   2.672   7.233 -0.4324 -0.6384  1.5808
   20MOL0     H 2675   3.567   2.540   7.111 -1.3116 -1.3231  0.7961
   20MOL0     H 2676   3.331   2.636   7.128 -0.3457 -1.9562 -1.7301
   20MOL0     H 2677   3.337   2.564   7.293 -0.4900  0.3495  0.6791
   20MOL0     H 2678   3.340   2.403   7.028  3.5771  2.0391  0.0602
   20MOL0     H 2679   3.390   2.340   7.186 -0.2603  0.3464  1.1108
   20MOL0     H 2680   4.372   2.520   7.156 -0.3981 -1.3786 -1.1735
   20MOL0     H 2681   4.539   2.707   7.103  0.9751  1.6143 -0.9897
   20MOL0     H 2682   4.573   3.094   6.901 -0.2351 -2.1615 -1.2606
   20MOL0     H 2683   4.664   3.288   6.786  0.0687  0.1984 -0.8608
   20MOL0     H 2684   4.374   3.140   6.310  1.1290 -0.3749  0.5203
   20MOL0     H 2685   4.204   2.977   6.354 -0.0415 -1.5322  0.3493
   20MOL0     H 2686   4.019   2.723   6.525 -0.2566 -1.3199  0.0125
   20MOL0     H 2687   3.881   2.517   6.503  2.7435 -0.0168 -0.5650
   20MOL0     H 2688   3.630   2.454   6.864  1.5167 -0.8822  0.1685
   20MOL0     H 2689   3.608   2.307   6.770  2.0949  0.8372 -0.3158
   20MOL0     H 2690   3.414   2.539   6.751 -1.5944 -1.1712  0.8103
   20MOL0     H 2691   3.381   2.381   6.808  0.0471 -0.4676 -0.4940
   20MOL0     H 2692   3.456   2.295   6.578 -1.3510  0.1090 -3.8762
   20MOL0     H 2693   3.446   2.456   6.528 -3.0056 -2.3253 -4.3256
   20MOL0     H 2694   3.213   2.488   6.590  2.1930  0.8843  2.5899
   20MOL0     H 2695   3.238   2.359   6.465  1.0615  0.4775  0.5546
   20MOL0     H 2696   3.068   2.115   6.757  1.4725 -0.9566  0.9676
   20MOL0     H 2697   3.650   2.666   6.838 -0.6288  2.7003 -0.4758
   20MOL0     H 2698   3.678   2.876   6.942 -0.2165 -2.4373 -1.7990
   20MOL0     H 2699   3.850   2.894   6.958  2.3251 -2.7873 -2.3433
   20MOL0     H 2700   3.755   2.993   6.839 -2.9748 -0.9233  0.6763
   21MOL0     O 2701   3.522   0.895   3.981  0.1977 -0.0641 -0.4951
   21MOL0     C 2702   3.478   0.788   4.004 -0.0566 -0.1915 -0.7083
   21MOL0     O 2703   3.365   0.729   3.960 -0.0368 -0.3976 -0.0406
   21MOL0     C 2704   3.277   0.801   3.873 -1.0575  0.4483  0.0637
   21MOL0     C 2705   3.323   0.869   3.771  0.4311 -0.3746  0.8025
   21MOL0     C 2706   3.235   0.947   3.689 -1.0412 -0.0409 -0.3572
   21MOL0     C 2707   3.102   0.958   3.724 -0.7438  0.0681  0.5288
   21MOL0     O 2708   3.031   1.029   3.636  0.2064  0.2751  0.1233
   21MOL0     C 2709   2.887   1.020   3.636  0.5174 -0.1528 -0.9051
   21MOL0     C 2710   2.856   1.050   3.489 -0.2090 -0.7632  0.7378
   21MOL0     C 2711   2.725   0.982   3.438 -0.0650 -0.0746  0.2232
   21MOL0     C 2712   2.707   0.978   3.289  0.1944  0.3991  1.1427
   21MOL0     C 2713   2.665   1.118   3.226  0.1027 -0.4254 -0.8317
   21MOL0     C 2714   2.526   1.150   3.269  0.4545 -0.2727  0.1012
   21MOL0     C 2715   2.475   1.269   3.188  0.8269 -0.2884 -0.3996
   21MOL0     C 2716   2.423   1.233   3.052  0.3113  0.8059 -0.1567
   21MOL0     N 2717   2.415   1.354   2.968  0.3617 -0.6556  0.3237
   21MOL0     C 2718   2.412   1.361   2.833 -1.1548 -0.2381 -0.5809
   21MOL0     C 2719   2.376   1.488   2.799  0.4737  0.8454 -0.7140
   21MOL0     C 2720   2.366   1.543   2.668  0.2242 -0.3844 -0.3537
   21MOL0     C 2721   2.227   1.534   2.601 -0.3731  0.6151 -1.2194
   21MOL0     C 2722   2.194   1.384   2.569 -0.3862  0.5842  0.4981
   21MOL0     C 2723   2.041   1.365   2.547 -0.4893  0.4719  0.1848
   21MOL0     O 2724   2.007   1.218   2.537 -0.1517  0.6522 -0.6081
   21MOL0     C 2725   1.983   1.144   2.648 -0.2484  0.0621 -0.7710
   21MOL0     C 2726   1.986   1.197   2.773 -0.2549 -0.4097 -0.3457
   21MOL0     C 2727   1.971   1.120   2.885  0.6369 -1.0550 -0.3654
   21MOL0     C 2728   1.950   0.985   2.874  1.2842 -0.7349 -0.3809
   21MOL0     C 2729   1.924   0.900   2.986  0.6452 -1.1854 -0.1198
   21MOL0     O 2730   1.913   0.962   3.110  1.1592  0.1117  0.1177
   21MOL0     C 2731   1.909   0.876   3.219  0.3875  0.2137  0.5631
   21MOL0     C 2732   2.010   0.891   3.316 -0.7123 -0.4970  0.0379
   21MOL0     C 2733   2.035   0.794   3.413 -0.8304  0.1126  0.2405
   21MOL0     C 2734   1.971   0.665   3.412 -0.0050 -0.7902 -0.0820
   21MOL0     O 2735   2.001   0.556   3.500  0.1682 -0.8916  0.0939
   21MOL0     C 2736   2.063   0.591   3.620  0.6412  0.4416 -0.4548
   21MOL0     C 2737   2.045   0.494   3.734 -0.2222 -0.2818  0.1069
   21MOL0     C 2738   1.899   0.488   3.785  0.7237  0.0589  0.1600
   21MOL0     C 2739   1.806   0.395   3.703 -0.4364 -0.0840 -1.0784
   21MOL0     C 2740   1.673   0.471   3.668  0.5233 -0.6216 -0.0938
   21MOL0     C 2741   1.578   0.412   3.559  0.3733  1.0749  0.2509
   21MOL0     C 2742   1.447   0.484   3.563 -0.3518  0.5774  0.2607
   21MOL0     C 2743   1.457   0.627   3.497 -0.6381 -0.7501 -0.1763
   21MOL0    Cl 2744   1.538   0.605   3.331  0.0406  0.4872 -0.0514
   21MOL0     C 2745   1.863   0.651   3.327 -0.0661 -0.5882 -0.0931
   21MOL0     C 2746   1.829   0.755   3.238  0.0016  0.4156 -0.3048
   21MOL0     O 2747   1.932   0.778   2.965  0.1924 -0.2669 -0.2493
   21MOL0     C 2748   1.931   0.933   2.750 -0.6803  0.1479 -0.1321
   21MOL0     C 2749   1.955   1.006   2.634  0.1873  0.6993  0.3711
   21MOL0     N 2750   2.345   1.557   2.913  0.4194  0.2338  0.3202
   21MOL0     N 2751   2.374   1.478   3.009 -0.0298  0.0686 -0.2183
   21MOL0     C 2752   3.061   0.896   3.847  0.5906  0.0424  0.3798
   21MOL0     C 2753   3.148   0.823   3.917 -0.6675  0.1714  1.1017
   21MOL0     C 2754   3.566   0.707   4.091  0.3143  0.7416  1.2120
   21MOL0     C 2755   3.702   0.734   4.099 -0.4331 -0.5179  0.9083
   21MOL0     C 2756   3.790   0.651   4.174  1.0734 -0.7502 -0.2567
   21MOL0     C 2757   3.751   0.523   4.225 -0.3008 -0.8499  0.4132
   21MOL0     O 2758   3.843   0.439   4.288  0.7355  0.6715 -0.8513
   21MOL0     C 2759   3.871   0.312   4.223 -0.6287  0.1869 -0.1416
   21MOL0     C 2760   3.901   0.200   4.312  0.1484  0.7767 -0.9726
   21MOL0     C 2761   3.806   0.208   4.445 -0.1260 -0.2710  0.5069
   21MOL0     C 2762   3.858   0.305   4.556  0.0490 -0.2383  0.0890
   21MOL0     C 2763   3.958   0.234   4.643 -0.5855  0.1576  0.6044
   21MOL0     C 2764   4.034   0.192   4.725 -0.0753  0.2685  1.0862
   21MOL0     C 2765   3.618   0.489   4.209 -0.4161 -0.4537 -0.9007
   21MOL0     C 2766   3.520   0.574   4.150  0.3672  0.0808  0.7453
   21MOL0     C 2767   3.381   0.522   4.164 -0.4155 -0.5318  0.3041
   21MOL0     H 2768   3.428   0.872   3.744  0.2837 -0.9372  0.1433
   21MOL0     H 2769   3.280   1.006   3.610 -3.0127 -1.2494 -2.4923
   21MOL0     H 2770   2.846   0.923   3.665  0.4312 -0.4636 -2.0059
   21MOL0     H 2771   2.856   1.090   3.714  0.4394 -1.6012  0.4066
   21MOL0     H 2772   2.937   1.028   3.419 -1.0995  3.0331 -1.7832
   21MOL0     H 2773   2.835   1.156   3.474  0.2333 -1.1991 -4.9967
   21MOL0     H 2774   2.652   1.042   3.494  2.0063  1.3280  1.5566
   21MOL0     H 2775   2.729   0.881   3.481 -1.4336 -0.0356  0.4787
   21MOL0     H 2776   2.803   0.954   3.243 -0.8729  2.8621 -2.8579
   21MOL0     H 2777   2.641   0.899   3.253 -1.0453  0.5167  2.9913
   21MOL0     H 2778   2.733   1.194   3.265  0.8406 -0.9263 -1.1168
   21MOL0     H 2779   2.690   1.126   3.120  0.6910 -1.7405 -0.8138
   21MOL0     H 2780   2.459   1.065   3.256 -1.3839  0.8668  1.5694
   21MOL0     H 2781   2.523   1.191   3.371 -3.1007 -1.1401  0.4695
   21MOL0     H 2782   2.563   1.331   3.169  0.9966  0.7803  3.0889
   21MOL0     H 2783   2.408   1.328   3.250 -1.6848  0.2253 -3.3875
   21MOL0     H 2784   2.488   1.162   3.001 -0.3640  0.9126 -1.2080
   21MOL0     H 2785   2.326   1.186   3.069  0.0354  0.6498 -1.9753
   21MOL0     H 2786   2.428   1.279   2.764  1.9558  0.9858 -1.5040
   21MOL0     H 2787   2.385   1.651   2.668 -0.3619 -0.2728  0.0089
   21MOL0     H 2788   2.430   1.484   2.602  0.4338 -0.1012 -0.4076
   21MOL0     H 2789   2.163   1.569   2.684  0.0538 -3.0414  0.8660
   21MOL0     H 2790   2.224   1.595   2.511 -0.1118 -1.9199 -3.0315
   21MOL0     H 2791   2.225   1.323   2.654 -0.5054 -0.1797  0.0076
   21MOL0     H 2792   2.256   1.358   2.483 -1.2028  4.5524 -1.5585
   21MOL0     H 2793   2.023   1.419   2.454 -1.7352  1.2337  0.8448
   21MOL0     H 2794   1.989   1.427   2.621  0.7640  2.2413 -0.3519
   21MOL0     H 2795   2.023   1.295   2.801  1.6111 -1.8098  2.7852
   21MOL0     H 2796   1.989   1.163   2.983  0.2507  0.2703 -0.8447
   21MOL0     H 2797   2.082   0.968   3.291 -0.7099 -1.0011 -1.6226
   21MOL0     H 2798   2.133   0.795   3.460 -1.0495 -2.4523  0.9266
   21MOL0     H 2799   2.170   0.601   3.600  1.0894 -1.1117  0.9789
   21MOL0     H 2800   2.016   0.683   3.659 -1.0310 -1.0884  1.3725
   21MOL0     H 2801   2.083   0.401   3.690 -0.8820  0.3603 -1.9224
   21MOL0     H 2802   2.119   0.512   3.813  1.4404 -0.8342 -1.2418
   21MOL0     H 2803   1.890   0.457   3.890  0.8071 -1.4000 -0.2366
   21MOL0     H 2804   1.858   0.588   3.770 -3.2818 -1.2440  1.1116
   21MOL0     H 2805   1.781   0.309   3.767  0.3022  0.1994 -0.3961
   21MOL0     H 2806   1.861   0.372   3.611  1.4905 -0.5330  0.1119
   21MOL0     H 2807   1.705   0.567   3.625 -2.7969  0.3447 -0.7586
   21MOL0     H 2808   1.615   0.486   3.760 -2.4059  1.0753 -2.0381
   21MOL0     H 2809   1.634   0.411   3.465  1.8443  0.7262  1.0959
   21MOL0     H 2810   1.551   0.308   3.580  1.3212  0.4675 -1.3819
   21MOL0     H 2811   1.407   0.477   3.665  0.4325 -4.2653  0.4543
   21MOL0     H 2812   1.366   0.426   3.517 -2.8578  2.2051  2.2861
   21MOL0     H 2813   1.358   0.674   3.498 -0.7460 -0.3058  5.9796
   21MOL0     H 2814   1.518   0.700   3.551 -1.9916  1.0137 -0.9408
   21MOL0     H 2815   1.813   0.556   3.311  1.6951 -1.7610  1.0167
   21MOL0     H 2816   1.747   0.731   3.170 -1.5354  0.4029  1.4606
   21MOL0     H 2817   1.899   0.831   2.736  3.0901 -1.1927 -0.0499
   21MOL0     H 2818   1.943   0.969   2.533 -1.1624  1.5496  0.1993
   21MOL0     H 2819   2.960   0.910   3.886  0.0511  1.7203 -1.4607
   21MOL0     H 2820   3.122   0.760   4.001 -0.1819 -2.9394 -0.9034
   21MOL0     H 2821   3.753   0.815   4.048 -1.5091  0.2547  1.0477
   21MOL0     H 2822   3.894   0.683   4.181  0.6824  0.4342  0.2937
   21MOL0     H 2823   3.950   0.317   4.148 -0.1296 -0.2824  0.3451
   21MOL0     H 2824   3.778   0.291   4.169 -0.3398  2.2256 -1.5344
   21MOL0     H 2825   4.006   0.199   4.346 -0.7676 -1.0292  2.2649
   21MOL0     H 2826   3.897   0.107   4.256  1.6044 -0.6480  1.1397
   21MOL0     H 2827   3.791   0.112   4.495  4.9420 -0.8797  1.4625
   21MOL0     H 2828   3.717   0.255   4.404 -0.6937 -1.1365  0.7289
   21MOL0     H 2829   3.914   0.395   4.527 -3.0393  2.1526  1.0235
   21MOL0     H 2830   3.780   0.337   4.625  1.1666 -0.9726  1.7603
   21MOL0     H 2831   4.114   0.143   4.778  0.7698  0.5288  0.0844
   21MOL0     H 2832   3.601   0.391   4.252  1.2764 -0.8230 -0.9924
   21MOL0     H 2833   3.371   0.496   4.270  2.0227  0.9706  0.9961
   21MOL0     H 2834   3.286   0.570   4.136 -0.7467 -1.9031 -1.0290
   21MOL0     H 2835   3.391   0.431   4.104 -0.3869  0.0583 -0.6069
   22MOL0     O 2836   4.232   0.719   8.074  0.6448 -0.4624 -0.3997
   22MOL0     C 2837   4.331   0.677   8.131 -0.0642  0.1786  0.4538
   22MOL0     O 2838   4.332   0.553   8.185 -0.5798 -0.0848 -0.1620
   22MOL0     C 2839   4.211   0.489   8.206  0.2014  0.2100  0.3432
   22MOL0     C 2840   4.193   0.343   8.187  0.3014  0.7439  0.3009
   22MOL0     C 2841   4.088   0.268   8.241 -0.7455  0.0870 -0.4265
   22MOL0     C 2842   3.981   0.333   8.300  0.3885 -1.0595  0.4285
   22MOL0     O 2843   3.865   0.273   8.343  0.4268 -0.2076 -0.0554
   22MOL0     C 2844   3.868   0.131   8.356  0.9329 -0.0307 -0.5045
   22MOL0     C 2845   3.733   0.066   8.348 -0.4173  0.6918  0.0867
   22MOL0     C 2846   3.757  -0.094   8.329  0.9552  0.3154  0.2938
   22MOL0     C 2847   3.647  -0.184   8.374 -0.1829 -0.0770 -0.3022
   22MOL0     C 2848   3.702  -0.330   8.399 -0.3116 -0.7043  0.4169
   22MOL0     C 2849   3.593  -0.440   8.379  0.0735  0.7459 -0.9536
   22MOL0     C 2850   3.651  -0.586   8.407 -0.3596 -0.5603  0.5404
   22MOL0     C 2851   3.617  -0.684   8.293  0.5215 -0.9773  0.3189
   22MOL0     N 2852   3.679  -0.633   8.165 -0.0585  0.3393  0.1600
   22MOL0     C 2853   3.812  -0.634   8.149  0.0966  0.2417  0.1605
   22MOL0     C 2854   3.837  -0.590   8.027  0.8898  0.3173  0.3030
   22MOL0     C 2855   3.971  -0.590   7.960 -0.0251  0.8980 -0.2685
   22MOL0     C 2856   4.021  -0.450   7.957  0.6086  0.1654  0.1964
   22MOL0     C 2857   4.063  -0.392   8.087  0.6980 -0.1117  0.2409
   22MOL0     C 2858   4.119  -0.255   8.076  0.2900  0.6874  0.8766
   22MOL0     O 2859   4.247  -0.262   8.014 -0.4085  0.4911 -0.3035
   22MOL0     C 2860   4.319  -0.143   8.007 -1.0500  0.3579 -0.6896
   22MOL0     C 2861   4.277  -0.037   7.930  0.1969 -0.5599  0.1060
   22MOL0     C 2862   4.358   0.089   7.930  0.2703  0.4084 -0.4937
   22MOL0     C 2863   4.469   0.102   8.021  0.3951 -0.4599 -0.1132
   22MOL0     C 2864   4.547   0.228   8.016  0.2356  0.1514  0.0118
   22MOL0     O 2865   4.680   0.210   8.044  0.0978  0.0493 -0.1679
   22MOL0     C 2866   4.767   0.322   8.046 -0.0026  0.1963 -0.7862
   22MOL0     C 2867   4.859   0.352   7.948  0.1421  0.0019 -0.6306
   22MOL0     C 2868   4.952   0.459   7.965 -0.5343  0.4414  0.2801
   22MOL0     C 2869   4.965   0.537   8.087  1.0084  0.6314 -0.5453
   22MOL0     O 2870   5.071   0.624   8.107  0.7114 -0.7652 -0.3918
   22MOL0     C 2871   5.112   0.659   8.244 -0.4684 -0.3886 -0.0979
   22MOL0     C 2872   5.246   0.731   8.228  1.0535 -1.4435  0.4071
   22MOL0     C 2873   5.281   0.799   8.358 -0.2088 -0.3276  0.6367
   22MOL0     C 2874   5.413   0.861   8.374  0.4562 -0.6108 -0.0861
   22MOL0     C 2875   5.425   0.923   8.513 -0.4477 -0.4210  0.3495
   22MOL0     C 2876   5.561   0.984   8.527 -0.1220 -0.4709  0.8553
   22MOL0     C 2877   5.566   1.041   8.663  0.1404  0.0546 -0.2361
   22MOL0     C 2878   5.710   1.087   8.682  0.1524 -0.5653 -0.5745
   22MOL0    Cl 2879   5.708   1.145   8.851  0.2052  0.0169  0.1520
   22MOL0     C 2880   4.871   0.501   8.192 -0.0151  0.2251 -0.8522
   22MOL0     C 2881   4.775   0.398   8.169  0.1284  0.3144 -0.5090
   22MOL0     O 2882   4.494   0.333   7.987 -0.6937 -0.1552  0.4592
   22MOL0     C 2883   4.507  -0.010   8.100  0.2757  0.0607  0.0549
   22MOL0     C 2884   4.429  -0.127   8.103 -0.0953 -0.0166  0.3616
   22MOL0     N 2885   3.719  -0.571   7.963 -0.0165  0.3456 -0.0141
   22MOL0     N 2886   3.625  -0.595   8.049 -0.4693  0.2486 -0.0259
   22MOL0     C 2887   3.987   0.476   8.302  1.0386 -0.3852 -0.0665
   22MOL0     C 2888   4.097   0.555   8.257 -0.4313  1.1965  0.1957
   22MOL0     C 2889   4.458   0.766   8.133  0.0588  0.6270  0.2680
   22MOL0     C 2890   4.577   0.702   8.096  0.5731 -0.1672 -0.2036
   22MOL0     C 2891   4.692   0.772   8.090  0.7294  0.1982  0.1806
   22MOL0     C 2892   4.701   0.910   8.117  0.3053 -0.3351  0.8768
   22MOL0     O 2893   4.819   0.989   8.116 -0.2743 -0.0287 -0.1310
   22MOL0     C 2894   4.951   0.934   8.077 -0.4338 -0.2375  0.5360
   22MOL0     C 2895   5.061   1.039   8.107 -0.2003 -1.0072 -1.2198
   22MOL0     C 2896   5.029   1.180   8.039 -0.7531 -0.7889 -0.3286
   22MOL0     C 2897   5.079   1.188   7.889 -0.2957  1.1992 -0.1323
   22MOL0     C 2898   5.063   1.330   7.843  0.2448  1.5635 -0.0867
   22MOL0     C 2899   5.042   1.446   7.805  0.1839 -0.2316  0.7629
   22MOL0     C 2900   4.583   0.971   8.148 -1.3050  0.3157 -0.1500
   22MOL0     C 2901   4.461   0.910   8.145  0.7364  0.3071 -0.7104
   22MOL0     C 2902   4.330   0.983   8.184  0.2092 -0.1013 -1.2686
   22MOL0     H 2903   4.260   0.288   8.121 -1.5877 -1.1856 -0.1154
   22MOL0     H 2904   4.103   0.161   8.233  4.0312  0.4527  0.7001
   22MOL0     H 2905   3.919   0.082   8.272 -0.2879 -2.6584  0.1710
   22MOL0     H 2906   3.914   0.095   8.448 -0.2728  0.2904  0.2455
   22MOL0     H 2907   3.685   0.109   8.260  2.2985 -1.5650 -2.7614
   22MOL0     H 2908   3.670   0.080   8.437 -1.2246  0.5455 -0.4561
   22MOL0     H 2909   3.847  -0.117   8.387 -0.0614 -1.3718  1.2681
   22MOL0     H 2910   3.793  -0.128   8.231  3.0503  1.3260  0.6464
   22MOL0     H 2911   3.594  -0.141   8.460 -1.1629 -1.0828 -0.3810
   22MOL0     H 2912   3.572  -0.186   8.294 -1.6942  2.5577  0.9018
   22MOL0     H 2913   3.782  -0.354   8.329 -0.5198  1.6608 -0.7083
   22MOL0     H 2914   3.765  -0.330   8.489  1.0588  0.7260 -0.4882
   22MOL0     H 2915   3.512  -0.411   8.446  0.8786  0.8829 -0.0249
   22MOL0     H 2916   3.550  -0.426   8.279 -2.4842  2.4760  0.2691
   22MOL0     H 2917   3.618  -0.625   8.504  1.9706 -0.9997  1.2168
   22MOL0     H 2918   3.760  -0.596   8.411 -0.5070 -3.8333 -0.7306
   22MOL0     H 2919   3.674  -0.772   8.322  2.8407  0.5946  0.7912
   22MOL0     H 2920   3.508  -0.697   8.293  0.6242 -1.8444 -0.1524
   22MOL0     H 2921   3.883  -0.676   8.219  1.6972  0.1719 -1.4406
   22MOL0     H 2922   4.040  -0.657   8.012 -1.5364 -0.2324  0.3391
   22MOL0     H 2923   3.962  -0.631   7.859  0.8196  0.6417 -0.2508
   22MOL0     H 2924   4.118  -0.457   7.907 -0.1122 -2.4752 -0.9971
   22MOL0     H 2925   3.956  -0.388   7.894 -0.6388 -0.8564  0.4324
   22MOL0     H 2926   4.136  -0.461   8.131 -1.3854 -0.3682  3.6252
   22MOL0     H 2927   3.982  -0.385   8.160 -0.8630  1.0158 -1.4950
   22MOL0     H 2928   4.122  -0.211   8.176 -1.5935 -3.4701  2.9743
   22MOL0     H 2929   4.059  -0.201   8.003  3.5877 -0.8048 -3.3877
   22MOL0     H 2930   4.184  -0.045   7.875 -2.8136 -0.3352  4.6628
   22MOL0     H 2931   4.333   0.175   7.869  0.3085 -1.0025 -2.5962
   22MOL0     H 2932   4.873   0.300   7.853 -1.2219 -0.6895 -0.4656
   22MOL0     H 2933   5.030   0.473   7.891 -1.5435  0.0123 -0.9120
   22MOL0     H 2934   5.035   0.718   8.295  0.5276  0.5310  0.3702
   22MOL0     H 2935   5.126   0.565   8.300 -2.8850  0.5268  2.2931
   22MOL0     H 2936   5.315   0.649   8.209  2.4026  0.2758 -3.1461
   22MOL0     H 2937   5.246   0.796   8.139 -2.7446  0.4878  1.6056
   22MOL0     H 2938   5.204   0.875   8.378  2.1122  1.6393  2.9412
   22MOL0     H 2939   5.281   0.718   8.431  1.0462  0.2476  1.3150
   22MOL0     H 2940   5.424   0.947   8.307 -2.2468 -0.6044 -0.6306
   22MOL0     H 2941   5.489   0.786   8.351  0.1087 -0.4168 -2.1263
   22MOL0     H 2942   5.422   0.841   8.584 -0.5557  1.6523  2.8691
   22MOL0     H 2943   5.343   0.996   8.518 -0.4270 -0.0251 -2.8310
   22MOL0     H 2944   5.642   0.914   8.506 -0.8128 -0.3635 -2.8955
   22MOL0     H 2945   5.580   1.062   8.452 -0.4281  0.4981  1.7610
   22MOL0     H 2946   5.546   0.963   8.736  0.2984  1.0853  0.9336
   22MOL0     H 2947   5.501   1.126   8.686  0.0676 -0.6571  2.4729
   22MOL0     H 2948   5.777   1.001   8.680  0.3229 -0.7178  3.5259
   22MOL0     H 2949   5.749   1.167   8.619  1.0118  2.2141  3.1254
   22MOL0     H 2950   4.885   0.550   8.288 -3.1872  0.1926 -0.2738
   22MOL0     H 2951   4.704   0.367   8.245  2.0123 -0.4070  1.0432
   22MOL0     H 2952   4.583   0.003   8.176  0.7838 -0.5233 -0.3463
   22MOL0     H 2953   4.451  -0.200   8.181  2.6274  0.4270  0.1207
   22MOL0     H 2954   3.910   0.549   8.325  3.7219  3.1758 -1.2975
   22MOL0     H 2955   4.100   0.662   8.274  0.7328  1.0144  1.2890
   22MOL0     H 2956   4.576   0.594   8.084 -2.3150 -0.3229  0.7220
   22MOL0     H 2957   4.776   0.719   8.047 -0.0170 -0.3760 -0.5930
   22MOL0     H 2958   4.949   0.918   7.969  1.2560  1.4534  0.1900
   22MOL0     H 2959   4.972   0.840   8.130  0.4029  0.3846  1.3363
   22MOL0     H 2960   5.162   1.005   8.083  1.1220  2.3320 -0.8462
   22MOL0     H 2961   5.059   1.052   8.215  1.1605  0.3481 -1.3397
   22MOL0     H 2962   5.091   1.255   8.089  1.0585 -1.8594 -0.8734
   22MOL0     H 2963   4.923   1.203   8.052 -0.9488 -2.7356  2.3137
   22MOL0     H 2964   5.179   1.146   7.879 -1.0896 -1.3030  1.3085
   22MOL0     H 2965   5.015   1.125   7.826 -0.0462  2.4410 -1.6917
   22MOL0     H 2966   5.001   1.540   7.774  2.0835  0.4533  0.2282
   22MOL0     H 2967   4.602   1.078   8.143  2.0116 -0.2328 -1.8513
   22MOL0     H 2968   4.365   1.066   8.247  0.2047  0.7195 -2.3265
   22MOL0     H 2969   4.279   1.018   8.094 -0.6568 -0.8159 -1.0677
   22MOL0     H 2970   4.261   0.925   8.245  0.2735 -0.8144 -1.8624
   23MOL0     O 2971   6.733  10.032   8.424  0.2881 -0.5106 -0.2266
   23MOL0     C 2972   6.729  10.153   8.444 -0.8039 -0.4775 -0.0843
   23MOL0     O 2973   6.643  10.221   8.529  0.1905  0.1363  0.0428
   23MOL0     C 2974   6.572  10.146   8.614  0.0535 -0.4740 -0.8377
   23MOL0     C 2975   6.626  10.053   8.699 -0.0129  0.3758  0.1153
   23MOL0     C 2976   6.547   9.961   8.762 -0.0382  0.0221  0.0502
   23MOL0     C 2977   6.411   9.968   8.764  1.1606  0.6275 -0.4452
   23MOL0     O 2978   6.339   9.885   8.846  0.2357 -0.6456  0.7263
   23MOL0     C 2979   6.348   9.739   8.826 -0.4428 -1.3842 -0.1322
   23MOL0     C 2980   6.205   9.685   8.802 -0.3205  0.0891 -0.3699
   23MOL0     C 2981   6.129   9.736   8.673  0.4284  0.3622 -0.6032
   23MOL0     C 2982   5.985   9.669   8.664 -0.1268 -0.2545  0.1064
   23MOL0     C 2983   5.900   9.732   8.554  0.5801 -0.0026 -0.5449
   23MOL0     C 2984   5.765   9.661   8.568 -0.3551 -0.4331 -0.2544
   23MOL0     C 2985   5.677   9.692   8.444  0.8325 -0.6895  0.2043
   23MOL0     C 2986   5.540   9.632   8.439  0.0535  0.7755  0.2775
   23MOL0     N 2987   5.433   9.714   8.498 -0.3484  0.5682  0.3399
   23MOL0     C 2988   5.437   9.796   8.610 -0.3371  0.7899 -0.3896
   23MOL0     C 2989   5.319   9.858   8.616 -0.6719  0.4543 -1.0511
   23MOL0     C 2990   5.292   9.971   8.700  0.2593 -0.6109 -0.6417
   23MOL0     C 2991   5.191   9.941   8.813 -0.7630 -0.5972  0.1266
   23MOL0     C 2992   5.244   9.845   8.922 -0.2173 -0.4295  0.2686
   23MOL0     C 2993   5.332   9.920   9.022 -0.4702 -0.5067 -0.1301
   23MOL0     O 2994   5.416   9.828   9.104  1.1356 -0.2064 -0.2454
   23MOL0     C 2995   5.468   9.868   9.222 -0.8808  0.2818  0.4845
   23MOL0     C 2996   5.464  10.001   9.270 -0.1849 -0.5898 -0.2348
   23MOL0     C 2997   5.536  10.042   9.380 -0.0637  0.1087 -0.0517
   23MOL0     C 2998   5.630   9.955   9.439 -0.3371 -0.2486  0.3933
   23MOL0     C 2999   5.717  10.001   9.551 -0.5634  0.3357 -0.4240
   23MOL0     O 3000   5.819   9.915   9.592 -0.2516 -0.2264  0.1368
   23MOL0     C 3001   5.919   9.956   9.674  0.4256 -0.5787 -0.8663
   23MOL0     C 3002   5.995  10.067   9.644  0.0940  0.1377 -0.0757
   23MOL0     C 3003   6.105  10.106   9.724  1.0152 -0.3093 -0.3006
   23MOL0     C 3004   6.151  10.024   9.833 -0.0704 -0.1715  0.6080
   23MOL0     O 3005   6.257  10.064   9.905 -0.4919 -0.7474  0.5016
   23MOL0     C 3006   6.319  10.197   9.892  0.2380  0.9479  0.8701
   23MOL0     C 3007   6.467  10.168   9.920 -0.3858  0.2044  0.9468
   23MOL0     C 3008   6.511  10.106  10.048  0.0839  0.0758 -0.9065
   23MOL0     C 3009   6.450  10.174  10.168 -0.9691  0.0750 -0.5392
   23MOL0     C 3010   6.525  10.111  10.295  0.7922 -0.3334 -0.1802
   23MOL0     C 3011   6.496   9.965  10.331 -0.0276 -0.5304  0.5300
   23MOL0     C 3012   6.585   9.918  10.446 -0.1965 -0.9567  0.1559
   23MOL0     C 3013   6.734   9.901  10.405  0.7673 -0.0830  0.5955
   23MOL0    Cl 3014   6.823   9.806  10.537 -0.0662  0.3114 -0.4468
   23MOL0     C 3015   6.071   9.913   9.865  0.0624 -0.6817  0.9194
   23MOL0     C 3016   5.953   9.877   9.788  0.0354  0.4854 -0.0181
   23MOL0     O 3017   5.700  10.111   9.600  0.0743  0.5212  0.2018
   23MOL0     C 3018   5.628   9.820   9.393  0.6536 -0.1555 -0.2174
   23MOL0     C 3019   5.545   9.773   9.291  0.2410  0.0881 -0.1117
   23MOL0     N 3020   5.239   9.807   8.512  0.1748 -0.5946  0.0767
   23MOL0     N 3021   5.304   9.719   8.446 -0.1294  0.7815 -0.6640
   23MOL0     C 3022   6.355  10.070   8.685  0.8889 -0.9017  0.0451
   23MOL0     C 3023   6.430  10.154   8.614 -0.5955  0.1232 -0.4939
   23MOL0     C 3024   6.843  10.237   8.379  0.0867 -0.3747 -0.1910
   23MOL0     C 3025   6.941  10.169   8.308 -0.4184 -1.3808 -0.2566
   23MOL0     C 3026   7.034  10.231   8.221  0.0298  0.9705  0.3512
   23MOL0     C 3027   7.029  10.370   8.214 -1.4214  0.0956 -0.4812
   23MOL0     O 3028   7.105  10.446   8.135  0.1041 -0.4207  0.0791
   23MOL0     C 3029   7.195  10.394   8.033  0.0314 -0.7427 -0.0170
   23MOL0     C 3030   7.331  10.372   8.101  1.2290  1.7871 -1.1278
   23MOL0     C 3031   7.416  10.493   8.113  0.1357  0.3310 -0.0169
   23MOL0     C 3032   7.560  10.454   8.152 -0.0182 -0.2896 -0.4424
   23MOL0     C 3033   7.638  10.440   8.028 -0.0282  0.0735  0.1998
   23MOL0     C 3034   7.733  10.451   7.947 -0.4211  0.2176  0.7748
   23MOL0     C 3035   6.942  10.443   8.293 -0.0342 -0.2341 -0.1966
   23MOL0     C 3036   6.850  10.382   8.378 -1.1301  0.5146  0.1215
   23MOL0     C 3037   6.744  10.463   8.453 -0.3444  0.2267 -0.4474
   23MOL0     H 3038   6.730  10.025   8.716  0.1804 -0.9633 -2.7180
   23MOL0     H 3039   6.592   9.889   8.830  0.7199  0.2395 -0.2116
   23MOL0     H 3040   6.426   9.707   8.756 -1.4777 -3.4243 -0.4284
   23MOL0     H 3041   6.382   9.703   8.924 -0.1114 -0.3614  0.1355
   23MOL0     H 3042   6.146   9.696   8.894  1.3875 -0.2817  0.8361
   23MOL0     H 3043   6.216   9.576   8.802  2.2757  0.2949 -0.2865
   23MOL0     H 3044   6.186   9.712   8.582 -0.2079 -4.3933 -0.0385
   23MOL0     H 3045   6.107   9.843   8.672 -0.6838  0.1525  0.2356
   23MOL0     H 3046   5.990   9.564   8.633 -1.7553 -1.2339  2.8300
   23MOL0     H 3047   5.937   9.660   8.761 -2.7129 -1.1459 -1.1561
   23MOL0     H 3048   5.889   9.841   8.563 -0.9046  0.0941 -2.7277
   23MOL0     H 3049   5.960   9.722   8.463  2.1571  3.6614 -0.0946
   23MOL0     H 3050   5.783   9.553   8.576  0.2141 -0.6120 -3.1594
   23MOL0     H 3051   5.725   9.684   8.667 -1.9654 -2.1676 -0.4393
   23MOL0     H 3052   5.728   9.660   8.353 -0.0806  0.5962 -0.7988
   23MOL0     H 3053   5.675   9.800   8.426  2.5477 -0.3162  1.9015
   23MOL0     H 3054   5.496   9.606   8.343 -0.7092 -2.6169  1.4060
   23MOL0     H 3055   5.546   9.536   8.491 -0.1306  0.2494 -0.6595
   23MOL0     H 3056   5.523   9.816   8.674 -0.1916 -1.1867  0.0931
   23MOL0     H 3057   5.385  10.014   8.737 -1.1174 -0.3857  3.1035
   23MOL0     H 3058   5.243  10.049   8.641  0.6941  1.3914  1.4866
   23MOL0     H 3059   5.163  10.038   8.856  0.2973 -1.0504  1.9705
   23MOL0     H 3060   5.107   9.888   8.768  1.4583 -4.2500 -0.1511
   23MOL0     H 3061   5.296   9.764   8.870  0.4443 -1.1465  1.9849
   23MOL0     H 3062   5.156   9.808   8.974  1.1095 -3.4640  0.5780
   23MOL0     H 3063   5.260   9.978   9.081 -1.7711  0.2089 -2.2964
   23MOL0     H 3064   5.401   9.991   8.974  0.0189 -1.1964 -0.4606
   23MOL0     H 3065   5.400  10.070   9.216  0.2820 -1.1108 -1.4988
   23MOL0     H 3066   5.517  10.140   9.424 -2.0906  0.7373 -2.1128
   23MOL0     H 3067   5.964  10.137   9.566 -0.3906  0.9813  0.8518
   23MOL0     H 3068   6.161  10.191   9.686 -0.6087  1.1487  0.4094
   23MOL0     H 3069   6.313  10.231   9.788 -2.7134 -0.8161  0.3238
   23MOL0     H 3070   6.268  10.267   9.959 -2.0506 -0.4394  0.6916
   23MOL0     H 3071   6.506  10.100   9.844  1.6367 -0.0019  2.0801
   23MOL0     H 3072   6.531  10.256   9.904  0.1839 -0.2414  0.7446
   23MOL0     H 3073   6.477  10.003  10.041  0.4112 -0.6662  4.6122
   23MOL0     H 3074   6.618  10.089  10.059 -0.3749 -1.5363  1.8050
   23MOL0     H 3075   6.341  10.161  10.170 -1.3513  2.5601 -1.1267
   23MOL0     H 3076   6.474  10.281  10.161 -0.1152 -0.1856 -1.9478
   23MOL0     H 3077   6.496  10.175  10.379 -4.4851  0.4680 -2.2277
   23MOL0     H 3078   6.633  10.125  10.286  0.7713 -0.3583 -0.5081
   23MOL0     H 3079   6.400   9.950  10.380 -0.5796 -0.1298 -0.3851
   23MOL0     H 3080   6.500   9.902  10.242 -1.3976  0.4451 -0.2814
   23MOL0     H 3081   6.539   9.824  10.478  0.8410 -0.7077  2.5750
   23MOL0     H 3082   6.573   9.982  10.533 -2.7547  0.8224 -1.3752
   23MOL0     H 3083   6.727   9.849  10.309 -1.8386 -0.8375  1.1223
   23MOL0     H 3084   6.775   9.999  10.380 -0.3238 -0.2229 -2.0651
   23MOL0     H 3085   6.086   9.862   9.960 -0.5520  3.9779  3.8329
   23MOL0     H 3086   5.902   9.781   9.799 -0.0062  0.1911 -2.3381
   23MOL0     H 3087   5.697   9.752   9.442  0.6102 -0.0475 -0.0068
   23MOL0     H 3088   5.546   9.666   9.273  1.9266 -0.2496  1.6889
   23MOL0     H 3089   6.252  10.104   8.680  1.7069  1.5333 -3.1373
   23MOL0     H 3090   6.378  10.230   8.557  1.4735  0.4310 -2.0985
   23MOL0     H 3091   6.926  10.062   8.304 -2.2370 -1.1746  0.1597
   23MOL0     H 3092   7.116  10.177   8.174 -0.3712 -0.8707  1.6637
   23MOL0     H 3093   7.212  10.460   7.947 -1.8143 -1.2510 -0.8235
   23MOL0     H 3094   7.150  10.301   7.997  0.0195 -0.8162  0.1885
   23MOL0     H 3095   7.398  10.310   8.041  3.2335  3.4483 -0.7226
   23MOL0     H 3096   7.316  10.320   8.196 -2.1275  0.5143 -2.2046
   23MOL0     H 3097   7.362  10.559   8.182 -0.1266  0.7309 -0.5977
   23MOL0     H 3098   7.416  10.536   8.013  1.1366 -2.2866 -1.2324
   23MOL0     H 3099   7.608  10.534   8.210 -2.6073 -0.0508  1.5598
   23MOL0     H 3100   7.567  10.364   8.213  3.7229 -0.2904 -0.6325
   23MOL0     H 3101   7.814  10.454   7.876 -2.8874  0.7335 -2.2300
   23MOL0     H 3102   6.935  10.551   8.289  0.1067 -0.1896  0.6052
   23MOL0     H 3103   6.646  10.428   8.418  0.2755 -2.1092 -0.0090
   23MOL0     H 3104   6.743  10.427   8.556  0.1477  0.6098 -0.3037
   23MOL0     H 3105   6.760  10.571   8.466 -1.3555  0.1340  2.2430
   24MOL0     O 3106   7.121   9.676   9.037 -0.2206 -0.2655 -0.8304
   24MOL0     C 3107   7.233   9.730   9.030  0.1929  0.0562  0.1078
   24MOL0     O 3108   7.334   9.677   8.969 -0.5081  0.1297 -0.2760
   24MOL0     C 3109   7.315   9.594   8.866  0.4752  0.1515 -0.9911
   24MOL0     C 3110   7.242   9.468   8.888 -0.3432 -0.0650 -0.5091
   24MOL0     C 3111   7.220   9.381   8.788  0.7571  0.2546 -0.0191
   24MOL0     C 3112   7.271   9.403   8.659  0.6264 -1.2973 -0.3928
   24MOL0     O 3113   7.241   9.318   8.555  0.4658  0.2553 -0.5814
   24MOL0     C 3114   7.364   9.255   8.502  0.1893  0.2136  1.1459
   24MOL0     C 3115   7.331   9.135   8.415 -0.3625  0.1960 -0.8517
   24MOL0     C 3116   7.468   9.079   8.370 -0.3101 -0.1145  0.6812
   24MOL0     C 3117   7.499   9.110   8.225 -0.1675 -0.4278 -0.6180
   24MOL0     C 3118   7.624   9.031   8.182 -0.8127 -0.0392 -0.2769
   24MOL0     C 3119   7.748   9.073   8.268 -0.8569 -0.4282 -0.4268
   24MOL0     C 3120   7.786   8.962   8.371  0.4794 -0.4052  0.1862
   24MOL0     C 3121   7.905   8.994   8.465  0.5783  1.2696 -0.5797
   24MOL0     N 3122   7.945   8.869   8.534 -0.3674 -0.0229  0.1600
   24MOL0     C 3123   8.056   8.801   8.506  0.2031  0.2837 -0.5486
   24MOL0     C 3124   8.053   8.694   8.598 -0.3072 -1.4538 -0.4936
   24MOL0     C 3125   8.176   8.609   8.618 -0.2867  0.1634  0.5138
   24MOL0     C 3126   8.254   8.679   8.730 -0.0055 -0.4768 -0.1416
   24MOL0     C 3127   8.399   8.627   8.738 -0.0025  0.4319 -0.5885
   24MOL0     C 3128   8.490   8.677   8.861 -0.1046 -0.2038  0.5734
   24MOL0     O 3129   8.430   8.653   8.987 -0.1128  0.1446 -0.2825
   24MOL0     C 3130   8.447   8.533   9.049  0.0546  0.8951 -0.0447
   24MOL0     C 3131   8.566   8.453   9.041  0.9861 -0.1829  0.3798
   24MOL0     C 3132   8.575   8.335   9.111  0.5064 -0.1110  0.0084
   24MOL0     C 3133   8.472   8.293   9.208 -0.4863 -0.2553  1.2160
   24MOL0     C 3134   8.499   8.165   9.282  1.2719 -0.0968 -0.0884
   24MOL0     O 3135   8.621   8.102   9.283 -0.1538  0.0172 -0.0200
   24MOL0     C 3136   8.648   7.983   9.353 -1.1673  0.6391  0.2051
   24MOL0     C 3137   8.558   7.892   9.397  1.1610 -0.4123  0.1930
   24MOL0     C 3138   8.602   7.774   9.466  0.6572 -0.4391 -0.3189
   24MOL0     C 3139   8.734   7.739   9.483 -0.1994 -0.1954 -0.0907
   24MOL0     O 3140   8.763   7.629   9.544  0.9764  0.7921  0.2636
   24MOL0     C 3141   8.759   7.610   9.686  0.5663 -0.7295  0.3362
   24MOL0     C 3142   8.883   7.679   9.752  0.5233  0.2620  0.4252
   24MOL0     C 3143   9.013   7.630   9.680 -0.5024  0.8332  0.4003
   24MOL0     C 3144   9.140   7.715   9.686  0.3458 -0.1114  0.0758
   24MOL0     C 3145   9.207   7.696   9.831  0.1506 -0.0433 -0.3306
   24MOL0     C 3146   9.315   7.585   9.840  0.8975 -0.2000  0.0302
   24MOL0     C 3147   9.452   7.606   9.787 -0.6112  0.5006  0.6004
   24MOL0     C 3148   9.528   7.481   9.819  0.5306  0.4366  0.3548
   24MOL0    Cl 3149   9.690   7.499   9.754 -0.3450  0.2993  0.0614
   24MOL0     C 3150   8.835   7.827   9.438 -0.5017  0.0567  0.6868
   24MOL0     C 3151   8.792   7.946   9.366  0.7395  0.5170 -0.7458
   24MOL0     O 3152   8.403   8.139   9.357 -0.4425  0.0609 -0.3990
   24MOL0     C 3153   8.359   8.378   9.206 -0.9201  1.0721 -1.2399
   24MOL0     C 3154   8.347   8.495   9.127  0.7081 -0.1389 -0.7070
   24MOL0     N 3155   7.943   8.713   8.675 -0.3169 -0.5683 -0.0339
   24MOL0     N 3156   7.873   8.807   8.631  0.4665 -0.6697 -0.0302
   24MOL0     C 3157   7.340   9.532   8.633  0.2535  0.2194 -0.8485
   24MOL0     C 3158   7.369   9.615   8.740 -0.7756  0.2228  0.5311
   24MOL0     C 3159   7.253   9.855   9.098 -0.0468 -0.3328 -0.3294
   24MOL0     C 3160   7.167   9.963   9.079  1.3341 -0.8056 -0.7007
   24MOL0     C 3161   7.187  10.085   9.140  0.4630  1.1288 -0.0628
   24MOL0     C 3162   7.299  10.101   9.225 -0.7960 -0.2106  0.1700
   24MOL0     O 3163   7.323  10.224   9.288  0.6905 -0.1358 -0.2434
   24MOL0     C 3164   7.359  10.326   9.185 -0.5362 -0.4257 -0.4060
   24MOL0     C 3165   7.500  10.325   9.144 -1.0104  0.0905 -0.1574
   24MOL0     C 3166   7.576  10.387   9.263 -0.3455  0.5218 -0.9611
   24MOL0     C 3167   7.726  10.366   9.240  0.3634 -1.1011 -0.2535
   24MOL0     C 3168   7.767  10.447   9.122  0.9420 -0.2610 -0.6839
   24MOL0     C 3169   7.815  10.507   9.022  0.5122  0.0428 -0.3095
   24MOL0     C 3170   7.395   9.996   9.242 -0.0682  0.2579  0.2669
   24MOL0     C 3171   7.372   9.868   9.176 -0.6480 -0.0158  0.8087
   24MOL0     C 3172   7.461   9.752   9.212 -0.7602 -0.4402  0.3800
   24MOL0     H 3173   7.202   9.448   8.987 -0.7486  0.0248 -0.6503
   24MOL0     H 3174   7.156   9.296   8.809 -0.0014  0.6580 -0.6353
   24MOL0     H 3175   7.413   9.323   8.431 -3.1453  1.4016 -0.2375
   24MOL0     H 3176   7.436   9.234   8.581 -0.4695  0.6089  1.8683
   24MOL0     H 3177   7.253   9.160   8.343 -1.8404 -1.1508  0.1948
   24MOL0     H 3178   7.291   9.048   8.468  2.5174 -1.7529 -1.6212
   24MOL0     H 3179   7.477   8.976   8.407 -1.0134  0.9450  4.2127
   24MOL0     H 3180   7.541   9.142   8.422 -0.3908  1.3079 -0.8499
   24MOL0     H 3181   7.420   9.073   8.159  1.6780 -2.2228 -1.9432
   24MOL0     H 3182   7.509   9.219   8.213  0.3079 -0.4496 -0.4599
   24MOL0     H 3183   7.618   8.922   8.190 -0.8119 -0.2903 -2.7720
   24MOL0     H 3184   7.643   9.043   8.074  0.5668 -1.5745 -0.2421
   24MOL0     H 3185   7.833   9.063   8.200  0.8487 -0.5178  1.5930
   24MOL0     H 3186   7.736   9.170   8.317 -3.4510 -1.2477  0.7334
   24MOL0     H 3187   7.799   8.865   8.323 -3.7757 -1.9220  1.6223
   24MOL0     H 3188   7.695   8.937   8.425  0.6206 -5.1471 -1.3228
   24MOL0     H 3189   7.991   9.031   8.407  1.1625  0.4846 -0.2351
   24MOL0     H 3190   7.868   9.067   8.537 -1.2831  0.0459 -0.2409
   24MOL0     H 3191   8.126   8.817   8.425  0.3831  2.1991 -0.0638
   24MOL0     H 3192   8.152   8.507   8.647 -1.5916  0.1629 -0.4598
   24MOL0     H 3193   8.230   8.610   8.523 -0.7520  1.9048  0.2360
   24MOL0     H 3194   8.260   8.785   8.705  3.5644  0.3278  3.1145
   24MOL0     H 3195   8.195   8.677   8.823 -0.0052 -1.3981 -0.1531
   24MOL0     H 3196   8.449   8.659   8.646  0.4410  0.5371 -0.3147
   24MOL0     H 3197   8.400   8.518   8.733 -0.1403  0.4348 -0.6713
   24MOL0     H 3198   8.504   8.784   8.844 -2.8643  0.6886  3.0584
   24MOL0     H 3199   8.591   8.636   8.857  1.1435  2.6665 -0.0743
   24MOL0     H 3200   8.662   8.488   9.005  0.7766 -1.8426 -2.0834
   24MOL0     H 3201   8.664   8.273   9.111  0.3518 -0.3538 -0.8279
   24MOL0     H 3202   8.451   7.900   9.383  0.9902  0.4201  1.7243
   24MOL0     H 3203   8.529   7.698   9.493  1.1858 -1.2798 -1.1942
   24MOL0     H 3204   8.674   7.662   9.730 -0.7246 -2.1276 -0.4242
   24MOL0     H 3205   8.750   7.503   9.703 -2.2507 -1.0935 -2.5323
   24MOL0     H 3206   8.872   7.788   9.755  1.5220  0.4405 -1.3392
   24MOL0     H 3207   8.889   7.649   9.857 -2.3465  0.4429  0.7339
   24MOL0     H 3208   9.036   7.526   9.705 -3.0927 -0.0330 -0.4743
   24MOL0     H 3209   8.995   7.630   9.572 -0.3746 -0.4971  0.3561
   24MOL0     H 3210   9.107   7.816   9.659 -1.9706 -0.9117 -0.3032
   24MOL0     H 3211   9.210   7.681   9.609 -0.8869 -1.8786 -0.3414
   24MOL0     H 3212   9.128   7.680   9.905  1.8571 -4.0262  0.8884
   24MOL0     H 3213   9.263   7.788   9.849 -1.1973  1.4986 -3.2667
   24MOL0     H 3214   9.320   7.549   9.944  2.9623 -0.1035  0.0050
   24MOL0     H 3215   9.262   7.502   9.793  1.1703 -0.1953 -0.2895
   24MOL0     H 3216   9.497   7.700   9.820  2.5964 -1.1798  1.4884
   24MOL0     H 3217   9.445   7.616   9.678 -2.0445 -0.6423  0.5558
   24MOL0     H 3218   9.536   7.488   9.928 -1.1250  4.4680  0.3894
   24MOL0     H 3219   9.472   7.394   9.783 -1.1343  0.8420  1.8151
   24MOL0     H 3220   8.940   7.803   9.450 -0.2500  1.5015  1.6057
   24MOL0     H 3221   8.868   8.016   9.330 -1.0597  1.6057 -2.6760
   24MOL0     H 3222   8.267   8.355   9.260  0.8540  2.1027  2.6311
   24MOL0     H 3223   8.251   8.546   9.127  0.2650 -0.8757  0.9831
   24MOL0     H 3224   7.385   9.543   8.534  1.7227  0.4688 -0.1806
   24MOL0     H 3225   7.458   9.676   8.725 -0.0092 -1.1134 -0.4903
   24MOL0     H 3226   7.088   9.955   9.005  1.8120  1.3564 -1.5151
   24MOL0     H 3227   7.112  10.163   9.144 -2.0829 -1.2222  2.2136
   24MOL0     H 3228   7.341  10.426   9.225  2.0888 -0.7649  2.0112
   24MOL0     H 3229   7.292  10.317   9.099 -0.3738  1.6421 -0.7847
   24MOL0     H 3230   7.516  10.400   9.066 -4.0828  0.1792 -0.8490
   24MOL0     H 3231   7.538  10.226   9.120  2.2025  0.7376  1.7549
   24MOL0     H 3232   7.564  10.330   9.356  1.4168  2.4721  0.5534
   24MOL0     H 3233   7.544  10.486   9.298 -0.5693 -0.9806  3.8231
   24MOL0     H 3234   7.767  10.416   9.328 -1.6083 -0.1989  0.2185
   24MOL0     H 3235   7.766  10.264   9.238  1.7117 -0.5896 -1.8435
   24MOL0     H 3236   7.856  10.557   8.937 -2.2786 -0.4019 -2.0675
   24MOL0     H 3237   7.485  10.022   9.296  1.9217  0.8657 -3.0581
   24MOL0     H 3238   7.399   9.665   9.234  1.4380 -2.1631  0.0835
   24MOL0     H 3239   7.512   9.725   9.119 -1.3834  0.0457 -0.1160
   24MOL0     H 3240   7.532   9.780   9.290  0.4675 -1.5171 -0.3126
   25MOL0     O 3241  10.043   0.974   0.979 -0.5871  1.2211 -0.0201
   25MOL0     C 3242  10.092   0.938   1.085  0.5258  0.3790 -0.0406
   25MOL0     O 3243  10.224   0.943   1.122 -0.0587 -0.1484  0.1346
   25MOL0     C 3244  10.322   1.010   1.050 -0.2708  0.1470 -0.5710
   25MOL0     C 3245  10.430   0.936   1.002 -0.4940 -0.7838  0.6322
   25MOL0     C 3246  10.536   1.011   0.935  0.2249  0.7293 -0.3022
   25MOL0     C 3247  10.540   1.148   0.931  0.6674 -0.3885 -0.2934
   25MOL0     O 3248  10.640   1.217   0.864 -0.4366 -0.0679  0.6492
   25MOL0     C 3249  10.608   1.345   0.803  0.7443  0.2682 -1.3874
   25MOL0     C 3250  10.704   1.380   0.693 -0.2140  0.7663 -0.0244
   25MOL0     C 3251  10.712   1.287   0.576  0.0566  0.3538 -0.0666
   25MOL0     C 3252  10.592   1.301   0.486 -0.3159  0.1852 -0.4482
   25MOL0     C 3253  10.558   1.171   0.409  0.7866 -0.4644 -0.7250
   25MOL0     C 3254  10.427   1.204   0.335 -0.7995  0.7129 -0.0191
   25MOL0     C 3255  10.390   1.085   0.234  0.2897 -0.5426  0.5811
   25MOL0     C 3256  10.365   0.958   0.304 -0.7457  0.0313  0.2388
   25MOL0     N 3257  10.292   0.854   0.216 -0.6093 -0.9750 -1.1161
   25MOL0     C 3258  10.357   0.770   0.130  0.2395 -0.0255  0.1664
   25MOL0     C 3259  10.257   0.703   0.066  0.0625 -0.3589  0.0408
   25MOL0     C 3260  10.274   0.608  -0.049  0.3179  0.2290  0.5573
   25MOL0     C 3261  10.138   0.533  -0.031  0.9564  0.2395 -0.2737
   25MOL0     C 3262  10.133   0.403  -0.115 -0.1667 -0.5094 -0.0135
   25MOL0     C 3263   9.997   0.338  -0.079 -0.0074  0.0944 -0.6199
   25MOL0     O 3264   9.978   0.227  -0.160  0.9167  0.0592  0.3747
   25MOL0     C 3265   9.862   0.154  -0.138  0.2375  0.0845  0.1087
   25MOL0     C 3266   9.731   0.202  -0.091 -0.6786  0.5902 -0.5536
   25MOL0     C 3267   9.625   0.111  -0.074  0.1452 -0.5663  0.5772
   25MOL0     C 3268   9.648  -0.028  -0.093 -0.2215  0.4782 -0.1224
   25MOL0     C 3269   9.540  -0.129  -0.081  0.5300  0.6494 -0.0963
   25MOL0     O 3270   9.577  -0.267  -0.098 -0.4098 -0.5926 -0.8441
   25MOL0     C 3271   9.487  -0.375  -0.099  0.4828  0.0331  0.2111
   25MOL0     C 3272   9.349  -0.364  -0.130  0.3531  0.2122 -0.2275
   25MOL0     C 3273   9.263  -0.475  -0.130 -0.3214  0.5327  0.5322
   25MOL0     C 3274   9.313  -0.603  -0.085  0.0336  0.9596  0.8042
   25MOL0     O 3275   9.228  -0.703  -0.047 -0.2759  0.1914  0.2864
   25MOL0     C 3276   9.192  -0.688   0.091  1.0956 -0.5613  0.0006
   25MOL0     C 3277   9.056  -0.609   0.089 -0.0436  0.0340  0.1484
   25MOL0     C 3278   8.996  -0.623   0.226 -0.4438 -1.3431  0.3121
   25MOL0     C 3279   8.990  -0.754   0.310 -0.9807 -0.2758 -0.1498
   25MOL0     C 3280   8.939  -0.715   0.457 -0.5196 -0.2048 -0.0728
   25MOL0     C 3281   8.913  -0.832   0.554 -0.2649 -0.4510  1.2704
   25MOL0     C 3282   8.870  -0.779   0.691 -0.1335  0.2641 -0.0620
   25MOL0     C 3283   8.813  -0.880   0.792  0.4221 -0.4318 -0.3916
   25MOL0    Cl 3284   8.924  -1.023   0.782  0.1954 -0.0231 -0.4223
   25MOL0     C 3285   9.450  -0.621  -0.055 -1.0450  0.1430  0.0775
   25MOL0     C 3286   9.531  -0.500  -0.056 -0.3334 -0.7119 -0.3151
   25MOL0     O 3287   9.423  -0.086  -0.070 -0.0713  0.0316 -0.0350
   25MOL0     C 3288   9.777  -0.077  -0.126 -0.2022  0.1092  0.2247
   25MOL0     C 3289   9.879   0.021  -0.144  0.8485  0.0119 -0.7732
   25MOL0     N 3290  10.141   0.751   0.120  0.4719 -0.6465 -0.3849
   25MOL0     N 3291  10.158   0.854   0.191  0.2038  0.1354 -0.9751
   25MOL0     C 3292  10.431   1.216   0.995  0.8464 -0.4246 -0.7186
   25MOL0     C 3293  10.327   1.148   1.048  0.4593 -0.1966 -0.4195
   25MOL0     C 3294  10.014   0.868   1.193  0.7880 -0.7048  0.0664
   25MOL0     C 3295  10.058   0.881   1.328  0.7295  0.0670 -1.2707
   25MOL0     C 3296   9.980   0.825   1.425 -0.2521 -0.4654 -0.5997
   25MOL0     C 3297   9.860   0.751   1.392 -0.2170  0.4015 -0.3145
   25MOL0     O 3298   9.800   0.694   1.496 -0.3246  0.0179  0.1654
   25MOL0     C 3299   9.661   0.654   1.490 -0.3928  0.5713  0.3409
   25MOL0     C 3300   9.598   0.609   1.620  0.1425  0.2987 -0.6684
   25MOL0     C 3301   9.613   0.708   1.731 -0.0735  0.4402 -0.5049
   25MOL0     C 3302   9.621   0.636   1.872  0.6290  0.0265 -0.0198
   25MOL0     C 3303   9.502   0.552   1.897  0.2381 -0.1037 -0.3393
   25MOL0     C 3304   9.389   0.506   1.923 -0.6489  0.7388 -1.5746
   25MOL0     C 3305   9.818   0.738   1.263  0.2371 -0.1889 -0.1251
   25MOL0     C 3306   9.899   0.796   1.159 -0.2849  0.7541 -0.3882
   25MOL0     C 3307   9.847   0.787   1.014  0.4699 -0.3581 -0.6068
   25MOL0     H 3308  10.438   0.829   1.018 -0.4337 -1.1560 -1.5826
   25MOL0     H 3309  10.616   0.972   0.872 -0.0730  1.5023 -1.1874
   25MOL0     H 3310  10.506   1.343   0.765  0.7137 -1.3684 -1.2916
   25MOL0     H 3311  10.596   1.417   0.883 -1.2588  0.1215 -1.5191
   25MOL0     H 3312  10.801   1.389   0.741 -0.3398 -0.9142  0.6065
   25MOL0     H 3313  10.672   1.477   0.653  2.5611  0.9941 -1.9393
   25MOL0     H 3314  10.720   1.182   0.606 -0.3801  0.2590 -0.2751
   25MOL0     H 3315  10.803   1.303   0.518 -1.1102  1.3335 -1.7043
   25MOL0     H 3316  10.510   1.342   0.546  0.1496 -3.0608  2.7495
   25MOL0     H 3317  10.603   1.370   0.402 -1.4763 -0.2188 -0.9655
   25MOL0     H 3318  10.643   1.155   0.342  0.7579 -0.5905 -0.7316
   25MOL0     H 3319  10.551   1.082   0.473  2.5201  0.0281  0.2388
   25MOL0     H 3320  10.346   1.219   0.408 -0.7232 -3.1225  1.0622
   25MOL0     H 3321  10.441   1.300   0.285 -0.6837  2.5465  3.2042
   25MOL0     H 3322  10.467   1.065   0.159 -2.3642 -0.6322 -2.3246
   25MOL0     H 3323  10.294   1.109   0.187 -0.3053 -1.0516  1.5178
   25MOL0     H 3324  10.457   0.908   0.334 -1.1091 -1.6102 -1.2382
   25MOL0     H 3325  10.311   0.976   0.398 -0.5268 -0.7652  0.5240
   25MOL0     H 3326  10.462   0.751   0.110  0.0836  1.5257 -2.6425
   25MOL0     H 3327  10.281   0.665  -0.142 -0.7294  0.7783  0.8028
   25MOL0     H 3328  10.363   0.545  -0.037  0.9353  0.6609 -1.4100
   25MOL0     H 3329  10.131   0.495   0.071 -2.8948  1.4248  0.0469
   25MOL0     H 3330  10.049   0.590  -0.059  1.2289 -0.5142 -2.9010
   25MOL0     H 3331  10.213   0.332  -0.091 -1.8884 -2.7075 -0.4467
   25MOL0     H 3332  10.143   0.423  -0.223 -0.2362  2.3068  0.4102
   25MOL0     H 3333   9.918   0.410  -0.104 -2.3764 -1.8591  0.8635
   25MOL0     H 3334   9.988   0.320   0.029 -1.9620  0.2571 -0.7285
   25MOL0     H 3335   9.720   0.309  -0.073 -0.1986  0.6774 -0.7677
   25MOL0     H 3336   9.531   0.150  -0.035  1.0287  2.0630  0.2686
   25MOL0     H 3337   9.312  -0.269  -0.166 -1.1685 -0.4258 -0.4288
   25MOL0     H 3338   9.165  -0.455  -0.173  0.3859  1.5359 -0.6798
   25MOL0     H 3339   9.174  -0.788   0.130  0.8314 -1.2631 -1.7958
   25MOL0     H 3340   9.275  -0.643   0.147  0.9737 -0.6774  0.2733
   25MOL0     H 3341   9.065  -0.501   0.079 -2.4147  0.2432 -0.2309
   25MOL0     H 3342   8.993  -0.660   0.015 -0.4722 -0.3828  0.7906
   25MOL0     H 3343   9.039  -0.544   0.287  0.9139 -1.4541 -0.4613
   25MOL0     H 3344   8.893  -0.594   0.205  0.5201  1.2894 -1.1609
   25MOL0     H 3345   9.092  -0.787   0.327 -0.1445  0.7797 -2.5774
   25MOL0     H 3346   8.931  -0.828   0.255  2.7675 -1.6168 -2.7642
   25MOL0     H 3347   8.843  -0.663   0.448 -0.1359  0.8472  1.5492
   25MOL0     H 3348   9.008  -0.639   0.493 -0.7042  0.3756 -0.9065
   25MOL0     H 3349   8.829  -0.895   0.523  1.0450 -1.8973  0.5356
   25MOL0     H 3350   9.006  -0.889   0.563  1.7200  2.7961  3.8381
   25MOL0     H 3351   8.798  -0.698   0.675  2.2613  2.6308  0.4066
   25MOL0     H 3352   8.952  -0.722   0.735  1.2903 -2.1601  0.6258
   25MOL0     H 3353   8.809  -0.836   0.893 -0.5608 -1.6202  0.1068
   25MOL0     H 3354   8.712  -0.911   0.763 -0.1361  0.6247  0.2966
   25MOL0     H 3355   9.478  -0.723  -0.032 -4.5221 -1.0115 -0.2757
   25MOL0     H 3356   9.635  -0.519  -0.030  0.2828  2.2817 -0.2776
   25MOL0     H 3357   9.793  -0.183  -0.142 -2.0016 -0.2174  0.3970
   25MOL0     H 3358   9.977  -0.014  -0.176  0.6000 -0.7665 -0.7159
   25MOL0     H 3359  10.434   1.325   0.995 -0.0036 -0.3645  0.9452
   25MOL0     H 3360  10.244   1.190   1.104  0.4196 -1.5066  0.5491
   25MOL0     H 3361  10.144   0.936   1.364 -3.4470  6.1618  1.2555
   25MOL0     H 3362  10.006   0.831   1.530 -1.1537 -1.1123 -0.3310
   25MOL0     H 3363   9.644   0.583   1.408 -0.7363  2.1845 -1.0275
   25MOL0     H 3364   9.601   0.742   1.464 -1.6053  0.1057  1.4123
   25MOL0     H 3365   9.658   0.523   1.650  1.0153  0.7666 -1.0560
   25MOL0     H 3366   9.494   0.582   1.596 -1.2607  4.3830  0.0227
   25MOL0     H 3367   9.535   0.783   1.744  1.6506  2.4795 -1.3249
   25MOL0     H 3368   9.709   0.759   1.716 -0.0091  0.2019 -0.9146
   25MOL0     H 3369   9.711   0.577   1.856  0.6109  0.1689 -0.6685
   25MOL0     H 3370   9.639   0.710   1.951  1.1232  1.9125 -1.7984
   25MOL0     H 3371   9.290   0.467   1.937 -0.8312  1.9267  0.8350
   25MOL0     H 3372   9.726   0.685   1.242  1.0619 -1.2681 -1.0969
   25MOL0     H 3373   9.804   0.885   0.989  0.0529 -0.0223  1.2549
   25MOL0     H 3374   9.917   0.753   0.937  0.7104 -1.0762 -0.0771
   25MOL0     H 3375   9.769   0.710   1.020  0.5429 -0.3259  1.3956
   26MOL0     O 3376   0.613  10.560   9.341 -0.1264 -0.0754 -0.0064
   26MOL0     C 3377   0.590  10.663   9.404  0.3786  0.1232  0.0240
   26MOL0     O 3378   0.657  10.705   9.517 -0.0402  0.0526 -0.3011
   26MOL0     C 3379   0.784  10.667   9.550 -0.2606 -0.5042 -0.0544
   26MOL0     C 3380   0.874  10.648   9.447 -0.0308  0.1052 -0.4962
   26MOL0     C 3381   1.003  10.612   9.476 -0.2620  1.3401  0.2709
   26MOL0     C 3382   1.042  10.592   9.607  0.0164  0.6219 -1.1175
   26MOL0     O 3383   1.174  10.551   9.625  0.5153  0.2016 -1.2482
   26MOL0     C 3384   1.253  10.618   9.723 -0.6300  0.9003 -0.2726
   26MOL0     C 3385   1.377  10.539   9.754  0.0886  0.4689 -0.5790
   26MOL0     C 3386   1.428  10.596   9.887 -0.5908 -0.3768  0.4014
   26MOL0     C 3387   1.564  10.529   9.915 -0.3025 -0.7948  0.5093
   26MOL0     C 3388   1.612  10.564  10.054 -0.2280 -0.9418  0.1735
   26MOL0     C 3389   1.749  10.493  10.076  0.9362 -0.4797  0.3786
   26MOL0     C 3390   1.828  10.543  10.204  0.5257  0.4872 -0.0203
   26MOL0     C 3391   1.969  10.487  10.191 -0.4783  0.6426  0.6330
   26MOL0     N 3392   1.983  10.337  10.212 -0.6301 -0.1847 -0.2212
   26MOL0     C 3393   2.099  10.291  10.265 -0.2722 -0.3936  0.4537
   26MOL0     C 3394   2.084  10.159  10.285 -0.3805  0.2874  0.2733
   26MOL0     C 3395   2.195  10.073  10.335 -0.7847  0.0430  0.1549
   26MOL0     C 3396   2.196   9.947  10.249 -0.2236  0.7247 -0.4659
   26MOL0     C 3397   2.097   9.832  10.293  1.2321  0.8831 -0.4938
   26MOL0     C 3398   2.135   9.690  10.233 -0.5659  0.0057  0.3563
   26MOL0     O 3399   2.269   9.658  10.272  0.7338  0.0171  0.3516
   26MOL0     C 3400   2.305   9.523  10.261  0.4418 -0.8421 -0.4051
   26MOL0     C 3401   2.421   9.494  10.331 -0.6595 -0.9366 -0.2225
   26MOL0     C 3402   2.472   9.365  10.338  0.7898  1.0476 -0.0758
   26MOL0     C 3403   2.415   9.259  10.263 -0.3219 -0.6462  0.2301
   26MOL0     C 3404   2.464   9.119  10.268 -0.1018 -0.1808 -0.3389
   26MOL0     O 3405   2.434   9.024  10.168  0.1061  0.2859 -0.1642
   26MOL0     C 3406   2.458   8.894  10.202  0.7861  0.0944  0.4665
   26MOL0     C 3407   2.360   8.797  10.190  1.0723 -0.6049 -0.8972
   26MOL0     C 3408   2.381   8.664  10.241 -0.5384  0.3685 -0.6590
   26MOL0     C 3409   2.512   8.622  10.288 -0.6126 -0.2294  0.5911
   26MOL0     O 3410   2.551   8.501  10.337 -0.1147 -0.1120  0.1507
   26MOL0     C 3411   2.458   8.447  10.436  0.2902  0.0653  1.0922
   26MOL0     C 3412   2.514   8.319  10.498 -0.1296 -0.2151  0.4465
   26MOL0     C 3413   2.606   8.360  10.618 -0.1432 -0.5413  0.0022
   26MOL0     C 3414   2.699   8.251  10.674 -0.1813 -0.5688 -0.1422
   26MOL0     C 3415   2.630   8.146  10.753  0.9428 -0.0683  0.6343
   26MOL0     C 3416   2.716   8.072  10.852  0.0370  0.4534  0.0390
   26MOL0     C 3417   2.640   7.942  10.901 -0.2433  0.2825 -0.6335
   26MOL0     C 3418   2.667   7.914  11.044  0.7500  0.3846 -0.7998
   26MOL0    Cl 3419   2.545   7.809  11.120  0.0972 -0.3137  0.0799
   26MOL0     C 3420   2.614   8.721  10.277  0.0225 -1.1605 -0.0747
   26MOL0     C 3421   2.585   8.852  10.242  0.4880  1.0622  1.2035
   26MOL0     O 3422   2.541   9.098  10.360 -0.7365  0.5100 -0.1446
   26MOL0     C 3423   2.306   9.292  10.191  0.1307  0.1319  0.9681
   26MOL0     C 3424   2.243   9.416  10.193  0.2617 -0.0339  0.6998
   26MOL0     N 3425   1.957  10.126  10.250 -0.5181  0.0491  0.8587
   26MOL0     N 3426   1.893  10.235  10.215  0.2031  0.2879  0.3222
   26MOL0     C 3427   0.954  10.616   9.709  0.1724 -0.0813  0.1803
   26MOL0     C 3428   0.824  10.654   9.682  0.2088 -0.5591  0.5882
   26MOL0     C 3429   0.465  10.732   9.361  0.0563 -0.7547  0.5098
   26MOL0     C 3430   0.408  10.824   9.450 -0.1645  0.2715  0.6260
   26MOL0     C 3431   0.285  10.892   9.423 -0.1929 -0.4116 -0.2380
   26MOL0     C 3432   0.220  10.888   9.300 -0.0442 -0.2735  0.2968
   26MOL0     O 3433   0.109  10.958   9.286  1.1024  0.2765  0.1452
   26MOL0     C 3434   0.118  11.086   9.220  0.4251  0.4984  0.0151
   26MOL0     C 3435   0.020  11.183   9.279 -0.5623 -0.4811 -1.4694
   26MOL0     C 3436   0.019  11.310   9.202  0.4664  0.7314  0.1742
   26MOL0     C 3437  -0.042  11.425   9.288 -0.2478 -0.4181  0.4896
   26MOL0     C 3438   0.001  11.549   9.224  1.2638 -0.2336 -0.1498
   26MOL0     C 3439   0.051  11.644   9.185 -0.4036 -0.8909 -0.0632
   26MOL0     C 3440   0.280  10.801   9.203 -0.5662 -0.2663 -0.0012
   26MOL0     C 3441   0.401  10.728   9.228 -0.8046  0.4453  0.0705
   26MOL0     C 3442   0.464  10.665   9.111  0.2417 -0.6437 -0.4677
   26MOL0     H 3443   0.851  10.674   9.344 -1.3684  2.6430  0.3538
   26MOL0     H 3444   1.076  10.591   9.398 -1.6473  1.2201 -1.0595
   26MOL0     H 3445   1.295  10.711   9.682  4.1898 -2.1667 -3.3227
   26MOL0     H 3446   1.195  10.634   9.814 -1.5979  1.6411 -0.9965
   26MOL0     H 3447   1.453  10.538   9.676  1.7848  0.3047  0.9960
   26MOL0     H 3448   1.356  10.438   9.790 -0.3921  1.3027  1.6388
   26MOL0     H 3449   1.356  10.587   9.969 -0.2029  0.2317  0.8194
   26MOL0     H 3450   1.438  10.705   9.881 -1.0262 -0.2253  2.0495
   26MOL0     H 3451   1.560  10.421   9.895  1.5525 -0.5662 -1.6218
   26MOL0     H 3452   1.633  10.561   9.836  0.5135 -1.7699  0.8017
   26MOL0     H 3453   1.614  10.673  10.046  0.2996 -1.0725 -2.1199
   26MOL0     H 3454   1.541  10.535  10.132 -1.3657 -1.6389 -1.0833
   26MOL0     H 3455   1.726  10.386  10.079  0.9182 -0.4508  1.8455
   26MOL0     H 3456   1.809  10.508   9.986 -1.9337  3.1369 -1.2211
   26MOL0     H 3457   1.779  10.513  10.297  1.2809 -0.6443  0.0338
   26MOL0     H 3458   1.832  10.652  10.195  1.6076  0.2940 -3.9178
   26MOL0     H 3459   2.009  10.502  10.090 -1.0780  3.5146  0.7364
   26MOL0     H 3460   2.040  10.539  10.256  0.9712 -0.9689  0.4153
   26MOL0     H 3461   2.186  10.355  10.275  0.1108 -0.6820 -0.7564
   26MOL0     H 3462   2.296  10.114  10.325 -0.7686 -0.0778 -0.1717
   26MOL0     H 3463   2.186  10.046  10.441  1.5937 -4.2409 -0.5274
   26MOL0     H 3464   2.175   9.976  10.146 -0.4724  3.3291  0.2239
   26MOL0     H 3465   2.298   9.913  10.268  0.1139  2.7145  1.9264
   26MOL0     H 3466   1.993   9.860  10.274  2.0266  3.7530 -1.0764
   26MOL0     H 3467   2.101   9.824  10.402  1.2413 -2.0048 -0.6451
   26MOL0     H 3468   2.124   9.703  10.125 -1.8384 -4.7883 -0.3015
   26MOL0     H 3469   2.063   9.613  10.261 -1.6037  1.1953  1.0809
   26MOL0     H 3470   2.463   9.573  10.393  0.5301 -1.7759  0.0759
   26MOL0     H 3471   2.551   9.347  10.410  2.4320  3.0957 -1.2502
   26MOL0     H 3472   2.266   8.833  10.150  0.5374 -0.8584  0.0829
   26MOL0     H 3473   2.303   8.589  10.248 -1.0984  0.8501 -1.5493
   26MOL0     H 3474   2.421   8.519  10.509 -1.3843 -1.0573  1.3941
   26MOL0     H 3475   2.367   8.419  10.383 -0.6230 -0.6195  2.9432
   26MOL0     H 3476   2.438   8.253  10.539 -0.2621 -2.0012 -2.4135
   26MOL0     H 3477   2.577   8.265  10.427 -0.2163 -0.1014  0.2839
   26MOL0     H 3478   2.671   8.442  10.586  0.4244 -0.8623  0.3169
   26MOL0     H 3479   2.538   8.398  10.695 -0.7890 -0.2021 -0.7224
   26MOL0     H 3480   2.779   8.293  10.735 -2.3147  0.7895  1.8609
   26MOL0     H 3481   2.753   8.213  10.586  2.5901  2.8364 -0.1289
   26MOL0     H 3482   2.592   8.078  10.677  1.3239  1.3484 -0.8818
   26MOL0     H 3483   2.546   8.200  10.798 -2.0845 -1.1839 -3.1619
   26MOL0     H 3484   2.807   8.047  10.797 -0.6243 -1.2241 -0.3735
   26MOL0     H 3485   2.721   8.139  10.938 -3.0828  0.8514  0.0388
   26MOL0     H 3486   2.670   7.856  10.840  4.6981  0.7193  0.7646
   26MOL0     H 3487   2.531   7.948  10.893 -0.8342  0.9949  4.6320
   26MOL0     H 3488   2.767   7.872  11.061  0.8967  1.1523  0.2920
   26MOL0     H 3489   2.656   8.010  11.095 -3.5240 -0.7699  0.8802
   26MOL0     H 3490   2.719   8.707  10.303  0.8859  1.7571 -1.4381
   26MOL0     H 3491   2.666   8.925  10.246  0.7759  0.7608  0.9266
   26MOL0     H 3492   2.250   9.217  10.136 -2.1275  1.9996  0.5799
   26MOL0     H 3493   2.153   9.422  10.132 -2.0259 -3.2537  3.3871
   26MOL0     H 3494   0.981  10.589   9.811 -1.0564  1.1902  0.8691
   26MOL0     H 3495   0.744  10.665   9.755  0.0247  4.0730 -0.0043
   26MOL0     H 3496   0.453  10.838   9.548 -0.6625 -1.1616  1.0848
   26MOL0     H 3497   0.238  10.937   9.509 -1.9542 -1.7136 -0.4725
   26MOL0     H 3498   0.091  11.082   9.114 -4.2967 -1.3832  1.0493
   26MOL0     H 3499   0.217  11.133   9.222 -0.4388  2.4247 -0.3157
   26MOL0     H 3500   0.054  11.211   9.379  0.7610 -1.5152 -1.5943
   26MOL0     H 3501  -0.080  11.139   9.275 -1.1109  0.7982 -4.6190
   26MOL0     H 3502  -0.034  11.303   9.107 -1.6468 -1.2107  1.3954
   26MOL0     H 3503   0.125  11.328   9.186  1.2507 -2.1517  1.4719
   26MOL0     H 3504  -0.150  11.423   9.301 -0.0724 -1.6655  2.0260
   26MOL0     H 3505  -0.011  11.420   9.393  0.1817 -0.1704  0.3787
   26MOL0     H 3506   0.100  11.729   9.144 -2.4680  0.3043 -0.1858
   26MOL0     H 3507   0.241  10.795   9.102 -0.6608 -0.7905  0.0626
   26MOL0     H 3508   0.571  10.687   9.116  0.5121 -1.9061 -0.0949
   26MOL0     H 3509   0.452  10.556   9.123  0.5006 -0.5982  0.2241
   26MOL0     H 3510   0.413  10.691   9.018  0.6744 -1.0014 -0.8087
   27MOL0     O 3511   6.770   8.318   2.405  0.4979 -0.3000 -0.6386
   27MOL0     C 3512   6.784   8.353   2.293  0.4692 -0.0406  0.8599
   27MOL0     O 3513   6.828   8.273   2.191  0.0105 -0.0969  0.6233
   27MOL0     C 3514   6.828   8.136   2.224 -0.0579 -0.0574 -0.0209
   27MOL0     C 3515   6.949   8.074   2.236  0.1107  0.1454  0.5776
   27MOL0     C 3516   6.951   7.936   2.277  1.1816  0.3922  0.4746
   27MOL0     C 3517   6.824   7.870   2.282  0.9925  0.4657 -0.4243
   27MOL0     O 3518   6.835   7.742   2.330  0.7304 -0.5817  0.0653
   27MOL0     C 3519   6.750   7.641   2.268  0.2412  0.6030  0.0886
   27MOL0     C 3520   6.780   7.497   2.329  0.9460 -0.2223  1.1821
   27MOL0     C 3521   6.668   7.396   2.308  0.0795  0.5692 -0.5795
   27MOL0     C 3522   6.668   7.368   2.154 -0.3270  0.4410  1.0061
   27MOL0     C 3523   6.561   7.260   2.120  0.6073 -0.1080 -0.3075
   27MOL0     C 3524   6.593   7.206   1.982 -0.2756 -0.6659 -0.3745
   27MOL0     C 3525   6.455   7.179   1.923  1.0750  0.2048 -0.1442
   27MOL0     C 3526   6.480   7.111   1.786 -0.1373 -0.2728 -0.2584
   27MOL0     N 3527   6.365   7.095   1.700  0.0698 -0.5701 -0.0359
   27MOL0     C 3528   6.248   7.028   1.723 -0.0699  0.1860  0.2302
   27MOL0     C 3529   6.187   7.009   1.605 -0.5135 -0.1953  0.3183
   27MOL0     C 3530   6.054   6.936   1.596  0.0066  1.0391  0.1947
   27MOL0     C 3531   5.943   7.041   1.593 -0.4881  0.2601  0.4421
   27MOL0     C 3532   5.801   6.991   1.542 -0.0822 -0.1652  0.5525
   27MOL0     C 3533   5.734   6.874   1.617  0.0831 -0.3659  0.4617
   27MOL0     O 3534   5.704   6.918   1.756 -0.1469 -0.1572  0.4559
   27MOL0     C 3535   5.637   6.824   1.839 -0.2913 -0.4059  0.7747
   27MOL0     C 3536   5.532   6.753   1.795 -0.5209 -0.1897  0.2500
   27MOL0     C 3537   5.466   6.667   1.878 -0.2020  0.1631  0.4811
   27MOL0     C 3538   5.508   6.647   2.011 -0.5494  1.4177  0.2783
   27MOL0     C 3539   5.430   6.550   2.089  0.2233 -0.4282 -0.5720
   27MOL0     O 3540   5.313   6.500   2.040  0.3296  0.1249  0.1828
   27MOL0     C 3541   5.251   6.395   2.103  1.3528 -0.1068  0.4714
   27MOL0     C 3542   5.146   6.348   2.017 -0.8140 -0.0427  0.0846
   27MOL0     C 3543   5.060   6.240   2.057  0.0919  0.1989  0.0029
   27MOL0     C 3544   5.083   6.180   2.181 -0.3170  0.7971 -0.4574
   27MOL0     O 3545   4.989   6.096   2.222 -1.0657 -0.1109  0.2883
   27MOL0     C 3546   5.038   5.984   2.301  0.2717 -0.5089  0.9759
   27MOL0     C 3547   5.018   6.028   2.445  1.3997 -0.9956  0.3097
   27MOL0     C 3548   4.906   5.954   2.517 -0.0510 -0.3647 -0.0223
   27MOL0     C 3549   4.908   5.795   2.493  0.1109  0.7143  0.6273
   27MOL0     C 3550   4.841   5.717   2.602  1.0664  0.4671 -0.2079
   27MOL0     C 3551   4.860   5.561   2.598 -0.5833  0.9042  0.3213
   27MOL0     C 3552   4.800   5.498   2.715  0.8957 -0.2668 -0.0814
   27MOL0     C 3553   4.670   5.425   2.663  0.7524 -0.0891 -0.0050
   27MOL0    Cl 3554   4.581   5.317   2.778 -0.6022  0.0326  0.2192
   27MOL0     C 3555   5.181   6.233   2.260  0.6478  0.0988 -0.1442
   27MOL0     C 3556   5.267   6.335   2.227 -0.8726  0.0968 -0.1550
   27MOL0     O 3557   5.480   6.520   2.199 -0.5578  0.3795  0.4912
   27MOL0     C 3558   5.602   6.731   2.062  0.0875 -0.2401  0.1395
   27MOL0     C 3559   5.671   6.821   1.978  0.1453  0.8650 -0.0505
   27MOL0     N 3560   6.256   7.081   1.511  0.3599  0.6063 -0.2671
   27MOL0     N 3561   6.361   7.132   1.574 -0.9327 -0.6524  0.0900
   27MOL0     C 3562   6.704   7.934   2.249  0.2223  0.3225 -0.4178
   27MOL0     C 3563   6.712   8.070   2.215 -0.1060 -0.6029 -0.1462
   27MOL0     C 3564   6.769   8.499   2.241  0.3619 -0.1714  0.4215
   27MOL0     C 3565   6.798   8.538   2.108  0.3456 -0.4114 -1.0270
   27MOL0     C 3566   6.803   8.667   2.065 -0.6031 -0.2204 -0.3054
   27MOL0     C 3567   6.769   8.770   2.155  1.1437  0.5648 -0.2212
   27MOL0     O 3568   6.754   8.905   2.130  0.2327  0.5687  0.4582
   27MOL0     C 3569   6.763   8.945   1.989 -0.1990  0.4010  0.4763
   27MOL0     C 3570   6.727   9.092   1.979  0.2192 -0.3164 -0.8098
   27MOL0     C 3571   6.833   9.194   2.017 -1.2767  0.1681 -1.2555
   27MOL0     C 3572   6.836   9.341   1.965  0.4127 -0.6080 -0.4232
   27MOL0     C 3573   6.706   9.413   2.003 -0.5577  0.4057  0.9215
   27MOL0     C 3574   6.598   9.472   2.023 -0.8162 -0.0807 -0.3854
   27MOL0     C 3575   6.743   8.733   2.285  0.6493  0.4624 -0.1375
   27MOL0     C 3576   6.748   8.604   2.333 -0.6827  0.8752 -0.8210
   27MOL0     C 3577   6.733   8.593   2.483  0.2860 -0.2397  0.1343
   27MOL0     H 3578   7.029   8.147   2.239 -2.7988  3.6374  2.9570
   27MOL0     H 3579   7.044   7.884   2.300  1.6866  1.7123  1.5172
   27MOL0     H 3580   6.644   7.666   2.269  0.0578  0.0209 -1.8094
   27MOL0     H 3581   6.778   7.627   2.163 -0.5479 -0.4548  0.0001
   27MOL0     H 3582   6.799   7.504   2.436 -2.9097  0.3488  1.9699
   27MOL0     H 3583   6.878   7.463   2.292 -0.5355 -2.7736 -0.7023
   27MOL0     H 3584   6.573   7.427   2.352  0.0614 -0.5412  0.2185
   27MOL0     H 3585   6.699   7.306   2.363  0.3910  0.0719 -1.5479
   27MOL0     H 3586   6.654   7.455   2.089  1.9283 -2.0216 -3.2694
   27MOL0     H 3587   6.768   7.333   2.128 -0.7391  0.4722 -0.7546
   27MOL0     H 3588   6.567   7.178   2.193  0.2030 -0.3216 -0.5136
   27MOL0     H 3589   6.460   7.302   2.125 -1.0415 -3.8528  1.1573
   27MOL0     H 3590   6.641   7.280   1.918  1.4460 -1.6839 -0.3215
   27MOL0     H 3591   6.658   7.119   1.988 -0.6579 -0.9128  0.3447
   27MOL0     H 3592   6.412   7.278   1.905 -0.6496 -0.2989  0.9272
   27MOL0     H 3593   6.393   7.121   1.991  0.6293  1.6868  0.7614
   27MOL0     H 3594   6.545   7.173   1.724 -0.7664 -1.3457 -2.1052
   27MOL0     H 3595   6.538   7.019   1.795  0.2359  0.1771  4.2098
   27MOL0     H 3596   6.217   6.983   1.817 -0.6943  1.0676  0.4537
   27MOL0     H 3597   6.052   6.867   1.512  3.2874 -0.0310  0.8426
   27MOL0     H 3598   6.032   6.877   1.686 -1.2479 -0.3706 -0.9695
   27MOL0     H 3599   5.934   7.088   1.691  1.1816 -0.4593  0.9919
   27MOL0     H 3600   5.981   7.115   1.522 -3.6871 -0.4331 -2.2519
   27MOL0     H 3601   5.815   6.968   1.436  2.7924 -0.9906  1.0259
   27MOL0     H 3602   5.741   7.082   1.552 -0.1310 -0.1021 -0.2485
   27MOL0     H 3603   5.808   6.795   1.633  0.0281 -0.6228 -0.4744
   27MOL0     H 3604   5.649   6.824   1.569  0.7104  0.0471 -1.1254
   27MOL0     H 3605   5.484   6.768   1.699 -0.6806 -1.3563  0.1311
   27MOL0     H 3606   5.373   6.623   1.842  0.9851  0.6304 -3.6666
   27MOL0     H 3607   5.138   6.400   1.922 -0.1172 -0.0679  0.0100
   27MOL0     H 3608   4.994   6.191   1.987  2.7894 -0.4691 -2.2706
   27MOL0     H 3609   4.990   5.889   2.279  1.3694 -0.4420 -2.2281
   27MOL0     H 3610   5.143   5.977   2.272 -0.2875 -0.8865 -1.1841
   27MOL0     H 3611   5.108   6.018   2.507  0.7597  1.7141  1.8476
   27MOL0     H 3612   5.006   6.137   2.446  0.5179 -1.0518  2.5723
   27MOL0     H 3613   4.915   5.977   2.624  0.6790 -0.0722 -0.1396
   27MOL0     H 3614   4.806   5.983   2.484 -1.3193 -2.3196  1.8406
   27MOL0     H 3615   5.013   5.767   2.486  0.0159  0.6868 -0.8821
   27MOL0     H 3616   4.853   5.778   2.400 -2.8307  0.3462  2.2812
   27MOL0     H 3617   4.732   5.728   2.607  0.9884 -0.8303  2.5081
   27MOL0     H 3618   4.874   5.750   2.700  0.2311  0.0077  0.2398
   27MOL0     H 3619   4.859   5.507   2.503  7.3023 -2.4126  1.3289
   27MOL0     H 3620   4.967   5.548   2.617 -0.4356 -3.6608 -2.2057
   27MOL0     H 3621   4.776   5.567   2.796 -0.4175  0.8261 -1.3445
   27MOL0     H 3622   4.867   5.424   2.760  0.4383  0.5934  2.1686
   27MOL0     H 3623   4.606   5.511   2.638 -1.1192 -1.3515  0.2325
   27MOL0     H 3624   4.683   5.372   2.569 -0.9220  0.6205 -0.6859
   27MOL0     H 3625   5.188   6.184   2.357 -2.4459 -1.1169 -0.4172
   27MOL0     H 3626   5.332   6.358   2.311  1.1427  0.7688 -1.7995
   27MOL0     H 3627   5.625   6.708   2.165  0.0608 -1.9784 -0.1988
   27MOL0     H 3628   5.753   6.884   2.012  0.4791  1.2492 -1.4723
   27MOL0     H 3629   6.619   7.868   2.232  0.1037  0.0203  1.1601
   27MOL0     H 3630   6.635   8.141   2.186  1.2218  1.3229  0.7912
   27MOL0     H 3631   6.821   8.463   2.034 -1.0074 -1.9636  0.0567
   27MOL0     H 3632   6.836   8.693   1.965 -0.1798  0.8901  0.1118
   27MOL0     H 3633   6.692   8.893   1.925 -1.5963  1.6162  0.9691
   27MOL0     H 3634   6.866   8.930   1.956  0.4780  1.7894  1.7948
   27MOL0     H 3635   6.636   9.106   2.037  1.3555  0.5526  0.8452
   27MOL0     H 3636   6.704   9.104   1.872 -1.6505 -1.9730 -0.6550
   27MOL0     H 3637   6.927   9.145   1.990 -2.2441 -3.1602  0.7840
   27MOL0     H 3638   6.844   9.200   2.126  3.8305  0.0882 -1.5358
   27MOL0     H 3639   6.923   9.388   2.012  0.8439 -1.8394  0.0557
   27MOL0     H 3640   6.861   9.349   1.859 -0.8604  2.3326 -0.6039
   27MOL0     H 3641   6.503   9.510   2.053 -0.6619 -2.6375  4.0854
   27MOL0     H 3642   6.713   8.816   2.349  2.5675  1.8855 -1.0033
   27MOL0     H 3643   6.692   8.689   2.515  0.5480 -0.1359  0.1570
   27MOL0     H 3644   6.652   8.525   2.512 -1.7331  1.8593 -0.2543
   27MOL0     H 3645   6.825   8.561   2.533 -0.0031 -1.9384 -0.3722
   28MOL0     O 3646   2.824  10.469   8.487  0.5046 -0.5023 -0.5260
   28MOL0     C 3647   2.739  10.380   8.496 -0.4524  0.6060 -0.4894
   28MOL0     O 3648   2.758  10.269   8.573  0.3655 -0.1759 -0.1397
   28MOL0     C 3649   2.876  10.263   8.643  0.0575  0.4754  0.6987
   28MOL0     C 3650   2.961  10.160   8.607 -0.6415  0.7526 -0.3357
   28MOL0     C 3651   3.081  10.138   8.673  0.3206 -0.5003  0.8406
   28MOL0     C 3652   3.132  10.227   8.765  0.1899 -1.1580  0.2396
   28MOL0     O 3653   3.263  10.202   8.802  0.5227 -0.0823  0.3191
   28MOL0     C 3654   3.314  10.243   8.929 -0.5877  0.2477  0.2063
   28MOL0     C 3655   3.465  10.230   8.932 -0.3700 -0.3278 -0.5505
   28MOL0     C 3656   3.540  10.224   8.798  0.7804  0.8673 -1.0668
   28MOL0     C 3657   3.684  10.166   8.826  0.3589  0.2946  1.2644
   28MOL0     C 3658   3.774  10.148   8.695  0.6670 -0.5645  0.2524
   28MOL0     C 3659   3.912  10.084   8.733  1.2396 -0.6098 -0.5376
   28MOL0     C 3660   4.013  10.107   8.629 -0.3612 -0.3825  0.0306
   28MOL0     C 3661   3.964  10.025   8.516  0.5703 -0.1992  0.5620
   28MOL0     N 3662   4.080   9.998   8.424 -1.3333 -0.2661  0.3891
   28MOL0     C 3663   4.176  10.090   8.381 -0.1110  0.8825  0.4769
   28MOL0     C 3664   4.258  10.016   8.302 -0.2699 -0.2025 -0.0150
   28MOL0     C 3665   4.366  10.076   8.218 -0.7028 -0.8241 -0.1916
   28MOL0     C 3666   4.326  10.157   8.090  0.2613  0.5627 -0.5084
   28MOL0     C 3667   4.440  10.216   8.006  0.5404 -0.2193 -0.1889
   28MOL0     C 3668   4.400  10.333   7.922  0.7734  0.6384 -0.1519
   28MOL0     O 3669   4.508  10.381   7.844 -0.3387  0.4581  0.2402
   28MOL0     C 3670   4.591  10.480   7.895 -0.6219 -0.1602 -0.6389
   28MOL0     C 3671   4.599  10.512   8.024 -0.4660  0.9130 -0.8458
   28MOL0     C 3672   4.665  10.628   8.064 -0.2592  0.1795  0.0397
   28MOL0     C 3673   4.731  10.709   7.974  0.7407  0.2419  0.7254
   28MOL0     C 3674   4.804  10.826   8.016  0.6276 -0.8319 -0.0934
   28MOL0     O 3675   4.819  10.937   7.935 -0.0641  0.0937 -1.1690
   28MOL0     C 3676   4.852  11.053   8.001  0.2323 -0.0694 -0.1296
   28MOL0     C 3677   4.779  11.174   7.983  0.2330 -0.0804 -1.1578
   28MOL0     C 3678   4.810  11.291   8.052 -0.6138 -0.3976 -0.4333
   28MOL0     C 3679   4.914  11.291   8.147  0.2054 -0.3604 -0.2095
   28MOL0     O 3680   4.914  11.397   8.234  0.2859 -0.8539  0.0465
   28MOL0     C 3681   5.041  11.444   8.283 -0.3234 -0.6146 -0.0573
   28MOL0     C 3682   5.055  11.582   8.238  0.0361 -1.4479 -0.9879
   28MOL0     C 3683   5.060  11.586   8.086 -0.1444  0.7474  0.3804
   28MOL0     C 3684   5.186  11.514   8.024  0.2487  0.7315  0.4223
   28MOL0     C 3685   5.192  11.553   7.877  0.0618 -0.1230 -0.7369
   28MOL0     C 3686   5.078  11.493   7.795 -0.5213  0.4903  0.7886
   28MOL0     C 3687   5.095  11.547   7.650 -0.0423  0.9342  0.0036
   28MOL0     C 3688   5.226  11.512   7.576 -0.1216  0.0822 -0.6668
   28MOL0    Cl 3689   5.174  11.495   7.408  0.0532 -0.3268 -0.0136
   28MOL0     C 3690   4.990  11.175   8.160 -0.7037  0.8843  0.0845
   28MOL0     C 3691   4.965  11.063   8.078  0.6068  0.2456 -0.2632
   28MOL0     O 3692   4.836  10.820   8.135 -0.1383  0.7501 -0.5112
   28MOL0     C 3693   4.714  10.681   7.839 -0.0886  1.2680  0.4382
   28MOL0     C 3694   4.639  10.570   7.801  0.3867 -0.0923 -0.3720
   28MOL0     N 3695   4.216   9.882   8.305 -0.3204 -0.0956  0.7585
   28MOL0     N 3696   4.113   9.875   8.374 -0.1826  0.9755 -0.1055
   28MOL0     C 3697   3.054  10.335   8.803  0.1038  0.2551 -0.1032
   28MOL0     C 3698   2.922  10.355   8.745 -0.8333 -0.3866 -0.7396
   28MOL0     C 3699   2.630  10.389   8.402 -0.0686  0.1782 -0.1011
   28MOL0     C 3700   2.612  10.512   8.333 -0.8623 -0.2011  0.2961
   28MOL0     C 3701   2.530  10.532   8.226  0.7591 -0.6336  0.0011
   28MOL0     C 3702   2.454  10.426   8.177 -0.4339 -0.4525  0.2758
   28MOL0     O 3703   2.373  10.431   8.063  0.5631 -0.3160 -0.4531
   28MOL0     C 3704   2.432  10.361   7.946  0.3740  0.6355 -0.0607
   28MOL0     C 3705   2.322  10.326   7.833  0.4053  0.6066 -0.4618
   28MOL0     C 3706   2.262  10.463   7.798  0.2340  0.4278 -0.1405
   28MOL0     C 3707   2.178  10.452   7.675 -0.0791  0.0175  0.3209
   28MOL0     C 3708   2.134  10.587   7.631  0.0256  0.5380  0.7705
   28MOL0     C 3709   2.113  10.701   7.595  0.7127  1.0506 -0.3415
   28MOL0     C 3710   2.462  10.299   8.244 -0.9934 -0.0831 -0.4252
   28MOL0     C 3711   2.554  10.280   8.349  0.3238 -0.6274  0.1281
   28MOL0     C 3712   2.563  10.139   8.403 -0.4872  0.0648  0.6946
   28MOL0     H 3713   2.929  10.096   8.525  1.9829 -0.0398 -0.8252
   28MOL0     H 3714   3.147  10.066   8.627  0.0039  0.3686 -1.0683
   28MOL0     H 3715   3.292  10.350   8.927 -1.9208  0.0544 -3.6844
   28MOL0     H 3716   3.266  10.189   9.010 -1.3609  0.1300 -0.3221
   28MOL0     H 3717   3.499  10.146   8.993 -0.5081 -1.3219 -1.8032
   28MOL0     H 3718   3.498  10.316   8.991 -0.8561 -1.8015  2.0437
   28MOL0     H 3719   3.537  10.325   8.757 -2.2343  1.2925 -0.0242
   28MOL0     H 3720   3.493  10.149   8.733 -1.2826  2.6398 -1.7354
   28MOL0     H 3721   3.741  10.236   8.889  4.7266 -0.1798 -1.7235
   28MOL0     H 3722   3.675  10.069   8.875 -0.2314  0.2573  1.0890
   28MOL0     H 3723   3.719  10.097   8.616 -0.7127  2.5697 -0.9907
   28MOL0     H 3724   3.791  10.252   8.665  1.6865 -0.5177  0.9331
   28MOL0     H 3725   3.953  10.123   8.827 -0.3149 -5.0394  2.2574
   28MOL0     H 3726   3.907   9.977   8.754  2.0654 -0.6779 -0.6569
   28MOL0     H 3727   4.109  10.058   8.650 -0.7873 -1.9708 -1.4886
   28MOL0     H 3728   4.025  10.213   8.606 -1.8214 -0.9220 -3.9019
   28MOL0     H 3729   3.902   9.941   8.547  1.1771 -0.7990  0.1644
   28MOL0     H 3730   3.899  10.092   8.458 -1.1534 -0.7343  1.7866
   28MOL0     H 3731   4.195  10.195   8.400 -1.7481  1.6397 -1.6622
   28MOL0     H 3732   4.426  10.144   8.279 -1.7580 -1.1761  1.2929
   28MOL0     H 3733   4.444  10.002   8.199  1.2656  0.7599  1.2835
   28MOL0     H 3734   4.278  10.083   8.026 -2.7330 -0.1733  2.2865
   28MOL0     H 3735   4.254  10.235   8.119  0.8297  1.2017 -0.7799
   28MOL0     H 3736   4.481  10.149   7.931 -1.1391  0.8597 -2.1740
   28MOL0     H 3737   4.516  10.245   8.079  0.8056 -2.3655  0.4589
   28MOL0     H 3738   4.357  10.420   7.974  1.7368  0.8761  0.2656
   28MOL0     H 3739   4.329  10.290   7.851  1.1491 -1.1573  0.5114
   28MOL0     H 3740   4.562  10.446   8.102  2.1945 -0.7636 -0.8509
   28MOL0     H 3741   4.654  10.669   8.164  1.4225  3.9162 -1.1011
   28MOL0     H 3742   4.691  11.172   7.918  0.5879  1.3545 -1.7078
   28MOL0     H 3743   4.743  11.374   8.033  0.0480 -0.0271 -1.2191
   28MOL0     H 3744   5.040  11.434   8.392  2.6120 -1.3861 -0.0271
   28MOL0     H 3745   5.125  11.379   8.256 -0.4176 -1.9795  2.5969
   28MOL0     H 3746   4.987  11.641   8.300  1.5100 -0.9645  0.2228
   28MOL0     H 3747   5.156  11.610   8.269 -0.7418  0.6982 -0.2351
   28MOL0     H 3748   4.967  11.546   8.046 -1.2060  2.6026  0.8781
   28MOL0     H 3749   5.071  11.691   8.056  0.1898  1.2807  2.2131
   28MOL0     H 3750   5.164  11.407   8.035 -0.6139  1.1168  2.9199
   28MOL0     H 3751   5.270  11.553   8.082 -0.7328  5.9576 -1.1572
   28MOL0     H 3752   5.293  11.528   7.844  1.3190  1.0400  1.8827
   28MOL0     H 3753   5.182  11.662   7.873  1.9195  0.1478  0.8618
   28MOL0     H 3754   5.093  11.384   7.795  0.2772  0.5777  1.9736
   28MOL0     H 3755   4.981  11.521   7.837 -0.4452  2.1150 -0.0615
   28MOL0     H 3756   5.074  11.654   7.645 -2.0457  0.5431 -2.0507
   28MOL0     H 3757   5.014  11.511   7.585  1.3181  1.3618 -2.0415
   28MOL0     H 3758   5.302  11.588   7.596  0.9196 -0.1255 -3.4065
   28MOL0     H 3759   5.253  11.411   7.608  0.6246  1.0339  2.0074
   28MOL0     H 3760   5.077  11.165   8.224  0.6903  2.1790 -1.5196
   28MOL0     H 3761   5.030  10.975   8.075 -0.5551 -0.6135 -0.7994
   28MOL0     H 3762   4.759  10.743   7.762  1.2353 -2.2158 -1.8244
   28MOL0     H 3763   4.599  10.581   7.701  1.2556 -2.2346 -1.0171
   28MOL0     H 3764   3.086  10.414   8.871 -1.1556  0.6660  0.0403
   28MOL0     H 3765   2.865  10.442   8.776 -3.2687 -2.3015  0.5079
   28MOL0     H 3766   2.669  10.595   8.371 -0.0913 -0.7369  0.3227
   28MOL0     H 3767   2.527  10.631   8.181  0.1383 -2.0797 -3.4624
   28MOL0     H 3768   2.489  10.271   7.969 -0.2191  0.5330  1.0536
   28MOL0     H 3769   2.502  10.434   7.904  0.3959  0.8530  0.3544
   28MOL0     H 3770   2.241  10.258   7.862  1.3675 -0.6912 -0.7296
   28MOL0     H 3771   2.372  10.286   7.745 -0.0555 -1.6194  0.2139
   28MOL0     H 3772   2.341  10.533   7.769  1.0656 -0.7506 -0.7641
   28MOL0     H 3773   2.217  10.507   7.888  1.2846 -1.9450  1.6493
   28MOL0     H 3774   2.227  10.388   7.601  3.0882  1.3602  1.1313
   28MOL0     H 3775   2.082  10.414   7.713  0.0692  0.1408  0.8196
   28MOL0     H 3776   2.085  10.801   7.571 -0.9450  0.7871  0.3560
   28MOL0     H 3777   2.397  10.221   8.206 -1.7621  1.2297 -1.9363
   28MOL0     H 3778   2.572  10.133   8.512  2.4489  0.2698  0.5412
   28MOL0     H 3779   2.488  10.074   8.357 -0.3120  0.9214 -0.8821
   28MOL0     H 3780   2.660  10.102   8.368  0.9863  2.2520  2.1924
   29MOL0     O 3781   8.092   0.067   7.845  0.7010 -0.1893 -0.0658
   29MOL0     C 3782   8.023   0.125   7.772 -0.2282 -1.0237 -0.0013
   29MOL0     O 3783   8.023   0.108   7.634 -0.1120  0.3953 -0.3654
   29MOL0     C 3784   8.123   0.033   7.577 -0.5345 -0.1750  0.0106
   29MOL0     C 3785   8.228   0.095   7.515 -0.4935  0.7979 -0.2505
   29MOL0     C 3786   8.302   0.009   7.430  0.5120 -0.4933 -0.3267
   29MOL0     C 3787   8.268  -0.125   7.404 -0.0369 -0.2114 -1.3921
   29MOL0     O 3788   8.346  -0.205   7.321  0.7135 -0.9807 -0.0335
   29MOL0     C 3789   8.437  -0.136   7.230 -0.3470  0.5219 -0.2156
   29MOL0     C 3790   8.497  -0.238   7.130 -0.4931 -0.6323  0.8180
   29MOL0     C 3791   8.608  -0.343   7.185 -0.3161  0.3326  0.3089
   29MOL0     C 3792   8.743  -0.275   7.240 -0.2487 -1.1379  0.4315
   29MOL0     C 3793   8.859  -0.376   7.226 -0.2090  0.3038 -0.2756
   29MOL0     C 3794   8.992  -0.304   7.273  0.6458  0.6749  1.5087
   29MOL0     C 3795   9.113  -0.388   7.226 -0.3452 -0.3257 -0.4942
   29MOL0     C 3796   9.131  -0.381   7.075  0.4532 -1.4011  0.0816
   29MOL0     N 3797   9.235  -0.460   7.025 -0.8937 -0.3733 -0.8433
   29MOL0     C 3798   9.355  -0.479   7.085  0.0068 -0.3911  0.2622
   29MOL0     C 3799   9.394  -0.599   7.050  0.6216  0.3117  0.8875
   29MOL0     C 3800   9.527  -0.667   7.092 -0.3166  0.1744  1.5262
   29MOL0     C 3801   9.563  -0.655   7.231  0.6539 -0.3915 -0.4236
   29MOL0     C 3802   9.458  -0.727   7.318 -0.1902  0.0199 -0.5834
   29MOL0     C 3803   9.490  -0.696   7.475  1.1704  0.7289  0.6419
   29MOL0     O 3804   9.487  -0.554   7.509 -0.4307  0.1275 -0.5422
   29MOL0     C 3805   9.368  -0.504   7.542  0.3185 -0.6543 -0.3951
   29MOL0     C 3806   9.366  -0.386   7.609  0.3792 -0.1135 -1.0443
   29MOL0     C 3807   9.246  -0.321   7.620 -0.1171 -0.3876  0.5108
   29MOL0     C 3808   9.116  -0.381   7.598 -0.2818 -0.1598 -0.1865
   29MOL0     C 3809   8.990  -0.312   7.643  0.6564  0.7055  0.5690
   29MOL0     O 3810   8.862  -0.363   7.620 -0.5546  0.2341 -0.3740
   29MOL0     C 3811   8.758  -0.309   7.682 -0.2548  0.3197 -0.0213
   29MOL0     C 3812   8.754  -0.283   7.814  1.0764  0.1491 -0.7239
   29MOL0     C 3813   8.639  -0.240   7.881  0.2228 -0.2778  0.3233
   29MOL0     C 3814   8.518  -0.246   7.815 -0.4395 -0.0394  0.7048
   29MOL0     O 3815   8.396  -0.228   7.880  0.1251  0.1963 -0.8067
   29MOL0     C 3816   8.379  -0.310   7.998 -0.1835  0.5438  0.7222
   29MOL0     C 3817   8.280  -0.240   8.092 -0.8635  0.6564 -0.1701
   29MOL0     C 3818   8.143  -0.236   8.043 -0.4001 -0.5426 -0.2111
   29MOL0     C 3819   8.095  -0.330   7.933 -0.2826  0.2529  0.1027
   29MOL0     C 3820   7.945  -0.317   7.932  0.1216  0.4627 -0.8459
   29MOL0     C 3821   7.882  -0.427   7.854  0.2758  0.3340  0.2100
   29MOL0     C 3822   7.935  -0.432   7.703  0.3185  1.0663  0.6304
   29MOL0     C 3823   7.850  -0.531   7.630  0.3989  0.4462 -0.8402
   29MOL0    Cl 3824   7.874  -0.712   7.686  0.1003  0.2979  0.3812
   29MOL0     C 3825   8.509  -0.298   7.689 -0.7618  0.9680 -0.7421
   29MOL0     C 3826   8.629  -0.320   7.620 -0.2253  0.1893 -0.2362
   29MOL0     O 3827   9.015  -0.214   7.703  0.4410  0.0097  0.3813
   29MOL0     C 3828   9.120  -0.510   7.564 -0.6061  0.5262  0.0923
   29MOL0     C 3829   9.236  -0.566   7.521  0.3769 -0.5091  1.0109
   29MOL0     N 3830   9.300  -0.656   6.955  1.6079  0.1685 -0.4449
   29MOL0     N 3831   9.210  -0.563   6.936  0.1987  0.0471 -0.4090
   29MOL0     C 3832   8.166  -0.177   7.477 -0.2512  0.6073 -0.2293
   29MOL0     C 3833   8.098  -0.100   7.566  0.7169 -0.3545 -0.3510
   29MOL0     C 3834   7.932   0.231   7.824  0.3093  1.1494  0.0074
   29MOL0     C 3835   7.911   0.239   7.965 -0.5401 -0.1763  0.0134
   29MOL0     C 3836   7.837   0.341   8.025  0.8222 -0.2355  0.6209
   29MOL0     C 3837   7.781   0.445   7.935 -0.7029  0.2145  0.1560
   29MOL0     O 3838   7.707   0.560   7.971  0.1222 -0.2590 -0.2598
   29MOL0     C 3839   7.716   0.603   8.109  0.2040 -0.0154  0.4826
   29MOL0     C 3840   7.703   0.758   8.117 -0.6645  1.1605 -0.6897
   29MOL0     C 3841   7.575   0.814   8.062 -0.0747  1.0863 -0.6999
   29MOL0     C 3842   7.517   0.928   8.133 -0.6811 -0.0944 -0.3731
   29MOL0     C 3843   7.469   0.896   8.264  0.0051  0.2996 -0.0034
   29MOL0     C 3844   7.422   0.859   8.369 -0.2041 -0.7908  0.1184
   29MOL0     C 3845   7.815   0.442   7.797 -0.4842  0.4473 -0.1938
   29MOL0     C 3846   7.876   0.332   7.730  0.5630 -0.1586  0.5349
   29MOL0     C 3847   7.899   0.343   7.580 -0.0557 -0.2722  1.1867
   29MOL0     H 3848   8.244   0.201   7.526 -4.0992  1.4375 -0.2387
   29MOL0     H 3849   8.390   0.051   7.383  1.3167 -0.7147  0.9329
   29MOL0     H 3850   8.392  -0.049   7.181  0.4254  0.1426 -1.6691
   29MOL0     H 3851   8.514  -0.088   7.291  0.3048 -2.2006  1.2755
   29MOL0     H 3852   8.534  -0.188   7.041 -2.5638 -3.6135 -1.9342
   29MOL0     H 3853   8.406  -0.293   7.105  0.5420 -2.7665  1.5323
   29MOL0     H 3854   8.637  -0.396   7.094  2.1026 -1.0168  1.7824
   29MOL0     H 3855   8.567  -0.418   7.254 -0.5345  0.3091  0.1546
   29MOL0     H 3856   8.765  -0.197   7.166  2.0444 -0.6392  1.5431
   29MOL0     H 3857   8.738  -0.246   7.346 -3.7523 -4.6761  1.4866
   29MOL0     H 3858   8.855  -0.458   7.298 -1.0078 -0.4723 -1.1903
   29MOL0     H 3859   8.859  -0.428   7.130 -2.5491 -3.2762  1.4541
   29MOL0     H 3860   9.002  -0.205   7.227 -1.2336  0.9825  1.7099
   29MOL0     H 3861   8.983  -0.293   7.381 -0.2574 -1.3136  1.6772
   29MOL0     H 3862   9.089  -0.490   7.257 -1.9600 -0.9851 -3.4274
   29MOL0     H 3863   9.208  -0.368   7.275 -0.2201 -3.3292  0.7560
   29MOL0     H 3864   9.041  -0.423   7.028  0.6612 -1.7121 -0.0436
   29MOL0     H 3865   9.149  -0.283   7.030 -3.1277  0.4992  2.3158
   29MOL0     H 3866   9.415  -0.416   7.150  0.0730 -1.4894  1.2969
   29MOL0     H 3867   9.522  -0.772   7.062 -1.8737  1.1177 -2.0188
   29MOL0     H 3868   9.605  -0.614   7.037 -1.7770  0.8242  0.0031
   29MOL0     H 3869   9.656  -0.712   7.239  0.9419  0.1296 -0.0444
   29MOL0     H 3870   9.568  -0.549   7.258  0.0402 -1.4339  4.7522
   29MOL0     H 3871   9.455  -0.834   7.296  0.0414 -0.9365  3.2861
   29MOL0     H 3872   9.361  -0.680   7.300  0.1876  2.8397  3.4133
   29MOL0     H 3873   9.591  -0.730   7.497 -0.4274 -5.8956 -0.1990
   29MOL0     H 3874   9.425  -0.756   7.540 -0.4911  0.2391 -1.3517
   29MOL0     H 3875   9.459  -0.340   7.643 -0.7719  1.8368 -0.3968
   29MOL0     H 3876   9.266  -0.224   7.666  1.0832  0.7638 -2.2148
   29MOL0     H 3877   8.846  -0.271   7.870  1.7904 -1.6417 -1.4256
   29MOL0     H 3878   8.647  -0.194   7.979  0.7780  2.7686 -1.0313
   29MOL0     H 3879   8.335  -0.407   7.972 -0.3060  0.6747  0.4305
   29MOL0     H 3880   8.468  -0.328   8.059 -0.1850 -0.8595  0.3366
   29MOL0     H 3881   8.282  -0.292   8.189 -1.3509  1.5669  0.3386
   29MOL0     H 3882   8.315  -0.137   8.098 -1.7328  1.1534 -2.5679
   29MOL0     H 3883   8.085  -0.240   8.135  1.6582 -0.7755  1.1431
   29MOL0     H 3884   8.146  -0.133   8.008  2.4020 -0.6058 -0.3410
   29MOL0     H 3885   8.121  -0.431   7.967  0.5724  0.5979  0.5119
   29MOL0     H 3886   8.146  -0.305   7.839 -0.4353  0.0838 -0.0267
   29MOL0     H 3887   7.908  -0.220   7.899  1.5974  0.5075 -2.5522
   29MOL0     H 3888   7.913  -0.329   8.036  0.9434  0.3418 -0.5923
   29MOL0     H 3889   7.909  -0.518   7.909 -0.3061 -0.4117 -0.7128
   29MOL0     H 3890   7.774  -0.412   7.865  0.3769 -0.3043  3.1098
   29MOL0     H 3891   8.037  -0.472   7.710 -0.0743  0.1605  1.3433
   29MOL0     H 3892   7.917  -0.335   7.656  0.2757  0.3920 -0.7855
   29MOL0     H 3893   7.744  -0.510   7.613  0.3837  1.8033  0.6588
   29MOL0     H 3894   7.886  -0.531   7.527 -1.3598 -1.3247 -1.5212
   29MOL0     H 3895   8.414  -0.335   7.651 -0.2535 -1.1052 -0.1360
   29MOL0     H 3896   8.613  -0.363   7.522 -2.4192 -1.8454  0.9123
   29MOL0     H 3897   9.022  -0.556   7.559 -0.6046  0.4861  0.4097
   29MOL0     H 3898   9.236  -0.669   7.486  0.8037 -0.0601 -0.3827
   29MOL0     H 3899   8.132  -0.279   7.459  0.5406  0.8259 -3.8516
   29MOL0     H 3900   8.008  -0.138   7.613  2.1784 -3.0014  0.4997
   29MOL0     H 3901   7.968   0.185   8.040 -1.0214 -0.4394  0.1973
   29MOL0     H 3902   7.824   0.353   8.132  0.7786 -2.4609  0.9268
   29MOL0     H 3903   7.812   0.570   8.149  1.6634  0.8560 -2.0502
   29MOL0     H 3904   7.635   0.559   8.168 -0.8562  2.4740  0.9972
   29MOL0     H 3905   7.791   0.810   8.077 -0.8235  3.0188  1.2132
   29MOL0     H 3906   7.707   0.772   8.225  0.5368 -0.7285 -0.4534
   29MOL0     H 3907   7.506   0.730   8.049  2.6779 -1.0317 -2.9353
   29MOL0     H 3908   7.588   0.854   7.961  0.0739  3.9298  0.3618
   29MOL0     H 3909   7.596   1.003   8.148 -0.4451 -0.1383 -1.3641
   29MOL0     H 3910   7.443   0.959   8.058  1.0672  1.3199 -1.6075
   29MOL0     H 3911   7.376   0.827   8.460  1.4558 -2.9897  0.2885
   29MOL0     H 3912   7.780   0.528   7.741 -2.5179 -1.6143 -2.3366
   29MOL0     H 3913   7.842   0.422   7.532 -0.5458 -0.4168  1.5244
   29MOL0     H 3914   8.006   0.355   7.563 -0.2963  1.8661  1.0033
   29MOL0     H 3915   7.860   0.250   7.537  0.7213 -0.3197  0.5620
   30MOL0     O 3916   9.527   5.620   0.192  0.2376  0.5321 -0.5991
   30MOL0     C 3917   9.631   5.557   0.175  0.1932 -0.2640 -0.1098
   30MOL0     O 3918   9.755   5.611   0.176  0.0445 -0.2077 -0.6077
   30MOL0     C 3919   9.774   5.743   0.194 -0.6461 -0.9981 -0.4119
   30MOL0     C 3920   9.714   5.828   0.293  0.3524 -0.5742  0.7814
   30MOL0     C 3921   9.752   5.960   0.303  0.2729 -0.2726 -0.1872
   30MOL0     C 3922   9.844   6.015   0.227  0.0455 -0.2426 -0.4617
   30MOL0     O 3923   9.888   6.141   0.252  0.3005 -1.0719 -0.0822
   30MOL0     C 3924  10.031   6.163   0.238 -0.1272  0.0898 -0.3064
   30MOL0     C 3925  10.082   6.308   0.274 -0.2366  0.0692 -0.8099
   30MOL0     C 3926  10.036   6.410   0.180  0.7669 -0.2810 -0.2261
   30MOL0     C 3927  10.044   6.549   0.232  0.7188 -0.6933  0.3697
   30MOL0     C 3928  10.034   6.652   0.122 -0.0702  0.0177 -0.4782
   30MOL0     C 3929  10.084   6.787   0.172  0.8849  0.6342  1.0996
   30MOL0     C 3930  10.106   6.891   0.059  0.1258  1.1923  0.1931
   30MOL0     C 3931  10.113   7.037   0.101  0.4472  0.0211  0.0533
   30MOL0     N 3932  10.112   7.129  -0.015 -0.4323 -0.1839  0.7536
   30MOL0     C 3933  10.000   7.193  -0.077  0.0718 -0.5693 -0.4960
   30MOL0     C 3934  10.055   7.245  -0.190 -0.2165  0.3942  0.1646
   30MOL0     C 3935   9.993   7.321  -0.306 -0.2520  0.4336 -0.5221
   30MOL0     C 3936   9.891   7.416  -0.268  0.3171 -0.4103  0.0436
   30MOL0     C 3937   9.937   7.516  -0.159 -0.8696  0.1376 -0.1008
   30MOL0     C 3938  10.038   7.622  -0.210  0.3929 -0.1540  0.0172
   30MOL0     O 3939   9.994   7.721  -0.308 -0.1528  0.0330  0.2408
   30MOL0     C 3940   9.936   7.825  -0.249 -0.0393 -0.1366  1.4684
   30MOL0     C 3941   9.806   7.847  -0.263  0.1574  0.5899 -0.3982
   30MOL0     C 3942   9.743   7.960  -0.207 -0.3563 -0.2063  0.1809
   30MOL0     C 3943   9.811   8.041  -0.113  0.9569 -0.0597  0.4064
   30MOL0     C 3944   9.747   8.144  -0.034 -0.0561 -0.0109 -0.4276
   30MOL0     O 3945   9.612   8.131  -0.037 -0.1818  0.4154 -1.5217
   30MOL0     C 3946   9.542   8.222   0.042  0.0088 -0.6955 -0.2844
   30MOL0     C 3947   9.525   8.356  -0.011 -0.4102 -0.2632 -0.2919
   30MOL0     C 3948   9.431   8.447   0.042 -1.0249 -0.6147  0.2592
   30MOL0     C 3949   9.360   8.408   0.152  0.4243  0.4502  0.4367
   30MOL0     O 3950   9.279   8.511   0.210 -0.5211  1.3149 -0.1584
   30MOL0     C 3951   9.158   8.464   0.274  0.7670  0.0551  0.1303
   30MOL0     C 3952   9.042   8.555   0.240  0.1520  0.6399  0.2981
   30MOL0     C 3953   8.921   8.529   0.324  0.4173  1.1145 -0.5611
   30MOL0     C 3954   8.860   8.655   0.379 -0.5088 -0.4975 -0.0269
   30MOL0     C 3955   8.727   8.648   0.443  1.0989  0.2390  0.1371
   30MOL0     C 3956   8.683   8.774   0.516  0.3540  0.0932  0.7642
   30MOL0     C 3957   8.531   8.771   0.539 -0.2335  0.6632 -0.1964
   30MOL0     C 3958   8.502   8.883   0.644  0.1354 -0.9510  0.4879
   30MOL0    Cl 3959   8.333   8.943   0.641  0.6636  0.6565 -0.1457
   30MOL0     C 3960   9.388   8.291   0.222 -0.2153  0.4376 -0.8067
   30MOL0     C 3961   9.473   8.198   0.160 -1.5839  0.2136  0.4313
   30MOL0     O 3962   9.811   8.219   0.038  0.3277 -0.0014  0.3683
   30MOL0     C 3963   9.949   8.014  -0.107  0.5776  0.0978  0.1779
   30MOL0     C 3964  10.016   7.921  -0.187  0.1436 -0.0198  0.7807
   30MOL0     N 3965  10.194   7.221  -0.183 -0.2192  0.7675 -0.3034
   30MOL0     N 3966  10.228   7.157  -0.076  0.0652  0.3697  1.0771
   30MOL0     C 3967   9.900   5.938   0.122  0.2709  0.0659 -0.2078
   30MOL0     C 3968   9.864   5.804   0.102 -0.0160  0.3305 -0.3997
   30MOL0     C 3969   9.616   5.415   0.129 -0.0350 -0.7266 -0.7470
   30MOL0     C 3970   9.736   5.346   0.108 -0.2476 -1.0633  0.2887
   30MOL0     C 3971   9.746   5.205   0.085  0.1053  1.2766  0.0477
   30MOL0     C 3972   9.619   5.141   0.066  0.2242  0.1210 -0.6086
   30MOL0     O 3973   9.619   5.013   0.028 -0.7564  0.9251  0.4072
   30MOL0     C 3974   9.595   4.917   0.132 -0.2103  0.2411  0.0037
   30MOL0     C 3975   9.547   4.779   0.084  0.3003  0.2764 -0.0838
   30MOL0     C 3976   9.399   4.773   0.054  0.5008  0.0563 -0.0579
   30MOL0     C 3977   9.334   4.631   0.063 -0.6035 -0.9310 -0.3721
   30MOL0     C 3978   9.191   4.645   0.071 -0.1682  1.3045  1.7070
   30MOL0     C 3979   9.080   4.687   0.038 -0.5297 -0.0288  0.0886
   30MOL0     C 3980   9.496   5.210   0.072 -0.3397  0.5940  0.6130
   30MOL0     C 3981   9.492   5.340   0.116  0.2732 -0.2755  0.0249
   30MOL0     C 3982   9.364   5.413   0.115  0.4388 -0.7845  0.3411
   30MOL0     H 3983   9.648   5.785   0.368 -3.0080 -0.4302 -1.8887
   30MOL0     H 3984   9.708   6.030   0.374  1.3554 -0.3881  0.6292
   30MOL0     H 3985  10.097   6.096   0.295 -2.0765 -0.7773  1.0341
   30MOL0     H 3986  10.051   6.150   0.131  0.5572 -2.7807  0.0779
   30MOL0     H 3987  10.190   6.309   0.287 -0.3874 -0.9818  0.8641
   30MOL0     H 3988  10.047   6.338   0.374 -0.6878  1.9020 -1.4809
   30MOL0     H 3989   9.933   6.392   0.147  1.0713 -2.5177 -0.0925
   30MOL0     H 3990  10.086   6.396   0.083 -0.2664  0.2862 -0.8699
   30MOL0     H 3991   9.963   6.564   0.304  2.1851 -0.7038  2.0843
   30MOL0     H 3992  10.140   6.573   0.278  0.3077  2.0592 -0.0041
   30MOL0     H 3993  10.088   6.620   0.032  2.5449  0.0144  0.9850
   30MOL0     H 3994   9.926   6.657   0.106 -0.4986 -0.2958  1.9918
   30MOL0     H 3995  10.012   6.831   0.241  0.8782  0.1708  1.3921
   30MOL0     H 3996  10.177   6.775   0.228  0.1648 -2.5875  1.7752
   30MOL0     H 3997  10.008   6.888   0.012 -0.5385 -1.6141  1.5523
   30MOL0     H 3998  10.186   6.859  -0.009  0.4718  3.0694 -0.3254
   30MOL0     H 3999  10.033   7.057   0.173  1.4027 -0.7021  1.3720
   30MOL0     H 4000  10.209   7.035   0.154 -0.3745 -1.6069  1.5948
   30MOL0     H 4001   9.894   7.185  -0.053 -0.1137 -1.3311 -1.5227
   30MOL0     H 4002  10.077   7.368  -0.358  2.1584 -4.4378 -1.5846
   30MOL0     H 4003   9.937   7.257  -0.374 -3.6425 -0.7969  3.0302
   30MOL0     H 4004   9.864   7.476  -0.355  0.4734 -1.4828 -0.7629
   30MOL0     H 4005   9.796   7.368  -0.246 -1.3045  3.1352  1.6116
   30MOL0     H 4006   9.952   7.475  -0.058 -0.1959 -1.0408 -0.6538
   30MOL0     H 4007   9.847   7.569  -0.129 -2.2542 -1.1456 -1.7750
   30MOL0     H 4008  10.123   7.570  -0.256 -0.0653 -1.9734  1.1221
   30MOL0     H 4009  10.083   7.671  -0.123  1.7351 -0.0443 -0.7098
   30MOL0     H 4010   9.750   7.779  -0.327  3.6804 -2.8355 -0.2706
   30MOL0     H 4011   9.642   7.982  -0.240 -0.5475 -2.1267 -0.6540
   30MOL0     H 4012   9.590   8.395  -0.089  1.2437  0.7035  1.4810
   30MOL0     H 4013   9.417   8.550   0.013 -0.7613  0.6165  3.9094
   30MOL0     H 4014   9.132   8.364   0.240 -0.0830  0.6495 -1.0467
   30MOL0     H 4015   9.184   8.457   0.380  3.6240  0.1936 -0.4782
   30MOL0     H 4016   9.076   8.654   0.273 -3.8794  2.0367  0.7449
   30MOL0     H 4017   9.023   8.543   0.133  0.2939 -0.4761  0.3896
   30MOL0     H 4018   8.843   8.492   0.256  0.2967 -0.6044  0.4394
   30MOL0     H 4019   8.936   8.457   0.406  0.3940 -1.1924 -2.4588
   30MOL0     H 4020   8.844   8.711   0.287 -0.7677  1.4134  1.1396
   30MOL0     H 4021   8.931   8.704   0.446  1.2237 -2.0355 -0.6363
   30MOL0     H 4022   8.737   8.566   0.515 -0.2420  0.7919  1.0094
   30MOL0     H 4023   8.657   8.615   0.365 -0.5828  2.9819  0.3513
   30MOL0     H 4024   8.729   8.785   0.614 -1.6961 -0.5894  1.8557
   30MOL0     H 4025   8.724   8.859   0.461  0.5804 -1.0030 -0.8536
   30MOL0     H 4026   8.504   8.675   0.584 -0.5646  0.0239 -1.6848
   30MOL0     H 4027   8.481   8.793   0.444 -0.4338 -0.8331 -0.4581
   30MOL0     H 4028   8.541   8.844   0.738  2.2491  0.1571  0.1423
   30MOL0     H 4029   8.569   8.963   0.610 -1.5026  0.1852 -0.1464
   30MOL0     H 4030   9.329   8.264   0.308 -0.3094 -0.3603 -1.1071
   30MOL0     H 4031   9.490   8.106   0.214 -1.5278 -1.3788 -2.1520
   30MOL0     H 4032   9.998   8.085  -0.041 -1.4718  1.2650  0.5458
   30MOL0     H 4033  10.123   7.907  -0.203  0.0218  1.2197 -1.3718
   30MOL0     H 4034   9.979   5.985   0.063  1.6596  1.1431  2.3451
   30MOL0     H 4035   9.903   5.749   0.018  0.2071 -0.0305 -0.0652
   30MOL0     H 4036   9.832   5.396   0.116 -0.2506 -1.1154  0.6308
   30MOL0     H 4037   9.834   5.142   0.099 -0.0978  0.4574 -2.0570
   30MOL0     H 4038   9.531   4.956   0.212  1.0078 -0.6107  1.4431
   30MOL0     H 4039   9.694   4.902   0.177 -1.0109  0.1259  1.8238
   30MOL0     H 4040   9.573   4.702   0.157 -1.5786 -1.2868 -0.9417
   30MOL0     H 4041   9.607   4.762  -0.006  0.0018 -2.6732  0.1871
   30MOL0     H 4042   9.362   4.820  -0.037 -2.4004 -1.2493  0.3270
   30MOL0     H 4043   9.342   4.822   0.133 -1.4581 -2.7548  0.4488
   30MOL0     H 4044   9.370   4.571  -0.022 -2.7884 -0.2832 -1.8682
   30MOL0     H 4045   9.366   4.581   0.155 -2.0969  1.1847  1.3872
   30MOL0     H 4046   8.984   4.711  -0.002 -0.5554  0.7159  0.5666
   30MOL0     H 4047   9.407   5.155   0.042 -0.6955  1.3240  0.3166
   30MOL0     H 4048   9.354   5.483   0.031  1.3441 -2.5483 -1.3078
   30MOL0     H 4049   9.282   5.347   0.086 -1.6939  3.0831 -3.7004
   30MOL0     H 4050   9.338   5.453   0.213 -1.6972  1.2206 -0.9258
   31MOL0     O 4051   9.280   3.486   3.644 -0.2615 -0.7791 -0.0738
   31MOL0     C 4052   9.397   3.458   3.609 -0.7324  0.6281  0.7228
   31MOL0     O 4053   9.465   3.341   3.637  0.2571 -0.1338 -0.2664
   31MOL0     C 4054   9.393   3.251   3.703 -0.4819  0.1747  0.3676
   31MOL0     C 4055   9.314   3.156   3.630  0.5184  0.5250 -0.3196
   31MOL0     C 4056   9.213   3.080   3.688  0.1436  0.0073  0.0872
   31MOL0     C 4057   9.201   3.084   3.828  1.3721 -0.1035 -0.1479
   31MOL0     O 4058   9.098   3.011   3.884  0.3432 -0.2353  0.4419
   31MOL0     C 4059   9.056   3.037   4.020  0.1036  0.3529  0.6371
   31MOL0     C 4060   8.929   2.959   4.014  0.3783 -0.2093 -0.3664
   31MOL0     C 4061   8.847   2.973   4.149  0.4380 -0.2466  0.4790
   31MOL0     C 4062   8.734   2.876   4.157 -0.5846  0.4242  0.2038
   31MOL0     C 4063   8.652   2.909   4.287  0.7128 -0.1035  0.0588
   31MOL0     C 4064   8.518   2.816   4.266 -0.0789  0.9410 -0.0409
   31MOL0     C 4065   8.424   2.835   4.388 -0.1620  0.3581 -0.1074
   31MOL0     C 4066   8.294   2.765   4.346  0.5338  1.3572  0.3835
   31MOL0     N 4067   8.179   2.780   4.439  0.8322 -0.0343  0.1315
   31MOL0     C 4068   8.145   2.891   4.506  0.4726 -0.9361  0.5735
   31MOL0     C 4069   8.041   2.859   4.582 -0.5284 -0.0245 -0.1260
   31MOL0     C 4070   7.971   2.954   4.679 -0.5220  0.2624 -1.2291
   31MOL0     C 4071   8.018   2.920   4.815 -0.9813 -0.3034 -0.7986
   31MOL0     C 4072   8.158   2.987   4.845  0.0942 -0.0549  0.0751
   31MOL0     C 4073   8.228   2.914   4.960 -0.4504  0.6487  0.4119
   31MOL0     O 4074   8.337   2.992   5.015  0.2187  0.2311 -0.2046
   31MOL0     C 4075   8.401   2.948   5.132 -0.6318  0.2941  0.1567
   31MOL0     C 4076   8.365   2.835   5.200 -0.6754 -0.6144 -0.2783
   31MOL0     C 4077   8.440   2.804   5.317 -0.4900 -0.4952  0.0660
   31MOL0     C 4078   8.550   2.880   5.364  0.1339  0.9873  0.0053
   31MOL0     C 4079   8.631   2.838   5.478 -0.4393  1.0507 -0.1668
   31MOL0     O 4080   8.753   2.899   5.479  1.1824 -0.0262 -0.6090
   31MOL0     C 4081   8.838   2.877   5.586 -0.4997  0.0322 -0.7251
   31MOL0     C 4082   8.978   2.864   5.560 -0.0466 -0.7712  0.0297
   31MOL0     C 4083   9.065   2.856   5.668 -0.0053  1.2796 -0.8151
   31MOL0     C 4084   9.021   2.841   5.798 -0.7498  0.8565 -0.4798
   31MOL0     O 4085   9.105   2.838   5.907  0.4259 -0.3901 -0.1890
   31MOL0     C 4086   9.170   2.966   5.941 -0.4918 -0.1510 -0.3866
   31MOL0     C 4087   9.322   2.945   5.952  0.5794  0.2796 -0.4973
   31MOL0     C 4088   9.383   2.841   6.043 -0.0355  0.0063 -0.2495
   31MOL0     C 4089   9.542   2.846   6.052 -0.7280 -0.5102 -0.3960
   31MOL0     C 4090   9.585   2.706   6.098 -0.2336 -0.3103 -0.5984
   31MOL0     C 4091   9.741   2.689   6.109 -0.6033 -0.1572  0.3139
   31MOL0     C 4092   9.804   2.565   6.170 -0.3625  0.0703  0.4810
   31MOL0     C 4093   9.769   2.548   6.317  0.1577 -0.4182  0.5169
   31MOL0    Cl 4094   9.848   2.399   6.366 -0.1695  0.6719 -0.1864
   31MOL0     C 4095   8.881   2.846   5.827  0.2578  1.4162 -0.0574
   31MOL0     C 4096   8.795   2.861   5.724 -0.4319  0.0624  0.5367
   31MOL0     O 4097   8.596   2.741   5.552  0.1577 -0.3370 -0.0702
   31MOL0     C 4098   8.581   2.991   5.297 -0.1300  0.9916 -0.0687
   31MOL0     C 4099   8.504   3.022   5.179 -0.1598 -0.0968 -0.2643
   31MOL0     N 4100   8.008   2.724   4.565  0.0808  0.7133 -0.1869
   31MOL0     N 4101   8.099   2.680   4.486  0.3329 -0.1858  0.9045
   31MOL0     C 4102   9.283   3.170   3.900  1.1174  0.0706 -0.1712
   31MOL0     C 4103   9.383   3.249   3.842 -0.3739 -0.4933  0.3928
   31MOL0     C 4104   9.477   3.565   3.551  0.7490  0.2364 -1.0880
   31MOL0     C 4105   9.461   3.691   3.608 -0.6964 -0.4625 -0.1090
   31MOL0     C 4106   9.522   3.799   3.547  0.7027 -0.1662  0.2239
   31MOL0     C 4107   9.606   3.787   3.432  1.0333 -0.6818 -1.0970
   31MOL0     O 4108   9.657   3.907   3.376  0.0466 -0.3549 -0.0246
   31MOL0     C 4109   9.752   3.900   3.273  0.0738  0.0877  1.3444
   31MOL0     C 4110   9.773   4.040   3.204 -0.2522  0.6830  1.4909
   31MOL0     C 4111   9.644   4.124   3.163 -0.8149 -0.5269 -0.7955
   31MOL0     C 4112   9.682   4.257   3.085 -0.0061 -0.2445  0.0648
   31MOL0     C 4113   9.741   4.223   2.949 -0.5611 -0.3117 -0.2666
   31MOL0     C 4114   9.785   4.188   2.842  0.8055 -0.5392  0.4265
   31MOL0     C 4115   9.625   3.656   3.385 -0.1503  0.0661 -0.6443
   31MOL0     C 4116   9.563   3.544   3.440 -0.6340  1.0370  0.8676
   31MOL0     C 4117   9.589   3.407   3.387 -0.7191  0.5435  0.4205
   31MOL0     H 4118   9.339   3.144   3.525  1.4551  3.3857 -0.4973
   31MOL0     H 4119   9.148   3.016   3.630 -2.0593  1.3078  1.0225
   31MOL0     H 4120   9.127   2.989   4.088 -2.0109 -2.3766  1.1103
   31MOL0     H 4121   9.033   3.143   4.035 -3.5404  0.0162 -1.5043
   31MOL0     H 4122   8.948   2.854   3.991 -1.7732 -1.0018  1.1841
   31MOL0     H 4123   8.876   3.008   3.932  2.8625  1.5544 -1.0580
   31MOL0     H 4124   8.809   3.076   4.144  1.9401  0.2901 -1.7512
   31MOL0     H 4125   8.918   2.969   4.232 -0.7764  1.6308  1.6834
   31MOL0     H 4126   8.660   2.899   4.080  0.2613  2.3388 -0.1143
   31MOL0     H 4127   8.780   2.778   4.143  0.3122  0.2700  3.4228
   31MOL0     H 4128   8.714   2.879   4.372  2.8017  2.3063 -0.4749
   31MOL0     H 4129   8.624   3.015   4.299  0.7769 -0.1770  0.9098
   31MOL0     H 4130   8.474   2.855   4.174  1.3952 -0.7521 -1.5781
   31MOL0     H 4131   8.537   2.708   4.255 -1.4475  0.6102  0.6166
   31MOL0     H 4132   8.410   2.942   4.404 -3.4334  0.3501 -2.0371
   31MOL0     H 4133   8.459   2.784   4.479  0.3142  1.1723  0.1765
   31MOL0     H 4134   8.258   2.800   4.249 -0.8574  0.0427  0.3901
   31MOL0     H 4135   8.311   2.657   4.340 -0.6878  1.1668 -0.1370
   31MOL0     H 4136   8.195   2.986   4.493  0.8071 -1.1084  0.5876
   31MOL0     H 4137   7.997   3.058   4.656 -1.3543  1.0333  1.0500
   31MOL0     H 4138   7.865   2.928   4.684  0.4347 -4.2088  2.7987
   31MOL0     H 4139   7.949   2.967   4.886 -0.1859 -0.8617  0.3787
   31MOL0     H 4140   8.022   2.812   4.827 -0.8997 -0.5696 -2.9816
   31MOL0     H 4141   8.148   3.093   4.870 -1.3602 -0.2962  0.6263
   31MOL0     H 4142   8.221   2.968   4.758  1.1762  0.7853  0.6601
   31MOL0     H 4143   8.272   2.825   4.914  1.6245  1.6681  0.3021
   31MOL0     H 4144   8.163   2.888   5.044  0.3849 -1.1053  0.5580
   31MOL0     H 4145   8.276   2.779   5.177 -0.2107 -1.1143 -0.9083
   31MOL0     H 4146   8.412   2.713   5.368  0.2737  0.9063  3.1986
   31MOL0     H 4147   9.023   2.869   5.462 -0.3619 -0.7834 -0.1167
   31MOL0     H 4148   9.171   2.847   5.651 -0.3664 -0.2770 -2.5951
   31MOL0     H 4149   9.156   3.040   5.862 -1.4653  2.6832  2.2076
   31MOL0     H 4150   9.146   3.006   6.041  0.9079  0.8863 -0.4448
   31MOL0     H 4151   9.358   2.925   5.850 -0.3651  0.7226 -0.9265
   31MOL0     H 4152   9.370   3.038   5.983  2.2229 -0.8586  0.5629
   31MOL0     H 4153   9.346   2.842   6.146 -1.4241 -2.5642 -0.6492
   31MOL0     H 4154   9.349   2.747   6.000 -0.4868  1.0887 -2.3979
   31MOL0     H 4155   9.578   2.924   6.119  0.1915  1.4373 -2.9942
   31MOL0     H 4156   9.589   2.875   5.957 -0.4289  0.1380 -0.0503
   31MOL0     H 4157   9.553   2.639   6.018  1.6885  0.7846 -2.3986
   31MOL0     H 4158   9.526   2.673   6.183  0.5803  0.6207  0.3544
   31MOL0     H 4159   9.783   2.699   6.009  0.3524 -0.6855  0.6450
   31MOL0     H 4160   9.784   2.766   6.175  1.2448 -1.2704  0.4979
   31MOL0     H 4161   9.913   2.563   6.161 -0.1589  3.1507  1.1830
   31MOL0     H 4162   9.772   2.475   6.117 -0.2949 -1.8624  3.4769
   31MOL0     H 4163   9.795   2.637   6.376  1.2212 -0.3109 -0.0824
   31MOL0     H 4164   9.661   2.534   6.324 -0.3751 -0.2297 -4.1565
   31MOL0     H 4165   8.845   2.842   5.929 -0.2187 -0.2587 -0.2577
   31MOL0     H 4166   8.686   2.866   5.733 -0.5011  2.6437 -0.6392
   31MOL0     H 4167   8.674   3.043   5.318  0.0030  1.2282 -1.1801
   31MOL0     H 4168   8.542   3.102   5.115  2.1189 -0.4573  0.5446
   31MOL0     H 4169   9.273   3.162   4.008 -0.3145  1.2974 -0.1706
   31MOL0     H 4170   9.450   3.311   3.901  1.8375 -0.2142 -2.2210
   31MOL0     H 4171   9.385   3.707   3.684 -0.7685 -1.3835  0.0178
   31MOL0     H 4172   9.512   3.899   3.587 -1.8058  0.4472 -1.7161
   31MOL0     H 4173   9.728   3.829   3.193 -0.2204  2.5444 -0.8984
   31MOL0     H 4174   9.846   3.862   3.313 -0.7473 -3.8442 -0.0232
   31MOL0     H 4175   9.829   4.021   3.112  3.1915 -1.8136  3.8371
   31MOL0     H 4176   9.824   4.107   3.274  0.3261 -0.6243  2.3757
   31MOL0     H 4177   9.589   4.157   3.252 -1.0946  0.3864 -1.2863
   31MOL0     H 4178   9.584   4.059   3.100 -0.8328 -0.6605 -0.6414
   31MOL0     H 4179   9.589   4.315   3.079 -0.4903 -0.9795  0.3266
   31MOL0     H 4180   9.757   4.308   3.146 -0.5358  0.3093  0.2629
   31MOL0     H 4181   9.816   4.148   2.748  2.7902 -1.7365  1.5359
   31MOL0     H 4182   9.697   3.651   3.304  1.9515  1.2844  1.0607
   31MOL0     H 4183   9.627   3.429   3.286 -0.2761 -2.5090 -0.1999
   31MOL0     H 4184   9.663   3.343   3.436 -2.3376 -1.0862  0.8596
   31MOL0     H 4185   9.496   3.349   3.387  0.0281 -0.8374  3.4822
   32MOL0     O 4186   4.706   8.136   5.556 -0.6641 -0.6936  0.3830
   32MOL0     C 4187   4.664   8.022   5.585 -0.9842 -0.2894  0.6194
   32MOL0     O 4188   4.741   7.926   5.642 -0.1316  0.2222  0.1773
   32MOL0     C 4189   4.869   7.948   5.686 -0.0579  0.6778 -0.7275
   32MOL0     C 4190   4.898   8.036   5.785 -0.5375 -0.2076  0.1520
   32MOL0     C 4191   5.029   8.063   5.820 -0.0184  0.4857 -0.6197
   32MOL0     C 4192   5.136   7.984   5.769  0.5228  0.6234 -0.9848
   32MOL0     O 4193   5.263   8.001   5.828 -0.5666 -0.6444  0.2812
   32MOL0     C 4194   5.378   7.970   5.747  0.3090  0.1695 -0.5807
   32MOL0     C 4195   5.438   7.834   5.775  0.0361  0.7120  0.4569
   32MOL0     C 4196   5.561   7.853   5.880 -0.5049 -0.4024  0.3039
   32MOL0     C 4197   5.619   7.713   5.885 -0.3095  0.2623 -0.0324
   32MOL0     C 4198   5.705   7.680   6.012  0.1472  0.0947 -0.8622
   32MOL0     C 4199   5.814   7.769   6.048 -0.5589 -0.4338  0.5193
   32MOL0     C 4200   5.883   7.721   6.172 -0.1185 -0.4496 -1.1717
   32MOL0     C 4201   6.008   7.641   6.138  0.6604 -0.8498 -0.0325
   32MOL0     N 4202   6.046   7.553   6.246  0.2771 -0.0147 -0.5065
   32MOL0     C 4203   6.146   7.578   6.345 -0.3906 -0.4798  1.2764
   32MOL0     C 4204   6.170   7.461   6.397  0.3696  0.0029 -0.1675
   32MOL0     C 4205   6.308   7.447   6.468 -0.4631  0.0090  0.1641
   32MOL0     C 4206   6.268   7.451   6.611 -0.3639  1.0714  0.1282
   32MOL0     C 4207   6.377   7.429   6.713  0.5800 -0.0993  0.2672
   32MOL0     C 4208   6.350   7.507   6.847  0.2989  0.7056 -0.4931
   32MOL0     O 4209   6.240   7.449   6.915  0.5364  0.4306  0.4330
   32MOL0     C 4210   6.269   7.347   7.003  0.1941 -0.2043 -0.4573
   32MOL0     C 4211   6.382   7.335   7.082  0.4623 -0.4044 -0.6143
   32MOL0     C 4212   6.393   7.221   7.172  0.0777  0.0924 -0.6338
   32MOL0     C 4213   6.292   7.120   7.168  0.1341  0.5485 -0.2352
   32MOL0     C 4214   6.301   7.003   7.252 -0.5143  1.0736 -0.5760
   32MOL0     O 4215   6.194   6.960   7.316 -0.4526 -1.1895 -0.3953
   32MOL0     C 4216   6.213   6.874   7.416 -0.4847  0.8325  0.3878
   32MOL0     C 4217   6.287   6.756   7.397 -1.1018  0.3836 -0.5457
   32MOL0     C 4218   6.300   6.675   7.515 -0.4936 -0.2388 -0.4008
   32MOL0     C 4219   6.249   6.703   7.639 -0.4488  0.3625  0.2616
   32MOL0     O 4220   6.262   6.624   7.748  0.4057  0.4798  0.1621
   32MOL0     C 4221   6.398   6.618   7.793 -0.8345 -0.0556 -0.4147
   32MOL0     C 4222   6.418   6.552   7.936 -0.2650 -0.5155  0.7289
   32MOL0     C 4223   6.321   6.574   8.053  0.1646 -0.6147 -0.0637
   32MOL0     C 4224   6.275   6.714   8.082 -1.0932  0.2208  0.7291
   32MOL0     C 4225   6.158   6.713   8.175  1.1467  0.2816  1.7042
   32MOL0     C 4226   6.097   6.858   8.181  0.3545 -0.5365  0.1238
   32MOL0     C 4227   5.974   6.859   8.270 -0.4451  0.1475 -0.0825
   32MOL0     C 4228   5.846   6.867   8.192  0.0862  0.1899  0.6233
   32MOL0    Cl 4229   5.715   6.818   8.313  0.6202 -0.1120  0.5506
   32MOL0     C 4230   6.179   6.827   7.646 -0.7461 -0.5534  0.4498
   32MOL0     C 4231   6.156   6.910   7.537 -0.4402  0.7771  0.8054
   32MOL0     O 4232   6.420   6.964   7.269 -0.0519  0.3696 -0.1279
   32MOL0     C 4233   6.184   7.133   7.085 -0.2953  0.0825  0.4771
   32MOL0     C 4234   6.175   7.245   7.003 -0.0996  0.1311 -0.3470
   32MOL0     N 4235   6.081   7.365   6.343  0.4452 -0.3601  0.4209
   32MOL0     N 4236   6.006   7.420   6.260 -0.2254  0.3734  0.3453
   32MOL0     C 4237   5.106   7.897   5.668  0.8130 -0.4512 -0.4283
   32MOL0     C 4238   4.972   7.876   5.632 -0.1411 -0.0594  0.4264
   32MOL0     C 4239   4.522   7.983   5.567  1.0388 -1.5441 -1.0135
   32MOL0     C 4240   4.462   7.896   5.651  0.3175 -0.3544 -0.7500
   32MOL0     C 4241   4.324   7.865   5.632 -0.5113  0.0974 -0.4122
   32MOL0     C 4242   4.253   7.924   5.526  0.6786  0.1380 -0.4057
   32MOL0     O 4243   4.127   7.876   5.498 -0.1774 -0.2198 -0.2444
   32MOL0     C 4244   4.083   7.875   5.362  1.1765  0.3189  0.0609
   32MOL0     C 4245   4.161   7.771   5.277  0.1688 -0.5189  0.7391
   32MOL0     C 4246   4.121   7.630   5.311  0.1743 -0.2523  0.3931
   32MOL0     C 4247   4.180   7.534   5.200  0.8298  0.3294 -0.3563
   32MOL0     C 4248   4.091   7.531   5.081  0.1967 -0.2154 -1.0480
   32MOL0     C 4249   4.040   7.545   4.974  0.1434  0.5385  0.3292
   32MOL0     C 4250   4.309   8.026   5.455 -0.1697  0.4707 -0.6576
   32MOL0     C 4251   4.446   8.055   5.468 -0.0113 -0.4647 -0.6373
   32MOL0     C 4252   4.502   8.160   5.370  0.0433  0.0775 -0.5441
   32MOL0     H 4253   4.818   8.093   5.832 -2.1364 -0.9412 -1.5679
   32MOL0     H 4254   5.051   8.130   5.903  1.0758 -2.6711  1.8525
   32MOL0     H 4255   5.343   7.989   5.646 -1.3181 -0.9235 -0.2605
   32MOL0     H 4256   5.459   8.042   5.764 -0.8436  0.8696  2.7372
   32MOL0     H 4257   5.469   7.793   5.679  1.5765  3.3303 -0.2715
   32MOL0     H 4258   5.355   7.775   5.814 -1.5035  1.0375 -2.1330
   32MOL0     H 4259   5.521   7.897   5.972  0.4183 -0.6193  0.8166
   32MOL0     H 4260   5.636   7.924   5.844  1.0434 -1.2814  1.6815
   32MOL0     H 4261   5.537   7.641   5.890  1.7540 -2.2654 -0.5031
   32MOL0     H 4262   5.684   7.695   5.800 -0.3701  0.5476 -0.1394
   32MOL0     H 4263   5.632   7.685   6.093 -0.9756  2.7503 -1.9336
   32MOL0     H 4264   5.754   7.583   5.994 -0.4582 -0.6606  1.3009
   32MOL0     H 4265   5.878   7.792   5.962 -1.2072 -1.4993 -0.2758
   32MOL0     H 4266   5.759   7.861   6.073 -0.3938 -0.2871  0.3472
   32MOL0     H 4267   5.805   7.652   6.205 -1.8117 -1.0493 -5.7775
   32MOL0     H 4268   5.913   7.802   6.240  0.9453 -0.3380 -1.7595
   32MOL0     H 4269   5.991   7.569   6.057 -0.4611 -1.3844  0.6626
   32MOL0     H 4270   6.090   7.708   6.109  0.8612 -1.0089  0.1662
   32MOL0     H 4271   6.205   7.669   6.345  0.2625 -0.7789 -1.9247
   32MOL0     H 4272   6.353   7.350   6.448  1.7962  0.6114  1.9135
   32MOL0     H 4273   6.375   7.526   6.434 -1.9775  1.1025 -0.4259
   32MOL0     H 4274   6.239   7.555   6.629 -1.0885  0.8946 -0.0027
   32MOL0     H 4275   6.185   7.384   6.633  2.1405 -1.6930  1.8019
   32MOL0     H 4276   6.467   7.470   6.666  0.4376 -0.8569 -0.7112
   32MOL0     H 4277   6.388   7.321   6.729 -0.0030 -0.5621 -2.0790
   32MOL0     H 4278   6.322   7.607   6.811 -0.2050 -0.5074 -3.8948
   32MOL0     H 4279   6.438   7.515   6.911 -1.1619 -1.5424  2.0024
   32MOL0     H 4280   6.461   7.409   7.077 -1.0529  1.2525 -0.9843
   32MOL0     H 4281   6.475   7.200   7.240 -3.1725 -1.7021  3.1025
   32MOL0     H 4282   6.326   6.721   7.302  0.0151 -0.2584  0.1326
   32MOL0     H 4283   6.345   6.576   7.508 -1.9717 -0.9362 -0.3313
   32MOL0     H 4284   6.465   6.574   7.719  2.0557  2.8718  0.2093
   32MOL0     H 4285   6.433   6.721   7.808  2.3439 -1.2234  0.9515
   32MOL0     H 4286   6.415   6.444   7.922 -0.2538 -0.7244  2.1917
   32MOL0     H 4287   6.517   6.587   7.964 -0.5899 -0.0378  1.3185
   32MOL0     H 4288   6.236   6.511   8.022 -0.2555  0.4868 -1.2754
   32MOL0     H 4289   6.371   6.527   8.137  0.9890  0.6915  0.2084
   32MOL0     H 4290   6.239   6.755   7.987  0.4751 -1.2566 -0.5843
   32MOL0     H 4291   6.358   6.776   8.114  1.4474 -1.5538 -1.8565
   32MOL0     H 4292   6.191   6.694   8.278 -2.0353  0.2293  2.8199
   32MOL0     H 4293   6.089   6.640   8.133  2.2915  0.7227 -1.1729
   32MOL0     H 4294   6.168   6.935   8.211 -0.1287  1.7809 -3.9979
   32MOL0     H 4295   6.058   6.884   8.082 -1.0110 -1.8101  0.2863
   32MOL0     H 4296   5.979   6.946   8.336 -1.9745 -0.5840  1.0573
   32MOL0     H 4297   5.963   6.767   8.328 -0.0381 -0.7910 -1.4325
   32MOL0     H 4298   5.829   6.970   8.159  1.4198 -0.1154 -1.1190
   32MOL0     H 4299   5.833   6.794   8.112  1.7966 -1.5045  1.8033
   32MOL0     H 4300   6.147   6.865   7.743 -1.0212  0.4380 -0.0173
   32MOL0     H 4301   6.101   7.004   7.540 -1.5568  0.3243 -1.8884
   32MOL0     H 4302   6.113   7.051   7.089 -0.2744  0.0602  0.3776
   32MOL0     H 4303   6.083   7.263   6.947  0.7653 -0.7191 -2.1259
   32MOL0     H 4304   5.172   7.833   5.611 -0.5465 -0.9587 -1.4991
   32MOL0     H 4305   4.941   7.806   5.554 -1.1702 -1.4317  2.0107
   32MOL0     H 4306   4.525   7.861   5.731  2.0340  1.1934 -1.3441
   32MOL0     H 4307   4.283   7.797   5.706  1.1073  0.9091  1.3222
   32MOL0     H 4308   4.083   7.975   5.318  0.9336 -0.2933 -1.3941
   32MOL0     H 4309   3.983   7.831   5.352  1.1310  0.2421  0.8628
   32MOL0     H 4310   4.268   7.786   5.289 -0.1019  0.7182  1.8591
   32MOL0     H 4311   4.136   7.794   5.173  0.6169  0.1257  0.7696
   32MOL0     H 4312   4.013   7.627   5.327 -0.0290 -2.2083 -1.0634
   32MOL0     H 4313   4.169   7.604   5.406 -1.6057 -0.1699  1.3688
   32MOL0     H 4314   4.286   7.546   5.178  0.2710  1.5281 -2.6737
   32MOL0     H 4315   4.168   7.430   5.233 -0.9113  0.6690  0.2155
   32MOL0     H 4316   3.986   7.544   4.881  1.3915  2.2762 -0.4895
   32MOL0     H 4317   4.246   8.084   5.388  1.7001  2.7817 -0.5335
   32MOL0     H 4318   4.594   8.129   5.319  0.0449  1.0025 -1.1223
   32MOL0     H 4319   4.441   8.171   5.280  2.1526 -4.0901 -2.8144
   32MOL0     H 4320   4.511   8.258   5.416 -0.5869 -0.6344  1.1943
   33MOL0     O 4321  10.461   0.868   9.789 -0.0137 -0.7943  0.1176
   33MOL0     C 4322  10.472   0.805   9.674  0.1141 -0.5794 -0.7796
   33MOL0     O 4323  10.416   0.844   9.555 -0.3175 -0.6880  0.2903
   33MOL0     C 4324  10.307   0.925   9.564  0.1316  0.0009  0.6792
   33MOL0     C 4325  10.261   0.979   9.445  0.1190  0.0992  0.2683
   33MOL0     C 4326  10.150   1.054   9.434 -0.1794 -0.6004 -0.2146
   33MOL0     C 4327  10.069   1.082   9.545 -0.7584 -0.5645  0.4232
   33MOL0     O 4328   9.958   1.160   9.555 -0.5808 -0.3245 -0.5362
   33MOL0     C 4329   9.905   1.232   9.452 -0.7503 -1.1283  0.5186
   33MOL0     C 4330   9.779   1.301   9.483  0.7389 -1.3089  0.1251
   33MOL0     C 4331   9.760   1.343   9.630  0.0198  0.0928 -0.3363
   33MOL0     C 4332   9.661   1.452   9.651  0.1169  1.0557  0.5359
   33MOL0     C 4333   9.687   1.505   9.801  0.3269  0.0648  0.1519
   33MOL0     C 4334   9.724   1.415   9.920  0.6180  0.7165  0.0651
   33MOL0     C 4335   9.703   1.469  10.058 -0.5745 -0.2938  0.1562
   33MOL0     C 4336   9.768   1.378  10.166 -0.2929 -0.2901  0.0674
   33MOL0     N 4337   9.789   1.456  10.293  0.1365  0.2232 -0.0577
   33MOL0     C 4338   9.892   1.536  10.327  0.0182 -0.7453 -0.0141
   33MOL0     C 4339   9.860   1.576  10.452 -0.9022 -0.0926  0.2072
   33MOL0     C 4340   9.952   1.677  10.524 -0.0648  0.1646  0.3865
   33MOL0     C 4341   9.977   1.632  10.664 -0.3176 -0.0910 -0.2396
   33MOL0     C 4342  10.064   1.733  10.739 -0.3869 -0.8021  0.1871
   33MOL0     C 4343  10.044   1.734  10.895 -0.3450 -0.2079 -0.1797
   33MOL0     O 4344  10.158   1.801  10.950 -0.0062  0.1430  1.1318
   33MOL0     C 4345  10.269   1.729  10.976  0.4743 -0.8367  0.8964
   33MOL0     C 4346  10.377   1.804  11.020  0.4726 -0.1409 -0.3326
   33MOL0     C 4347  10.500   1.739  11.066 -0.2943 -0.1601 -0.0280
   33MOL0     C 4348  10.514   1.595  11.066  0.8538  0.8118 -0.5734
   33MOL0     C 4349  10.654   1.533  11.105 -0.2757 -0.4150 -0.6271
   33MOL0     O 4350  10.752   1.625  11.148 -0.6869  0.1682 -0.3187
   33MOL0     C 4351  10.877   1.584  11.186 -0.2027 -0.1816  0.7588
   33MOL0     C 4352  10.972   1.680  11.146 -0.2880  0.8186 -0.5424
   33MOL0     C 4353  11.108   1.666  11.170 -0.1194 -0.7810  0.2905
   33MOL0     C 4354  11.156   1.546  11.226 -0.0849  0.1472  1.1237
   33MOL0     O 4355  11.287   1.506  11.272  0.4822  0.3475  0.6061
   33MOL0     C 4356  11.397   1.590  11.232 -0.9910  0.1206  0.3349
   33MOL0     C 4357  11.529   1.528  11.256 -0.5184  0.2993 -0.5197
   33MOL0     C 4358  11.569   1.423  11.154  0.0322 -0.2890  0.0341
   33MOL0     C 4359  11.720   1.401  11.135  0.6544 -0.2917 -0.0359
   33MOL0     C 4360  11.765   1.305  11.021 -0.1135 -0.1386 -0.4395
   33MOL0     C 4361  11.914   1.332  10.969  0.3595  0.7433 -0.6423
   33MOL0     C 4362  12.012   1.326  11.088  0.2985 -0.7172 -0.3070
   33MOL0     C 4363  12.144   1.367  11.050 -0.8369 -0.1555  0.7814
   33MOL0    Cl 4364  12.273   1.374  11.172 -0.4453  0.1068 -0.1429
   33MOL0     C 4365  11.061   1.451  11.270 -0.3910 -0.3561 -0.0205
   33MOL0     C 4366  10.925   1.467  11.259  0.6443 -1.1568 -0.0059
   33MOL0     O 4367  10.665   1.407  11.106  0.1517 -0.5269 -0.0868
   33MOL0     C 4368  10.409   1.523  11.015 -0.0789  0.0957 -0.5444
   33MOL0     C 4369  10.292   1.590  10.977  0.3635  0.4379 -0.0638
   33MOL0     N 4370   9.738   1.534  10.489 -0.1896  0.4937  0.4507
   33MOL0     N 4371   9.691   1.471  10.386  0.1942  0.4160 -0.5032
   33MOL0     C 4372  10.101   1.023   9.669 -0.2836  0.1034 -0.4535
   33MOL0     C 4373  10.216   0.944   9.677  0.9846  0.4743  0.4700
   33MOL0     C 4374  10.568   0.686   9.658  0.1453 -0.7099  0.8936
   33MOL0     C 4375  10.625   0.670   9.528 -0.5033  0.3171 -1.1550
   33MOL0     C 4376  10.721   0.567   9.505  0.2481  0.6266  0.8023
   33MOL0     C 4377  10.770   0.497   9.619  0.3591  0.5201 -0.2219
   33MOL0     O 4378  10.869   0.401   9.617 -0.9321  0.6431  0.4305
   33MOL0     C 4379  10.955   0.388   9.496 -0.2622  0.9909  0.3850
   33MOL0     C 4380  10.917   0.271   9.407  0.0692 -0.5215 -0.5099
   33MOL0     C 4381  11.038   0.220   9.321 -0.4330 -0.4294 -1.0570
   33MOL0     C 4382  11.014   0.094   9.233 -0.3143 -0.8688  0.0346
   33MOL0     C 4383  10.958  -0.036   9.301 -0.1006  0.0811 -0.1204
   33MOL0     C 4384  10.921  -0.133   9.357  0.3061 -0.2376 -0.1538
   33MOL0     C 4385  10.719   0.519   9.749  0.1021  0.5733  0.3655
   33MOL0     C 4386  10.615   0.609   9.766 -0.1303 -0.4221  0.9216
   33MOL0     C 4387  10.539   0.620   9.888  1.3478  1.2221  0.1504
   33MOL0     H 4388  10.303   0.950   9.349 -2.7187 -3.6400 -0.0537
   33MOL0     H 4389  10.147   1.112   9.343  5.5098 -0.8884 -0.9464
   33MOL0     H 4390   9.979   1.303   9.415 -2.4713  2.4921  3.3419
   33MOL0     H 4391   9.889   1.176   9.360  2.1337  0.9708 -1.3993
   33MOL0     H 4392   9.696   1.241   9.445  0.4486 -0.9754  0.2358
   33MOL0     H 4393   9.778   1.391   9.422 -0.6993 -2.1872 -1.2355
   33MOL0     H 4394   9.858   1.386   9.654  1.8902 -3.5273 -0.7330
   33MOL0     H 4395   9.746   1.258   9.697  0.9447 -0.0100 -0.2542
   33MOL0     H 4396   9.676   1.529   9.575 -1.2479  1.2406  0.4409
   33MOL0     H 4397   9.561   1.413   9.633  0.1304  1.3839 -0.2633
   33MOL0     H 4398   9.773   1.570   9.786  0.5549 -0.3615 -0.4254
   33MOL0     H 4399   9.606   1.570   9.837 -1.1856 -2.3691  1.4313
   33MOL0     H 4400   9.682   1.315   9.908  1.3599  0.1579  1.8123
   33MOL0     H 4401   9.831   1.393   9.924  0.4225 -0.1302  3.8998
   33MOL0     H 4402   9.596   1.487  10.071 -0.6049  5.8664 -3.9961
   33MOL0     H 4403   9.744   1.571  10.057 -2.5797  0.5828 -1.3981
   33MOL0     H 4404   9.708   1.290  10.189  1.6381 -2.1174 -1.5092
   33MOL0     H 4405   9.867   1.341  10.136 -0.4740 -2.4039  1.8697
   33MOL0     H 4406   9.979   1.569  10.272 -0.0249  2.3795  1.6083
   33MOL0     H 4407  10.051   1.689  10.479  0.9416 -1.0671  2.1408
   33MOL0     H 4408   9.899   1.772  10.512  1.8282  1.1748 -0.4115
   33MOL0     H 4409   9.886   1.615  10.722 -0.8380  2.5449 -0.1740
   33MOL0     H 4410  10.026   1.534  10.670 -0.2545 -0.0079  0.8395
   33MOL0     H 4411  10.027   1.826  10.694  0.1240 -1.5409 -1.8646
   33MOL0     H 4412  10.170   1.728  10.711 -0.2182  1.1743  0.3377
   33MOL0     H 4413  10.034   1.634  10.938 -2.0689 -1.9041 -3.9968
   33MOL0     H 4414   9.960   1.799  10.924  1.1233  2.7926 -2.0715
   33MOL0     H 4415  10.358   1.910  11.030 -0.6867 -0.1888 -1.6517
   33MOL0     H 4416  10.578   1.795  11.116 -2.7010  1.2182  2.4295
   33MOL0     H 4417  10.936   1.777  11.112  0.2517  2.4792  3.1696
   33MOL0     H 4418  11.173   1.748  11.140  0.3016 -2.0033 -2.4854
   33MOL0     H 4419  11.389   1.625  11.128  0.7312 -0.0907  0.0986
   33MOL0     H 4420  11.391   1.683  11.289 -0.8178  0.4172 -0.1276
   33MOL0     H 4421  11.606   1.606  11.247  0.7908 -0.8692  0.1210
   33MOL0     H 4422  11.534   1.483  11.355  0.0235  1.5114  0.0293
   33MOL0     H 4423  11.528   1.326  11.183 -1.0138  0.7528  2.2905
   33MOL0     H 4424  11.526   1.463  11.062 -4.1822 -0.9638  1.4813
   33MOL0     H 4425  11.765   1.359  11.225  2.5385  1.7469  0.0666
   33MOL0     H 4426  11.777   1.491  11.107  0.4032 -0.2352 -0.3730
   33MOL0     H 4427  11.698   1.322  10.936 -0.9495 -0.1150  0.2192
   33MOL0     H 4428  11.753   1.201  11.052  0.1951 -0.1514 -0.3558
   33MOL0     H 4429  11.938   1.260  10.891 -1.3585  1.2039 -1.6548
   33MOL0     H 4430  11.916   1.428  10.917 -0.9646  1.6184  0.8333
   33MOL0     H 4431  12.007   1.222  11.119 -6.8180 -0.5663  0.6523
   33MOL0     H 4432  11.971   1.393  11.164 -3.6499 -0.9844 -1.9531
   33MOL0     H 4433  12.197   1.307  10.976  1.0646  0.4268  1.6090
   33MOL0     H 4434  12.139   1.461  10.993 -0.3167 -1.7761 -2.1671
   33MOL0     H 4435  11.107   1.366  11.319  1.8553 -0.7953 -2.6292
   33MOL0     H 4436  10.856   1.397  11.304  0.7528  0.2649  2.5770
   33MOL0     H 4437  10.405   1.415  10.998  0.5262  0.4467 -3.4233
   33MOL0     H 4438  10.207   1.525  10.959  0.2607  0.2222  1.1352
   33MOL0     H 4439  10.042   1.037   9.759  2.3093  3.4416  0.9562
   33MOL0     H 4440  10.240   0.884   9.764  2.2307  1.1458  0.6291
   33MOL0     H 4441  10.576   0.724   9.447 -2.0217 -2.6710 -2.3783
   33MOL0     H 4442  10.758   0.557   9.404  1.3478  1.6160  1.0954
   33MOL0     H 4443  11.059   0.371   9.526 -0.8285  1.6334  3.0355
   33MOL0     H 4444  10.953   0.479   9.434  1.7160  0.2143 -0.8984
   33MOL0     H 4445  10.839   0.303   9.337  0.0817  1.2937  0.2362
   33MOL0     H 4446  10.883   0.194   9.476  1.5788 -1.0201 -0.2807
   33MOL0     H 4447  11.105   0.184   9.399 -1.8040 -0.3587  0.1921
   33MOL0     H 4448  11.084   0.301   9.263  1.6008 -2.5764 -2.6399
   33MOL0     H 4449  10.959   0.131   9.145  1.8902  2.3273 -0.1789
   33MOL0     H 4450  11.107   0.056   9.188 -0.4291 -2.2175  0.8992
   33MOL0     H 4451  10.887  -0.208   9.425  0.5302 -1.4540 -1.3507
   33MOL0     H 4452  10.739   0.433   9.812 -1.8223  0.3744  0.7696
   33MOL0     H 4453  10.435   0.642   9.862  1.7184  2.2557 -0.5096
   33MOL0     H 4454  10.543   0.522   9.938 -1.5191 -0.0144 -1.7788
   33MOL0     H 4455  10.574   0.695   9.959  1.0765  0.3463  1.2507
   34MOL0     O 4456   1.329  10.661   7.531 -0.2743 -0.3839  0.2596
   34MOL0     C 4457   1.298  10.637   7.649 -0.6303 -0.3046 -0.6391
   34MOL0     O 4458   1.216  10.546   7.696  0.5462  0.1446  0.5148
   34MOL0     C 4459   1.171  10.439   7.622 -0.2719 -0.8276 -1.0932
   34MOL0     C 4460   1.067  10.366   7.684  0.4819 -0.8578  0.4415
   34MOL0     C 4461   1.030  10.238   7.641 -0.1922 -0.1522 -0.1546
   34MOL0     C 4462   1.094  10.185   7.537 -0.2229  0.1757  0.4959
   34MOL0     O 4463   1.058  10.066   7.479  0.6318 -0.0267 -0.3004
   34MOL0     C 4464   0.970   9.962   7.538 -0.5267 -0.0137  0.2666
   34MOL0     C 4465   0.836   9.974   7.486  0.9360 -0.8154  0.1989
   34MOL0     C 4466   0.745   9.871   7.550 -0.4048  0.2177 -0.3622
   34MOL0     C 4467   0.597   9.875   7.498 -1.0121  0.0725 -0.6569
   34MOL0     C 4468   0.509   9.995   7.548 -1.0271 -0.3493  0.0710
   34MOL0     C 4469   0.454  10.070   7.422 -0.3854 -0.3578  0.4128
   34MOL0     C 4470   0.560  10.141   7.331 -0.6967  1.4191  0.1056
   34MOL0     C 4471   0.499  10.222   7.210 -0.4937  0.3307  0.8041
   34MOL0     N 4472   0.596  10.329   7.163 -0.6989 -0.4904 -0.7271
   34MOL0     C 4473   0.732  10.336   7.188 -0.4729 -0.2756 -0.1832
   34MOL0     C 4474   0.766  10.454   7.142  0.1379  0.4576  0.6004
   34MOL0     C 4475   0.900  10.525   7.143 -0.5613  0.3555  0.1376
   34MOL0     C 4476   0.970  10.530   7.290 -0.0064  0.1645  0.3824
   34MOL0     C 4477   0.885  10.578   7.405  0.2655 -0.7243  0.3401
   34MOL0     C 4478   0.857  10.730   7.393 -1.0888 -0.6695  0.0966
   34MOL0     O 4479   0.781  10.791   7.496  0.1580  0.0006  0.4907
   34MOL0     C 4480   0.832  10.831   7.613 -0.2558 -0.0302  0.2674
   34MOL0     C 4481   0.762  10.933   7.666  0.6322 -0.1083  0.0092
   34MOL0     C 4482   0.792  10.996   7.783 -0.4839 -0.2583 -0.0194
   34MOL0     C 4483   0.901  10.951   7.852 -0.6536  0.2677 -0.4733
   34MOL0     C 4484   0.932  11.009   7.989  0.4791 -0.5161 -0.1043
   34MOL0     O 4485   0.984  10.916   8.084 -0.4337  0.1190 -0.7137
   34MOL0     C 4486   0.990  10.965   8.210 -0.0309 -0.1909  0.1781
   34MOL0     C 4487   0.877  11.003   8.274  0.0519 -0.6267  0.0166
   34MOL0     C 4488   0.890  11.079   8.390 -0.0934 -0.3373  0.1258
   34MOL0     C 4489   1.015  11.111   8.446 -0.6507 -0.4797 -0.4742
   34MOL0     O 4490   1.025  11.192   8.562 -0.2463  0.1437  0.0614
   34MOL0     C 4491   1.148  11.240   8.608 -0.9289  0.4311  0.5016
   34MOL0     C 4492   1.134  11.327   8.733  0.6124 -0.9270 -0.1649
   34MOL0     C 4493   1.241  11.438   8.730  0.3175 -0.4977  0.3349
   34MOL0     C 4494   1.376  11.394   8.788  0.2684 -0.6466  0.3053
   34MOL0     C 4495   1.466  11.518   8.794  0.5038 -0.0484 -0.4073
   34MOL0     C 4496   1.477  11.578   8.933  0.1301 -0.0983 -0.0271
   34MOL0     C 4497   1.582  11.681   8.937 -0.5022  0.0687 -0.4582
   34MOL0     C 4498   1.629  11.742   9.074  0.7001 -0.2619 -0.8338
   34MOL0    Cl 4499   1.771  11.642   9.143 -0.2939 -0.5839  0.1145
   34MOL0     C 4500   1.129  11.076   8.377  0.5180  0.4978 -0.4296
   34MOL0     C 4501   1.111  10.993   8.270  0.0906 -0.6764 -0.0895
   34MOL0     O 4502   0.924  11.131   8.000 -1.2647 -0.5072  0.0357
   34MOL0     C 4503   0.984  10.840   7.811 -0.3594  0.7561  0.5283
   34MOL0     C 4504   0.945  10.785   7.686 -0.2962  0.0669  0.1647
   34MOL0     N 4505   0.657  10.521   7.088 -0.0754 -0.1442 -0.2812
   34MOL0     N 4506   0.557  10.449   7.109  0.0850 -0.1421  0.2635
   34MOL0     C 4507   1.195  10.263   7.462  0.5075  0.5515  0.0392
   34MOL0     C 4508   1.236  10.385   7.511  0.2797 -1.8123  0.1091
   34MOL0     C 4509   1.367  10.706   7.764  0.9839  0.5540  0.4707
   34MOL0     C 4510   1.361  10.629   7.888  0.9928  0.2327 -0.7787
   34MOL0     C 4511   1.422  10.688   8.000  0.7148  0.2649  0.0518
   34MOL0     C 4512   1.482  10.813   7.998 -0.8295 -0.6271  0.3133
   34MOL0     O 4513   1.544  10.863   8.111  0.4445 -0.0310  0.2146
   34MOL0     C 4514   1.579  11.000   8.125  1.0492 -0.3344  0.2837
   34MOL0     C 4515   1.674  11.006   8.242  0.7605 -0.5353 -0.0848
   34MOL0     C 4516   1.775  11.120   8.220  0.2761  0.0005 -0.9365
   34MOL0     C 4517   1.878  11.135   8.340  0.7860 -0.3595  0.9633
   34MOL0     C 4518   1.805  11.215   8.434  0.0160  0.0073  0.9866
   34MOL0     C 4519   1.756  11.294   8.510 -0.7065  0.8521  0.7508
   34MOL0     C 4520   1.490  10.880   7.870  0.4259 -0.4902 -0.8046
   34MOL0     C 4521   1.428  10.833   7.756 -1.1914  0.8066 -0.3699
   34MOL0     C 4522   1.451  10.915   7.625 -0.0363  1.2657 -0.9387
   34MOL0     H 4523   1.026  10.405   7.776  2.5396  0.0631  1.0441
   34MOL0     H 4524   0.947  10.184   7.687 -1.2892  1.5312 -0.1027
   34MOL0     H 4525   1.014   9.866   7.510  0.5787  0.8335 -1.0341
   34MOL0     H 4526   0.972   9.966   7.648  2.2705 -1.2689  0.3705
   34MOL0     H 4527   0.838   9.957   7.378  1.4295  1.3227 -0.1791
   34MOL0     H 4528   0.805  10.074   7.518 -0.0558 -1.4271  1.2663
   34MOL0     H 4529   0.729   9.885   7.658 -0.3730  0.6401 -0.4121
   34MOL0     H 4530   0.795   9.774   7.546  2.8999  1.7997 -0.2117
   34MOL0     H 4531   0.599   9.878   7.389 -1.0417 -0.4518 -0.6725
   34MOL0     H 4532   0.549   9.781   7.527 -4.6471  1.4965 -1.4811
   34MOL0     H 4533   0.435   9.971   7.625  2.6751  1.9821  5.0115
   34MOL0     H 4534   0.565  10.067   7.609 -1.8690 -2.0049  3.0373
   34MOL0     H 4535   0.405   9.996   7.357  1.2373 -1.8266  0.7849
   34MOL0     H 4536   0.373  10.139   7.448 -1.2627 -2.6404  4.7709
   34MOL0     H 4537   0.631  10.062   7.302  0.5659  1.5429  2.5956
   34MOL0     H 4538   0.617  10.210   7.394  0.3004  1.5794 -0.9244
   34MOL0     H 4539   0.477  10.154   7.127 -0.5218 -0.1065  1.1692
   34MOL0     H 4540   0.406  10.276   7.231 -0.5189  0.5749  0.1241
   34MOL0     H 4541   0.787  10.263   7.246 -2.1058 -0.6555  0.9817
   34MOL0     H 4542   0.968  10.476   7.072  0.9943  2.2989  0.1911
   34MOL0     H 4543   0.889  10.626   7.100  0.3499  0.6367  0.5491
   34MOL0     H 4544   1.020  10.436   7.314  2.6223  1.5977  0.9186
   34MOL0     H 4545   1.055  10.598   7.275 -2.3575  3.1520 -0.3538
   34MOL0     H 4546   0.933  10.552   7.501 -0.7172 -0.6161  0.8707
   34MOL0     H 4547   0.792  10.520   7.405  1.1110 -2.1506  0.8427
   34MOL0     H 4548   0.803  10.760   7.303  0.5295  2.8701  0.1407
   34MOL0     H 4549   0.951  10.784   7.385 -1.7368  0.8338  1.8018
   34MOL0     H 4550   0.672  10.970   7.619  0.7399  0.7741  0.4727
   34MOL0     H 4551   0.728  11.077   7.816 -2.1694 -1.3011 -0.5828
   34MOL0     H 4552   0.778  10.976   8.241 -0.4219  0.9967  0.0340
   34MOL0     H 4553   0.808  11.101   8.457 -0.0880 -5.4215  2.2567
   34MOL0     H 4554   1.219  11.160   8.631  0.1843  1.3145  0.2362
   34MOL0     H 4555   1.189  11.297   8.525 -0.7965 -0.5663 -0.1282
   34MOL0     H 4556   1.038  11.379   8.728 -0.0557 -1.4440  3.9177
   34MOL0     H 4557   1.126  11.281   8.832 -1.7018  1.0242  0.6377
   34MOL0     H 4558   1.256  11.488   8.633 -4.1799  0.9610  0.1461
   34MOL0     H 4559   1.198  11.523   8.784 -0.4130  0.5407 -1.7616
   34MOL0     H 4560   1.428  11.316   8.731  2.3813 -0.6423  2.0831
   34MOL0     H 4561   1.359  11.355   8.889  0.9790  0.7169  0.9767
   34MOL0     H 4562   1.435  11.599   8.727  2.9551  1.0308 -0.3282
   34MOL0     H 4563   1.566  11.498   8.755  0.4625  1.3100 -1.2825
   34MOL0     H 4564   1.377  11.619   8.949 -0.8313 -2.0112 -0.7327
   34MOL0     H 4565   1.495  11.502   9.009  1.2744 -0.3960 -0.5731
   34MOL0     H 4566   1.544  11.772   8.889 -0.1627 -1.0305 -2.9415
   34MOL0     H 4567   1.666  11.656   8.872 -1.4728 -2.1569 -0.9432
   34MOL0     H 4568   1.665  11.845   9.075  4.8951 -1.5625 -0.2675
   34MOL0     H 4569   1.547  11.730   9.147  1.0241 -0.2799 -0.4706
   34MOL0     H 4570   1.226  11.099   8.420  0.9474  1.3217 -1.7672
   34MOL0     H 4571   1.199  10.956   8.219  1.1993  1.3212  0.2657
   34MOL0     H 4572   1.072  10.807   7.866  0.4926 -2.5063 -2.4636
   34MOL0     H 4573   1.003  10.709   7.635 -0.4023  1.9589 -3.0050
   34MOL0     H 4574   1.243  10.216   7.376 -0.7786 -0.8531  0.0306
   34MOL0     H 4575   1.334  10.421   7.481 -0.5648  1.8848  1.2741
   34MOL0     H 4576   1.329  10.526   7.898  1.8049  0.0282 -0.1799
   34MOL0     H 4577   1.423  10.641   8.097  0.8974 -0.5206 -0.3269
   34MOL0     H 4578   1.486  11.054   8.145  0.3477 -0.0412 -3.2162
   34MOL0     H 4579   1.618  11.041   8.032 -0.5606 -0.7011 -0.5788
   34MOL0     H 4580   1.715  10.906   8.254 -1.6886 -1.7496 -1.0447
   34MOL0     H 4581   1.620  11.025   8.335 -2.0034 -1.4972 -1.3695
   34MOL0     H 4582   1.722  11.215   8.201 -4.4486 -2.7325 -3.2968
   34MOL0     H 4583   1.837  11.104   8.131  2.8277  0.2331  0.7087
   34MOL0     H 4584   1.917  11.047   8.392  4.1446  1.8648  2.6124
   34MOL0     H 4585   1.964  11.189   8.299 -0.3517 -0.0181 -1.0906
   34MOL0     H 4586   1.724  11.360   8.588 -0.9307 -0.9946  2.3046
   34MOL0     H 4587   1.531  10.980   7.859 -0.8255  0.0041 -1.2889
   34MOL0     H 4588   1.502  10.858   7.548 -1.7542 -0.5795 -0.7860
   34MOL0     H 4589   1.351  10.947   7.593 -0.1443  2.5542  0.5185
   34MOL0     H 4590   1.502  11.010   7.642  0.8277  0.4444  1.5813
   35MOL0     O 4591   7.774  11.391   7.042  0.1465 -0.1236  0.5047
   35MOL0     C 4592   7.895  11.374   7.069  0.7660  1.2511  0.0282
   35MOL0     O 4593   7.949  11.354   7.197 -0.1927 -0.5386 -0.2160
   35MOL0     C 4594   7.860  11.346   7.301 -0.0130 -0.0956  1.4663
   35MOL0     C 4595   7.837  11.448   7.395  0.5741 -0.0010  0.3402
   35MOL0     C 4596   7.738  11.441   7.493 -0.4157  0.6607 -1.3882
   35MOL0     C 4597   7.668  11.324   7.511  0.1572  1.1177 -0.6384
   35MOL0     O 4598   7.558  11.316   7.597 -0.2919 -0.3452  0.0081
   35MOL0     C 4599   7.597  11.299   7.738 -0.3641 -0.7879  0.0108
   35MOL0     C 4600   7.473  11.289   7.821 -0.5504 -0.7349 -1.0147
   35MOL0     C 4601   7.516  11.301   7.966  0.1487  0.0200 -0.0477
   35MOL0     C 4602   7.501  11.441   8.019  0.3035  0.4559  0.7866
   35MOL0     C 4603   7.534  11.459   8.167  0.3429 -0.0501 -0.3535
   35MOL0     C 4604   7.515  11.613   8.212  0.0081 -0.1328  0.3870
   35MOL0     C 4605   7.566  11.652   8.351  0.0840 -0.6532  0.1522
   35MOL0     C 4606   7.466  11.608   8.465 -0.8842 -0.2629 -0.2167
   35MOL0     N 4607   7.519  11.653   8.593  0.0382 -0.1004  0.5633
   35MOL0     C 4608   7.485  11.774   8.651 -0.8637 -0.0994 -0.9345
   35MOL0     C 4609   7.585  11.781   8.752 -0.0151 -0.0013  0.6471
   35MOL0     C 4610   7.604  11.899   8.852 -0.4887 -0.1434 -0.4294
   35MOL0     C 4611   7.599  11.860   9.000  0.2783  0.1466 -0.4251
   35MOL0     C 4612   7.668  11.957   9.089 -0.2129 -0.6293  0.4395
   35MOL0     C 4613   7.647  11.940   9.236  0.0668 -0.0481 -0.6541
   35MOL0     O 4614   7.513  11.903   9.265 -0.7701 -0.1251  0.0339
   35MOL0     C 4615   7.484  11.925   9.391  0.3007 -0.2005 -0.8096
   35MOL0     C 4616   7.496  11.819   9.480 -0.0233 -0.4393  1.0247
   35MOL0     C 4617   7.454  11.829   9.609 -0.5994  0.8631 -0.4691
   35MOL0     C 4618   7.412  11.942   9.658 -0.3168 -0.6262 -0.5041
   35MOL0     C 4619   7.399  11.951   9.805  0.2418 -0.0928  0.5614
   35MOL0     O 4620   7.414  11.831   9.882 -0.4204  0.0639  0.4568
   35MOL0     C 4621   7.422  11.841  10.018 -0.3253 -0.4146  0.1817
   35MOL0     C 4622   7.543  11.889  10.078 -0.7198 -0.2533 -0.4737
   35MOL0     C 4623   7.532  11.920  10.214 -0.8541 -0.0735 -0.5908
   35MOL0     C 4624   7.428  11.884  10.301  0.4880 -0.5836  0.3357
   35MOL0     O 4625   7.429  11.902  10.433  0.2702 -0.2239  0.3718
   35MOL0     C 4626   7.497  12.013  10.487 -1.1426 -0.0415 -0.2317
   35MOL0     C 4627   7.413  12.063  10.608  1.1666  0.8036  1.2861
   35MOL0     C 4628   7.483  12.179  10.676  0.1013  0.2006 -0.2855
   35MOL0     C 4629   7.387  12.236  10.794 -0.4768  0.5556  0.5799
   35MOL0     C 4630   7.461  12.365  10.848 -0.6876  0.1398 -0.6278
   35MOL0     C 4631   7.358  12.452  10.920 -0.2684  0.0174  0.3226
   35MOL0     C 4632   7.266  12.524  10.811  0.1288  0.1338 -0.7126
   35MOL0     C 4633   7.248  12.668  10.840 -0.3167  0.8271 -0.0868
   35MOL0    Cl 4634   7.162  12.704  11.004  0.6986  0.1882  0.3327
   35MOL0     C 4635   7.321  11.835  10.234 -0.5822 -0.4914  0.6983
   35MOL0     C 4636   7.315  11.821  10.095  0.0368 -1.1814  0.0730
   35MOL0     O 4637   7.386  12.062   9.856 -0.4487  0.7074 -0.1388
   35MOL0     C 4638   7.402  12.055   9.578  0.0474 -0.0821 -0.1602
   35MOL0     C 4639   7.429  12.044   9.437 -0.2455  0.4106 -0.4593
   35MOL0     N 4640   7.663  11.668   8.748 -0.6952  0.0685  0.1453
   35MOL0     N 4641   7.625  11.596   8.651 -0.2493 -0.4847 -0.2680
   35MOL0     C 4642   7.689  11.218   7.426 -0.6037  1.2160  0.7753
   35MOL0     C 4643   7.783  11.228   7.325 -0.7099  0.8512 -0.6094
   35MOL0     C 4644   7.993  11.354   6.960 -0.8124 -0.4336 -0.5178
   35MOL0     C 4645   8.112  11.278   6.989 -0.7782 -1.0721  0.2754
   35MOL0     C 4646   8.216  11.273   6.898 -0.2348 -0.8793  0.1075
   35MOL0     C 4647   8.212  11.322   6.766 -1.0284 -0.1817 -0.4758
   35MOL0     O 4648   8.322  11.330   6.677  0.0363 -0.5673 -0.1858
   35MOL0     C 4649   8.442  11.265   6.728  1.5538 -0.3996 -0.1017
   35MOL0     C 4650   8.431  11.115   6.709 -0.3617  1.0261 -0.1827
   35MOL0     C 4651   8.564  11.060   6.777 -0.5896  0.0811 -0.4335
   35MOL0     C 4652   8.570  10.903   6.769  0.4224  0.2268 -0.4202
   35MOL0     C 4653   8.697  10.849   6.815 -0.5961  0.2843  0.8597
   35MOL0     C 4654   8.808  10.807   6.846 -0.1184  0.8299 -0.2586
   35MOL0     C 4655   8.093  11.394   6.738  1.0483 -0.3559 -0.5706
   35MOL0     C 4656   7.985  11.411   6.827 -0.8255 -0.2000 -0.5286
   35MOL0     C 4657   7.873  11.495   6.784 -0.1773 -0.4764 -0.8347
   35MOL0     H 4658   7.886  11.545   7.393 -0.1893  0.4065 -2.0211
   35MOL0     H 4659   7.710  11.531   7.546  0.0802 -0.4915  0.9211
   35MOL0     H 4660   7.660  11.210   7.750 -0.8337 -1.5924 -2.8763
   35MOL0     H 4661   7.663  11.380   7.771  0.0549 -1.9928  2.3158
   35MOL0     H 4662   7.428  11.194   7.792 -1.4010 -0.2521 -1.2920
   35MOL0     H 4663   7.405  11.374   7.805  1.3188  0.6786 -1.8703
   35MOL0     H 4664   7.618  11.267   7.986  1.2539  3.3036  0.5245
   35MOL0     H 4665   7.435  11.240   8.006  1.2376 -2.2434 -1.1451
   35MOL0     H 4666   7.558  11.507   7.954  0.1463  3.6086  3.5539
   35MOL0     H 4667   7.398  11.466   7.992  0.7789  0.9390 -0.6496
   35MOL0     H 4668   7.468  11.399   8.230 -1.2252  1.0518 -0.8868
   35MOL0     H 4669   7.638  11.430   8.183 -0.8823 -5.0298  0.3911
   35MOL0     H 4670   7.578  11.676   8.149 -1.4706  2.6183  1.4878
   35MOL0     H 4671   7.407  11.628   8.206 -0.3515 -0.5229  3.8412
   35MOL0     H 4672   7.576  11.761   8.349  1.3219 -0.7627 -0.3116
   35MOL0     H 4673   7.669  11.623   8.370  1.1499  3.2964  1.3053
   35MOL0     H 4674   7.362  11.642   8.454 -0.6174  0.4263 -0.6382
   35MOL0     H 4675   7.466  11.498   8.467 -0.5225 -0.2691 -0.4638
   35MOL0     H 4676   7.402  11.844   8.638 -3.1266 -2.7116 -1.5701
   35MOL0     H 4677   7.699  11.953   8.845  0.6101 -2.1753 -3.1510
   35MOL0     H 4678   7.536  11.980   8.826 -2.6240 -0.0333  4.3594
   35MOL0     H 4679   7.493  11.850   9.028  0.2830 -2.0510 -1.0097
   35MOL0     H 4680   7.650  11.763   9.010  3.2360  1.5878 -0.5225
   35MOL0     H 4681   7.633  12.055   9.055  3.1743  0.3961 -0.4296
   35MOL0     H 4682   7.772  11.945   9.059 -0.6974 -0.1412 -1.6264
   35MOL0     H 4683   7.685  12.026   9.292 -2.7113  0.6812  0.3081
   35MOL0     H 4684   7.708  11.853   9.262  1.4389  0.6481 -1.4663
   35MOL0     H 4685   7.545  11.729   9.445  0.0710  0.7125 -2.1966
   35MOL0     H 4686   7.454  11.742   9.673  2.1944  0.6391 -0.6640
   35MOL0     H 4687   7.635  11.906  10.023 -0.5270 -0.5858 -0.2633
   35MOL0     H 4688   7.620  11.969  10.254 -0.5206 -0.8057 -0.4085
   35MOL0     H 4689   7.595  11.987  10.527 -1.1086 -1.9844 -1.4487
   35MOL0     H 4690   7.505  12.079  10.399 -0.7830  0.2977  0.0505
   35MOL0     H 4691   7.325  12.095  10.552  4.0936  0.5340 -4.1624
   35MOL0     H 4692   7.388  11.982  10.677 -1.0712 -2.6898 -3.0541
   35MOL0     H 4693   7.578  12.139  10.714  0.4461 -0.0481 -1.3740
   35MOL0     H 4694   7.491  12.257  10.600 -1.4865  0.9286  0.2441
   35MOL0     H 4695   7.383  12.164  10.876  0.6490  0.3725  0.4819
   35MOL0     H 4696   7.283  12.256  10.767 -1.6258 -1.6629  2.9502
   35MOL0     H 4697   7.499  12.418  10.760  0.6311 -2.9404 -2.0730
   35MOL0     H 4698   7.540  12.332  10.917  0.2798  1.7388 -0.9195
   35MOL0     H 4699   7.298  12.390  10.986  1.0994 -2.1139 -0.3422
   35MOL0     H 4700   7.414  12.525  10.979  1.1793 -2.0107  1.5809
   35MOL0     H 4701   7.169  12.473  10.816  0.7107 -0.9198  1.9414
   35MOL0     H 4702   7.304  12.510  10.710  1.7113  1.1308 -0.2967
   35MOL0     H 4703   7.347  12.712  10.853  0.5201 -0.4710 -1.6471
   35MOL0     H 4704   7.199  12.730  10.765 -2.4306  1.8974  2.0570
   35MOL0     H 4705   7.234  11.803  10.292 -1.1192 -1.5682 -0.6334
   35MOL0     H 4706   7.221  11.788  10.050 -2.4174  1.3578  2.9058
   35MOL0     H 4707   7.367  12.146   9.626  1.5791  1.4314 -1.7550
   35MOL0     H 4708   7.405  12.118   9.362 -0.2112 -0.2010 -1.0796
   35MOL0     H 4709   7.628  11.129   7.434 -0.0246  0.2418 -3.1769
   35MOL0     H 4710   7.775  11.158   7.243 -2.0258 -1.5622  1.4722
   35MOL0     H 4711   8.127  11.222   7.081 -0.4258 -1.5773 -0.0850
   35MOL0     H 4712   8.309  11.232   6.937  0.9491  1.5162 -0.0148
   35MOL0     H 4713   8.465  11.289   6.832  0.8100  2.0301 -0.4455
   35MOL0     H 4714   8.523  11.308   6.669 -0.4047  1.3069 -1.7328
   35MOL0     H 4715   8.422  11.079   6.606 -1.7712 -0.0373  0.2718
   35MOL0     H 4716   8.345  11.085   6.769 -0.7039 -0.1717 -1.2188
   35MOL0     H 4717   8.576  11.095   6.880  0.3515 -3.4923  0.8126
   35MOL0     H 4718   8.653  11.106   6.732  0.2961 -3.5610 -2.8626
   35MOL0     H 4719   8.501  10.855   6.840  2.1030 -1.4656  0.1463
   35MOL0     H 4720   8.535  10.876   6.669 -2.2991 -0.9019  0.7208
   35MOL0     H 4721   8.890  10.750   6.886 -1.2221 -0.7193 -0.1130
   35MOL0     H 4722   8.095  11.448   6.644  0.6553  1.9469  0.6564
   35MOL0     H 4723   7.902  11.535   6.686  2.4649 -2.2604 -0.8776
   35MOL0     H 4724   7.779  11.441   6.770 -0.3977 -0.4494  0.4099
   35MOL0     H 4725   7.861  11.581   6.851 -0.2184  0.7235 -2.3174
   36MOL0     O 4726   4.583   1.023   4.169  0.2937  0.0542  0.1693
   36MOL0     C 4727   4.697   0.993   4.141 -0.4136  0.4364  0.0171
   36MOL0     O 4728   4.757   0.883   4.190 -0.8476 -0.4186 -0.1098
   36MOL0     C 4729   4.680   0.799   4.257  0.1769  0.0045 -0.3091
   36MOL0     C 4730   4.653   0.816   4.395 -0.1321 -0.4575 -1.1271
   36MOL0     C 4731   4.593   0.716   4.466  0.3556 -0.7740 -0.3136
   36MOL0     C 4732   4.537   0.602   4.396 -0.0236 -0.8535  0.7532
   36MOL0     O 4733   4.474   0.522   4.480  0.5915 -0.6787 -0.3947
   36MOL0     C 4734   4.380   0.428   4.433 -0.7399  0.1374 -0.3775
   36MOL0     C 4735   4.451   0.286   4.407 -0.8732 -0.2854  0.4155
   36MOL0     C 4736   4.485   0.206   4.530 -0.2853 -0.0623 -1.2218
   36MOL0     C 4737   4.547   0.064   4.508  0.3258 -0.3535  0.2760
   36MOL0     C 4738   4.579  -0.008   4.638  0.1425 -0.4097 -0.0414
   36MOL0     C 4739   4.649  -0.138   4.610  0.0589  0.0287  0.8611
   36MOL0     C 4740   4.663  -0.218   4.734 -0.1219  0.2002  0.3713
   36MOL0     C 4741   4.790  -0.294   4.723  0.4649  0.0522 -0.1973
   36MOL0     N 4742   4.782  -0.408   4.635 -0.5888 -0.0169 -0.3253
   36MOL0     C 4743   4.828  -0.418   4.500 -0.2165  0.5888  0.4896
   36MOL0     C 4744   4.785  -0.547   4.471 -0.0486 -0.2715 -0.5035
   36MOL0     C 4745   4.783  -0.598   4.327 -0.1706 -0.0297 -0.6077
   36MOL0     C 4746   4.910  -0.559   4.240  0.5682 -0.7467 -0.4342
   36MOL0     C 4747   5.042  -0.619   4.279 -0.3317  0.5005  1.3368
   36MOL0     C 4748   5.159  -0.578   4.200 -0.3296  0.4568 -0.8387
   36MOL0     O 4749   5.176  -0.440   4.201 -0.9912  0.3240 -0.1639
   36MOL0     C 4750   5.277  -0.387   4.127 -0.4025  0.5206 -0.3936
   36MOL0     C 4751   5.279  -0.254   4.114 -0.9934  1.2498  0.0431
   36MOL0     C 4752   5.388  -0.194   4.051 -0.1529  0.8493 -0.3422
   36MOL0     C 4753   5.490  -0.270   3.989 -0.5964 -0.0143  0.1846
   36MOL0     C 4754   5.601  -0.216   3.904 -0.0880 -0.2440  0.2584
   36MOL0     O 4755   5.658  -0.303   3.806  0.8226 -0.4822  0.4270
   36MOL0     C 4756   5.751  -0.249   3.726  0.6842  0.9813  1.0143
   36MOL0     C 4757   5.713  -0.230   3.592 -1.0576  0.3929  0.5286
   36MOL0     C 4758   5.802  -0.186   3.490 -0.0689 -0.1552 -0.6031
   36MOL0     C 4759   5.937  -0.160   3.526  0.0209 -0.2732  0.1422
   36MOL0     O 4760   6.029  -0.111   3.439 -0.0861 -1.0953 -0.1850
   36MOL0     C 4761   5.995  -0.067   3.302  0.4324 -0.0698 -0.2545
   36MOL0     C 4762   6.118  -0.002   3.230  0.1775  0.1536 -0.6253
   36MOL0     C 4763   6.087   0.060   3.093 -0.1322 -0.1916  0.3798
   36MOL0     C 4764   6.100  -0.030   2.970 -0.5907 -1.0035 -0.0874
   36MOL0     C 4765   6.243  -0.033   2.925 -0.7879  1.4459 -0.7975
   36MOL0     C 4766   6.248  -0.140   2.815 -0.7481  0.1322  0.0443
   36MOL0     C 4767   6.386  -0.140   2.767  0.3106  0.0328 -0.6584
   36MOL0     C 4768   6.424  -0.268   2.697 -0.1418 -0.0387  0.0975
   36MOL0    Cl 4769   6.414  -0.408   2.812  0.4347  0.2706 -0.0883
   36MOL0     C 4770   5.974  -0.187   3.661  0.1127 -0.8200 -0.4011
   36MOL0     C 4771   5.886  -0.226   3.761  1.4036 -0.7995 -0.0531
   36MOL0     O 4772   5.628  -0.096   3.924 -0.2886  0.5318  0.3359
   36MOL0     C 4773   5.478  -0.405   3.991  0.8908 -0.7436 -0.4199
   36MOL0     C 4774   5.382  -0.461   4.074  0.4756  0.3200  0.4151
   36MOL0     N 4775   4.752  -0.614   4.585 -0.3623  0.2886  0.6762
   36MOL0     N 4776   4.742  -0.536   4.685 -0.8989 -0.6296  0.8368
   36MOL0     C 4777   4.564   0.583   4.257 -0.1008 -0.3903 -0.2289
   36MOL0     C 4778   4.640   0.681   4.189 -0.3731  0.6029 -0.7782
   36MOL0     C 4779   4.781   1.074   4.047 -0.3394  0.5689 -0.3580
   36MOL0     C 4780   4.720   1.127   3.928 -0.8378 -0.3486  0.5103
   36MOL0     C 4781   4.789   1.200   3.822 -0.0090  1.7011 -0.9478
   36MOL0     C 4782   4.923   1.244   3.850  0.2932 -0.4746  0.1211
   36MOL0     O 4783   4.981   1.311   3.748 -0.5258  0.1565  0.2270
   36MOL0     C 4784   5.127   1.339   3.754  0.8584  0.2756 -0.2359
   36MOL0     C 4785   5.172   1.430   3.645  0.8558 -0.0351 -0.1405
   36MOL0     C 4786   5.177   1.362   3.511 -0.1631  0.6361 -0.0060
   36MOL0     C 4787   5.211   1.462   3.398  0.7594  1.0236 -0.7303
   36MOL0     C 4788   5.300   1.568   3.440 -0.8143 -0.3104 -0.4712
   36MOL0     C 4789   5.387   1.649   3.466 -0.5480  0.4089 -1.0445
   36MOL0     C 4790   4.985   1.206   3.970  0.0349  0.4101  0.2083
   36MOL0     C 4791   4.921   1.107   4.060 -0.0315  0.3422 -0.3240
   36MOL0     C 4792   4.996   1.039   4.172 -0.2565 -0.5595 -0.1175
   36MOL0     H 4793   4.684   0.905   4.449 -0.9140 -1.7008  1.5319
   36MOL0     H 4794   4.569   0.709   4.572 -0.5176  2.8074 -0.1450
   36MOL0     H 4795   4.298   0.417   4.504 -1.0333  2.2091 -0.3225
   36MOL0     H 4796   4.326   0.482   4.354  0.1025  2.5333  0.5989
   36MOL0     H 4797   4.545   0.303   4.353 -1.9763  1.4156 -1.0760
   36MOL0     H 4798   4.380   0.228   4.347 -2.4741  1.3485  0.6593
   36MOL0     H 4799   4.397   0.193   4.594  1.8234 -3.4895  1.3445
   36MOL0     H 4800   4.550   0.257   4.603  0.6381 -3.0284  0.2143
   36MOL0     H 4801   4.485  -0.002   4.446  0.0419  1.3692 -1.3517
   36MOL0     H 4802   4.640   0.079   4.451 -0.0994  1.6481  0.0419
   36MOL0     H 4803   4.634   0.052   4.710 -1.1563  1.2516 -0.3773
   36MOL0     H 4804   4.481  -0.031   4.681  0.5368 -0.6399  0.7418
   36MOL0     H 4805   4.589  -0.202   4.544 -1.2047 -2.5567  4.2662
   36MOL0     H 4806   4.744  -0.121   4.557  0.6812  0.0312  1.9597
   36MOL0     H 4807   4.587  -0.297   4.735 -0.2096  0.2876  0.4767
   36MOL0     H 4808   4.685  -0.157   4.822  2.9071 -0.4534  0.1739
   36MOL0     H 4809   4.871  -0.226   4.693  0.8590 -1.6109 -3.3493
   36MOL0     H 4810   4.815  -0.328   4.823 -0.3105  3.7965  1.4530
   36MOL0     H 4811   4.861  -0.341   4.431 -0.1019 -1.9680 -2.5346
   36MOL0     H 4812   4.775  -0.707   4.331 -2.2068  0.0787  3.4978
   36MOL0     H 4813   4.689  -0.562   4.284 -0.7744  1.2895  1.6726
   36MOL0     H 4814   4.890  -0.557   4.132  0.7095  0.0821 -0.4516
   36MOL0     H 4815   4.918  -0.452   4.262  1.7531 -0.3041 -2.6393
   36MOL0     H 4816   5.018  -0.725   4.265 -1.9293  0.8989  0.7542
   36MOL0     H 4817   5.066  -0.595   4.383  0.6919  3.5266  0.4998
   36MOL0     H 4818   5.135  -0.612   4.098 -0.6738 -0.1839 -0.5489
   36MOL0     H 4819   5.236  -0.643   4.242  0.1556  2.8030  2.2208
   36MOL0     H 4820   5.194  -0.194   4.146 -2.4436 -1.6771  2.1187
   36MOL0     H 4821   5.385  -0.086   4.043 -0.2903  0.7848 -1.3296
   36MOL0     H 4822   5.615  -0.271   3.565 -0.3389 -0.5068 -0.8785
   36MOL0     H 4823   5.766  -0.187   3.388  0.0892 -0.8286 -0.6542
   36MOL0     H 4824   5.977  -0.157   3.242  0.5096  0.2254 -0.7293
   36MOL0     H 4825   5.910   0.002   3.303  0.5251  0.0638 -0.8054
   36MOL0     H 4826   6.158   0.073   3.299  1.0693 -1.8528  1.1352
   36MOL0     H 4827   6.189  -0.082   3.210  0.2928 -0.1876  1.0342
   36MOL0     H 4828   5.984   0.098   3.097  1.1948  4.1184 -0.5278
   36MOL0     H 4829   6.158   0.142   3.076  0.4972 -0.6897  0.5748
   36MOL0     H 4830   6.036  -0.003   2.885  0.5713 -3.2655 -1.8183
   36MOL0     H 4831   6.070  -0.127   3.010 -0.0262  0.3921  4.1825
   36MOL0     H 4832   6.301  -0.059   3.013  0.6979 -2.0799 -2.6334
   36MOL0     H 4833   6.277   0.064   2.885 -0.8764  1.3230 -1.1780
   36MOL0     H 4834   6.237  -0.242   2.852  0.5612  0.6188  1.9523
   36MOL0     H 4835   6.174  -0.109   2.741 -0.8693 -1.5681 -0.5935
   36MOL0     H 4836   6.461  -0.137   2.847 -0.4843 -1.1158  0.1641
   36MOL0     H 4837   6.408  -0.054   2.703 -0.0480  1.1474  0.6652
   36MOL0     H 4838   6.348  -0.306   2.628 -0.3021 -0.5059  0.5228
   36MOL0     H 4839   6.526  -0.269   2.656  0.3934 -0.4704  1.3785
   36MOL0     H 4840   6.079  -0.169   3.682 -0.5507  0.9901  1.7825
   36MOL0     H 4841   5.910  -0.223   3.866  0.0559 -0.8068  0.2728
   36MOL0     H 4842   5.548  -0.465   3.933  0.8379 -2.0759  0.8382
   36MOL0     H 4843   5.381  -0.569   4.065  0.6780  0.4616 -1.8913
   36MOL0     H 4844   4.532   0.495   4.202 -0.7939  1.7127 -3.4640
   36MOL0     H 4845   4.669   0.654   4.088 -0.9023 -1.0897 -0.5161
   36MOL0     H 4846   4.614   1.112   3.913 -1.1254  2.8561 -1.8802
   36MOL0     H 4847   4.727   1.228   3.738 -1.5821 -1.6872 -1.0801
   36MOL0     H 4848   5.182   1.245   3.765 -1.1442 -0.6930  2.8597
   36MOL0     H 4849   5.140   1.390   3.851  0.2469  0.4024 -0.2183
   36MOL0     H 4850   5.275   1.459   3.666  0.7235 -0.2322  0.8020
   36MOL0     H 4851   5.111   1.520   3.654  3.5121  1.8010  0.7654
   36MOL0     H 4852   5.082   1.313   3.489  0.8088 -0.6923 -1.4905
   36MOL0     H 4853   5.248   1.279   3.502  0.0123  0.9016 -1.3069
   36MOL0     H 4854   5.237   1.403   3.309  0.2981 -2.3129  1.1821
   36MOL0     H 4855   5.115   1.506   3.371  0.9216  1.9285  0.1100
   36MOL0     H 4856   5.474   1.706   3.493 -2.2208  1.4511  2.8988
   36MOL0     H 4857   5.081   1.238   4.009 -0.5676 -1.8168  4.0034
   36MOL0     H 4858   5.092   1.091   4.180  0.0334 -1.1227  0.1770
   36MOL0     H 4859   4.936   1.058   4.261  0.9375  0.2663  0.5322
   36MOL0     H 4860   5.019   0.932   4.159 -1.2070 -0.6578 -1.1684
   37MOL0     O 4861   5.090   2.888   2.191  0.7667 -0.0184 -1.0514
   37MOL0     C 4862   5.116   2.952   2.292  0.6057 -1.1450 -0.5630
   37MOL0     O 4863   5.062   3.074   2.318  0.1488  0.1794 -0.4338
   37MOL0     C 4864   4.957   3.118   2.246  0.8447 -0.9059 -0.2879
   37MOL0     C 4865   4.847   3.043   2.218  0.7109 -0.7504 -0.5251
   37MOL0     C 4866   4.731   3.098   2.153 -0.9169 -0.3540  0.0024
   37MOL0     C 4867   4.740   3.232   2.107  0.7951  0.0656  0.5905
   37MOL0     O 4868   4.642   3.293   2.035  0.0237  0.2544  0.1207
   37MOL0     C 4869   4.512   3.297   2.092 -0.0973 -0.5942  0.2863
   37MOL0     C 4870   4.404   3.273   1.976 -0.6333 -0.0493  0.2198
   37MOL0     C 4871   4.389   3.393   1.873 -0.3735  0.8457 -0.1822
   37MOL0     C 4872   4.284   3.355   1.756  0.0201 -0.9057  0.4880
   37MOL0     C 4873   4.357   3.364   1.620 -0.6634  0.4022  0.1579
   37MOL0     C 4874   4.368   3.508   1.567 -0.7076 -0.4062  0.4110
   37MOL0     C 4875   4.435   3.514   1.431  0.6791  0.1795 -1.2483
   37MOL0     C 4876   4.463   3.656   1.388 -0.5108 -0.0181 -0.2992
   37MOL0     N 4877   4.480   3.660   1.239  0.2641  0.0598 -1.3780
   37MOL0     C 4878   4.435   3.752   1.150  0.6063  1.3721  0.9711
   37MOL0     C 4879   4.487   3.708   1.029 -0.8817 -0.0363 -0.8311
   37MOL0     C 4880   4.487   3.754   0.887  0.2397 -0.9199  0.7233
   37MOL0     C 4881   4.615   3.802   0.826 -0.4236 -0.6873  0.5382
   37MOL0     C 4882   4.677   3.923   0.893 -0.2941  0.6033 -0.5856
   37MOL0     C 4883   4.785   3.869   0.986 -0.0654  0.6487 -0.2899
   37MOL0     O 4884   4.913   3.908   0.943 -0.4839 -0.1394 -0.7903
   37MOL0     C 4885   5.012   3.894   1.041  0.7860 -0.5464 -0.2541
   37MOL0     C 4886   5.109   3.995   1.070 -0.0913  0.1359  0.8776
   37MOL0     C 4887   5.197   3.980   1.165 -0.3018  0.7273  0.2427
   37MOL0     C 4888   5.216   3.857   1.227  0.5594  0.3871  0.5336
   37MOL0     C 4889   5.324   3.847   1.335  0.0801 -0.6336 -0.2639
   37MOL0     O 4890   5.419   3.943   1.322 -0.1618  0.3098  0.0739
   37MOL0     C 4891   5.520   3.944   1.415 -0.2572 -0.3009  0.1307
   37MOL0     C 4892   5.618   3.852   1.402 -0.8734  0.0829  1.2395
   37MOL0     C 4893   5.739   3.860   1.478 -0.0052  0.0564  0.0203
   37MOL0     C 4894   5.764   3.975   1.562  0.0351 -0.6199  0.2056
   37MOL0     O 4895   5.882   3.991   1.623  0.3112 -0.8714 -0.7182
   37MOL0     C 4896   5.928   3.892   1.714  0.2245  1.1423 -0.3174
   37MOL0     C 4897   6.070   3.926   1.760 -0.7647  0.1513  0.5556
   37MOL0     C 4898   6.120   3.822   1.864  0.0009  0.2565  0.0171
   37MOL0     C 4899   6.271   3.844   1.895  0.2046 -0.7749  1.3919
   37MOL0     C 4900   6.317   3.767   2.022  0.3230 -0.5356 -0.0521
   37MOL0     C 4901   6.277   3.843   2.151 -0.2508 -0.1522 -0.0373
   37MOL0     C 4902   6.275   3.736   2.269 -0.0448 -0.0678  0.9067
   37MOL0     C 4903   6.232   3.808   2.395  0.4168 -0.3826 -0.8341
   37MOL0    Cl 4904   6.074   3.867   2.376  0.6211 -0.3316 -0.1161
   37MOL0     C 4905   5.661   4.070   1.572  0.0449  0.7717 -0.0005
   37MOL0     C 4906   5.539   4.050   1.504 -0.2204 -0.8917 -0.6752
   37MOL0     O 4907   5.320   3.754   1.414  0.0288  0.2800  0.4223
   37MOL0     C 4908   5.135   3.754   1.193 -0.0674  0.4340 -0.1783
   37MOL0     C 4909   5.037   3.770   1.099  0.2843  0.0442  0.7264
   37MOL0     N 4910   4.564   3.607   1.054 -0.8418  0.4869  0.1548
   37MOL0     N 4911   4.561   3.575   1.175 -0.0138 -0.6457  0.7580
   37MOL0     C 4912   4.852   3.311   2.134 -0.7829  0.1015 -0.1278
   37MOL0     C 4913   4.957   3.252   2.210  0.6191 -0.5714 -0.7893
   37MOL0     C 4914   5.225   2.898   2.386 -0.1630  0.4173 -0.2217
   37MOL0     C 4915   5.253   2.762   2.365  0.1161 -0.3381 -0.1889
   37MOL0     C 4916   5.351   2.700   2.441 -0.3040  0.2110  0.3734
   37MOL0     C 4917   5.397   2.752   2.557 -0.0118  0.0408 -0.2761
   37MOL0     O 4918   5.482   2.688   2.631  0.0249  0.4876 -0.1400
   37MOL0     C 4919   5.579   2.589   2.565  0.8409  0.1648 -1.0474
   37MOL0     C 4920   5.722   2.639   2.576 -0.0686 -0.1958 -0.3932
   37MOL0     C 4921   5.765   2.774   2.515 -0.3817  1.3570  0.8548
   37MOL0     C 4922   5.904   2.801   2.542  0.1537 -0.1306  0.4140
   37MOL0     C 4923   5.935   2.944   2.509  0.3699  0.9651 -0.3476
   37MOL0     C 4924   5.951   3.055   2.463  0.0632  0.8001 -0.4258
   37MOL0     C 4925   5.369   2.885   2.587  0.0136 -0.2754  0.9819
   37MOL0     C 4926   5.287   2.962   2.498 -0.1573  0.0152 -0.9469
   37MOL0     C 4927   5.273   3.110   2.524  0.2826 -0.5627  0.1872
   37MOL0     H 4928   4.843   2.946   2.265 -1.8535 -1.0786 -1.2990
   37MOL0     H 4929   4.644   3.037   2.132  0.1774 -1.5981 -1.1383
   37MOL0     H 4930   4.494   3.217   2.164 -1.9989 -2.3064 -1.9272
   37MOL0     H 4931   4.491   3.394   2.137  3.8014 -0.1132  1.4023
   37MOL0     H 4932   4.310   3.257   2.031 -0.9616 -2.1749 -0.8608
   37MOL0     H 4933   4.431   3.183   1.922  0.7175  0.6564 -0.3158
   37MOL0     H 4934   4.489   3.411   1.831 -0.8067  2.3876 -0.6032
   37MOL0     H 4935   4.355   3.485   1.922  0.8575  1.4747 -0.4640
   37MOL0     H 4936   4.261   3.248   1.765 -0.5211 -0.8050  0.3025
   37MOL0     H 4937   4.190   3.410   1.758 -1.5155 -3.3958  1.2739
   37MOL0     H 4938   4.456   3.317   1.618 -1.9964 -2.6487 -2.4796
   37MOL0     H 4939   4.305   3.301   1.547  0.5240 -0.5889  0.1428
   37MOL0     H 4940   4.267   3.548   1.557 -0.9642  0.0127  3.5355
   37MOL0     H 4941   4.428   3.572   1.634 -0.0702  1.5350 -1.8654
   37MOL0     H 4942   4.367   3.463   1.363 -0.6594 -0.5246  0.5489
   37MOL0     H 4943   4.527   3.455   1.442  0.5956  0.3855  1.0394
   37MOL0     H 4944   4.371   3.709   1.416  0.2252  0.8852  0.4874
   37MOL0     H 4945   4.542   3.705   1.445  0.5300 -0.5026 -1.2805
   37MOL0     H 4946   4.374   3.841   1.166  0.3191  1.7707 -1.8101
   37MOL0     H 4947   4.452   3.682   0.812 -1.1754  0.2740  0.1871
   37MOL0     H 4948   4.413   3.834   0.875 -1.0587 -2.3021 -1.1002
   37MOL0     H 4949   4.682   3.717   0.811 -0.7661 -0.8773  0.0891
   37MOL0     H 4950   4.596   3.841   0.726  2.7869  1.2762  0.5641
   37MOL0     H 4951   4.597   3.969   0.952  1.5579  1.0465  1.6777
   37MOL0     H 4952   4.724   4.003   0.835 -0.0067  3.3463  3.1058
   37MOL0     H 4953   4.776   3.760   0.987 -3.4032  0.8036 -1.8762
   37MOL0     H 4954   4.764   3.907   1.086  0.5522  3.5282 -1.1356
   37MOL0     H 4955   5.109   4.092   1.021  0.0684  0.4582  1.5108
   37MOL0     H 4956   5.260   4.065   1.188 -0.6382  0.4949  2.1981
   37MOL0     H 4957   5.592   3.762   1.347 -1.4048  0.3124  1.1152
   37MOL0     H 4958   5.807   3.777   1.490 -0.5284 -0.3505  0.1770
   37MOL0     H 4959   5.877   3.903   1.810  1.7262 -1.3893  0.8839
   37MOL0     H 4960   5.916   3.786   1.688 -2.8231  1.5993 -1.1576
   37MOL0     H 4961   6.139   3.927   1.675  0.4804  1.4515  1.5171
   37MOL0     H 4962   6.083   4.026   1.803 -0.1820  0.4307 -0.2392
   37MOL0     H 4963   6.059   3.826   1.955  1.4717 -0.5199  1.0744
   37MOL0     H 4964   6.114   3.719   1.828  4.0717  0.1385 -0.7580
   37MOL0     H 4965   6.293   3.950   1.910 -0.6449 -0.8587  3.6493
   37MOL0     H 4966   6.336   3.811   1.814  1.4405 -2.0315  2.8256
   37MOL0     H 4967   6.426   3.765   2.016  0.3698 -0.7112  0.7327
   37MOL0     H 4968   6.286   3.663   2.018  0.9029 -0.7089 -3.6799
   37MOL0     H 4969   6.344   3.926   2.175  2.2422 -0.7474 -3.9382
   37MOL0     H 4970   6.181   3.888   2.122  0.2828  0.6822 -0.5497
   37MOL0     H 4971   6.376   3.695   2.281  0.0482  0.5677  2.5840
   37MOL0     H 4972   6.215   3.649   2.240  0.6193  0.1606 -1.3636
   37MOL0     H 4973   6.244   3.739   2.479 -2.8250 -4.3147 -3.2722
   37MOL0     H 4974   6.300   3.894   2.396 -0.9903  0.7488  0.4522
   37MOL0     H 4975   5.670   4.163   1.628  2.5229  0.6775 -0.1193
   37MOL0     H 4976   5.447   4.107   1.505 -0.0197 -0.5580 -0.0554
   37MOL0     H 4977   5.142   3.659   1.245 -1.7630  1.4178  2.0210
   37MOL0     H 4978   4.978   3.683   1.073 -0.1859  0.7239 -0.6011
   37MOL0     H 4979   4.873   3.414   2.108  3.0935  0.0217  1.9423
   37MOL0     H 4980   5.032   3.321   2.248 -0.1018  1.5506 -2.9379
   37MOL0     H 4981   5.200   2.701   2.292  1.3733 -2.4538  0.5767
   37MOL0     H 4982   5.365   2.594   2.420 -1.0251  0.2283 -0.2444
   37MOL0     H 4983   5.568   2.580   2.457  3.2954 -0.0901 -1.3220
   37MOL0     H 4984   5.557   2.485   2.589  0.7848  0.4088  0.0141
   37MOL0     H 4985   5.792   2.570   2.528  1.8132 -0.5447  2.5726
   37MOL0     H 4986   5.755   2.651   2.680  2.3611  2.4993 -1.3066
   37MOL0     H 4987   5.709   2.857   2.558  1.8414  1.7619  3.2754
   37MOL0     H 4988   5.742   2.766   2.408 -0.8196  0.5799  0.9966
   37MOL0     H 4989   5.929   2.781   2.646  0.0813 -0.4527  0.3685
   37MOL0     H 4990   5.971   2.741   2.480  2.1254  1.8498  0.4694
   37MOL0     H 4991   5.956   3.153   2.421  1.2045  0.4891 -1.0690
   37MOL0     H 4992   5.435   2.925   2.662 -0.9380 -0.1252  1.7606
   37MOL0     H 4993   5.182   3.134   2.580  1.0751  0.8216  0.9247
   37MOL0     H 4994   5.357   3.126   2.592 -0.3757 -1.2049  1.1797
   37MOL0     H 4995   5.279   3.168   2.431 -1.2232 -1.2714 -0.3977
   38MOL0     O 4996   1.504   7.374   2.737  0.1239 -0.2932 -0.4306
   38MOL0     C 4997   1.483   7.397   2.857 -0.6247 -1.0956 -0.3088
   38MOL0     O 4998   1.517   7.311   2.957  0.1794 -0.5585  0.3545
   38MOL0     C 4999   1.595   7.203   2.936  0.9377 -0.7112  0.1120
   38MOL0     C 5000   1.544   7.104   2.855 -0.0124  0.3138  0.1869
   38MOL0     C 5001   1.624   6.986   2.833  0.3145 -0.8885 -0.0763
   38MOL0     C 5002   1.729   6.958   2.914  0.1887  0.1456 -0.2835
   38MOL0     O 5003   1.793   6.841   2.888  0.8810 -0.0850 -0.1405
   38MOL0     C 5004   1.888   6.791   2.988 -0.1684 -0.8862 -0.0553
   38MOL0     C 5005   2.034   6.851   2.979 -0.4044  0.7030  0.1778
   38MOL0     C 5006   2.108   6.818   3.109  0.5489 -1.2715  0.7694
   38MOL0     C 5007   2.247   6.872   3.124  0.4226  0.8788  0.0784
   38MOL0     C 5008   2.354   6.778   3.054 -0.4365  0.5500  1.4043
   38MOL0     C 5009   2.489   6.845   3.043  0.4074 -0.2822 -0.1970
   38MOL0     C 5010   2.573   6.787   2.930  0.5029 -0.0847 -0.5214
   38MOL0     C 5011   2.510   6.788   2.795 -0.0359 -0.4671 -0.0011
   38MOL0     N 5012   2.628   6.804   2.699 -0.1692  0.2446 -0.2769
   38MOL0     C 5013   2.675   6.923   2.650 -0.8262 -0.1086  0.1266
   38MOL0     C 5014   2.766   6.886   2.552 -0.2615  0.6317 -0.1536
   38MOL0     C 5015   2.827   6.991   2.465 -0.8226 -0.2373 -0.2152
   38MOL0     C 5016   2.980   7.024   2.476 -0.4416  0.8498 -1.1971
   38MOL0     C 5017   3.056   6.892   2.460  0.7649 -0.8075  0.3222
   38MOL0     C 5018   3.206   6.926   2.456  0.0750  0.0633  0.3305
   38MOL0     O 5019   3.280   6.822   2.398 -0.4014 -0.3932  0.2401
   38MOL0     C 5020   3.381   6.759   2.466 -0.7235  0.8532  0.4763
   38MOL0     C 5021   3.448   6.812   2.579 -0.6708 -0.4540  0.6604
   38MOL0     C 5022   3.554   6.741   2.629 -0.8287  1.0935  0.0570
   38MOL0     C 5023   3.613   6.633   2.566 -0.0954 -0.1326  0.1917
   38MOL0     C 5024   3.735   6.562   2.640  0.5759 -0.1690  1.6164
   38MOL0     O 5025   3.793   6.450   2.579 -0.5197 -0.4850 -0.5609
   38MOL0     C 5026   3.893   6.391   2.661 -0.0534 -0.4549 -0.2060
   38MOL0     C 5027   4.017   6.459   2.675 -0.1293  0.4994  0.7076
   38MOL0     C 5028   4.121   6.401   2.739  0.0046  0.1762  0.2553
   38MOL0     C 5029   4.111   6.267   2.792 -0.6455 -0.2017 -0.6703
   38MOL0     O 5030   4.206   6.207   2.867  0.0909 -0.3396  0.0400
   38MOL0     C 5031   4.238   6.271   2.995  0.1695  0.8613  0.0327
   38MOL0     C 5032   4.294   6.178   3.099 -1.4142 -0.0362  1.7229
   38MOL0     C 5033   4.185   6.097   3.166 -0.5769  1.6255 -0.4442
   38MOL0     C 5034   4.110   6.169   3.279 -0.0454 -0.8981  0.3337
   38MOL0     C 5035   3.976   6.107   3.306 -0.0313  1.2417  0.2718
   38MOL0     C 5036   3.965   5.972   3.378  0.2298 -0.2009 -0.1249
   38MOL0     C 5037   4.021   5.989   3.521  0.3692 -0.4206  0.1581
   38MOL0     C 5038   3.994   5.863   3.598  0.4018  0.5053 -0.1862
   38MOL0    Cl 5039   4.017   5.895   3.769  0.2316  0.0318 -0.1039
   38MOL0     C 5040   3.990   6.197   2.782  0.6919 -0.7282 -0.7159
   38MOL0     C 5041   3.878   6.260   2.729 -0.4490  0.1391  0.7289
   38MOL0     O 5042   3.769   6.610   2.748  0.1158 -0.2355 -0.0856
   38MOL0     C 5043   3.559   6.589   2.441  0.0799 -0.7093 -0.1106
   38MOL0     C 5044   3.444   6.654   2.394 -0.3834 -0.3570 -0.3452
   38MOL0     N 5045   2.774   6.748   2.547 -0.0379  0.0605  0.1655
   38MOL0     N 5046   2.703   6.705   2.652 -0.8892 -0.1630  0.1852
   38MOL0     C 5047   1.774   7.058   3.005 -0.6056 -0.2199  0.0584
   38MOL0     C 5048   1.707   7.173   3.014  1.1331 -0.0235 -0.7002
   38MOL0     C 5049   1.408   7.524   2.882 -0.1043 -0.4060 -1.1375
   38MOL0     C 5050   1.438   7.645   2.814 -1.0577 -0.0853 -0.6639
   38MOL0     C 5051   1.373   7.762   2.853  0.7666  0.2191  0.2690
   38MOL0     C 5052   1.288   7.771   2.957  0.6952 -0.7622  0.6431
   38MOL0     O 5053   1.231   7.892   3.001 -0.1522  0.9100  0.4649
   38MOL0     C 5054   1.177   7.976   2.897  0.5621  0.3925 -0.3176
   38MOL0     C 5055   1.201   8.127   2.934  0.3669  0.2522 -0.5202
   38MOL0     C 5056   1.334   8.183   2.884 -1.0459  0.4036 -0.3709
   38MOL0     C 5057   1.385   8.330   2.930  0.0726  0.2803 -0.4291
   38MOL0     C 5058   1.271   8.431   2.921  0.0406  0.4610 -0.1546
   38MOL0     C 5059   1.174   8.500   2.904  0.6825 -0.3183 -0.8534
   38MOL0     C 5060   1.255   7.658   3.019 -0.2875  0.1959 -0.7310
   38MOL0     C 5061   1.319   7.537   2.984 -0.3766 -0.0753 -0.8847
   38MOL0     C 5062   1.278   7.420   3.075  0.5494  0.2936 -0.2545
   38MOL0     H 5063   1.446   7.109   2.810 -0.0533  0.3121  0.2763
   38MOL0     H 5064   1.580   6.910   2.769 -2.5936 -0.9845  1.8569
   38MOL0     H 5065   1.837   6.806   3.084  0.0155  0.1020 -0.1004
   38MOL0     H 5066   1.898   6.683   2.978  0.1097 -1.2279  2.9144
   38MOL0     H 5067   2.042   6.958   2.959  0.3356  1.0596  2.1089
   38MOL0     H 5068   2.093   6.808   2.898 -0.6913 -2.7226  1.6227
   38MOL0     H 5069   2.113   6.709   3.119 -2.5666 -1.3195  3.2279
   38MOL0     H 5070   2.052   6.842   3.200  2.5727 -2.5165  2.4343
   38MOL0     H 5071   2.250   6.972   3.080  1.7414  0.6508 -0.4232
   38MOL0     H 5072   2.274   6.887   3.229 -1.2968 -0.8470  0.8299
   38MOL0     H 5073   2.348   6.682   3.106 -2.2935 -0.6062 -0.7561
   38MOL0     H 5074   2.319   6.752   2.954  0.1619  0.8512  1.1123
   38MOL0     H 5075   2.475   6.954   3.034 -5.8549 -0.5700  1.4168
   38MOL0     H 5076   2.538   6.823   3.138 -0.8492  0.5860  0.6776
   38MOL0     H 5077   2.613   6.688   2.954 -0.8941 -0.7040 -0.6366
   38MOL0     H 5078   2.655   6.858   2.937  0.3396 -0.0463  2.0479
   38MOL0     H 5079   2.448   6.699   2.780  0.4115 -1.0944  1.6313
   38MOL0     H 5080   2.443   6.873   2.782 -1.1774 -1.3817 -0.2618
   38MOL0     H 5081   2.634   7.022   2.668  2.1088  2.0503 -3.5205
   38MOL0     H 5082   2.795   6.968   2.363  0.3775 -3.0275 -0.0563
   38MOL0     H 5083   2.786   7.089   2.494 -1.2221 -1.1275  2.5365
   38MOL0     H 5084   3.004   7.090   2.393  0.5372 -0.8708 -2.3384
   38MOL0     H 5085   3.006   7.062   2.575 -2.0069 -2.8766  0.8514
   38MOL0     H 5086   3.030   6.832   2.372  2.7299 -2.5071  0.8573
   38MOL0     H 5087   3.026   6.819   2.535 -0.1007 -1.1202 -0.3046
   38MOL0     H 5088   3.234   6.955   2.558  2.4151 -4.1927  1.1181
   38MOL0     H 5089   3.219   7.014   2.392  0.4367  1.7289  2.5854
   38MOL0     H 5090   3.397   6.890   2.635 -0.0010 -0.6233  1.5307
   38MOL0     H 5091   3.594   6.777   2.723  0.3847 -0.2145  0.0879
   38MOL0     H 5092   4.037   6.555   2.627 -0.1867  0.4972  0.6793
   38MOL0     H 5093   4.217   6.451   2.742  0.4851 -0.7409  0.5822
   38MOL0     H 5094   4.312   6.350   2.987  0.9550  0.2234  0.7179
   38MOL0     H 5095   4.154   6.321   3.044  1.8438  0.4811  3.6132
   38MOL0     H 5096   4.373   6.119   3.051 -1.2324  2.3088 -1.1298
   38MOL0     H 5097   4.344   6.235   3.178  1.7718 -3.2965  2.2959
   38MOL0     H 5098   4.115   6.058   3.092  1.3379 -0.9691 -1.0022
   38MOL0     H 5099   4.237   6.012   3.210 -2.5866 -1.2549 -3.2042
   38MOL0     H 5100   4.096   6.272   3.248  0.0616 -0.3909  1.8805
   38MOL0     H 5101   4.177   6.175   3.365  3.8372 -1.3914 -2.3812
   38MOL0     H 5102   3.929   6.085   3.209 -0.0751 -1.6805  0.8614
   38MOL0     H 5103   3.914   6.181   3.357 -0.2113  1.4535 -0.2512
   38MOL0     H 5104   3.858   5.955   3.386 -0.1197  1.5453 -0.6188
   38MOL0     H 5105   4.023   5.894   3.329  0.0763 -2.0201  2.3834
   38MOL0     H 5106   3.980   6.081   3.563  5.1641  2.0340  0.1543
   38MOL0     H 5107   4.126   6.017   3.518  0.0087  1.0214  0.4910
   38MOL0     H 5108   3.890   5.831   3.588 -0.1771  2.0337  0.5928
   38MOL0     H 5109   4.056   5.783   3.557  0.3728  1.1486 -1.5479
   38MOL0     H 5110   3.983   6.096   2.821 -2.2891 -0.1692  0.4562
   38MOL0     H 5111   3.781   6.212   2.732 -0.1978 -0.3759  0.7251
   38MOL0     H 5112   3.600   6.506   2.385  0.4425 -0.8909  0.4134
   38MOL0     H 5113   3.406   6.634   2.294  0.8471 -1.1905 -0.6705
   38MOL0     H 5114   1.864   7.052   3.066 -0.7802 -0.0561  0.3305
   38MOL0     H 5115   1.733   7.251   3.085  3.7777 -0.9287 -0.5756
   38MOL0     H 5116   1.507   7.643   2.731  2.0075  0.7270  1.6520
   38MOL0     H 5117   1.400   7.855   2.803  2.9993 -1.2780 -1.4896
   38MOL0     H 5118   1.071   7.950   2.886  0.3944 -0.0336  1.9495
   38MOL0     H 5119   1.209   7.954   2.794 -2.1640  0.4993 -1.2652
   38MOL0     H 5120   1.219   8.131   3.042  1.4494 -0.2732 -0.6702
   38MOL0     H 5121   1.121   8.198   2.908  1.0858  3.0158  3.8467
   38MOL0     H 5122   1.326   8.189   2.775  0.9527  0.0708 -0.5878
   38MOL0     H 5123   1.418   8.114   2.900 -2.4590 -0.8400  2.5852
   38MOL0     H 5124   1.434   8.325   3.028  2.0929 -1.5762 -1.4320
   38MOL0     H 5125   1.455   8.352   2.849 -0.8949 -0.0280 -1.3605
   38MOL0     H 5126   1.098   8.571   2.878 -2.1274 -1.6779  2.7054
   38MOL0     H 5127   1.181   7.661   3.099  1.1898 -2.6990  0.8713
   38MOL0     H 5128   1.190   7.449   3.134 -0.0221 -2.0765  0.1550
   38MOL0     H 5129   1.256   7.326   3.023  0.1773 -0.8625  1.8664
   38MOL0     H 5130   1.359   7.408   3.147  1.3304  1.3917 -0.9239
   39MOL0     O 5131   9.122   1.004   3.118  0.3926 -0.9098 -0.0414
   39MOL0     C 5132   9.215   0.937   3.163 -0.1589 -0.7505 -0.3344
   39MOL0     O 5133   9.215   0.871   3.287  0.3820 -0.3168  0.4216
   39MOL0     C 5134   9.132   0.915   3.381  0.6038  0.1658 -1.1935
   39MOL0     C 5135   9.045   0.836   3.453 -0.2355  1.1195 -0.0448
   39MOL0     C 5136   8.962   0.887   3.543  1.5669 -0.1749 -0.0388
   39MOL0     C 5137   8.961   1.028   3.575 -0.8755 -0.1569  0.3166
   39MOL0     O 5138   8.876   1.063   3.670  0.0490  0.5086 -0.0760
   39MOL0     C 5139   8.769   1.156   3.625 -0.1531 -0.4034 -0.0363
   39MOL0     C 5140   8.727   1.259   3.734 -1.7653 -0.2146 -0.0162
   39MOL0     C 5141   8.640   1.370   3.670  0.8989 -1.0130  0.3227
   39MOL0     C 5142   8.488   1.348   3.703 -0.7295 -0.1559 -0.5532
   39MOL0     C 5143   8.416   1.406   3.586 -0.1264  0.5181 -1.4883
   39MOL0     C 5144   8.274   1.394   3.616  0.5219 -0.9094 -0.2273
   39MOL0     C 5145   8.196   1.433   3.497 -0.5807  0.3005 -0.0841
   39MOL0     C 5146   8.054   1.470   3.519 -0.8608  0.4352 -0.5910
   39MOL0     N 5147   7.975   1.376   3.603 -0.4881  0.4607 -1.1642
   39MOL0     C 5148   7.891   1.274   3.555  0.1989  0.0747  0.1201
   39MOL0     C 5149   7.825   1.219   3.664  0.1778  0.0705  0.0611
   39MOL0     C 5150   7.737   1.092   3.652  0.4787 -0.3230  0.2067
   39MOL0     C 5151   7.721   1.050   3.500  0.8014  0.3180 -0.3566
   39MOL0     C 5152   7.602   0.954   3.498  0.4343 -0.2334 -0.2423
   39MOL0     C 5153   7.564   0.935   3.341 -0.2933 -0.4750 -0.0521
   39MOL0     O 5154   7.660   0.873   3.265  0.1870  0.2217 -0.0446
   39MOL0     C 5155   7.667   0.736   3.298 -0.4974  0.2356 -0.4912
   39MOL0     C 5156   7.569   0.651   3.239 -0.2060  0.7643 -0.4598
   39MOL0     C 5157   7.574   0.512   3.260 -0.1390 -0.2148  0.4254
   39MOL0     C 5158   7.686   0.459   3.328  0.1553  0.2601  0.6213
   39MOL0     C 5159   7.678   0.314   3.361 -0.9581 -0.0924  0.3610
   39MOL0     O 5160   7.780   0.261   3.442 -0.1651  0.3924 -0.0821
   39MOL0     C 5161   7.768   0.130   3.471 -0.9912  0.3812 -0.3597
   39MOL0     C 5162   7.838   0.028   3.404  0.4435 -0.9823  0.0042
   39MOL0     C 5163   7.828  -0.105   3.447 -0.0469 -0.7103  0.3951
   39MOL0     C 5164   7.750  -0.138   3.556  0.4150  0.5203  0.1151
   39MOL0     O 5165   7.736  -0.260   3.621 -0.0074 -0.0264  0.9401
   39MOL0     C 5166   7.846  -0.347   3.602 -0.7435 -0.9317  0.7484
   39MOL0     C 5167   7.951  -0.306   3.713  0.0404 -0.5317 -0.7104
   39MOL0     C 5168   8.086  -0.389   3.704  0.0240  0.5336 -0.1146
   39MOL0     C 5169   8.187  -0.316   3.795  1.3307  0.2984 -0.3509
   39MOL0     C 5170   8.317  -0.396   3.826  0.0414  0.3682  0.8584
   39MOL0     C 5171   8.310  -0.523   3.913  0.7153 -0.1387 -0.0892
   39MOL0     C 5172   8.339  -0.644   3.835 -0.0304  0.4683 -0.3761
   39MOL0     C 5173   8.331  -0.767   3.922  0.3261 -0.3652  0.0578
   39MOL0    Cl 5174   8.408  -0.893   3.828 -0.1204 -0.2691  0.2231
   39MOL0     C 5175   7.678  -0.038   3.621 -0.1006 -1.0145  0.1723
   39MOL0     C 5176   7.689   0.094   3.582  0.4860 -0.3676  0.0591
   39MOL0     O 5177   7.585   0.245   3.318 -0.2835  0.1179 -0.2538
   39MOL0     C 5178   7.798   0.531   3.361  0.1904  0.3302 -0.6356
   39MOL0     C 5179   7.782   0.676   3.351 -0.0945  0.1428 -0.0929
   39MOL0     N 5180   7.877   1.279   3.779  0.2395 -1.0148 -0.1354
   39MOL0     N 5181   7.963   1.373   3.739  0.0151 -0.7065  0.2873
   39MOL0     C 5182   9.051   1.105   3.513  0.1745  0.3161 -0.2784
   39MOL0     C 5183   9.139   1.046   3.426 -0.9672 -0.2006  0.9434
   39MOL0     C 5184   9.338   0.919   3.080 -1.0897  0.2843 -0.7848
   39MOL0     C 5185   9.412   0.796   3.102  1.0673 -0.1256 -0.4413
   39MOL0     C 5186   9.514   0.767   3.015  0.4722 -0.4571  0.5858
   39MOL0     C 5187   9.546   0.845   2.910 -0.5896  0.1071 -0.2870
   39MOL0     O 5188   9.652   0.808   2.829 -0.3158  0.1542  0.2376
   39MOL0     C 5189   9.784   0.798   2.892 -0.0639  0.1472  0.0932
   39MOL0     C 5190   9.873   0.734   2.785 -0.0021 -0.3097 -0.5247
   39MOL0     C 5191   9.946   0.844   2.705 -0.7125 -0.1054  0.5170
   39MOL0     C 5192  10.042   0.796   2.604 -0.6188 -0.1483  0.0281
   39MOL0     C 5193  10.067   0.890   2.494 -1.3025 -0.2617  0.4018
   39MOL0     C 5194  10.109   0.958   2.402  0.1304  0.0541 -0.0754
   39MOL0     C 5195   9.482   0.972   2.893 -0.2755 -0.3190 -0.9908
   39MOL0     C 5196   9.378   1.007   2.971  0.2782  0.1812  0.0349
   39MOL0     C 5197   9.315   1.140   2.948 -0.0718  0.1192 -0.2927
   39MOL0     H 5198   9.031   0.729   3.436  0.1077  1.0976 -0.1927
   39MOL0     H 5199   8.904   0.807   3.588  1.4268 -0.3463 -0.5134
   39MOL0     H 5200   8.798   1.206   3.532  1.1900 -2.7884 -0.9897
   39MOL0     H 5201   8.677   1.102   3.599  0.2883 -0.9078 -0.5487
   39MOL0     H 5202   8.817   1.311   3.768 -0.8718 -0.6805 -1.5922
   39MOL0     H 5203   8.676   1.214   3.820 -0.8651 -0.5381  0.3574
   39MOL0     H 5204   8.678   1.378   3.567  1.0341  0.9276  0.4934
   39MOL0     H 5205   8.669   1.469   3.704  1.7376 -0.9777 -0.4513
   39MOL0     H 5206   8.463   1.242   3.711 -2.1736  0.2373  0.8711
   39MOL0     H 5207   8.472   1.392   3.802 -0.2856 -1.1259 -0.0374
   39MOL0     H 5208   8.446   1.510   3.572 -0.2340  0.6502 -0.8138
   39MOL0     H 5209   8.426   1.350   3.493  1.8905 -1.3695 -0.2254
   39MOL0     H 5210   8.233   1.303   3.659 -1.8870  0.4650  0.6089
   39MOL0     H 5211   8.249   1.467   3.693 -0.4848 -1.9482  0.4522
   39MOL0     H 5212   8.200   1.349   3.427  1.2076  0.7341 -0.5385
   39MOL0     H 5213   8.244   1.524   3.460  1.3397  0.2581  2.1458
   39MOL0     H 5214   8.052   1.572   3.558  5.0578  0.9686 -0.7242
   39MOL0     H 5215   8.015   1.475   3.417  1.2347 -2.5368 -1.6997
   39MOL0     H 5216   7.885   1.242   3.451 -5.6743  0.4031  0.0529
   39MOL0     H 5217   7.775   1.015   3.720 -1.0952 -0.4421  0.9861
   39MOL0     H 5218   7.634   1.114   3.682 -0.0057 -1.8122 -0.3073
   39MOL0     H 5219   7.700   1.141   3.445 -1.7282  0.6949  1.0652
   39MOL0     H 5220   7.810   1.012   3.450  0.7949  2.6917 -2.3272
   39MOL0     H 5221   7.519   1.009   3.543  0.1200  1.3857 -2.6455
   39MOL0     H 5222   7.613   0.856   3.545 -1.6008 -0.6297 -0.4887
   39MOL0     H 5223   7.544   1.032   3.294  2.0470  0.6518  1.0671
   39MOL0     H 5224   7.474   0.873   3.336  0.9908 -2.6665  1.8161
   39MOL0     H 5225   7.486   0.692   3.182 -1.6452  0.1814  1.1441
   39MOL0     H 5226   7.491   0.467   3.206  0.1026  1.8486 -1.8045
   39MOL0     H 5227   7.900   0.049   3.318  0.8498 -0.1436  0.4884
   39MOL0     H 5228   7.861  -0.189   3.387 -0.3601  0.4533 -1.4932
   39MOL0     H 5229   7.815  -0.450   3.621 -0.9514 -0.9652  0.2426
   39MOL0     H 5230   7.883  -0.345   3.499 -1.2145 -0.1906  0.5771
   39MOL0     H 5231   7.979  -0.201   3.703  0.3743 -0.4190  1.1292
   39MOL0     H 5232   7.926  -0.330   3.816  1.4239  1.5487  0.1836
   39MOL0     H 5233   8.073  -0.493   3.736 -2.5550  1.1759  1.1678
   39MOL0     H 5234   8.115  -0.389   3.598  2.0043  0.4048  0.3771
   39MOL0     H 5235   8.135  -0.287   3.886 -0.9193 -0.8549 -1.2049
   39MOL0     H 5236   8.209  -0.218   3.750 -0.7862  1.2772  0.6000
   39MOL0     H 5237   8.370  -0.313   3.874 -3.4580  2.7233  0.9958
   39MOL0     H 5238   8.370  -0.424   3.735 -1.5804 -0.8497  0.2438
   39MOL0     H 5239   8.372  -0.508   4.001 -0.0087 -1.5175  0.6986
   39MOL0     H 5240   8.213  -0.534   3.963  1.4948 -3.8041  0.8858
   39MOL0     H 5241   8.441  -0.639   3.796 -0.1415  0.8643 -0.6244
   39MOL0     H 5242   8.274  -0.656   3.748 -0.5462 -1.1557  0.1883
   39MOL0     H 5243   8.380  -0.740   4.016 -0.1703  3.0181 -0.5316
   39MOL0     H 5244   8.225  -0.780   3.943  0.2419 -0.1158 -0.2023
   39MOL0     H 5245   7.613  -0.059   3.705 -2.1146 -0.3696 -1.1393
   39MOL0     H 5246   7.627   0.166   3.636  0.6184 -0.3885  0.2391
   39MOL0     H 5247   7.888   0.487   3.403 -0.7468 -0.4917  0.5614
   39MOL0     H 5248   7.864   0.744   3.366 -1.0309  1.1431  0.6091
   39MOL0     H 5249   9.067   1.209   3.538 -2.6052  1.0059 -1.0028
   39MOL0     H 5250   9.211   1.114   3.381 -0.4895 -0.6850  0.9687
   39MOL0     H 5251   9.381   0.725   3.177  0.7107  2.5593  2.1469
   39MOL0     H 5252   9.572   0.684   3.052  1.1348  0.8630  2.6734
   39MOL0     H 5253   9.765   0.728   2.974  2.3432 -1.1906 -0.3961
   39MOL0     H 5254   9.827   0.885   2.942 -2.6936 -0.6858  4.2561
   39MOL0     H 5255   9.814   0.674   2.716 -2.0143 -1.2699  1.8708
   39MOL0     H 5256   9.946   0.677   2.843 -0.3351 -1.1411 -0.9065
   39MOL0     H 5257  10.012   0.897   2.775  1.6766 -0.2645 -1.4915
   39MOL0     H 5258   9.877   0.915   2.659  0.6401  1.8752  1.3786
   39MOL0     H 5259  10.130   0.761   2.659  2.2329  2.1536 -2.6575
   39MOL0     H 5260  10.003   0.707   2.554 -0.1658 -1.6042  2.1232
   39MOL0     H 5261  10.148   1.028   2.331  1.5397 -0.0066  0.5834
   39MOL0     H 5262   9.519   1.038   2.815 -1.0514  1.1123 -0.1956
   39MOL0     H 5263   9.215   1.132   2.903 -0.3062  0.8694  0.0900
   39MOL0     H 5264   9.307   1.201   3.038  1.4164  0.3638 -0.3075
   39MOL0     H 5265   9.377   1.201   2.882  2.2787 -0.5015  1.2272
   40MOL0     O 5266  10.760  10.855   0.834  0.2864 -0.7197  0.7014
   40MOL0     C 5267  10.757  10.826   0.708  0.2717  0.2987 -0.3542
   40MOL0     O 5268  10.654  10.753   0.647 -0.0875  0.2171  1.0549
   40MOL0     C 5269  10.554  10.712   0.727 -0.0915  0.0375 -0.1188
   40MOL0     C 5270  10.443  10.789   0.763  0.9761  0.1308  0.4667
   40MOL0     C 5271  10.337  10.742   0.838  0.4850 -0.0976 -0.3147
   40MOL0     C 5272  10.347  10.614   0.899  0.4861  0.1415 -0.6347
   40MOL0     O 5273  10.255  10.586   0.993 -1.2631  0.7394  0.3042
   40MOL0     C 5274  10.254  10.450   1.022 -0.4291 -0.0748 -1.0356
   40MOL0     C 5275  10.141  10.386   1.105 -0.0005 -0.1033  1.1155
   40MOL0     C 5276  10.014  10.358   1.023  0.1695  0.2504 -0.4401
   40MOL0     C 5277  10.003  10.233   0.933 -0.0764  1.1495 -0.3772
   40MOL0     C 5278   9.861  10.188   0.900  0.2413 -0.4539  0.2842
   40MOL0     C 5279   9.849  10.103   0.777 -0.1488  0.6101 -0.9327
   40MOL0     C 5280   9.707  10.047   0.777  0.5222  0.2024 -0.2733
   40MOL0     C 5281   9.690   9.933   0.673 -0.5613  0.4328 -0.3305
   40MOL0     N 5282   9.780   9.821   0.689  0.1888  0.2788  0.6383
   40MOL0     C 5283   9.848   9.773   0.802 -0.2962  0.2187 -0.4276
   40MOL0     C 5284   9.932   9.677   0.761 -0.4585 -0.9965  0.7115
   40MOL0     C 5285  10.043   9.615   0.851 -0.7480  0.6564 -0.2679
   40MOL0     C 5286  10.154   9.723   0.877  0.1202  0.6028  0.7650
   40MOL0     C 5287  10.269   9.674   0.966 -0.5999 -0.4463 -0.0363
   40MOL0     C 5288  10.346   9.787   1.024 -0.0953 -0.9151  0.5232
   40MOL0     O 5289  10.267   9.882   1.101 -0.2605  0.1869 -0.4254
   40MOL0     C 5290  10.198   9.823   1.210  0.1543  0.5146  0.6994
   40MOL0     C 5291  10.267   9.751   1.316 -0.5467  0.2657  0.7655
   40MOL0     C 5292  10.192   9.711   1.424  0.2861 -0.0424  0.8217
   40MOL0     C 5293  10.054   9.744   1.434 -0.0310  0.7741  0.3299
   40MOL0     C 5294   9.977   9.721   1.560 -0.3957 -0.6957  0.5372
   40MOL0     O 5295  10.050   9.662   1.652  0.1969 -0.1589 -0.2969
   40MOL0     C 5296   9.991   9.613   1.765  1.2593 -0.1950  0.0472
   40MOL0     C 5297  10.049   9.640   1.883 -0.9415  0.1843 -1.0236
   40MOL0     C 5298   9.994   9.590   2.002 -0.0991  0.5340  0.0731
   40MOL0     C 5299   9.878   9.505   2.006  0.4604 -0.5691  0.0047
   40MOL0     O 5300   9.821   9.465   2.126  0.2058  0.4180 -0.3538
   40MOL0     C 5301   9.753   9.560   2.203 -0.4794 -0.3318 -0.1805
   40MOL0     C 5302   9.695   9.491   2.320  0.3679 -1.0429 -0.0976
   40MOL0     C 5303   9.649   9.595   2.417 -0.7258  0.0856  0.0653
   40MOL0     C 5304   9.654   9.527   2.552 -1.0260  0.7133  0.0647
   40MOL0     C 5305   9.560   9.601   2.664 -0.4263 -0.3541 -0.3920
   40MOL0     C 5306   9.656   9.610   2.790 -0.6966  0.1258 -0.5385
   40MOL0     C 5307   9.573   9.614   2.923  0.4358  0.0658 -0.1835
   40MOL0     C 5308   9.656   9.559   3.044 -0.1284 -0.6586 -0.6938
   40MOL0    Cl 5309   9.792   9.672   3.092  0.1341 -0.1888 -0.5395
   40MOL0     C 5310   9.823   9.477   1.876  0.5264  0.8526  0.5348
   40MOL0     C 5311   9.876   9.526   1.757  0.7487  0.7416 -0.3403
   40MOL0     O 5312   9.855   9.756   1.566  0.1152  0.0611 -0.1301
   40MOL0     C 5313   9.986   9.810   1.328  0.2058  0.5697 -0.9789
   40MOL0     C 5314  10.058   9.842   1.216  0.6421 -0.0429  0.2458
   40MOL0     N 5315   9.916   9.665   0.624  0.0961  0.4486 -0.3126
   40MOL0     N 5316   9.821   9.746   0.583  0.6191 -0.6192 -0.1312
   40MOL0     C 5317  10.454  10.531   0.855 -0.7815  0.2502  0.1499
   40MOL0     C 5318  10.554  10.585   0.779 -0.8892  0.0222 -0.8639
   40MOL0     C 5319  10.852  10.903   0.620 -0.0509 -0.2754  0.5925
   40MOL0     C 5320  10.937  11.001   0.684  0.4764 -0.3133  0.2141
   40MOL0     C 5321  11.018  11.084   0.597  1.5723 -0.4193 -1.0288
   40MOL0     C 5322  11.009  11.069   0.456  0.8508  0.3314  0.6459
   40MOL0     O 5323  11.065  11.144   0.354 -0.5782  0.3366  0.4279
   40MOL0     C 5324  11.167  11.230   0.407  0.9684 -0.0690 -0.2648
   40MOL0     C 5325  11.212  11.331   0.298 -0.5770 -0.5291 -0.7402
   40MOL0     C 5326  11.087  11.409   0.244  1.1772 -1.0833  0.3606
   40MOL0     C 5327  11.133  11.493   0.124  0.6218  0.2924 -0.4563
   40MOL0     C 5328  11.022  11.568   0.062 -0.7400  0.5518  0.4851
   40MOL0     C 5329  10.931  11.632   0.001 -0.0126 -0.6483 -0.3969
   40MOL0     C 5330  10.920  10.982   0.396 -0.1812  0.5425 -0.9805
   40MOL0     C 5331  10.842  10.896   0.477  0.1749 -0.2447  0.1163
   40MOL0     C 5332  10.765  10.787   0.404  0.0748  0.3388 -0.3539
   40MOL0     H 5333  10.445  10.890   0.724  0.6710 -0.3766 -0.9033
   40MOL0     H 5334  10.270  10.815   0.883  2.6459  1.7913  0.0238
   40MOL0     H 5335  10.260  10.395   0.928  2.8717 -1.9591  0.0912
   40MOL0     H 5336  10.347  10.432   1.077 -2.4388 -1.0364  2.3823
   40MOL0     H 5337  10.104  10.450   1.186 -1.0716  0.0884  0.4925
   40MOL0     H 5338  10.184  10.295   1.146  0.6904 -0.4254 -0.2882
   40MOL0     H 5339   9.977  10.444   0.967  3.3221  1.1014 -1.3949
   40MOL0     H 5340   9.939  10.343   1.102 -0.2265  4.8707  0.3446
   40MOL0     H 5341  10.057  10.261   0.842 -0.0696 -1.7369 -1.3831
   40MOL0     H 5342  10.053  10.145   0.975  2.1317  0.8175 -3.3818
   40MOL0     H 5343   9.816  10.133   0.984  1.5218 -1.1410  0.5363
   40MOL0     H 5344   9.793  10.269   0.873 -1.7907 -2.6863 -1.8256
   40MOL0     H 5345   9.869  10.172   0.694  0.4151  2.7866  0.9232
   40MOL0     H 5346   9.921  10.022   0.789 -1.4387 -0.1118  3.7715
   40MOL0     H 5347   9.625  10.118   0.762  0.9865  0.3607 -2.3515
   40MOL0     H 5348   9.688   9.997   0.872 -4.2127 -0.4938 -1.3017
   40MOL0     H 5349   9.587   9.898   0.686 -0.1516 -0.2398  1.5127
   40MOL0     H 5350   9.696   9.979   0.574 -1.2932 -0.5095 -0.8276
   40MOL0     H 5351   9.851   9.815   0.902 -1.0411 -1.7300  0.4583
   40MOL0     H 5352  10.000   9.569   0.940 -1.2102 -2.4189 -1.9592
   40MOL0     H 5353  10.090   9.535   0.794 -0.4310  1.1681 -0.7423
   40MOL0     H 5354  10.199   9.752   0.781  1.5053  1.7263  1.7070
   40MOL0     H 5355  10.103   9.806   0.928 -1.5060 -0.7314  1.4016
   40MOL0     H 5356  10.333   9.608   0.906 -3.6942 -0.1037 -4.1372
   40MOL0     H 5357  10.238   9.612   1.051  1.2594  2.0275  2.6134
   40MOL0     H 5358  10.404   9.834   0.944 -0.5598 -0.7237  0.2907
   40MOL0     H 5359  10.426   9.744   1.085  2.0961 -0.0860 -1.5953
   40MOL0     H 5360  10.374   9.735   1.316 -0.7635 -1.8580 -1.7689
   40MOL0     H 5361  10.253   9.666   1.501  0.0041  0.1362  1.1557
   40MOL0     H 5362  10.129   9.714   1.887  0.0045 -0.7898 -1.4251
   40MOL0     H 5363  10.042   9.618   2.095  1.7337 -0.2492 -0.5966
   40MOL0     H 5364   9.829   9.630   2.235  0.6204 -1.4951 -0.1508
   40MOL0     H 5365   9.680   9.622   2.149 -1.8197 -2.8529 -1.4801
   40MOL0     H 5366   9.609   9.435   2.283 -1.7428  1.2783  0.8959
   40MOL0     H 5367   9.778   9.431   2.358  0.6989 -1.9462 -2.1522
   40MOL0     H 5368   9.718   9.680   2.412 -0.3031 -0.2563  0.0204
   40MOL0     H 5369   9.550   9.635   2.392 -0.8815 -0.4695 -0.2188
   40MOL0     H 5370   9.757   9.525   2.588 -1.8037 -0.9217  2.4413
   40MOL0     H 5371   9.621   9.423   2.547  0.7606  0.0021  1.6921
   40MOL0     H 5372   9.470   9.544   2.688 -0.6790  0.0432 -0.3894
   40MOL0     H 5373   9.523   9.698   2.628 -0.2999 -0.2896 -0.3497
   40MOL0     H 5374   9.719   9.521   2.790 -0.6067  0.1446  1.8274
   40MOL0     H 5375   9.733   9.687   2.777  0.0749 -0.8954 -2.6231
   40MOL0     H 5376   9.492   9.541   2.916 -1.9158  2.0907  3.1091
   40MOL0     H 5377   9.525   9.709   2.950 -2.8751 -2.1569  2.4811
   40MOL0     H 5378   9.587   9.545   3.127 -1.1825  1.0078 -1.2458
   40MOL0     H 5379   9.696   9.460   3.021 -0.2132 -0.7508 -0.4475
   40MOL0     H 5380   9.736   9.412   1.882  1.2526 -0.1085  0.9954
   40MOL0     H 5381   9.829   9.493   1.665  1.9053 -1.1397 -0.2950
   40MOL0     H 5382   9.880   9.829   1.339  0.0648 -1.5391  4.5237
   40MOL0     H 5383  10.004   9.897   1.139  0.4778  0.8863  1.0150
   40MOL0     H 5384  10.459  10.427   0.885  1.4752  0.4574  0.6818
   40MOL0     H 5385  10.632  10.517   0.747  2.1266  2.6858  0.3628
   40MOL0     H 5386  10.946  11.009   0.792 -1.7125  0.4168  0.3726
   40MOL0     H 5387  11.076  11.155   0.655  0.7393 -1.8789  1.7173
   40MOL0     H 5388  11.258  11.173   0.427  2.9920  3.3020  1.1157
   40MOL0     H 5389  11.136  11.284   0.497 -3.8323 -0.3259 -1.4880
   40MOL0     H 5390  11.244  11.276   0.209 -1.5764 -2.2884 -0.0677
   40MOL0     H 5391  11.300  11.390   0.323 -0.3651 -0.3160 -1.9327
   40MOL0     H 5392  11.041  11.481   0.312 -1.3082 -1.8078 -0.4406
   40MOL0     H 5393  11.006  11.340   0.219 -2.3857  3.5669 -2.6509
   40MOL0     H 5394  11.213  11.558   0.159  0.1232  0.0306  1.2805
   40MOL0     H 5395  11.167  11.420   0.049  0.6103 -1.2272  0.9633
   40MOL0     H 5396  10.847  11.689  -0.032  0.1184  2.7635  4.1818
   40MOL0     H 5397  10.909  10.982   0.288 -0.8703  2.5094 -0.9415
   40MOL0     H 5398  10.658  10.809   0.404 -0.4533 -1.9005  0.4508
   40MOL0     H 5399  10.815  10.775   0.308 -1.0139  0.2297 -0.9193
   40MOL0     H 5400  10.781  10.692   0.456  0.9602  0.0466 -1.1245
   41MOL0     O 5401   3.871   2.786   6.224  0.2810 -0.8524  0.3294
   41MOL0     C 5402   3.778   2.858   6.255 -0.1772  0.7217 -0.9037
   41MOL0     O 5403   3.641   2.820   6.259 -0.0949  0.0071 -0.2689
   41MOL0     C 5404   3.584   2.707   6.204  0.3811 -0.3100  0.0940
   41MOL0     C 5405   3.452   2.674   6.238  0.0841 -0.4086 -0.0830
   41MOL0     C 5406   3.379   2.567   6.175 -0.3377  0.1735 -0.7914
   41MOL0     C 5407   3.444   2.491   6.087 -0.0018  0.8546 -0.8650
   41MOL0     O 5408   3.373   2.377   6.057 -0.2921  0.1301  0.4991
   41MOL0     C 5409   3.444   2.262   6.037  0.4065  0.8594 -0.1588
   41MOL0     C 5410   3.530   2.201   6.157 -0.0918  1.4671  0.2645
   41MOL0     C 5411   3.440   2.175   6.279  0.6803  0.5554  0.6750
   41MOL0     C 5412   3.374   2.028   6.289 -0.3587  0.6816  0.3049
   41MOL0     C 5413   3.256   2.046   6.396 -1.1270 -1.1682  0.8075
   41MOL0     C 5414   3.179   1.916   6.421 -0.2372 -0.6572  0.0525
   41MOL0     C 5415   3.119   1.865   6.295 -0.1548 -0.3877 -0.1446
   41MOL0     C 5416   3.041   1.742   6.328 -0.7208 -0.5756  0.6253
   41MOL0     N 5417   3.132   1.638   6.378 -0.5221 -0.9545  0.1902
   41MOL0     C 5418   3.234   1.580   6.311  0.1443  0.7719 -0.9671
   41MOL0     C 5419   3.272   1.478   6.389  0.4932 -0.0660 -1.1125
   41MOL0     C 5420   3.389   1.380   6.362  0.6632 -0.2060 -0.4587
   41MOL0     C 5421   3.455   1.330   6.495  0.6701 -0.6116 -0.9942
   41MOL0     C 5422   3.580   1.415   6.533  0.5655  1.5582 -0.4540
   41MOL0     C 5423   3.558   1.555   6.582  0.4452 -0.0732  0.0145
   41MOL0     O 5424   3.681   1.625   6.578 -0.4542 -0.7636 -0.1439
   41MOL0     C 5425   3.729   1.673   6.462 -0.3699  0.1925  0.0117
   41MOL0     C 5426   3.656   1.754   6.365  0.0688 -0.2799 -0.2681
   41MOL0     C 5427   3.718   1.799   6.249  0.8287 -0.9741 -0.1988
   41MOL0     C 5428   3.852   1.773   6.232 -0.2519 -0.4585 -0.2220
   41MOL0     C 5429   3.932   1.823   6.115 -0.6163  0.5106  0.0412
   41MOL0     O 5430   4.068   1.813   6.113 -0.4902  0.3179 -0.2488
   41MOL0     C 5431   4.132   1.865   6.004 -0.5675  0.5683  0.9438
   41MOL0     C 5432   4.146   1.802   5.878  0.2510  0.2088 -1.6218
   41MOL0     C 5433   4.221   1.857   5.776 -0.2710 -0.0626  0.2607
   41MOL0     C 5434   4.288   1.982   5.791  0.0284 -0.1189  0.8307
   41MOL0     O 5435   4.376   2.046   5.699  1.0951  0.5794  0.9252
   41MOL0     C 5436   4.427   1.956   5.596  0.2095  0.5563 -0.7722
   41MOL0     C 5437   4.533   2.042   5.522 -0.5050  0.8971  1.0889
   41MOL0     C 5438   4.591   1.961   5.401  1.0983  0.1732 -1.1015
   41MOL0     C 5439   4.691   2.038   5.323 -0.5247  0.2096 -0.3304
   41MOL0     C 5440   4.744   1.946   5.211 -0.5482  0.7298 -0.3814
   41MOL0     C 5441   4.633   1.890   5.120  0.1591  0.7234 -1.0117
   41MOL0     C 5442   4.684   1.863   4.977 -0.3116 -0.1515  0.2322
   41MOL0     C 5443   4.733   1.721   4.967 -0.1734 -0.5867  0.3892
   41MOL0    Cl 5444   4.815   1.693   4.814  0.3679 -0.3244  0.2209
   41MOL0     C 5445   4.272   2.043   5.914 -0.6389 -0.1004  0.0414
   41MOL0     C 5446   4.197   1.983   6.019 -1.1097 -0.2558  0.7295
   41MOL0     O 5447   3.860   1.877   6.028 -0.6375  0.6203  0.5464
   41MOL0     C 5448   3.928   1.697   6.325 -0.3399 -0.0663  0.1007
   41MOL0     C 5449   3.860   1.643   6.431  0.2631  0.1570 -0.4016
   41MOL0     N 5450   3.192   1.471   6.499 -0.7855  0.4457 -0.9224
   41MOL0     N 5451   3.110   1.560   6.494 -0.6419 -0.3097 -0.3421
   41MOL0     C 5452   3.578   2.515   6.050 -0.2018 -0.0024 -1.0446
   41MOL0     C 5453   3.652   2.622   6.112  0.1631 -0.6593 -0.0876
   41MOL0     C 5454   3.820   2.992   6.310  0.5436 -0.4249  0.1364
   41MOL0     C 5455   3.935   3.062   6.282  0.6713 -0.6309 -0.2786
   41MOL0     C 5456   3.972   3.196   6.334  0.6429  0.2791 -0.0147
   41MOL0     C 5457   3.884   3.261   6.424  0.0344  0.7665  0.4807
   41MOL0     O 5458   3.905   3.387   6.474 -0.5468  0.8283 -0.1503
   41MOL0     C 5459   4.016   3.416   6.559  0.7934 -0.1607 -0.0378
   41MOL0     C 5460   3.974   3.394   6.702 -0.7137  0.1432  0.5940
   41MOL0     C 5461   4.085   3.444   6.796 -0.6170 -0.1311  0.4839
   41MOL0     C 5462   4.031   3.451   6.942  0.0092 -0.4212 -1.0549
   41MOL0     C 5463   3.978   3.325   6.982 -0.3305 -0.4798  0.4485
   41MOL0     C 5464   3.910   3.226   7.007  0.2648  0.3666  0.4647
   41MOL0     C 5465   3.773   3.188   6.450 -0.2215 -0.3830  0.0351
   41MOL0     C 5466   3.750   3.055   6.413 -0.1829  0.3969  0.7391
   41MOL0     C 5467   3.631   2.989   6.485 -0.0750  0.2642  0.1962
   41MOL0     H 5468   3.387   2.740   6.295 -0.8777  0.5278 -2.1631
   41MOL0     H 5469   3.277   2.555   6.209  0.7847 -0.2224  2.9148
   41MOL0     H 5470   3.371   2.182   6.021 -1.6717  2.4969  0.5858
   41MOL0     H 5471   3.508   2.265   5.949  0.6872 -3.6974 -0.3737
   41MOL0     H 5472   3.614   2.271   6.166  2.2043 -0.6639 -2.6699
   41MOL0     H 5473   3.583   2.109   6.132 -0.7846  0.8198  1.1034
   41MOL0     H 5474   3.365   2.254   6.271  1.0820  0.9764  0.9965
   41MOL0     H 5475   3.503   2.189   6.368  0.1259 -2.7393  1.7545
   41MOL0     H 5476   3.330   1.996   6.194 -2.5464  2.3170  0.6833
   41MOL0     H 5477   3.451   1.962   6.329 -0.3053  1.4866  1.5745
   41MOL0     H 5478   3.296   2.079   6.492 -1.1058  0.8893  0.1218
   41MOL0     H 5479   3.183   2.113   6.350 -1.3895 -1.5302  0.6901
   41MOL0     H 5480   3.258   1.843   6.441  2.4377  2.2402  0.8327
   41MOL0     H 5481   3.110   1.933   6.504  0.9713  1.8286  0.6634
   41MOL0     H 5482   3.196   1.839   6.222  0.3992  1.5689 -0.3103
   41MOL0     H 5483   3.049   1.940   6.256 -2.1359 -2.6291 -1.1655
   41MOL0     H 5484   2.978   1.761   6.415 -0.3904  0.4546  0.6462
   41MOL0     H 5485   2.981   1.708   6.243  0.4068 -4.9940  1.3026
   41MOL0     H 5486   3.285   1.603   6.218 -0.4879  1.2781 -1.1983
   41MOL0     H 5487   3.348   1.299   6.302  1.5141 -0.4453 -0.7281
   41MOL0     H 5488   3.457   1.429   6.291  0.9222  1.3932  0.8393
   41MOL0     H 5489   3.381   1.311   6.573 -0.7883 -0.1841 -2.2285
   41MOL0     H 5490   3.477   1.228   6.462 -4.3546 -2.8849  1.5099
   41MOL0     H 5491   3.635   1.419   6.438  0.1300  1.6482 -0.7002
   41MOL0     H 5492   3.634   1.367   6.616  0.5253  0.4946 -1.0306
   41MOL0     H 5493   3.534   1.559   6.689  1.5035  0.1712  0.2631
   41MOL0     H 5494   3.472   1.601   6.533 -0.7260  0.0545  2.0600
   41MOL0     H 5495   3.558   1.789   6.395 -2.0527 -2.6483 -3.7412
   41MOL0     H 5496   3.665   1.868   6.184  1.3137  1.1533  1.5381
   41MOL0     H 5497   4.096   1.708   5.862  1.5029 -0.5158 -1.4092
   41MOL0     H 5498   4.240   1.787   5.696  1.0008 -0.1227  0.5906
   41MOL0     H 5499   4.481   1.870   5.636  3.4086  3.3557  1.4690
   41MOL0     H 5500   4.340   1.924   5.537 -1.8452 -2.4247  3.3405
   41MOL0     H 5501   4.485   2.131   5.481  1.3439  1.5563  0.2323
   41MOL0     H 5502   4.616   2.074   5.586  2.3088 -0.8175 -1.4179
   41MOL0     H 5503   4.635   1.863   5.423  1.8703  0.4427 -1.4159
   41MOL0     H 5504   4.502   1.952   5.339 -2.5986  0.0970  3.6503
   41MOL0     H 5505   4.770   2.062   5.394 -2.1607  1.3588  1.1857
   41MOL0     H 5506   4.651   2.131   5.283 -0.3632 -0.3232 -1.8041
   41MOL0     H 5507   4.797   1.860   5.252 -2.2290 -0.7675 -1.2193
   41MOL0     H 5508   4.811   2.004   5.148  2.2451  0.3603  2.0141
   41MOL0     H 5509   4.577   1.812   5.172  1.1447 -0.1917 -1.2803
   41MOL0     H 5510   4.568   1.976   5.103 -1.6435 -0.4452 -0.3484
   41MOL0     H 5511   4.761   1.939   4.958 -0.8408  1.0743  2.6138
   41MOL0     H 5512   4.597   1.876   4.913  0.1573  2.2059 -0.0187
   41MOL0     H 5513   4.801   1.692   5.048 -1.5033 -3.3856  0.6250
   41MOL0     H 5514   4.643   1.660   4.977 -2.2298  2.3911  1.3155
   41MOL0     H 5515   4.322   2.139   5.920  2.0856 -1.4292  0.2830
   41MOL0     H 5516   4.190   2.023   6.119  1.2585  1.2667  0.3635
   41MOL0     H 5517   4.036   1.681   6.328 -0.2688  0.5121  0.7959
   41MOL0     H 5518   3.893   1.569   6.503 -2.3201 -1.6008 -0.8821
   41MOL0     H 5519   3.628   2.456   5.974  0.4894 -0.7434 -0.0394
   41MOL0     H 5520   3.757   2.632   6.084  1.7893 -3.4064  4.0794
   41MOL0     H 5521   4.004   3.018   6.211  1.0247  2.2212 -1.8473
   41MOL0     H 5522   4.056   3.253   6.295 -1.3652  2.5089 -1.3591
   41MOL0     H 5523   4.047   3.519   6.544  4.1771 -1.2017 -1.1123
   41MOL0     H 5524   4.103   3.353   6.535 -1.9364 -3.4672 -2.3072
   41MOL0     H 5525   3.957   3.287   6.713 -0.8393  0.3129  2.3621
   41MOL0     H 5526   3.878   3.444   6.719 -1.4581 -1.0715  0.0553
   41MOL0     H 5527   4.131   3.542   6.778 -2.0326  0.7630  1.4978
   41MOL0     H 5528   4.168   3.373   6.803  1.1046  1.4790 -1.9027
   41MOL0     H 5529   4.100   3.476   7.023  0.3077 -0.2121 -1.3689
   41MOL0     H 5530   3.947   3.520   6.937 -2.0009 -2.7728 -2.1637
   41MOL0     H 5531   3.859   3.137   7.035  0.5884 -1.1507 -3.1566
   41MOL0     H 5532   3.707   3.231   6.524  0.4142  1.8872 -0.6355
   41MOL0     H 5533   3.539   2.995   6.426 -0.9277  2.0032  1.5773
   41MOL0     H 5534   3.655   2.886   6.513 -3.0668 -0.0822  1.9284
   41MOL0     H 5535   3.622   3.050   6.576 -2.2103 -0.4391  0.5125
   42MOL0     O 5536  10.577   7.864   1.128 -0.1828 -0.4006 -0.1525
   42MOL0     C 5537  10.672   7.828   1.191  0.3423 -0.9902  0.1258
   42MOL0     O 5538  10.789   7.895   1.187 -0.2570 -0.2010 -0.0981
   42MOL0     C 5539  10.796   8.025   1.146  0.9661  0.1558 -0.2617
   42MOL0     C 5540  10.821   8.116   1.256 -1.5079  0.4564 -0.5525
   42MOL0     C 5541  10.838   8.248   1.230 -0.6737 -1.0757 -0.2659
   42MOL0     C 5542  10.824   8.297   1.103 -0.8590  0.1619 -0.5371
   42MOL0     O 5543  10.841   8.433   1.073  0.9850 -0.1472 -0.1154
   42MOL0     C 5544  10.905   8.529   1.164 -0.4008  0.1775 -1.0692
   42MOL0     C 5545  11.054   8.510   1.194 -0.5350  0.2935  0.4479
   42MOL0     C 5546  11.139   8.557   1.068  0.2054 -0.2629  0.3162
   42MOL0     C 5547  11.184   8.700   1.090  0.8532  0.2183  0.6179
   42MOL0     C 5548  11.290   8.752   0.994 -1.3689  0.7931 -0.2441
   42MOL0     C 5549  11.314   8.906   1.025 -0.8079  0.5492 -0.4040
   42MOL0     C 5550  11.433   8.948   0.933  0.7739 -0.0037  0.0378
   42MOL0     C 5551  11.494   9.074   0.979 -0.2437  0.7080 -1.5731
   42MOL0     N 5552  11.585   9.117   0.874 -0.1165  0.1662  0.4361
   42MOL0     C 5553  11.723   9.100   0.864 -0.1963  0.2999 -0.3729
   42MOL0     C 5554  11.781   9.212   0.814  0.5529  0.4111  0.1310
   42MOL0     C 5555  11.926   9.252   0.794 -0.4971 -0.0801  0.4540
   42MOL0     C 5556  11.990   9.213   0.660  0.9729 -0.1282 -0.4567
   42MOL0     C 5557  11.962   9.315   0.544 -0.0169 -0.5879  0.3741
   42MOL0     C 5558  12.027   9.261   0.413 -0.1926  0.1978  0.6700
   42MOL0     O 5559  12.165   9.288   0.424 -0.0019  0.3356 -0.4825
   42MOL0     C 5560  12.244   9.241   0.319  0.0777 -0.0212  0.5477
   42MOL0     C 5561  12.383   9.246   0.337  0.1416 -0.3896  0.5304
   42MOL0     C 5562  12.472   9.185   0.250  0.6309 -0.5973  0.0472
   42MOL0     C 5563  12.435   9.136   0.123 -0.4696  0.6583 -0.0228
   42MOL0     C 5564  12.531   9.087   0.024  0.8153 -0.9451  0.1736
   42MOL0     O 5565  12.498   9.085  -0.107  0.7118 -0.0417  0.6960
   42MOL0     C 5566  12.584   9.051  -0.204 -0.0058  0.4237  0.8133
   42MOL0     C 5567  12.531   8.999  -0.323  0.1670 -0.1802 -0.0067
   42MOL0     C 5568  12.610   8.969  -0.430 -0.3234 -0.3237  0.0625
   42MOL0     C 5569  12.749   8.975  -0.421  0.1163 -0.2392 -0.2682
   42MOL0     O 5570  12.841   8.922  -0.515 -0.4636  0.4834 -0.6706
   42MOL0     C 5571  12.779   8.878  -0.637 -0.1563 -0.7398 -0.4847
   42MOL0     C 5572  12.889   8.883  -0.744  0.2095 -0.4199 -1.1092
   42MOL0     C 5573  12.850   8.807  -0.870  0.3381  0.4643 -0.5250
   42MOL0     C 5574  12.719   8.876  -0.933 -0.1268 -0.3106  0.1312
   42MOL0     C 5575  12.678   8.803  -1.069 -0.0831 -0.0016  0.0862
   42MOL0     C 5576  12.536   8.825  -1.119  0.5222  0.0119 -0.8305
   42MOL0     C 5577  12.429   8.757  -1.027  0.4187 -0.0569  0.8165
   42MOL0     C 5578  12.289   8.815  -1.038 -0.0120  0.3205 -0.2964
   42MOL0    Cl 5579  12.208   8.729  -1.170 -0.3058  0.0355  0.0229
   42MOL0     C 5580  12.811   9.026  -0.309 -0.0412 -0.6299 -0.1763
   42MOL0     C 5581  12.725   9.062  -0.200 -0.0282 -0.1643 -0.2077
   42MOL0     O 5582  12.634   9.045   0.074  0.5081  0.1501  0.3861
   42MOL0     C 5583  12.295   9.122   0.109  0.2481  0.0674  0.0941
   42MOL0     C 5584  12.205   9.176   0.203 -0.0519  0.3056 -0.7399
   42MOL0     N 5585  11.681   9.293   0.789  0.3679  0.3218  0.8542
   42MOL0     N 5586  11.564   9.239   0.821  0.4587  0.0236 -0.2132
   42MOL0     C 5587  10.797   8.209   1.000 -0.0945  0.1468  0.6064
   42MOL0     C 5588  10.778   8.075   1.018 -0.0344 -0.2547  1.5096
   42MOL0     C 5589  10.649   7.702   1.284  0.0269 -1.1494  1.2857
   42MOL0     C 5590  10.515   7.670   1.310 -0.2423  0.2414 -0.7412
   42MOL0     C 5591  10.480   7.558   1.385  0.3947  0.7179  0.3535
   42MOL0     C 5592  10.583   7.486   1.457  0.7218 -0.3325 -0.2788
   42MOL0     O 5593  10.558   7.387   1.547  0.4501  0.5276 -0.0397
   42MOL0     C 5594  10.450   7.296   1.527 -0.1348 -0.2639  0.9516
   42MOL0     C 5595  10.353   7.324   1.640 -0.0532 -0.5093  0.0161
   42MOL0     C 5596  10.275   7.205   1.698  0.3748  0.0552 -0.1580
   42MOL0     C 5597  10.174   7.134   1.599  0.6288  0.4520  0.4173
   42MOL0     C 5598  10.093   7.024   1.672  0.5118 -0.1625 -0.2817
   42MOL0     C 5599  10.039   6.932   1.729 -0.1508 -0.0894  0.2864
   42MOL0     C 5600  10.714   7.531   1.439  0.6890  1.3005 -0.2984
   42MOL0     C 5601  10.749   7.634   1.353  0.6557  0.7671 -0.5936
   42MOL0     C 5602  10.892   7.651   1.332 -0.2539 -0.8312 -0.1208
   42MOL0     H 5603  10.831   8.068   1.353 -1.2600  3.6805  1.1659
   42MOL0     H 5604  10.868   8.313   1.312 -2.8461  1.0474 -1.0300
   42MOL0     H 5605  10.895   8.635   1.139  4.4575  1.6340  1.7898
   42MOL0     H 5606  10.845   8.516   1.254 -0.9472 -1.0746 -1.5939
   42MOL0     H 5607  11.068   8.403   1.213 -0.2716  0.1496 -0.4819
   42MOL0     H 5608  11.074   8.561   1.288  0.6548 -3.0029  2.1143
   42MOL0     H 5609  11.099   8.531   0.970 -0.3795 -2.0786  0.9820
   42MOL0     H 5610  11.232   8.501   1.075  0.1519 -0.1622  2.5819
   42MOL0     H 5611  11.105   8.775   1.076  1.3393  0.4606 -1.0468
   42MOL0     H 5612  11.219   8.722   1.191 -0.9953  1.5154  1.0208
   42MOL0     H 5613  11.383   8.693   0.993 -1.6121  0.3903  0.2334
   42MOL0     H 5614  11.258   8.752   0.889  1.1001  0.1720 -1.0749
   42MOL0     H 5615  11.229   8.974   1.010  0.5263  2.3220 -0.2120
   42MOL0     H 5616  11.340   8.917   1.131 -1.6815  0.7891 -0.1995
   42MOL0     H 5617  11.378   8.970   0.840 -1.8544 -3.0026  0.6828
   42MOL0     H 5618  11.498   8.862   0.915  0.0615 -0.5164 -0.1696
   42MOL0     H 5619  11.412   9.145   0.998 -0.1632  0.3846  0.1728
   42MOL0     H 5620  11.546   9.065   1.075 -1.0446  2.7722 -0.8864
   42MOL0     H 5621  11.780   9.025   0.918 -0.8644  0.3172  0.3678
   42MOL0     H 5622  11.930   9.361   0.792  0.4638 -0.0908  1.1640
   42MOL0     H 5623  11.977   9.206   0.879  1.7789 -0.0212 -0.8012
   42MOL0     H 5624  12.094   9.190   0.683  0.9987  1.2696  1.0699
   42MOL0     H 5625  11.951   9.118   0.625  0.3306  0.3139 -0.9628
   42MOL0     H 5626  12.002   9.410   0.579 -0.9066 -1.2056  3.4471
   42MOL0     H 5627  11.858   9.342   0.524  1.2184  2.5575 -2.5529
   42MOL0     H 5628  11.996   9.308   0.320  1.4898 -1.5562 -0.8652
   42MOL0     H 5629  12.007   9.153   0.417 -0.6626  0.2987  1.4963
   42MOL0     H 5630  12.421   9.307   0.418  0.1985 -0.0212  0.2292
   42MOL0     H 5631  12.577   9.200   0.274  0.2812  3.0286 -0.1570
   42MOL0     H 5632  12.423   8.988  -0.320  0.0957  0.0258  3.9446
   42MOL0     H 5633  12.555   8.953  -0.522 -2.0601  1.2886  0.7669
   42MOL0     H 5634  12.721   8.785  -0.636 -0.6752 -0.5675 -3.4028
   42MOL0     H 5635  12.717   8.960  -0.673 -0.3664 -0.6384  0.0988
   42MOL0     H 5636  12.923   8.984  -0.770  0.9674 -1.2750 -3.6635
   42MOL0     H 5637  12.968   8.820  -0.702 -0.8959 -0.0788  1.7495
   42MOL0     H 5638  12.928   8.804  -0.946  0.1134 -2.0732 -0.7515
   42MOL0     H 5639  12.827   8.707  -0.832  0.2837  0.5421 -0.3479
   42MOL0     H 5640  12.736   8.982  -0.954 -1.4920 -0.2227 -0.6973
   42MOL0     H 5641  12.634   8.868  -0.864  1.0651 -0.1045  1.6692
   42MOL0     H 5642  12.692   8.697  -1.046  1.4245  0.1905  0.1245
   42MOL0     H 5643  12.754   8.829  -1.144  0.5236 -1.5257  0.1458
   42MOL0     H 5644  12.516   8.933  -1.115  2.4669  0.3848  2.2016
   42MOL0     H 5645  12.518   8.788  -1.220 -0.0281 -1.3626 -0.2582
   42MOL0     H 5646  12.459   8.770  -0.923  2.1702  2.1407  0.1164
   42MOL0     H 5647  12.436   8.652  -1.056 -0.0359  0.5131 -1.5654
   42MOL0     H 5648  12.238   8.790  -0.944  0.8543 -0.7999 -0.1096
   42MOL0     H 5649  12.278   8.922  -1.059 -0.7723 -0.1028 -2.3453
   42MOL0     H 5650  12.919   9.032  -0.306  0.1157 -2.4258 -1.2741
   42MOL0     H 5651  12.784   9.110  -0.122  0.4776 -2.2547  0.7871
   42MOL0     H 5652  12.247   9.084   0.019  0.2742  2.8190 -1.1609
   42MOL0     H 5653  12.101   9.176   0.174  0.8767  2.3165 -4.8952
   42MOL0     H 5654  10.771   8.239   0.898  1.4919  1.0414  0.4242
   42MOL0     H 5655  10.744   8.013   0.936  0.6017  0.1344  0.9424
   42MOL0     H 5656  10.438   7.731   1.263 -0.5492 -0.4692 -1.1752
   42MOL0     H 5657  10.376   7.528   1.385  0.6428 -0.5645 -2.8980
   42MOL0     H 5658  10.495   7.199   1.550 -0.1475 -0.2564  1.0079
   42MOL0     H 5659  10.403   7.292   1.429  0.9239 -1.8992  0.4695
   42MOL0     H 5660  10.280   7.403   1.618  2.0217  1.5170  0.0227
   42MOL0     H 5661  10.415   7.353   1.725 -0.8388  2.0284 -0.1890
   42MOL0     H 5662  10.214   7.235   1.784 -0.1336 -0.8492 -0.1910
   42MOL0     H 5663  10.352   7.130   1.718  0.1642 -0.1571 -0.1385
   42MOL0     H 5664  10.102   7.197   1.547  0.1510  0.6747  1.3265
   42MOL0     H 5665  10.245   7.093   1.527  0.2433 -0.7395  0.7006
   42MOL0     H 5666   9.979   6.858   1.779 -0.9788 -0.3316 -1.0039
   42MOL0     H 5667  10.786   7.471   1.494  1.6602  0.3151 -2.5289
   42MOL0     H 5668  10.930   7.751   1.356  0.3721 -1.1343  0.1588
   42MOL0     H 5669  10.958   7.594   1.398  1.1915  1.6799  0.7636
   42MOL0     H 5670  10.915   7.625   1.229  2.7191  1.6354 -0.2402
   43MOL0     O 5671  11.118   3.834   6.303  0.4836  0.0439  0.3283
   43MOL0     C 5672  11.156   3.751   6.388  0.4194  0.6572 -0.4761
   43MOL0     O 5673  11.078   3.711   6.501  0.1795  0.0649 -0.3256
   43MOL0     C 5674  10.978   3.796   6.537 -0.9223  0.3324  0.8891
   43MOL0     C 5675  10.854   3.778   6.484 -0.5842 -0.9870  0.1491
   43MOL0     C 5676  10.754   3.868   6.518  0.7721  0.1277  0.1398
   43MOL0     C 5677  10.781   3.969   6.614  0.3083  0.2464 -0.8289
   43MOL0     O 5678  10.683   4.050   6.672 -0.7824 -0.0951  0.0822
   43MOL0     C 5679  10.545   4.043   6.618  0.2935  0.3285 -0.0965
   43MOL0     C 5680  10.458   4.152   6.691  0.1152 -1.1842  0.3747
   43MOL0     C 5681  10.486   4.307   6.667  0.2647  0.3823 -0.2313
   43MOL0     C 5682  10.462   4.347   6.523  0.1048  0.6093  0.7738
   43MOL0     C 5683  10.511   4.490   6.494  0.0697  0.2209  0.3174
   43MOL0     C 5684  10.488   4.519   6.344  0.0905  0.1178 -0.5427
   43MOL0     C 5685  10.492   4.672   6.307 -0.3349 -0.5690 -0.6463
   43MOL0     C 5686  10.409   4.694   6.179  0.3494  0.0918  0.7801
   43MOL0     N 5687  10.427   4.834   6.116  0.7296  0.9938 -0.5664
   43MOL0     C 5688  10.455   4.850   5.981  0.9536 -0.0156 -0.0052
   43MOL0     C 5689  10.440   4.978   5.957  0.9172  0.2145 -0.1019
   43MOL0     C 5690  10.444   5.057   5.838  0.0266 -0.2411  0.6812
   43MOL0     C 5691  10.563   5.156   5.841 -0.8672 -0.2452 -0.7344
   43MOL0     C 5692  10.564   5.259   5.727  0.8062 -0.0474 -0.0198
   43MOL0     C 5693  10.594   5.193   5.586 -0.5254  0.2228  0.2536
   43MOL0     O 5694  10.735   5.154   5.568 -0.2088  0.3510  0.2262
   43MOL0     C 5695  10.774   5.115   5.445 -1.5724  0.8036 -0.2479
   43MOL0     C 5696  10.912   5.074   5.444  0.4217  0.0313 -0.4830
   43MOL0     C 5697  10.983   5.054   5.318  0.6840  1.3968 -0.8752
   43MOL0     C 5698  10.904   5.038   5.198 -0.1294  0.1382 -0.2267
   43MOL0     C 5699  10.972   5.000   5.075 -0.1405  1.5199  0.1128
   43MOL0     O 5700  11.096   4.941   5.083  0.1942 -0.0610 -0.8823
   43MOL0     C 5701  11.164   4.908   4.973  0.1280  0.6629 -0.7029
   43MOL0     C 5702  11.205   5.006   4.879  0.4592  1.1431  0.4237
   43MOL0     C 5703  11.273   4.970   4.764 -0.4052 -0.3807 -0.6270
   43MOL0     C 5704  11.298   4.834   4.738 -0.0713 -0.6430 -0.6400
   43MOL0     O 5705  11.360   4.808   4.619 -0.5567 -0.1682  0.2305
   43MOL0     C 5706  11.366   4.683   4.562 -0.5109  0.4128  0.6379
   43MOL0     C 5707  11.478   4.596   4.620 -0.0000 -0.7325  0.1559
   43MOL0     C 5708  11.516   4.468   4.546 -0.0846 -0.0687  0.4748
   43MOL0     C 5709  11.618   4.394   4.630  0.4703 -0.0758  0.0013
   43MOL0     C 5710  11.641   4.247   4.579 -0.7969 -0.1724  0.6640
   43MOL0     C 5711  11.671   4.242   4.428  0.4955  0.3664 -0.5929
   43MOL0     C 5712  11.650   4.102   4.365 -0.0221 -0.0400  0.0822
   43MOL0     C 5713  11.767   4.047   4.283 -0.2036 -0.2387  0.3883
   43MOL0    Cl 5714  11.915   4.048   4.377 -0.3165  0.6232  0.1634
   43MOL0     C 5715  11.252   4.737   4.836  0.0129 -0.0168 -0.1283
   43MOL0     C 5716  11.184   4.766   4.954 -0.1553 -0.3010 -0.3653
   43MOL0     O 5717  10.916   5.029   4.975 -0.1567 -0.2443  0.5824
   43MOL0     C 5718  10.767   5.088   5.200  0.7526 -0.4285 -0.3453
   43MOL0     C 5719  10.705   5.128   5.323 -0.3032 -0.2601  0.6728
   43MOL0     N 5720  10.397   5.040   6.071  0.3782 -0.4849 -0.3076
   43MOL0     N 5721  10.387   4.951   6.164 -0.8376 -0.8294  0.2385
   43MOL0     C 5722  10.900   3.967   6.685  0.0871 -0.8636  0.1559
   43MOL0     C 5723  11.004   3.892   6.639 -0.0334 -1.2973  0.2795
   43MOL0     C 5724  11.293   3.689   6.372  0.4679 -0.5095 -0.7240
   43MOL0     C 5725  11.313   3.568   6.446 -0.0080 -0.3446  0.3193
   43MOL0     C 5726  11.438   3.510   6.453  0.1385  0.0317 -0.4973
   43MOL0     C 5727  11.542   3.565   6.381  0.0938 -1.3334 -0.3732
   43MOL0     O 5728  11.663   3.505   6.396  0.8659 -0.8720  0.1781
   43MOL0     C 5729  11.764   3.537   6.294 -0.1073  0.1924  0.5546
   43MOL0     C 5730  11.893   3.433   6.296 -0.2150  0.3299 -0.2075
   43MOL0     C 5731  12.001   3.499   6.214  0.4863 -0.1321  1.1972
   43MOL0     C 5732  12.115   3.392   6.196 -0.1364 -0.1047 -0.6187
   43MOL0     C 5733  12.167   3.342   6.328 -0.4232  1.0253  0.5957
   43MOL0     C 5734  12.215   3.301   6.433  1.2153 -0.7382  0.0197
   43MOL0     C 5735  11.520   3.680   6.301 -0.8923  0.9518  0.1743
   43MOL0     C 5736  11.396   3.740   6.301 -0.5732  0.0796  0.3798
   43MOL0     C 5737  11.388   3.872   6.234  0.3928 -0.2155  0.1140
   43MOL0     H 5738  10.832   3.713   6.400  0.2004  0.5266 -1.2687
   43MOL0     H 5739  10.656   3.867   6.472 -0.4448 -2.8066  2.4865
   43MOL0     H 5740  10.545   4.068   6.512  0.8241  1.3432  0.1231
   43MOL0     H 5741  10.509   3.942   6.637  0.9369  0.1977  0.4550
   43MOL0     H 5742  10.467   4.133   6.799  3.3335  0.0884  0.4494
   43MOL0     H 5743  10.355   4.133   6.659 -0.8846  1.1248  1.9007
   43MOL0     H 5744  10.593   4.317   6.688  1.1844 -4.5802 -1.1426
   43MOL0     H 5745  10.422   4.365   6.734  1.4582 -1.4702  2.7595
   43MOL0     H 5746  10.513   4.275   6.458 -1.8804  0.0552 -0.2564
   43MOL0     H 5747  10.356   4.341   6.493  1.1827  1.5775 -4.2783
   43MOL0     H 5748  10.468   4.573   6.551  0.3890  1.3750 -1.0386
   43MOL0     H 5749  10.617   4.504   6.517 -0.6886  2.7631  2.7504
   43MOL0     H 5750  10.552   4.467   6.272 -2.3060 -0.1729 -2.5882
   43MOL0     H 5751  10.387   4.482   6.327 -0.3532  0.5898  0.8924
   43MOL0     H 5752  10.596   4.702   6.296 -0.1439 -0.9551  0.0813
   43MOL0     H 5753  10.448   4.736   6.384  0.7836  0.2744 -0.6901
   43MOL0     H 5754  10.433   4.622   6.100  0.7402  2.5896 -1.5144
   43MOL0     H 5755  10.304   4.674   6.206 -0.0488 -0.4854 -1.0558
   43MOL0     H 5756  10.469   4.772   5.908 -6.5477  0.2451 -2.5983
   43MOL0     H 5757  10.451   4.986   5.756  1.0904 -1.8796  2.1226
   43MOL0     H 5758  10.353   5.118   5.840 -2.1259 -3.2332  0.5116
   43MOL0     H 5759  10.552   5.219   5.930  0.5048  0.4871 -1.0585
   43MOL0     H 5760  10.660   5.106   5.850 -0.0241  1.1712 -1.6511
   43MOL0     H 5761  10.645   5.330   5.746  0.9367 -0.1042 -0.3530
   43MOL0     H 5762  10.465   5.305   5.715  1.0571  0.0468 -2.0801
   43MOL0     H 5763  10.559   5.260   5.507 -4.4458 -2.0038 -0.1507
   43MOL0     H 5764  10.533   5.102   5.579 -1.8519  1.2127 -2.4437
   43MOL0     H 5765  10.973   5.077   5.534  0.2163 -0.4407 -0.3249
   43MOL0     H 5766  11.091   5.043   5.326  0.4943  0.9470  1.7160
   43MOL0     H 5767  11.183   5.112   4.888 -2.4532  0.7274 -0.8187
   43MOL0     H 5768  11.310   5.046   4.697  4.4735 -0.2470  1.7403
   43MOL0     H 5769  11.265   4.640   4.564 -0.4940  0.3923  1.6829
   43MOL0     H 5770  11.380   4.699   4.455  0.4540 -0.0937  0.6748
   43MOL0     H 5771  11.565   4.662   4.616  0.2317 -0.9700  1.1167
   43MOL0     H 5772  11.452   4.593   4.726 -0.7851  1.2674  0.0733
   43MOL0     H 5773  11.423   4.418   4.518  0.5180 -0.9374 -0.0259
   43MOL0     H 5774  11.564   4.485   4.449 -0.9357  0.9220  0.2069
   43MOL0     H 5775  11.588   4.389   4.736  0.4453  2.2287  0.1533
   43MOL0     H 5776  11.710   4.453   4.627 -0.9114  2.3179  1.0603
   43MOL0     H 5777  11.549   4.193   4.603 -2.9946  3.4643  1.2666
   43MOL0     H 5778  11.731   4.211   4.630  0.0561  0.6512 -0.2175
   43MOL0     H 5779  11.609   4.309   4.369 -0.8518  4.0106  4.3534
   43MOL0     H 5780  11.779   4.255   4.415  0.6905 -1.7545 -1.4974
   43MOL0     H 5781  11.557   4.108   4.308  0.2180 -0.0881 -0.3164
   43MOL0     H 5782  11.629   4.017   4.431 -4.3583 -0.2352 -1.1720
   43MOL0     H 5783  11.760   3.941   4.259 -0.9774  0.0169 -0.5375
   43MOL0     H 5784  11.785   4.098   4.188 -0.7965 -0.8987 -0.0871
   43MOL0     H 5785  11.260   4.630   4.817 -1.0039  0.0596 -1.1139
   43MOL0     H 5786  11.143   4.687   5.016 -2.3653  0.9766 -0.1071
   43MOL0     H 5787  10.711   5.111   5.110  0.3590  1.7707  0.4162
   43MOL0     H 5788  10.620   5.193   5.303  0.7214 -0.0080 -3.9680
   43MOL0     H 5789  10.921   4.025   6.773  0.2399 -1.1970  0.3398
   43MOL0     H 5790  11.098   3.894   6.693 -0.3274 -0.9518  0.7947
   43MOL0     H 5791  11.230   3.516   6.492  0.6313  0.3934  2.4156
   43MOL0     H 5792  11.459   3.422   6.513 -0.0412  0.3582  0.0602
   43MOL0     H 5793  11.788   3.642   6.311  1.5460 -0.4149  2.3818
   43MOL0     H 5794  11.730   3.520   6.191  0.6523 -0.4945  0.4032
   43MOL0     H 5795  11.870   3.336   6.253  1.8876 -0.5372  0.5157
   43MOL0     H 5796  11.934   3.417   6.397  0.0486 -0.3076 -0.4112
   43MOL0     H 5797  12.045   3.589   6.257  0.3966  1.2643 -1.3707
   43MOL0     H 5798  11.966   3.517   6.111  1.0479 -2.6656  0.4938
   43MOL0     H 5799  12.079   3.308   6.136 -0.8258  0.3485 -0.8453
   43MOL0     H 5800  12.192   3.445   6.139  1.6065 -1.2734  0.5499
   43MOL0     H 5801  12.277   3.277   6.517  0.0847  0.6276  1.3105
   43MOL0     H 5802  11.603   3.728   6.250 -1.3481  3.0483  1.2966
   43MOL0     H 5803  11.320   3.946   6.279 -1.3102 -1.3373 -0.5282
   43MOL0     H 5804  11.486   3.908   6.205  1.0865 -3.7057 -2.4787
   43MOL0     H 5805  11.338   3.844   6.141  2.3390 -2.5159 -0.3198
   44MOL0     O 5806   2.947   7.370   1.939  0.1087 -0.5855  0.0910
   44MOL0     C 5807   2.947   7.306   2.040 -0.1654  0.0324  0.2473
   44MOL0     O 5808   3.062   7.259   2.101  0.5063  0.2437 -0.0767
   44MOL0     C 5809   3.151   7.213   2.018 -0.2057 -0.8032 -0.3722
   44MOL0     C 5810   3.178   7.075   2.023 -0.2640 -0.6505 -0.2940
   44MOL0     C 5811   3.282   7.016   1.956  0.2429  0.0463  0.4390
   44MOL0     C 5812   3.365   7.088   1.875 -0.1125 -0.7374 -0.3532
   44MOL0     O 5813   3.467   7.033   1.800 -0.0658  0.5155  0.0506
   44MOL0     C 5814   3.446   6.892   1.774  0.5037  0.6346 -0.3708
   44MOL0     C 5815   3.560   6.857   1.687  0.3234  0.1310  0.1168
   44MOL0     C 5816   3.527   6.718   1.622 -0.1362  1.1362 -0.1688
   44MOL0     C 5817   3.607   6.676   1.494  0.2049  0.0530  0.2697
   44MOL0     C 5818   3.759   6.702   1.502  0.2987 -0.0969  0.3033
   44MOL0     C 5819   3.820   6.621   1.629 -0.1943 -0.6133  0.2857
   44MOL0     C 5820   3.971   6.613   1.622  0.0164  0.1273  0.3741
   44MOL0     C 5821   4.040   6.700   1.726  0.0570  0.7745 -0.9174
   44MOL0     N 5822   4.178   6.667   1.759  0.5606  0.5461  0.5175
   44MOL0     C 5823   4.218   6.609   1.875 -0.2322  0.4091  0.7898
   44MOL0     C 5824   4.352   6.628   1.876  0.0624  0.3471 -0.4413
   44MOL0     C 5825   4.460   6.563   1.962  0.8335  0.3399 -0.8402
   44MOL0     C 5826   4.452   6.405   1.965 -0.1022  0.2778 -0.0547
   44MOL0     C 5827   4.484   6.345   1.828 -0.6206 -0.6445 -0.1167
   44MOL0     C 5828   4.450   6.191   1.811  0.4278  0.0388 -0.4144
   44MOL0     O 5829   4.336   6.147   1.893 -0.1048  0.0642  0.3015
   44MOL0     C 5830   4.202   6.179   1.859  0.8628 -1.3778 -0.4496
   44MOL0     C 5831   4.163   6.211   1.726  0.1308 -0.2950  0.1662
   44MOL0     C 5832   4.031   6.218   1.692  0.3807 -0.1369  0.7781
   44MOL0     C 5833   3.924   6.196   1.787  0.5802  1.2047  0.5231
   44MOL0     C 5834   3.786   6.187   1.739  0.3444 -0.5959 -0.4893
   44MOL0     O 5835   3.777   6.219   1.606  0.1833 -0.5500  0.1873
   44MOL0     C 5836   3.686   6.151   1.524  0.0594  0.8873 -1.1316
   44MOL0     C 5837   3.591   6.220   1.450  0.5197  0.1771 -0.3492
   44MOL0     C 5838   3.500   6.147   1.358  0.9678  0.6450  0.4964
   44MOL0     C 5839   3.510   6.008   1.345 -0.1403  0.4356  0.4824
   44MOL0     O 5840   3.419   5.931   1.267  0.3216  0.2294  0.3495
   44MOL0     C 5841   3.382   5.985   1.136  0.7537  0.9891  0.2202
   44MOL0     C 5842   3.263   5.909   1.079 -0.3867 -0.3531 -0.2623
   44MOL0     C 5843   3.303   5.821   0.959 -0.3178  0.4741  0.2674
   44MOL0     C 5844   3.187   5.742   0.911 -0.4417  0.1288  0.5818
   44MOL0     C 5845   3.229   5.661   0.783 -0.1251 -0.7466  1.5094
   44MOL0     C 5846   3.099   5.589   0.730  0.4763 -0.8580  0.0860
   44MOL0     C 5847   3.126   5.514   0.599  0.5592 -0.4434  0.1400
   44MOL0     C 5848   3.003   5.430   0.547 -0.0520 -1.0484  0.2494
   44MOL0    Cl 5849   3.021   5.404   0.369  0.2127 -0.4313 -0.1781
   44MOL0     C 5850   3.609   5.938   1.417  0.1216 -1.1008  0.6558
   44MOL0     C 5851   3.692   6.012   1.505  0.0091  0.9848  0.8317
   44MOL0     O 5852   3.693   6.141   1.814 -0.3890 -0.5996 -0.7903
   44MOL0     C 5853   3.959   6.157   1.915 -0.2827  1.0413 -0.1000
   44MOL0     C 5854   4.094   6.151   1.951  0.2066 -0.3651  0.5700
   44MOL0     N 5855   4.381   6.710   1.772 -1.1823  0.5659  1.1719
   44MOL0     N 5856   4.281   6.726   1.697 -0.1855 -0.6004 -0.4276
   44MOL0     C 5857   3.337   7.223   1.860  0.5770 -0.1861  0.1203
   44MOL0     C 5858   3.245   7.286   1.934  0.3722  0.0855 -0.0686
   44MOL0     C 5859   2.816   7.260   2.079  0.8206 -0.8254 -0.4226
   44MOL0     C 5860   2.781   7.123   2.051 -0.0693 -0.5167 -1.3038
   44MOL0     C 5861   2.661   7.078   2.091 -0.0419  0.0918 -0.1229
   44MOL0     C 5862   2.574   7.157   2.158  0.1188  0.2127  0.4675
   44MOL0     O 5863   2.457   7.089   2.197  0.0474  0.2471 -1.2457
   44MOL0     C 5864   2.405   7.128   2.323 -0.0764  1.0106 -0.0182
   44MOL0     C 5865   2.268   7.197   2.307  0.9548 -0.2882  0.1077
   44MOL0     C 5866   2.157   7.113   2.231 -0.5136 -0.1790 -0.7804
   44MOL0     C 5867   2.029   7.193   2.184 -0.0327  0.4308  0.1954
   44MOL0     C 5868   1.930   7.109   2.111 -0.1901  0.2187  0.0154
   44MOL0     C 5869   1.855   7.034   2.040  0.4782 -0.4900  0.7544
   44MOL0     C 5870   2.594   7.284   2.172  0.0202 -0.0741  0.5633
   44MOL0     C 5871   2.722   7.341   2.139 -0.2636 -0.2378  0.9240
   44MOL0     C 5872   2.772   7.474   2.184  0.0639 -0.1442 -0.9528
   44MOL0     H 5873   3.114   7.020   2.091  1.9976 -0.8811  1.8041
   44MOL0     H 5874   3.294   6.911   1.981  0.3562  0.0874  0.5597
   44MOL0     H 5875   3.456   6.834   1.867  0.7954  0.7819 -0.3096
   44MOL0     H 5876   3.347   6.873   1.732 -0.4580 -2.8314  2.8663
   44MOL0     H 5877   3.655   6.847   1.740 -0.3234  0.1729  1.3315
   44MOL0     H 5878   3.570   6.922   1.599 -2.8176 -1.9661 -1.9780
   44MOL0     H 5879   3.422   6.713   1.592 -0.6897 -1.5665  1.7975
   44MOL0     H 5880   3.544   6.647   1.703 -1.0683  1.4103  0.2818
   44MOL0     H 5881   3.597   6.570   1.469  2.6655  0.3496 -2.5428
   44MOL0     H 5882   3.560   6.725   1.408  0.5886  0.1145  0.0882
   44MOL0     H 5883   3.806   6.681   1.405  0.7080  3.0408 -0.2611
   44MOL0     H 5884   3.783   6.808   1.511  1.9319 -0.3285 -0.9902
   44MOL0     H 5885   3.783   6.657   1.726 -3.2482 -1.9117 -0.2645
   44MOL0     H 5886   3.795   6.515   1.613  1.5396 -0.9622 -0.2476
   44MOL0     H 5887   4.007   6.631   1.520 -1.5683 -1.2240 -0.4900
   44MOL0     H 5888   4.011   6.514   1.648  0.3014 -0.6621 -2.6555
   44MOL0     H 5889   4.034   6.807   1.706  0.7762  1.0550  0.2774
   44MOL0     H 5890   3.986   6.689   1.821  1.3818  3.1534  0.2233
   44MOL0     H 5891   4.158   6.548   1.942 -1.0274 -0.4795 -0.6803
   44MOL0     H 5892   4.556   6.596   1.921  1.2495 -1.0061 -1.0286
   44MOL0     H 5893   4.453   6.601   2.064 -1.6036  1.0001 -1.2080
   44MOL0     H 5894   4.521   6.361   2.037 -2.2216 -2.0538  0.6979
   44MOL0     H 5895   4.350   6.376   1.994 -0.0038 -2.5175 -2.0388
   44MOL0     H 5896   4.588   6.363   1.800 -0.3606 -2.0632 -0.1353
   44MOL0     H 5897   4.416   6.400   1.761 -1.7167 -2.1795 -0.3184
   44MOL0     H 5898   4.539   6.138   1.848 -0.5705  0.1267  2.3238
   44MOL0     H 5899   4.430   6.170   1.706  1.3145  0.6388 -0.7199
   44MOL0     H 5900   4.240   6.223   1.650 -0.1848  1.0351  0.0313
   44MOL0     H 5901   4.011   6.226   1.586 -0.7502 -0.9557  0.9168
   44MOL0     H 5902   3.587   6.328   1.441  0.4727  0.0201 -2.6301
   44MOL0     H 5903   3.434   6.199   1.290  0.2525 -0.8236  0.0308
   44MOL0     H 5904   3.351   6.089   1.140 -1.4418  0.3642  0.9811
   44MOL0     H 5905   3.469   5.991   1.069  1.8660  0.9896  1.6155
   44MOL0     H 5906   3.212   5.855   1.160 -0.9210  3.0543  1.8789
   44MOL0     H 5907   3.195   5.987   1.045  0.1177 -0.5237 -1.7436
   44MOL0     H 5908   3.324   5.899   0.885 -2.4283  0.8764  0.0426
   44MOL0     H 5909   3.389   5.759   0.987 -1.8969  0.0252  4.9737
   44MOL0     H 5910   3.093   5.792   0.885 -0.8688 -1.8308 -2.1465
   44MOL0     H 5911   3.157   5.679   0.996 -0.6647  1.6794  1.7043
   44MOL0     H 5912   3.307   5.588   0.808 -2.4306 -4.8424 -1.9089
   44MOL0     H 5913   3.266   5.718   0.696 -1.7140 -1.9743 -0.0508
   44MOL0     H 5914   3.066   5.528   0.815 -0.3557  1.2142  1.3239
   44MOL0     H 5915   3.026   5.668   0.708  2.3409  0.7414 -0.6240
   44MOL0     H 5916   3.204   5.444   0.626  2.5587  2.1692  1.6235
   44MOL0     H 5917   3.153   5.575   0.512  0.5442 -0.8417 -0.1475
   44MOL0     H 5918   2.976   5.340   0.605 -3.1331  0.4152  1.3489
   44MOL0     H 5919   2.918   5.497   0.564  0.2293 -0.3866 -0.8908
   44MOL0     H 5920   3.616   5.831   1.403 -0.4068 -0.8311 -2.2943
   44MOL0     H 5921   3.759   5.947   1.561 -0.2143  0.2546  0.2600
   44MOL0     H 5922   3.886   6.131   1.991  0.0170 -1.4337 -0.5908
   44MOL0     H 5923   4.121   6.112   2.049  0.2270 -3.6757 -0.6313
   44MOL0     H 5924   3.398   7.278   1.789 -1.7704  1.0087 -1.0976
   44MOL0     H 5925   3.229   7.393   1.927  0.4729  0.0098 -1.9295
   44MOL0     H 5926   2.856   7.063   2.001  2.5701  1.5724 -0.1421
   44MOL0     H 5927   2.623   6.976   2.086 -1.2877  0.3085  2.7663
   44MOL0     H 5928   2.475   7.189   2.382  0.1560  3.2341 -2.4423
   44MOL0     H 5929   2.393   7.031   2.373 -1.7661  0.4722 -1.3708
   44MOL0     H 5930   2.283   7.297   2.266 -0.6397  0.2445  0.7375
   44MOL0     H 5931   2.229   7.210   2.408  3.4110 -0.0128  1.0669
   44MOL0     H 5932   2.121   7.043   2.308 -1.2234  1.2743  0.2739
   44MOL0     H 5933   2.203   7.059   2.148 -0.1444  0.6751 -1.1443
   44MOL0     H 5934   1.992   7.233   2.279  3.2778  0.0422  1.7892
   44MOL0     H 5935   2.051   7.277   2.118  0.7200  0.3886  0.3853
   44MOL0     H 5936   1.803   6.967   1.974  1.8848  0.3045 -1.2808
   44MOL0     H 5937   2.516   7.337   2.226  2.1457  4.1689 -0.1110
   44MOL0     H 5938   2.835   7.538   2.121  1.2402 -0.1097  0.2061
   44MOL0     H 5939   2.686   7.539   2.199  1.3464  1.4725 -0.2908
   44MOL0     H 5940   2.826   7.453   2.277 -2.9787  0.8230  1.1644
   45MOL0     O 5941   2.478  10.718   1.036 -0.3686 -1.0618  0.6764
   45MOL0     C 5942   2.425  10.704   0.925  0.5223  0.0179 -0.4881
   45MOL0     O 5943   2.496  10.690   0.804 -0.4606 -0.9952  0.5206
   45MOL0     C 5944   2.641  10.701   0.818 -0.5387 -0.0535  0.6564
   45MOL0     C 5945   2.702  10.828   0.799  0.3405 -0.8601  0.3174
   45MOL0     C 5946   2.845  10.834   0.819 -0.7337  0.2335 -0.1451
   45MOL0     C 5947   2.920  10.717   0.844  0.1182 -0.4105  1.1222
   45MOL0     O 5948   3.047  10.702   0.865  0.2950 -0.6807  0.6216
   45MOL0     C 5949   3.125  10.814   0.828 -0.1961  0.3657 -0.1622
   45MOL0     C 5950   3.274  10.778   0.841 -0.4459  0.1108 -0.0983
   45MOL0     C 5951   3.376  10.885   0.865  0.4605  0.1632  0.2139
   45MOL0     C 5952   3.515  10.835   0.872 -0.2748 -0.2877  0.2586
   45MOL0     C 5953   3.612  10.960   0.877 -0.3637 -0.4042 -0.0784
   45MOL0     C 5954   3.731  10.922   0.961 -0.9242 -0.3544  0.6011
   45MOL0     C 5955   3.712  10.958   1.120  0.3278 -0.5095  1.4835
   45MOL0     C 5956   3.747  10.842   1.212 -0.1324 -0.5812 -0.1371
   45MOL0     N 5957   3.637  10.749   1.210 -0.0811 -0.4273 -0.0861
   45MOL0     C 5958   3.523  10.751   1.276 -0.6587  1.2871 -0.2579
   45MOL0     C 5959   3.459  10.626   1.263 -0.1673  0.3272  0.4084
   45MOL0     C 5960   3.330  10.565   1.322 -0.7893 -0.2852 -0.8164
   45MOL0     C 5961   3.202  10.608   1.246 -0.4089  0.1499 -0.2587
   45MOL0     C 5962   3.190  10.756   1.205  0.5247 -1.2450 -0.8446
   45MOL0     C 5963   3.187  10.840   1.328  0.2900 -0.0143  0.3347
   45MOL0     O 5964   3.156  10.986   1.310  0.6137  0.3345 -0.2352
   45MOL0     C 5965   3.263  11.063   1.269 -0.5006  0.2453 -0.1650
   45MOL0     C 5966   3.249  11.114   1.148 -0.5940  0.2111 -0.6247
   45MOL0     C 5967   3.338  11.208   1.085 -0.5015  0.7709 -0.1414
   45MOL0     C 5968   3.465  11.234   1.156  0.1677 -1.0648 -0.2385
   45MOL0     C 5969   3.567  11.334   1.104  0.2404 -0.7013  0.6996
   45MOL0     O 5970   3.664  11.372   1.194  0.6649  0.2149 -0.5467
   45MOL0     C 5971   3.772  11.440   1.157 -0.4785  0.0748 -0.5579
   45MOL0     C 5972   3.860  11.496   1.260 -0.8882  0.1549  0.2541
   45MOL0     C 5973   3.991  11.542   1.233  0.8696  0.3059 -0.5781
   45MOL0     C 5974   4.040  11.553   1.108  0.4796  0.0554 -0.4163
   45MOL0     O 5975   4.166  11.600   1.075  0.0097 -0.3011 -0.4285
   45MOL0     C 5976   4.275  11.572   1.151 -0.9090 -0.9629 -0.8432
   45MOL0     C 5977   4.387  11.634   1.078 -0.3360 -0.0911  0.3370
   45MOL0     C 5978   4.510  11.566   1.123  0.2027  0.5546 -0.9565
   45MOL0     C 5979   4.562  11.632   1.257 -0.8703 -0.6987  1.2579
   45MOL0     C 5980   4.684  11.566   1.313  0.7874 -0.5084 -0.0048
   45MOL0     C 5981   4.819  11.621   1.247  0.5652 -0.3340  0.4016
   45MOL0     C 5982   4.938  11.548   1.305  0.2001  0.0869  0.0299
   45MOL0     C 5983   5.075  11.611   1.266  0.1965 -0.0266  0.2130
   45MOL0    Cl 5984   5.213  11.495   1.298  0.4604 -0.6676  0.4521
   45MOL0     C 5985   3.960  11.518   1.006 -0.1546 -0.6401 -0.2031
   45MOL0     C 5986   3.829  11.468   1.031 -0.0554  1.0011 -0.2754
   45MOL0     O 5987   3.550  11.380   0.993 -0.3354  0.2542  0.4383
   45MOL0     C 5988   3.488  11.168   1.281  1.2525 -0.1216 -0.0692
   45MOL0     C 5989   3.386  11.087   1.334 -0.4147  0.1826  0.4843
   45MOL0     N 5990   3.556  10.554   1.185 -0.8152 -0.5268  0.0402
   45MOL0     N 5991   3.647  10.631   1.148 -0.8629 -0.6004 -0.2442
   45MOL0     C 5992   2.851  10.597   0.866  0.4414 -0.6577  1.0514
   45MOL0     C 5993   2.710  10.580   0.854  1.0674 -0.3593 -0.2202
   45MOL0     C 5994   2.290  10.694   0.912  1.4439  0.3503  0.3360
   45MOL0     C 5995   2.239  10.586   0.829 -0.2692  0.2456 -0.2131
   45MOL0     C 5996   2.102  10.571   0.820 -0.7294  0.3107 -0.6524
   45MOL0     C 5997   2.016  10.651   0.886  0.5927  0.6036  0.5868
   45MOL0     O 5998   1.884  10.636   0.874 -0.2689 -1.0000 -0.3299
   45MOL0     C 5999   1.826  10.521   0.804 -0.4465  0.0395  0.2254
   45MOL0     C 6000   1.801  10.556   0.656 -0.5618  0.1111  0.1276
   45MOL0     C 6001   1.739  10.452   0.574  0.3349 -0.5361  0.3263
   45MOL0     C 6002   1.590  10.425   0.614 -0.2636 -0.2228  0.3263
   45MOL0     C 6003   1.584  10.308   0.708  0.1504  0.8371 -0.1817
   45MOL0     C 6004   1.577  10.221   0.792 -0.4487  0.0358  0.7678
   45MOL0     C 6005   2.061  10.752   0.966  0.2388 -0.3798  0.6597
   45MOL0     C 6006   2.197  10.777   0.979  0.4077  0.0305  0.0973
   45MOL0     C 6007   2.237  10.892   1.069  0.6489  0.0650 -0.0800
   45MOL0     H 6008   2.638  10.910   0.770  0.7828 -0.4042  0.6148
   45MOL0     H 6009   2.892  10.932   0.811  1.5219 -0.6673  1.1547
   45MOL0     H 6010   3.101  10.858   0.731  2.0551  4.4506  0.8689
   45MOL0     H 6011   3.097  10.894   0.898 -3.9632 -1.0963  0.2247
   45MOL0     H 6012   3.298  10.726   0.748 -1.2146  0.5472 -0.5461
   45MOL0     H 6013   3.293  10.701   0.917 -2.2176 -1.8074 -1.4842
   45MOL0     H 6014   3.350  10.939   0.957 -1.7748 -0.6136  0.0964
   45MOL0     H 6015   3.373  10.951   0.777 -0.5782 -1.0497 -0.7077
   45MOL0     H 6016   3.518  10.769   0.960 -1.1765  0.8892  1.2101
   45MOL0     H 6017   3.538  10.778   0.782 -2.3733  0.1953 -0.6512
   45MOL0     H 6018   3.655  10.957   0.777  0.0016  0.4670  0.0423
   45MOL0     H 6019   3.571  11.058   0.901  1.7912  0.5592 -0.0885
   45MOL0     H 6020   3.747  10.814   0.953 -0.0459 -0.0685 -2.2934
   45MOL0     H 6021   3.812  10.986   0.926 -0.2014 -0.6643  1.6519
   45MOL0     H 6022   3.616  11.007   1.138  0.4055  0.7907 -1.1980
   45MOL0     H 6023   3.782  11.039   1.140 -1.1798  0.4590  3.2490
   45MOL0     H 6024   3.844  10.801   1.182  0.6944  0.5219  0.8833
   45MOL0     H 6025   3.758  10.885   1.313  4.2966  0.2858 -0.7534
   45MOL0     H 6026   3.488  10.830   1.341 -2.7601 -0.7331  1.1963
   45MOL0     H 6027   3.337  10.456   1.316  1.4799 -0.2312 -0.1590
   45MOL0     H 6028   3.322  10.589   1.428 -1.7364 -0.4879 -0.8403
   45MOL0     H 6029   3.198  10.555   1.150 -1.1876  1.5140 -1.0215
   45MOL0     H 6030   3.107  10.571   1.287  0.2797 -2.6113 -0.9232
   45MOL0     H 6031   3.099  10.775   1.147 -0.6525  0.4613  1.4081
   45MOL0     H 6032   3.266  10.792   1.134 -0.7509 -0.6409 -1.9582
   45MOL0     H 6033   3.284  10.825   1.377  1.1094 -1.9994 -1.7120
   45MOL0     H 6034   3.107  10.809   1.396 -1.1159  0.5907 -0.9762
   45MOL0     H 6035   3.163  11.090   1.085 -1.2294  2.7260 -0.8355
   45MOL0     H 6036   3.328  11.244   0.984 -1.0307 -0.1370 -0.4271
   45MOL0     H 6037   3.823  11.497   1.362 -3.3300  0.1192 -0.5609
   45MOL0     H 6038   4.050  11.575   1.318  0.8022  0.9478 -0.7772
   45MOL0     H 6039   4.270  11.620   1.250  2.0956 -0.0592 -1.0394
   45MOL0     H 6040   4.278  11.463   1.159 -0.6149 -0.8850  0.4234
   45MOL0     H 6041   4.367  11.616   0.972 -0.2351 -2.6591  0.7080
   45MOL0     H 6042   4.391  11.743   1.095  0.5855 -0.0442 -0.1334
   45MOL0     H 6043   4.497  11.457   1.132  1.4465  0.4486 -0.1850
   45MOL0     H 6044   4.587  11.568   1.045 -0.5951 -0.3800 -1.8026
   45MOL0     H 6045   4.487  11.652   1.334 -3.4439  2.0094 -1.6809
   45MOL0     H 6046   4.589  11.733   1.227 -0.0305 -1.2303  0.1558
   45MOL0     H 6047   4.675  11.458   1.294  2.0877 -0.1133 -3.6868
   45MOL0     H 6048   4.682  11.602   1.416 -2.9060 -0.1886 -0.0578
   45MOL0     H 6049   4.819  11.602   1.139 -0.2747  0.0037  0.3285
   45MOL0     H 6050   4.838  11.726   1.270  1.3427 -0.4572  0.3500
   45MOL0     H 6051   4.937  11.443   1.276  0.8789 -0.8620  3.0340
   45MOL0     H 6052   4.936  11.537   1.414  1.6612  1.5183  0.2352
   45MOL0     H 6053   5.063  11.637   1.160 -1.7066  0.9459  0.6114
   45MOL0     H 6054   5.103  11.697   1.327 -1.2639  1.4185 -1.0374
   45MOL0     H 6055   3.985  11.539   0.902  0.7288  2.9400  0.5658
   45MOL0     H 6056   3.778  11.436   0.941  1.2608  0.2861 -0.8022
   45MOL0     H 6057   3.584  11.185   1.329  0.1661  1.0779  1.8264
   45MOL0     H 6058   3.400  11.026   1.423 -1.4850 -0.6818  0.0739
   45MOL0     H 6059   2.898  10.509   0.908  3.0338 -0.1487 -0.5533
   45MOL0     H 6060   2.651  10.489   0.860 -2.8301  1.7771 -1.8398
   45MOL0     H 6061   2.305  10.510   0.787 -1.5172  0.4771 -2.7388
   45MOL0     H 6062   2.071  10.480   0.769 -2.7940 -2.5590  4.9621
   45MOL0     H 6063   1.735  10.495   0.859 -0.8236 -1.2295 -0.9368
   45MOL0     H 6064   1.893  10.435   0.802 -0.6306 -0.1711 -3.0108
   45MOL0     H 6065   1.896  10.578   0.607  0.5396 -1.1173  1.6324
   45MOL0     H 6066   1.743  10.648   0.642  0.3168  0.7929  0.8413
   45MOL0     H 6067   1.804  10.364   0.584 -0.7279 -1.0931  3.3366
   45MOL0     H 6068   1.728  10.494   0.473  0.9183  4.7525  2.1785
   45MOL0     H 6069   1.550  10.520   0.651 -1.2065 -1.0717  1.6006
   45MOL0     H 6070   1.521  10.401   0.532  0.5909 -2.4667  0.2054
   45MOL0     H 6071   1.554  10.158   0.876 -2.5359 -0.4630 -0.1006
   45MOL0     H 6072   1.988  10.821   1.008 -0.2568 -0.3574 -0.2074
   45MOL0     H 6073   2.155  10.952   1.108  0.8343 -0.4652  1.2102
   45MOL0     H 6074   2.277  10.846   1.160  0.2003 -1.9663 -0.8511
   45MOL0     H 6075   2.308  10.953   1.013  0.4149 -1.0165 -1.6114
   46MOL0     O 6076   8.857   7.809   7.697 -0.6895  1.0497  0.5764
   46MOL0     C 6077   8.753   7.790   7.756  0.3599 -0.0278 -0.2429
   46MOL0     O 6078   8.633   7.866   7.753  0.1269 -0.0316 -0.4232
   46MOL0     C 6079   8.620   7.967   7.658  0.1563 -0.9041  0.0016
   46MOL0     C 6080   8.718   8.044   7.584 -1.1849 -0.2417  0.0212
   46MOL0     C 6081   8.688   8.161   7.514  0.6422  0.1219 -0.3553
   46MOL0     C 6082   8.559   8.205   7.507  0.1879  0.2868  0.0988
   46MOL0     O 6083   8.536   8.320   7.428 -0.2206  0.1214 -0.2434
   46MOL0     C 6084   8.409   8.367   7.398  0.4359  0.1156  0.5059
   46MOL0     C 6085   8.428   8.473   7.292 -0.2952 -0.3322 -0.1287
   46MOL0     C 6086   8.302   8.559   7.277 -0.4870  0.2262 -0.2610
   46MOL0     C 6087   8.318   8.673   7.178  0.7999  0.1715  1.0584
   46MOL0     C 6088   8.390   8.800   7.231  0.3613  0.3522 -1.2424
   46MOL0     C 6089   8.406   8.911   7.136  0.3372 -0.4012  0.1029
   46MOL0     C 6090   8.528   9.003   7.177  0.1765 -0.2087  0.8808
   46MOL0     C 6091   8.514   9.057   7.320 -0.1768  0.2979  0.1660
   46MOL0     N 6092   8.393   9.131   7.328  0.4272 -0.0971 -0.1319
   46MOL0     C 6093   8.370   9.252   7.275  0.0300 -0.4061  0.3545
   46MOL0     C 6094   8.260   9.296   7.324 -0.0941  0.3177  0.2301
   46MOL0     C 6095   8.209   9.428   7.299 -0.0758  0.5775 -0.3430
   46MOL0     C 6096   8.066   9.426   7.236 -0.5298  0.0719 -0.2216
   46MOL0     C 6097   8.054   9.399   7.081  0.3704 -0.0298 -0.7350
   46MOL0     C 6098   7.910   9.354   7.051 -0.0464  0.5130 -0.2624
   46MOL0     O 6099   7.907   9.214   7.067  0.5603 -0.2718  0.2249
   46MOL0     C 6100   7.794   9.144   7.029  0.4899  0.3813  0.3677
   46MOL0     C 6101   7.690   9.193   6.950  0.2651  0.0655  0.6431
   46MOL0     C 6102   7.592   9.103   6.906 -0.1554  0.6334 -0.3740
   46MOL0     C 6103   7.594   8.969   6.945 -0.6010  0.7787 -0.1774
   46MOL0     C 6104   7.495   8.864   6.903  0.0377 -0.1884  0.6336
   46MOL0     O 6105   7.474   8.757   6.992 -0.5744  0.0235 -0.1696
   46MOL0     C 6106   7.367   8.672   6.984  0.5125  0.6163  0.4059
   46MOL0     C 6107   7.379   8.562   7.065  0.3777  0.1517  0.3873
   46MOL0     C 6108   7.276   8.465   7.061 -0.6591  0.5085 -0.4464
   46MOL0     C 6109   7.173   8.469   6.971  0.1592 -0.3869 -0.5962
   46MOL0     O 6110   7.077   8.370   6.966  0.5279  0.0922  0.4508
   46MOL0     C 6111   7.035   8.303   7.083  0.4771 -0.1276  0.3854
   46MOL0     C 6112   6.901   8.252   7.047  0.4973 -0.1868 -0.4705
   46MOL0     C 6113   6.790   8.351   7.101 -0.5992 -1.3141 -0.3432
   46MOL0     C 6114   6.761   8.477   7.008 -0.2545 -0.0732  0.1312
   46MOL0     C 6115   6.686   8.578   7.101 -0.2382 -0.0105 -0.3009
   46MOL0     C 6116   6.780   8.651   7.195 -0.2245 -0.1384 -0.1498
   46MOL0     C 6117   6.710   8.715   7.310  0.8115 -0.7825 -0.7637
   46MOL0     C 6118   6.799   8.805   7.395  0.8761 -0.1199 -0.8673
   46MOL0    Cl 6119   6.863   8.954   7.316  0.4415 -0.3610  0.1218
   46MOL0     C 6120   7.161   8.589   6.901  0.0662  0.8792  0.3311
   46MOL0     C 6121   7.253   8.692   6.900  0.2795  0.7620  0.7770
   46MOL0     O 6122   7.428   8.898   6.799  0.5589  0.0589 -0.7023
   46MOL0     C 6123   7.697   8.917   7.035  0.5281 -0.4797  0.3496
   46MOL0     C 6124   7.796   9.013   7.059 -0.3670  0.3994 -0.6640
   46MOL0     N 6125   8.215   9.208   7.424  0.1685 -0.3133 -0.3422
   46MOL0     N 6126   8.292   9.107   7.419  0.4594 -0.4001 -0.1017
   46MOL0     C 6127   8.456   8.134   7.574  1.4803  0.8008 -0.9295
   46MOL0     C 6128   8.492   8.021   7.647  0.5357  0.7261  0.5615
   46MOL0     C 6129   8.765   7.679   7.853  0.4575 -0.2593 -0.1159
   46MOL0     C 6130   8.713   7.698   7.978 -0.2448 -0.1655  0.1198
   46MOL0     C 6131   8.723   7.593   8.077  0.5575  0.0274 -0.4299
   46MOL0     C 6132   8.773   7.473   8.043 -0.4442  0.4901 -0.5600
   46MOL0     O 6133   8.758   7.370   8.137 -0.2236  0.2291  0.2224
   46MOL0     C 6134   8.856   7.271   8.153  0.1539  0.0255  0.5999
   46MOL0     C 6135   8.876   7.239   8.301 -0.3782  0.9852  0.6816
   46MOL0     C 6136   8.767   7.142   8.364 -0.9273 -0.2768 -0.3484
   46MOL0     C 6137   8.616   7.177   8.332  0.5054  0.3557  0.1674
   46MOL0     C 6138   8.515   7.070   8.369  0.0266  0.6710  0.2963
   46MOL0     C 6139   8.429   6.991   8.402 -0.0160 -0.1243  1.1695
   46MOL0     C 6140   8.818   7.447   7.907 -0.9052 -0.0161 -0.9530
   46MOL0     C 6141   8.823   7.551   7.814 -0.0530 -0.2534  0.1473
   46MOL0     C 6142   8.855   7.516   7.671  0.6002  0.5048  0.6046
   46MOL0     H 6143   8.822   8.012   7.579 -0.9544  0.6406 -2.9988
   46MOL0     H 6144   8.761   8.224   7.465  0.0163  0.6079 -0.6871
   46MOL0     H 6145   8.340   8.288   7.364  0.6613  0.2982 -0.3798
   46MOL0     H 6146   8.360   8.407   7.488 -1.9599  0.2961 -0.8019
   46MOL0     H 6147   8.452   8.421   7.199  0.7149 -0.9562  0.4670
   46MOL0     H 6148   8.518   8.532   7.311  0.1466 -0.9050 -0.4221
   46MOL0     H 6149   8.288   8.606   7.375  1.2955  2.6297 -1.0835
   46MOL0     H 6150   8.219   8.494   7.248  1.7321 -2.3300 -1.3393
   46MOL0     H 6151   8.368   8.630   7.091  0.0564  1.7572 -0.2053
   46MOL0     H 6152   8.224   8.712   7.139  2.4138  3.5795  0.1469
   46MOL0     H 6153   8.335   8.839   7.317  1.1537 -3.0547  0.9940
   46MOL0     H 6154   8.493   8.772   7.253  0.1100 -0.7183 -1.4048
   46MOL0     H 6155   8.415   8.871   7.034 -0.3424 -2.3654  0.7587
   46MOL0     H 6156   8.308   8.959   7.130  0.3136 -0.4122  0.4083
   46MOL0     H 6157   8.531   9.088   7.108 -0.0506  0.6936  1.9617
   46MOL0     H 6158   8.627   8.958   7.167  0.6938  1.2823 -1.4056
   46MOL0     H 6159   8.514   8.976   7.393  0.9487  0.1956  0.0787
   46MOL0     H 6160   8.598   9.122   7.348 -0.3620  0.2005  0.9810
   46MOL0     H 6161   8.434   9.305   7.205  0.9471  1.2633  2.3767
   46MOL0     H 6162   8.217   9.475   7.398  0.0240 -0.4327  0.1361
   46MOL0     H 6163   8.276   9.478   7.228  2.0054 -2.3974 -0.6830
   46MOL0     H 6164   8.000   9.357   7.290 -2.8729  1.7573 -0.7878
   46MOL0     H 6165   8.036   9.527   7.263  0.8303  1.5404 -3.6756
   46MOL0     H 6166   8.125   9.322   7.048 -0.1772 -0.4041 -1.0646
   46MOL0     H 6167   8.071   9.495   7.032  1.6842 -0.1990 -0.6397
   46MOL0     H 6168   7.896   9.376   6.945  1.5248  1.0307 -0.3898
   46MOL0     H 6169   7.822   9.398   7.099 -1.1278 -1.6660 -0.1556
   46MOL0     H 6170   7.683   9.294   6.912 -2.8282 -0.8237 -1.5628
   46MOL0     H 6171   7.511   9.127   6.838  0.1684 -3.4428 -2.5404
   46MOL0     H 6172   7.458   8.546   7.137  3.4948  0.6534 -2.6370
   46MOL0     H 6173   7.301   8.376   7.117  2.5585  2.7905  2.1776
   46MOL0     H 6174   7.102   8.217   7.095 -0.9052 -1.5707 -1.6551
   46MOL0     H 6175   7.045   8.381   7.159  1.3055 -0.5708  0.7396
   46MOL0     H 6176   6.890   8.234   6.940 -0.5743  2.8928 -0.9744
   46MOL0     H 6177   6.893   8.159   7.104  2.0268  0.4464  0.8573
   46MOL0     H 6178   6.706   8.282   7.115  0.4865 -2.3357  1.6506
   46MOL0     H 6179   6.827   8.375   7.201  4.9240 -4.3353 -1.2146
   46MOL0     H 6180   6.708   8.440   6.920  0.2313  1.2924 -0.7620
   46MOL0     H 6181   6.859   8.514   6.976 -0.3606  0.8864  0.8537
   46MOL0     H 6182   6.599   8.528   7.146 -1.4456  2.1913 -0.0320
   46MOL0     H 6183   6.655   8.661   7.036 -0.0061 -1.4425 -2.3099
   46MOL0     H 6184   6.853   8.586   7.244 -1.1760  0.7063  2.5965
   46MOL0     H 6185   6.826   8.730   7.136  0.8695 -1.4552 -1.1126
   46MOL0     H 6186   6.672   8.647   7.386  0.7611  0.6789  0.5665
   46MOL0     H 6187   6.627   8.772   7.266 -1.1971 -3.0188 -0.0900
   46MOL0     H 6188   6.725   8.828   7.472  0.6110  1.7125 -1.6159
   46MOL0     H 6189   6.880   8.750   7.444  0.3252  1.2167  1.7223
   46MOL0     H 6190   7.095   8.584   6.815  0.4998  1.3483 -0.0443
   46MOL0     H 6191   7.238   8.763   6.819 -0.2454  1.4639  1.4792
   46MOL0     H 6192   7.688   8.825   7.091  0.4858 -1.9543 -1.9785
   46MOL0     H 6193   7.886   8.970   7.101 -0.7679 -0.7171 -0.9247
   46MOL0     H 6194   8.357   8.179   7.570  1.4208  1.0274  1.6071
   46MOL0     H 6195   8.413   7.976   7.705 -0.5069 -1.7065 -2.5124
   46MOL0     H 6196   8.683   7.797   8.008 -0.0166  0.7684 -2.4564
   46MOL0     H 6197   8.671   7.606   8.171 -0.2355 -2.1426 -0.5233
   46MOL0     H 6198   8.954   7.307   8.117  1.2662 -2.0810  1.3675
   46MOL0     H 6199   8.832   7.185   8.091 -2.0577  1.2208 -0.3246
   46MOL0     H 6200   8.881   7.329   8.362 -2.1030  0.8837  1.0168
   46MOL0     H 6201   8.974   7.189   8.303 -1.1023 -0.9855 -2.8363
   46MOL0     H 6202   8.767   7.140   8.474  1.4607  3.3128 -0.1242
   46MOL0     H 6203   8.804   7.044   8.333  1.6928  0.0356  1.4372
   46MOL0     H 6204   8.585   7.273   8.375 -1.2288  1.6603 -3.6238
   46MOL0     H 6205   8.609   7.180   8.223 -0.6146  2.7864  0.2407
   46MOL0     H 6206   8.341   6.937   8.430 -0.9643  0.8969  0.2650
   46MOL0     H 6207   8.844   7.345   7.881  0.5562  0.2899 -0.7828
   46MOL0     H 6208   8.777   7.547   7.601  0.0355  0.4101  1.1890
   46MOL0     H 6209   8.943   7.569   7.632  0.0764 -0.6700 -2.4599
   46MOL0     H 6210   8.879   7.410   7.672  2.3257  0.8595  0.3569
   47MOL0     O 6211   1.770   7.991   2.497  0.1313  0.1961  0.6964
   47MOL0     C 6212   1.724   7.889   2.544 -0.0463  0.6617  0.0191
   47MOL0     O 6213   1.666   7.872   2.660 -0.0796  0.7636 -0.3043
   47MOL0     C 6214   1.686   7.960   2.765  1.0710  0.1562  0.3756
   47MOL0     C 6215   1.692   8.100   2.752  0.6275  0.1847  0.3458
   47MOL0     C 6216   1.706   8.189   2.855  0.1461 -0.2601 -0.1139
   47MOL0     C 6217   1.716   8.148   2.987 -0.0989 -0.2684 -0.2998
   47MOL0     O 6218   1.732   8.225   3.097 -0.3532 -0.1327 -0.6184
   47MOL0     C 6219   1.772   8.362   3.074  0.4058  0.2802  0.0279
   47MOL0     C 6220   1.915   8.373   3.021 -1.2080 -0.1991  0.3628
   47MOL0     C 6221   1.967   8.521   3.052 -0.0810 -0.2108  0.3303
   47MOL0     C 6222   2.109   8.513   3.094  0.2853 -0.1906  0.0586
   47MOL0     C 6223   2.109   8.474   3.242  0.5622 -0.9300 -0.0384
   47MOL0     C 6224   2.242   8.409   3.278 -0.7391  0.1353 -0.5408
   47MOL0     C 6225   2.259   8.396   3.434 -1.1442 -0.7236 -0.2531
   47MOL0     C 6226   2.149   8.316   3.502  0.0385 -0.5259  0.2917
   47MOL0     N 6227   2.182   8.246   3.631 -0.2737  0.5815  0.0607
   47MOL0     C 6228   2.294   8.161   3.644 -0.0629  0.0884 -0.4774
   47MOL0     C 6229   2.303   8.145   3.775 -0.3822  0.0592 -0.1415
   47MOL0     C 6230   2.395   8.045   3.848  0.3105  0.0798 -0.5419
   47MOL0     C 6231   2.452   8.089   3.982 -0.2430  0.4123 -0.1345
   47MOL0     C 6232   2.439   7.969   4.085 -0.7065 -0.5126  1.2677
   47MOL0     C 6233   2.513   7.996   4.214  1.1717 -0.2993  0.0426
   47MOL0     O 6234   2.651   8.020   4.180  0.1576  0.6016  0.0085
   47MOL0     C 6235   2.737   8.086   4.267 -0.1186 -0.3760  0.4013
   47MOL0     C 6236   2.718   8.114   4.403  0.8613 -0.1210  0.4240
   47MOL0     C 6237   2.806   8.182   4.475 -0.6082 -0.0683  0.3749
   47MOL0     C 6238   2.922   8.239   4.428 -0.4899 -0.9744 -0.3958
   47MOL0     C 6239   3.019   8.317   4.512  0.1064 -0.3985  0.4016
   47MOL0     O 6240   3.103   8.397   4.440 -0.8666  0.1295  0.1507
   47MOL0     C 6241   3.179   8.480   4.519  1.0510 -0.2913  0.6145
   47MOL0     C 6242   3.319   8.479   4.512 -0.2981  0.0994 -0.1995
   47MOL0     C 6243   3.403   8.564   4.585  0.4317  0.1771  0.0212
   47MOL0     C 6244   3.342   8.659   4.671 -0.6205  0.5529  0.2076
   47MOL0     O 6245   3.419   8.760   4.735  0.4333 -0.5017  0.5353
   47MOL0     C 6246   3.420   8.761   4.874 -0.7365  1.1306  0.4425
   47MOL0     C 6247   3.492   8.889   4.910 -0.7586  0.1717 -0.2556
   47MOL0     C 6248   3.648   8.903   4.883  1.0581 -0.4297 -0.9580
   47MOL0     C 6249   3.713   8.798   4.965  0.5188 -0.0377  0.0551
   47MOL0     C 6250   3.866   8.809   4.970 -0.7434 -1.0348  0.3211
   47MOL0     C 6251   3.910   8.897   5.083  0.9420  0.0417 -0.8375
   47MOL0     C 6252   4.061   8.914   5.096  0.6500 -0.1511  0.2749
   47MOL0     C 6253   4.113   8.983   5.225  0.6920 -0.5543 -0.1009
   47MOL0    Cl 6254   4.284   9.042   5.200 -0.4136  0.1997 -0.4661
   47MOL0     C 6255   3.201   8.664   4.683  0.1141  1.3148  0.8237
   47MOL0     C 6256   3.120   8.574   4.606 -0.5138 -0.4769 -0.9461
   47MOL0     O 6257   3.010   8.311   4.637  0.2665  0.1655 -0.1517
   47MOL0     C 6258   2.948   8.219   4.289  0.5040  0.4583 -0.2345
   47MOL0     C 6259   2.842   8.158   4.209 -0.1928  0.5907 -0.7463
   47MOL0     N 6260   2.188   8.189   3.831 -0.2026 -0.3427  1.1022
   47MOL0     N 6261   2.134   8.272   3.753 -0.0548  0.3409  0.4301
   47MOL0     C 6262   1.707   8.002   3.006  0.1283 -0.2299 -0.7698
   47MOL0     C 6263   1.697   7.909   2.892 -0.1031 -0.3749 -0.2808
   47MOL0     C 6264   1.723   7.777   2.447  0.1779  0.0143  0.0852
   47MOL0     C 6265   1.703   7.651   2.499  0.3099 -0.0563  0.5672
   47MOL0     C 6266   1.714   7.531   2.419  0.4311  0.0985 -0.4934
   47MOL0     C 6267   1.737   7.542   2.279 -0.1151 -0.0134 -0.1873
   47MOL0     O 6268   1.733   7.439   2.188 -0.1277  0.0121 -0.3566
   47MOL0     C 6269   1.667   7.313   2.231 -0.0854  0.1540 -0.1502
   47MOL0     C 6270   1.602   7.266   2.103 -0.0336 -0.2754 -0.9546
   47MOL0     C 6271   1.524   7.144   2.128  0.2359 -0.3961  0.8159
   47MOL0     C 6272   1.451   7.097   2.003  0.4744 -1.2016  0.1646
   47MOL0     C 6273   1.351   7.202   1.964 -0.1019 -0.1796  0.7199
   47MOL0     C 6274   1.272   7.287   1.941  0.5441  0.3013 -0.4741
   47MOL0     C 6275   1.746   7.670   2.222 -1.0366 -1.1528 -0.1261
   47MOL0     C 6276   1.748   7.786   2.300 -0.1239  0.4340  0.0824
   47MOL0     C 6277   1.746   7.915   2.213  0.8931 -0.8913 -0.3931
   47MOL0     H 6278   1.678   8.148   2.656 -0.5164 -0.3741  0.2156
   47MOL0     H 6279   1.712   8.296   2.835 -3.6103  0.0523 -0.1163
   47MOL0     H 6280   1.707   8.411   3.000 -4.1301 -0.0157  3.3944
   47MOL0     H 6281   1.758   8.425   3.163 -1.1211  0.6183 -0.4215
   47MOL0     H 6282   1.915   8.347   2.914  3.8425  1.3011 -0.2639
   47MOL0     H 6283   1.986   8.300   3.059 -0.8024 -2.0763 -3.4594
   47MOL0     H 6284   1.910   8.564   3.136  0.0258 -0.8805  0.7528
   47MOL0     H 6285   1.959   8.593   2.970 -0.3639 -1.5779 -0.8716
   47MOL0     H 6286   2.159   8.439   3.031 -0.0313 -1.1054  0.8621
   47MOL0     H 6287   2.162   8.608   3.082  3.6259 -2.0483 -1.4527
   47MOL0     H 6288   2.099   8.566   3.301  3.3744  0.4612 -1.5446
   47MOL0     H 6289   2.022   8.422   3.283 -0.3101 -0.7719 -1.6236
   47MOL0     H 6290   2.249   8.315   3.222 -0.4516  0.0165 -0.3049
   47MOL0     H 6291   2.323   8.467   3.233 -1.7493  2.2595  0.2610
   47MOL0     H 6292   2.264   8.496   3.477 -1.0927 -0.4459 -0.8897
   47MOL0     H 6293   2.358   8.355   3.452 -0.3883  1.1232 -0.0279
   47MOL0     H 6294   2.059   8.373   3.526  1.0049  0.6105  1.3183
   47MOL0     H 6295   2.101   8.250   3.428 -0.4220 -2.5871  2.2893
   47MOL0     H 6296   2.368   8.123   3.574  3.9548 -0.7248  3.7456
   47MOL0     H 6297   2.340   7.951   3.858 -0.1294  0.4546  0.7282
   47MOL0     H 6298   2.474   8.021   3.776 -0.1837 -1.7616 -0.5272
   47MOL0     H 6299   2.558   8.103   3.957 -0.0621 -2.1629 -1.1359
   47MOL0     H 6300   2.408   8.182   4.019  2.0722  1.8612 -0.7640
   47MOL0     H 6301   2.466   7.872   4.041 -0.9060  1.2991 -3.3943
   47MOL0     H 6302   2.335   7.968   4.118 -0.8333  0.8157  0.9810
   47MOL0     H 6303   2.506   7.910   4.281 -0.0322 -0.4633 -0.2687
   47MOL0     H 6304   2.467   8.091   4.241 -0.2644 -0.4373 -1.7071
   47MOL0     H 6305   2.637   8.065   4.457 -0.9536  2.3138  0.1086
   47MOL0     H 6306   2.789   8.180   4.582  0.1208  1.6462  0.5496
   47MOL0     H 6307   3.361   8.403   4.448  0.8335 -0.8326  1.5733
   47MOL0     H 6308   3.510   8.565   4.568  0.7664  0.1306  1.8965
   47MOL0     H 6309   3.320   8.771   4.917 -0.5931  0.0706  1.0559
   47MOL0     H 6310   3.472   8.676   4.918  0.5408  1.1469 -0.9373
   47MOL0     H 6311   3.454   8.979   4.860  3.9678  4.1958  2.3628
   47MOL0     H 6312   3.472   8.904   5.017  3.7622  1.1734  0.6738
   47MOL0     H 6313   3.674   8.902   4.777  0.8939  0.3941 -1.0154
   47MOL0     H 6314   3.687   8.995   4.929 -1.6390  0.3836 -0.0974
   47MOL0     H 6315   3.701   8.706   4.908  0.2653 -0.4149  0.7074
   47MOL0     H 6316   3.670   8.799   5.066 -1.5602  0.5349 -0.8001
   47MOL0     H 6317   3.902   8.844   4.873 -0.8164 -2.5842 -0.2961
   47MOL0     H 6318   3.900   8.707   4.991  0.6939 -0.5915  0.2219
   47MOL0     H 6319   3.866   8.996   5.074 -2.5860 -1.0914  1.4656
   47MOL0     H 6320   3.873   8.844   5.171  1.1590 -1.6549 -1.7103
   47MOL0     H 6321   4.088   8.981   5.014  0.2963 -0.5609 -0.1857
   47MOL0     H 6322   4.117   8.820   5.090  0.5670 -0.3528  1.9809
   47MOL0     H 6323   4.043   9.063   5.250 -1.2606 -3.3912  4.9375
   47MOL0     H 6324   4.108   8.905   5.300 -0.6560 -0.2155  0.1942
   47MOL0     H 6325   3.146   8.736   4.743  0.5384  1.4193  1.0894
   47MOL0     H 6326   3.012   8.564   4.605 -0.5105 -1.4670  1.3712
   47MOL0     H 6327   3.040   8.253   4.243  0.1733  1.1151 -0.4151
   47MOL0     H 6328   2.862   8.146   4.103  0.2704 -1.3713 -0.4711
   47MOL0     H 6329   1.703   7.971   3.110 -0.2298 -1.9046 -1.2470
   47MOL0     H 6330   1.671   7.805   2.912 -0.0413 -0.2444  0.4828
   47MOL0     H 6331   1.683   7.646   2.605  2.4584 -1.6923  0.9655
   47MOL0     H 6332   1.689   7.434   2.460  2.0167 -0.4182 -0.7077
   47MOL0     H 6333   1.582   7.336   2.296 -0.6961  0.0531 -0.9030
   47MOL0     H 6334   1.727   7.234   2.276  0.2147  0.7290  0.4818
   47MOL0     H 6335   1.681   7.256   2.028  0.5141 -1.5136 -0.2296
   47MOL0     H 6336   1.535   7.345   2.067 -3.0816 -1.0014  2.5667
   47MOL0     H 6337   1.451   7.157   2.208 -1.6362  0.4841 -0.9431
   47MOL0     H 6338   1.596   7.067   2.158 -0.9563 -0.8433  2.6466
   47MOL0     H 6339   1.533   7.101   1.932  0.3170  0.9693  0.0270
   47MOL0     H 6340   1.409   6.996   2.008  0.7939 -1.5983 -3.2081
   47MOL0     H 6341   1.197   7.354   1.906 -1.7136 -1.1937  1.1881
   47MOL0     H 6342   1.755   7.683   2.114  1.1125  2.3107  0.2988
   47MOL0     H 6343   1.731   7.904   2.106 -0.9181  0.8304 -0.3576
   47MOL0     H 6344   1.661   7.976   2.243  2.1595  0.9449 -0.3953
   47MOL0     H 6345   1.841   7.967   2.229  0.2040  0.3968 -0.3972
   48MOL0     O 6346   5.915   1.587   8.196  0.3599 -0.6364 -0.7940
   48MOL0     C 6347   5.988   1.510   8.265  0.0278 -0.4938 -0.9384
   48MOL0     O 6348   6.087   1.549   8.360 -0.0478 -0.4210  0.4050
   48MOL0     C 6349   6.101   1.687   8.370 -0.5806 -0.5222 -0.4451
   48MOL0     C 6350   6.163   1.756   8.263  0.0500  0.1691  0.0129
   48MOL0     C 6351   6.199   1.891   8.283  0.9999 -0.1292 -0.6487
   48MOL0     C 6352   6.168   1.963   8.399  0.9148  0.0095  0.5951
   48MOL0     O 6353   6.179   2.095   8.397  0.3659 -0.1560  0.2561
   48MOL0     C 6354   6.306   2.150   8.341  0.7566 -0.9465 -0.8288
   48MOL0     C 6355   6.355   2.287   8.396 -0.7869  0.8450 -0.3565
   48MOL0     C 6356   6.251   2.388   8.364 -0.0589 -0.6887  0.1688
   48MOL0     C 6357   6.298   2.530   8.411 -1.0811  0.1270 -0.4416
   48MOL0     C 6358   6.199   2.634   8.339 -0.5805 -0.6197 -1.2273
   48MOL0     C 6359   6.193   2.776   8.420  0.0290 -0.3503 -0.1513
   48MOL0     C 6360   6.082   2.867   8.386  0.1658  0.5823  0.2298
   48MOL0     C 6361   6.102   2.938   8.254  1.4311 -0.0276 -0.5973
   48MOL0     N 6362   6.212   3.032   8.260 -0.5011  0.0680  0.6967
   48MOL0     C 6363   6.201   3.154   8.331 -0.3394  0.4024 -0.6635
   48MOL0     C 6364   6.300   3.228   8.278 -0.2027  0.4970  0.5946
   48MOL0     C 6365   6.357   3.362   8.324 -0.3659 -0.3186 -0.3949
   48MOL0     C 6366   6.438   3.416   8.205  0.2718 -0.1803 -1.1985
   48MOL0     C 6367   6.517   3.543   8.226 -1.1692 -0.8113 -0.5158
   48MOL0     C 6368   6.657   3.517   8.296  0.7336  1.0565  0.4034
   48MOL0     O 6369   6.710   3.648   8.323 -0.3334 -0.7140 -0.8488
   48MOL0     C 6370   6.840   3.678   8.286  0.1728  1.1383  1.2363
   48MOL0     C 6371   6.909   3.620   8.168 -0.2280 -0.7019 -0.0504
   48MOL0     C 6372   7.032   3.679   8.127 -0.0766  0.6649  1.5804
   48MOL0     C 6373   7.075   3.799   8.180 -0.6203 -0.6609 -0.5537
   48MOL0     C 6374   7.178   3.891   8.123  0.7904 -1.0088 -1.0726
   48MOL0     O 6375   7.193   3.865   7.987  1.0149 -0.9715 -0.2200
   48MOL0     C 6376   7.298   3.917   7.912 -0.3654 -0.3949  0.9563
   48MOL0     C 6377   7.437   3.931   7.947 -0.2400 -0.5279  0.1397
   48MOL0     C 6378   7.534   3.974   7.841 -0.5597  0.4067  0.0429
   48MOL0     C 6379   7.493   3.992   7.711  0.3970 -0.1588 -0.0998
   48MOL0     O 6380   7.567   4.042   7.613  0.0659  0.8604 -0.9036
   48MOL0     C 6381   7.611   4.178   7.632 -0.0991 -0.3465  0.6711
   48MOL0     C 6382   7.591   4.247   7.505 -0.4330 -0.1714 -0.7421
   48MOL0     C 6383   7.671   4.189   7.389  0.2680  0.1598 -0.5589
   48MOL0     C 6384   7.638   4.264   7.262 -0.2330  0.3141  0.6761
   48MOL0     C 6385   7.710   4.201   7.140 -0.8468 -0.1394  0.4144
   48MOL0     C 6386   7.860   4.199   7.158 -0.1264 -0.0944 -1.1017
   48MOL0     C 6387   7.940   4.197   7.035  0.0956 -0.8333 -0.5637
   48MOL0     C 6388   7.949   4.061   6.952 -0.1679  0.4554 -1.0413
   48MOL0    Cl 6389   8.017   3.937   7.066 -0.2834  0.1857 -0.0918
   48MOL0     C 6390   7.355   3.978   7.683  0.2829 -0.6684 -0.2632
   48MOL0     C 6391   7.267   3.940   7.781  0.3366 -0.2171  0.6775
   48MOL0     O 6392   7.253   3.957   8.197  0.0200 -0.0323  1.2687
   48MOL0     C 6393   7.020   3.841   8.299  0.1324 -0.4285  0.6490
   48MOL0     C 6394   6.901   3.781   8.347  0.6470  0.2641 -0.0298
   48MOL0     N 6395   6.366   3.149   8.181 -0.1898 -0.0175  0.0976
   48MOL0     N 6396   6.312   3.030   8.159  1.0648 -0.2531 -0.2926
   48MOL0     C 6397   6.106   1.890   8.506 -0.1548 -0.5914 -0.0281
   48MOL0     C 6398   6.083   1.754   8.496  0.0989  0.4070 -0.0610
   48MOL0     C 6399   5.957   1.368   8.259  0.0444 -0.5317  0.8086
   48MOL0     C 6400   5.895   1.330   8.135 -0.7318  0.0332  0.1278
   48MOL0     C 6401   5.883   1.196   8.117 -0.0258  0.3923  0.1054
   48MOL0     C 6402   5.909   1.104   8.217 -0.2531 -1.1645 -0.3337
   48MOL0     O 6403   5.875   0.977   8.189 -0.0399  0.6403  0.4465
   48MOL0     C 6404   5.883   0.878   8.296  0.0040 -0.1114 -0.0751
   48MOL0     C 6405   5.826   0.747   8.250 -0.8289 -0.3502 -0.4707
   48MOL0     C 6406   5.799   0.650   8.358 -0.3352  0.3769  0.3605
   48MOL0     C 6407   5.723   0.527   8.307  0.7831  0.3599 -0.2712
   48MOL0     C 6408   5.808   0.436   8.232  0.0196  0.4014  0.9088
   48MOL0     C 6409   5.871   0.359   8.156  0.6687  0.0786 -0.6249
   48MOL0     C 6410   5.970   1.141   8.329  0.2324  0.0686 -0.8138
   48MOL0     C 6411   5.991   1.277   8.363  0.0829 -0.0364 -1.2359
   48MOL0     C 6412   6.061   1.300   8.496 -0.3202  0.2442  0.6589
   48MOL0     H 6413   6.182   1.705   8.170  2.8573  0.2479  0.4378
   48MOL0     H 6414   6.251   1.945   8.204  0.8983  4.5577  2.0786
   48MOL0     H 6415   6.384   2.077   8.363 -1.5976 -3.4334 -0.2172
   48MOL0     H 6416   6.290   2.163   8.233  1.0856  1.4789 -0.6359
   48MOL0     H 6417   6.449   2.298   8.341  0.4688 -3.3642  0.5641
   48MOL0     H 6418   6.369   2.281   8.504  2.6827 -1.0285 -0.7546
   48MOL0     H 6419   6.148   2.373   8.400  0.6351  1.3596  3.3717
   48MOL0     H 6420   6.250   2.394   8.255 -0.7811 -3.2006 -0.0430
   48MOL0     H 6421   6.290   2.528   8.520  0.7805  1.5469 -0.2262
   48MOL0     H 6422   6.398   2.566   8.387 -1.1490  1.1303  0.6727
   48MOL0     H 6423   6.241   2.652   8.240 -0.1828  2.8999 -0.5612
   48MOL0     H 6424   6.096   2.597   8.339 -0.5809 -0.6279 -0.8506
   48MOL0     H 6425   6.177   2.750   8.525 -3.2809 -0.2989 -0.5439
   48MOL0     H 6426   6.292   2.816   8.397 -1.0784  0.6665 -3.7497
   48MOL0     H 6427   6.081   2.945   8.464  1.5416 -0.2957  1.1844
   48MOL0     H 6428   5.991   2.807   8.393  0.3835  0.2887  0.5526
   48MOL0     H 6429   6.126   2.872   8.170 -0.3314  0.2049 -1.3445
   48MOL0     H 6430   6.008   2.991   8.236  1.8508  1.0339  0.2323
   48MOL0     H 6431   6.121   3.187   8.397  0.0703 -0.6756  0.4049
   48MOL0     H 6432   6.274   3.426   8.354 -1.1761 -1.0967 -0.9107
   48MOL0     H 6433   6.425   3.355   8.410  1.3996  2.9555 -1.3467
   48MOL0     H 6434   6.512   3.339   8.182  1.6721  0.3278  1.2329
   48MOL0     H 6435   6.366   3.432   8.124 -0.3974 -0.2419 -0.6214
   48MOL0     H 6436   6.454   3.613   8.282 -0.6411 -0.5436 -0.2406
   48MOL0     H 6437   6.535   3.589   8.129  1.3598 -0.0656  0.2241
   48MOL0     H 6438   6.701   3.458   8.214 -0.4385  2.9308 -1.6949
   48MOL0     H 6439   6.639   3.458   8.386 -2.9277  0.3395 -0.6472
   48MOL0     H 6440   6.863   3.560   8.090 -0.0833  4.2324 -4.5023
   48MOL0     H 6441   7.082   3.650   8.035  1.1780  0.3353  2.3444
   48MOL0     H 6442   7.471   3.928   8.050 -1.3574 -0.0204  0.5441
   48MOL0     H 6443   7.635   3.998   7.871 -1.1827  0.8475  1.9272
   48MOL0     H 6444   7.556   4.236   7.707 -1.2228  1.9030 -1.7040
   48MOL0     H 6445   7.716   4.167   7.658  0.4755 -0.2044 -1.4477
   48MOL0     H 6446   7.484   4.246   7.483 -1.2608  2.2200  2.3636
   48MOL0     H 6447   7.607   4.354   7.525 -1.9560 -0.3522  2.0774
   48MOL0     H 6448   7.778   4.194   7.412  0.3693 -1.0118 -0.7025
   48MOL0     H 6449   7.639   4.085   7.376 -1.8876  0.7072  0.0180
   48MOL0     H 6450   7.666   4.368   7.278 -0.5761  0.1202  2.8585
   48MOL0     H 6451   7.531   4.258   7.243 -0.9558 -0.3489  4.2271
   48MOL0     H 6452   7.696   4.254   7.045  1.6406 -3.0779 -1.7947
   48MOL0     H 6453   7.674   4.098   7.131 -0.7233 -0.1788  0.3627
   48MOL0     H 6454   7.892   4.292   7.207 -0.6010 -0.1962 -0.5847
   48MOL0     H 6455   7.884   4.118   7.228 -1.3857  0.5245  0.1054
   48MOL0     H 6456   8.039   4.231   7.065 -0.5285 -1.9228  3.3421
   48MOL0     H 6457   7.901   4.272   6.966  3.7254  1.4274 -0.3913
   48MOL0     H 6458   7.849   4.031   6.918 -0.9647  0.9251  0.7389
   48MOL0     H 6459   8.012   4.056   6.863 -0.6964 -2.7738 -1.3800
   48MOL0     H 6460   7.317   3.996   7.583  0.3847  2.2173  0.1224
   48MOL0     H 6461   7.168   3.911   7.746  0.9892  0.3984 -1.8504
   48MOL0     H 6462   7.071   3.926   8.342  0.1256  0.1683 -0.4679
   48MOL0     H 6463   6.845   3.815   8.434 -3.8639 -2.6458 -1.4080
   48MOL0     H 6464   6.069   1.959   8.581 -1.1737  0.6597 -1.5940
   48MOL0     H 6465   6.039   1.698   8.578  1.4191 -1.6311 -0.6565
   48MOL0     H 6466   5.870   1.398   8.054 -2.1998 -1.0689 -0.3839
   48MOL0     H 6467   5.849   1.167   8.018  6.4303  0.9930 -2.8502
   48MOL0     H 6468   5.826   0.909   8.384 -0.9008  1.4565 -1.1395
   48MOL0     H 6469   5.989   0.868   8.320 -0.0537 -2.5241 -0.5477
   48MOL0     H 6470   5.903   0.709   8.182  0.9122  2.7590 -0.4195
   48MOL0     H 6471   5.733   0.763   8.196 -1.2645 -1.7983 -0.1979
   48MOL0     H 6472   5.729   0.692   8.431  0.5999 -0.9300  2.0718
   48MOL0     H 6473   5.888   0.614   8.410  1.1958 -1.1646 -2.9925
   48MOL0     H 6474   5.685   0.473   8.395 -1.1679  0.4229 -1.0186
   48MOL0     H 6475   5.642   0.546   8.236  0.7838  1.6389  0.0337
   48MOL0     H 6476   5.912   0.301   8.076  0.6559 -3.3940  1.6464
   48MOL0     H 6477   6.008   1.075   8.406  0.2185 -0.3454 -1.1547
   48MOL0     H 6478   6.061   1.214   8.563  0.1408 -0.0950  0.2310
   48MOL0     H 6479   6.166   1.305   8.466 -0.7202 -1.9672 -1.3897
   48MOL0     H 6480   6.013   1.381   8.554  3.3582  1.4104  2.4098
   49MOL0     O 6481   9.923   1.793   9.998  0.5283 -0.0783  0.0245
   49MOL0     C 6482   9.941   1.787   9.875  0.8083  0.6012  0.9114
   49MOL0     O 6483  10.040   1.720   9.806  0.7333 -0.9066 -0.5910
   49MOL0     C 6484  10.142   1.658   9.876  0.1924  0.8087 -0.2358
   49MOL0     C 6485  10.251   1.725   9.927 -0.4070 -0.4298  0.8548
   49MOL0     C 6486  10.356   1.653   9.980 -0.2485  0.2378  0.3749
   49MOL0     C 6487  10.357   1.521  10.000 -0.6042 -0.2120  0.6354
   49MOL0     O 6488  10.478   1.456  10.038  0.3916 -0.2969  0.3142
   49MOL0     C 6489  10.555   1.516  10.141  0.2622  0.4715 -0.2505
   49MOL0     C 6490  10.662   1.431  10.201 -0.3499 -0.5872 -0.4351
   49MOL0     C 6491  10.742   1.368  10.087 -0.7869  0.5769 -0.2520
   49MOL0     C 6492  10.899   1.388  10.093 -0.2112  0.1191 -0.1152
   49MOL0     C 6493  10.944   1.329  10.234 -0.0544 -0.1506 -0.0588
   49MOL0     C 6494  11.098   1.342  10.250  0.4563 -0.2956  0.1891
   49MOL0     C 6495  11.125   1.314  10.401  0.0991  0.1463  0.8350
   49MOL0     C 6496  11.236   1.213  10.410  0.3702 -0.1696  0.6672
   49MOL0     N 6497  11.310   1.231  10.535 -0.8707  0.0478 -0.2445
   49MOL0     C 6498  11.280   1.151  10.647  0.0986  0.0023 -0.2050
   49MOL0     C 6499  11.398   1.167  10.719  0.3290  0.6553 -0.4311
   49MOL0     C 6500  11.423   1.095  10.851 -0.7363 -0.3286  0.4796
   49MOL0     C 6501  11.531   0.986  10.840 -0.9184  1.1661 -0.1177
   49MOL0     C 6502  11.551   0.917  10.987  0.1452 -0.6990 -0.5679
   49MOL0     C 6503  11.689   0.836  10.988 -0.0617  0.2529  0.1444
   49MOL0     O 6504  11.693   0.777  11.116  0.3181 -0.3965  0.3692
   49MOL0     C 6505  11.819   0.723  11.145  0.0204  0.4393  0.0640
   49MOL0     C 6506  11.909   0.676  11.047 -0.4613  0.0120 -0.4648
   49MOL0     C 6507  12.028   0.622  11.079  0.4427  0.8809  0.7866
   49MOL0     C 6508  12.067   0.602  11.212 -0.4047 -0.0996 -0.7680
   49MOL0     C 6509  12.196   0.544  11.249 -0.0620  0.1266  0.2603
   49MOL0     O 6510  12.220   0.489  11.370 -1.0372  0.2399  0.2414
   49MOL0     C 6511  12.347   0.445  11.401  0.3263 -0.3969  0.1736
   49MOL0     C 6512  12.458   0.530  11.404 -0.2801  0.6735  0.6975
   49MOL0     C 6513  12.578   0.472  11.440  0.0264 -0.0976  0.0495
   49MOL0     C 6514  12.584   0.332  11.470  0.1277 -0.6174 -0.3799
   49MOL0     O 6515  12.709   0.278  11.499 -0.8290 -0.2051  0.3489
   49MOL0     C 6516  12.728   0.135  11.543 -0.0676  0.1379  0.6889
   49MOL0     C 6517  12.719   0.049  11.417 -0.3466  0.3595 -0.7260
   49MOL0     C 6518  12.721  -0.098  11.455  0.7164 -0.0621 -0.0709
   49MOL0     C 6519  12.826  -0.178  11.375 -0.7422 -0.2819 -0.1714
   49MOL0     C 6520  12.862  -0.323  11.449 -0.2112  0.9428 -0.0552
   49MOL0     C 6521  12.912  -0.425  11.353  0.5247 -0.7520 -0.3032
   49MOL0     C 6522  13.041  -0.393  11.280  0.2579 -0.8637  0.4925
   49MOL0     C 6523  13.157  -0.365  11.364 -0.1303 -0.0925  0.0714
   49MOL0    Cl 6524  13.294  -0.314  11.248 -0.0035  0.3309 -0.4604
   49MOL0     C 6525  12.466   0.263  11.503  0.5936  0.1724 -0.7592
   49MOL0     C 6526  12.346   0.322  11.466  0.7143  0.1802  1.0878
   49MOL0     O 6527  12.274   0.541  11.150 -0.0161  0.7465  0.1488
   49MOL0     C 6528  11.982   0.659  11.310 -0.5312  0.5866 -0.3807
   49MOL0     C 6529  11.862   0.717  11.275 -0.1123  0.2430  0.6157
   49MOL0     N 6530  11.480   1.259  10.657 -0.4102 -0.3273  0.4255
   49MOL0     N 6531  11.419   1.308  10.558 -0.3334  0.5441  0.3027
   49MOL0     C 6532  10.250   1.450   9.964  0.7909  0.0105 -0.9343
   49MOL0     C 6533  10.144   1.513   9.899  1.0859 -0.3047 -0.5138
   49MOL0     C 6534   9.845   1.865   9.786 -0.5740  0.0376 -0.3600
   49MOL0     C 6535   9.843   1.832   9.657 -0.1289  0.8716 -0.4833
   49MOL0     C 6536   9.754   1.882   9.556 -0.2958 -0.1184  0.3690
   49MOL0     C 6537   9.666   1.981   9.588  0.6811 -0.3466  0.2757
   49MOL0     O 6538   9.595   2.038   9.480 -0.5180 -0.5640 -0.9373
   49MOL0     C 6539   9.518   2.152   9.492  0.9402 -0.0859  0.9466
   49MOL0     C 6540   9.463   2.192   9.353  0.1583  0.8170  0.1740
   49MOL0     C 6541   9.415   2.334   9.357 -0.0978 -0.0016 -0.7158
   49MOL0     C 6542   9.360   2.382   9.227  0.1225  0.9126  0.1565
   49MOL0     C 6543   9.256   2.288   9.181  0.1845  0.7601 -0.3428
   49MOL0     C 6544   9.169   2.204   9.147 -1.0104 -0.6722  0.6295
   49MOL0     C 6545   9.659   2.024   9.720  0.6895  0.4775 -0.4721
   49MOL0     C 6546   9.755   1.970   9.820  0.1135 -0.5732  0.9353
   49MOL0     C 6547   9.726   2.007   9.963  0.3096  0.2646  0.0609
   49MOL0     H 6548  10.281   1.829   9.918 -0.1069 -0.6201 -0.4974
   49MOL0     H 6549  10.442   1.711  10.011 -2.4381  2.7456  2.1789
   49MOL0     H 6550  10.613   1.594  10.091  1.7551 -0.5108 -0.1273
   49MOL0     H 6551  10.496   1.546  10.228  0.2380 -0.1141 -0.0587
   49MOL0     H 6552  10.624   1.351  10.265 -2.0293  1.3764  1.1389
   49MOL0     H 6553  10.726   1.501  10.255 -1.2656 -0.8084  0.9751
   49MOL0     H 6554  10.705   1.397   9.989 -1.8937  0.4991  0.1241
   49MOL0     H 6555  10.723   1.260  10.093  1.9795 -0.0941 -1.8092
   49MOL0     H 6556  10.957   1.334  10.019  0.9564  2.8296 -1.3132
   49MOL0     H 6557  10.932   1.493  10.094 -1.3943  0.7345  5.1650
   49MOL0     H 6558  10.880   1.386  10.302 -1.1467  0.7218 -1.7200
   49MOL0     H 6559  10.920   1.223  10.242  0.6850 -0.4347 -1.3549
   49MOL0     H 6560  11.150   1.271  10.185 -0.6445 -0.0463 -1.0079
   49MOL0     H 6561  11.130   1.442  10.221 -0.3213  0.2562  1.1630
   49MOL0     H 6562  11.033   1.283  10.450 -0.3788  1.7739  0.9980
   49MOL0     H 6563  11.161   1.410  10.440  0.1159  1.2590 -1.7004
   49MOL0     H 6564  11.210   1.108  10.395  2.2975 -0.4454 -1.2616
   49MOL0     H 6565  11.307   1.236  10.329  0.8940  1.9822  1.6526
   49MOL0     H 6566  11.208   1.072  10.665 -0.8963  1.0879  0.6903
   49MOL0     H 6567  11.457   1.168  10.925  2.5940 -1.4112  0.1524
   49MOL0     H 6568  11.325   1.050  10.870 -0.5809 -1.2990 -0.8981
   49MOL0     H 6569  11.503   0.909  10.768 -1.2671 -0.6207  1.8185
   49MOL0     H 6570  11.620   1.037  10.805 -0.5720  0.5178 -0.2038
   49MOL0     H 6571  11.465   0.852  11.005 -2.2941  2.3111 -0.4332
   49MOL0     H 6572  11.553   0.997  11.061  1.4864 -1.8755  0.7161
   49MOL0     H 6573  11.777   0.896  10.963  0.6623 -1.8764 -3.0754
   49MOL0     H 6574  11.696   0.761  10.909  3.1135  1.6978 -1.1240
   49MOL0     H 6575  11.894   0.686  10.940  0.6562 -0.1259 -0.6382
   49MOL0     H 6576  12.094   0.590  10.999  0.4091  0.6918  0.8338
   49MOL0     H 6577  12.450   0.633  11.371  0.1605  0.0630 -1.5152
   49MOL0     H 6578  12.675   0.522  11.444 -0.3668  0.8727 -1.4959
   49MOL0     H 6579  12.826   0.106  11.581 -0.5165 -1.2294  0.8318
   49MOL0     H 6580  12.650   0.107  11.614 -0.3394  1.2988  0.8735
   49MOL0     H 6581  12.633   0.063  11.350 -0.3637 -2.3586 -1.4121
   49MOL0     H 6582  12.798   0.068  11.343 -0.8346 -2.1445 -2.0180
   49MOL0     H 6583  12.742  -0.104  11.562 -2.3035  0.7253  0.6757
   49MOL0     H 6584  12.624  -0.141  11.428  0.7938 -0.7856  0.7666
   49MOL0     H 6585  12.918  -0.120  11.371 -1.9190  1.6494 -0.4419
   49MOL0     H 6586  12.800  -0.191  11.270  0.3449 -0.7731 -0.3877
   49MOL0     H 6587  12.769  -0.361  11.492  0.1363 -0.2800 -0.3518
   49MOL0     H 6588  12.933  -0.305  11.530 -0.3369  1.6323 -0.0934
   49MOL0     H 6589  12.938  -0.516  11.408 -0.6449 -0.3196  1.0305
   49MOL0     H 6590  12.833  -0.437  11.278  2.9805  0.8144 -3.4013
   49MOL0     H 6591  13.012  -0.307  11.220  1.3677 -1.9576 -1.7500
   49MOL0     H 6592  13.056  -0.478  11.212 -0.7845 -0.6874  0.0267
   49MOL0     H 6593  13.134  -0.277  11.425  4.0648  2.9582 -2.2191
   49MOL0     H 6594  13.188  -0.449  11.426  1.9863  0.5050 -0.1305
   49MOL0     H 6595  12.469   0.162  11.540  1.9960  0.4079 -0.1797
   49MOL0     H 6596  12.252   0.271  11.482 -0.7545  3.0206  1.9831
   49MOL0     H 6597  11.999   0.646  11.416 -0.9542  2.0380 -0.1111
   49MOL0     H 6598  11.803   0.764  11.353 -0.3794  0.3274  0.3652
   49MOL0     H 6599  10.255   1.342   9.975 -1.9538  0.0234  2.2228
   49MOL0     H 6600  10.073   1.453   9.843 -0.1636  1.3584 -0.7875
   49MOL0     H 6601   9.890   1.744   9.616  2.0444  0.9884  1.5787
   49MOL0     H 6602   9.752   1.842   9.455 -1.7267 -1.3969  0.8610
   49MOL0     H 6603   9.579   2.238   9.522 -1.3149  1.8614  0.3218
   49MOL0     H 6604   9.431   2.135   9.556  0.6796  2.0477  1.2470
   49MOL0     H 6605   9.384   2.122   9.327  1.7913 -0.7993 -0.7171
   49MOL0     H 6606   9.549   2.200   9.284  0.4558  1.8782  0.6493
   49MOL0     H 6607   9.496   2.400   9.388 -1.5548  1.3074  0.4669
   49MOL0     H 6608   9.328   2.332   9.424 -3.4464  1.8042 -4.5792
   49MOL0     H 6609   9.327   2.486   9.238 -0.4960  1.1474 -2.9046
   49MOL0     H 6610   9.439   2.385   9.151 -0.9790  0.4594 -1.0546
   49MOL0     H 6611   9.090   2.134   9.129 -1.2886 -0.6213  1.6187
   49MOL0     H 6612   9.594   2.108   9.744 -0.4170  0.5659 -3.3558
   49MOL0     H 6613   9.639   2.075   9.962  1.2462  1.6205  2.3690
   49MOL0     H 6614   9.701   1.921  10.026  0.8941 -0.4052 -0.6235
   49MOL0     H 6615   9.803   2.068  10.012  0.4630 -1.0860  1.5766
   50MOL0     O 6616  10.777   4.606   0.542  0.0961 -1.1571  0.3448
   50MOL0     C 6617  10.855   4.572   0.448  0.5530  0.0346  0.2906
   50MOL0     O 6618  10.997   4.587   0.449  0.8942  0.5792  0.3208
   50MOL0     C 6619  11.046   4.650   0.558 -0.1702  0.4341 -0.6790
   50MOL0     C 6620  11.035   4.586   0.685 -0.0593  0.1948  0.1969
   50MOL0     C 6621  11.082   4.654   0.802 -0.7978  0.7200  1.2899
   50MOL0     C 6622  11.138   4.783   0.789 -0.2076  0.1104 -0.3668
   50MOL0     O 6623  11.150   4.859   0.912  0.3624 -0.8174  0.5104
   50MOL0     C 6624  11.181   5.004   0.916 -0.2803  0.8486  0.6377
   50MOL0     C 6625  11.138   5.065   1.057  0.7776  1.0407  0.2988
   50MOL0     C 6626  11.216   4.990   1.168 -0.5446  0.3659 -0.1950
   50MOL0     C 6627  11.195   5.069   1.299  0.4405 -0.0949 -0.7763
   50MOL0     C 6628  11.260   5.012   1.431 -0.3012 -0.0046  0.1109
   50MOL0     C 6629  11.303   5.119   1.528 -0.0617 -0.0577  0.5081
   50MOL0     C 6630  11.388   5.079   1.640 -0.6996 -0.1903 -0.5374
   50MOL0     C 6631  11.407   5.198   1.749  0.3058 -0.5520 -0.6359
   50MOL0     N 6632  11.343   5.174   1.880  0.7774  0.1225  0.2778
   50MOL0     C 6633  11.214   5.202   1.918 -0.8615 -0.1602 -0.1336
   50MOL0     C 6634  11.191   5.153   2.043 -0.8687 -0.6604  0.3506
   50MOL0     C 6635  11.073   5.164   2.137 -0.7221  0.8662  0.2818
   50MOL0     C 6636  11.060   5.307   2.198  0.5513 -0.3353 -0.1179
   50MOL0     C 6637  10.968   5.325   2.320 -0.4836 -0.2964  0.3403
   50MOL0     C 6638  10.975   5.467   2.381  0.8082  0.5145 -0.2227
   50MOL0     O 6639  10.851   5.533   2.399  0.5284  0.3507 -0.2507
   50MOL0     C 6640  10.800   5.595   2.282 -0.6816  1.0164 -0.5494
   50MOL0     C 6641  10.673   5.570   2.244 -0.3949  0.5704 -0.5927
   50MOL0     C 6642  10.613   5.628   2.135  0.2324  0.7976 -0.5683
   50MOL0     C 6643  10.683   5.712   2.045  0.6960 -0.0371  0.4015
   50MOL0     C 6644  10.609   5.764   1.928  0.9626  0.5168  0.1110
   50MOL0     O 6645  10.673   5.856   1.854  0.2669  0.7341  0.6374
   50MOL0     C 6646  10.595   5.956   1.800 -0.0295  0.3676 -0.6509
   50MOL0     C 6647  10.474   5.994   1.848  0.9851 -0.3075 -0.0361
   50MOL0     C 6648  10.408   6.108   1.789 -0.8386 -0.2972  1.3225
   50MOL0     C 6649  10.467   6.179   1.682  1.4730  0.4699 -0.4965
   50MOL0     O 6650  10.397   6.293   1.638 -0.5069 -0.3261  0.0122
   50MOL0     C 6651  10.393   6.292   1.491  0.1183 -0.3176 -0.3044
   50MOL0     C 6652  10.327   6.419   1.448 -0.4554  0.3848  0.9394
   50MOL0     C 6653  10.343   6.422   1.297  0.5024  0.2338  0.0802
   50MOL0     C 6654  10.425   6.536   1.238  0.3586  0.0594  0.6898
   50MOL0     C 6655  10.577   6.521   1.230  0.1427 -1.0439 -0.8122
   50MOL0     C 6656  10.601   6.409   1.125  0.8830  0.5626 -0.4476
   50MOL0     C 6657  10.747   6.360   1.125  0.6651  0.4133  0.7323
   50MOL0     C 6658  10.840   6.449   1.048 -0.5276  0.3365 -0.1766
   50MOL0    Cl 6659  10.826   6.401   0.872 -0.3400  0.2369 -0.0124
   50MOL0     C 6660  10.592   6.132   1.633 -0.2315 -0.4964 -0.5298
   50MOL0     C 6661  10.666   6.025   1.694  0.6159 -0.5811  0.4473
   50MOL0     O 6662  10.499   5.704   1.904 -0.2229  0.1162 -0.0015
   50MOL0     C 6663  10.818   5.746   2.078 -0.7492  0.7593 -0.6438
   50MOL0     C 6664  10.879   5.675   2.191 -0.0346 -0.1984  0.0046
   50MOL0     N 6665  11.320   5.103   2.082  0.5078 -0.0496  0.5977
   50MOL0     N 6666  11.405   5.124   1.993 -0.5228  0.4340 -0.0444
   50MOL0     C 6667  11.167   4.832   0.663 -0.2721  0.0923 -0.1032
   50MOL0     C 6668  11.108   4.774   0.550  0.5393  0.7134  0.2022
   50MOL0     C 6669  10.796   4.516   0.320 -0.7150  0.4748  0.3094
   50MOL0     C 6670  10.710   4.412   0.342  0.7048  0.4977 -0.1522
   50MOL0     C 6671  10.634   4.357   0.233 -0.5683  0.2716 -0.4063
   50MOL0     C 6672  10.652   4.391   0.101 -0.4154  0.0784 -0.2350
   50MOL0     O 6673  10.582   4.357  -0.013  0.3863  0.0573  0.3753
   50MOL0     C 6674  10.450   4.299   0.006  0.0810 -0.4655  0.6321
   50MOL0     C 6675  10.370   4.275  -0.123 -0.5328 -0.4937  0.6407
   50MOL0     C 6676  10.239   4.206  -0.119  0.2540 -0.5563 -0.0004
   50MOL0     C 6677  10.180   4.199  -0.264  0.5673  0.3298  0.4368
   50MOL0     C 6678  10.105   4.320  -0.296 -0.5812 -0.1550  0.0649
   50MOL0     C 6679  10.040   4.415  -0.331  0.0641  0.2226  0.5108
   50MOL0     C 6680  10.751   4.491   0.084 -0.4596 -0.5847  0.0607
   50MOL0     C 6681  10.830   4.552   0.185 -0.6829  0.8678  0.0953
   50MOL0     C 6682  10.927   4.652   0.139  0.0869 -0.2273 -0.4721
   50MOL0     H 6683  10.983   4.491   0.691 -2.2330  1.0886 -2.4207
   50MOL0     H 6684  11.062   4.613   0.901  0.2446  3.3760  2.7265
   50MOL0     H 6685  11.287   5.011   0.891 -0.2866 -0.3408  0.2111
   50MOL0     H 6686  11.128   5.054   0.835 -0.1036 -1.9652 -1.3908
   50MOL0     H 6687  11.028   5.064   1.063  0.8170 -0.5137  1.2667
   50MOL0     H 6688  11.176   5.168   1.057  0.8198  1.0240 -0.1015
   50MOL0     H 6689  11.323   4.976   1.155 -0.1171  2.3797  0.7743
   50MOL0     H 6690  11.175   4.890   1.187  4.4809 -1.6982  1.3906
   50MOL0     H 6691  11.235   5.171   1.292  3.6391 -0.8846  2.7532
   50MOL0     H 6692  11.091   5.084   1.329  0.5889 -2.1182  0.9837
   50MOL0     H 6693  11.185   4.945   1.474 -3.9062  2.5690 -1.5915
   50MOL0     H 6694  11.356   4.960   1.427 -2.4659 -5.2131  4.2744
   50MOL0     H 6695  11.354   5.201   1.477 -0.1920  1.2877  2.4344
   50MOL0     H 6696  11.210   5.170   1.558  0.8260  2.4114 -0.6549
   50MOL0     H 6697  11.490   5.043   1.621  0.0261  1.0014  0.8454
   50MOL0     H 6698  11.335   5.007   1.703 -1.0323  1.2165  0.8416
   50MOL0     H 6699  11.515   5.208   1.765  0.4071 -1.1809 -0.9082
   50MOL0     H 6700  11.353   5.290   1.723 -1.0321 -0.7696  1.1884
   50MOL0     H 6701  11.141   5.258   1.861 -0.4388 -0.8937 -1.4279
   50MOL0     H 6702  10.982   5.128   2.088  2.6363 -3.6948 -3.5685
   50MOL0     H 6703  11.093   5.097   2.221  0.6601 -0.3235 -0.9279
   50MOL0     H 6704  11.165   5.336   2.211  0.7692  0.0421 -2.4043
   50MOL0     H 6705  11.021   5.371   2.119 -2.9448  0.8969  2.3362
   50MOL0     H 6706  10.993   5.254   2.399 -1.2660  2.6056  3.4349
   50MOL0     H 6707  10.865   5.297   2.297 -0.0519  1.0068 -4.1734
   50MOL0     H 6708  11.050   5.539   2.349  0.8360  1.4673  1.8063
   50MOL0     H 6709  10.994   5.446   2.487  1.8099 -0.5702 -0.6002
   50MOL0     H 6710  10.616   5.506   2.310 -2.8409  1.1400 -2.0111
   50MOL0     H 6711  10.507   5.607   2.132  0.3942 -0.0054 -1.1845
   50MOL0     H 6712  10.413   5.940   1.919 -0.3970  0.6559 -0.4662
   50MOL0     H 6713  10.310   6.140   1.824 -0.0471  2.9374  0.8174
   50MOL0     H 6714  10.495   6.288   1.450  0.7447  1.6232  0.9176
   50MOL0     H 6715  10.348   6.197   1.461  0.1693 -1.4601  2.8737
   50MOL0     H 6716  10.220   6.424   1.469 -0.3470 -0.0439  1.6080
   50MOL0     H 6717  10.371   6.513   1.485 -0.7743 -0.2514  3.0861
   50MOL0     H 6718  10.380   6.326   1.260  1.0089  1.0448 -1.6205
   50MOL0     H 6719  10.244   6.446   1.257  0.2258  2.0668  1.6560
   50MOL0     H 6720  10.401   6.627   1.293 -3.1280 -0.6375  0.5430
   50MOL0     H 6721  10.391   6.556   1.136  0.5572 -0.3091  0.5499
   50MOL0     H 6722  10.619   6.503   1.329 -1.0741  0.2330 -0.0397
   50MOL0     H 6723  10.635   6.606   1.193 -0.4011 -0.4628 -0.3367
   50MOL0     H 6724  10.538   6.322   1.147  1.2352  1.0840  3.1268
   50MOL0     H 6725  10.572   6.448   1.026  1.8100 -0.2331 -1.0538
   50MOL0     H 6726  10.763   6.260   1.084 -2.0290 -0.0688  0.7081
   50MOL0     H 6727  10.783   6.348   1.228 -1.7494  0.1660  1.6022
   50MOL0     H 6728  10.822   6.556   1.063 -0.8102  0.3134 -0.3493
   50MOL0     H 6729  10.942   6.428   1.083 -0.2799 -1.3582 -1.7615
   50MOL0     H 6730  10.640   6.195   1.559 -0.5679  1.3513  0.7416
   50MOL0     H 6731  10.769   6.005   1.668  0.6331  2.2659 -2.2876
   50MOL0     H 6732  10.870   5.828   2.029  0.5028 -0.0151 -0.6547
   50MOL0     H 6733  10.985   5.697   2.202 -0.3930  1.9535 -0.2756
   50MOL0     H 6734  11.217   4.929   0.668  2.5255 -1.2709  0.3598
   50MOL0     H 6735  11.105   4.821   0.452  1.8409 -0.6455 -0.5454
   50MOL0     H 6736  10.680   4.399   0.446 -0.5457  0.9033 -0.4393
   50MOL0     H 6737  10.550   4.292   0.258  2.3197 -3.5102  0.3216
   50MOL0     H 6738  10.390   4.367   0.066  0.9435  1.8466 -0.9570
   50MOL0     H 6739  10.451   4.201   0.055 -1.5693 -2.2008 -2.4294
   50MOL0     H 6740  10.431   4.214  -0.191 -2.2955 -0.1739 -1.3253
   50MOL0     H 6741  10.357   4.364  -0.186  3.0699 -1.2236 -1.4116
   50MOL0     H 6742  10.181   4.273  -0.055  3.6772  0.1396  2.6216
   50MOL0     H 6743  10.247   4.102  -0.086  2.4298  0.1837  2.0327
   50MOL0     H 6744  10.271   4.186  -0.323  0.9831  0.9904  0.9236
   50MOL0     H 6745  10.109   4.116  -0.271  1.3578 -0.9199  4.4076
   50MOL0     H 6746   9.987   4.506  -0.347  2.5084  1.7688  0.7351
   50MOL0     H 6747  10.769   4.534  -0.014  5.3525 -3.2520 -0.4175
   50MOL0     H 6748  10.945   4.724   0.219  1.0530  1.2967 -1.9678
   50MOL0     H 6749  11.021   4.607   0.106  1.5349  1.9272  0.5237
   50MOL0     H 6750  10.890   4.712   0.055 -1.7200 -1.5705 -0.6912
   51MOL0     O 6751   2.403   6.316   8.651  0.9958 -0.2253 -0.4078
   51MOL0     C 6752   2.333   6.354   8.559 -0.6424  0.6433 -0.2815
   51MOL0     O 6753   2.213   6.304   8.528 -0.8959  0.1373 -0.2038
   51MOL0     C 6754   2.157   6.204   8.605  0.4937 -0.0146  0.2729
   51MOL0     C 6755   2.189   6.161   8.731 -0.6094 -0.4068 -0.4239
   51MOL0     C 6756   2.133   6.050   8.797  0.2292 -0.3155 -0.1822
   51MOL0     C 6757   2.026   5.987   8.735 -0.6212  0.0225  1.0047
   51MOL0     O 6758   1.984   5.868   8.798 -0.1759 -0.2123 -0.2246
   51MOL0     C 6759   1.863   5.806   8.752 -0.9124  0.3030  0.3841
   51MOL0     C 6760   1.742   5.872   8.828  0.4631  0.4126 -0.0392
   51MOL0     C 6761   1.743   5.849   8.974 -0.6222 -0.6994  1.0110
   51MOL0     C 6762   1.624   5.933   9.043 -0.5024  0.2618  0.9483
   51MOL0     C 6763   1.618   5.913   9.191 -0.2538  0.8292  0.1608
   51MOL0     C 6764   1.482   5.958   9.243  0.1947  0.3439 -0.4386
   51MOL0     C 6765   1.360   5.883   9.201 -0.4764 -0.4621  0.0486
   51MOL0     C 6766   1.233   5.964   9.230 -0.0898 -0.3013 -0.0562
   51MOL0     N 6767   1.186   5.939   9.360  0.3643 -0.0971 -0.7060
   51MOL0     C 6768   1.227   6.000   9.481 -0.5924  0.1348  0.7284
   51MOL0     C 6769   1.171   5.921   9.578 -0.3407  0.5449  0.8962
   51MOL0     C 6770   1.181   5.924   9.723  0.1178 -1.1808 -0.7060
   51MOL0     C 6771   1.318   5.861   9.776 -0.1365  0.2407  0.8230
   51MOL0     C 6772   1.350   5.926   9.905  0.5015 -0.0981  1.0397
   51MOL0     C 6773   1.483   5.877   9.971 -1.5122  1.4291 -0.2227
   51MOL0     O 6774   1.600   5.903   9.900  0.7897 -0.6216  0.2179
   51MOL0     C 6775   1.728   5.867   9.941 -0.0799 -0.7300 -0.2009
   51MOL0     C 6776   1.838   5.941   9.896  0.5903 -0.0241  0.6358
   51MOL0     C 6777   1.965   5.928   9.941  0.9290  0.5652 -0.8231
   51MOL0     C 6778   1.994   5.823  10.031 -0.3659  1.2738 -0.4770
   51MOL0     C 6779   2.126   5.807  10.084  0.3375 -0.0385 -0.0618
   51MOL0     O 6780   2.162   5.691  10.141  0.4218 -0.4384  0.9052
   51MOL0     C 6781   2.299   5.677  10.176  0.7241  0.0460 -0.6781
   51MOL0     C 6782   2.384   5.579  10.123 -0.0092 -0.3260 -0.5017
   51MOL0     C 6783   2.517   5.562  10.164 -0.2558 -0.3037 -1.0978
   51MOL0     C 6784   2.567   5.651  10.261  0.5927  0.1058  0.5252
   51MOL0     O 6785   2.691   5.634  10.305 -0.2897  0.0112  1.1200
   51MOL0     C 6786   2.718   5.600  10.444 -0.4059  0.1092 -0.1975
   51MOL0     C 6787   2.622   5.509  10.511 -0.4933  0.5936 -0.0744
   51MOL0     C 6788   2.617   5.377  10.418  0.0461  0.3371 -0.2812
   51MOL0     C 6789   2.480   5.317  10.417 -0.0385  0.2205 -0.0984
   51MOL0     C 6790   2.485   5.159  10.430 -0.2152 -0.2617  0.4566
   51MOL0     C 6791   2.357   5.089  10.481 -0.6130  0.8485  0.2237
   51MOL0     C 6792   2.355   4.936  10.449  0.3577  0.5776 -0.0567
   51MOL0     C 6793   2.250   4.873  10.540 -0.3233 -0.7521 -0.5168
   51MOL0    Cl 6794   2.212   4.717  10.490 -0.0279 -0.4651  0.4770
   51MOL0     C 6795   2.490   5.749  10.316 -0.2426  0.0231  0.3709
   51MOL0     C 6796   2.360   5.766  10.272  0.9071  0.4729  0.0219
   51MOL0     O 6797   2.203   5.904  10.072  0.1222  0.3929 -0.1784
   51MOL0     C 6798   1.895   5.744  10.081  1.1255  0.2477 -0.2473
   51MOL0     C 6799   1.759   5.758  10.026 -0.0463  0.2352 -0.1951
   51MOL0     N 6800   1.089   5.828   9.514 -0.3103 -0.1490 -0.6631
   51MOL0     N 6801   1.099   5.839   9.388  0.1107  0.0847 -0.6558
   51MOL0     C 6802   1.969   6.030   8.610 -0.5002  1.0438 -0.8214
   51MOL0     C 6803   2.039   6.148   8.551 -0.2615  0.7027  0.9047
   51MOL0     C 6804   2.395   6.448   8.467  0.2021  0.0781 -0.0306
   51MOL0     C 6805   2.365   6.438   8.332 -0.0763  0.4581 -0.6184
   51MOL0     C 6806   2.435   6.507   8.235 -0.9637 -0.4077  0.8757
   51MOL0     C 6807   2.521   6.613   8.273 -0.0623  0.9329 -0.0193
   51MOL0     O 6808   2.568   6.704   8.183  0.3123  1.1546 -0.4516
   51MOL0     C 6809   2.543   6.692   8.049  0.1853  0.1922  0.9720
   51MOL0     C 6810   2.619   6.797   7.970 -0.4504  0.1098 -0.1574
   51MOL0     C 6811   2.770   6.812   8.016 -0.1868  0.0923 -0.0296
   51MOL0     C 6812   2.859   6.919   7.944 -0.3837 -0.4035  0.0531
   51MOL0     C 6813   2.845   6.914   7.797 -0.2995 -0.6220 -0.0627
   51MOL0     C 6814   2.833   6.919   7.673  0.0050 -0.2100 -0.3719
   51MOL0     C 6815   2.543   6.631   8.405 -0.0718  0.1559 -0.9072
   51MOL0     C 6816   2.483   6.553   8.512  0.1833  0.5488 -0.6420
   51MOL0     C 6817   2.487   6.599   8.655 -0.7122  0.7251 -0.1706
   51MOL0     H 6818   2.271   6.203   8.789 -0.7529  0.2273 -0.6667
   51MOL0     H 6819   2.169   6.008   8.890  1.1012 -1.0430 -0.8279
   51MOL0     H 6820   1.856   5.815   8.643  0.7543  1.7288  0.3471
   51MOL0     H 6821   1.863   5.697   8.760 -2.9397 -0.2199 -3.8796
   51MOL0     H 6822   1.650   5.825   8.793  1.2472  0.1085 -1.8097
   51MOL0     H 6823   1.740   5.980   8.808 -1.1198  0.6413  1.1680
   51MOL0     H 6824   1.837   5.892   9.011 -0.2967 -2.3510  2.2180
   51MOL0     H 6825   1.729   5.741   8.988 -0.0676 -0.8603  0.4113
   51MOL0     H 6826   1.650   6.036   9.019 -1.7415  0.1812 -0.9162
   51MOL0     H 6827   1.531   5.908   8.992  0.7460  1.2893 -2.0665
   51MOL0     H 6828   1.625   5.805   9.206 -0.0240  0.5402 -1.8024
   51MOL0     H 6829   1.697   5.977   9.233 -1.1656  2.3270 -0.3153
   51MOL0     H 6830   1.487   5.960   9.352  0.4988 -2.6661 -0.3205
   51MOL0     H 6831   1.472   6.063   9.215  3.2769  1.7006  2.7128
   51MOL0     H 6832   1.355   5.792   9.262 -0.3067  2.3116  4.6159
   51MOL0     H 6833   1.364   5.850   9.096  1.6133 -2.6769  0.7180
   51MOL0     H 6834   1.236   6.071   9.205  4.1222 -0.5040 -1.1448
   51MOL0     H 6835   1.157   5.923   9.162  2.6181 -1.1790 -2.7958
   51MOL0     H 6836   1.306   6.074   9.491 -1.5136  1.4771 -1.3152
   51MOL0     H 6837   1.170   6.028   9.756  1.7167 -0.7477 -1.3971
   51MOL0     H 6838   1.096   5.867   9.762  0.5215 -0.3765  1.4377
   51MOL0     H 6839   1.319   5.752   9.782  2.2910 -0.2799 -3.7348
   51MOL0     H 6840   1.399   5.878   9.703  0.3484 -2.6036  0.5748
   51MOL0     H 6841   1.266   5.902   9.972  0.2233  1.1616  1.1607
   51MOL0     H 6842   1.365   6.033   9.890 -1.5919  0.1397  0.2423
   51MOL0     H 6843   1.463   5.770   9.979 -0.5747  1.2719  0.0385
   51MOL0     H 6844   1.481   5.925  10.069 -0.2756  3.2638 -1.0399
   51MOL0     H 6845   1.825   6.028   9.834 -1.4376 -0.7308 -0.0000
   51MOL0     H 6846   2.037   6.005   9.915  0.1511  3.0960  3.4669
   51MOL0     H 6847   2.342   5.510  10.050 -1.8694 -1.6420  1.6988
   51MOL0     H 6848   2.578   5.485  10.118  0.6563  0.5493 -1.3274
   51MOL0     H 6849   2.815   5.551  10.431 -1.1719 -1.0774 -1.6885
   51MOL0     H 6850   2.736   5.690  10.504  0.9041 -0.5363  0.4118
   51MOL0     H 6851   2.653   5.489  10.615  2.6005  0.9111 -0.8302
   51MOL0     H 6852   2.525   5.560  10.509 -0.6460  0.3123  0.0997
   51MOL0     H 6853   2.652   5.383  10.314 -0.8764  0.2111 -0.6044
   51MOL0     H 6854   2.686   5.307  10.467  0.0078  0.0374 -0.6451
   51MOL0     H 6855   2.430   5.350  10.326 -1.4579  3.4009  1.6766
   51MOL0     H 6856   2.415   5.369  10.489  1.6940  3.1395 -0.4943
   51MOL0     H 6857   2.577   5.123  10.478  0.8538  0.8274 -0.6963
   51MOL0     H 6858   2.503   5.119  10.330  3.8579  1.3743  0.3621
   51MOL0     H 6859   2.349   5.099  10.589  3.1671  1.7687  0.5711
   51MOL0     H 6860   2.271   5.137  10.434  1.0945  3.1997 -0.7297
   51MOL0     H 6861   2.455   4.893  10.446 -0.5045 -1.4770 -1.0465
   51MOL0     H 6862   2.317   4.917  10.348 -2.0383  0.1196  0.8481
   51MOL0     H 6863   2.283   4.872  10.645  3.3996 -1.6341 -1.5491
   51MOL0     H 6864   2.155   4.927  10.529  0.9745  1.1643 -3.1253
   51MOL0     H 6865   2.545   5.813  10.384  0.4328 -0.4157  0.2364
   51MOL0     H 6866   2.303   5.847  10.314  0.0377 -0.5989  0.9590
   51MOL0     H 6867   1.918   5.670  10.157  0.1135 -0.6438 -0.7897
   51MOL0     H 6868   1.698   5.676  10.062  0.6197  1.2171  3.5714
   51MOL0     H 6869   1.883   5.983   8.562 -0.2645 -1.3230  0.9488
   51MOL0     H 6870   1.999   6.181   8.455  0.3004  0.4850  0.5896
   51MOL0     H 6871   2.302   6.354   8.304 -0.9239 -0.1526  2.7293
   51MOL0     H 6872   2.406   6.496   8.131  2.7790 -2.2576 -0.1676
   51MOL0     H 6873   2.435   6.691   8.030  0.2592 -0.8506  0.5380
   51MOL0     H 6874   2.574   6.593   8.014 -2.0244 -0.6193  1.1448
   51MOL0     H 6875   2.573   6.896   7.982  1.1866  1.4431 -3.5810
   51MOL0     H 6876   2.613   6.781   7.862 -0.0817  2.0823 -0.5170
   51MOL0     H 6877   2.829   6.721   8.007  1.4033  0.9327  1.2349
   51MOL0     H 6878   2.768   6.836   8.123 -1.4819  0.7666 -0.1834
   51MOL0     H 6879   2.825   7.020   7.968 -0.3207 -0.5906  0.9678
   51MOL0     H 6880   2.964   6.912   7.971  0.8191  2.0731 -3.2735
   51MOL0     H 6881   2.841   6.927   7.567  0.1008 -0.7009 -0.4045
   51MOL0     H 6882   2.600   6.717   8.436 -0.5319 -0.0317  0.5095
   51MOL0     H 6883   2.383   6.614   8.685 -2.2636 -0.6680 -4.2357
   51MOL0     H 6884   2.545   6.535   8.722 -1.5180 -0.2150 -0.3449
   51MOL0     H 6885   2.536   6.696   8.667 -1.0777  0.9199 -0.2553
   52MOL0     O 6886  11.034   9.519   0.995  0.3490 -0.5730 -0.0202
   52MOL0     C 6887  11.104   9.500   0.898 -0.0962  1.4104  0.0865
   52MOL0     O 6888  11.097   9.376   0.824 -0.2808  0.5448 -0.1649
   52MOL0     C 6889  11.022   9.271   0.873 -0.4652 -0.7706 -0.1717
   52MOL0     C 6890  11.073   9.143   0.844 -0.2501  1.0622 -0.6775
   52MOL0     C 6891  10.991   9.034   0.859  0.8491  0.0224  0.3431
   52MOL0     C 6892  10.854   9.045   0.903  0.7579 -0.1685 -0.5556
   52MOL0     O 6893  10.779   8.933   0.921 -0.2568 -0.1704 -0.1165
   52MOL0     C 6894  10.652   8.933   0.865 -0.4579  0.0420  0.2257
   52MOL0     C 6895  10.561   8.907   0.987  0.1632  0.4219  0.5237
   52MOL0     C 6896  10.418   8.842   0.961  0.3002  0.5653 -1.6292
   52MOL0     C 6897  10.324   8.915   0.863  0.1478 -0.0000 -0.2840
   52MOL0     C 6898  10.200   8.833   0.822  0.5338  0.2379  0.6367
   52MOL0     C 6899  10.222   8.736   0.705  1.5282 -0.2961 -0.0685
   52MOL0     C 6900  10.269   8.813   0.581  0.1194 -1.2439  0.1022
   52MOL0     C 6901  10.256   8.720   0.457  0.1521 -0.1183 -0.0141
   52MOL0     N 6902  10.114   8.708   0.424  1.0848  0.5922  0.2104
   52MOL0     C 6903  10.054   8.592   0.424 -0.4857  0.1280  0.0505
   52MOL0     C 6904   9.931   8.626   0.392  0.1596 -0.6232  0.2930
   52MOL0     C 6905   9.807   8.550   0.369  0.1761  0.2179 -0.0857
   52MOL0     C 6906   9.745   8.513   0.511  0.5951  0.7075  0.0930
   52MOL0     C 6907   9.602   8.466   0.499 -0.8733  0.0239  0.1926
   52MOL0     C 6908   9.508   8.502   0.615  0.4577  1.0651 -0.2160
   52MOL0     O 6909   9.374   8.446   0.589 -0.1888 -0.2110 -0.2782
   52MOL0     C 6910   9.268   8.497   0.666 -0.1503  0.2777 -0.0688
   52MOL0     C 6911   9.280   8.618   0.740 -0.4203 -0.6704 -0.2062
   52MOL0     C 6912   9.159   8.668   0.799  0.2211  0.1534  0.3792
   52MOL0     C 6913   9.041   8.590   0.806 -0.8612  0.1132 -0.3431
   52MOL0     C 6914   8.921   8.636   0.880 -0.5641 -0.2147 -0.2282
   52MOL0     O 6915   8.936   8.721   0.986 -0.1569 -0.0117 -0.4224
   52MOL0     C 6916   8.834   8.739   1.075 -0.3866  0.9495 -1.0538
   52MOL0     C 6917   8.816   8.871   1.110 -0.4672 -0.1648  0.4873
   52MOL0     C 6918   8.711   8.911   1.202  0.8022  0.0085 -0.0373
   52MOL0     C 6919   8.625   8.808   1.252  0.5522 -0.6459 -0.4302
   52MOL0     O 6920   8.536   8.828   1.355 -0.5532  0.0107 -0.2559
   52MOL0     C 6921   8.456   8.947   1.346  0.7002 -0.4341 -0.9237
   52MOL0     C 6922   8.358   8.952   1.465 -0.3688  0.5327  0.1161
   52MOL0     C 6923   8.414   8.928   1.604  0.2569 -0.2190 -0.0519
   52MOL0     C 6924   8.289   8.906   1.709  0.1775 -0.4253 -0.2185
   52MOL0     C 6925   8.333   8.891   1.848  0.0345  0.0975 -1.0618
   52MOL0     C 6926   8.224   8.849   1.947  0.2423 -0.2599 -0.5041
   52MOL0     C 6927   8.155   8.708   1.897 -0.5753  0.5324 -0.4981
   52MOL0     C 6928   8.064   8.652   2.006 -0.1268  0.6895 -0.2286
   52MOL0    Cl 6929   7.990   8.500   1.960 -0.5174 -0.5092 -0.0959
   52MOL0     C 6930   8.650   8.672   1.213  0.0088 -0.3914  0.4227
   52MOL0     C 6931   8.749   8.639   1.129 -1.1723 -0.4591  0.4669
   52MOL0     O 6932   8.819   8.579   0.845  0.3668  0.2395 -0.0936
   52MOL0     C 6933   9.039   8.467   0.746 -0.0204 -0.5164 -0.6282
   52MOL0     C 6934   9.148   8.428   0.672  0.2925  0.6590 -0.4761
   52MOL0     N 6935   9.916   8.754   0.362 -0.8636 -0.9708 -0.5405
   52MOL0     N 6936  10.034   8.808   0.377 -0.4710  0.3729 -0.0714
   52MOL0     C 6937  10.807   9.171   0.948 -0.3477 -0.6186 -0.4333
   52MOL0     C 6938  10.890   9.279   0.931  0.7935 -0.5836  0.4088
   52MOL0     C 6939  11.212   9.597   0.856 -0.2425 -0.4285  0.5382
   52MOL0     C 6940  11.326   9.541   0.808 -0.8828 -0.2211 -0.1691
   52MOL0     C 6941  11.438   9.621   0.791 -0.0985  0.7799 -0.0550
   52MOL0     C 6942  11.444   9.754   0.827  1.1100 -0.1158  0.5916
   52MOL0     O 6943  11.559   9.831   0.833 -0.9189 -1.4447  0.2487
   52MOL0     C 6944  11.655   9.816   0.722  0.3683  0.8475 -0.4209
   52MOL0     C 6945  11.700   9.948   0.660 -0.0894  0.1401 -0.4254
   52MOL0     C 6946  11.744  10.052   0.769 -0.4676 -0.0536  0.0478
   52MOL0     C 6947  11.829  10.172   0.726 -0.4780  0.3176  0.5574
   52MOL0     C 6948  11.933  10.123   0.641 -0.8901  0.9551  0.6303
   52MOL0     C 6949  12.023  10.076   0.582 -0.5215  0.8997  1.0983
   52MOL0     C 6950  11.325   9.808   0.882 -0.3647  0.0043  0.9698
   52MOL0     C 6951  11.208   9.740   0.881  0.6298  0.1711  1.1379
   52MOL0     C 6952  11.074   9.805   0.917 -0.1092 -0.2583 -0.0206
   52MOL0     H 6953  11.170   9.124   0.798 -0.6206 -0.6129 -0.8328
   52MOL0     H 6954  11.028   8.939   0.821 -3.7644 -1.5947 -0.7680
   52MOL0     H 6955  10.625   9.026   0.813 -3.5450 -0.9994 -0.2743
   52MOL0     H 6956  10.632   8.845   0.803  0.6379 -1.4061  1.8505
   52MOL0     H 6957  10.545   9.004   1.035  0.1809 -0.3447  2.1542
   52MOL0     H 6958  10.616   8.845   1.058 -0.3756  0.5577  1.0725
   52MOL0     H 6959  10.370   8.837   1.059  0.4018  1.6614 -1.5155
   52MOL0     H 6960  10.436   8.738   0.931  0.9731  0.5418 -1.1773
   52MOL0     H 6961  10.289   9.008   0.907 -4.6070 -1.7394  0.1668
   52MOL0     H 6962  10.386   8.953   0.781  1.1707 -0.8632  0.0692
   52MOL0     H 6963  10.162   8.782   0.911 -0.7660  2.2755  1.3167
   52MOL0     H 6964  10.116   8.894   0.786 -0.8597 -2.8875 -1.9665
   52MOL0     H 6965  10.316   8.681   0.718  0.4424 -2.6568 -1.5055
   52MOL0     H 6966  10.145   8.661   0.688 -0.5406  1.5059  0.8751
   52MOL0     H 6967  10.373   8.846   0.592 -0.1480  0.4785 -1.9222
   52MOL0     H 6968  10.207   8.900   0.563 -0.3921 -1.5626  0.3037
   52MOL0     H 6969  10.308   8.782   0.383 -1.0483  0.6867 -0.2256
   52MOL0     H 6970  10.305   8.624   0.471  1.5585  0.3545 -1.4542
   52MOL0     H 6971  10.094   8.498   0.459 -1.3065  0.1916  1.2230
   52MOL0     H 6972   9.742   8.616   0.310 -1.4763 -2.5727 -1.6148
   52MOL0     H 6973   9.823   8.467   0.299  0.8682  0.7651 -0.5932
   52MOL0     H 6974   9.797   8.430   0.559  0.9085  2.6735  3.3925
   52MOL0     H 6975   9.734   8.600   0.576 -1.9911  1.7246 -1.5418
   52MOL0     H 6976   9.609   8.357   0.491 -0.5633  0.0232  0.4774
   52MOL0     H 6977   9.557   8.500   0.405 -1.1528 -0.0905  0.2833
   52MOL0     H 6978   9.510   8.609   0.634 -2.8493  0.9368  1.6553
   52MOL0     H 6979   9.531   8.442   0.703 -1.7078  0.5259  0.0476
   52MOL0     H 6980   9.368   8.680   0.752 -0.4232 -0.9676  1.4907
   52MOL0     H 6981   9.178   8.750   0.869  2.5413 -1.4867  1.8113
   52MOL0     H 6982   8.890   8.949   1.090  1.5556 -0.8221  4.4895
   52MOL0     H 6983   8.702   9.011   1.244  0.7386  0.1605 -0.4066
   52MOL0     H 6984   8.512   9.040   1.356 -0.3048  0.4763 -3.0433
   52MOL0     H 6985   8.405   8.950   1.250 -0.3709 -1.6571 -0.4110
   52MOL0     H 6986   8.311   9.051   1.470 -0.5147  0.4056  3.2035
   52MOL0     H 6987   8.294   8.864   1.453  0.2676  0.3082 -2.1633
   52MOL0     H 6988   8.476   8.838   1.603  0.3046 -0.1823 -0.4115
   52MOL0     H 6989   8.475   9.013   1.633  2.7439 -1.9339  0.0559
   52MOL0     H 6990   8.237   8.816   1.674 -1.7259  2.0509 -4.7477
   52MOL0     H 6991   8.217   8.988   1.702  2.5333  1.9659  1.7672
   52MOL0     H 6992   8.379   8.982   1.887 -0.1528  0.0615 -0.7631
   52MOL0     H 6993   8.420   8.824   1.844 -0.9291 -1.1260 -2.3980
   52MOL0     H 6994   8.261   8.836   2.049 -2.2340 -1.8515  0.2786
   52MOL0     H 6995   8.151   8.930   1.946  0.1986 -0.1917  1.9320
   52MOL0     H 6996   8.233   8.639   1.862  0.0773  1.7825 -1.6206
   52MOL0     H 6997   8.085   8.726   1.814  0.4186 -2.2342 -2.0670
   52MOL0     H 6998   8.118   8.613   2.093 -2.5660 -0.5686  0.7960
   52MOL0     H 6999   7.987   8.723   2.035 -1.6783 -0.3604 -1.5816
   52MOL0     H 7000   8.586   8.600   1.264  0.1452 -0.9900 -0.2339
   52MOL0     H 7001   8.758   8.535   1.101 -2.9318 -0.1503 -1.5386
   52MOL0     H 7002   8.948   8.409   0.738 -0.8748  0.8399 -1.0454
   52MOL0     H 7003   9.146   8.337   0.613  1.3604 -1.3412  2.3540
   52MOL0     H 7004  10.704   9.196   0.967 -1.1369 -1.1958 -3.3445
   52MOL0     H 7005  10.843   9.374   0.954  2.8964  0.6972 -0.3226
   52MOL0     H 7006  11.319   9.434   0.794 -0.0802 -0.3081  0.0797
   52MOL0     H 7007  11.525   9.571   0.750 -1.3702  0.1227 -2.1056
   52MOL0     H 7008  11.630   9.740   0.647  1.2619  0.4569 -0.3287
   52MOL0     H 7009  11.744   9.782   0.775  0.8699  1.1702 -1.0423
   52MOL0     H 7010  11.619   9.979   0.593  0.6868 -2.8671 -2.9999
   52MOL0     H 7011  11.784   9.920   0.596  2.1649  0.5444  2.1974
   52MOL0     H 7012  11.794   9.998   0.850 -2.4218 -2.1874 -0.0708
   52MOL0     H 7013  11.654  10.087   0.821  0.1669  2.1542 -0.2476
   52MOL0     H 7014  11.764  10.240   0.671  2.1133  2.4463 -0.1101
   52MOL0     H 7015  11.856  10.210   0.825 -2.5529 -1.9350  2.0927
   52MOL0     H 7016  12.104  10.028   0.531 -0.9489  1.3580 -0.0473
   52MOL0     H 7017  11.326   9.910   0.918  0.7783  1.2643 -2.2290
   52MOL0     H 7018  11.073   9.908   0.880  3.2472 -0.3522 -0.6649
   52MOL0     H 7019  10.983   9.755   0.884  0.2457 -0.7508 -0.2662
   52MOL0     H 7020  11.055   9.812   1.025  0.9469  1.2690  0.1105
   53MOL0     O 7021   3.254  11.342   9.446  1.3158  0.0426 -0.5416
   53MOL0     C 7022   3.253  11.391   9.562 -0.6304 -0.0797  0.2305
   53MOL0     O 7023   3.160  11.478   9.604 -0.0590 -0.3462 -0.3634
   53MOL0     C 7024   3.040  11.485   9.533 -0.1799  0.4387  0.2135
   53MOL0     C 7025   3.012  11.571   9.428 -0.3159 -0.7664 -0.6016
   53MOL0     C 7026   2.889  11.574   9.360 -0.7637 -0.2686 -0.5117
   53MOL0     C 7027   2.790  11.482   9.393 -0.3220  0.2390  0.2646
   53MOL0     O 7028   2.676  11.492   9.320  0.7448 -0.1557  0.3232
   53MOL0     C 7029   2.555  11.425   9.349  0.2016  0.9579  0.5965
   53MOL0     C 7030   2.429  11.464   9.270 -0.0410 -0.2173 -0.4985
   53MOL0     C 7031   2.452  11.494   9.122  0.2981 -0.6693 -0.5453
   53MOL0     C 7032   2.312  11.508   9.068  0.2795 -0.5063  0.0571
   53MOL0     C 7033   2.316  11.528   8.915  0.0778  0.2692  0.0647
   53MOL0     C 7034   2.354  11.677   8.885 -0.0679 -1.1014  0.1637
   53MOL0     C 7035   2.341  11.723   8.739  0.7060 -0.6821 -0.0809
   53MOL0     C 7036   2.222  11.674   8.645 -0.3992  0.0930  0.6581
   53MOL0     N 7037   2.090  11.723   8.691 -0.3621 -0.0099  0.5513
   53MOL0     C 7038   2.064  11.855   8.722 -0.2732  0.4759 -0.0085
   53MOL0     C 7039   1.970  11.850   8.813  0.5555  0.8058 -0.2975
   53MOL0     C 7040   1.894  11.973   8.872 -0.7834 -0.1668  0.5421
   53MOL0     C 7041   1.979  12.033   8.987 -0.8294  0.0398 -0.3795
   53MOL0     C 7042   2.056  12.157   8.932 -0.4783 -0.1510 -0.6539
   53MOL0     C 7043   2.087  12.236   9.059 -0.5675 -0.8963  0.8954
   53MOL0     O 7044   1.969  12.294   9.117  0.9691 -0.4488 -0.6450
   53MOL0     C 7045   1.968  12.391   9.219 -0.3796 -0.4450 -0.5646
   53MOL0     C 7046   1.849  12.447   9.240  0.7642  0.0164 -0.4691
   53MOL0     C 7047   1.833  12.555   9.331 -0.2552 -0.2330 -0.4408
   53MOL0     C 7048   1.951  12.611   9.389 -0.0118  0.3410 -0.6687
   53MOL0     C 7049   1.941  12.719   9.489  0.1115 -0.5378  0.0321
   53MOL0     O 7050   2.044  12.738   9.578 -0.0575  0.0261 -0.8507
   53MOL0     C 7051   2.049  12.826   9.687  0.0265 -0.5543 -0.1350
   53MOL0     C 7052   1.964  12.933   9.704  0.4282  0.1302 -0.6673
   53MOL0     C 7053   1.965  13.011   9.825  0.1940  0.2656 -0.5476
   53MOL0     C 7054   2.072  12.991   9.911 -0.7147 -0.7107 -0.2526
   53MOL0     O 7055   2.094  13.075  10.015 -0.2293  0.1394 -0.1020
   53MOL0     C 7056   2.089  13.016  10.143  0.9165  0.2902 -0.5232
   53MOL0     C 7057   2.135  13.121  10.252  1.0462 -0.1489 -0.1478
   53MOL0     C 7058   2.059  13.257  10.217 -0.3155 -0.0857  0.4161
   53MOL0     C 7059   2.089  13.348  10.333  0.6513 -0.6426 -0.0602
   53MOL0     C 7060   2.022  13.476  10.330  0.8932 -0.4361 -0.4668
   53MOL0     C 7061   2.021  13.550  10.459 -0.0774  0.4213 -0.0190
   53MOL0     C 7062   1.915  13.654  10.459  0.1496 -1.2060  0.4724
   53MOL0     C 7063   1.872  13.718  10.327 -0.1886 -0.5609  0.3007
   53MOL0    Cl 7064   1.980  13.856  10.291 -0.3420 -0.3128  0.4573
   53MOL0     C 7065   2.170  12.888   9.882 -0.1683 -0.2099  0.3126
   53MOL0     C 7066   2.152  12.802   9.776 -0.0299 -0.8630  0.4884
   53MOL0     O 7067   1.832  12.767   9.495  0.4359  1.0510  0.0161
   53MOL0     C 7068   2.076  12.550   9.369  0.1022 -0.3723  0.5431
   53MOL0     C 7069   2.080  12.434   9.285 -0.5090 -0.2058 -0.0246
   53MOL0     N 7070   1.931  11.715   8.844  0.4339  0.5982  0.1546
   53MOL0     N 7071   2.010  11.643   8.763  0.3692  0.0318 -0.7477
   53MOL0     C 7072   2.815  11.390   9.494 -0.4195  0.5547  0.2648
   53MOL0     C 7073   2.943  11.394   9.557 -0.9535  0.5515  0.5402
   53MOL0     C 7074   3.372  11.353   9.647  0.6544  0.0898  0.5389
   53MOL0     C 7075   3.433  11.229   9.628 -0.0902  0.2655 -0.1718
   53MOL0     C 7076   3.532  11.189   9.710 -0.2896  0.2307  0.2157
   53MOL0     C 7077   3.571  11.259   9.823 -0.0472  0.2232 -0.7335
   53MOL0     O 7078   3.680  11.210   9.899  0.1143  0.0157 -0.0733
   53MOL0     C 7079   3.691  11.233  10.041  0.2672 -0.1712  0.1215
   53MOL0     C 7080   3.781  11.131  10.115 -0.7451  0.5028  0.7296
   53MOL0     C 7081   3.808  11.173  10.252  0.1234 -0.8774 -0.4767
   53MOL0     C 7082   3.897  11.080  10.333 -0.3319 -0.0019  0.0441
   53MOL0     C 7083   3.811  10.959  10.378 -0.9060 -0.6930 -0.3555
   53MOL0     C 7084   3.756  10.862  10.410  0.1428  0.4479  0.9036
   53MOL0     C 7085   3.511  11.383   9.838 -0.1446 -0.1116  0.2857
   53MOL0     C 7086   3.409  11.438   9.760 -0.1281  0.2584  0.2127
   53MOL0     C 7087   3.360  11.574   9.794 -0.6168 -1.2716  0.7893
   53MOL0     H 7088   3.086  11.640   9.387 -0.5831 -1.5165 -2.4389
   53MOL0     H 7089   2.882  11.652   9.284  3.3923 -1.0449 -1.9360
   53MOL0     H 7090   2.574  11.321   9.321  0.5564  0.8189  1.3179
   53MOL0     H 7091   2.532  11.437   9.456 -0.3719 -0.3916  0.6512
   53MOL0     H 7092   2.384  11.555   9.310  4.3291  3.3205 -2.7515
   53MOL0     H 7093   2.352  11.388   9.281  1.3605 -1.4930  0.9516
   53MOL0     H 7094   2.500  11.413   9.067  0.4813 -0.1584 -1.1517
   53MOL0     H 7095   2.501  11.589   9.099 -3.9475  1.5692 -1.3489
   53MOL0     H 7096   2.251  11.421   9.094 -1.6521  1.5309  2.9148
   53MOL0     H 7097   2.269  11.593   9.121 -0.0432 -1.2527  1.0102
   53MOL0     H 7098   2.377  11.451   8.867  1.8182  0.8234  1.3089
   53MOL0     H 7099   2.212  11.518   8.881 -0.1465  0.7981  0.5874
   53MOL0     H 7100   2.286  11.746   8.936 -2.2211  1.0525 -4.9035
   53MOL0     H 7101   2.457  11.702   8.913  0.1416  1.8491 -2.6337
   53MOL0     H 7102   2.422  11.672   8.687  0.2998 -0.2719 -1.1482
   53MOL0     H 7103   2.355  11.832   8.742 -1.6495 -0.3330  0.3976
   53MOL0     H 7104   2.242  11.702   8.541  0.8912 -5.0390 -0.7730
   53MOL0     H 7105   2.206  11.566   8.653 -1.8785  0.1979 -0.4125
   53MOL0     H 7106   2.115  11.945   8.686  1.5000 -0.4598  0.0487
   53MOL0     H 7107   1.883  12.040   8.786 -0.5511  2.0123  2.1412
   53MOL0     H 7108   1.795  11.936   8.900 -1.4194 -0.1681 -1.5530
   53MOL0     H 7109   1.915  12.060   9.071  1.0865  2.3133  0.4660
   53MOL0     H 7110   2.059  11.961   9.006  1.4352  1.7676 -2.6779
   53MOL0     H 7111   2.000  12.202   8.850  1.4696  0.3315 -1.7796
   53MOL0     H 7112   2.150  12.121   8.891 -1.2891 -0.6161 -2.1622
   53MOL0     H 7113   2.147  12.320   9.024 -2.3717 -0.8511 -2.5376
   53MOL0     H 7114   2.146  12.174   9.126 -0.0963 -1.5563 -0.1029
   53MOL0     H 7115   1.772  12.412   9.171 -0.5944  1.0371  0.4891
   53MOL0     H 7116   1.733  12.596   9.342 -1.3969 -2.7905 -0.5949
   53MOL0     H 7117   1.881  12.947   9.635 -1.7701 -2.7832  1.1513
   53MOL0     H 7118   1.908  13.089   9.873 -1.8911 -3.4871  3.8464
   53MOL0     H 7119   1.989  12.983  10.173  0.7323  0.1538 -1.2629
   53MOL0     H 7120   2.143  12.922  10.139  1.0000  0.3915 -2.7872
   53MOL0     H 7121   2.113  13.085  10.353  3.0510  0.7394  0.6561
   53MOL0     H 7122   2.242  13.142  10.257  0.9018  0.4633  0.5492
   53MOL0     H 7123   2.087  13.292  10.117 -0.6661  1.1325  0.7262
   53MOL0     H 7124   1.952  13.239  10.224 -0.2098 -2.7494 -2.6130
   53MOL0     H 7125   2.198  13.359  10.333  0.9112 -2.7561 -0.3821
   53MOL0     H 7126   2.061  13.292  10.422  4.3043  0.3667  1.9493
   53MOL0     H 7127   1.919  13.447  10.307  0.8081  0.9126 -1.9041
   53MOL0     H 7128   2.066  13.530  10.247  0.5692  1.2505  0.4177
   53MOL0     H 7129   2.021  13.497  10.555  1.1127  2.6001  1.2844
   53MOL0     H 7130   2.119  13.599  10.469  0.0836  0.0043  0.5208
   53MOL0     H 7131   1.940  13.738  10.526 -1.2270  1.3213 -1.9803
   53MOL0     H 7132   1.825  13.613  10.505  0.2526 -0.2470  1.5851
   53MOL0     H 7133   1.862  13.643  10.248 -0.2083 -0.8015  0.5292
   53MOL0     H 7134   1.771  13.760  10.337 -1.0670 -2.6545  0.9513
   53MOL0     H 7135   2.266  12.899   9.932 -0.2632  2.8023  0.0490
   53MOL0     H 7136   2.224  12.725   9.748 -2.4984 -1.9695 -3.5960
   53MOL0     H 7137   2.162  12.597   9.414 -1.2638  1.2466  1.5726
   53MOL0     H 7138   2.178  12.392   9.261  0.0467 -1.1432  3.2937
   53MOL0     H 7139   2.748  11.310   9.523 -1.3912  1.8610  1.8177
   53MOL0     H 7140   2.976  11.317   9.627 -1.1811 -1.3806 -1.3832
   53MOL0     H 7141   3.408  11.178   9.535  0.6470 -0.1507 -0.1515
   53MOL0     H 7142   3.586  11.097   9.692 -2.6182 -1.6362  2.0559
   53MOL0     H 7143   3.594  11.243  10.090  0.3390 -0.3906  0.3140
   53MOL0     H 7144   3.742  11.326  10.067  0.5336 -0.1709 -0.3855
   53MOL0     H 7145   3.881  11.115  10.072 -0.5120 -0.7104  1.6725
   53MOL0     H 7146   3.729  11.035  10.125  0.6398 -0.2186  1.3208
   53MOL0     H 7147   3.717  11.198  10.305 -0.7635  0.4550 -2.5158
   53MOL0     H 7148   3.859  11.270  10.246  0.3486 -0.8865  0.8857
   53MOL0     H 7149   3.992  11.048  10.287 -0.8335 -3.6671  1.2148
   53MOL0     H 7150   3.925  11.132  10.425 -1.4238 -3.5502  2.6127
   53MOL0     H 7151   3.708  10.768  10.430 -0.3188  0.4993  0.0867
   53MOL0     H 7152   3.540  11.437   9.928  0.6865 -0.8909  0.5027
   53MOL0     H 7153   3.255  11.589   9.822 -0.3518  3.4397  0.1190
   53MOL0     H 7154   3.420  11.597   9.883  0.0975  0.2957 -0.0615
   53MOL0     H 7155   3.383  11.650   9.718 -2.1285  0.3179  1.8452
   54MOL0     O 7156   4.134  10.286   0.594  0.4014 -0.2183  0.5702
   54MOL0     C 7157   4.052  10.291   0.502 -0.3846 -0.0315 -0.4528
   54MOL0     O 7158   3.948  10.206   0.484  0.5479 -0.1830 -0.4645
   54MOL0     C 7159   3.940  10.093   0.567  0.7488 -0.2077 -0.3430
   54MOL0     C 7160   4.014   9.977   0.537 -0.2989 -0.8847  1.1913
   54MOL0     C 7161   4.009   9.873   0.632 -0.6062  0.7238 -0.2610
   54MOL0     C 7162   3.930   9.879   0.740 -0.0747 -0.2059 -0.5732
   54MOL0     O 7163   3.926   9.772   0.822 -0.2894 -0.1370 -0.1032
   54MOL0     C 7164   3.903   9.796   0.965  0.4422  0.1934 -0.4977
   54MOL0     C 7165   3.968   9.685   1.046 -0.1401 -0.1546 -0.1919
   54MOL0     C 7166   3.893   9.658   1.172 -0.5619 -0.8025 -0.2047
   54MOL0     C 7167   3.910   9.519   1.230  0.2628  0.2788  0.2131
   54MOL0     C 7168   4.053   9.482   1.264 -0.8972 -0.0021  0.0551
   54MOL0     C 7169   4.073   9.342   1.320  0.5031 -0.5989 -0.0577
   54MOL0     C 7170   4.209   9.329   1.376  0.0427  0.2794  0.2420
   54MOL0     C 7171   4.215   9.172   1.410  0.3553 -0.4269 -0.7659
   54MOL0     N 7172   4.318   9.167   1.516 -0.1906  0.4797  0.2078
   54MOL0     C 7173   4.318   9.219   1.638 -1.0531  0.0247 -0.8516
   54MOL0     C 7174   4.428   9.178   1.701 -0.1142 -1.2349 -0.1536
   54MOL0     C 7175   4.462   9.197   1.843  0.2221 -0.7075 -0.4998
   54MOL0     C 7176   4.527   9.331   1.882  0.0808  0.5176  0.8681
   54MOL0     C 7177   4.648   9.380   1.794 -0.3349 -0.0886 -0.1143
   54MOL0     C 7178   4.759   9.279   1.780 -0.3002  0.4486  0.1950
   54MOL0     O 7179   4.802   9.250   1.914  0.3057 -0.8229 -0.2474
   54MOL0     C 7180   4.924   9.197   1.929  0.0754 -0.7458 -0.0732
   54MOL0     C 7181   5.005   9.241   2.038 -0.4588  0.7927 -1.0169
   54MOL0     C 7182   5.127   9.177   2.061  0.2292  0.5663  0.6547
   54MOL0     C 7183   5.165   9.069   1.976  0.1185 -0.5886  0.0305
   54MOL0     C 7184   5.286   8.991   1.998 -0.4903 -0.4287 -0.0111
   54MOL0     O 7185   5.315   8.893   1.908  0.8186  0.3239  0.5619
   54MOL0     C 7186   5.402   8.793   1.927 -0.5191 -0.1799  0.1898
   54MOL0     C 7187   5.362   8.663   1.893 -0.0435 -0.0594 -0.4348
   54MOL0     C 7188   5.444   8.553   1.907 -0.0392  0.3248 -0.0921
   54MOL0     C 7189   5.572   8.561   1.964  0.1687 -0.8369  0.2776
   54MOL0     O 7190   5.636   8.452   1.993 -0.5533 -0.1379  0.1428
   54MOL0     C 7191   5.775   8.446   2.028 -0.6594 -0.3553 -1.3512
   54MOL0     C 7192   5.804   8.292   2.032 -0.6638  0.3522 -0.0923
   54MOL0     C 7193   5.710   8.202   2.111 -0.7302 -0.0132 -0.5579
   54MOL0     C 7194   5.762   8.199   2.261  0.0011  0.4607 -0.4155
   54MOL0     C 7195   5.656   8.136   2.350 -0.0783  1.5600  0.6906
   54MOL0     C 7196   5.663   7.977   2.362  0.4602 -0.9385  0.2895
   54MOL0     C 7197   5.568   7.926   2.475  0.0629  0.0874  0.5489
   54MOL0     C 7198   5.576   7.778   2.498  0.2236  0.1642 -0.0844
   54MOL0    Cl 7199   5.608   7.673   2.363  0.1507 -0.2211  0.6733
   54MOL0     C 7200   5.616   8.689   2.010  0.4602 -1.0840 -0.7392
   54MOL0     C 7201   5.531   8.801   1.991  0.6393 -0.5557 -0.6848
   54MOL0     O 7202   5.356   9.016   2.100  0.0827 -0.1823  0.0042
   54MOL0     C 7203   5.082   9.036   1.866  0.3792 -0.4511 -0.0822
   54MOL0     C 7204   4.961   9.090   1.856  0.0638 -0.7327  0.8475
   54MOL0     N 7205   4.497   9.112   1.604  0.2156  0.3258 -0.4927
   54MOL0     N 7206   4.433   9.100   1.488  0.0980 -0.5058 -0.0947
   54MOL0     C 7207   3.856   9.999   0.772 -0.2411  0.3993  0.6875
   54MOL0     C 7208   3.853  10.101   0.682 -0.5029  0.0361  0.2459
   54MOL0     C 7209   4.065  10.403   0.405  0.3534 -0.5644  0.4937
   54MOL0     C 7210   4.136  10.512   0.468  1.4525  0.0931 -0.2359
   54MOL0     C 7211   4.143  10.625   0.395 -0.2742  0.0332 -0.3441
   54MOL0     C 7212   4.082  10.644   0.263  0.9151  0.0966  0.1375
   54MOL0     O 7213   4.082  10.766   0.193  0.1761 -0.5513 -1.2851
   54MOL0     C 7214   4.193  10.859   0.217  0.5368  0.2523 -0.7206
   54MOL0     C 7215   4.201  10.958   0.104  0.4589  0.0482  0.8487
   54MOL0     C 7216   4.084  11.057   0.105 -0.2311  0.1626  0.0770
   54MOL0     C 7217   4.056  11.146  -0.000  0.0236  0.9902 -0.0263
   54MOL0     C 7218   3.974  11.086  -0.105  0.0428 -0.4135 -1.2008
   54MOL0     C 7219   3.898  11.038  -0.184  1.1034 -0.7805 -0.2355
   54MOL0     C 7220   4.016  10.532   0.207 -0.0379 -0.6354 -0.3493
   54MOL0     C 7221   4.006  10.414   0.277 -0.3878 -0.4344 -0.4926
   54MOL0     C 7222   3.938  10.292   0.207  0.0676 -0.4910 -1.0780
   54MOL0     H 7223   4.071   9.973   0.446 -1.6578  3.4204 -0.1323
   54MOL0     H 7224   4.062   9.780   0.615  1.0656  1.9022 -1.8710
   54MOL0     H 7225   3.938   9.892   1.002 -1.1557  0.8603 -0.6611
   54MOL0     H 7226   3.796   9.805   0.983  0.6936  2.0340  0.2835
   54MOL0     H 7227   4.070   9.713   1.070  0.4356 -1.8028 -0.5789
   54MOL0     H 7228   3.953   9.596   0.983  0.4047 -1.1741  1.0694
   54MOL0     H 7229   3.788   9.691   1.168  0.1678  1.9565  1.1286
   54MOL0     H 7230   3.936   9.734   1.237 -1.3988  1.4620 -2.1645
   54MOL0     H 7231   3.849   9.505   1.319  0.7045 -0.0098  0.4750
   54MOL0     H 7232   3.870   9.456   1.149  2.4136  0.9596 -1.4769
   54MOL0     H 7233   4.106   9.485   1.168 -2.1300  0.5453 -0.6381
   54MOL0     H 7234   4.097   9.554   1.333  2.6076 -0.3759 -1.5877
   54MOL0     H 7235   4.003   9.331   1.404  0.2217  0.6888 -0.1009
   54MOL0     H 7236   4.064   9.272   1.237 -0.2616 -1.5100  0.7666
   54MOL0     H 7237   4.214   9.395   1.463  0.4704  0.9617 -0.2919
   54MOL0     H 7238   4.277   9.363   1.297 -0.8061 -1.2433 -1.1886
   54MOL0     H 7239   4.119   9.134   1.448 -0.9502 -1.3781 -4.5431
   54MOL0     H 7240   4.252   9.116   1.324  0.8974 -1.8135  0.3518
   54MOL0     H 7241   4.229   9.264   1.682 -0.2701  0.7456  0.0471
   54MOL0     H 7242   4.364   9.190   1.890 -1.2319  1.9269 -2.7890
   54MOL0     H 7243   4.538   9.123   1.872  0.1777 -0.3136  0.6714
   54MOL0     H 7244   4.454   9.410   1.899 -0.1479  0.6187 -0.4644
   54MOL0     H 7245   4.574   9.301   1.976  1.5414 -3.2595 -0.8629
   54MOL0     H 7246   4.693   9.474   1.827 -0.5757  0.3215 -0.9167
   54MOL0     H 7247   4.600   9.401   1.698 -2.8426  0.3639  1.1634
   54MOL0     H 7248   4.846   9.324   1.731  0.0220  0.0910  0.4350
   54MOL0     H 7249   4.733   9.184   1.731  0.6826 -0.7491  1.8762
   54MOL0     H 7250   4.983   9.319   2.111 -1.3801 -0.2794 -0.1236
   54MOL0     H 7251   5.194   9.204   2.142  2.4429 -2.7322  0.1247
   54MOL0     H 7252   5.261   8.639   1.862  0.6851 -2.6194 -1.0691
   54MOL0     H 7253   5.395   8.458   1.894 -0.0706  0.2988  0.1970
   54MOL0     H 7254   5.831   8.507   1.955 -0.1333  3.2094  1.7160
   54MOL0     H 7255   5.790   8.486   2.129  0.1209  1.8183 -2.2587
   54MOL0     H 7256   5.810   8.270   1.925  2.3730  1.8412 -0.3577
   54MOL0     H 7257   5.906   8.274   2.068 -1.6066 -1.5794  1.8335
   54MOL0     H 7258   5.610   8.245   2.108 -1.0469 -0.7393 -0.4728
   54MOL0     H 7259   5.702   8.102   2.066 -1.8143 -0.9090  1.5002
   54MOL0     H 7260   5.791   8.299   2.295  0.0307  0.4505 -0.4106
   54MOL0     H 7261   5.852   8.138   2.275  0.2412  1.0960  0.9859
   54MOL0     H 7262   5.557   8.174   2.321 -1.7078 -1.9481  1.1179
   54MOL0     H 7263   5.693   8.180   2.443  1.4504  0.6404  0.5579
   54MOL0     H 7264   5.621   7.927   2.274  0.2112 -1.3117  0.6206
   54MOL0     H 7265   5.769   7.948   2.361  0.9130  0.6250  0.4058
   54MOL0     H 7266   5.462   7.936   2.449 -0.2954 -5.3044 -1.1229
   54MOL0     H 7267   5.586   7.977   2.570 -0.6365 -0.6836  1.1055
   54MOL0     H 7268   5.645   7.751   2.578 -0.0538 -1.2874 -0.3079
   54MOL0     H 7269   5.482   7.739   2.538  1.9084 -3.1494  1.0631
   54MOL0     H 7270   5.713   8.679   2.057  0.1230 -4.2387 -0.4916
   54MOL0     H 7271   5.559   8.895   2.039  2.7164 -2.0579  1.2980
   54MOL0     H 7272   5.106   8.957   1.796  2.1464 -1.1599  1.2319
   54MOL0     H 7273   4.905   9.056   1.769  2.0573 -0.9155 -0.4321
   54MOL0     H 7274   3.796  10.004   0.862  1.0727  1.6324  1.5478
   54MOL0     H 7275   3.784  10.183   0.699  2.8475  2.9546  1.0247
   54MOL0     H 7276   4.195  10.505   0.559  1.2956 -1.7561 -0.2368
   54MOL0     H 7277   4.198  10.705   0.444 -1.9170  2.2596 -1.9819
   54MOL0     H 7278   4.283  10.798   0.211 -0.7457 -1.6818 -1.3041
   54MOL0     H 7279   4.203  10.909   0.314  4.2221 -0.5202 -0.5663
   54MOL0     H 7280   4.192  10.906   0.008  2.9375 -0.6729  0.9345
   54MOL0     H 7281   4.291  11.019   0.102 -0.3696  1.3941  2.4223
   54MOL0     H 7282   4.106  11.110   0.199  3.2160 -1.7910  0.5310
   54MOL0     H 7283   3.987  11.008   0.120  0.3850 -0.9268  0.6907
   54MOL0     H 7284   3.989  11.214   0.054 -1.2043 -1.4821  1.7468
   54MOL0     H 7285   4.138  11.201  -0.047 -0.1778  2.6401  1.4469
   54MOL0     H 7286   3.830  11.000  -0.257 -0.2125  0.7479  0.1328
   54MOL0     H 7287   3.967  10.560   0.115  0.6276  0.7923 -0.2983
   54MOL0     H 7288   3.846  10.277   0.265  0.5848 -0.2616 -0.1847
   54MOL0     H 7289   3.897  10.325   0.111 -2.0582 -2.0685 -0.7800
   54MOL0     H 7290   4.006  10.206   0.206  0.6357 -0.1972  1.8235
   55MOL0     O 7291   4.047   3.002   3.105 -0.4996  0.0281  0.4484
   55MOL0     C 7292   4.135   3.075   3.159  0.4552 -0.4928 -0.0027
   55MOL0     O 7293   4.263   3.039   3.204  0.9471  0.3835 -0.5700
   55MOL0     C 7294   4.284   2.901   3.187  0.3656 -0.1432  0.5666
   55MOL0     C 7295   4.297   2.816   3.294 -0.9882  0.3778  0.5764
   55MOL0     C 7296   4.312   2.675   3.289  0.4075  0.2916  0.4076
   55MOL0     C 7297   4.324   2.606   3.172 -0.2736 -0.5933 -0.3538
   55MOL0     O 7298   4.364   2.485   3.144  0.2881  0.2493 -0.6838
   55MOL0     C 7299   4.400   2.394   3.247  0.1790 -0.4086 -0.0125
   55MOL0     C 7300   4.430   2.253   3.196 -0.1832 -0.0457 -0.1505
   55MOL0     C 7301   4.433   2.151   3.308  0.9940 -1.0227 -0.6566
   55MOL0     C 7302   4.515   2.033   3.273 -0.0489  0.0452  0.1597
   55MOL0     C 7303   4.500   1.906   3.370  0.0832  0.6404  0.7802
   55MOL0     C 7304   4.372   1.837   3.325  1.2815 -0.6713 -0.5982
   55MOL0     C 7305   4.365   1.755   3.199 -0.3899 -0.1342 -0.8961
   55MOL0     C 7306   4.228   1.689   3.187  0.2962  0.1336  0.2001
   55MOL0     N 7307   4.219   1.605   3.072  0.3420  0.1609  1.1394
   55MOL0     C 7308   4.235   1.634   2.937 -0.7207 -0.3626  0.2586
   55MOL0     C 7309   4.203   1.515   2.875  0.8439  0.7842  0.5375
   55MOL0     C 7310   4.184   1.484   2.725  0.9490  0.5492  1.3257
   55MOL0     C 7311   4.036   1.459   2.690 -0.3067  0.9570  0.5081
   55MOL0     C 7312   4.037   1.487   2.537  0.2839 -0.3557  0.7933
   55MOL0     C 7313   3.918   1.424   2.462  1.0300  0.4017 -0.8842
   55MOL0     O 7314   3.904   1.287   2.512  0.2595  0.2736  0.6950
   55MOL0     C 7315   3.896   1.191   2.417 -0.5783 -0.0318 -0.5060
   55MOL0     C 7316   3.785   1.118   2.402  0.3162  1.0089  1.2216
   55MOL0     C 7317   3.772   1.037   2.286 -0.0347 -0.6568  0.5071
   55MOL0     C 7318   3.877   1.032   2.191 -0.5827  0.3879 -0.3379
   55MOL0     C 7319   3.859   0.960   2.067 -0.3385  0.3116  0.6947
   55MOL0     O 7320   3.731   0.957   2.019  0.1751 -0.2557 -0.1214
   55MOL0     C 7321   3.695   0.922   1.888 -0.1111  0.0740 -0.4823
   55MOL0     C 7322   3.753   0.827   1.800 -0.4323 -0.3708  0.0579
   55MOL0     C 7323   3.690   0.803   1.673 -1.3032  0.2216  0.0017
   55MOL0     C 7324   3.567   0.853   1.644 -0.0214  0.5547  0.0276
   55MOL0     O 7325   3.512   0.828   1.522  0.4645  0.0711  0.3716
   55MOL0     C 7326   3.489   0.688   1.478  0.0418 -0.2510  0.4228
   55MOL0     C 7327   3.342   0.657   1.499  0.2511 -1.1396 -0.2603
   55MOL0     C 7328   3.296   0.661   1.646 -0.4362  0.6213  0.4252
   55MOL0     C 7329   3.366   0.556   1.743 -0.4815  0.0528  0.6729
   55MOL0     C 7330   3.330   0.409   1.712 -0.8154  0.4383 -0.7546
   55MOL0     C 7331   3.406   0.326   1.828 -0.0202 -0.5339 -0.0383
   55MOL0     C 7332   3.355   0.187   1.837 -0.0368 -0.4924  0.0116
   55MOL0     C 7333   3.385   0.114   1.709  0.0388 -0.0027 -0.2632
   55MOL0    Cl 7334   3.555   0.050   1.685  0.1871 -0.5197  0.3357
   55MOL0     C 7335   3.505   0.939   1.735  0.7421 -0.3801  0.0527
   55MOL0     C 7336   3.567   0.969   1.855  0.2340  0.5815 -0.9967
   55MOL0     O 7337   3.956   0.940   1.994 -0.9111  0.6545  0.0301
   55MOL0     C 7338   3.991   1.105   2.219 -0.3453  0.9369  0.0223
   55MOL0     C 7339   4.005   1.182   2.330 -0.3395  0.3115 -0.3076
   55MOL0     N 7340   4.172   1.424   2.977 -0.3529  0.1043  0.4973
   55MOL0     N 7341   4.190   1.476   3.089  0.5236 -0.0516  1.0795
   55MOL0     C 7342   4.300   2.685   3.053  0.6494 -0.2620 -1.0569
   55MOL0     C 7343   4.284   2.832   3.062  0.6701 -0.1909  0.6545
   55MOL0     C 7344   4.089   3.205   3.191  0.5153  0.0468 -0.0740
   55MOL0     C 7345   4.146   3.276   3.304  0.2260  0.3954  0.1533
   55MOL0     C 7346   4.101   3.401   3.347 -0.6769  0.1691  0.1447
   55MOL0     C 7347   4.005   3.475   3.271  0.5372 -0.9373  0.4059
   55MOL0     O 7348   3.943   3.589   3.325 -0.0595  0.4366  0.1414
   55MOL0     C 7349   4.030   3.670   3.414 -0.4621  0.4602  0.9152
   55MOL0     C 7350   3.962   3.800   3.449 -0.0161 -0.0355  0.5725
   55MOL0     C 7351   4.032   3.898   3.540 -0.3685  0.3436 -0.7093
   55MOL0     C 7352   4.175   3.936   3.492  0.8319  0.0889 -0.4517
   55MOL0     C 7353   4.142   4.006   3.364 -0.1488 -0.2637  0.1135
   55MOL0     C 7354   4.121   4.060   3.256  0.2590 -0.1688  0.8168
   55MOL0     C 7355   3.957   3.407   3.148  0.1859  0.0017 -0.4190
   55MOL0     C 7356   3.993   3.275   3.113  1.1358 -0.6106  0.3678
   55MOL0     C 7357   3.927   3.213   2.988 -0.0350  1.0563 -0.1841
   55MOL0     H 7358   4.300   2.873   3.386  0.4513  3.8730 -1.4419
   55MOL0     H 7359   4.350   2.626   3.378  0.0327 -0.0343  0.3910
   55MOL0     H 7360   4.485   2.424   3.309  1.4303 -0.9241 -1.4024
   55MOL0     H 7361   4.311   2.388   3.310  1.9277  0.4023  2.7217
   55MOL0     H 7362   4.527   2.255   3.144  1.1544 -1.8078  2.0585
   55MOL0     H 7363   4.360   2.211   3.123 -0.5112 -2.9781  1.6734
   55MOL0     H 7364   4.330   2.119   3.327 -0.3938  1.9659 -2.4183
   55MOL0     H 7365   4.461   2.208   3.397  0.0137 -1.4775 -0.0316
   55MOL0     H 7366   4.496   2.006   3.169 -2.0952  3.1807 -0.4246
   55MOL0     H 7367   4.619   2.066   3.268 -0.9806  3.0385 -2.1038
   55MOL0     H 7368   4.587   1.845   3.347 -0.6530  0.3257 -1.3671
   55MOL0     H 7369   4.509   1.939   3.474 -0.0375 -2.1224  1.7502
   55MOL0     H 7370   4.350   1.763   3.402 -1.2911  0.2699 -0.3152
   55MOL0     H 7371   4.290   1.909   3.319  0.2525 -1.7022  0.5712
   55MOL0     H 7372   4.444   1.679   3.198 -0.6508 -0.4076 -1.1033
   55MOL0     H 7373   4.381   1.827   3.118  1.7047  0.2696 -0.1705
   55MOL0     H 7374   4.203   1.637   3.279 -0.0928 -1.0095 -0.5298
   55MOL0     H 7375   4.154   1.768   3.183 -0.1049 -0.2926 -1.6914
   55MOL0     H 7376   4.256   1.732   2.895 -0.9075  1.3676  3.8481
   55MOL0     H 7377   4.224   1.572   2.674 -0.5973 -0.0554 -1.0978
   55MOL0     H 7378   4.245   1.396   2.705  0.3556  0.3496  0.3173
   55MOL0     H 7379   4.017   1.353   2.713  1.9021  0.5973  0.8320
   55MOL0     H 7380   3.963   1.519   2.745 -1.6435 -1.6303  1.7817
   55MOL0     H 7381   4.120   1.439   2.483 -2.3260 -1.6216 -2.4217
   55MOL0     H 7382   4.030   1.595   2.522 -1.5224 -0.3401  1.5192
   55MOL0     H 7383   3.930   1.433   2.353 -2.5048  0.9192 -1.3428
   55MOL0     H 7384   3.825   1.477   2.480  2.0099  1.3107  1.9920
   55MOL0     H 7385   3.703   1.134   2.472 -0.3196  1.2926  0.4251
   55MOL0     H 7386   3.682   0.978   2.272  0.8918 -2.2175  0.9086
   55MOL0     H 7387   3.840   0.777   1.842 -0.4230  0.8162  1.5270
   55MOL0     H 7388   3.750   0.745   1.604 -1.1068  0.1165  0.2573
   55MOL0     H 7389   3.505   0.695   1.370 -3.9830  0.2484 -0.2697
   55MOL0     H 7390   3.556   0.623   1.535  0.2700  1.7964  2.6397
   55MOL0     H 7391   3.277   0.723   1.440  1.3540 -0.4115 -0.6833
   55MOL0     H 7392   3.324   0.555   1.464 -2.2765 -1.2917  1.2105
   55MOL0     H 7393   3.315   0.758   1.693  0.4021 -0.3993  2.2753
   55MOL0     H 7394   3.187   0.647   1.648 -0.2808 -0.9216 -0.3295
   55MOL0     H 7395   3.346   0.574   1.849  3.1049  0.2201  1.4464
   55MOL0     H 7396   3.474   0.570   1.744 -0.8566  4.4223  2.0238
   55MOL0     H 7397   3.371   0.380   1.615  0.8519  1.4486 -0.3879
   55MOL0     H 7398   3.221   0.400   1.716 -0.9186  1.6948 -0.3712
   55MOL0     H 7399   3.515   0.331   1.818 -0.0171 -1.7581 -0.7395
   55MOL0     H 7400   3.385   0.358   1.931  1.3002  3.5041 -0.8188
   55MOL0     H 7401   3.248   0.199   1.858  0.2014 -0.9619  1.6031
   55MOL0     H 7402   3.388   0.126   1.920 -2.9053  0.5321  2.0828
   55MOL0     H 7403   3.327   0.021   1.706  0.2929 -0.1776  0.1305
   55MOL0     H 7404   3.356   0.176   1.624 -1.7811  1.8858  1.6175
   55MOL0     H 7405   3.411   0.988   1.711 -0.5505 -1.8380  1.8393
   55MOL0     H 7406   3.521   1.028   1.933 -1.3231 -2.7445  0.8207
   55MOL0     H 7407   4.080   1.116   2.157  1.6084  0.7673  2.6074
   55MOL0     H 7408   4.093   1.243   2.343  1.7653 -2.9466  2.4010
   55MOL0     H 7409   4.319   2.641   2.956  0.0965 -4.0528  0.4028
   55MOL0     H 7410   4.277   2.873   2.962 -1.0439 -2.0524 -0.0802
   55MOL0     H 7411   4.220   3.229   3.368  0.8942  0.9749 -0.1788
   55MOL0     H 7412   4.149   3.438   3.437 -1.7363 -1.9886  1.6721
   55MOL0     H 7413   4.128   3.696   3.375  0.3481 -1.5388  1.5153
   55MOL0     H 7414   4.048   3.615   3.507  1.4718 -0.7905 -0.1427
   55MOL0     H 7415   3.866   3.779   3.498 -1.5222  1.0285 -1.7436
   55MOL0     H 7416   3.941   3.859   3.359  0.6738 -2.7207 -1.4808
   55MOL0     H 7417   4.057   3.856   3.638  1.7932 -2.2491 -2.2239
   55MOL0     H 7418   3.964   3.983   3.555  1.8447  2.3844 -1.7178
   55MOL0     H 7419   4.224   3.997   3.568 -1.2645  3.9808 -1.9571
   55MOL0     H 7420   4.225   3.847   3.453  0.1781  0.2154 -1.6222
   55MOL0     H 7421   4.099   4.111   3.165  0.0391  0.5591  1.2759
   55MOL0     H 7422   3.868   3.442   3.096  0.6434 -2.1562 -2.8400
   55MOL0     H 7423   3.869   3.291   2.939  1.5610  3.0576  0.9345
   55MOL0     H 7424   4.008   3.185   2.920  0.5435  2.0836  0.0633
   55MOL0     H 7425   3.861   3.129   3.014  1.7040 -0.0939  0.7359
   56MOL0     O 7426   8.085   0.952  10.984  0.5128 -0.1242 -0.8458
   56MOL0     C 7427   8.166   1.034  11.011 -0.3496  0.3961 -0.6303
   56MOL0     O 7428   8.149   1.171  11.043  0.4899 -0.1009  0.8025
   56MOL0     C 7429   8.029   1.221  11.071 -0.4495 -0.2797 -0.0206
   56MOL0     C 7430   8.006   1.353  11.035 -1.1422 -0.1998  0.4249
   56MOL0     C 7431   7.895   1.420  11.093 -0.6658  1.0788  1.1397
   56MOL0     C 7432   7.797   1.341  11.159 -0.6328  0.5735 -0.9978
   56MOL0     O 7433   7.669   1.381  11.193 -0.7266 -0.7076  0.2505
   56MOL0     C 7434   7.634   1.519  11.181 -0.0601  0.8865 -0.2719
   56MOL0     C 7435   7.492   1.527  11.226  0.9167  0.8435  0.2306
   56MOL0     C 7436   7.431   1.664  11.204  0.0822  0.0814  0.3001
   56MOL0     C 7437   7.414   1.678  11.048  0.2956 -0.1550  0.7828
   56MOL0     C 7438   7.284   1.753  11.004  0.9253  0.4720 -0.4496
   56MOL0     C 7439   7.161   1.677  11.033  0.3654 -0.2069 -0.1678
   56MOL0     C 7440   7.036   1.747  10.975 -0.7310  0.0699 -0.1782
   56MOL0     C 7441   6.953   1.648  10.888 -0.7313  0.2416  0.6056
   56MOL0     N 7442   7.008   1.611  10.752 -0.4664 -0.2553  0.1981
   56MOL0     C 7443   7.038   1.704  10.649  0.2610  0.5201 -0.3475
   56MOL0     C 7444   7.125   1.630  10.566 -0.0020 -0.4222 -1.0499
   56MOL0     C 7445   7.180   1.694  10.447 -0.3868 -0.0670 -0.4809
   56MOL0     C 7446   7.300   1.619  10.389 -0.0030 -0.9014 -0.6505
   56MOL0     C 7447   7.316   1.661  10.251  0.4512  0.4118 -1.1546
   56MOL0     C 7448   7.452   1.636  10.186  0.3934  0.6137 -1.0067
   56MOL0     O 7449   7.472   1.495  10.186  0.1755  0.2334 -0.0623
   56MOL0     C 7450   7.607   1.451  10.194  0.2131  0.2728  0.2334
   56MOL0     C 7451   7.628   1.317  10.213  0.4266  1.0670  0.1730
   56MOL0     C 7452   7.756   1.269  10.207 -0.4526 -0.8175 -0.4742
   56MOL0     C 7453   7.869   1.349  10.191 -0.4642  0.2214 -0.1116
   56MOL0     C 7454   8.005   1.299  10.173 -0.0408  0.6903 -0.2398
   56MOL0     O 7455   8.110   1.381  10.146 -0.3908  0.2631 -0.0421
   56MOL0     C 7456   8.245   1.350  10.159  0.8155 -0.2342  0.3822
   56MOL0     C 7457   8.306   1.230  10.116 -0.0470  0.4580  0.2106
   56MOL0     C 7458   8.439   1.208  10.124 -0.0355 -0.5148 -0.2288
   56MOL0     C 7459   8.519   1.306  10.188 -0.2985 -0.7900  0.5163
   56MOL0     O 7460   8.654   1.286  10.211 -0.0598 -0.1282 -0.1749
   56MOL0     C 7461   8.722   1.188  10.138  0.5835  0.2814 -0.4750
   56MOL0     C 7462   8.873   1.209  10.128 -0.0172  0.8284  0.7145
   56MOL0     C 7463   8.942   1.095  10.055 -0.8259  0.0739  0.1282
   56MOL0     C 7464   9.094   1.093  10.088 -0.1277  0.7507  0.3621
   56MOL0     C 7465   9.166   0.996  10.002  0.2366  0.4005 -0.6640
   56MOL0     C 7466   9.314   1.039  10.007 -0.4473  0.3720  0.6140
   56MOL0     C 7467   9.385   0.961  10.120 -1.3869 -0.6241 -0.5425
   56MOL0     C 7468   9.525   1.012  10.139 -0.3752 -0.3758 -0.2738
   56MOL0    Cl 7469   9.611   0.908  10.249 -0.0101 -0.1227 -0.2460
   56MOL0     C 7470   8.463   1.429  10.221 -0.6939  0.5417 -0.6161
   56MOL0     C 7471   8.328   1.453  10.199  0.7886  0.0418 -0.3827
   56MOL0     O 7472   8.022   1.181  10.205 -0.1122 -0.3914  0.2843
   56MOL0     C 7473   7.851   1.482  10.188  0.0914  0.1370  0.3704
   56MOL0     C 7474   7.722   1.534  10.192 -0.4133  0.3972 -0.7840
   56MOL0     N 7475   7.126   1.494  10.610 -0.9979 -1.0214 -0.3898
   56MOL0     N 7476   7.066   1.491  10.722  0.2714  0.4817 -0.1550
   56MOL0     C 7477   7.829   1.208  11.199  0.4189 -0.6864 -0.1873
   56MOL0     C 7478   7.949   1.152  11.165  0.3818 -0.3180  0.4909
   56MOL0     C 7479   8.307   0.993  10.999  1.2021 -0.3686 -0.0990
   56MOL0     C 7480   8.403   1.092  11.029  0.0693  0.1246 -0.9294
   56MOL0     C 7481   8.542   1.064  11.028  0.4164  0.7986  0.3997
   56MOL0     C 7482   8.578   0.938  10.976  0.5841 -1.0001  1.2187
   56MOL0     O 7483   8.711   0.929  10.948  0.0326 -0.2034 -0.0725
   56MOL0     C 7484   8.779   0.856  11.053  0.2528  0.5686 -0.1489
   56MOL0     C 7485   8.922   0.829  11.008  1.4552  0.0378 -0.5824
   56MOL0     C 7486   8.923   0.741  10.884  0.3255 -0.9656  0.3120
   56MOL0     C 7487   9.072   0.690  10.853  0.0043 -0.1773 -0.0304
   56MOL0     C 7488   9.151   0.813  10.820 -1.4534  0.5769 -0.0376
   56MOL0     C 7489   9.222   0.907  10.789 -0.1625  0.0982  0.0024
   56MOL0     C 7490   8.483   0.835  10.954 -0.0494 -0.1998  0.7132
   56MOL0     C 7491   8.346   0.858  10.969  0.0897  0.3050  0.0080
   56MOL0     C 7492   8.260   0.739  10.950  0.3887  0.2116  0.0586
   56MOL0     H 7493   8.084   1.412  10.989 -0.0308  1.0796  3.7049
   56MOL0     H 7494   7.866   1.524  11.082  0.2376  1.0803 -3.6334
   56MOL0     H 7495   7.689   1.583  11.251 -0.0551  0.9408 -0.3249
   56MOL0     H 7496   7.632   1.562  11.081  4.4173  0.5565 -0.7304
   56MOL0     H 7497   7.479   1.518  11.334  2.1648  3.5391  0.7082
   56MOL0     H 7498   7.434   1.450  11.175  0.5750  0.7326  0.7769
   56MOL0     H 7499   7.485   1.751  11.243  0.3407  0.4142 -0.7702
   56MOL0     H 7500   7.332   1.665  11.252  0.2284  1.9247  0.6386
   56MOL0     H 7501   7.493   1.728  10.990 -2.8092  1.4497 -2.4899
   56MOL0     H 7502   7.405   1.580  11.000  0.6265  1.1452 -2.1398
   56MOL0     H 7503   7.280   1.854  11.046  0.8034  0.5048 -0.5372
   56MOL0     H 7504   7.299   1.787  10.902  1.0974  2.3803  0.1717
   56MOL0     H 7505   7.181   1.585  10.978 -0.4556  0.6559 -1.9721
   56MOL0     H 7506   7.146   1.648  11.138 -1.4668 -0.5739 -0.4966
   56MOL0     H 7507   7.071   1.833  10.917 -3.2769  1.7063  0.5488
   56MOL0     H 7508   6.971   1.784  11.055 -2.8642  0.4819 -1.9860
   56MOL0     H 7509   6.949   1.554  10.945 -3.6282 -0.8004 -1.0616
   56MOL0     H 7510   6.850   1.679  10.869 -0.0776  1.1493 -1.7176
   56MOL0     H 7511   7.021   1.811  10.651 -3.4124  0.0287  1.1135
   56MOL0     H 7512   7.094   1.692  10.379 -0.5623  1.0170 -0.3055
   56MOL0     H 7513   7.209   1.799  10.457  0.8391 -0.1758 -2.3430
   56MOL0     H 7514   7.393   1.635  10.443 -0.1422  1.1710 -0.9454
   56MOL0     H 7515   7.288   1.511  10.396 -1.4242 -0.7925 -0.9028
   56MOL0     H 7516   7.283   1.764  10.239  0.4552  0.3418 -1.7777
   56MOL0     H 7517   7.250   1.610  10.181  0.8373 -0.0174 -1.2140
   56MOL0     H 7518   7.530   1.685  10.245  1.7388  1.5554 -3.4183
   56MOL0     H 7519   7.453   1.667  10.081 -0.4610  2.8110 -0.4095
   56MOL0     H 7520   7.547   1.244  10.207  1.5422 -0.1294 -1.1888
   56MOL0     H 7521   7.768   1.161  10.214 -1.3449 -0.8373  1.4540
   56MOL0     H 7522   8.254   1.139  10.090  0.7806 -0.4728  1.7059
   56MOL0     H 7523   8.469   1.106  10.101 -0.0551 -0.7747  0.8682
   56MOL0     H 7524   8.721   1.090  10.186  1.2512  0.1777 -0.6739
   56MOL0     H 7525   8.689   1.172  10.035  0.4716 -1.5921 -0.1836
   56MOL0     H 7526   8.896   1.308  10.087 -1.4588  0.5018 -0.9960
   56MOL0     H 7527   8.912   1.213  10.230  1.0372  3.3602  0.2932
   56MOL0     H 7528   8.886   1.005  10.080 -4.9177  3.0610  3.1614
   56MOL0     H 7529   8.938   1.111   9.947  0.6394  1.0296  0.1834
   56MOL0     H 7530   9.106   1.059  10.191  0.9651 -0.6088 -0.1772
   56MOL0     H 7531   9.133   1.195  10.074  2.2067  0.3371  2.8548
   56MOL0     H 7532   9.126   1.005   9.901 -2.4453 -0.0886  0.2834
   56MOL0     H 7533   9.145   0.894  10.035  0.7604  0.3704 -0.4024
   56MOL0     H 7534   9.356   1.004   9.913  0.7630  1.0270  0.8907
   56MOL0     H 7535   9.326   1.147  10.021 -3.8273  0.7702  1.3923
   56MOL0     H 7536   9.377   0.854  10.099 -1.5862 -0.9503  1.0813
   56MOL0     H 7537   9.338   0.981  10.217 -2.1759 -2.8302 -0.3940
   56MOL0     H 7538   9.580   1.024  10.045 -0.2286  1.0407 -0.0220
   56MOL0     H 7539   9.506   1.112  10.178 -2.0306  0.1275 -2.1726
   56MOL0     H 7540   8.534   1.502  10.257 -1.9230  1.3357  0.2370
   56MOL0     H 7541   8.281   1.548  10.223 -0.7241 -0.6353 -0.5397
   56MOL0     H 7542   7.934   1.551  10.183 -0.6536  1.0698  0.4867
   56MOL0     H 7543   7.707   1.641  10.182 -2.1391  0.2133 -0.5475
   56MOL0     H 7544   7.751   1.161  11.258  0.4759  0.7078  1.0619
   56MOL0     H 7545   7.964   1.055  11.212  0.4285  0.4684  2.1949
   56MOL0     H 7546   8.380   1.196  11.051 -0.2384 -0.3689  1.3547
   56MOL0     H 7547   8.611   1.146  11.044  0.1980  1.2924 -1.1111
   56MOL0     H 7548   8.731   0.760  11.075  0.0595  0.9577  1.2411
   56MOL0     H 7549   8.769   0.911  11.147  0.3747  0.6565 -0.1870
   56MOL0     H 7550   8.989   0.790  11.084 -1.2449 -4.4460 -0.1206
   56MOL0     H 7551   8.964   0.923  10.972 -2.7487  1.9086 -1.2769
   56MOL0     H 7552   8.874   0.796  10.803 -1.2019 -1.1228  1.0915
   56MOL0     H 7553   8.875   0.645  10.907  1.0002 -1.6481 -0.9873
   56MOL0     H 7554   9.114   0.633  10.936  1.4470 -0.1535 -0.7162
   56MOL0     H 7555   9.080   0.624  10.767 -1.3313 -0.0803 -0.2612
   56MOL0     H 7556   9.267   0.999  10.756 -3.7588  0.9489 -3.1074
   56MOL0     H 7557   8.525   0.736  10.936  3.0181  1.1521 -0.2652
   56MOL0     H 7558   8.200   0.734  11.041 -1.2299 -1.5528 -1.0320
   56MOL0     H 7559   8.186   0.762  10.872  2.6326  0.8052 -1.9987
   56MOL0     H 7560   8.305   0.641  10.937  1.3316  0.1189  3.2255
   57MOL0     O 7561   6.524   3.282   2.104 -0.5711  0.6063 -0.3010
   57MOL0     C 7562   6.414   3.310   2.134  0.6693 -0.3621  0.0923
   57MOL0     O 7563   6.377   3.397   2.231 -0.0930  0.1976 -0.7316
   57MOL0     C 7564   6.467   3.431   2.330 -0.0029 -0.0554  0.7571
   57MOL0     C 7565   6.451   3.403   2.462  0.2955  0.2328  0.8455
   57MOL0     C 7566   6.539   3.459   2.557 -0.1006  0.3685 -0.3560
   57MOL0     C 7567   6.644   3.533   2.517  0.0568  0.0154  0.1769
   57MOL0     O 7568   6.729   3.579   2.607  0.2419 -0.6092  0.0745
   57MOL0     C 7569   6.826   3.487   2.659 -0.1522 -0.1955 -0.6333
   57MOL0     C 7570   6.958   3.556   2.702  0.1079 -0.1034  0.1966
   57MOL0     C 7571   7.021   3.619   2.579 -0.0832 -0.4254 -0.4849
   57MOL0     C 7572   7.091   3.517   2.484 -0.0994  0.2950 -0.3141
   57MOL0     C 7573   7.227   3.568   2.445 -0.4046 -0.0721 -0.0428
   57MOL0     C 7574   7.305   3.461   2.366 -0.8763  0.1116  0.3695
   57MOL0     C 7575   7.455   3.486   2.357 -0.3014 -0.1099 -0.2081
   57MOL0     C 7576   7.550   3.381   2.293  0.3955 -0.4827  0.2379
   57MOL0     N 7577   7.551   3.383   2.142 -0.4384 -0.1647  0.3539
   57MOL0     C 7578   7.449   3.361   2.062  0.5449  0.2925  0.8961
   57MOL0     C 7579   7.492   3.361   1.934 -0.3541 -0.1396 -0.6118
   57MOL0     C 7580   7.411   3.332   1.807 -0.1812 -0.1984 -0.0087
   57MOL0     C 7581   7.288   3.423   1.798  0.2584 -0.1328 -0.1284
   57MOL0     C 7582   7.311   3.572   1.767  0.0155  0.4412  0.7201
   57MOL0     C 7583   7.366   3.613   1.629 -0.3470  0.5244  0.5943
   57MOL0     O 7584   7.284   3.561   1.523 -0.3479 -0.2791 -0.1487
   57MOL0     C 7585   7.160   3.607   1.503 -0.2256  0.2769 -0.4297
   57MOL0     C 7586   7.137   3.743   1.506  1.0532  0.2869 -0.3233
   57MOL0     C 7587   7.013   3.804   1.454  0.2430  0.5666  0.0781
   57MOL0     C 7588   6.900   3.724   1.423  0.2043 -1.0747 -0.1099
   57MOL0     C 7589   6.770   3.780   1.379  0.5163 -0.5308 -0.7908
   57MOL0     O 7590   6.674   3.687   1.364  0.1712  0.2956  0.7568
   57MOL0     C 7591   6.557   3.729   1.306 -0.6141  0.5745  1.3458
   57MOL0     C 7592   6.444   3.673   1.359  0.1311 -0.1538 -0.4560
   57MOL0     C 7593   6.317   3.698   1.298 -0.1236  1.0854  0.6424
   57MOL0     C 7594   6.305   3.781   1.190 -0.2200 -0.5755 -0.9588
   57MOL0     O 7595   6.185   3.832   1.158  0.2346  0.4960 -0.2452
   57MOL0     C 7596   6.071   3.746   1.136 -0.3986 -0.1199 -0.5650
   57MOL0     C 7597   5.939   3.803   1.165 -0.3119 -0.3852 -1.0832
   57MOL0     C 7598   5.903   3.903   1.059 -0.5980 -0.4310  0.6376
   57MOL0     C 7599   5.770   3.968   1.072  0.6760  0.8323 -1.0881
   57MOL0     C 7600   5.734   4.089   0.978 -0.0740 -0.1698  0.2626
   57MOL0     C 7601   5.592   4.132   1.012  0.4887  0.3719  0.2725
   57MOL0     C 7602   5.552   4.255   0.933  0.3406 -0.1197 -0.1444
   57MOL0     C 7603   5.401   4.294   0.949 -1.0424  0.8655  0.7006
   57MOL0    Cl 7604   5.297   4.182   0.840 -0.3509 -0.3703  0.0718
   57MOL0     C 7605   6.414   3.849   1.138 -0.2462  0.0367  0.5428
   57MOL0     C 7606   6.540   3.819   1.195 -0.7670  0.0569 -0.6380
   57MOL0     O 7607   6.755   3.903   1.370 -0.2002 -0.3384 -0.2085
   57MOL0     C 7608   6.936   3.582   1.430 -0.7846 -0.6651  0.4750
   57MOL0     C 7609   7.059   3.530   1.453 -0.3128 -0.2250 -0.0083
   57MOL0     N 7610   7.625   3.376   1.940 -0.4930  0.0378 -0.0536
   57MOL0     N 7611   7.665   3.394   2.062  0.3249  0.0865 -0.4137
   57MOL0     C 7612   6.671   3.554   2.387  0.2688 -0.0710 -0.0082
   57MOL0     C 7613   6.578   3.510   2.295  1.1400  0.2026 -0.0771
   57MOL0     C 7614   6.300   3.236   2.074 -0.5206  0.3939 -0.1409
   57MOL0     C 7615   6.169   3.276   2.098  0.0651 -0.0328 -0.2476
   57MOL0     C 7616   6.059   3.219   2.049 -0.4545 -0.5897  0.2916
   57MOL0     C 7617   6.072   3.120   1.957  0.6085 -0.5678 -1.0082
   57MOL0     O 7618   5.971   3.067   1.884  0.2082  0.4692 -0.0372
   57MOL0     C 7619   5.863   3.150   1.851 -0.3962 -0.0485 -0.1741
   57MOL0     C 7620   5.731   3.099   1.909 -0.4035  0.1818  0.2603
   57MOL0     C 7621   5.740   3.109   2.063 -0.5466 -0.0456 -0.6080
   57MOL0     C 7622   5.604   3.052   2.125  0.3704  0.1402 -0.0031
   57MOL0     C 7623   5.602   3.081   2.264 -0.3201  0.0328 -0.2361
   57MOL0     C 7624   5.631   3.105   2.382  0.3221 -0.6135  0.7189
   57MOL0     C 7625   6.198   3.064   1.940 -1.1626  0.0566 -0.3062
   57MOL0     C 7626   6.320   3.119   1.989  0.4873 -0.0783 -0.6933
   57MOL0     C 7627   6.451   3.035   1.981  0.4374  0.1204  0.5105
   57MOL0     H 7628   6.376   3.332   2.494  1.5987 -1.8982 -0.5925
   57MOL0     H 7629   6.524   3.445   2.664 -0.6914  0.5191 -0.4211
   57MOL0     H 7630   6.786   3.449   2.754  2.6367  0.8850  1.1100
   57MOL0     H 7631   6.856   3.401   2.598  1.6581 -1.3331  1.6891
   57MOL0     H 7632   7.016   3.484   2.761 -1.8786 -2.6453 -0.7817
   57MOL0     H 7633   6.935   3.634   2.775  0.9502  1.6976 -1.3721
   57MOL0     H 7634   7.096   3.690   2.614 -2.5499  1.2573  1.7646
   57MOL0     H 7635   6.947   3.658   2.508  0.7554  0.8595 -0.6794
   57MOL0     H 7636   7.090   3.428   2.547 -2.8344  1.9752  2.2937
   57MOL0     H 7637   7.030   3.520   2.394  0.2326  2.3335 -0.5191
   57MOL0     H 7638   7.215   3.664   2.394 -1.4642 -0.2459 -0.1533
   57MOL0     H 7639   7.292   3.582   2.532  1.3099 -3.0062 -0.7098
   57MOL0     H 7640   7.291   3.369   2.424 -3.2436  0.1412 -0.0663
   57MOL0     H 7641   7.263   3.431   2.270  0.0743  0.1313 -0.0678
   57MOL0     H 7642   7.486   3.489   2.462 -3.1975 -0.7607  0.7561
   57MOL0     H 7643   7.470   3.587   2.318  0.4180 -0.6693 -1.4447
   57MOL0     H 7644   7.653   3.400   2.324  0.2567  1.7586 -0.4788
   57MOL0     H 7645   7.513   3.282   2.321 -1.5395  0.0074 -0.4081
   57MOL0     H 7646   7.344   3.347   2.088  0.9628 -1.2434  1.8784
   57MOL0     H 7647   7.476   3.329   1.719 -1.2841 -2.5917 -0.8373
   57MOL0     H 7648   7.379   3.228   1.813  1.2623 -0.9006 -2.7319
   57MOL0     H 7649   7.212   3.383   1.731 -2.2177 -1.0555  3.0146
   57MOL0     H 7650   7.236   3.416   1.894 -2.2255  2.0240 -1.2176
   57MOL0     H 7651   7.378   3.614   1.843  0.4403 -2.5715  2.1507
   57MOL0     H 7652   7.218   3.628   1.781  0.4356  1.6748 -1.1337
   57MOL0     H 7653   7.468   3.576   1.617 -0.3786 -0.6455  3.1334
   57MOL0     H 7654   7.376   3.722   1.633 -0.9561  0.5904  0.4326
   57MOL0     H 7655   7.221   3.812   1.510  1.7853 -0.5592 -0.8459
   57MOL0     H 7656   7.021   3.910   1.429 -0.2874  0.2125 -1.7068
   57MOL0     H 7657   6.453   3.612   1.448  0.3707  4.7192  3.2662
   57MOL0     H 7658   6.233   3.651   1.346 -0.3071 -0.7303 -1.2962
   57MOL0     H 7659   6.078   3.717   1.031 -2.2872  2.6234 -1.5694
   57MOL0     H 7660   6.074   3.659   1.202  0.7615 -1.5986 -2.4354
   57MOL0     H 7661   5.862   3.726   1.172 -2.0013  1.1630 -1.9208
   57MOL0     H 7662   5.941   3.858   1.259  0.9577 -0.2588 -1.1698
   57MOL0     H 7663   5.981   3.979   1.053 -1.1789  0.1803  0.7020
   57MOL0     H 7664   5.913   3.851   0.963 -2.3284 -1.9631  1.2244
   57MOL0     H 7665   5.752   3.992   1.177 -2.2420 -2.5637 -0.5880
   57MOL0     H 7666   5.706   3.881   1.052  3.5389 -1.7902  0.1926
   57MOL0     H 7667   5.737   4.069   0.871 -2.0064 -0.6818  0.2641
   57MOL0     H 7668   5.807   4.168   0.998  0.2899 -0.3950 -0.1581
   57MOL0     H 7669   5.521   4.055   0.979 -2.9301  2.9605  0.9266
   57MOL0     H 7670   5.593   4.160   1.118  3.6762  0.4468  0.3178
   57MOL0     H 7671   5.584   4.262   0.829  1.2185  0.4878  0.1556
   57MOL0     H 7672   5.608   4.337   0.979 -2.5979  2.0312 -0.1925
   57MOL0     H 7673   5.378   4.266   1.052 -1.3002 -0.6644  0.2435
   57MOL0     H 7674   5.371   4.398   0.930 -2.8414 -0.0383 -1.8961
   57MOL0     H 7675   6.395   3.924   1.062 -3.5475 -1.8650 -0.6580
   57MOL0     H 7676   6.630   3.863   1.154  0.5846 -1.4252  0.5686
   57MOL0     H 7677   6.863   3.517   1.384 -1.0110  0.7414 -1.3107
   57MOL0     H 7678   7.062   3.428   1.415 -0.9324  0.1383 -1.0729
   57MOL0     H 7679   6.754   3.622   2.369  0.0133  0.3839  0.5202
   57MOL0     H 7680   6.582   3.535   2.189 -1.9649 -0.8766 -0.5657
   57MOL0     H 7681   6.152   3.371   2.148 -0.6506 -0.2428 -0.0818
   57MOL0     H 7682   5.964   3.266   2.071 -0.1255 -0.3102  1.1436
   57MOL0     H 7683   5.847   3.148   1.742 -0.2135 -1.2530 -0.1947
   57MOL0     H 7684   5.879   3.255   1.879  0.6057 -0.9539  3.0366
   57MOL0     H 7685   5.705   2.997   1.876  1.6218 -0.1697 -0.3509
   57MOL0     H 7686   5.647   3.158   1.870 -3.5854 -2.5715  2.3677
   57MOL0     H 7687   5.731   3.214   2.091 -1.5087 -1.2178  4.4314
   57MOL0     H 7688   5.826   3.067   2.115  0.8159  1.1747 -1.7947
   57MOL0     H 7689   5.521   3.107   2.081  1.1226  0.9282 -0.4823
   57MOL0     H 7690   5.598   2.943   2.113 -0.5216  0.2803 -0.9165
   57MOL0     H 7691   5.635   3.124   2.488 -3.5780 -0.7021  1.0050
   57MOL0     H 7692   6.202   2.973   1.881  0.7821  0.8216 -1.4333
   57MOL0     H 7693   6.530   3.085   1.925 -0.2790  0.0419 -0.5959
   57MOL0     H 7694   6.486   3.013   2.082  0.0120 -0.3983  0.5473
   57MOL0     H 7695   6.438   2.946   1.919  1.6140  1.7152 -2.1963
   58MOL0     O 7696   2.665   3.584   9.508  1.2013 -0.7013 -0.4838
   58MOL0     C 7697   2.614   3.479   9.460  0.7808  0.2950 -0.8948
   58MOL0     O 7698   2.498   3.412   9.505 -0.0601 -0.0649 -1.0801
   58MOL0     C 7699   2.426   3.477   9.607  0.2672 -0.4848  0.4206
   58MOL0     C 7700   2.338   3.582   9.582 -0.8572 -0.7233 -1.0919
   58MOL0     C 7701   2.265   3.634   9.698  0.4100  0.0334  0.1933
   58MOL0     C 7702   2.290   3.592   9.824  0.8246 -0.2691 -0.6510
   58MOL0     O 7703   2.226   3.657   9.928 -0.2481  0.0892  0.0413
   58MOL0     C 7704   2.262   3.624  10.063 -0.0256  0.5616  0.3333
   58MOL0     C 7705   2.182   3.729  10.141 -0.7016  0.1418  0.0302
   58MOL0     C 7706   2.188   3.688  10.293  0.7293 -0.0299 -0.3830
   58MOL0     C 7707   2.159   3.819  10.368 -0.5620  0.4890  0.2232
   58MOL0     C 7708   2.285   3.904  10.384  0.4686  0.2191 -0.9285
   58MOL0     C 7709   2.278   4.005  10.501 -0.8960  0.3637  0.6315
   58MOL0     C 7710   2.177   4.121  10.476  0.3669 -0.4388  0.0701
   58MOL0     C 7711   2.232   4.217  10.370  0.2267 -0.5121 -0.2424
   58MOL0     N 7712   2.346   4.288  10.420  0.4360 -0.7287  0.7042
   58MOL0     C 7713   2.342   4.403  10.501  0.2181  0.5524 -0.1003
   58MOL0     C 7714   2.459   4.457  10.497 -0.1935  1.6946 -0.6192
   58MOL0     C 7715   2.500   4.591  10.553  0.3325  0.7301 -0.1589
   58MOL0     C 7716   2.600   4.589  10.670 -0.3510 -0.2852 -0.3675
   58MOL0     C 7717   2.539   4.498  10.782 -0.5627 -0.2831 -0.3993
   58MOL0     C 7718   2.634   4.488  10.909 -0.6427 -0.0091  0.5796
   58MOL0     O 7719   2.770   4.449  10.880  0.6750 -0.2369 -0.1493
   58MOL0     C 7720   2.793   4.321  10.834  0.5492 -0.2162  0.3785
   58MOL0     C 7721   2.913   4.314  10.767  1.5875  0.4624  0.2154
   58MOL0     C 7722   2.958   4.199  10.703  0.3280  0.1478  0.1338
   58MOL0     C 7723   2.884   4.080  10.719 -0.0162  0.1276  0.2112
   58MOL0     C 7724   2.927   3.957  10.654 -0.1049  0.6045  0.8898
   58MOL0     O 7725   3.043   3.963  10.582 -0.0614 -0.2880  0.2854
   58MOL0     C 7726   3.070   3.840  10.517 -0.5678 -0.4729 -0.0973
   58MOL0     C 7727   3.147   3.742  10.592  0.1686 -0.2429 -0.9360
   58MOL0     C 7728   3.189   3.629  10.528 -0.2897  0.4732  0.2041
   58MOL0     C 7729   3.159   3.612  10.384  0.8713  0.0285 -0.4967
   58MOL0     O 7730   3.192   3.494  10.307  0.2074  0.6555 -0.4931
   58MOL0     C 7731   3.187   3.370  10.379 -0.5454 -0.1986 -0.3581
   58MOL0     C 7732   3.195   3.248  10.294  0.2187 -0.0888 -0.1098
   58MOL0     C 7733   3.330   3.224  10.225  0.0962  0.3204 -0.7410
   58MOL0     C 7734   3.339   3.084  10.155  1.3966 -0.2066  0.5212
   58MOL0     C 7735   3.441   3.090  10.044 -0.0098 -0.4172  0.0095
   58MOL0     C 7736   3.463   2.952   9.983 -0.3485 -0.4102 -0.2276
   58MOL0     C 7737   3.562   2.944   9.872 -0.1329 -1.0845  0.3996
   58MOL0     C 7738   3.647   2.816   9.882  0.8768 -0.5867 -0.3091
   58MOL0    Cl 7739   3.756   2.822   9.748  0.1930  0.0980 -0.1077
   58MOL0     C 7740   3.070   3.703  10.322 -1.7559 -0.4264 -0.0828
   58MOL0     C 7741   3.042   3.825  10.380  0.0290  0.6884 -0.0723
   58MOL0     O 7742   2.841   3.865  10.643  0.3446 -0.0147 -0.2557
   58MOL0     C 7743   2.766   4.086  10.795  0.2368 -0.2731 -0.4008
   58MOL0     C 7744   2.714   4.210  10.846  0.3688  1.1157  0.3705
   58MOL0     N 7745   2.540   4.364  10.430 -0.2252  0.2640  0.1946
   58MOL0     N 7746   2.468   4.270  10.376 -0.5187 -0.1391  0.0975
   58MOL0     C 7747   2.389   3.499   9.841  1.0517 -0.5068  0.3193
   58MOL0     C 7748   2.458   3.447   9.739 -0.4819  0.9599  0.6543
   58MOL0     C 7749   2.667   3.418   9.330 -0.9682  0.3557 -0.9879
   58MOL0     C 7750   2.594   3.316   9.268 -0.3767 -0.4306 -0.2105
   58MOL0     C 7751   2.636   3.258   9.146  0.0741 -0.3365 -0.0134
   58MOL0     C 7752   2.744   3.310   9.077 -0.4232 -0.6380  0.1687
   58MOL0     O 7753   2.777   3.280   8.950 -0.0139 -0.1961  0.4484
   58MOL0     C 7754   2.661   3.240   8.877 -0.3883 -1.3677 -0.1190
   58MOL0     C 7755   2.688   3.276   8.730 -0.0284  0.9714  0.5875
   58MOL0     C 7756   2.673   3.414   8.689 -0.1948 -0.1087 -0.9799
   58MOL0     C 7757   2.788   3.503   8.732 -0.3882  0.1062 -0.7216
   58MOL0     C 7758   2.751   3.636   8.682  0.5299 -0.8878  0.3362
   58MOL0     C 7759   2.703   3.745   8.645  1.0469  0.5412 -0.9092
   58MOL0     C 7760   2.836   3.388   9.154  0.3336  0.2054 -0.2020
   58MOL0     C 7761   2.801   3.443   9.277  0.4356 -0.0168 -0.6289
   58MOL0     C 7762   2.895   3.530   9.348  0.2503 -0.0540 -0.2702
   58MOL0     H 7763   2.331   3.620   9.480  0.9017 -2.2699 -1.8419
   58MOL0     H 7764   2.187   3.708   9.681  0.3072  0.5646  2.6083
   58MOL0     H 7765   2.234   3.522  10.091 -0.2708  0.1804 -1.2072
   58MOL0     H 7766   2.368   3.644  10.083  0.2477 -0.6601  0.1485
   58MOL0     H 7767   2.078   3.735  10.108 -0.2048  2.3713 -1.4123
   58MOL0     H 7768   2.224   3.826  10.112 -1.9437 -0.0655 -2.7878
   58MOL0     H 7769   2.281   3.641  10.327  1.8456  2.1197 -0.2311
   58MOL0     H 7770   2.114   3.610  10.310  0.7243  0.4166  2.0634
   58MOL0     H 7771   2.082   3.877  10.316 -1.0026  0.3615  0.7199
   58MOL0     H 7772   2.130   3.801  10.472 -0.0180  1.8749  0.6205
   58MOL0     H 7773   2.374   3.842  10.403  0.2870  0.5902  1.3743
   58MOL0     H 7774   2.298   3.957  10.289  0.3583 -0.1251 -1.1378
   58MOL0     H 7775   2.256   3.941  10.588  2.2550 -1.3709  0.3087
   58MOL0     H 7776   2.374   4.050  10.525 -0.1802 -1.0667  0.5306
   58MOL0     H 7777   2.151   4.182  10.563  2.1419  0.9929 -0.3316
   58MOL0     H 7778   2.082   4.078  10.445  0.1214 -1.8204  2.4608
   58MOL0     H 7779   2.266   4.157  10.285  2.9352  4.0058 -2.7611
   58MOL0     H 7780   2.155   4.289  10.341  0.3903 -0.7685 -1.3609
   58MOL0     H 7781   2.259   4.456  10.548 -1.8197  0.2103 -3.0956
   58MOL0     H 7782   2.546   4.650  10.473  1.8700 -0.9832 -0.5995
   58MOL0     H 7783   2.405   4.638  10.582 -0.0766  0.0482 -0.3618
   58MOL0     H 7784   2.699   4.550  10.647 -0.7749 -1.7705  0.1435
   58MOL0     H 7785   2.621   4.685  10.717  3.9619 -0.7240 -1.0458
   58MOL0     H 7786   2.499   4.407  10.737 -4.0471 -0.1008  1.8883
   58MOL0     H 7787   2.442   4.539  10.814  1.3137  3.1999  1.4007
   58MOL0     H 7788   2.602   4.420  10.988  0.4880  1.9146  2.8260
   58MOL0     H 7789   2.642   4.586  10.958  1.9032  0.3649 -0.4115
   58MOL0     H 7790   2.974   4.404  10.763  1.6793  0.5466  2.4481
   58MOL0     H 7791   3.056   4.196  10.656  0.5247 -2.6457  0.5447
   58MOL0     H 7792   3.164   3.754  10.699 -0.6744 -1.8194 -0.5838
   58MOL0     H 7793   3.247   3.558  10.586 -0.4170  0.3146  0.1389
   58MOL0     H 7794   3.272   3.372  10.448 -0.9316  1.8505  0.1118
   58MOL0     H 7795   3.087   3.371  10.424 -1.1241  1.4739 -1.6077
   58MOL0     H 7796   3.182   3.170  10.371 -1.0994 -1.1668 -1.3773
   58MOL0     H 7797   3.115   3.252  10.220  2.1207 -0.7968 -2.3350
   58MOL0     H 7798   3.341   3.310  10.159  5.7111 -0.3406 -1.1698
   58MOL0     H 7799   3.411   3.231  10.299 -1.9639  1.4284  1.5780
   58MOL0     H 7800   3.241   3.056  10.114 -0.8379  2.7958  3.3194
   58MOL0     H 7801   3.357   3.011  10.234 -1.0544 -0.4320  0.9369
   58MOL0     H 7802   3.538   3.125  10.082  0.5043 -0.4274 -1.2489
   58MOL0     H 7803   3.411   3.162   9.968  1.1380 -1.5558 -1.6155
   58MOL0     H 7804   3.496   2.880  10.059 -0.8494 -0.6864 -0.2680
   58MOL0     H 7805   3.369   2.910   9.946 -1.9444  3.3687 -0.9232
   58MOL0     H 7806   3.625   3.028   9.902 -4.4302  2.2673  1.1838
   58MOL0     H 7807   3.521   2.973   9.775 -1.4518  1.0461  1.5060
   58MOL0     H 7808   3.689   2.792   9.980 -2.1447 -1.2595  0.9567
   58MOL0     H 7809   3.576   2.738   9.853  1.9701 -2.3992  1.5877
   58MOL0     H 7810   3.058   3.678  10.217 -0.2074 -2.6415  0.1756
   58MOL0     H 7811   2.988   3.905  10.330 -2.6379 -1.8689 -1.6072
   58MOL0     H 7812   2.715   3.991  10.807  0.6358 -0.4762 -0.2999
   58MOL0     H 7813   2.611   4.212  10.880 -0.4287 -0.7524 -1.7122
   58MOL0     H 7814   2.421   3.471   9.941 -1.0690 -2.4518  0.5138
   58MOL0     H 7815   2.538   3.378   9.760  2.5857  4.5555  1.9525
   58MOL0     H 7816   2.496   3.294   9.310 -0.1107  0.0488  0.6910
   58MOL0     H 7817   2.562   3.188   9.109 -0.8534  0.7143 -0.1874
   58MOL0     H 7818   2.572   3.291   8.914 -0.8907 -1.5694 -1.0193
   58MOL0     H 7819   2.641   3.133   8.886 -2.6971 -1.0092 -0.4915
   58MOL0     H 7820   2.620   3.215   8.669 -1.2821 -1.1181  3.7780
   58MOL0     H 7821   2.790   3.243   8.710 -1.0087 -1.6321 -0.5426
   58MOL0     H 7822   2.581   3.449   8.737  1.4322  1.2602  1.3991
   58MOL0     H 7823   2.661   3.417   8.581 -1.0937  0.7350 -0.8761
   58MOL0     H 7824   2.806   3.503   8.840  1.9271  0.1640 -1.0399
   58MOL0     H 7825   2.879   3.466   8.683 -1.3948 -1.2300 -1.6179
   58MOL0     H 7826   2.662   3.837   8.609  1.8309  1.8208  1.2742
   58MOL0     H 7827   2.932   3.409   9.109  1.4516 -4.0988 -0.2186
   58MOL0     H 7828   2.989   3.543   9.294  2.2844 -2.4052  2.3340
   58MOL0     H 7829   2.840   3.621   9.372  0.5362  0.1653 -0.4339
   58MOL0     H 7830   2.927   3.473   9.436  2.9281  0.7001 -0.6686
   59MOL0     O 7831   6.654   5.908   1.388  0.4596 -0.2070 -1.1946
   59MOL0     C 7832   6.756   5.968   1.426  1.0153  0.0982 -0.3407
   59MOL0     O 7833   6.780   6.101   1.410  1.2878 -0.2566 -0.1088
   59MOL0     C 7834   6.900   6.144   1.373  0.5900  0.0896  0.5850
   59MOL0     C 7835   6.965   6.220   1.467 -0.8983  0.0504  0.5766
   59MOL0     C 7836   7.097   6.262   1.447 -0.5515 -0.3345 -0.0776
   59MOL0     C 7837   7.166   6.219   1.339 -0.1203 -0.5325  1.6996
   59MOL0     O 7838   7.299   6.261   1.316  0.8675  0.3580 -0.0813
   59MOL0     C 7839   7.378   6.182   1.232 -0.1641  0.4810  0.4606
   59MOL0     C 7840   7.484   6.268   1.161 -0.6877  0.1332  0.5296
   59MOL0     C 7841   7.555   6.203   1.032  0.8801 -1.0106 -0.1126
   59MOL0     C 7842   7.616   6.059   1.059 -0.2882 -0.3254 -0.0119
   59MOL0     C 7843   7.659   5.993   0.922 -0.3875  0.8425 -0.1233
   59MOL0     C 7844   7.749   5.873   0.941  0.4163  0.0424  0.9400
   59MOL0     C 7845   7.725   5.775   0.816 -0.0051 -1.3309  0.6339
   59MOL0     C 7846   7.797   5.640   0.837  0.0398 -0.1274 -0.5601
   59MOL0     N 7847   7.727   5.560   0.945 -0.7364 -0.3794 -0.0429
   59MOL0     C 7848   7.759   5.576   1.073  0.0143  0.6191 -1.1044
   59MOL0     C 7849   7.719   5.464   1.132 -0.2445  0.1868  0.1921
   59MOL0     C 7850   7.763   5.415   1.271  0.5768 -0.3989  0.3405
   59MOL0     C 7851   7.762   5.529   1.370  0.3298 -0.1044 -0.3149
   59MOL0     C 7852   7.618   5.570   1.418 -0.0788 -1.0930 -0.5245
   59MOL0     C 7853   7.570   5.683   1.317 -0.5358 -0.3204 -0.2129
   59MOL0     O 7854   7.465   5.765   1.347  0.0154  0.0279 -0.0351
   59MOL0     C 7855   7.460   5.836   1.461  0.4325 -0.6342  0.1220
   59MOL0     C 7856   7.570   5.877   1.541  0.1142 -0.1230  0.0038
   59MOL0     C 7857   7.556   5.972   1.636 -0.2676 -0.5729  0.6049
   59MOL0     C 7858   7.426   6.036   1.658 -0.1346  0.4891  0.1143
   59MOL0     C 7859   7.413   6.132   1.768  0.2877  0.4558 -0.0252
   59MOL0     O 7860   7.298   6.109   1.861 -0.1659 -0.3556 -0.0629
   59MOL0     C 7861   7.258   6.208   1.941 -0.8434  1.0774  0.1541
   59MOL0     C 7862   7.203   6.179   2.069  0.3808 -0.1313  1.0096
   59MOL0     C 7863   7.154   6.281   2.153  0.3209  0.8710  0.5999
   59MOL0     C 7864   7.147   6.415   2.109  0.5300 -0.2723 -0.7084
   59MOL0     O 7865   7.092   6.519   2.183 -0.2161 -0.0572  0.1577
   59MOL0     C 7866   7.033   6.488   2.304 -0.2636 -0.4103  0.0124
   59MOL0     C 7867   6.990   6.618   2.377  0.4154 -0.3336 -0.2969
   59MOL0     C 7868   6.872   6.692   2.309  0.8403 -0.7258 -0.3219
   59MOL0     C 7869   6.818   6.816   2.386 -0.1689  0.1475 -0.0243
   59MOL0     C 7870   6.935   6.924   2.409 -0.3877  0.3064 -0.4437
   59MOL0     C 7871   6.979   6.981   2.275 -0.3583  0.3769 -0.0305
   59MOL0     C 7872   7.085   7.084   2.310  0.2214  1.4058  0.8144
   59MOL0     C 7873   7.124   7.150   2.182 -0.1193  0.5865 -0.0636
   59MOL0    Cl 7874   7.014   7.290   2.170 -0.1301 -0.0451 -0.5441
   59MOL0     C 7875   7.205   6.436   1.993  0.0859  0.5972  0.6985
   59MOL0     C 7876   7.256   6.343   1.903 -0.1167 -0.0675  0.5240
   59MOL0     O 7877   7.493   6.230   1.754  0.3869  0.8394 -0.5138
   59MOL0     C 7878   7.319   6.000   1.574 -0.2659  0.3669 -0.0952
   59MOL0     C 7879   7.340   5.901   1.481  0.1925 -0.7834  0.0313
   59MOL0     N 7880   7.663   5.381   1.034 -0.4450  0.7318  0.0606
   59MOL0     N 7881   7.661   5.448   0.927 -0.3081  0.3959  0.9184
   59MOL0     C 7882   7.094   6.164   1.237 -0.0670  1.0121 -0.4302
   59MOL0     C 7883   6.963   6.117   1.257  0.0852 -0.1924  0.7094
   59MOL0     C 7884   6.856   5.891   1.500 -0.9483  0.3100  1.2718
   59MOL0     C 7885   6.895   5.935   1.627  0.4388  0.7860  0.3500
   59MOL0     C 7886   6.986   5.860   1.695  0.0146 -0.4834  0.1650
   59MOL0     C 7887   7.045   5.742   1.651 -0.5680 -0.2686 -0.1386
   59MOL0     O 7888   7.145   5.678   1.721 -0.6113  0.7245 -0.5304
   59MOL0     C 7889   7.155   5.715   1.853  0.2097  0.3292  0.0175
   59MOL0     C 7890   7.237   5.621   1.921 -0.7703 -0.2729  0.1137
   59MOL0     C 7891   7.376   5.597   1.864  0.8436  0.2470 -0.2699
   59MOL0     C 7892   7.451   5.731   1.839  0.2468  0.0189 -0.9155
   59MOL0     C 7893   7.505   5.804   1.967 -0.1837  0.3495  0.4986
   59MOL0     C 7894   7.539   5.849   2.070 -0.2389 -0.1395  0.5683
   59MOL0     C 7895   7.003   5.701   1.525 -0.5371  0.2251  0.2184
   59MOL0     C 7896   6.902   5.765   1.445  0.7785 -1.3128 -1.0559
   59MOL0     C 7897   6.845   5.706   1.317 -0.1189 -0.1780 -0.2968
   59MOL0     H 7898   6.931   6.250   1.566 -0.4711  6.1479 -0.7201
   59MOL0     H 7899   7.160   6.309   1.522  0.5538  0.5219 -1.4735
   59MOL0     H 7900   7.420   6.105   1.297 -0.4414 -1.0024 -1.0486
   59MOL0     H 7901   7.326   6.124   1.155  1.3175 -1.1205  0.6007
   59MOL0     H 7902   7.550   6.320   1.231 -1.4514  0.4984  0.9926
   59MOL0     H 7903   7.428   6.351   1.116 -1.3860  0.1085  1.3308
   59MOL0     H 7904   7.638   6.265   0.997 -1.1151  1.5563 -0.5882
   59MOL0     H 7905   7.483   6.216   0.951 -0.7167 -0.9076  1.2699
   59MOL0     H 7906   7.706   6.060   1.121  0.3742 -1.3140 -0.9158
   59MOL0     H 7907   7.547   5.986   1.101 -0.2635 -1.0778 -1.2244
   59MOL0     H 7908   7.571   5.955   0.869  0.4764 -2.3227  0.5058
   59MOL0     H 7909   7.713   6.060   0.854  1.6833 -0.8111 -0.2309
   59MOL0     H 7910   7.855   5.897   0.951  1.0377 -3.0091  3.1089
   59MOL0     H 7911   7.720   5.824   1.034  0.4632 -2.4779 -0.2957
   59MOL0     H 7912   7.755   5.824   0.723 -0.6591  0.7855  1.4694
   59MOL0     H 7913   7.620   5.747   0.807  0.1576 -1.5801 -0.5741
   59MOL0     H 7914   7.793   5.577   0.747  0.9338  0.7020 -1.2009
   59MOL0     H 7915   7.897   5.667   0.871  0.9776 -3.6398 -0.1700
   59MOL0     H 7916   7.805   5.658   1.128  2.0721 -2.2942  1.8493
   59MOL0     H 7917   7.700   5.330   1.300  0.4388 -0.1485  0.7960
   59MOL0     H 7918   7.865   5.376   1.276  0.4441 -0.9759 -1.1055
   59MOL0     H 7919   7.828   5.503   1.453  1.7795  1.1575 -1.0249
   59MOL0     H 7920   7.818   5.610   1.323  0.0194  0.3235  0.0351
   59MOL0     H 7921   7.615   5.604   1.522  2.1016  0.7024 -0.9886
   59MOL0     H 7922   7.550   5.484   1.414 -1.5253 -0.2079  2.2951
   59MOL0     H 7923   7.525   5.637   1.229 -0.6233 -0.3476 -0.1554
   59MOL0     H 7924   7.654   5.746   1.289  0.2449 -0.3303  1.9047
   59MOL0     H 7925   7.669   5.834   1.533  1.5810  2.0535  3.7876
   59MOL0     H 7926   7.639   5.984   1.705 -0.2874 -1.0363  0.7117
   59MOL0     H 7927   7.184   6.073   2.087 -0.2760 -0.4698 -1.2709
   59MOL0     H 7928   7.120   6.255   2.252 -0.4959 -0.8723 -0.1056
   59MOL0     H 7929   6.954   6.412   2.296  0.6346 -1.1746 -3.2666
   59MOL0     H 7930   7.107   6.431   2.361 -0.8034 -4.1535 -2.6432
   59MOL0     H 7931   6.964   6.591   2.480 -2.5693  0.6116 -0.7145
   59MOL0     H 7932   7.078   6.684   2.381  0.3986 -0.1083 -2.5017
   59MOL0     H 7933   6.910   6.715   2.209 -1.4896  1.3705 -0.8176
   59MOL0     H 7934   6.788   6.622   2.309 -0.4342  0.4693  4.2395
   59MOL0     H 7935   6.775   6.785   2.482  1.3488 -1.5320  0.1607
   59MOL0     H 7936   6.732   6.859   2.334 -0.0378 -1.6632 -1.8686
   59MOL0     H 7937   7.023   6.882   2.458  1.5718  1.7263 -2.5135
   59MOL0     H 7938   6.901   7.006   2.473 -0.0354  2.2392 -2.5973
   59MOL0     H 7939   7.018   6.901   2.213  1.0538  2.2638 -1.7165
   59MOL0     H 7940   6.891   7.026   2.229 -0.2149 -2.0021 -2.9175
   59MOL0     H 7941   7.180   7.045   2.348 -0.2752  0.1497  0.8085
   59MOL0     H 7942   7.044   7.151   2.386  1.8438  1.2192  1.9036
   59MOL0     H 7943   7.224   7.190   2.199  0.5377 -1.4137  1.0701
   59MOL0     H 7944   7.121   7.093   2.088 -1.3660  1.4285 -0.5638
   59MOL0     H 7945   7.178   6.539   1.973 -2.6845  1.0142  5.1851
   59MOL0     H 7946   7.288   6.367   1.802 -0.5925 -0.1929  0.3399
   59MOL0     H 7947   7.221   6.046   1.571 -0.8662 -0.9389 -2.1320
   59MOL0     H 7948   7.259   5.892   1.410  0.3001  1.9556 -0.5439
   59MOL0     H 7949   7.137   6.158   1.137  0.5277  0.8318 -0.1657
   59MOL0     H 7950   6.898   6.077   1.179 -2.3673 -1.4023  3.1726
   59MOL0     H 7951   6.845   6.017   1.678  0.0429  0.3257  0.7116
   59MOL0     H 7952   7.011   5.900   1.793 -1.0068 -2.0605  1.1234
   59MOL0     H 7953   7.058   5.706   1.903  0.6790  1.5809  1.2304
   59MOL0     H 7954   7.192   5.817   1.868 -1.1976  0.4403  3.8582
   59MOL0     H 7955   7.193   5.523   1.937 -1.4007 -0.2780 -1.4544
   59MOL0     H 7956   7.258   5.677   2.013 -2.4173  2.5313 -1.0758
   59MOL0     H 7957   7.367   5.554   1.764 -1.3044 -0.1336  0.0289
   59MOL0     H 7958   7.439   5.527   1.919  0.9200 -1.0247 -1.8916
   59MOL0     H 7959   7.550   5.711   1.798  0.1242  1.1814 -1.8463
   59MOL0     H 7960   7.395   5.808   1.785 -2.6363 -0.8429  0.6790
   59MOL0     H 7961   7.564   5.892   2.165 -1.1957  0.9045  0.3666
   59MOL0     H 7962   7.057   5.619   1.478  2.1747  2.0131  0.0058
   59MOL0     H 7963   6.736   5.709   1.318 -0.0915  1.1783  0.7629
   59MOL0     H 7964   6.874   5.758   1.226  0.7491  0.3797  0.2758
   59MOL0     H 7965   6.875   5.601   1.320 -0.0105 -0.1356  1.9710
   60MOL0     O 7966   1.478   5.383   5.394  0.5912  0.1355  0.2054
   60MOL0     C 7967   1.572   5.409   5.468  0.0475  0.4693  0.5637
   60MOL0     O 7968   1.699   5.377   5.439 -0.3311 -0.6004 -0.9512
   60MOL0     C 7969   1.729   5.324   5.317  1.0608  0.2974  0.6361
   60MOL0     C 7970   1.764   5.404   5.207  0.7105 -0.2168 -0.2320
   60MOL0     C 7971   1.802   5.354   5.086  0.1155  0.0407 -0.2416
   60MOL0     C 7972   1.823   5.221   5.071 -0.5715  0.7478 -0.9954
   60MOL0     O 7973   1.855   5.173   4.949  0.0716  0.4349 -0.0503
   60MOL0     C 7974   1.862   5.026   4.946  0.4523  0.2632 -0.1634
   60MOL0     C 7975   1.933   4.964   4.824  0.4517 -0.2977 -0.6094
   60MOL0     C 7976   1.880   5.020   4.687  1.0545  0.2671  0.2045
   60MOL0     C 7977   1.905   4.930   4.564  0.1313 -0.5491 -0.1763
   60MOL0     C 7978   1.867   5.000   4.441  0.5185  0.4530  0.6996
   60MOL0     C 7979   1.892   4.931   4.307  0.4197 -0.1709 -0.4293
   60MOL0     C 7980   2.039   4.929   4.269 -0.4572 -0.4159  0.2887
   60MOL0     C 7981   2.071   4.806   4.192  0.0890  0.1755  0.0799
   60MOL0     N 7982   2.191   4.819   4.116  0.1562 -0.5314 -0.9931
   60MOL0     C 7983   2.309   4.784   4.169 -0.0199  0.0921  0.2393
   60MOL0     C 7984   2.398   4.800   4.065 -0.0433 -0.4591  0.2123
   60MOL0     C 7985   2.544   4.770   4.064  0.1266 -0.7585  0.4032
   60MOL0     C 7986   2.636   4.895   4.083 -0.0463  0.5303 -0.0955
   60MOL0     C 7987   2.786   4.856   4.051  0.0778 -0.4730  0.3260
   60MOL0     C 7988   2.875   4.968   4.104  0.7088 -0.4014  0.2774
   60MOL0     O 7989   3.015   4.957   4.061  1.2064 -0.5026  0.7692
   60MOL0     C 7990   3.084   4.843   4.091 -0.8302 -0.0014  1.0408
   60MOL0     C 7991   3.180   4.815   3.994 -0.2499  0.4131 -0.5710
   60MOL0     C 7992   3.249   4.698   3.982  0.8336 -0.2559  0.4670
   60MOL0     C 7993   3.228   4.613   4.081 -0.0067  0.1318 -0.5148
   60MOL0     C 7994   3.305   4.491   4.088  0.9286  0.3000  0.9620
   60MOL0     O 7995   3.374   4.463   3.979  0.6238 -0.3550  0.5181
   60MOL0     C 7996   3.441   4.342   3.976  0.1716  0.0474  1.1244
   60MOL0     C 7997   3.579   4.328   3.995  1.1286  0.0827  0.2698
   60MOL0     C 7998   3.644   4.214   3.961 -0.2737 -1.1669 -0.3346
   60MOL0     C 7999   3.581   4.109   3.896  0.6431 -0.0140 -0.4342
   60MOL0     O 8000   3.635   3.990   3.861  0.0448 -0.1528 -0.1986
   60MOL0     C 8001   3.772   3.972   3.835 -1.2215 -0.9582  0.1060
   60MOL0     C 8002   3.839   3.914   3.960  0.5674 -0.1427 -0.9629
   60MOL0     C 8003   3.967   3.835   3.909  0.4205  0.4425  0.2353
   60MOL0     C 8004   4.025   3.754   4.027  0.3306 -0.5521 -0.6161
   60MOL0     C 8005   4.156   3.680   4.001  0.1682 -0.2506 -0.4906
   60MOL0     C 8006   4.125   3.559   3.918 -0.5927  0.7728 -0.2510
   60MOL0     C 8007   4.245   3.468   3.904 -0.0094 -0.0956  0.3308
   60MOL0     C 8008   4.372   3.534   3.843 -0.3060 -0.3939 -0.6254
   60MOL0    Cl 8009   4.346   3.655   3.712  0.0707 -0.3043 -0.3737
   60MOL0     C 8010   3.442   4.122   3.881 -1.1705  0.3451 -0.6825
   60MOL0     C 8011   3.368   4.235   3.925  1.3341  0.3514  0.0910
   60MOL0     O 8012   3.321   4.424   4.196 -0.5090 -0.2438 -0.2250
   60MOL0     C 8013   3.147   4.637   4.190  0.0091 -0.1694 -0.4353
   60MOL0     C 8014   3.069   4.756   4.190 -0.1061  0.1945 -0.8992
   60MOL0     N 8015   2.326   4.839   3.949  0.1283  0.5932 -0.1072
   60MOL0     N 8016   2.194   4.847   3.983  1.1370  0.5619 -0.2458
   60MOL0     C 8017   1.788   5.141   5.179 -0.1274  0.9151 -0.1989
   60MOL0     C 8018   1.733   5.190   5.299 -0.3248 -0.5453 -0.4171
   60MOL0     C 8019   1.552   5.484   5.591 -0.4696 -0.3250 -0.2909
   60MOL0     C 8020   1.632   5.600   5.629  0.4784 -0.3961 -0.0128
   60MOL0     C 8021   1.613   5.678   5.738 -0.0476  0.4554  0.1532
   60MOL0     C 8022   1.522   5.630   5.832  0.0070 -0.0572  0.2675
   60MOL0     O 8023   1.499   5.707   5.946 -0.1300  1.0985 -0.0164
   60MOL0     C 8024   1.617   5.767   5.993  0.4134  0.0075 -0.7381
   60MOL0     C 8025   1.622   5.771   6.149  0.5634  1.0808  0.0646
   60MOL0     C 8026   1.488   5.819   6.214  0.0529 -0.4855 -0.0379
   60MOL0     C 8027   1.500   5.829   6.367  0.2227  0.0681 -0.6318
   60MOL0     C 8028   1.564   5.954   6.404  0.3883 -0.0548  0.5754
   60MOL0     C 8029   1.620   6.059   6.422  0.4329  0.2290  0.3248
   60MOL0     C 8030   1.439   5.521   5.808 -0.4218 -0.3167  0.6477
   60MOL0     C 8031   1.450   5.443   5.689 -0.9146  0.3394 -0.4067
   60MOL0     C 8032   1.357   5.336   5.673  0.4099  0.0447  0.3346
   60MOL0     H 8033   1.765   5.511   5.226  0.0160 -0.0001 -1.3475
   60MOL0     H 8034   1.830   5.427   5.011 -0.1845  0.8076  0.3775
   60MOL0     H 8035   1.914   4.991   5.035 -0.2122 -0.4358 -0.0477
   60MOL0     H 8036   1.757   4.998   4.932  0.1559  2.1435 -2.6291
   60MOL0     H 8037   1.918   4.856   4.833 -0.9324  0.0632  3.4726
   60MOL0     H 8038   2.040   4.988   4.826  0.2571  0.6564  2.5323
   60MOL0     H 8039   1.928   5.117   4.670  1.1775 -0.1029 -1.8718
   60MOL0     H 8040   1.774   5.046   4.701  1.0997  1.4259 -1.3247
   60MOL0     H 8041   2.011   4.901   4.563  1.5145  3.6607 -2.3169
   60MOL0     H 8042   1.838   4.845   4.562  0.7680 -1.1459 -3.7223
   60MOL0     H 8043   1.766   5.041   4.435  0.3845 -0.0147 -0.5319
   60MOL0     H 8044   1.931   5.089   4.450 -1.0931  2.0232 -2.1197
   60MOL0     H 8045   1.857   4.828   4.321  0.7652 -0.3644 -0.9472
   60MOL0     H 8046   1.839   4.973   4.221 -1.2463 -0.1631  0.5663
   60MOL0     H 8047   2.101   4.947   4.357  0.3433  1.6292 -0.6373
   60MOL0     H 8048   2.061   5.016   4.206 -0.7735  1.5736  2.7351
   60MOL0     H 8049   2.083   4.727   4.268  1.2916  1.3427  1.1557
   60MOL0     H 8050   1.985   4.776   4.131  0.8569 -0.0958 -0.9014
   60MOL0     H 8051   2.322   4.757   4.273  1.5641 -0.7124 -0.1403
   60MOL0     H 8052   2.567   4.693   4.139 -0.8123  1.0114  2.6126
   60MOL0     H 8053   2.558   4.715   3.970 -2.9665 -1.6757  0.3762
   60MOL0     H 8054   2.587   4.971   4.022  0.8911  3.2045  2.2601
   60MOL0     H 8055   2.628   4.938   4.184  1.3461  5.6459 -1.8565
   60MOL0     H 8056   2.794   4.850   3.942 -0.7729  1.2941  0.1311
   60MOL0     H 8057   2.798   4.762   4.106 -0.2457  0.6875  2.4906
   60MOL0     H 8058   2.881   4.985   4.212 -0.6534  0.5507  0.2414
   60MOL0     H 8059   2.826   5.063   4.078 -0.6987 -1.5396 -1.5845
   60MOL0     H 8060   3.194   4.890   3.916 -1.0033  0.4306 -0.6913
   60MOL0     H 8061   3.305   4.682   3.891  2.1284 -0.4517  1.2675
   60MOL0     H 8062   3.635   4.419   4.012 -0.8904  1.1234  1.8069
   60MOL0     H 8063   3.749   4.201   3.986  0.6685  0.3745 -3.1003
   60MOL0     H 8064   3.771   3.913   3.743 -3.1280  0.3862 -0.8199
   60MOL0     H 8065   3.818   4.069   3.813 -0.5217 -0.8531  1.8615
   60MOL0     H 8066   3.858   3.993   4.033 -1.8440  0.2483 -0.6839
   60MOL0     H 8067   3.764   3.845   4.001 -1.4783  0.0894 -4.0223
   60MOL0     H 8068   3.937   3.757   3.838  0.0849  0.0945  0.7570
   60MOL0     H 8069   4.038   3.900   3.857 -0.4752 -0.5997 -2.4833
   60MOL0     H 8070   3.949   3.692   4.076  1.0724  0.0191  1.3323
   60MOL0     H 8071   4.038   3.830   4.104  0.2011 -0.8897 -0.2572
   60MOL0     H 8072   4.192   3.667   4.103 -0.2095  1.1436 -0.1580
   60MOL0     H 8073   4.229   3.747   3.953  2.3437 -0.4773  2.2439
   60MOL0     H 8074   4.048   3.505   3.973  2.3132  0.2749  3.8183
   60MOL0     H 8075   4.083   3.584   3.820 -2.1279 -0.2664  0.1069
   60MOL0     H 8076   4.212   3.380   3.848  0.5494 -0.9898  1.3703
   60MOL0     H 8077   4.283   3.434   4.000  3.2979  0.3390 -0.6945
   60MOL0     H 8078   4.429   3.576   3.927 -0.0357 -2.6221  0.3995
   60MOL0     H 8079   4.431   3.450   3.803 -0.1497 -1.2904  1.3482
   60MOL0     H 8080   3.387   4.040   3.835  0.2291  0.5359 -2.8253
   60MOL0     H 8081   3.263   4.238   3.898  1.4200 -2.4383 -0.8556
   60MOL0     H 8082   3.132   4.560   4.265 -2.1828 -2.3476 -2.8799
   60MOL0     H 8083   3.009   4.772   4.279 -1.4336 -1.3821 -1.4577
   60MOL0     H 8084   1.802   5.034   5.190  3.4844  1.0013 -2.4124
   60MOL0     H 8085   1.717   5.133   5.391 -3.0757  0.9540  0.1576
   60MOL0     H 8086   1.713   5.630   5.564 -1.7524  1.3128 -2.1972
   60MOL0     H 8087   1.679   5.761   5.760 -0.4923  1.3311 -1.7228
   60MOL0     H 8088   1.613   5.869   5.954 -0.3194  0.1324 -0.3478
   60MOL0     H 8089   1.704   5.720   5.946  0.7887  0.6647 -0.7216
   60MOL0     H 8090   1.701   5.841   6.179  0.4618  1.3873 -0.3836
   60MOL0     H 8091   1.657   5.676   6.193  1.2111  2.1741  2.0472
   60MOL0     H 8092   1.404   5.759   6.178 -0.7000 -0.4077  1.4861
   60MOL0     H 8093   1.462   5.912   6.163  1.4540 -1.4144 -2.6098
   60MOL0     H 8094   1.404   5.817   6.419  0.1312  1.9973 -0.2711
   60MOL0     H 8095   1.571   5.755   6.404 -0.4989  0.3567  1.4453
   60MOL0     H 8096   1.688   6.141   6.436  1.0086 -0.1142 -0.4112
   60MOL0     H 8097   1.355   5.501   5.873 -1.7443  1.5834 -0.3574
   60MOL0     H 8098   1.412   5.252   5.630  0.3169 -0.0595  0.4195
   60MOL0     H 8099   1.336   5.314   5.778 -0.6273 -0.3150  0.0635
   60MOL0     H 8100   1.272   5.358   5.607  3.1713  2.1937 -2.8332
   61MOL0     O 8101   6.608   4.192   3.176  0.1927 -0.6833  0.4315
   61MOL0     C 8102   6.633   4.170   3.291  0.3825 -0.0680  0.3549
   61MOL0     O 8103   6.552   4.167   3.398 -0.2710 -0.0894  0.4831
   61MOL0     C 8104   6.421   4.202   3.397  0.8938 -0.4826 -0.0452
   61MOL0     C 8105   6.352   4.151   3.509  0.7097 -0.9066  0.0785
   61MOL0     C 8106   6.215   4.176   3.532 -0.3536 -0.7780 -0.5835
   61MOL0     C 8107   6.149   4.264   3.440  0.4086  0.2064 -0.5918
   61MOL0     O 8108   6.021   4.308   3.468  0.0722 -0.4739  0.2677
   61MOL0     C 8109   5.924   4.235   3.391  0.2122 -0.5221 -0.0830
   61MOL0     C 8110   5.864   4.332   3.283 -0.4336 -0.2809 -0.4411
   61MOL0     C 8111   5.834   4.263   3.153 -0.5986  0.0695  0.2440
   61MOL0     C 8112   5.678   4.239   3.144 -0.5745  0.0584 -0.6907
   61MOL0     C 8113   5.640   4.194   2.996  0.1174 -0.1365 -0.1492
   61MOL0     C 8114   5.702   4.044   2.961  0.2842 -0.4154 -0.7707
   61MOL0     C 8115   5.667   4.030   2.816 -0.3108 -0.4651  0.4848
   61MOL0     C 8116   5.714   3.886   2.771  0.2846 -0.6639 -0.1015
   61MOL0     N 8117   5.651   3.871   2.639 -0.5764 -0.2595 -0.0971
   61MOL0     C 8118   5.714   3.886   2.514  0.0532 -0.1494 -0.2789
   61MOL0     C 8119   5.615   3.885   2.428  1.2015  0.7616  0.8403
   61MOL0     C 8120   5.634   3.887   2.277  0.3687 -0.1362 -0.4810
   61MOL0     C 8121   5.495   3.883   2.200 -0.1423  0.4884  0.2759
   61MOL0     C 8122   5.405   3.999   2.215 -0.1909  0.1503 -0.0207
   61MOL0     C 8123   5.296   3.988   2.102 -0.1139 -0.6138  0.0605
   61MOL0     O 8124   5.223   4.111   2.081 -0.3697 -0.0166  0.4943
   61MOL0     C 8125   5.101   4.128   2.135  0.2067 -0.2462 -0.6171
   61MOL0     C 8126   5.065   4.087   2.265  0.4649 -0.8032 -0.5575
   61MOL0     C 8127   4.929   4.098   2.303 -0.6612 -0.1532  0.5856
   61MOL0     C 8128   4.841   4.161   2.222 -0.0743 -0.6284  0.0839
   61MOL0     C 8129   4.692   4.186   2.253  0.4487  0.0010 -0.5875
   61MOL0     O 8130   4.616   4.245   2.161  0.2955  0.0247 -0.0381
   61MOL0     C 8131   4.479   4.257   2.174  0.1930 -1.3716 -0.4514
   61MOL0     C 8132   4.423   4.370   2.115 -0.2344 -1.0134  1.0427
   61MOL0     C 8133   4.290   4.393   2.111 -0.2563 -0.2177  0.7248
   61MOL0     C 8134   4.206   4.297   2.157 -0.6456  0.7581  0.3041
   61MOL0     O 8135   4.076   4.316   2.149 -0.2140  0.1159 -0.6884
   61MOL0     C 8136   4.025   4.428   2.216  0.6738  0.3026  0.4806
   61MOL0     C 8137   3.942   4.501   2.105 -0.6856 -0.4207  0.1292
   61MOL0     C 8138   3.801   4.460   2.083 -0.3308 -0.7199  0.2831
   61MOL0     C 8139   3.725   4.561   1.998 -0.4685  0.3944 -0.6143
   61MOL0     C 8140   3.581   4.513   1.991 -0.8065  0.3084 -0.1017
   61MOL0     C 8141   3.498   4.614   1.912 -0.2030  0.6413 -0.2181
   61MOL0     C 8142   3.363   4.543   1.870 -0.3170 -0.0767 -0.1192
   61MOL0     C 8143   3.277   4.501   1.989 -0.7624 -0.6966 -0.7572
   61MOL0    Cl 8144   3.137   4.404   1.948 -0.1821  0.1155 -0.3267
   61MOL0     C 8145   4.250   4.175   2.213  0.3559  1.3865 -0.0998
   61MOL0     C 8146   4.392   4.163   2.224  0.2700  0.0558  0.3366
   61MOL0     O 8147   4.649   4.139   2.361  0.4419  0.0358 -1.1643
   61MOL0     C 8148   4.884   4.229   2.110 -0.8431  0.0080  0.2967
   61MOL0     C 8149   5.012   4.209   2.062 -0.0790 -0.0318 -0.4322
   61MOL0     N 8150   5.494   3.869   2.495  0.1371 -0.5113 -0.5607
   61MOL0     N 8151   5.513   3.868   2.624 -0.1413 -0.0483  0.1995
   61MOL0     C 8152   6.211   4.301   3.325 -1.0411 -0.0982  0.2932
   61MOL0     C 8153   6.349   4.277   3.301 -0.1576  0.2993  0.0187
   61MOL0     C 8154   6.783   4.170   3.316  0.6627 -0.4849 -0.1126
   61MOL0     C 8155   6.875   4.182   3.212  0.9486 -0.1963  0.6418
   61MOL0     C 8156   7.011   4.194   3.224 -0.4986 -0.7569  0.0391
   61MOL0     C 8157   7.072   4.168   3.349  0.0768  0.8405  0.1688
   61MOL0     O 8158   7.206   4.182   3.361 -0.4320 -0.3807  0.2569
   61MOL0     C 8159   7.272   4.064   3.380 -0.0565  0.5543  0.2104
   61MOL0     C 8160   7.421   4.091   3.376 -0.1485  0.7554  1.4654
   61MOL0     C 8161   7.456   4.151   3.513  0.7177  0.0028  0.5573
   61MOL0     C 8162   7.542   4.062   3.602 -0.0740 -0.8333 -0.0608
   61MOL0     C 8163   7.673   4.061   3.535  0.0443 -0.6630  0.1484
   61MOL0     C 8164   7.783   4.062   3.485  0.0190  0.1117  0.1483
   61MOL0     C 8165   6.984   4.150   3.455 -0.3638 -0.7136  0.2764
   61MOL0     C 8166   6.849   4.161   3.438  0.0230 -0.4762  0.1490
   61MOL0     C 8167   6.774   4.141   3.573 -0.9068 -0.4784 -0.0655
   61MOL0     H 8168   6.416   4.111   3.586  2.0920  2.0357  0.5863
   61MOL0     H 8169   6.171   4.136   3.622  0.6438 -0.0024  0.2732
   61MOL0     H 8170   5.969   4.148   3.344  1.1122  0.2388 -0.6727
   61MOL0     H 8171   5.837   4.209   3.452  1.5777 -2.2506  1.2240
   61MOL0     H 8172   5.936   4.409   3.256 -1.0597  0.0383 -1.2441
   61MOL0     H 8173   5.779   4.384   3.326 -0.9734 -1.4303 -0.0660
   61MOL0     H 8174   5.891   4.170   3.152 -0.6110  0.0475  1.0189
   61MOL0     H 8175   5.864   4.329   3.071 -4.4807 -0.6420 -2.0331
   61MOL0     H 8176   5.643   4.173   3.224  0.8992  0.2908  0.1812
   61MOL0     H 8177   5.622   4.333   3.149  2.6110  2.0969 -1.0129
   61MOL0     H 8178   5.531   4.196   2.988 -0.0167  3.6460  0.8105
   61MOL0     H 8179   5.687   4.270   2.933  1.8408  1.4466  2.7666
   61MOL0     H 8180   5.805   4.040   2.997 -0.9410 -0.6467  3.2508
   61MOL0     H 8181   5.654   3.972   3.028  2.1975  0.2535  1.4504
   61MOL0     H 8182   5.707   4.115   2.759 -1.5656 -0.2182 -0.0530
   61MOL0     H 8183   5.559   4.045   2.817 -0.1903  0.4716  1.1326
   61MOL0     H 8184   5.822   3.871   2.769  0.5312  1.0001 -1.3220
   61MOL0     H 8185   5.663   3.816   2.838 -1.0795  0.1802 -0.2132
   61MOL0     H 8186   5.822   3.891   2.502  0.0022  0.8443 -0.3999
   61MOL0     H 8187   5.670   3.986   2.248 -0.2168  0.2287 -0.0097
   61MOL0     H 8188   5.698   3.807   2.240  0.8269 -0.7896  1.5749
   61MOL0     H 8189   5.525   3.875   2.095  0.6477  1.4007  0.4182
   61MOL0     H 8190   5.441   3.797   2.241 -2.5368  1.0366 -1.5082
   61MOL0     H 8191   5.458   4.093   2.195  3.2498 -2.0017 -2.0771
   61MOL0     H 8192   5.359   4.007   2.314 -2.5835  1.5995 -1.1720
   61MOL0     H 8193   5.238   3.896   2.112 -2.1890  0.6078 -0.1894
   61MOL0     H 8194   5.344   3.969   2.005 -0.2071 -2.9519  0.4222
   61MOL0     H 8195   5.135   4.042   2.335  1.3684  0.6306 -0.5070
   61MOL0     H 8196   4.909   4.066   2.404  1.3882  2.1186  1.8213
   61MOL0     H 8197   4.496   4.448   2.097 -2.1394  1.3108  2.7564
   61MOL0     H 8198   4.248   4.483   2.068 -2.9330 -0.9779  1.5319
   61MOL0     H 8199   3.955   4.398   2.295  0.6664 -1.7756 -0.2576
   61MOL0     H 8200   4.109   4.491   2.247 -0.2513  0.8152  2.0418
   61MOL0     H 8201   3.940   4.603   2.145 -0.1994 -0.3856  0.0775
   61MOL0     H 8202   3.981   4.514   2.003 -2.2586  1.0717 -0.3427
   61MOL0     H 8203   3.795   4.364   2.031 -0.8140 -1.0238  0.8710
   61MOL0     H 8204   3.758   4.444   2.183  1.0215  0.4705  1.0959
   61MOL0     H 8205   3.779   4.571   1.903  0.6077 -2.7480 -0.4376
   61MOL0     H 8206   3.728   4.656   2.053 -0.8564 -0.1741  0.4087
   61MOL0     H 8207   3.532   4.509   2.088  0.0634 -0.0640  0.3345
   61MOL0     H 8208   3.583   4.411   1.953  1.5064  0.0954  0.4502
   61MOL0     H 8209   3.472   4.692   1.985 -1.8293 -1.1458  1.2121
   61MOL0     H 8210   3.556   4.659   1.830  1.0605 -0.4686  0.0275
   61MOL0     H 8211   3.391   4.457   1.808 -0.1819 -0.3792  0.3594
   61MOL0     H 8212   3.314   4.616   1.804  0.4142  1.0804  0.5795
   61MOL0     H 8213   3.326   4.441   2.067  0.0812  1.1378  0.1714
   61MOL0     H 8214   3.238   4.589   2.040  2.3933  0.2761  0.1953
   61MOL0     H 8215   4.202   4.086   2.254  3.1499 -0.8709 -1.3883
   61MOL0     H 8216   4.434   4.075   2.271  1.0254  0.2692  0.0599
   61MOL0     H 8217   4.822   4.291   2.046  1.0616  1.2741 -0.4216
   61MOL0     H 8218   5.046   4.264   1.975 -0.3819 -0.1891 -0.6527
   61MOL0     H 8219   6.169   4.365   3.248 -1.0035 -1.8715 -1.2691
   61MOL0     H 8220   6.397   4.326   3.217 -2.0402  1.9503 -0.1764
   61MOL0     H 8221   6.841   4.195   3.109  1.5800 -0.5924  0.3718
   61MOL0     H 8222   7.070   4.222   3.138 -0.2132  1.6222  0.9413
   61MOL0     H 8223   7.225   4.009   3.298 -2.1026  1.6334  0.5649
   61MOL0     H 8224   7.255   3.999   3.467  0.6532 -1.2999 -0.9887
   61MOL0     H 8225   7.445   4.162   3.296 -0.1968  1.6689  2.2560
   61MOL0     H 8226   7.470   3.995   3.352  1.4993  1.0061  3.5396
   61MOL0     H 8227   7.361   4.164   3.566  0.0207  2.3841 -1.1083
   61MOL0     H 8228   7.513   4.240   3.486  1.6053 -1.1398 -1.6474
   61MOL0     H 8229   7.563   4.118   3.694 -0.2070  2.9130 -2.1025
   61MOL0     H 8230   7.505   3.963   3.628 -0.3592 -0.6885  0.0929
   61MOL0     H 8231   7.879   4.085   3.442 -0.4700  3.6000  0.6536
   61MOL0     H 8232   7.035   4.139   3.550  2.1514  3.3548 -0.3840
   61MOL0     H 8233   6.849   4.131   3.652 -2.4131 -2.5743  1.2000
   61MOL0     H 8234   6.716   4.231   3.597  1.7395  1.1896  0.5126
   61MOL0     H 8235   6.719   4.047   3.564 -1.0423 -0.7004  2.4566
   62MOL0     O 8236   9.422  10.565   1.729 -0.2372  1.5113 -0.2385
   62MOL0     C 8237   9.373  10.457   1.751  0.4991  0.6688  0.2873
   62MOL0     O 8238   9.387  10.376   1.859 -0.0589 -0.1100  0.0129
   62MOL0     C 8239   9.494  10.395   1.942 -0.1090  0.3648  0.6650
   62MOL0     C 8240   9.623  10.401   1.884  0.0012  0.7560 -0.6268
   62MOL0     C 8241   9.739  10.436   1.957  0.8979  0.2144 -0.2335
   62MOL0     C 8242   9.722  10.475   2.095  0.3240 -0.1206  0.0850
   62MOL0     O 8243   9.822  10.500   2.177 -0.2848 -0.7019  0.1980
   62MOL0     C 8244   9.953  10.463   2.142  0.4396  0.1059  0.9757
   62MOL0     C 8245  10.049  10.502   2.251 -0.0901 -0.9654  0.5488
   62MOL0     C 8246  10.195  10.460   2.224 -0.6963 -0.3430  0.4635
   62MOL0     C 8247  10.215  10.315   2.271 -0.2811  0.4578  0.3250
   62MOL0     C 8248  10.365  10.283   2.261 -0.2292 -0.1611 -0.3440
   62MOL0     C 8249  10.433  10.292   2.122 -0.2720  0.1561 -0.3410
   62MOL0     C 8250  10.588  10.264   2.133 -0.0228 -0.0849  0.7223
   62MOL0     C 8251  10.619  10.134   2.074  0.5089  0.6272  0.1857
   62MOL0     N 8252  10.757  10.104   2.093 -0.1377  0.6572  0.5702
   62MOL0     C 8253  10.867  10.148   2.024  0.7350 -1.0577 -0.3439
   62MOL0     C 8254  10.974  10.093   2.081 -0.0204 -0.1462 -0.1425
   62MOL0     C 8255  11.111  10.145   2.034 -0.1616 -0.4238  0.7741
   62MOL0     C 8256  11.220  10.039   1.996  0.7968 -0.8300  1.0578
   62MOL0     C 8257  11.174   9.945   1.881 -0.4489 -0.3539  0.8679
   62MOL0     C 8258  11.294   9.845   1.866  0.1492 -0.2690  0.0897
   62MOL0     O 8259  11.311   9.777   1.989 -0.4016 -0.3498  0.1174
   62MOL0     C 8260  11.405   9.680   1.993  0.6301  0.9534  0.8783
   62MOL0     C 8261  11.482   9.617   1.890 -0.6469 -0.7011 -0.1542
   62MOL0     C 8262  11.572   9.518   1.920  0.1989  0.1839 -0.1255
   62MOL0     C 8263  11.593   9.471   2.049 -0.3097 -0.0654 -0.2842
   62MOL0     C 8264  11.703   9.390   2.079  0.3467  0.5929  0.0212
   62MOL0     O 8265  11.753   9.376   2.198  0.2383  0.2292 -0.1521
   62MOL0     C 8266  11.850   9.277   2.227  0.0222  0.6366 -0.3214
   62MOL0     C 8267  11.948   9.280   2.332  0.1558 -0.6065  0.2660
   62MOL0     C 8268  12.037   9.183   2.357 -0.1654 -0.0265 -0.4899
   62MOL0     C 8269  12.040   9.062   2.287  0.4160 -0.2137  0.7947
   62MOL0     O 8270  12.148   8.976   2.297 -0.3827 -0.1451 -0.1527
   62MOL0     C 8271  12.175   8.859   2.218 -1.0342 -0.4883  1.1215
   62MOL0     C 8272  12.298   8.791   2.273  0.3791  0.1310 -0.2823
   62MOL0     C 8273  12.307   8.759   2.420 -0.4590 -0.3232 -0.2104
   62MOL0     C 8274  12.228   8.639   2.454  0.2946 -0.0168  0.0976
   62MOL0     C 8275  12.244   8.591   2.598  0.6730 -0.0778  0.3641
   62MOL0     C 8276  12.368   8.515   2.631 -0.3369 -0.1088  0.1312
   62MOL0     C 8277  12.375   8.381   2.564  0.0817 -0.1204  0.5931
   62MOL0     C 8278  12.493   8.301   2.610  0.7191  0.1502 -0.0258
   62MOL0    Cl 8279  12.451   8.135   2.639  0.2376 -0.1813 -0.4042
   62MOL0     C 8280  11.944   9.043   2.188 -0.4822  0.4177  0.2425
   62MOL0     C 8281  11.853   9.152   2.159  0.2790 -0.0390  0.1571
   62MOL0     O 8282  11.732   9.317   1.982  0.5032  0.5776  0.2385
   62MOL0     C 8283  11.514   9.525   2.156  0.5913 -0.2152  1.0747
   62MOL0     C 8284  11.430   9.629   2.114 -0.2053 -0.2423  0.2354
   62MOL0     N 8285  10.929  10.029   2.194  0.5128  0.4825  0.1276
   62MOL0     N 8286  10.800  10.031   2.194  0.4317 -0.3856 -0.1268
   62MOL0     C 8287   9.595  10.455   2.154 -1.1168 -0.2701 -0.6302
   62MOL0     C 8288   9.478  10.435   2.079  0.1985 -0.5496  0.5593
   62MOL0     C 8289   9.260  10.411   1.658 -0.0844  0.1463  0.5346
   62MOL0     C 8290   9.264  10.431   1.520 -0.1616 -0.0248 -1.3374
   62MOL0     C 8291   9.163  10.380   1.442 -0.4432 -1.0579  0.2424
   62MOL0     C 8292   9.055  10.314   1.479  0.3023 -0.2855 -0.5426
   62MOL0     O 8293   8.954  10.257   1.402 -0.5302  0.4391  0.1660
   62MOL0     C 8294   8.973  10.254   1.258 -0.0210  0.0526 -0.8190
   62MOL0     C 8295   8.849  10.212   1.180 -0.1787 -0.6895 -1.2187
   62MOL0     C 8296   8.756  10.336   1.156 -0.0362 -0.2888  1.1505
   62MOL0     C 8297   8.616  10.301   1.101 -0.7727 -0.4433 -0.2372
   62MOL0     C 8298   8.554  10.195   1.185 -0.1330  0.3810 -0.4049
   62MOL0     C 8299   8.492  10.102   1.227 -0.1275  0.8371  0.2913
   62MOL0     C 8300   9.044  10.285   1.616  0.2457 -0.1213  0.2128
   62MOL0     C 8301   9.140  10.338   1.705 -0.1815  0.2714  0.0039
   62MOL0     C 8302   9.095  10.322   1.852  0.1853  0.0896 -0.5138
   62MOL0     H 8303   9.641  10.383   1.778  0.6954  0.5087 -0.4657
   62MOL0     H 8304   9.833  10.453   1.903  1.9198  0.2706  1.4984
   62MOL0     H 8305   9.963  10.356   2.120  1.4792  0.6441 -1.4648
   62MOL0     H 8306   9.977  10.520   2.052  2.5457 -2.7165 -0.4109
   62MOL0     H 8307  10.016  10.445   2.339  0.1586 -0.0337  1.2647
   62MOL0     H 8308  10.042  10.610   2.266 -2.0185 -1.0532  0.5602
   62MOL0     H 8309  10.268  10.527   2.271 -2.0662 -0.8029  3.5377
   62MOL0     H 8310  10.217  10.473   2.118  0.7353 -0.2412  0.7525
   62MOL0     H 8311  10.193  10.303   2.378 -0.9475 -3.6337 -0.1088
   62MOL0     H 8312  10.153  10.248   2.210 -1.7928  2.9460 -1.0474
   62MOL0     H 8313  10.415  10.351   2.330  0.0421 -1.4574  0.7791
   62MOL0     H 8314  10.383  10.179   2.289 -2.2246  0.1221  2.4699
   62MOL0     H 8315  10.389  10.218   2.055  1.5594  0.3424 -1.8637
   62MOL0     H 8316  10.417  10.394   2.085  1.0349  1.2078  1.8050
   62MOL0     H 8317  10.622  10.262   2.237 -0.8234 -0.5360  0.9848
   62MOL0     H 8318  10.642  10.347   2.087  2.4471 -1.8022  0.3405
   62MOL0     H 8319  10.562  10.055   2.125  2.8151  0.1901  2.2173
   62MOL0     H 8320  10.591  10.128   1.968 -2.1012 -2.5553  0.8741
   62MOL0     H 8321  10.871  10.233   1.957 -0.9290  2.2492  3.3561
   62MOL0     H 8322  11.096  10.204   1.943  1.1246  1.0358  1.4674
   62MOL0     H 8323  11.154  10.224   2.096  1.0803 -0.4164 -0.0624
   62MOL0     H 8324  11.315  10.091   1.984  0.8950 -1.1645  0.3674
   62MOL0     H 8325  11.231   9.976   2.084 -0.0444 -2.5458 -0.0045
   62MOL0     H 8326  11.154  10.011   1.796  0.9938  1.7247  2.0703
   62MOL0     H 8327  11.080   9.897   1.912 -0.6834 -0.7538 -0.4264
   62MOL0     H 8328  11.381   9.905   1.839 -0.7009  1.3753  0.8019
   62MOL0     H 8329  11.280   9.778   1.781 -0.1040  2.0106 -1.7567
   62MOL0     H 8330  11.477   9.658   1.789  0.5616  0.0738  0.0769
   62MOL0     H 8331  11.628   9.479   1.835 -1.0986  0.8630 -1.3365
   62MOL0     H 8332  11.957   9.367   2.397  2.9323  0.1238 -0.9361
   62MOL0     H 8333  12.106   9.188   2.440 -1.7847 -0.3578  0.9274
   62MOL0     H 8334  12.088   8.794   2.222 -0.0128 -1.9667  0.2774
   62MOL0     H 8335  12.200   8.894   2.117  0.0586  0.5977  1.7373
   62MOL0     H 8336  12.299   8.701   2.212 -3.0286  0.5232 -1.0977
   62MOL0     H 8337  12.385   8.853   2.247 -1.9385  3.4817 -0.7223
   62MOL0     H 8338  12.408   8.736   2.454 -1.3624 -3.6342  0.5916
   62MOL0     H 8339  12.274   8.848   2.475 -1.1441 -0.5775 -0.1965
   62MOL0     H 8340  12.255   8.560   2.383 -0.3283 -1.1240  1.0587
   62MOL0     H 8341  12.122   8.661   2.434  0.5461  1.7927  0.6291
   62MOL0     H 8342  12.164   8.520   2.620  1.4520 -0.3615  2.4644
   62MOL0     H 8343  12.236   8.680   2.660  0.3352  1.6573 -2.0498
   62MOL0     H 8344  12.461   8.572   2.619  0.1587 -0.7082  0.9863
   62MOL0     H 8345  12.359   8.489   2.737  0.3436 -1.8446 -0.2151
   62MOL0     H 8346  12.382   8.383   2.454  0.8328 -3.6318  0.4705
   62MOL0     H 8347  12.296   8.312   2.593  2.1371 -2.8193  0.1619
   62MOL0     H 8348  12.564   8.311   2.527 -1.0590  0.4827 -1.5847
   62MOL0     H 8349  12.527   8.341   2.705 -1.2463 -1.5880  1.4938
   62MOL0     H 8350  11.953   8.947   2.137 -0.0162  0.9417 -0.6732
   62MOL0     H 8351  11.775   9.125   2.089 -1.0882  0.0455  1.5823
   62MOL0     H 8352  11.527   9.500   2.261  0.0535 -1.6532  0.8215
   62MOL0     H 8353  11.386   9.682   2.197  0.6057  2.5826 -1.0357
   62MOL0     H 8354   9.582  10.449   2.262  3.0020 -0.9393 -0.0145
   62MOL0     H 8355   9.377  10.432   2.119 -1.2379  0.0075 -2.6853
   62MOL0     H 8356   9.343  10.494   1.479  0.7786 -0.1413  0.2174
   62MOL0     H 8357   9.179  10.398   1.336  0.7936 -0.5846  0.4957
   62MOL0     H 8358   9.064  10.196   1.238  1.2415  1.6534 -0.0078
   62MOL0     H 8359   9.000  10.356   1.228  1.1399  0.1078  0.3191
   62MOL0     H 8360   8.798  10.131   1.233  2.2303 -1.8573 -0.5545
   62MOL0     H 8361   8.869  10.167   1.083 -0.0531 -3.1281 -0.1348
   62MOL0     H 8362   8.806  10.402   1.085  1.7242 -2.8286 -0.1148
   62MOL0     H 8363   8.743  10.393   1.249  0.5162 -0.0490  1.0822
   62MOL0     H 8364   8.554  10.390   1.109  1.3707  1.0792  0.5838
   62MOL0     H 8365   8.624  10.265   0.998  3.0831 -5.0103  1.2295
   62MOL0     H 8366   8.449  10.010   1.261  0.8450  0.1997 -0.1758
   62MOL0     H 8367   8.952  10.239   1.650 -0.9078  1.9886  0.0872
   62MOL0     H 8368   8.990  10.346   1.871  0.1301  0.2094 -0.9533
   62MOL0     H 8369   9.112  10.219   1.885  2.5836  0.8448  0.8675
   62MOL0     H 8370   9.153  10.396   1.908 -1.1238  1.4687 -0.9255
   63MOL0     O 8371   2.835   4.798   1.771  0.6134 -0.4921  0.5111
   63MOL0     C 8372   2.760   4.709   1.821 -0.1971  0.6106  0.4341
   63MOL0     O 8373   2.711   4.707   1.947  0.2559  0.1563 -0.2511
   63MOL0     C 8374   2.749   4.801   2.043  0.0217 -0.4265  0.4729
   63MOL0     C 8375   2.845   4.765   2.144 -0.5360  0.5495  0.2810
   63MOL0     C 8376   2.892   4.859   2.233 -1.0529  1.2113 -0.3679
   63MOL0     C 8377   2.834   4.990   2.233  0.2710  1.2217  0.4195
   63MOL0     O 8378   2.863   5.068   2.343  0.6835 -0.7594 -0.2138
   63MOL0     C 8379   2.796   5.178   2.380  0.3909 -0.0449  0.1597
   63MOL0     C 8380   2.889   5.254   2.477 -0.2140 -0.7542  0.3881
   63MOL0     C 8381   3.033   5.271   2.450  0.7805  1.0749 -0.0587
   63MOL0     C 8382   3.099   5.348   2.568 -0.8089 -0.9401 -0.1686
   63MOL0     C 8383   3.248   5.356   2.537 -0.1916  0.2362 -1.0392
   63MOL0     C 8384   3.326   5.421   2.655 -0.4008 -0.1436 -0.1078
   63MOL0     C 8385   3.363   5.322   2.765  1.4621  0.0476 -0.3076
   63MOL0     C 8386   3.438   5.397   2.859 -0.9594  0.1323  0.0365
   63MOL0     N 8387   3.374   5.509   2.927 -0.9653 -0.4442 -0.2842
   63MOL0     C 8388   3.252   5.506   2.981  0.8545  1.0756 -0.5222
   63MOL0     C 8389   3.222   5.631   2.999  0.6461 -0.7454 -0.1686
   63MOL0     C 8390   3.084   5.688   3.038  0.1560 -0.1321  0.2092
   63MOL0     C 8391   3.055   5.638   3.184 -0.3605 -0.2751  0.9478
   63MOL0     C 8392   2.945   5.714   3.267  0.9704  0.2665 -0.1141
   63MOL0     C 8393   2.952   5.696   3.411  1.0218  0.6273 -0.9503
   63MOL0     O 8394   2.913   5.558   3.440  0.4868 -0.1321  0.2392
   63MOL0     C 8395   2.889   5.523   3.569 -0.8442  0.2945 -0.1944
   63MOL0     C 8396   2.825   5.410   3.599 -0.6525 -0.4134  0.4154
   63MOL0     C 8397   2.772   5.375   3.722  0.3056 -1.2681 -0.1071
   63MOL0     C 8398   2.787   5.465   3.839  0.4027  0.3946 -0.0753
   63MOL0     C 8399   2.706   5.446   3.961 -0.1978 -0.4921  0.2321
   63MOL0     O 8400   2.621   5.332   3.968  0.2783  0.0250  0.1202
   63MOL0     C 8401   2.550   5.307   4.085 -0.5497 -0.2532 -0.3866
   63MOL0     C 8402   2.446   5.213   4.077 -0.0229  0.4215 -0.4992
   63MOL0     C 8403   2.379   5.167   4.192  0.0859 -0.6006  0.1409
   63MOL0     C 8404   2.425   5.210   4.316  0.3211  0.7136 -0.8117
   63MOL0     O 8405   2.347   5.160   4.420 -0.0782 -0.1088  0.4045
   63MOL0     C 8406   2.322   5.257   4.520  0.3758  0.1648 -1.0458
   63MOL0     C 8407   2.217   5.196   4.621  0.1431  0.0415  0.6120
   63MOL0     C 8408   2.181   5.262   4.743  0.5773 -0.4948 -0.1109
   63MOL0     C 8409   2.178   5.412   4.731 -0.1712 -0.5813 -0.3229
   63MOL0     C 8410   2.119   5.480   4.862 -0.5325 -0.4554 -0.3924
   63MOL0     C 8411   2.082   5.626   4.855 -0.4464 -1.5117 -0.0625
   63MOL0     C 8412   2.006   5.668   4.728 -0.5984  0.6899 -0.3715
   63MOL0     C 8413   2.013   5.817   4.709  0.3858  0.2490  0.3538
   63MOL0    Cl 8414   1.907   5.881   4.574 -0.4216  0.0312  0.0484
   63MOL0     C 8415   2.536   5.290   4.328  0.3385  0.7111 -0.7765
   63MOL0     C 8416   2.597   5.349   4.216 -0.1743 -0.2647 -0.6892
   63MOL0     O 8417   2.703   5.542   4.041  0.3589 -0.1461  0.0733
   63MOL0     C 8418   2.865   5.581   3.808  0.0938  0.3998  0.8361
   63MOL0     C 8419   2.915   5.611   3.674  0.7783 -1.1133 -0.1231
   63MOL0     N 8420   3.335   5.709   2.980  0.0208  0.4545 -0.7534
   63MOL0     N 8421   3.422   5.629   2.927 -0.4392  0.7289 -0.7126
   63MOL0     C 8422   2.736   5.023   2.142 -0.3938  0.4526  1.5283
   63MOL0     C 8423   2.697   4.933   2.038 -0.3068  0.5193  0.2455
   63MOL0     C 8424   2.710   4.598   1.734 -0.3704 -0.3196  0.2134
   63MOL0     C 8425   2.697   4.470   1.799  1.3299 -0.3010  0.5919
   63MOL0     C 8426   2.630   4.377   1.725  0.2221  0.1887  0.0836
   63MOL0     C 8427   2.576   4.398   1.596  0.7432 -0.1891 -0.4743
   63MOL0     O 8428   2.508   4.300   1.530 -0.7528  0.4986 -0.4232
   63MOL0     C 8429   2.499   4.173   1.592 -1.2926  0.2668 -0.3402
   63MOL0     C 8430   2.447   4.068   1.502 -0.5671  0.4199 -0.6922
   63MOL0     C 8431   2.551   4.042   1.392  0.7019  0.5396 -0.3866
   63MOL0     C 8432   2.514   3.917   1.321 -0.8078 -0.2336 -0.4250
   63MOL0     C 8433   2.370   3.907   1.279 -0.3503 -0.8122 -0.4619
   63MOL0     C 8434   2.250   3.888   1.234 -0.8954  0.0963 -0.0681
   63MOL0     C 8435   2.587   4.519   1.530 -0.4643 -0.5157  0.0049
   63MOL0     C 8436   2.653   4.623   1.602  0.4700 -0.4132 -0.2063
   63MOL0     C 8437   2.667   4.763   1.536  0.6177  0.5994  0.0632
   63MOL0     H 8438   2.892   4.667   2.140 -1.4337  0.0916  0.5638
   63MOL0     H 8439   2.973   4.821   2.295 -2.5301  1.0865  1.5479
   63MOL0     H 8440   2.795   5.254   2.301 -1.1092  0.6279  0.7764
   63MOL0     H 8441   2.697   5.149   2.418  1.1328 -1.5469  1.0266
   63MOL0     H 8442   2.886   5.202   2.573  0.5460 -0.6922  0.4511
   63MOL0     H 8443   2.849   5.356   2.482  0.2358 -0.3643 -2.4718
   63MOL0     H 8444   3.047   5.320   2.353 -0.0526  1.5992  0.0795
   63MOL0     H 8445   3.079   5.172   2.452  1.5001  1.1643  5.8503
   63MOL0     H 8446   3.061   5.451   2.571  1.7747  0.0793  0.5808
   63MOL0     H 8447   3.081   5.295   2.662  0.3955 -0.8281  0.1424
   63MOL0     H 8448   3.289   5.256   2.522 -0.9597 -0.4251  0.9899
   63MOL0     H 8449   3.265   5.403   2.440  1.8514  0.4004 -0.6407
   63MOL0     H 8450   3.420   5.459   2.616  0.9393 -1.7879  1.3683
   63MOL0     H 8451   3.271   5.506   2.696 -2.4856 -0.3966 -2.1744
   63MOL0     H 8452   3.416   5.239   2.720  2.1912  0.2341  0.1844
   63MOL0     H 8453   3.270   5.288   2.811  2.4316 -1.2544  0.7685
   63MOL0     H 8454   3.472   5.323   2.933 -0.7474  1.5213  1.3838
   63MOL0     H 8455   3.531   5.420   2.806 -2.0732  4.4654 -0.3650
   63MOL0     H 8456   3.183   5.422   2.983 -0.7206  2.1977 -2.8873
   63MOL0     H 8457   3.080   5.798   3.036 -3.0405 -0.1682 -1.1950
   63MOL0     H 8458   3.011   5.650   2.967 -0.3328 -0.4384  0.8698
   63MOL0     H 8459   3.047   5.530   3.167  0.7752 -0.0665 -1.2905
   63MOL0     H 8460   3.144   5.645   3.249  0.1698 -0.2695  0.2312
   63MOL0     H 8461   2.841   5.696   3.237  0.9341 -0.2822  0.3337
   63MOL0     H 8462   2.952   5.822   3.250 -0.4732  0.8287  2.4232
   63MOL0     H 8463   2.882   5.764   3.460  3.1559  1.5067  1.0985
   63MOL0     H 8464   3.049   5.723   3.455  1.4692 -2.2689  0.0795
   63MOL0     H 8465   2.809   5.346   3.513  1.8553  0.5545 -0.8622
   63MOL0     H 8466   2.714   5.284   3.731 -1.3146 -0.1166  2.1053
   63MOL0     H 8467   2.416   5.170   3.982 -2.4375 -1.2478  0.8970
   63MOL0     H 8468   2.299   5.095   4.180 -0.1936  0.0352 -2.2175
   63MOL0     H 8469   2.413   5.287   4.572 -0.3795  1.3346 -0.3415
   63MOL0     H 8470   2.277   5.351   4.484 -1.7779 -0.3574  0.0968
   63MOL0     H 8471   2.116   5.184   4.579 -0.0305  0.1387  1.0040
   63MOL0     H 8472   2.245   5.093   4.641  1.3111 -0.0640 -1.2522
   63MOL0     H 8473   2.090   5.220   4.786  0.8050 -1.4028 -0.4897
   63MOL0     H 8474   2.268   5.246   4.808  0.5159 -1.1671 -0.1886
   63MOL0     H 8475   2.112   5.438   4.648 -1.9004  0.3595  1.2520
   63MOL0     H 8476   2.273   5.452   4.694 -0.5465  0.9444  0.2836
   63MOL0     H 8477   2.183   5.468   4.950  2.0010  0.1319 -2.0689
   63MOL0     H 8478   2.022   5.432   4.877 -1.4566  0.3082 -3.2094
   63MOL0     H 8479   2.015   5.654   4.936 -1.8603  1.2248 -2.0235
   63MOL0     H 8480   2.178   5.680   4.862  1.3822 -4.5544  0.1609
   63MOL0     H 8481   1.902   5.636   4.741 -0.5829  1.0651  0.8085
   63MOL0     H 8482   2.052   5.622   4.641  0.0690 -3.6701  2.0043
   63MOL0     H 8483   1.996   5.869   4.803  0.9507  0.6223  0.2497
   63MOL0     H 8484   2.118   5.842   4.690  1.8676 -2.7259  3.5514
   63MOL0     H 8485   2.566   5.314   4.429  3.3874  0.0065 -1.4010
   63MOL0     H 8486   2.682   5.414   4.235  1.2817 -1.0602 -3.8260
   63MOL0     H 8487   2.875   5.649   3.892  0.6438 -1.1687  2.0920
   63MOL0     H 8488   2.973   5.702   3.661 -1.3488  0.0697 -1.9812
   63MOL0     H 8489   2.702   5.126   2.137 -0.1152  0.4871 -1.3617
   63MOL0     H 8490   2.619   4.954   1.965 -0.4794  2.9287  1.0338
   63MOL0     H 8491   2.724   4.446   1.901 -1.4090 -2.7578  0.8815
   63MOL0     H 8492   2.601   4.284   1.774 -1.7334 -0.0052 -1.3628
   63MOL0     H 8493   2.428   4.189   1.674  0.9463  2.0003  1.3705
   63MOL0     H 8494   2.596   4.130   1.616 -0.6407 -0.8011 -4.1857
   63MOL0     H 8495   2.354   4.094   1.452 -0.6004 -1.2303 -1.5503
   63MOL0     H 8496   2.427   3.972   1.551  3.1702  0.1008  0.5459
   63MOL0     H 8497   2.654   4.025   1.425  0.5606 -0.3183 -0.3784
   63MOL0     H 8498   2.563   4.126   1.323  0.3142 -1.0405 -2.4865
   63MOL0     H 8499   2.570   3.902   1.228 -0.0590 -0.7276  0.0987
   63MOL0     H 8500   2.540   3.826   1.375 -0.8554 -1.4760 -2.3659
   63MOL0     H 8501   2.151   3.863   1.202 -1.3646  1.6897  0.0565
   63MOL0     H 8502   2.547   4.538   1.431  1.3311  3.0265 -0.1864
   63MOL0     H 8503   2.765   4.753   1.487  0.1646 -0.4442 -0.6616
   63MOL0     H 8504   2.587   4.774   1.463  0.5388 -2.5633 -0.4836
   63MOL0     H 8505   2.653   4.844   1.608 -1.8530  0.1491  0.1752
   64MOL0     O 8506   4.474   3.306   9.968 -0.4593 -0.1895 -0.1846
   64MOL0     C 8507   4.492   3.366   9.862  0.3523  0.0108 -0.0899
   64MOL0     O 8508   4.484   3.499   9.844 -0.1119 -0.5586  0.1590
   64MOL0     C 8509   4.474   3.582   9.953  1.1361 -0.0902  0.3665
   64MOL0     C 8510   4.366   3.660   9.958  0.8129  0.0634  0.5852
   64MOL0     C 8511   4.362   3.756  10.061  0.4180 -0.0469 -0.1554
   64MOL0     C 8512   4.468   3.770  10.158  0.1720 -0.0332  0.8856
   64MOL0     O 8513   4.484   3.863  10.254  0.3388 -1.1014  0.1711
   64MOL0     C 8514   4.395   3.988  10.263 -0.1600  0.0744  0.4181
   64MOL0     C 8515   4.377   4.026  10.408 -0.0034 -0.8941  0.5365
   64MOL0     C 8516   4.337   4.175  10.431  0.0641  0.1587  0.3549
   64MOL0     C 8517   4.319   4.193  10.574  0.0450 -0.3702  0.0812
   64MOL0     C 8518   4.389   4.319  10.642  0.4775 -0.1846  0.0610
   64MOL0     C 8519   4.298   4.445  10.642 -0.5719 -0.0510  0.6185
   64MOL0     C 8520   4.355   4.579  10.693 -0.3091 -0.1358  0.1104
   64MOL0     C 8521   4.347   4.589  10.846  1.0245  0.0262 -0.5038
   64MOL0     N 8522   4.474   4.566  10.914 -0.8624 -0.7552 -0.0367
   64MOL0     C 8523   4.565   4.661  10.919  0.1982 -0.1924  0.5775
   64MOL0     C 8524   4.671   4.617  10.976 -0.1472 -0.5973  0.1601
   64MOL0     C 8525   4.795   4.696  11.002 -0.1464  0.0359 -0.3114
   64MOL0     C 8526   4.798   4.839  10.946 -0.4013  0.4246  0.3060
   64MOL0     C 8527   4.944   4.910  10.972 -0.0389  0.6386  0.3352
   64MOL0     C 8528   5.028   4.904  10.859  1.0393  1.1853  0.2270
   64MOL0     O 8529   5.165   4.915  10.889  0.1163 -0.4414 -0.4058
   64MOL0     C 8530   5.252   4.854  10.802  0.6505 -0.1773  1.3993
   64MOL0     C 8531   5.222   4.757  10.700  0.4136 -0.4280  0.1293
   64MOL0     C 8532   5.323   4.681  10.629 -0.8523  0.1765  0.4252
   64MOL0     C 8533   5.454   4.693  10.669  0.0463 -0.5335  0.0708
   64MOL0     C 8534   5.559   4.605  10.616  0.2915  0.0093  0.2329
   64MOL0     O 8535   5.679   4.588  10.690 -0.6562 -0.2329 -0.0118
   64MOL0     C 8536   5.782   4.527  10.629 -0.9704  1.2104 -0.6064
   64MOL0     C 8537   5.854   4.445  10.723  0.2771  0.7989 -0.2391
   64MOL0     C 8538   5.975   4.390  10.671 -0.0727  0.1006  0.9744
   64MOL0     C 8539   6.014   4.383  10.528  0.4283 -0.8763 -0.0650
   64MOL0     O 8540   6.126   4.303  10.496 -0.9154 -0.0845 -0.9124
   64MOL0     C 8541   6.180   4.335  10.366 -0.7396  0.6530 -0.1905
   64MOL0     C 8542   6.320   4.264  10.341  0.5261  0.4687  0.2508
   64MOL0     C 8543   6.352   4.266  10.192  0.2246  0.4021 -0.1356
   64MOL0     C 8544   6.378   4.413  10.146 -0.2229  0.0019  0.4625
   64MOL0     C 8545   6.408   4.408   9.991 -0.0439 -0.1069 -0.3781
   64MOL0     C 8546   6.476   4.533   9.947  0.8170 -0.1002 -0.4504
   64MOL0     C 8547   6.536   4.529   9.809  0.7683 -0.7378  0.1204
   64MOL0     C 8548   6.606   4.663   9.794  0.4894  0.5362 -0.3809
   64MOL0    Cl 8549   6.765   4.675   9.855 -0.0302 -0.5633 -0.1591
   64MOL0     C 8550   5.931   4.458  10.443 -0.1268  0.4660  0.2373
   64MOL0     C 8551   5.828   4.539  10.488  0.0895 -1.2066  1.0205
   64MOL0     O 8552   5.525   4.548  10.512  0.1737  0.4295 -0.0282
   64MOL0     C 8553   5.488   4.791  10.765  0.5207  0.1334  0.2974
   64MOL0     C 8554   5.391   4.875  10.820  0.3715 -0.1699 -0.1826
   64MOL0     N 8555   4.641   4.492  11.009 -0.7508  0.2080 -0.2420
   64MOL0     N 8556   4.525   4.460  10.973  0.1270  0.1291  0.0281
   64MOL0     C 8557   4.570   3.681  10.147 -0.3929  0.0457  0.1139
   64MOL0     C 8558   4.572   3.588  10.050  0.2271 -0.3562 -0.2969
   64MOL0     C 8559   4.513   3.290   9.737 -0.9696  0.2262 -0.3474
   64MOL0     C 8560   4.642   3.288   9.676  0.2531  0.2249 -0.4402
   64MOL0     C 8561   4.665   3.192   9.574  0.2049  0.5507 -0.5653
   64MOL0     C 8562   4.561   3.109   9.526 -0.3428  1.0348 -0.5421
   64MOL0     O 8563   4.593   3.030   9.413  0.5663  0.2943  0.0103
   64MOL0     C 8564   4.505   2.938   9.348 -0.5100 -0.9553  0.2888
   64MOL0     C 8565   4.574   2.904   9.214 -0.6719  0.3882 -0.1359
   64MOL0     C 8566   4.698   2.809   9.226  0.6722  0.1005 -0.3806
   64MOL0     C 8567   4.711   2.701   9.120 -0.3263  0.6150 -0.0198
   64MOL0     C 8568   4.849   2.691   9.072  0.3921  0.7302  0.6849
   64MOL0     C 8569   4.946   2.646   9.030 -0.6091 -0.1037 -0.1075
   64MOL0     C 8570   4.431   3.113   9.577  0.3770  0.0425  0.3826
   64MOL0     C 8571   4.406   3.203   9.683  0.7682 -0.3714 -0.4679
   64MOL0     C 8572   4.265   3.197   9.739 -0.1833 -1.3543 -0.1477
   64MOL0     H 8573   4.287   3.665   9.884  0.3689  1.1927  1.1087
   64MOL0     H 8574   4.278   3.824  10.053 -3.6013 -4.4263  0.7109
   64MOL0     H 8575   4.452   4.063  10.208  1.1022 -0.4712  0.9443
   64MOL0     H 8576   4.297   3.996  10.215  0.1251  1.1622 -0.0166
   64MOL0     H 8577   4.474   4.009  10.456  0.5850  0.9111  0.0804
   64MOL0     H 8578   4.302   3.961  10.452 -2.8821  0.7106 -1.6323
   64MOL0     H 8579   4.254   4.213  10.372  1.0417  3.6628  1.0375
   64MOL0     H 8580   4.426   4.222  10.389  1.0345 -1.7511  0.1380
   64MOL0     H 8581   4.210   4.194  10.591  0.1268 -1.3762  0.8251
   64MOL0     H 8582   4.348   4.110  10.639 -0.1102 -0.1004  0.5044
   64MOL0     H 8583   4.410   4.281  10.742  1.0359  1.2062  0.4844
   64MOL0     H 8584   4.484   4.345  10.595 -0.0061  0.7745 -0.4045
   64MOL0     H 8585   4.265   4.460  10.539 -2.3014  1.0471  1.2895
   64MOL0     H 8586   4.202   4.434  10.694 -0.9031 -0.0881  0.0037
   64MOL0     H 8587   4.305   4.660  10.640 -0.7786  0.1783  1.0293
   64MOL0     H 8588   4.458   4.582  10.656 -0.5679 -1.2469 -0.7704
   64MOL0     H 8589   4.328   4.689  10.884  1.1271 -0.6857  1.5847
   64MOL0     H 8590   4.267   4.521  10.877  0.1557  0.9540 -0.6854
   64MOL0     H 8591   4.551   4.759  10.873  2.7691  0.4075  0.8963
   64MOL0     H 8592   4.800   4.691  11.111 -0.0188 -0.0227 -0.3194
   64MOL0     H 8593   4.882   4.641  10.965 -0.4377  0.9712 -2.5383
   64MOL0     H 8594   4.767   4.831  10.842 -3.2415 -0.9746  1.1690
   64MOL0     H 8595   4.719   4.895  10.997 -0.7007  1.6256 -1.4133
   64MOL0     H 8596   4.993   4.859  11.055  0.1449 -0.0166 -0.1673
   64MOL0     H 8597   4.941   5.014  11.007 -2.1656  0.3959  0.9961
   64MOL0     H 8598   5.004   4.991  10.797  2.5832  2.2177  1.0267
   64MOL0     H 8599   5.004   4.805  10.819 -0.2383  1.5658 -0.0203
   64MOL0     H 8600   5.121   4.723  10.681  0.3266 -0.7402  1.0624
   64MOL0     H 8601   5.290   4.613  10.551 -1.3208  2.3705 -1.4043
   64MOL0     H 8602   5.833   4.439  10.829  1.2220  1.9318  0.0312
   64MOL0     H 8603   6.047   4.348  10.741 -1.0023  1.3739  2.7877
   64MOL0     H 8604   6.113   4.306  10.284  1.0565  0.4141 -1.6499
   64MOL0     H 8605   6.185   4.444  10.367 -3.7540  0.8718  0.7944
   64MOL0     H 8606   6.396   4.307  10.407  0.3847  1.4458 -0.2022
   64MOL0     H 8607   6.307   4.160  10.370 -2.8443  1.0491  1.2074
   64MOL0     H 8608   6.443   4.212  10.164 -0.5729 -0.0381 -2.0000
   64MOL0     H 8609   6.274   4.226  10.127  1.9554 -1.2412 -1.3130
   64MOL0     H 8610   6.473   4.443  10.190 -0.9047  0.7646  1.4737
   64MOL0     H 8611   6.309   4.491  10.180 -0.7230 -0.2721  0.0935
   64MOL0     H 8612   6.321   4.393   9.927  0.7919 -0.2274 -1.5199
   64MOL0     H 8613   6.468   4.320   9.967 -0.6583 -1.2828  2.1210
   64MOL0     H 8614   6.415   4.624   9.957  3.2882  1.5800  0.2184
   64MOL0     H 8615   6.553   4.558  10.019 -0.1751  1.4142  0.1419
   64MOL0     H 8616   6.461   4.517   9.731  2.0103  0.4439 -1.3296
   64MOL0     H 8617   6.607   4.445   9.808 -1.3341 -2.6208  0.8086
   64MOL0     H 8618   6.626   4.684   9.688  1.3208  0.6844 -0.2022
   64MOL0     H 8619   6.546   4.750   9.820  2.2396  2.0389 -1.1406
   64MOL0     H 8620   5.965   4.455  10.340  0.6958 -0.6373  0.5195
   64MOL0     H 8621   5.770   4.604  10.423  0.3992 -1.3233  0.6212
   64MOL0     H 8622   5.590   4.815  10.793 -0.3413 -1.6957  6.3083
   64MOL0     H 8623   5.417   4.964  10.878  0.6063 -0.0165 -0.5200
   64MOL0     H 8624   4.651   3.694  10.219 -0.4154  2.3301 -0.2077
   64MOL0     H 8625   4.656   3.522  10.031  0.3777 -0.5595  0.9763
   64MOL0     H 8626   4.715   3.340   9.737 -0.2933 -2.9899  3.3552
   64MOL0     H 8627   4.763   3.179   9.529  1.1891  1.1182  1.2887
   64MOL0     H 8628   4.410   2.986   9.323  0.8986  0.5404 -2.7196
   64MOL0     H 8629   4.488   2.846   9.404 -2.9278  0.5375  2.2547
   64MOL0     H 8630   4.603   3.002   9.172 -3.7004  0.6241 -1.9793
   64MOL0     H 8631   4.502   2.855   9.148 -0.9217 -1.1475  1.2401
   64MOL0     H 8632   4.684   2.766   9.326 -1.2041  2.7902  0.6431
   64MOL0     H 8633   4.794   2.862   9.224  1.3794 -1.1653 -1.8950
   64MOL0     H 8634   4.678   2.607   9.164 -1.7469  1.3550  0.5700
   64MOL0     H 8635   4.653   2.731   9.033  0.3401  4.8642  0.7651
   64MOL0     H 8636   5.038   2.608   8.992  2.1896  5.7750 -0.2994
   64MOL0     H 8637   4.353   3.047   9.541 -0.3894  1.4341 -0.6272
   64MOL0     H 8638   4.206   3.287   9.721 -1.4795 -1.4708  2.8673
   64MOL0     H 8639   4.207   3.121   9.686 -2.9904  1.5567 -1.6195
   64MOL0     H 8640   4.269   3.181   9.847  0.6998  1.5374  0.3382
   65MOL0     O 8641   1.702  10.657   6.266  0.3673 -0.4859 -0.3895
   65MOL0     C 8642   1.622  10.690   6.177  0.4938  0.3701  0.4335
   65MOL0     O 8643   1.649  10.775   6.075 -0.0817  0.1674  0.2639
   65MOL0     C 8644   1.768  10.844   6.082 -1.2789 -0.1985  0.1025
   65MOL0     C 8645   1.878  10.789   6.009  0.8752  0.4192 -0.1105
   65MOL0     C 8646   1.997  10.850   5.993 -0.5640 -0.6703 -0.0919
   65MOL0     C 8647   2.004  10.981   6.049 -0.2100  0.2751 -0.1977
   65MOL0     O 8648   2.123  11.043   6.058 -0.2933  0.2396  0.4123
   65MOL0     C 8649   2.191  11.091   5.942  0.1311 -0.7054  0.1757
   65MOL0     C 8650   2.118  11.224   5.890 -0.6910 -0.0232  1.0553
   65MOL0     C 8651   2.117  11.337   5.992 -0.0622 -1.1093 -1.0443
   65MOL0     C 8652   2.019  11.452   5.958  0.8451  0.3300 -0.4727
   65MOL0     C 8653   2.066  11.579   6.034  0.3720  1.3074  0.2948
   65MOL0     C 8654   1.978  11.702   6.014 -0.1655 -0.1601 -0.3784
   65MOL0     C 8655   2.032  11.838   6.049  0.1975  0.3786  0.2233
   65MOL0     C 8656   1.936  11.967   6.037  0.2843  0.0171  0.8070
   65MOL0     N 8657   1.888  11.998   5.899  0.5850 -0.5001  1.7788
   65MOL0     C 8658   1.963  12.045   5.798  0.5049 -0.9630  0.1840
   65MOL0     C 8659   1.874  12.052   5.691  0.7560  0.3443 -0.1597
   65MOL0     C 8660   1.903  12.093   5.551  0.1205 -0.0752 -0.8435
   65MOL0     C 8661   2.005  12.010   5.480  1.3417 -0.2891 -0.5187
   65MOL0     C 8662   1.965  11.862   5.470  0.3064  0.6323  0.6051
   65MOL0     C 8663   1.849  11.814   5.377  0.6511 -0.4240  0.0643
   65MOL0     O 8664   1.879  11.830   5.240 -0.0322  0.0612  0.6162
   65MOL0     C 8665   1.770  11.807   5.155 -1.4242 -1.4109  0.9054
   65MOL0     C 8666   1.631  11.793   5.186  0.5745  0.0180  0.0964
   65MOL0     C 8667   1.537  11.779   5.081  0.1957  0.0109  0.5798
   65MOL0     C 8668   1.584  11.781   4.944 -0.5814  0.5378  0.0380
   65MOL0     C 8669   1.484  11.794   4.837 -0.1729 -0.7055  0.3683
   65MOL0     O 8670   1.356  11.801   4.873 -0.3425 -0.0496 -0.4088
   65MOL0     C 8671   1.255  11.784   4.785 -0.6644 -0.2582  0.2634
   65MOL0     C 8672   1.170  11.883   4.745  0.7828 -0.5506  0.0409
   65MOL0     C 8673   1.082  11.859   4.640  1.1953  0.2012  0.7670
   65MOL0     C 8674   1.075  11.732   4.581 -0.5740 -0.2670  0.5965
   65MOL0     O 8675   0.968  11.718   4.490 -0.5212  0.1088 -0.0728
   65MOL0     C 8676   1.004  11.684   4.361  0.2700  0.8515 -0.7123
   65MOL0     C 8677   0.888  11.609   4.285  0.4549  0.0383 -1.0401
   65MOL0     C 8678   0.768  11.698   4.283 -0.3446 -0.2672  0.2487
   65MOL0     C 8679   0.651  11.633   4.211 -0.6296 -0.4283 -0.4059
   65MOL0     C 8680   0.531  11.722   4.208 -0.0971  0.4397 -0.0458
   65MOL0     C 8681   0.419  11.636   4.146  0.7536 -0.1200 -0.5204
   65MOL0     C 8682   0.284  11.698   4.167  0.3515  0.6325  0.0908
   65MOL0     C 8683   0.179  11.603   4.105 -0.2399 -0.0710 -0.3508
   65MOL0    Cl 8684   0.008  11.679   4.092 -0.4746 -0.4591 -0.3452
   65MOL0     C 8685   1.152  11.626   4.622  0.7890 -0.4202  1.2211
   65MOL0     C 8686   1.246  11.650   4.725 -0.1068 -0.7043  0.0737
   65MOL0     O 8687   1.530  11.785   4.730  0.1193  0.0554  0.2021
   65MOL0     C 8688   1.721  11.788   4.916 -0.7966  0.4771  0.1414
   65MOL0     C 8689   1.815  11.803   5.023 -0.4582 -0.8727 -0.4765
   65MOL0     N 8690   1.751  12.017   5.739  0.0894  0.1359 -0.5064
   65MOL0     N 8691   1.755  11.977   5.863  0.2150 -0.1222  0.1122
   65MOL0     C 8692   1.902  11.038   6.124  0.1625  0.1734  0.6946
   65MOL0     C 8693   1.779  10.974   6.139 -0.3228 -0.7777 -1.0907
   65MOL0     C 8694   1.485  10.641   6.177  0.3108 -0.6208 -0.4274
   65MOL0     C 8695   1.385  10.706   6.098  0.6840 -0.4189 -0.0028
   65MOL0     C 8696   1.257  10.663   6.096 -0.0704  0.5273  0.0201
   65MOL0     C 8697   1.221  10.536   6.149  0.2596  0.4224  0.3174
   65MOL0     O 8698   1.099  10.486   6.140  0.0440 -0.5231 -0.4458
   65MOL0     C 8699   0.989  10.567   6.088  0.0786 -0.4081 -0.1941
   65MOL0     C 8700   0.938  10.668   6.195  0.2081  0.4082  0.4821
   65MOL0     C 8701   0.838  10.588   6.288  0.6327  0.2391 -0.6925
   65MOL0     C 8702   0.699  10.549   6.257  0.5340  0.8130  1.2558
   65MOL0     C 8703   0.631  10.647   6.178  0.3393  0.5100 -0.2408
   65MOL0     C 8704   0.556  10.721   6.117 -0.1282 -0.3286  0.0849
   65MOL0     C 8705   1.321  10.462   6.204 -0.1521 -0.3700 -1.0125
   65MOL0     C 8706   1.450  10.519   6.238  0.1313  0.7323 -0.8560
   65MOL0     C 8707   1.535  10.453   6.340  0.1633  0.6424 -0.3008
   65MOL0     H 8708   1.856  10.702   5.948  1.3015  0.8301 -0.8547
   65MOL0     H 8709   2.088  10.808   5.951  0.2622  1.4387 -0.5103
   65MOL0     H 8710   2.299  11.107   5.946  0.2177  0.7264 -3.3138
   65MOL0     H 8711   2.185  11.023   5.856  2.2078  0.1357 -0.7084
   65MOL0     H 8712   2.023  11.199   5.841  0.2471  1.1404 -1.5119
   65MOL0     H 8713   2.186  11.266   5.816  0.7090 -0.9737  1.7611
   65MOL0     H 8714   2.217  11.378   6.011  0.0465 -1.1709 -1.4857
   65MOL0     H 8715   2.087  11.287   6.084  0.2565  0.2457 -0.1689
   65MOL0     H 8716   2.008  11.477   5.852 -1.9606  1.2905 -0.0412
   65MOL0     H 8717   1.921  11.417   5.992  1.1166 -0.8306 -0.8078
   65MOL0     H 8718   2.081  11.565   6.141  4.5625  1.0783 -0.1746
   65MOL0     H 8719   2.165  11.602   5.994  1.5196  0.2200  2.3359
   65MOL0     H 8720   1.960  11.698   5.906  1.9557 -2.8802 -0.7388
   65MOL0     H 8721   1.886  11.695   6.073  0.6153  1.9824  1.2326
   65MOL0     H 8722   2.124  11.841   5.991  0.8443  0.5189  1.2269
   65MOL0     H 8723   2.066  11.847   6.153  0.8177  3.7307 -0.1347
   65MOL0     H 8724   1.854  11.962   6.109  0.7134 -1.0655  1.2324
   65MOL0     H 8725   2.007  12.047   6.063  1.6617 -1.4598  1.7469
   65MOL0     H 8726   2.066  12.076   5.800  0.4399 -0.7763  1.5561
   65MOL0     H 8727   1.810  12.102   5.493  0.3422  2.4070 -0.9187
   65MOL0     H 8728   1.945  12.193   5.542  2.2850 -0.8708 -0.1360
   65MOL0     H 8729   2.011  12.060   5.383  3.4079 -1.8725 -1.2858
   65MOL0     H 8730   2.104  12.030   5.523  0.9730 -0.1144  0.2816
   65MOL0     H 8731   1.937  11.821   5.568 -0.3612  0.4078  0.3311
   65MOL0     H 8732   2.058  11.815   5.438  0.7760  1.4648  0.7110
   65MOL0     H 8733   1.760  11.872   5.401  0.0686 -1.3967  0.3063
   65MOL0     H 8734   1.833  11.709   5.405 -0.0244  0.0202  1.4297
   65MOL0     H 8735   1.597  11.781   5.288  1.6076 -1.5942  0.2886
   65MOL0     H 8736   1.430  11.771   5.097 -0.0074  0.9134 -0.2180
   65MOL0     H 8737   1.180  11.975   4.801  1.8365 -0.0648 -0.9032
   65MOL0     H 8738   1.014  11.936   4.607 -1.4048 -1.3440  2.1734
   65MOL0     H 8739   1.018  11.782   4.314  1.0829  0.6967 -0.7927
   65MOL0     H 8740   1.090  11.619   4.349  0.0639  0.3504  0.4589
   65MOL0     H 8741   0.926  11.597   4.184  1.5476  2.7152 -1.0273
   65MOL0     H 8742   0.863  11.515   4.335 -0.5213  0.4700 -0.6790
   65MOL0     H 8743   0.734  11.729   4.383 -2.0990 -3.1803  0.6716
   65MOL0     H 8744   0.798  11.789   4.230  5.2008 -1.0492  1.4550
   65MOL0     H 8745   0.622  11.540   4.262  0.8633  1.5959  4.7684
   65MOL0     H 8746   0.683  11.611   4.109 -0.1486 -0.5722 -0.2256
   65MOL0     H 8747   0.541  11.810   4.142  1.5581 -0.9002 -1.7149
   65MOL0     H 8748   0.497  11.756   4.306  0.1886  1.7267 -0.3724
   65MOL0     H 8749   0.437  11.627   4.038 -5.4572  0.7602 -2.0049
   65MOL0     H 8750   0.421  11.533   4.183 -0.3483  0.3135  0.8281
   65MOL0     H 8751   0.269  11.799   4.126  0.3772  1.3898  1.8634
   65MOL0     H 8752   0.267  11.719   4.273  1.5900 -0.4072  0.5145
   65MOL0     H 8753   0.205  11.575   4.002  1.7359  2.9305 -0.7895
   65MOL0     H 8754   0.168  11.512   4.165  3.5135 -0.3514  0.1728
   65MOL0     H 8755   1.147  11.522   4.594  2.4821 -0.3518  0.5816
   65MOL0     H 8756   1.307  11.566   4.756  0.0328 -0.2431  1.0743
   65MOL0     H 8757   1.756  11.768   4.815  0.5946 -2.0956  1.0257
   65MOL0     H 8758   1.922  11.805   5.010 -0.4228 -0.6687 -0.1455
   65MOL0     H 8759   1.923  11.133   6.171 -1.0607 -0.2936  2.2824
   65MOL0     H 8760   1.696  11.025   6.185 -0.4711 -1.7941 -0.1969
   65MOL0     H 8761   1.406  10.804   6.057 -0.8958  0.4267  1.0885
   65MOL0     H 8762   1.175  10.729   6.069 -1.3770 -0.7186  0.8095
   65MOL0     H 8763   0.917  10.493   6.051 -4.9749  1.8364  3.8073
   65MOL0     H 8764   1.015  10.628   6.001  1.0560 -0.1858  0.2309
   65MOL0     H 8765   0.893  10.756   6.148 -1.6675  0.5347  2.3952
   65MOL0     H 8766   1.011  10.722   6.256 -0.4482  1.0718  0.6873
   65MOL0     H 8767   0.819  10.648   6.379 -3.3903 -1.0653 -0.4587
   65MOL0     H 8768   0.893  10.500   6.321  1.9956  2.3375  3.4438
   65MOL0     H 8769   0.706  10.456   6.200  1.0005  0.0429  2.5200
   65MOL0     H 8770   0.643  10.525   6.348 -2.6376  0.4879 -0.6201
   65MOL0     H 8771   0.497  10.799   6.074  1.0495  1.6163  1.7971
   65MOL0     H 8772   1.282  10.383   6.267  0.6499  0.1760  0.2108
   65MOL0     H 8773   1.496  10.355   6.370 -0.1884  1.0296  0.5334
   65MOL0     H 8774   1.636  10.441   6.300  0.8102  4.5915 -0.2680
   65MOL0     H 8775   1.549  10.511   6.432 -0.2466  0.6475 -0.2384
   66MOL0     O 8776   3.951   2.563  10.537 -0.2081 -0.2409 -0.0703
   66MOL0     C 8777   4.040   2.603  10.610 -0.0260 -0.0799  0.5700
   66MOL0     O 8778   4.042   2.591  10.744  0.2759  0.1664 -0.6965
   66MOL0     C 8779   3.933   2.588  10.826  0.3748  0.5494 -0.3136
   66MOL0     C 8780   3.962   2.597  10.967  0.6162  0.3775 -0.5637
   66MOL0     C 8781   3.854   2.599  11.053  0.1753 -0.2424  0.5033
   66MOL0     C 8782   3.720   2.584  11.025  0.5769  0.4397  1.7970
   66MOL0     O 8783   3.628   2.578  11.125  0.0229 -0.3647 -0.0666
   66MOL0     C 8784   3.491   2.602  11.108  0.8745 -0.6868  0.0230
   66MOL0     C 8785   3.409   2.512  11.196  0.1502  0.6456  0.0332
   66MOL0     C 8786   3.366   2.573  11.341  0.5847  0.7523  0.6030
   66MOL0     C 8787   3.315   2.714  11.330 -0.0694 -0.5125  0.1714
   66MOL0     C 8788   3.201   2.738  11.430 -0.0265 -0.0479 -0.2996
   66MOL0     C 8789   3.108   2.859  11.419  0.5297  0.4083 -0.7261
   66MOL0     C 8790   2.984   2.864  11.516 -0.5456 -0.3552  0.9441
   66MOL0     C 8791   3.008   2.863  11.666 -0.6195 -0.1819 -0.3747
   66MOL0     N 8792   2.880   2.909  11.731 -0.2512  0.3722 -0.2162
   66MOL0     C 8793   2.764   2.839  11.723  0.6218 -0.0531  0.8029
   66MOL0     C 8794   2.666   2.908  11.795  0.2577 -0.6760 -0.7469
   66MOL0     C 8795   2.528   2.870  11.831 -0.6569  0.3928  0.2405
   66MOL0     C 8796   2.527   2.785  11.959 -0.9285  0.4552 -0.0199
   66MOL0     C 8797   2.390   2.724  11.981  0.4780 -0.0018 -0.4403
   66MOL0     C 8798   2.264   2.809  11.947  0.0126  0.2124 -0.8587
   66MOL0     O 8799   2.271   2.932  12.023  0.5708  0.0340  0.7439
   66MOL0     C 8800   2.163   3.014  11.996 -0.0894 -0.4177 -0.0875
   66MOL0     C 8801   2.171   3.100  11.888  0.1245 -0.4324 -0.1029
   66MOL0     C 8802   2.076   3.200  11.866  0.2077 -0.3492  0.0123
   66MOL0     C 8803   1.953   3.212  11.947  0.1969  0.4947  0.3518
   66MOL0     C 8804   1.861   3.331  11.928  0.7214  0.2382 -0.5577
   66MOL0     O 8805   1.761   3.357  12.020  0.1793 -0.0239  0.9069
   66MOL0     C 8806   1.653   3.435  11.991 -0.0134 -0.3171  0.4171
   66MOL0     C 8807   1.590   3.499  12.096 -0.4459  0.8391  0.4691
   66MOL0     C 8808   1.476   3.577  12.071 -0.5218 -0.1773 -0.6376
   66MOL0     C 8809   1.433   3.600  11.946  0.6722  0.3200  0.3012
   66MOL0     O 8810   1.322   3.677  11.922  0.7751  0.0399 -0.3228
   66MOL0     C 8811   1.211   3.616  11.855 -0.1667 -0.2019  0.3470
   66MOL0     C 8812   1.188   3.640  11.706 -0.0891  0.3135 -0.2813
   66MOL0     C 8813   1.140   3.784  11.664 -0.0030  0.0848  0.2033
   66MOL0     C 8814   1.096   3.801  11.519 -0.0127 -0.2105 -0.4157
   66MOL0     C 8815   1.217   3.810  11.418 -0.1885 -0.3561 -1.3618
   66MOL0     C 8816   1.165   3.820  11.269  0.5042  0.3213 -0.9670
   66MOL0     C 8817   1.124   3.686  11.213 -0.3173  0.6744 -1.0296
   66MOL0     C 8818   1.092   3.713  11.067  0.1004 -0.2371  0.7520
   66MOL0    Cl 8819   0.953   3.822  11.032  0.3250  0.3246  0.5826
   66MOL0     C 8820   1.497   3.542  11.836 -0.1148 -0.8477  0.1327
   66MOL0     C 8821   1.605   3.462  11.858 -0.2486 -0.0752  0.4394
   66MOL0     O 8822   1.883   3.389  11.826 -0.0305 -0.1904  0.7840
   66MOL0     C 8823   1.944   3.121  12.046 -0.0727 -0.4009 -0.5331
   66MOL0     C 8824   2.054   3.037  12.087  0.7829  0.4688 -0.2274
   66MOL0     N 8825   2.729   3.021  11.841 -0.2170 -0.1492  0.4437
   66MOL0     N 8826   2.854   3.021  11.801 -0.2120  0.6601  0.6074
   66MOL0     C 8827   3.692   2.570  10.886 -0.5485  0.9625  0.1335
   66MOL0     C 8828   3.794   2.574  10.789 -0.1698  0.7417 -0.5050
   66MOL0     C 8829   4.168   2.616  10.546 -0.3715  0.2644  0.6660
   66MOL0     C 8830   4.209   2.527  10.450 -0.1091 -1.1043  0.2325
   66MOL0     C 8831   4.341   2.530  10.406  0.0832  1.0645  0.0898
   66MOL0     C 8832   4.439   2.630  10.449  0.0740 -1.1789 -0.4287
   66MOL0     O 8833   4.571   2.626  10.420 -0.4851  0.0080  0.1203
   66MOL0     C 8834   4.622   2.530  10.337  0.2553  0.1145 -0.2620
   66MOL0     C 8835   4.768   2.574  10.287  0.5915  0.0555 -0.4297
   66MOL0     C 8836   4.764   2.729  10.262  0.0438  0.5140 -0.7787
   66MOL0     C 8837   4.913   2.782  10.216 -0.9076 -0.6844 -0.7231
   66MOL0     C 8838   4.972   2.728  10.089 -0.9558 -0.6785 -0.1571
   66MOL0     C 8839   4.999   2.663   9.990 -0.3433  0.1863 -0.6128
   66MOL0     C 8840   4.387   2.709  10.557 -0.6035  0.1043  0.1656
   66MOL0     C 8841   4.252   2.710  10.600  0.4669  0.5794 -0.6126
   66MOL0     C 8842   4.223   2.802  10.709 -0.3889 -0.3915  0.4892
   66MOL0     H 8843   4.063   2.613  11.002  0.8227 -1.0923 -0.4381
   66MOL0     H 8844   3.879   2.593  11.158 -2.1491  2.6238  1.3623
   66MOL0     H 8845   3.469   2.707  11.129 -0.7614 -0.8527 -0.6446
   66MOL0     H 8846   3.456   2.592  11.005 -2.0110  2.5811  0.4855
   66MOL0     H 8847   3.470   2.422  11.201 -0.7275  0.0743  0.5179
   66MOL0     H 8848   3.320   2.484  11.140  0.4625 -3.0687  1.1914
   66MOL0     H 8849   3.453   2.559  11.407  1.9757 -4.7043 -1.8509
   66MOL0     H 8850   3.290   2.508  11.384 -1.9787  0.1674 -4.1290
   66MOL0     H 8851   3.395   2.784  11.356 -2.5783  2.8472 -0.4113
   66MOL0     H 8852   3.284   2.733  11.227  0.2118 -3.5091 -0.5336
   66MOL0     H 8853   3.137   2.653  11.408 -1.7098  0.3685  2.4920
   66MOL0     H 8854   3.237   2.740  11.533 -2.3868  2.3869  0.5803
   66MOL0     H 8855   3.142   2.962  11.437 -1.8763  1.3785 -1.4218
   66MOL0     H 8856   3.072   2.863  11.316 -0.4237  0.4050 -0.4016
   66MOL0     H 8857   2.912   2.786  11.490 -2.2293  1.1182  1.0153
   66MOL0     H 8858   2.942   2.960  11.487  2.0276 -0.2653 -3.3403
   66MOL0     H 8859   3.021   2.762  11.706 -2.7104  0.5319  2.4575
   66MOL0     H 8860   3.088   2.930  11.699 -2.1452  2.1131 -1.0189
   66MOL0     H 8861   2.744   2.744  11.674  0.0072  0.4559  0.0354
   66MOL0     H 8862   2.470   2.963  11.832 -0.9340  0.2382 -0.6879
   66MOL0     H 8863   2.500   2.808  11.746  3.7998 -0.2207 -1.0336
   66MOL0     H 8864   2.601   2.705  11.952 -1.3499  0.1888 -2.2287
   66MOL0     H 8865   2.545   2.857  12.039  1.2784  1.9291 -1.7268
   66MOL0     H 8866   2.387   2.696  12.087  1.0269 -4.1767 -1.3319
   66MOL0     H 8867   2.379   2.626  11.934 -2.1143 -0.3629  0.7919
   66MOL0     H 8868   2.179   2.749  11.979 -0.0634 -0.4918 -2.3221
   66MOL0     H 8869   2.257   2.836  11.841 -0.5732 -1.4942 -1.2843
   66MOL0     H 8870   2.263   3.097  11.829  0.3415 -0.0512  0.2068
   66MOL0     H 8871   2.101   3.261  11.781  1.1072 -0.3308  0.2838
   66MOL0     H 8872   1.622   3.485  12.198  0.4472  1.0120  0.2203
   66MOL0     H 8873   1.418   3.611  12.157 -1.5397 -0.5271 -1.1647
   66MOL0     H 8874   1.217   3.509  11.877 -0.6080  0.2452  3.0037
   66MOL0     H 8875   1.122   3.658  11.903  0.7598  0.7715  1.2596
   66MOL0     H 8876   1.285   3.615  11.662  1.6302  3.6437  1.2809
   66MOL0     H 8877   1.109   3.572  11.671 -2.2331  2.2940  0.4572
   66MOL0     H 8878   1.055   3.819  11.722  1.1813  0.0444  2.0557
   66MOL0     H 8879   1.220   3.857  11.682 -1.4800  1.6361  0.6579
   66MOL0     H 8880   1.026   3.884  11.514 -2.3263 -2.0800 -5.2160
   66MOL0     H 8881   1.045   3.708  11.495 -2.4120  1.0014 -0.2512
   66MOL0     H 8882   1.284   3.724  11.435 -1.7757 -1.0238  2.5271
   66MOL0     H 8883   1.278   3.899  11.435  0.2740 -0.8412 -0.4175
   66MOL0     H 8884   1.070   3.874  11.272 -1.1136 -2.2459 -2.1274
   66MOL0     H 8885   1.241   3.872  11.209  1.7942 -1.7579 -1.2454
   66MOL0     H 8886   1.041   3.635  11.263  1.8400 -3.4431 -1.2378
   66MOL0     H 8887   1.205   3.613  11.214  1.2161  2.3068 -0.8247
   66MOL0     H 8888   1.185   3.743  11.019  0.4163  1.2837  2.2292
   66MOL0     H 8889   1.062   3.621  11.015 -1.1962 -0.1443  1.2784
   66MOL0     H 8890   1.476   3.588  11.740 -1.7839  3.1174  2.1571
   66MOL0     H 8891   1.659   3.423  11.773  2.6500 -1.6199  2.7934
   66MOL0     H 8892   1.863   3.116  12.117  1.9525  0.3329  1.9909
   66MOL0     H 8893   2.046   2.989  12.184  2.2394 -0.6721 -0.6409
   66MOL0     H 8894   3.588   2.557  10.855 -0.3382 -2.6809  0.5585
   66MOL0     H 8895   3.770   2.576  10.683  2.9131 -0.7552 -1.3449
   66MOL0     H 8896   4.139   2.466  10.393  3.3214 -1.6715 -3.9033
   66MOL0     H 8897   4.362   2.457  10.329 -1.3850  1.7351 -1.0056
   66MOL0     H 8898   4.554   2.520  10.252 -2.5814  2.0127  1.5976
   66MOL0     H 8899   4.630   2.437  10.394 -1.5733  0.7703  1.1483
   66MOL0     H 8900   4.810   2.518  10.203  1.3607 -1.8740  1.1749
   66MOL0     H 8901   4.835   2.551  10.370 -1.0721  1.8201  1.5066
   66MOL0     H 8902   4.731   2.793  10.343 -2.3929  1.5815 -2.4978
   66MOL0     H 8903   4.696   2.755  10.181  2.2786 -0.2888 -3.0653
   66MOL0     H 8904   4.910   2.890  10.200  0.5426 -0.4869  0.1504
   66MOL0     H 8905   4.992   2.770  10.291 -0.4888  0.9231 -0.8588
   66MOL0     H 8906   5.037   2.619   9.900 -0.0944 -0.6125 -0.1313
   66MOL0     H 8907   4.457   2.777  10.604 -0.7475  0.2301  0.2027
   66MOL0     H 8908   4.200   2.755  10.806 -0.0243  0.6614  1.1061
   66MOL0     H 8909   4.316   2.858  10.723  1.3114 -2.8327 -0.2630
   66MOL0     H 8910   4.153   2.883  10.689  3.1251  2.7472 -0.1429
   67MOL0     O 8911   0.014   9.100   1.331 -0.5126 -0.0634 -0.5291
   67MOL0     C 8912  -0.092   9.165   1.332  0.3397  0.1236  0.4226
   67MOL0     O 8913  -0.098   9.297   1.292  0.7810 -0.4329  0.6048
   67MOL0     C 8914   0.014   9.355   1.252  0.6303  0.2421 -0.5163
   67MOL0     C 8915   0.100   9.407   1.347 -1.4324 -0.3336  0.4000
   67MOL0     C 8916   0.208   9.480   1.313 -0.8443  1.2199 -0.2612
   67MOL0     C 8917   0.245   9.493   1.171  0.4341  0.7006  0.3572
   67MOL0     O 8918   0.368   9.521   1.123  0.1742 -0.1573 -0.7655
   67MOL0     C 8919   0.422   9.652   1.173  0.1608  0.8294 -0.5482
   67MOL0     C 8920   0.454   9.740   1.059 -0.0374  0.3229 -1.0078
   67MOL0     C 8921   0.554   9.679   0.954  0.1896  0.4295 -0.1865
   67MOL0     C 8922   0.676   9.623   1.015 -0.5668  0.0991  0.2082
   67MOL0     C 8923   0.779   9.610   0.902 -0.8516 -0.1090 -0.0069
   67MOL0     C 8924   0.916   9.537   0.948  0.4039  0.1450  0.8662
   67MOL0     C 8925   1.002   9.509   0.816 -0.7894 -0.3752  1.2535
   67MOL0     C 8926   1.103   9.399   0.836  0.0295  0.1425 -0.0739
   67MOL0     N 8927   1.225   9.466   0.874 -0.3226 -0.3324  0.6591
   67MOL0     C 8928   1.256   9.530   0.987 -0.0886 -0.0717  0.4041
   67MOL0     C 8929   1.358   9.613   0.953 -0.8848  0.2264 -0.7240
   67MOL0     C 8930   1.427   9.705   1.055 -0.5140  0.0675 -0.8846
   67MOL0     C 8931   1.543   9.649   1.141  0.4503 -0.8311 -0.1919
   67MOL0     C 8932   1.521   9.510   1.205  0.4003  0.5766 -0.4521
   67MOL0     C 8933   1.639   9.465   1.282 -0.2560  0.4332  0.1106
   67MOL0     O 8934   1.746   9.444   1.179  0.6158  0.3153 -0.5646
   67MOL0     C 8935   1.862   9.401   1.224 -0.1966  0.4525 -0.3789
   67MOL0     C 8936   1.964   9.405   1.129  0.9426 -0.1137 -0.9359
   67MOL0     C 8937   2.092   9.362   1.173  0.2253  0.2847 -0.5079
   67MOL0     C 8938   2.106   9.294   1.299  0.2975 -0.1340  0.1178
   67MOL0     C 8939   2.245   9.259   1.344 -0.4132 -0.3639 -1.4181
   67MOL0     O 8940   2.262   9.162   1.451 -0.0924  0.0330  0.3361
   67MOL0     C 8941   2.393   9.124   1.478  0.7556 -0.7636 -0.6160
   67MOL0     C 8942   2.418   8.986   1.482  0.4299  0.2008  0.1587
   67MOL0     C 8943   2.543   8.938   1.500  0.0918 -0.2020 -0.0010
   67MOL0     C 8944   2.644   9.015   1.542 -0.6866  0.5017  0.8648
   67MOL0     O 8945   2.766   8.961   1.573 -0.2229 -0.0149  0.4829
   67MOL0     C 8946   2.878   9.038   1.618  0.3727  0.7569 -0.4416
   67MOL0     C 8947   2.991   8.961   1.696  0.1919  0.6372 -0.0197
   67MOL0     C 8948   3.059   9.034   1.817 -0.5513 -0.1320 -0.5190
   67MOL0     C 8949   3.139   9.160   1.792  0.0837 -0.3449 -0.6513
   67MOL0     C 8950   3.237   9.188   1.911  0.4967 -0.9683 -0.3589
   67MOL0     C 8951   3.279   9.345   1.915  0.4682  0.0746 -0.5030
   67MOL0     C 8952   3.408   9.370   1.993 -0.1609  0.6276  0.3461
   67MOL0     C 8953   3.490   9.490   1.930 -0.4867 -0.1807 -0.7034
   67MOL0    Cl 8954   3.573   9.567   2.064  0.1251 -0.5761  0.1434
   67MOL0     C 8955   2.614   9.152   1.557 -0.2703 -0.2522  0.0662
   67MOL0     C 8956   2.494   9.205   1.521 -0.3329  0.3305  0.0321
   67MOL0     O 8957   2.335   9.305   1.279  0.1543 -0.0001 -0.5793
   67MOL0     C 8958   2.001   9.269   1.374 -0.1518  0.7249 -0.5287
   67MOL0     C 8959   1.881   9.327   1.335 -0.1757  0.2360  0.3779
   67MOL0     N 8960   1.393   9.600   0.821 -1.0481  0.4311 -0.6927
   67MOL0     N 8961   1.315   9.503   0.778  1.3426 -0.0223 -0.0323
   67MOL0     C 8962   0.147   9.446   1.079 -0.6889  0.1475 -0.0108
   67MOL0     C 8963   0.042   9.379   1.117 -0.1040  0.5871  0.4231
   67MOL0     C 8964  -0.212   9.080   1.351  0.2915 -0.0143  0.4199
   67MOL0     C 8965  -0.198   8.957   1.427 -0.1316  0.1926  0.6115
   67MOL0     C 8966  -0.309   8.879   1.449 -0.0214 -0.4351 -0.0848
   67MOL0     C 8967  -0.438   8.914   1.408 -0.3364 -0.2172 -0.2133
   67MOL0     O 8968  -0.538   8.833   1.443  0.3837 -0.1744  0.7972
   67MOL0     C 8969  -0.644   8.878   1.522  0.9856  0.0247  0.2929
   67MOL0     C 8970  -0.742   8.761   1.531  0.6755  0.0380  0.5714
   67MOL0     C 8971  -0.831   8.761   1.406 -0.2006  1.3466  0.5005
   67MOL0     C 8972  -0.884   8.625   1.369 -0.0599 -0.7043  0.0178
   67MOL0     C 8973  -0.988   8.582   1.466  0.3683  0.1279  0.4778
   67MOL0     C 8974  -1.071   8.552   1.550 -0.8555  0.7406 -0.8812
   67MOL0     C 8975  -0.462   9.038   1.340 -0.0900  0.1083  0.7237
   67MOL0     C 8976  -0.350   9.122   1.315  0.8715  0.6418  0.1849
   67MOL0     C 8977  -0.380   9.247   1.235  0.2535 -0.2661  0.8658
   67MOL0     H 8978   0.092   9.400   1.455 -2.6305 -2.0195  0.2429
   67MOL0     H 8979   0.284   9.491   1.389 -1.1580 -2.0884  0.7151
   67MOL0     H 8980   0.348   9.708   1.231 -0.7115 -2.2700  1.6231
   67MOL0     H 8981   0.503   9.621   1.240 -3.3412 -3.0093  2.4828
   67MOL0     H 8982   0.488   9.831   1.108  1.3943 -1.2058  0.9935
   67MOL0     H 8983   0.356   9.766   1.016 -0.3779  2.4375  0.8766
   67MOL0     H 8984   0.570   9.750   0.872  0.2618 -1.1357 -1.5695
   67MOL0     H 8985   0.504   9.593   0.908  1.5826 -0.8111  0.5495
   67MOL0     H 8986   0.717   9.681   1.098  0.3906 -1.1716  0.6578
   67MOL0     H 8987   0.652   9.522   1.050  0.9729 -1.2666 -2.3220
   67MOL0     H 8988   0.728   9.552   0.825  1.5131 -1.0407 -0.9914
   67MOL0     H 8989   0.812   9.707   0.864 -1.3457  0.2675  0.5099
   67MOL0     H 8990   0.973   9.600   1.017  1.5816  0.4353 -0.3154
   67MOL0     H 8991   0.883   9.448   1.002 -2.1907  1.7060  2.0682
   67MOL0     H 8992   1.048   9.596   0.767 -0.1416 -0.9726  0.7876
   67MOL0     H 8993   0.922   9.473   0.751 -1.8012 -0.8050  2.6738
   67MOL0     H 8994   1.069   9.339   0.920 -0.7733  2.4399  1.3217
   67MOL0     H 8995   1.124   9.337   0.747  0.2943 -1.5758  1.1370
   67MOL0     H 8996   1.206   9.529   1.084  1.9455  0.5930  1.5369
   67MOL0     H 8997   1.471   9.790   1.003 -0.5436  0.8802  0.3698
   67MOL0     H 8998   1.358   9.751   1.127  3.1190  1.1683  2.1967
   67MOL0     H 8999   1.639   9.642   1.088  0.7791  0.4728  0.1998
   67MOL0     H 9000   1.582   9.707   1.225 -0.3149 -0.0434 -0.3680
   67MOL0     H 9001   1.497   9.436   1.129 -0.7902 -0.3916  0.8117
   67MOL0     H 9002   1.438   9.510   1.277 -1.2944 -0.4312 -2.3129
   67MOL0     H 9003   1.601   9.372   1.324 -0.4421  1.6994  2.9651
   67MOL0     H 9004   1.664   9.533   1.364 -0.4244  1.2469 -0.5052
   67MOL0     H 9005   1.948   9.463   1.039  1.7715  2.3870  0.4178
   67MOL0     H 9006   2.178   9.392   1.114  0.6524 -0.3119 -0.2047
   67MOL0     H 9007   2.329   8.930   1.458 -1.8269  2.1966  3.0694
   67MOL0     H 9008   2.572   8.834   1.493 -0.0878 -0.1508 -2.1736
   67MOL0     H 9009   2.923   9.076   1.526 -0.9558  1.5277 -0.7991
   67MOL0     H 9010   2.833   9.110   1.687 -2.2656 -0.9217 -0.2526
   67MOL0     H 9011   2.946   8.873   1.742  0.4281  0.4840 -0.0768
   67MOL0     H 9012   3.067   8.931   1.623  3.5384  3.1908  2.1097
   67MOL0     H 9013   2.982   9.056   1.892 -2.8629 -1.4112 -2.3757
   67MOL0     H 9014   3.121   8.953   1.855  2.5093  2.4020  0.3293
   67MOL0     H 9015   3.076   9.249   1.785  1.0230  0.4885  0.7884
   67MOL0     H 9016   3.190   9.155   1.695  0.3235  3.1969 -0.8176
   67MOL0     H 9017   3.330   9.130   1.903  0.7516 -0.3328 -2.6860
   67MOL0     H 9018   3.191   9.164   2.008 -1.0529  0.3992 -0.7113
   67MOL0     H 9019   3.296   9.357   1.807 -1.0742 -1.9566 -1.0322
   67MOL0     H 9020   3.201   9.409   1.957  1.3589  1.5906 -1.0944
   67MOL0     H 9021   3.464   9.276   1.999 -0.0081  0.4719 -2.3561
   67MOL0     H 9022   3.374   9.395   2.094  1.8451  1.6096  0.8207
   67MOL0     H 9023   3.564   9.451   1.859 -0.7871  0.2671 -1.2768
   67MOL0     H 9024   3.422   9.561   1.883 -1.1337  0.5655  1.2490
   67MOL0     H 9025   2.688   9.225   1.588 -0.3610 -0.1351  0.0016
   67MOL0     H 9026   2.480   9.312   1.531  0.6575  0.3009  2.2663
   67MOL0     H 9027   2.011   9.209   1.464  1.4486  0.9537 -0.5254
   67MOL0     H 9028   1.809   9.318   1.416 -1.1392 -1.9897 -0.6378
   67MOL0     H 9029   0.165   9.454   0.973  0.4530  1.8046  0.2630
   67MOL0     H 9030  -0.040   9.360   1.049 -0.9694  3.4449  0.5240
   67MOL0     H 9031  -0.109   8.930   1.482 -0.1074  2.1578  1.6440
   67MOL0     H 9032  -0.290   8.791   1.510  3.1167  0.1904  0.0313
   67MOL0     H 9033  -0.689   8.966   1.474  1.0119  1.8227  3.2603
   67MOL0     H 9034  -0.605   8.915   1.617 -2.6901  1.0674  1.5745
   67MOL0     H 9035  -0.810   8.770   1.617  0.1381 -1.2195  0.3005
   67MOL0     H 9036  -0.688   8.667   1.546  1.8731  0.8738  1.6262
   67MOL0     H 9037  -0.774   8.791   1.318 -1.4436  0.2356 -0.7280
   67MOL0     H 9038  -0.912   8.834   1.404 -1.8866 -0.4378  0.7069
   67MOL0     H 9039  -0.934   8.626   1.272 -1.9102 -0.1119  0.9316
   67MOL0     H 9040  -0.802   8.555   1.351  0.2797 -0.1773 -0.5431
   67MOL0     H 9041  -1.144   8.511   1.617  1.7977 -0.8437  1.2646
   67MOL0     H 9042  -0.561   9.061   1.302  0.2994 -0.4035 -0.6375
   67MOL0     H 9043  -0.475   9.234   1.183  0.1467 -0.8308  1.1890
   67MOL0     H 9044  -0.396   9.336   1.296  0.0468 -0.0554  0.5065
   67MOL0     H 9045  -0.308   9.263   1.154  0.2901 -0.2950  0.8933
   68MOL0     O 9046   1.433   4.527   3.576  0.2358  0.7341  0.3390
   68MOL0     C 9047   1.438   4.415   3.628  0.7352 -0.8512 -0.0530
   68MOL0     O 9048   1.538   4.366   3.703 -0.1566  0.1438  0.7855
   68MOL0     C 9049   1.662   4.417   3.677  0.2685  0.7656  0.2141
   68MOL0     C 9050   1.733   4.389   3.557  0.3286  0.6889 -0.4690
   68MOL0     C 9051   1.859   4.441   3.535 -0.1392  0.3210  0.8882
   68MOL0     C 9052   1.920   4.529   3.629 -1.0461 -0.5225  0.3790
   68MOL0     O 9053   2.033   4.594   3.591  0.3307 -0.6423 -0.3770
   68MOL0     C 9054   2.133   4.602   3.694 -0.7027  0.0684 -0.8245
   68MOL0     C 9055   2.200   4.463   3.719  0.7959 -0.9663  1.1536
   68MOL0     C 9056   2.295   4.449   3.838 -1.3652 -0.1001  0.8574
   68MOL0     C 9057   2.240   4.442   3.978  0.7819 -0.2573 -0.6826
   68MOL0     C 9058   2.356   4.397   4.074 -0.1426  0.0929  0.0222
   68MOL0     C 9059   2.297   4.381   4.212  0.9024  0.9227 -0.9042
   68MOL0     C 9060   2.387   4.321   4.316  0.0616 -0.5502  0.9410
   68MOL0     C 9061   2.497   4.423   4.372 -0.1583  0.0981 -0.2136
   68MOL0     N 9062   2.434   4.541   4.440 -0.5207  0.0663  0.6677
   68MOL0     C 9063   2.341   4.535   4.544 -0.8481  0.1833  0.7498
   68MOL0     C 9064   2.335   4.667   4.591  0.4327 -0.0300  1.0051
   68MOL0     C 9065   2.238   4.719   4.695 -0.2506  0.2306 -0.2673
   68MOL0     C 9066   2.279   4.668   4.838  0.6118  0.0257 -0.9102
   68MOL0     C 9067   2.401   4.745   4.895  0.0523  0.0444  0.5851
   68MOL0     C 9068   2.367   4.888   4.924 -1.1626  1.1869 -0.1178
   68MOL0     O 9069   2.266   4.896   5.024  0.0569 -0.9296 -0.0416
   68MOL0     C 9070   2.257   5.011   5.098 -0.2927  0.1710 -0.0296
   68MOL0     C 9071   2.178   4.995   5.207 -0.8531  0.3231 -1.0070
   68MOL0     C 9072   2.144   5.102   5.289  0.3218  0.7114  0.5399
   68MOL0     C 9073   2.182   5.232   5.262 -0.9432  0.3570  0.0907
   68MOL0     C 9074   2.139   5.342   5.349  0.3668  0.1541 -0.3097
   68MOL0     O 9075   2.069   5.319   5.466  0.6664 -0.1851  0.4605
   68MOL0     C 9076   2.056   5.417   5.564  0.5260 -1.0794  0.6455
   68MOL0     C 9077   2.145   5.516   5.597 -0.4088 -0.0814  0.7601
   68MOL0     C 9078   2.134   5.612   5.704  0.2678  0.0459  0.5926
   68MOL0     C 9079   2.014   5.606   5.774 -0.1822  0.2402 -0.3516
   68MOL0     O 9080   1.979   5.708   5.859 -0.1484  0.2656 -0.4039
   68MOL0     C 9081   2.074   5.727   5.961 -0.6950  0.2976  0.6944
   68MOL0     C 9082   2.017   5.815   6.072 -0.0222 -0.7284 -0.8051
   68MOL0     C 9083   2.134   5.880   6.145  1.1468 -0.2597  0.4286
   68MOL0     C 9084   2.085   5.958   6.268 -0.7904 -0.9220 -0.4404
   68MOL0     C 9085   2.209   6.019   6.341  0.6548 -0.0700 -0.0815
   68MOL0     C 9086   2.316   5.915   6.404  0.3073  0.6683 -0.0030
   68MOL0     C 9087   2.257   5.819   6.508  1.3819  0.2747 -0.1314
   68MOL0     C 9088   2.353   5.694   6.523 -0.3664 -0.1333  0.0213
   68MOL0    Cl 9089   2.506   5.750   6.598  0.0540  0.1297 -0.3895
   68MOL0     C 9090   1.917   5.498   5.754  0.3876 -0.2940 -0.5595
   68MOL0     C 9091   1.943   5.397   5.656  0.6356 -0.5332 -0.7200
   68MOL0     O 9092   2.162   5.457   5.298  0.0751 -0.2368  0.0505
   68MOL0     C 9093   2.270   5.242   5.151 -0.2486  0.2830  0.2787
   68MOL0     C 9094   2.302   5.132   5.063 -0.3353  0.1691  0.1092
   68MOL0     N 9095   2.417   4.741   4.515 -0.3206  0.1586  1.3508
   68MOL0     N 9096   2.476   4.665   4.425  0.0297  0.4185 -0.1583
   68MOL0     C 9097   1.843   4.565   3.746 -0.6351 -0.1828 -0.0448
   68MOL0     C 9098   1.717   4.503   3.758  0.0858 -0.9116  0.1617
   68MOL0     C 9099   1.325   4.317   3.594 -1.0766  0.6212  0.1389
   68MOL0     C 9100   1.325   4.191   3.661 -0.0106 -0.4577 -0.1790
   68MOL0     C 9101   1.245   4.085   3.616  0.2937 -0.4385  1.1792
   68MOL0     C 9102   1.146   4.115   3.518  0.1073 -0.1631  0.1431
   68MOL0     O 9103   1.067   4.010   3.466  0.4879  1.1374 -0.5520
   68MOL0     C 9104   0.945   4.049   3.415  0.0543  0.1282  1.0628
   68MOL0     C 9105   0.869   3.920   3.369 -0.0933  0.0734 -0.5058
   68MOL0     C 9106   0.871   3.895   3.220 -0.3476 -0.4218 -0.5239
   68MOL0     C 9107   0.807   3.766   3.177  0.3329 -0.8934 -0.2485
   68MOL0     C 9108   0.664   3.764   3.217 -0.5000 -0.0426 -0.4103
   68MOL0     C 9109   0.547   3.775   3.226  0.2479  0.1039 -0.9114
   68MOL0     C 9110   1.129   4.245   3.471  0.0784 -0.1275 -0.2956
   68MOL0     C 9111   1.228   4.349   3.499  0.2647  0.1358 -0.2263
   68MOL0     C 9112   1.207   4.481   3.429  0.5963 -0.2111 -0.6181
   68MOL0     H 9113   1.694   4.322   3.482 -1.1864 -0.4664  1.2909
   68MOL0     H 9114   1.898   4.412   3.438 -1.4075 -0.2639  0.5275
   68MOL0     H 9115   2.202   4.680   3.661 -0.6487 -0.2860 -1.5617
   68MOL0     H 9116   2.087   4.635   3.788 -0.8702 -0.3404 -0.7585
   68MOL0     H 9117   2.256   4.435   3.630  0.0192 -4.2693  1.5639
   68MOL0     H 9118   2.126   4.384   3.738  1.1089 -1.2214  1.3178
   68MOL0     H 9119   2.372   4.525   3.824 -0.9894 -0.7351 -0.6515
   68MOL0     H 9120   2.346   4.353   3.824  3.9662  2.3013  1.3902
   68MOL0     H 9121   2.197   4.539   4.006 -0.3288 -1.2905  1.4397
   68MOL0     H 9122   2.163   4.366   3.964 -0.4727  1.0815 -1.3316
   68MOL0     H 9123   2.406   4.308   4.035 -1.5831 -0.3633 -0.8759
   68MOL0     H 9124   2.435   4.472   4.077  0.7682 -0.7470 -1.5811
   68MOL0     H 9125   2.262   4.476   4.253 -0.8418  0.1075 -0.3984
   68MOL0     H 9126   2.205   4.322   4.213  0.9315  0.7071  2.7872
   68MOL0     H 9127   2.445   4.235   4.281  1.9274  1.3958 -1.1249
   68MOL0     H 9128   2.328   4.286   4.401 -2.3026 -0.7246 -0.6759
   68MOL0     H 9129   2.542   4.365   4.453  0.0080  0.2655 -0.1827
   68MOL0     H 9130   2.575   4.449   4.299 -1.9191  1.6045 -1.6568
   68MOL0     H 9131   2.285   4.450   4.582 -0.0185 -1.1457 -0.8923
   68MOL0     H 9132   2.234   4.829   4.690 -1.3611  0.2905  1.3161
   68MOL0     H 9133   2.134   4.687   4.684 -0.0537 -0.0416 -1.4288
   68MOL0     H 9134   2.192   4.685   4.903  1.2979 -1.9612  0.6663
   68MOL0     H 9135   2.308   4.562   4.841  1.5777  0.2897  1.4610
   68MOL0     H 9136   2.492   4.751   4.834  0.4259  2.9978  1.2875
   68MOL0     H 9137   2.436   4.689   4.982  0.8040 -0.7320 -0.1848
   68MOL0     H 9138   2.341   4.939   4.831 -0.3710 -0.7636 -1.4614
   68MOL0     H 9139   2.454   4.935   4.971  0.6178 -2.1933  0.2460
   68MOL0     H 9140   2.153   4.893   5.233 -0.0543  0.1215 -1.0203
   68MOL0     H 9141   2.089   5.088   5.382  2.2719  0.7258  1.7323
   68MOL0     H 9142   2.239   5.526   5.543 -1.1303  0.1414 -0.4863
   68MOL0     H 9143   2.209   5.688   5.722  0.6702 -0.2417  0.1241
   68MOL0     H 9144   2.116   5.634   5.997 -0.0499 -0.0985 -0.9746
   68MOL0     H 9145   2.155   5.792   5.926 -2.0967  1.3023 -0.8967
   68MOL0     H 9146   1.971   5.901   6.022  1.8421  3.0825  3.3412
   68MOL0     H 9147   1.929   5.780   6.127 -1.1015  4.4632  1.4393
   68MOL0     H 9148   2.205   5.803   6.176  2.3347  0.7836  0.3573
   68MOL0     H 9149   2.192   5.942   6.076  0.1454 -1.0059 -1.1194
   68MOL0     H 9150   2.028   5.903   6.343 -1.9375  3.1584  1.9611
   68MOL0     H 9151   2.021   6.042   6.242  0.0169  0.6665  2.3249
   68MOL0     H 9152   2.175   6.081   6.425  0.6096 -0.2271  0.0188
   68MOL0     H 9153   2.264   6.079   6.268  0.0711  3.1070  1.8641
   68MOL0     H 9154   2.363   5.856   6.325 -1.2682 -0.6186 -0.0271
   68MOL0     H 9155   2.394   5.982   6.442  0.0721  1.4179 -0.8013
   68MOL0     H 9156   2.152   5.800   6.487  1.6766 -0.2378 -1.2559
   68MOL0     H 9157   2.253   5.872   6.603 -0.5593 -0.7119  0.3885
   68MOL0     H 9158   2.301   5.617   6.582 -0.8189 -0.5238 -0.8653
   68MOL0     H 9159   2.373   5.649   6.426  3.6686 -1.8513  1.4464
   68MOL0     H 9160   1.832   5.508   5.821  2.8388  0.0602  2.7996
   68MOL0     H 9161   1.878   5.314   5.632 -2.0544  1.2722 -0.1179
   68MOL0     H 9162   2.311   5.336   5.116 -0.4159  0.9220  1.7244
   68MOL0     H 9163   2.359   5.139   4.970  2.0668 -1.0325  1.4151
   68MOL0     H 9164   1.872   4.643   3.815 -2.5652  0.7301 -0.1992
   68MOL0     H 9165   1.668   4.533   3.850 -1.1750 -0.9164 -0.4848
   68MOL0     H 9166   1.395   4.163   3.739 -2.2661  0.0950  2.1807
   68MOL0     H 9167   1.252   3.984   3.654 -4.6435 -1.7710 -0.7072
   68MOL0     H 9168   0.947   4.106   3.321 -1.6471 -2.0004 -0.3625
   68MOL0     H 9169   0.886   4.106   3.487 -2.3287  0.4470 -1.0123
   68MOL0     H 9170   0.764   3.928   3.399 -0.3623  0.8808 -1.5581
   68MOL0     H 9171   0.922   3.841   3.422  0.9944  1.3729  0.4261
   68MOL0     H 9172   0.978   3.900   3.199 -0.4823 -0.9032 -1.3537
   68MOL0     H 9173   0.814   3.976   3.174 -2.1004 -0.8517  0.7699
   68MOL0     H 9174   0.815   3.762   3.068 -0.7997  3.0189 -0.6355
   68MOL0     H 9175   0.865   3.678   3.205  1.1566 -0.3077 -0.0936
   68MOL0     H 9176   0.443   3.758   3.249  0.2598 -1.3754 -1.8446
   68MOL0     H 9177   1.052   4.267   3.397 -2.9009 -0.5896  2.4593
   68MOL0     H 9178   1.163   4.544   3.506 -2.0164 -4.1043  1.4047
   68MOL0     H 9179   1.300   4.516   3.383 -0.1503  0.4969 -1.6408
   68MOL0     H 9180   1.138   4.474   3.344  0.3676  1.7826 -0.6316
   69MOL0     O 9181  11.012   0.642   2.657  0.2857 -0.3765 -0.6897
   69MOL0     C 9182  11.018   0.711   2.553 -0.2147 -1.1825  0.4809
   69MOL0     O 9183  11.118   0.806   2.525 -0.2592 -0.0147  0.0371
   69MOL0     C 9184  11.211   0.825   2.624 -0.6211 -0.8907  0.0102
   69MOL0     C 9185  11.346   0.830   2.592  0.4538 -0.2409 -0.2821
   69MOL0     C 9186  11.446   0.863   2.684 -0.0871 -0.9035  0.7715
   69MOL0     C 9187  11.413   0.888   2.819 -0.3460 -0.8603  0.5601
   69MOL0     O 9188  11.498   0.906   2.920 -0.0661  0.9251  0.0624
   69MOL0     C 9189  11.459   0.966   3.045 -0.0626  0.5656 -0.4769
   69MOL0     C 9190  11.583   1.018   3.123  0.5462 -0.0243  2.0672
   69MOL0     C 9191  11.553   1.017   3.278 -0.9291 -0.0789  0.1754
   69MOL0     C 9192  11.543   0.870   3.327  0.4320  0.6429 -0.2914
   69MOL0     C 9193  11.674   0.803   3.380 -0.1779  1.1083 -0.6907
   69MOL0     C 9194  11.662   0.679   3.464 -0.8078  0.4284  0.2001
   69MOL0     C 9195  11.623   0.554   3.386 -0.8083  0.7651  0.6391
   69MOL0     C 9196  11.739   0.503   3.302 -0.0714 -0.5610 -0.0135
   69MOL0     N 9197  11.713   0.364   3.264 -0.5786  0.0947  0.3079
   69MOL0     C 9198  11.772   0.251   3.318 -0.8846 -0.6502  0.0706
   69MOL0     C 9199  11.752   0.149   3.226 -0.0976 -0.2991 -0.1488
   69MOL0     C 9200  11.799   0.009   3.253 -0.6456 -0.0502  0.5158
   69MOL0     C 9201  11.820  -0.082   3.132 -0.6790  0.1869  0.0706
   69MOL0     C 9202  11.854  -0.218   3.200  0.8792  0.4822 -0.4221
   69MOL0     C 9203  11.862  -0.334   3.100 -0.4398  0.1744  0.1783
   69MOL0     O 9204  11.969  -0.305   3.012  0.1115 -0.1732  1.3567
   69MOL0     C 9205  12.027  -0.398   2.937 -0.5937  0.4681  0.6808
   69MOL0     C 9206  12.148  -0.349   2.889  0.5063  0.2835  0.5167
   69MOL0     C 9207  12.229  -0.440   2.809 -0.4800 -0.6222 -0.2396
   69MOL0     C 9208  12.192  -0.573   2.785  0.5883 -0.2966  0.6560
   69MOL0     C 9209  12.278  -0.656   2.692 -0.9169 -0.4094  0.3224
   69MOL0     O 9210  12.245  -0.788   2.685  0.9711 -0.2360 -0.2008
   69MOL0     C 9211  12.316  -0.875   2.612  0.3454 -0.3128 -0.1176
   69MOL0     C 9212  12.325  -1.015   2.643  0.5598 -0.0218  1.3651
   69MOL0     C 9213  12.389  -1.105   2.556 -0.5483  0.2027 -0.0420
   69MOL0     C 9214  12.455  -1.069   2.440  0.1898 -0.4864  0.9184
   69MOL0     O 9215  12.537  -1.151   2.363 -0.2410 -0.1243  0.7672
   69MOL0     C 9216  12.563  -1.286   2.408 -0.3239  0.1068  0.2604
   69MOL0     C 9217  12.433  -1.374   2.391  0.2970  0.4270 -0.7089
   69MOL0     C 9218  12.457  -1.512   2.460 -0.0377  0.0781 -0.7036
   69MOL0     C 9219  12.340  -1.609   2.417  0.7257 -0.3857 -0.0433
   69MOL0     C 9220  12.380  -1.695   2.289 -0.1071 -0.0301 -0.8307
   69MOL0     C 9221  12.272  -1.802   2.268 -0.2468 -0.6809 -0.7839
   69MOL0     C 9222  12.285  -1.890   2.141  0.0559 -0.3085 -0.1347
   69MOL0     C 9223  12.150  -1.965   2.125 -0.4903 -0.5239  0.5169
   69MOL0    Cl 9224  12.146  -2.065   1.982 -0.3198 -0.0323 -0.3317
   69MOL0     C 9225  12.431  -0.934   2.406 -0.8168  0.6684  0.0200
   69MOL0     C 9226  12.368  -0.841   2.489  0.0808  0.5673  0.8624
   69MOL0     O 9227  12.372  -0.601   2.630  0.0330 -0.0500 -0.3518
   69MOL0     C 9228  12.083  -0.621   2.851 -0.6064 -0.7822 -0.0992
   69MOL0     C 9229  12.000  -0.531   2.918  0.1334 -0.3941 -0.5055
   69MOL0     N 9230  11.686   0.205   3.116 -0.6250  0.5005 -0.5197
   69MOL0     N 9231  11.651   0.328   3.152  1.4345 -0.0120 -0.1912
   69MOL0     C 9232  11.281   0.881   2.849  0.7316 -0.3265  0.2653
   69MOL0     C 9233  11.182   0.870   2.751 -0.3513  0.3942 -0.8290
   69MOL0     C 9234  10.924   0.670   2.444  0.2968 -1.2597  0.3886
   69MOL0     C 9235  10.837   0.563   2.473  0.2398  0.5297 -0.4651
   69MOL0     C 9236  10.744   0.511   2.379 -0.2275  0.3738  0.6507
   69MOL0     C 9237  10.749   0.560   2.250 -0.7841 -0.2582  0.7364
   69MOL0     O 9238  10.674   0.501   2.155  0.5329 -0.8133  0.1368
   69MOL0     C 9239  10.666   0.560   2.027  0.8060 -0.1800  0.4585
   69MOL0     C 9240  10.619   0.455   1.934 -0.4389  0.3389 -0.4327
   69MOL0     C 9241  10.595   0.494   1.789  0.8691  0.2549 -1.3427
   69MOL0     C 9242  10.590   0.377   1.687  0.6757 -0.1760  0.6031
   69MOL0     C 9243  10.469   0.298   1.703  0.6721 -0.4120  0.1230
   69MOL0     C 9244  10.374   0.234   1.740 -0.3297  0.1508 -0.5116
   69MOL0     C 9245  10.831   0.671   2.223  0.6684  0.1232  0.2968
   69MOL0     C 9246  10.916   0.726   2.313 -0.6321  0.4334 -0.2998
   69MOL0     C 9247  10.991   0.853   2.282  0.1919  0.5359  0.2478
   69MOL0     H 9248  11.377   0.807   2.491  1.2493 -0.4292 -0.0013
   69MOL0     H 9249  11.547   0.860   2.645 -0.3843  0.5912 -0.1899
   69MOL0     H 9250  11.384   1.046   3.043 -0.2275  0.6592  2.9750
   69MOL0     H 9251  11.402   0.895   3.106  0.2152  1.4909  0.9057
   69MOL0     H 9252  11.613   1.115   3.082  4.6574 -1.7211  0.5851
   69MOL0     H 9253  11.661   0.945   3.101 -0.8154 -0.4982 -1.9612
   69MOL0     H 9254  11.462   1.075   3.298 -0.7748 -0.4584  2.1499
   69MOL0     H 9255  11.631   1.060   3.341 -0.4086 -0.5058 -0.1720
   69MOL0     H 9256  11.474   0.861   3.411 -0.6259 -1.1535 -1.3030
   69MOL0     H 9257  11.528   0.798   3.246 -0.1738  0.9842 -0.4867
   69MOL0     H 9258  11.738   0.783   3.295 -0.4590 -0.4242 -0.5599
   69MOL0     H 9259  11.722   0.865   3.457  1.6574  0.7851 -1.5373
   69MOL0     H 9260  11.764   0.661   3.499 -0.9355 -1.4665 -0.2806
   69MOL0     H 9261  11.589   0.708   3.540 -2.6553 -0.8926 -0.9734
   69MOL0     H 9262  11.539   0.574   3.320  0.6346  0.1944 -1.4891
   69MOL0     H 9263  11.607   0.473   3.457 -1.7360 -0.5516 -0.9958
   69MOL0     H 9264  11.750   0.568   3.215 -0.1863 -0.4178  0.0791
   69MOL0     H 9265  11.829   0.508   3.363  0.7047  1.8453 -1.2315
   69MOL0     H 9266  11.815   0.237   3.416 -2.5802  5.7659  2.2313
   69MOL0     H 9267  11.895   0.013   3.306  1.0529 -0.2581 -2.3518
   69MOL0     H 9268  11.728  -0.039   3.322  1.8472 -0.6943  2.8156
   69MOL0     H 9269  11.735  -0.096   3.065 -0.8921 -0.8164  0.5199
   69MOL0     H 9270  11.906  -0.062   3.067  0.8334 -2.7926  0.9479
   69MOL0     H 9271  11.780  -0.237   3.279  1.1781 -0.1649 -0.2862
   69MOL0     H 9272  11.955  -0.209   3.241 -0.2705 -0.9994  3.1229
   69MOL0     H 9273  11.768  -0.350   3.046  0.0688  0.7400 -0.9129
   69MOL0     H 9274  11.891  -0.427   3.149  2.9539  1.3148  0.5617
   69MOL0     H 9275  12.171  -0.243   2.895 -0.9485  0.5702  1.6034
   69MOL0     H 9276  12.325  -0.409   2.771  0.3628  1.9001  3.3628
   69MOL0     H 9277  12.268  -1.048   2.728 -2.6068  3.3920  0.8392
   69MOL0     H 9278  12.418  -1.204   2.591  0.5352  0.1585 -0.9823
   69MOL0     H 9279  12.641  -1.319   2.338  0.3498  1.2865  0.4227
   69MOL0     H 9280  12.587  -1.281   2.515 -0.0366 -1.3582  0.2757
   69MOL0     H 9281  12.337  -1.329   2.419  0.5254  0.5065 -0.0595
   69MOL0     H 9282  12.431  -1.386   2.282  0.8093 -0.1758 -0.6546
   69MOL0     H 9283  12.561  -1.548   2.457 -0.2577 -0.5094 -2.5540
   69MOL0     H 9284  12.444  -1.502   2.568 -0.8683 -2.2727 -0.5439
   69MOL0     H 9285  12.243  -1.562   2.397  0.7598  0.5018  1.6963
   69MOL0     H 9286  12.324  -1.681   2.499  0.9074 -1.1757 -0.6841
   69MOL0     H 9287  12.476  -1.747   2.290  0.8377  1.6376 -0.0763
   69MOL0     H 9288  12.371  -1.632   2.201  2.5318  0.5768 -0.7555
   69MOL0     H 9289  12.277  -1.862   2.359  2.0912  1.7638  0.8925
   69MOL0     H 9290  12.180  -1.743   2.268 -0.0099 -0.2125  1.3612
   69MOL0     H 9291  12.366  -1.962   2.153 -0.5223 -1.0413 -0.5799
   69MOL0     H 9292  12.298  -1.818   2.059 -1.4593 -0.8598 -0.8933
   69MOL0     H 9293  12.132  -2.028   2.213  1.7978 -1.8158  0.1529
   69MOL0     H 9294  12.068  -1.893   2.131  0.5533  0.6740  0.8383
   69MOL0     H 9295  12.469  -0.896   2.312 -0.4169  0.4011  0.0666
   69MOL0     H 9296  12.346  -0.741   2.451 -4.1267 -0.6839 -0.4544
   69MOL0     H 9297  12.063  -0.728   2.858  1.5468 -1.2215 -0.1175
   69MOL0     H 9298  11.905  -0.573   2.950  0.4790  1.0788  2.9291
   69MOL0     H 9299  11.237   0.913   2.943  2.3068  1.6316  0.3966
   69MOL0     H 9300  11.081   0.886   2.785 -0.1536  2.6462 -1.1472
   69MOL0     H 9301  10.829   0.519   2.572 -0.7402  0.9588 -0.3371
   69MOL0     H 9302  10.700   0.419   2.414  0.2913  0.2812  1.0826
   69MOL0     H 9303  10.757   0.603   1.984 -0.9782  0.0700 -3.4508
   69MOL0     H 9304  10.596   0.643   2.032  2.3895  1.1687  1.6621
   69MOL0     H 9305  10.529   0.426   1.990 -0.0847 -0.6992 -0.3699
   69MOL0     H 9306  10.695   0.376   1.938  0.1037  0.8502 -0.6230
   69MOL0     H 9307  10.677   0.550   1.741  0.6239  1.2823 -0.5918
   69MOL0     H 9308  10.504   0.554   1.790 -1.3730 -2.8989 -0.0298
   69MOL0     H 9309  10.592   0.418   1.586 -0.1577  0.0913  0.6893
   69MOL0     H 9310  10.673   0.311   1.715  1.0915  0.4242  0.8004
   69MOL0     H 9311  10.298   0.166   1.772 -0.0294 -0.5821 -1.3320
   69MOL0     H 9312  10.831   0.713   2.123 -0.6024 -1.6972 -0.5329
   69MOL0     H 9313  11.099   0.842   2.288  0.1564  0.8923  2.8750
   69MOL0     H 9314  10.969   0.888   2.181 -0.6597 -1.6769 -0.3925
   69MOL0     H 9315  10.968   0.932   2.353 -4.5306 -1.2586  1.1029
   70MOL0     O 9316  10.465   0.154   4.288  0.2005  0.1845  0.0416
   70MOL0     C 9317  10.390   0.058   4.255  1.1062 -0.1863 -0.9018
   70MOL0     O 9318  10.365  -0.052   4.325  0.4655  0.6549  0.3757
   70MOL0     C 9319  10.468  -0.088   4.406 -0.1186 -0.4335  0.5854
   70MOL0     C 9320  10.446  -0.083   4.537  0.3345  0.2810 -0.5888
   70MOL0     C 9321  10.548  -0.122   4.628  0.2878  0.2838  0.2053
   70MOL0     C 9322  10.673  -0.171   4.579 -0.2102  0.5602  0.6418
   70MOL0     O 9323  10.766  -0.200   4.676 -0.2650  0.1207  0.2225
   70MOL0     C 9324  10.906  -0.221   4.651 -0.3381  0.2583  0.1478
   70MOL0     C 9325  10.989  -0.095   4.612 -0.1921  0.3496 -2.1637
   70MOL0     C 9326  11.142  -0.112   4.608  0.3033  0.8493 -0.1055
   70MOL0     C 9327  11.203   0.003   4.525 -0.2078  0.2402 -0.1452
   70MOL0     C 9328  11.350   0.025   4.524 -0.2173 -0.6468  0.6785
   70MOL0     C 9329  11.418   0.072   4.653  0.0121  0.5344  0.3529
   70MOL0     C 9330  11.551   0.134   4.622 -0.3565  0.4357 -0.2634
   70MOL0     C 9331  11.673   0.046   4.652  0.1647 -0.9661  0.1378
   70MOL0     N 9332  11.679  -0.071   4.561 -0.2249  0.1536  0.0458
   70MOL0     C 9333  11.636  -0.198   4.572  0.7517  0.9841 -0.4767
   70MOL0     C 9334  11.659  -0.268   4.454  0.5938 -0.5374 -0.8113
   70MOL0     C 9335  11.614  -0.411   4.419 -0.3326 -0.3019  0.5693
   70MOL0     C 9336  11.614  -0.504   4.544 -1.2968 -0.0885  0.0544
   70MOL0     C 9337  11.757  -0.537   4.588  0.4931 -0.1972 -0.3842
   70MOL0     C 9338  11.760  -0.647   4.706  0.4390 -0.7845  0.3658
   70MOL0     O 9339  11.763  -0.779   4.648  0.3030  0.0704 -0.4982
   70MOL0     C 9340  11.681  -0.872   4.717 -0.1478 -0.2531 -0.2752
   70MOL0     C 9341  11.664  -0.875   4.863 -0.5059  0.8079  0.2665
   70MOL0     C 9342  11.586  -0.975   4.920 -0.1932 -1.0675 -0.3286
   70MOL0     C 9343  11.511  -1.060   4.841 -0.0861  0.2527  0.6003
   70MOL0     C 9344  11.419  -1.164   4.903  0.0012 -1.0839  0.2781
   70MOL0     O 9345  11.402  -1.283   4.832 -0.2670 -0.3596  0.0461
   70MOL0     C 9346  11.288  -1.366   4.859 -0.6901 -1.3977 -0.2012
   70MOL0     C 9347  11.162  -1.321   4.903 -0.3224 -0.8623  0.2386
   70MOL0     C 9348  11.055  -1.406   4.931 -0.4186  1.3558 -0.1216
   70MOL0     C 9349  11.079  -1.545   4.912 -0.2062 -0.3291  0.0299
   70MOL0     O 9350  10.985  -1.640   4.925  0.3375 -0.0116  0.4359
   70MOL0     C 9351  10.851  -1.602   4.947 -0.1525  0.5243  0.0894
   70MOL0     C 9352  10.788  -1.548   4.820  0.1102 -0.5414  0.7441
   70MOL0     C 9353  10.633  -1.551   4.846  1.1924 -0.0852  0.0815
   70MOL0     C 9354  10.561  -1.497   4.728 -1.1305 -0.4680 -0.3948
   70MOL0     C 9355  10.416  -1.477   4.751 -0.0587  0.3851  0.1518
   70MOL0     C 9356  10.338  -1.613   4.767  0.1954 -0.2536  0.7115
   70MOL0     C 9357  10.368  -1.734   4.672  0.2013 -1.0324 -0.3979
   70MOL0     C 9358  10.248  -1.834   4.662 -0.4140 -0.2218 -0.1577
   70MOL0    Cl 9359  10.178  -1.879   4.826  0.3875 -0.1890 -0.1003
   70MOL0     C 9360  11.199  -1.593   4.880 -0.4932 -0.3439 -0.5732
   70MOL0     C 9361  11.295  -1.503   4.839  0.3473 -1.3838 -0.2066
   70MOL0     O 9362  11.376  -1.130   5.011  1.0078  0.6114 -0.5389
   70MOL0     C 9363  11.515  -1.046   4.699 -0.0534  0.4225  0.7216
   70MOL0     C 9364  11.597  -0.956   4.643  0.0158 -0.2345 -0.2491
   70MOL0     N 9365  11.727  -0.174   4.371  0.3670 -0.0044  0.3357
   70MOL0     N 9366  11.728  -0.069   4.436 -0.0064 -0.1282 -0.3072
   70MOL0     C 9367  10.696  -0.172   4.439  0.7095 -0.0952  1.6998
   70MOL0     C 9368  10.590  -0.122   4.357  1.0438  0.7839  0.1958
   70MOL0     C 9369  10.306   0.069   4.136 -0.8765 -0.8688  0.3866
   70MOL0     C 9370  10.376   0.090   4.009 -0.4499 -0.3053  0.3583
   70MOL0     C 9371  10.305   0.092   3.884  0.4336  0.2033  0.5504
   70MOL0     C 9372  10.167   0.078   3.884 -0.1118  0.2843 -0.3432
   70MOL0     O 9373  10.112   0.093   3.765 -0.0620 -0.6754  0.5268
   70MOL0     C 9374   9.980   0.049   3.739  0.2439 -0.3434 -0.6961
   70MOL0     C 9375   9.977  -0.099   3.738 -0.1468 -0.9984 -0.8886
   70MOL0     C 9376   9.837  -0.166   3.744  0.0276 -0.6404  0.0603
   70MOL0     C 9377   9.748  -0.129   3.857  0.4043  0.3682  0.8544
   70MOL0     C 9378   9.807  -0.187   3.981  0.2860 -0.3747  0.4941
   70MOL0     C 9379   9.832  -0.240   4.085  0.8535 -0.0398 -0.7682
   70MOL0     C 9380  10.100   0.059   4.010 -0.3647  0.3404 -0.3463
   70MOL0     C 9381  10.161   0.059   4.137 -0.5515 -0.3287 -0.1708
   70MOL0     C 9382  10.080   0.041   4.267  0.2486  0.4327 -0.1101
   70MOL0     H 9383  10.360  -0.043   4.590  0.9269 -1.3376  1.7972
   70MOL0     H 9384  10.533  -0.103   4.734  1.4372  0.0339  0.4268
   70MOL0     H 9385  10.937  -0.281   4.737 -2.3840 -1.8862 -0.4938
   70MOL0     H 9386  10.925  -0.293   4.571 -0.3294 -2.6077  2.5441
   70MOL0     H 9387  10.985  -0.029   4.699  4.1380 -2.2569  0.3876
   70MOL0     H 9388  10.949  -0.052   4.519 -1.0304  1.3050 -1.3796
   70MOL0     H 9389  11.156  -0.209   4.559 -1.9052 -0.1802  1.1239
   70MOL0     H 9390  11.180  -0.139   4.707 -4.0372 -2.0482  1.0552
   70MOL0     H 9391  11.169  -0.010   4.422 -1.8484  1.2738  0.2210
   70MOL0     H 9392  11.156   0.098   4.551 -2.3371 -0.2416 -1.9115
   70MOL0     H 9393  11.400  -0.068   4.495  0.4529 -0.2840  0.6618
   70MOL0     H 9394  11.364   0.094   4.440 -0.8885 -3.3443 -1.8256
   70MOL0     H 9395  11.357   0.140   4.712  1.0909 -0.2966  2.5531
   70MOL0     H 9396  11.430  -0.018   4.715 -1.2645 -0.9914 -1.5101
   70MOL0     H 9397  11.568   0.223   4.685  2.5814 -0.2326  0.0547
   70MOL0     H 9398  11.557   0.176   4.521  3.2443  2.8096  0.7289
   70MOL0     H 9399  11.767   0.102   4.644  0.2003 -1.2940 -2.9308
   70MOL0     H 9400  11.659   0.016   4.756  1.8603 -0.2839  0.5897
   70MOL0     H 9401  11.576  -0.240   4.652 -1.5376 -0.4186 -2.7650
   70MOL0     H 9402  11.513  -0.390   4.380 -0.2153  2.6073  1.5691
   70MOL0     H 9403  11.671  -0.452   4.335 -1.0551  1.0884 -0.6727
   70MOL0     H 9404  11.570  -0.451   4.629 -4.7225  0.5169 -1.9239
   70MOL0     H 9405  11.558  -0.596   4.529 -0.9494 -0.3753  0.4820
   70MOL0     H 9406  11.796  -0.445   4.632  0.7898 -0.2837 -0.4641
   70MOL0     H 9407  11.818  -0.578   4.507 -0.0119 -0.8217 -0.4571
   70MOL0     H 9408  11.669  -0.641   4.766  0.9817 -3.3790  1.5751
   70MOL0     H 9409  11.846  -0.630   4.771  0.1672 -0.6716  0.6950
   70MOL0     H 9410  11.726  -0.806   4.919  0.4844  1.3190 -1.3826
   70MOL0     H 9411  11.576  -0.982   5.028  0.1720 -3.1774 -0.3757
   70MOL0     H 9412  11.150  -1.215   4.924 -1.0212 -0.7922 -0.4976
   70MOL0     H 9413  10.971  -1.355   4.977  0.5894  1.6495  1.4659
   70MOL0     H 9414  10.791  -1.684   4.988  0.5206  0.5248  1.1215
   70MOL0     H 9415  10.836  -1.530   5.028 -0.2954  0.9372 -0.3010
   70MOL0     H 9416  10.836  -1.456   4.786  1.1997 -1.1234  0.6569
   70MOL0     H 9417  10.805  -1.612   4.732 -2.6380 -0.7357  0.2507
   70MOL0     H 9418  10.597  -1.654   4.856  0.6393 -0.6796 -5.2058
   70MOL0     H 9419  10.599  -1.493   4.932 -1.3843  2.3000 -2.3463
   70MOL0     H 9420  10.591  -1.560   4.643  1.2669  1.4296 -1.0770
   70MOL0     H 9421  10.603  -1.400   4.701 -2.7812  1.2597  2.7408
   70MOL0     H 9422  10.380  -1.434   4.657 -0.4125  3.5613  1.5893
   70MOL0     H 9423  10.391  -1.405   4.830 -3.1526 -1.7930  1.3596
   70MOL0     H 9424  10.340  -1.645   4.872 -1.2216 -0.2457  0.7618
   70MOL0     H 9425  10.234  -1.587   4.748  0.0418 -0.9040  0.6289
   70MOL0     H 9426  10.452  -1.785   4.722  1.2403  0.3534 -0.6560
   70MOL0     H 9427  10.393  -1.694   4.573 -0.0268 -0.7532 -0.3417
   70MOL0     H 9428  10.171  -1.773   4.613  0.2971  1.3157  0.5675
   70MOL0     H 9429  10.277  -1.924   4.608 -2.7729 -2.1164  1.5533
   70MOL0     H 9430  11.212  -1.701   4.890  0.4189 -0.1583  0.4055
   70MOL0     H 9431  11.389  -1.550   4.811  0.2417 -2.0672  0.5340
   70MOL0     H 9432  11.448  -1.105   4.638 -2.1564  2.7206  0.6336
   70MOL0     H 9433  11.589  -0.934   4.537  3.7922  2.0141 -0.2614
   70MOL0     H 9434  10.783  -0.208   4.386 -0.0493 -1.4213  1.3335
   70MOL0     H 9435  10.598  -0.126   4.248 -0.9567 -5.6420 -0.1193
   70MOL0     H 9436  10.482   0.112   3.995 -0.7797  2.2097  1.1995
   70MOL0     H 9437  10.374   0.111   3.803  3.1112 -0.4115  2.5536
   70MOL0     H 9438   9.953   0.069   3.635  1.8178 -4.2192 -2.0214
   70MOL0     H 9439   9.911   0.087   3.814 -1.1303 -1.8097 -1.1613
   70MOL0     H 9440  10.031  -0.139   3.825 -0.2598  0.4863 -0.0986
   70MOL0     H 9441  10.032  -0.131   3.649 -0.5908 -3.0528 -0.4572
   70MOL0     H 9442   9.858  -0.272   3.734 -2.5414 -1.0629 -1.7543
   70MOL0     H 9443   9.784  -0.140   3.652 -0.8200 -2.5871 -0.0356
   70MOL0     H 9444   9.744  -0.021   3.868 -0.7763  0.2845  1.3745
   70MOL0     H 9445   9.643  -0.162   3.854 -1.0430  4.4182 -0.3422
   70MOL0     H 9446   9.831  -0.280   4.184  0.7529 -0.0777 -0.7846
   70MOL0     H 9447   9.993   0.046   4.001 -0.2941  0.9053 -2.9488
   70MOL0     H 9448  10.116   0.090   4.358  0.2587  0.3664 -0.0778
   70MOL0     H 9449   9.978   0.072   4.242 -0.6252 -1.3751  0.9777
   70MOL0     H 9450  10.059  -0.061   4.300 -1.7938  1.2846  1.4606
   71MOL0     O 9451   3.896   6.713   2.406 -0.2913 -0.6712 -0.0372
   71MOL0     C 9452   3.968   6.753   2.319 -0.5126  0.2976 -0.2274
   71MOL0     O 9453   3.957   6.725   2.186  0.9336 -0.7213 -0.0185
   71MOL0     C 9454   3.837   6.675   2.136 -0.3518  0.9217 -0.3159
   71MOL0     C 9455   3.843   6.547   2.075 -0.6325  0.8556  0.0427
   71MOL0     C 9456   3.728   6.492   2.023  0.5281  0.4787 -0.6626
   71MOL0     C 9457   3.605   6.564   2.027 -0.3465  0.5435  0.8404
   71MOL0     O 9458   3.480   6.509   1.986 -0.7800  0.1467  0.3196
   71MOL0     C 9459   3.484   6.376   1.928 -0.5474  0.5789  0.2115
   71MOL0     C 9460   3.351   6.349   1.860  0.6758 -0.2514 -0.9624
   71MOL0     C 9461   3.335   6.409   1.722  0.1690  0.4869  0.7847
   71MOL0     C 9462   3.199   6.398   1.678  0.4111  0.4427  0.8805
   71MOL0     C 9463   3.147   6.451   1.541 -0.7824  0.0221 -0.4545
   71MOL0     C 9464   3.205   6.365   1.421  0.1038  0.2921  0.3903
   71MOL0     C 9465   3.208   6.443   1.298 -0.1402  0.4941  0.0655
   71MOL0     C 9466   3.070   6.454   1.234 -0.1310  0.8309 -0.0852
   71MOL0     N 9467   3.056   6.550   1.127 -0.6247  0.1708  0.0531
   71MOL0     C 9468   3.132   6.559   1.019  0.1929 -0.0959 -0.2031
   71MOL0     C 9469   3.083   6.656   0.941 -0.0966  0.2856  0.1319
   71MOL0     C 9470   3.108   6.703   0.792 -0.1828 -0.1053 -0.9066
   71MOL0     C 9471   3.007   6.653   0.690  0.2122  0.1095 -0.5903
   71MOL0     C 9472   3.071   6.697   0.554 -0.1845 -0.2996  0.2387
   71MOL0     C 9473   2.957   6.710   0.462  0.1066  0.9574  0.0045
   71MOL0     O 9474   2.994   6.762   0.341  0.0750  0.6160  0.0795
   71MOL0     C 9475   2.912   6.764   0.234 -0.9298  0.2600 -0.2889
   71MOL0     C 9476   2.775   6.739   0.234  0.8871 -0.7143 -0.1950
   71MOL0     C 9477   2.692   6.752   0.119  0.9092 -0.8600 -0.8595
   71MOL0     C 9478   2.745   6.797  -0.003 -0.1705  0.4807 -0.3118
   71MOL0     C 9479   2.672   6.810  -0.128  0.7874  0.1943 -0.6205
   71MOL0     O 9480   2.539   6.820  -0.122 -1.0237 -0.7236 -0.7511
   71MOL0     C 9481   2.488   6.791  -0.245  0.4212 -0.8861  0.4089
   71MOL0     C 9482   2.459   6.904  -0.332 -0.2890 -0.4542 -0.0893
   71MOL0     C 9483   2.410   6.889  -0.461 -0.3250 -0.2749 -0.4994
   71MOL0     C 9484   2.390   6.766  -0.512 -0.3002  0.0444 -0.5737
   71MOL0     O 9485   2.343   6.734  -0.640 -0.1684  0.4390 -0.2570
   71MOL0     C 9486   2.264   6.834  -0.698  0.4994  0.0833  0.4787
   71MOL0     C 9487   2.295   6.839  -0.841 -0.2295  0.0382  0.9750
   71MOL0     C 9488   2.240   6.716  -0.912 -0.4013  0.5810 -0.2184
   71MOL0     C 9489   2.318   6.689  -1.042  0.6298 -0.0059 -0.1888
   71MOL0     C 9490   2.263   6.569  -1.120  0.1928  0.3447 -0.4255
   71MOL0     C 9491   2.298   6.430  -1.062  0.1577 -0.9596 -0.5302
   71MOL0     C 9492   2.294   6.334  -1.173  0.9655 -0.0731 -1.1013
   71MOL0     C 9493   2.302   6.185  -1.131 -0.4501  0.7384  0.0905
   71MOL0    Cl 9494   2.448   6.154  -1.031  0.3158 -0.4970  0.1009
   71MOL0     C 9495   2.428   6.653  -0.420  0.0316  0.0649  0.2643
   71MOL0     C 9496   2.470   6.666  -0.287  0.0806  0.0259  0.6893
   71MOL0     O 9497   2.739   6.802  -0.225 -0.0260 -0.5021 -0.4859
   71MOL0     C 9498   2.882   6.827  -0.002 -0.6710  0.3838  0.0268
   71MOL0     C 9499   2.958   6.800   0.109 -0.1891 -0.3868 -0.4274
   71MOL0     N 9500   2.965   6.697   1.009  0.0604 -0.0048 -0.0981
   71MOL0     N 9501   2.951   6.629   1.124  0.5157 -0.7926  0.2467
   71MOL0     C 9502   3.600   6.689   2.086  0.1006 -0.7337  0.0310
   71MOL0     C 9503   3.717   6.747   2.143  0.1881  0.7220  0.8393
   71MOL0     C 9504   4.100   6.818   2.355 -0.1312 -0.2045 -0.6277
   71MOL0     C 9505   4.188   6.849   2.249  0.1766 -0.0014 -0.4462
   71MOL0     C 9506   4.316   6.916   2.278  0.1217  1.0869 -0.6966
   71MOL0     C 9507   4.357   6.947   2.404 -0.7591 -0.3323  0.5312
   71MOL0     O 9508   4.480   7.011   2.423 -0.1898 -0.8474 -0.5294
   71MOL0     C 9509   4.498   7.136   2.505 -0.6767  0.3611 -0.2289
   71MOL0     C 9510   4.647   7.148   2.543  0.2117 -0.2135 -0.1296
   71MOL0     C 9511   4.688   7.018   2.606 -0.1526 -0.5469 -0.2356
   71MOL0     C 9512   4.839   7.015   2.601 -0.5202  0.8407 -0.3005
   71MOL0     C 9513   4.900   7.020   2.464  0.2682 -0.1806 -0.0999
   71MOL0     C 9514   4.937   7.001   2.354  0.2590  0.6266 -0.2251
   71MOL0     C 9515   4.262   6.926   2.502 -1.1588  0.0053  0.2490
   71MOL0     C 9516   4.146   6.868   2.482  0.7496 -0.1559 -0.1667
   71MOL0     C 9517   4.064   6.859   2.607 -0.2617 -0.2097 -0.7110
   71MOL0     H 9518   3.939   6.499   2.065 -1.5126 -0.5723 -2.3972
   71MOL0     H 9519   3.736   6.390   1.986  1.3024  0.0424  0.6450
   71MOL0     H 9520   3.574   6.363   1.867 -0.4983  0.7668  0.2449
   71MOL0     H 9521   3.508   6.302   2.005 -0.9631  0.5395  0.3081
   71MOL0     H 9522   3.279   6.398   1.926 -0.8447  0.2858 -2.9337
   71MOL0     H 9523   3.333   6.241   1.863  2.2836 -0.5400 -0.3647
   71MOL0     H 9524   3.406   6.356   1.657 -1.2120  0.5030 -0.8102
   71MOL0     H 9525   3.365   6.513   1.736  3.3133 -0.3677  1.2909
   71MOL0     H 9526   3.163   6.295   1.689 -0.2843  0.1935 -2.5926
   71MOL0     H 9527   3.145   6.461   1.749 -2.9617 -2.4552  1.2107
   71MOL0     H 9528   3.039   6.450   1.551 -0.9010 -0.9678 -1.6071
   71MOL0     H 9529   3.170   6.557   1.529  1.7701 -0.3314  0.4915
   71MOL0     H 9530   3.301   6.319   1.444  0.1981 -0.2959 -1.0762
   71MOL0     H 9531   3.137   6.282   1.398 -1.2043  1.3853  0.1440
   71MOL0     H 9532   3.285   6.394   1.238  3.0599  1.8682  2.6849
   71MOL0     H 9533   3.249   6.541   1.327  0.9865  0.1759 -0.4100
   71MOL0     H 9534   3.040   6.360   1.186  1.2832 -0.1863  0.9342
   71MOL0     H 9535   2.998   6.479   1.313  1.5932 -3.6102  3.2787
   71MOL0     H 9536   3.231   6.515   1.010  0.7246  1.1630 -0.8044
   71MOL0     H 9537   3.116   6.812   0.798 -1.9451  0.0583 -1.1086
   71MOL0     H 9538   3.210   6.682   0.757 -0.6622 -0.4473 -2.1385
   71MOL0     H 9539   2.997   6.545   0.706  0.4989  0.0879 -0.5570
   71MOL0     H 9540   2.914   6.704   0.717  0.0914 -0.5584  0.2749
   71MOL0     H 9541   3.161   6.645   0.520  0.6374  0.1502  1.6428
   71MOL0     H 9542   3.105   6.800   0.557  1.0234 -0.7002  0.9675
   71MOL0     H 9543   2.886   6.777   0.513  1.8055  2.2001  0.8124
   71MOL0     H 9544   2.926   6.605   0.454  0.3756  0.9505 -1.0435
   71MOL0     H 9545   2.731   6.699   0.324  0.8029 -0.9108 -0.3220
   71MOL0     H 9546   2.588   6.739   0.147  1.5127  2.9948  4.8913
   71MOL0     H 9547   2.485   7.005  -0.299 -1.8948 -0.0562  0.0215
   71MOL0     H 9548   2.413   6.978  -0.523  0.5215  0.1184  0.0815
   71MOL0     H 9549   2.160   6.805  -0.684  0.2304  0.4146 -0.6992
   71MOL0     H 9550   2.289   6.937  -0.671  1.7594 -0.5166  1.7432
   71MOL0     H 9551   2.241   6.926  -0.880  2.5515  2.3129  1.8726
   71MOL0     H 9552   2.403   6.851  -0.849 -0.1709  0.0756  1.7298
   71MOL0     H 9553   2.240   6.628  -0.847 -3.7625  0.0018 -0.8251
   71MOL0     H 9554   2.135   6.726  -0.937 -0.5744 -1.4588 -0.4864
   71MOL0     H 9555   2.426   6.699  -1.027  0.6599 -1.9696  1.3946
   71MOL0     H 9556   2.286   6.766  -1.113 -0.6462 -1.1528 -0.8809
   71MOL0     H 9557   2.308   6.576  -1.220  2.5457 -0.5899  0.5042
   71MOL0     H 9558   2.154   6.578  -1.130  0.0062  0.2565  1.3422
   71MOL0     H 9559   2.397   6.440  -1.017 -0.1795  0.2664 -0.0092
   71MOL0     H 9560   2.226   6.401  -0.985  0.2929  1.5621  0.6318
   71MOL0     H 9561   2.377   6.350  -1.243  1.9218 -1.3756 -0.2909
   71MOL0     H 9562   2.206   6.352  -1.235 -1.2390  0.8316  2.0216
   71MOL0     H 9563   2.207   6.148  -1.090 -2.2897  2.3620 -2.3919
   71MOL0     H 9564   2.311   6.131  -1.226 -2.5255 -0.7259  0.6400
   71MOL0     H 9565   2.432   6.556  -0.470  2.5026  0.7949 -1.1137
   71MOL0     H 9566   2.492   6.582  -0.222 -0.8708 -0.8465 -0.0964
   71MOL0     H 9567   2.943   6.864  -0.084 -1.0784  0.0127 -0.4482
   71MOL0     H 9568   3.065   6.798   0.096  0.4210  1.0672  3.2474
   71MOL0     H 9569   3.503   6.739   2.089 -0.5504 -1.6347 -3.0095
   71MOL0     H 9570   3.707   6.845   2.189 -0.4645  2.1331 -2.0399
   71MOL0     H 9571   4.160   6.823   2.148 -1.4892 -2.1891  0.5008
   71MOL0     H 9572   4.385   6.948   2.201  0.4428  0.5017 -0.6546
   71MOL0     H 9573   4.422   7.117   2.581 -1.8652  2.3635 -0.8513
   71MOL0     H 9574   4.462   7.226   2.454 -1.2113  0.4037  0.2131
   71MOL0     H 9575   4.658   7.236   2.607  1.6357  0.3993 -1.1636
   71MOL0     H 9576   4.700   7.170   2.450  0.9162  2.7715  0.8636
   71MOL0     H 9577   4.653   6.928   2.555  0.7599  0.2750 -2.4455
   71MOL0     H 9578   4.637   7.006   2.702  0.0506  2.8134  0.4046
   71MOL0     H 9579   4.881   7.096   2.662 -0.5359  1.3774 -0.9914
   71MOL0     H 9580   4.884   6.928   2.650  1.6400  2.8173  1.4840
   71MOL0     H 9581   4.973   6.990   2.254 -0.5309  2.2680 -0.7134
   71MOL0     H 9582   4.293   6.939   2.605  1.1175 -2.2188 -0.0500
   71MOL0     H 9583   4.063   6.757   2.646  0.6977  1.7578  5.7611
   71MOL0     H 9584   4.102   6.931   2.681 -2.0791  2.4119 -2.1405
   71MOL0     H 9585   3.964   6.899   2.585 -0.8445 -1.7831 -1.0679
   72MOL0     O 9586   0.015   4.581   2.912  0.4279 -0.4894  0.6161
   72MOL0     C 9587   0.077   4.613   3.014 -0.3638 -0.4893 -0.3877
   72MOL0     O 9588   0.039   4.590   3.146  0.2274  0.6220  0.4065
   72MOL0     C 9589  -0.089   4.548   3.157  0.9003  0.6184 -0.5259
   72MOL0     C 9590  -0.210   4.620   3.132 -0.5712 -0.8006 -0.1616
   72MOL0     C 9591  -0.335   4.562   3.159  0.0594  0.0650 -0.0458
   72MOL0     C 9592  -0.358   4.435   3.208 -0.3047  0.9233  0.2094
   72MOL0     O 9593  -0.491   4.404   3.228  0.0879 -0.4401  0.0471
   72MOL0     C 9594  -0.503   4.289   3.303  0.7046  0.0726 -0.4400
   72MOL0     C 9595  -0.653   4.276   3.350 -0.9644  0.2315 -0.9174
   72MOL0     C 9596  -0.755   4.286   3.238  0.2743 -0.5491  0.0068
   72MOL0     C 9597  -0.813   4.148   3.207  0.1223  0.4903  0.7472
   72MOL0     C 9598  -0.913   4.153   3.089 -0.3948  0.1509 -0.7366
   72MOL0     C 9599  -0.974   4.022   3.040  0.3055  0.6621 -0.3624
   72MOL0     C 9600  -1.069   4.057   2.918  0.6384  0.0785 -0.2632
   72MOL0     C 9601  -1.123   3.929   2.852 -0.0892 -0.3006 -0.8862
   72MOL0     N 9602  -1.207   3.849   2.937  0.2166 -0.2907 -0.0757
   72MOL0     C 9603  -1.240   3.716   2.928 -0.4206  0.4234 -0.9281
   72MOL0     C 9604  -1.338   3.695   3.020  0.3592  0.9574 -0.0941
   72MOL0     C 9605  -1.413   3.562   3.052 -0.0223  0.0510 -0.1193
   72MOL0     C 9606  -1.370   3.505   3.191  0.3816 -0.0862  0.0945
   72MOL0     C 9607  -1.471   3.402   3.231 -0.3512 -0.1384 -0.3718
   72MOL0     C 9608  -1.416   3.333   3.348 -1.9399  0.8914  0.1775
   72MOL0     O 9609  -1.300   3.256   3.303 -0.4303  0.2556  0.1939
   72MOL0     C 9610  -1.196   3.226   3.393  0.9645  0.2071  1.3041
   72MOL0     C 9611  -1.214   3.185   3.525 -0.3209  0.0419  0.0459
   72MOL0     C 9612  -1.098   3.157   3.591  0.5412  0.4275  0.1414
   72MOL0     C 9613  -0.967   3.181   3.543  0.7857 -0.0599 -0.0787
   72MOL0     C 9614  -0.853   3.164   3.632  0.2031  0.5526 -0.4695
   72MOL0     O 9615  -0.739   3.220   3.578 -0.1574  0.2473 -0.5051
   72MOL0     C 9616  -0.625   3.174   3.644  0.3129 -0.4398 -1.4401
   72MOL0     C 9617  -0.523   3.256   3.701 -0.2579  0.2566 -0.9378
   72MOL0     C 9618  -0.399   3.200   3.754 -0.1908 -0.7257 -0.3200
   72MOL0     C 9619  -0.372   3.065   3.742 -0.5192  0.5659  0.7189
   72MOL0     O 9620  -0.254   3.017   3.800 -0.0103  0.4439 -0.5479
   72MOL0     C 9621  -0.229   3.059   3.936 -0.5005 -0.2625  0.7654
   72MOL0     C 9622  -0.094   3.119   3.953 -0.3141 -0.8261  0.5662
   72MOL0     C 9623  -0.058   3.245   3.861 -0.1741 -0.1187  0.0838
   72MOL0     C 9624   0.102   3.271   3.882  0.2539 -0.5239  0.6644
   72MOL0     C 9625   0.156   3.398   3.820  0.4775 -0.4909 -0.2205
   72MOL0     C 9626   0.132   3.533   3.897 -0.7435 -0.0858  0.6112
   72MOL0     C 9627   0.196   3.518   4.044 -0.0493 -1.2447  0.4398
   72MOL0     C 9628   0.230   3.658   4.106 -0.3549  0.9582 -0.3846
   72MOL0    Cl 9629   0.097   3.787   4.112  0.1244 -0.1225  0.5335
   72MOL0     C 9630  -0.463   2.984   3.672  0.9890 -0.5331 -0.4825
   72MOL0     C 9631  -0.591   3.036   3.629 -0.1198  0.2277 -0.4158
   72MOL0     O 9632  -0.859   3.094   3.732 -0.5987 -0.6599 -0.3977
   72MOL0     C 9633  -0.949   3.223   3.412 -0.0407 -0.5753  0.0212
   72MOL0     C 9634  -1.067   3.251   3.338  0.3921  0.0589  0.0103
   72MOL0     N 9635  -1.371   3.818   3.082  1.1901  0.2714  0.9073
   72MOL0     N 9636  -1.298   3.907   3.023  0.1852 -0.3117  0.0423
   72MOL0     C 9637  -0.243   4.355   3.221 -0.1269 -0.5084  0.4908
   72MOL0     C 9638  -0.112   4.414   3.195  0.1137  0.9391 -0.6173
   72MOL0     C 9639   0.216   4.674   3.004  0.4497  0.3021  0.5589
   72MOL0     C 9640   0.310   4.668   3.104 -0.6197  0.7278 -0.5641
   72MOL0     C 9641   0.442   4.714   3.086  0.2363 -1.0117  1.1870
   72MOL0     C 9642   0.484   4.768   2.955  0.0562 -0.8551  0.6611
   72MOL0     O 9643   0.613   4.810   2.939 -0.2197 -0.4564 -0.1473
   72MOL0     C 9644   0.645   4.889   2.817 -1.3067 -0.1199  0.3669
   72MOL0     C 9645   0.806   4.913   2.814  0.7771 -0.0146 -0.3095
   72MOL0     C 9646   0.897   4.794   2.768  0.2075  1.0934 -0.0581
   72MOL0     C 9647   1.047   4.822   2.782 -0.5239  0.3217 -0.0486
   72MOL0     C 9648   1.133   4.709   2.745  0.2456 -0.2249 -0.0083
   72MOL0     C 9649   1.214   4.614   2.711 -0.7179 -0.8538 -0.1704
   72MOL0     C 9650   0.382   4.783   2.854 -0.4394  1.1268 -0.7577
   72MOL0     C 9651   0.254   4.734   2.878 -0.3370 -0.2669  0.3314
   72MOL0     C 9652   0.158   4.789   2.775 -0.2331  0.5441  0.2273
   72MOL0     H 9653  -0.198   4.726   3.111  3.0263 -0.5199  2.3580
   72MOL0     H 9654  -0.424   4.623   3.153 -2.2645 -3.0906  0.0632
   72MOL0     H 9655  -0.486   4.214   3.225 -0.7944  0.0781 -0.8041
   72MOL0     H 9656  -0.450   4.291   3.399 -1.0979 -0.7484  0.6319
   72MOL0     H 9657  -0.676   4.355   3.422 -5.3557 -2.0819  0.5587
   72MOL0     H 9658  -0.677   4.191   3.414  1.8225  1.2250  1.6902
   72MOL0     H 9659  -0.702   4.321   3.149  1.4901 -1.5574  0.3005
   72MOL0     H 9660  -0.831   4.355   3.274  2.6489  2.4534 -0.3172
   72MOL0     H 9661  -0.738   4.073   3.177  0.2921  1.2734 -0.8525
   72MOL0     H 9662  -0.873   4.105   3.288  0.0062 -2.3836 -0.7160
   72MOL0     H 9663  -0.993   4.221   3.119 -1.1582 -0.9251 -0.2677
   72MOL0     H 9664  -0.861   4.202   3.006  0.2103 -0.1219 -0.5166
   72MOL0     H 9665  -0.892   3.960   3.001 -0.5297 -1.7145  1.4119
   72MOL0     H 9666  -1.024   3.968   3.121  0.3011 -1.1745 -1.5137
   72MOL0     H 9667  -1.017   4.110   2.838 -0.4515 -1.8293 -2.3444
   72MOL0     H 9668  -1.152   4.118   2.957 -1.5039 -2.2776 -0.9038
   72MOL0     H 9669  -1.186   3.966   2.770 -0.9240  4.5509  1.5877
   72MOL0     H 9670  -1.040   3.867   2.816  1.1876  1.0589 -0.3847
   72MOL0     H 9671  -1.206   3.646   2.852 -3.1818 -0.2851 -1.5944
   72MOL0     H 9672  -1.517   3.596   3.057  1.0704  3.8127  0.0741
   72MOL0     H 9673  -1.397   3.500   2.963  0.7353  0.5891 -0.3625
   72MOL0     H 9674  -1.269   3.463   3.186  0.9764  1.2630  0.0471
   72MOL0     H 9675  -1.370   3.590   3.260  1.2604  0.8539 -1.0182
   72MOL0     H 9676  -1.504   3.328   3.157  1.9185 -0.2039 -1.3685
   72MOL0     H 9677  -1.560   3.448   3.275 -0.4014  0.9594 -1.5532
   72MOL0     H 9678  -1.485   3.253   3.372  0.9959 -2.8272 -2.5120
   72MOL0     H 9679  -1.384   3.401   3.428  2.9665  1.9997 -2.3238
   72MOL0     H 9680  -1.311   3.160   3.566 -0.3046  2.7511  2.0090
   72MOL0     H 9681  -1.113   3.114   3.690  0.8519 -1.2167 -0.5040
   72MOL0     H 9682  -0.538   3.364   3.695 -4.3275 -0.2029 -4.7895
   72MOL0     H 9683  -0.315   3.256   3.794 -0.7967  0.9710 -1.3019
   72MOL0     H 9684  -0.313   3.114   3.981  0.0164  0.1920  1.1864
   72MOL0     H 9685  -0.240   2.964   3.990  2.4249 -1.4158 -0.4903
   72MOL0     H 9686  -0.088   3.154   4.057 -0.0841 -1.2227  0.6913
   72MOL0     H 9687  -0.021   3.038   3.939 -2.6122 -2.9586  0.2596
   72MOL0     H 9688  -0.076   3.224   3.755  1.9332 -0.2305 -0.2850
   72MOL0     H 9689  -0.106   3.338   3.895 -0.8515  0.0505 -1.2611
   72MOL0     H 9690   0.166   3.194   3.838  0.6076  0.0105  0.2361
   72MOL0     H 9691   0.126   3.276   3.989  2.6670  2.4575  0.1322
   72MOL0     H 9692   0.112   3.407   3.720 -3.1390  2.3101  1.3696
   72MOL0     H 9693   0.264   3.390   3.808  0.5866 -1.5043  1.2009
   72MOL0     H 9694   0.183   3.613   3.842  4.2521 -1.6295  2.3956
   72MOL0     H 9695   0.024   3.548   3.904 -1.0010 -2.2406  2.4535
   72MOL0     H 9696   0.284   3.454   4.042  2.4784  1.7855  3.1956
   72MOL0     H 9697   0.118   3.474   4.107 -0.6189  0.8425  1.3002
   72MOL0     H 9698   0.271   3.649   4.207 -0.8101  2.0676 -0.0849
   72MOL0     H 9699   0.315   3.696   4.049  0.2564 -1.0827 -0.9180
   72MOL0     H 9700  -0.446   2.877   3.665 -1.6165 -1.0250  0.0161
   72MOL0     H 9701  -0.670   2.978   3.582 -1.3046  0.5973  1.0611
   72MOL0     H 9702  -0.856   3.234   3.357  1.1621  0.9215  2.1968
   72MOL0     H 9703  -1.060   3.301   3.242  0.2785  0.3551  0.1529
   72MOL0     H 9704  -0.249   4.249   3.241  3.3621 -1.2525 -1.6315
   72MOL0     H 9705  -0.030   4.343   3.197  3.2502  4.2685 -0.5800
   72MOL0     H 9706   0.285   4.613   3.194  1.3203 -0.3545 -0.6208
   72MOL0     H 9707   0.511   4.715   3.170  0.6912 -1.6141  0.8287
   72MOL0     H 9708   0.581   4.978   2.807  0.1411  0.7999 -1.2103
   72MOL0     H 9709   0.623   4.836   2.724  3.0431  0.7660 -1.4111
   72MOL0     H 9710   0.843   4.940   2.913  3.0811 -2.3647 -0.4270
   72MOL0     H 9711   0.818   4.997   2.743  0.9223 -0.5816 -0.9671
   72MOL0     H 9712   0.884   4.786   2.660  1.2139 -0.3905 -0.1040
   72MOL0     H 9713   0.869   4.701   2.817  4.1859 -0.4926 -0.3940
   72MOL0     H 9714   1.091   4.904   2.725  0.2661  1.1263  1.6524
   72MOL0     H 9715   1.068   4.852   2.885  1.9114  4.0152 -1.4296
   72MOL0     H 9716   1.287   4.542   2.679 -0.5958 -1.6856  1.8246
   72MOL0     H 9717   0.395   4.835   2.760  1.9217 -0.2725 -1.2738
   72MOL0     H 9718   0.134   4.715   2.698 -1.2653 -0.6955  1.6653
   72MOL0     H 9719   0.059   4.815   2.816 -0.6188  3.1034 -2.0551
   72MOL0     H 9720   0.191   4.883   2.731 -0.6577 -0.6322 -2.7867
   73MOL0     O 9721   9.104   5.684   2.698 -0.9272  0.0794 -0.2424
   73MOL0     C 9722   9.017   5.730   2.624 -0.8231 -0.3995  0.0502
   73MOL0     O 9723   8.914   5.807   2.659 -0.1727 -0.2646 -0.2564
   73MOL0     C 9724   8.891   5.826   2.790 -0.3780 -0.9354 -0.2357
   73MOL0     C 9725   8.987   5.872   2.883  0.1520  0.5431 -0.5976
   73MOL0     C 9726   8.950   5.885   3.010 -0.2814 -0.1628  0.3216
   73MOL0     C 9727   8.824   5.843   3.061  0.3059  0.8125  0.2288
   73MOL0     O 9728   8.791   5.839   3.192 -0.6787  0.0850  0.0518
   73MOL0     C 9729   8.855   5.930   3.287 -0.3380 -0.3073 -0.1242
   73MOL0     C 9730   8.740   5.992   3.374  0.1531 -0.9461  0.4551
   73MOL0     C 9731   8.788   6.088   3.472  0.0665 -0.4687 -0.5775
   73MOL0     C 9732   8.821   6.224   3.417  0.9217 -0.5065 -0.0670
   73MOL0     C 9733   8.688   6.299   3.388 -0.8670 -0.9798  0.3890
   73MOL0     C 9734   8.722   6.433   3.321 -0.0717 -0.1149  0.9355
   73MOL0     C 9735   8.785   6.543   3.415  0.3431 -0.2922  0.0431
   73MOL0     C 9736   8.680   6.650   3.444 -0.4593  0.1254 -0.0215
   73MOL0     N 9737   8.553   6.606   3.497  0.1550  1.4948  0.1698
   73MOL0     C 9738   8.537   6.553   3.624  0.0809 -0.4113  0.1934
   73MOL0     C 9739   8.402   6.548   3.640  0.0870 -0.2544  0.5001
   73MOL0     C 9740   8.342   6.493   3.762 -0.1684 -0.2150 -0.1304
   73MOL0     C 9741   8.356   6.586   3.885 -0.1233 -0.1238  0.2378
   73MOL0     C 9742   8.358   6.514   4.019 -0.7452 -0.5402  0.1427
   73MOL0     C 9743   8.487   6.438   4.050  0.2715 -0.3102  0.1987
   73MOL0     O 9744   8.478   6.398   4.183 -0.0632  0.1566  0.6961
   73MOL0     C 9745   8.577   6.326   4.244  0.3451  0.3080 -1.4511
   73MOL0     C 9746   8.563   6.288   4.376 -0.1620  0.3928  0.1369
   73MOL0     C 9747   8.669   6.234   4.449  0.6935 -0.4778 -0.6532
   73MOL0     C 9748   8.783   6.192   4.384 -0.0832  0.7792 -0.4807
   73MOL0     C 9749   8.889   6.127   4.460 -0.2748  0.2810  0.5216
   73MOL0     O 9750   8.892   6.138   4.598  0.0283 -0.3521 -0.0204
   73MOL0     C 9751   8.974   6.055   4.680 -0.2416  0.2615 -0.1024
   73MOL0     C 9752   8.983   5.916   4.672 -0.4925  0.3129  0.3140
   73MOL0     C 9753   9.053   5.835   4.765  0.7125  0.1114 -0.0724
   73MOL0     C 9754   9.092   5.886   4.887 -1.4866 -0.1834 -0.1938
   73MOL0     O 9755   9.145   5.809   4.990 -0.3042  0.1238  0.4674
   73MOL0     C 9756   9.249   5.862   5.074 -0.4261 -0.2409  0.2624
   73MOL0     C 9757   9.336   5.746   5.114  0.1554  0.5844  0.1076
   73MOL0     C 9758   9.266   5.628   5.175  1.3733  0.3901 -0.8556
   73MOL0     C 9759   9.366   5.512   5.219  0.0462 -0.6946 -0.0317
   73MOL0     C 9760   9.388   5.434   5.091 -0.2437  0.6835  0.5214
   73MOL0     C 9761   9.445   5.298   5.123  0.4577  0.1389  0.1475
   73MOL0     C 9762   9.593   5.299   5.158 -0.7392  0.4368 -0.5610
   73MOL0     C 9763   9.636   5.171   5.213  0.0479 -0.4748  0.2604
   73MOL0    Cl 9764   9.809   5.180   5.254 -0.6051 -0.2797  0.1462
   73MOL0     C 9765   9.092   6.030   4.891 -0.0359 -0.2737  0.6252
   73MOL0     C 9766   9.026   6.112   4.799 -0.1659  0.0960  0.3575
   73MOL0     O 9767   8.979   6.078   4.395 -0.1054  0.4105  0.5179
   73MOL0     C 9768   8.791   6.219   4.245 -0.0359  0.0808  0.2814
   73MOL0     C 9769   8.682   6.282   4.180  0.1849  0.1016 -0.6081
   73MOL0     N 9770   8.337   6.577   3.524 -0.2215  0.4528  0.0936
   73MOL0     N 9771   8.429   6.599   3.432  0.3293  0.1476 -0.2240
   73MOL0     C 9772   8.732   5.791   2.969 -0.2831 -0.2286  0.6107
   73MOL0     C 9773   8.767   5.786   2.832 -0.9105  0.5094  0.0746
   73MOL0     C 9774   9.012   5.687   2.480 -0.2916 -0.0074 -0.7868
   73MOL0     C 9775   8.909   5.736   2.396 -0.3728 -1.0880  0.0937
   73MOL0     C 9776   8.900   5.695   2.267 -0.2889 -0.1086  0.4079
   73MOL0     C 9777   8.992   5.607   2.210  0.0034 -0.8441  0.8179
   73MOL0     O 9778   8.995   5.556   2.085  0.1769  0.3910  0.4839
   73MOL0     C 9779   8.889   5.602   1.997 -0.2914  0.6876 -0.5243
   73MOL0     C 9780   8.933   5.541   1.862 -0.2455  0.9027  0.5282
   73MOL0     C 9781   8.947   5.389   1.867  0.3848  0.3140 -0.2735
   73MOL0     C 9782   8.942   5.342   1.722  0.1637  0.0088  1.1143
   73MOL0     C 9783   8.827   5.255   1.704  0.3116  0.2668 -0.0314
   73MOL0     C 9784   8.737   5.171   1.702 -0.1101 -0.8942  0.2919
   73MOL0     C 9785   9.110   5.583   2.277  0.1768 -0.3900 -0.0517
   73MOL0     C 9786   9.124   5.617   2.415 -0.3160 -0.3045  0.3230
   73MOL0     C 9787   9.244   5.574   2.482 -1.0539  0.1943  0.3495
   73MOL0     H 9788   9.090   5.892   2.856  0.5402 -0.9417 -0.3294
   73MOL0     H 9789   9.021   5.927   3.081  0.3414  1.6298 -1.2759
   73MOL0     H 9790   8.933   5.890   3.353  1.0273  1.2294 -0.7410
   73MOL0     H 9791   8.903   6.021   3.247  0.9953 -0.1601  1.6737
   73MOL0     H 9792   8.694   5.906   3.423  0.9926 -1.2591  0.7111
   73MOL0     H 9793   8.676   6.045   3.302  1.3216  1.1648  0.8789
   73MOL0     H 9794   8.877   6.055   3.525  1.8894 -0.4766 -3.4641
   73MOL0     H 9795   8.706   6.115   3.541 -0.0848  0.1683 -0.9967
   73MOL0     H 9796   8.886   6.274   3.490  0.8895 -2.5193  1.4579
   73MOL0     H 9797   8.894   6.223   3.336  3.0592  0.5400  1.7323
   73MOL0     H 9798   8.617   6.245   3.325  0.6623 -3.8010  0.9467
   73MOL0     H 9799   8.632   6.326   3.478 -3.3483  1.9450 -1.7856
   73MOL0     H 9800   8.794   6.416   3.241 -1.6832 -0.6178 -0.4445
   73MOL0     H 9801   8.633   6.463   3.265  1.4790 -0.0910 -1.6436
   73MOL0     H 9802   8.871   6.592   3.368  0.6958 -1.7594 -0.9105
   73MOL0     H 9803   8.815   6.503   3.513 -2.6266  0.5439  1.4035
   73MOL0     H 9804   8.720   6.723   3.513 -0.8057  0.6517 -0.3690
   73MOL0     H 9805   8.653   6.701   3.351 -1.3503 -0.3305 -0.0345
   73MOL0     H 9806   8.600   6.555   3.712 -0.6699  0.3022  0.7355
   73MOL0     H 9807   8.234   6.495   3.743 -0.3484  2.8830  0.7083
   73MOL0     H 9808   8.370   6.390   3.783  0.6411  0.5538  2.9543
   73MOL0     H 9809   8.438   6.657   3.884  0.3240 -0.6406 -0.5634
   73MOL0     H 9810   8.263   6.641   3.903 -0.6567 -1.2670  1.1672
   73MOL0     H 9811   8.283   6.435   4.030 -0.1505 -0.7762  3.5636
   73MOL0     H 9812   8.336   6.584   4.100 -1.6964  1.0584 -1.4204
   73MOL0     H 9813   8.569   6.509   4.033  1.5566 -1.2047  2.3148
   73MOL0     H 9814   8.507   6.357   3.978 -0.1622 -1.2822  1.1465
   73MOL0     H 9815   8.470   6.311   4.427 -0.1735  2.0779 -0.5666
   73MOL0     H 9816   8.644   6.220   4.554 -4.4123  2.0536 -1.2034
   73MOL0     H 9817   8.945   5.874   4.579  1.7600 -0.6251 -0.2542
   73MOL0     H 9818   9.059   5.729   4.744 -1.0856 -0.1018  0.3025
   73MOL0     H 9819   9.298   5.939   5.014 -1.8535 -0.9618 -1.9513
   73MOL0     H 9820   9.207   5.910   5.163 -3.4830  0.7476 -1.5503
   73MOL0     H 9821   9.390   5.712   5.025  0.2491 -1.7108  0.9521
   73MOL0     H 9822   9.415   5.793   5.173  0.1471  3.8868 -2.2709
   73MOL0     H 9823   9.212   5.652   5.267 -1.6259 -1.5929 -1.9353
   73MOL0     H 9824   9.198   5.592   5.097  1.2374  0.8497 -0.9506
   73MOL0     H 9825   9.323   5.444   5.293  0.8660  1.8469  3.0164
   73MOL0     H 9826   9.460   5.549   5.259 -0.0522 -1.1525  0.6360
   73MOL0     H 9827   9.448   5.494   5.023 -0.4810  0.2566 -0.0705
   73MOL0     H 9828   9.297   5.414   5.034 -0.0216  1.8260 -0.2640
   73MOL0     H 9829   9.395   5.235   5.196  0.2615  0.0787 -0.0377
   73MOL0     H 9830   9.433   5.238   5.032 -0.5913 -0.7210  0.8411
   73MOL0     H 9831   9.614   5.368   5.240 -0.6165 -0.5518  0.2522
   73MOL0     H 9832   9.644   5.311   5.062 -2.0003  0.0547 -1.3100
   73MOL0     H 9833   9.578   5.154   5.304 -1.6317  0.6378 -0.5488
   73MOL0     H 9834   9.611   5.093   5.139 -0.6439  2.1645 -2.5071
   73MOL0     H 9835   9.137   6.079   4.976 -0.9610  2.1466 -0.2060
   73MOL0     H 9836   9.033   6.219   4.815  3.7732  0.0363  0.0910
   73MOL0     H 9837   8.882   6.200   4.189 -1.9486  4.2662 -5.0765
   73MOL0     H 9838   8.696   6.306   4.075 -3.3582  0.5649 -1.0872
   73MOL0     H 9839   8.633   5.769   3.006  0.7254 -2.2336  2.3098
   73MOL0     H 9840   8.703   5.732   2.764  1.0600 -0.2706 -1.2280
   73MOL0     H 9841   8.825   5.794   2.432 -2.3610 -3.3753 -0.6319
   73MOL0     H 9842   8.807   5.727   2.221 -0.3658  1.9530  1.8395
   73MOL0     H 9843   8.885   5.710   1.986  2.4645  0.9313  0.3017
   73MOL0     H 9844   8.793   5.555   2.020  0.0080 -0.2958 -1.1958
   73MOL0     H 9845   9.029   5.589   1.841 -0.5758  1.6489  0.7194
   73MOL0     H 9846   8.859   5.569   1.786  1.2846  0.0079 -1.3686
   73MOL0     H 9847   8.860   5.357   1.925 -0.6896  2.3191 -0.6582
   73MOL0     H 9848   9.038   5.358   1.918  0.1519  0.0018 -0.0438
   73MOL0     H 9849   8.935   5.426   1.651  2.6136 -0.8618 -0.2711
   73MOL0     H 9850   9.033   5.289   1.692 -0.2894 -0.8956  1.3137
   73MOL0     H 9851   8.650   5.111   1.683 -0.1870 -0.9996  0.9613
   73MOL0     H 9852   9.193   5.543   2.220 -1.6073  0.9690 -3.9627
   73MOL0     H 9853   9.313   5.523   2.414  1.1146  0.9208  1.8945
   73MOL0     H 9854   9.298   5.664   2.512 -0.9170  0.9728 -1.9953
   73MOL0     H 9855   9.226   5.513   2.570  1.8201  0.3069  1.1261
   74MOL0     O 9856  10.074   7.983   1.877  0.2852 -0.2813 -0.1776
   74MOL0     C 9857   9.983   8.058   1.902 -0.1902  0.7421 -0.5100
   74MOL0     O 9858   9.990   8.198   1.908 -0.8354 -0.0355  0.7658
   74MOL0     C 9859  10.119   8.253   1.898 -0.5409  1.0149 -0.4739
   74MOL0     C 9860  10.211   8.225   1.796 -0.4167 -0.3147  0.0976
   74MOL0     C 9861  10.338   8.272   1.805  0.1739  0.2215  0.1670
   74MOL0     C 9862  10.373   8.361   1.913 -0.3388 -0.1047  0.2230
   74MOL0     O 9863  10.502   8.412   1.913  0.7593  0.1304 -0.2633
   74MOL0     C 9864  10.603   8.333   1.981  1.0024  0.1429  0.0943
   74MOL0     C 9865  10.749   8.372   1.937  0.1915 -0.5490  0.0557
   74MOL0     C 9866  10.761   8.416   1.788  0.6080 -0.2594  0.7649
   74MOL0     C 9867  10.910   8.425   1.746  0.8219 -0.6639  0.0150
   74MOL0     C 9868  10.977   8.284   1.728 -0.1220 -0.4772 -0.1460
   74MOL0     C 9869  11.111   8.295   1.669  0.0439 -0.0297 -0.4032
   74MOL0     C 9870  11.106   8.316   1.515  0.3395  0.3587 -0.1691
   74MOL0     C 9871  11.239   8.313   1.440 -0.1848  0.1854 -1.0741
   74MOL0     N 9872  11.312   8.435   1.451  0.0402  0.1896  0.2449
   74MOL0     C 9873  11.397   8.472   1.346 -0.0815  0.7949  0.6461
   74MOL0     C 9874  11.437   8.594   1.380 -0.1757  0.2589  0.4741
   74MOL0     C 9875  11.538   8.678   1.299 -1.9458 -0.2739  1.7499
   74MOL0     C 9876  11.665   8.694   1.381 -0.0457 -0.1018  0.7835
   74MOL0     C 9877  11.785   8.783   1.331  0.1579 -0.1118 -0.2694
   74MOL0     C 9878  11.733   8.879   1.214  0.1747  0.4439  0.1277
   74MOL0     O 9879  11.832   8.949   1.142 -0.4365  1.0520 -0.1445
   74MOL0     C 9880  11.906   9.053   1.196  0.4475 -0.2212  0.2812
   74MOL0     C 9881  11.853   9.140   1.299 -0.7316 -0.5944  0.1355
   74MOL0     C 9882  11.936   9.238   1.345  1.3410 -0.6291 -0.1541
   74MOL0     C 9883  12.069   9.248   1.295 -0.5565  0.9906  0.5970
   74MOL0     C 9884  12.154   9.352   1.338 -1.7275 -0.2902  1.3423
   74MOL0     O 9885  12.125   9.428   1.448  1.0965 -0.5030 -0.4405
   74MOL0     C 9886  12.182   9.550   1.477  0.8967  0.0202 -0.0905
   74MOL0     C 9887  12.188   9.598   1.610  0.2966 -0.0643 -1.0295
   74MOL0     C 9888  12.239   9.729   1.642  0.6949  0.0657 -0.9406
   74MOL0     C 9889  12.306   9.800   1.541  1.0681 -0.2657  0.1045
   74MOL0     O 9890  12.342   9.935   1.540 -0.5205 -0.2697  0.1394
   74MOL0     C 9891  12.333  10.002   1.663  0.7932  0.1358  0.6756
   74MOL0     C 9892  12.402  10.136   1.645  0.5622  0.4688 -0.6023
   74MOL0     C 9893  12.408  10.215   1.784 -0.6188 -0.4387  0.2704
   74MOL0     C 9894  12.464  10.360   1.752 -0.8724  0.3253  0.0062
   74MOL0     C 9895  12.459  10.446   1.881  0.0794 -0.2883  0.0083
   74MOL0     C 9896  12.541  10.572   1.869 -0.2582  0.4064  0.2034
   74MOL0     C 9897  12.556  10.632   2.010 -0.2918  0.1671  0.5864
   74MOL0     C 9898  12.434  10.711   2.052 -0.3271 -0.0332  0.6863
   74MOL0    Cl 9899  12.486  10.813   2.189  0.2482  0.2621 -0.0534
   74MOL0     C 9900  12.322   9.744   1.411 -0.7547  0.3632 -1.0126
   74MOL0     C 9901  12.262   9.623   1.385 -0.1431  0.1522 -0.0708
   74MOL0     O 9902  12.267   9.355   1.283 -0.0011  0.6957 -0.3214
   74MOL0     C 9903  12.118   9.146   1.203 -0.3285  0.1765  0.9074
   74MOL0     C 9904  12.028   9.057   1.147  0.0474 -0.3334 -0.2080
   74MOL0     N 9905  11.409   8.615   1.517 -0.2627 -0.5123  0.9898
   74MOL0     N 9906  11.332   8.523   1.554 -0.4998 -0.7166  0.3626
   74MOL0     C 9907  10.277   8.393   2.013  0.8298  0.7692  0.2503
   74MOL0     C 9908  10.156   8.328   2.004 -0.4949 -1.0609 -0.4055
   74MOL0     C 9909   9.852   7.989   1.940 -0.2851  0.0999 -0.6067
   74MOL0     C 9910   9.752   8.070   1.993 -0.5952  0.5850  0.1218
   74MOL0     C 9911   9.634   8.020   2.042 -0.1211  0.3625 -0.0803
   74MOL0     C 9912   9.601   7.882   2.032 -0.5177  0.5672 -1.1402
   74MOL0     O 9913   9.477   7.830   2.067  0.1358 -0.1890 -0.2637
   74MOL0     C 9914   9.458   7.779   2.195 -0.6364  0.4034 -0.0759
   74MOL0     C 9915   9.528   7.643   2.213 -0.1824  0.5883  1.1047
   74MOL0     C 9916   9.485   7.543   2.097 -0.2826 -0.1050  0.6702
   74MOL0     C 9917   9.371   7.455   2.135  0.0453  0.6851 -0.2964
   74MOL0     C 9918   9.397   7.362   2.242 -0.0151  0.5658  0.1986
   74MOL0     C 9919   9.418   7.275   2.325 -0.1638 -0.2954 -0.1264
   74MOL0     C 9920   9.701   7.801   1.977 -0.2251  0.2308  1.2710
   74MOL0     C 9921   9.829   7.845   1.942  0.0368 -0.8130  0.7541
   74MOL0     C 9922   9.922   7.735   1.899 -0.8983  0.2357  0.3506
   74MOL0     H 9923  10.185   8.161   1.712 -0.5148 -0.7690  0.4660
   74MOL0     H 9924  10.414   8.242   1.733  0.3356 -0.8931  0.7787
   74MOL0     H 9925  10.600   8.359   2.088  1.7049  1.1285 -0.1121
   74MOL0     H 9926  10.591   8.225   1.967  0.0125  0.1641  0.6861
   74MOL0     H 9927  10.817   8.294   1.973 -1.5022 -2.4774 -0.7906
   74MOL0     H 9928  10.785   8.456   1.998 -2.5024 -0.3961  1.6001
   74MOL0     H 9929  10.711   8.512   1.772 -0.9379 -1.5681 -4.2793
   74MOL0     H 9930  10.715   8.339   1.725  0.3791  1.1971 -0.9496
   74MOL0     H 9931  10.931   8.473   1.650  1.9182  1.8053  1.4118
   74MOL0     H 9932  10.961   8.487   1.820 -1.4017 -1.9384  2.8306
   74MOL0     H 9933  10.993   8.246   1.829  3.0987  2.9615  0.8300
   74MOL0     H 9934  10.911   8.216   1.672 -0.2835 -0.1526 -0.3576
   74MOL0     H 9935  11.154   8.379   1.725 -1.0452 -0.4928  1.2054
   74MOL0     H 9936  11.158   8.199   1.693 -0.2627  0.3544  1.9376
   74MOL0     H 9937  11.056   8.409   1.488 -2.1040 -1.6357 -3.2964
   74MOL0     H 9938  11.048   8.238   1.466 -1.0086  1.0484  0.2758
   74MOL0     H 9939  11.296   8.224   1.470  1.0631  0.3294 -2.8263
   74MOL0     H 9940  11.227   8.294   1.332 -0.9176 -0.3842 -0.8975
   74MOL0     H 9941  11.423   8.410   1.260 -1.1681 -0.9069  1.4836
   74MOL0     H 9942  11.553   8.631   1.202 -0.5433  1.3835  1.1068
   74MOL0     H 9943  11.492   8.773   1.272 -0.5657 -0.2400 -0.8144
   74MOL0     H 9944  11.636   8.747   1.472 -1.2406  0.5888  0.0298
   74MOL0     H 9945  11.719   8.605   1.412 -0.7332 -1.1895 -1.0123
   74MOL0     H 9946  11.857   8.717   1.283 -2.3973 -1.8597 -1.9797
   74MOL0     H 9947  11.817   8.841   1.418  1.0840 -0.4341 -0.3843
   74MOL0     H 9948  11.659   8.952   1.247 -0.2536  0.0931 -0.0418
   74MOL0     H 9949  11.685   8.829   1.129  2.3681  1.8911 -2.0917
   74MOL0     H 9950  11.757   9.147   1.349 -0.0054  0.8813  1.4289
   74MOL0     H 9951  11.906   9.315   1.415  1.9912 -2.7915  2.7207
   74MOL0     H 9952  12.148   9.539   1.692 -1.0384  4.1756  1.6966
   74MOL0     H 9953  12.216   9.764   1.743 -0.7972  0.6621 -1.4521
   74MOL0     H 9954  12.229  10.022   1.688  0.5825  0.9378 -0.7237
   74MOL0     H 9955  12.380   9.940   1.741 -1.2688  0.6763  2.4452
   74MOL0     H 9956  12.505  10.112   1.619  2.3024  2.3042  3.6027
   74MOL0     H 9957  12.349  10.201   1.575 -3.3868 -0.0105  1.6378
   74MOL0     H 9958  12.322  10.241   1.847  1.1506  1.2984  2.0954
   74MOL0     H 9959  12.483  10.163   1.843  0.8442  0.4232 -0.7670
   74MOL0     H 9960  12.420  10.410   1.665  2.1147  1.5857 -0.9002
   74MOL0     H 9961  12.569  10.343   1.727 -0.4157  1.0409  1.3808
   74MOL0     H 9962  12.504  10.380   1.957  0.6234 -0.5102 -0.4961
   74MOL0     H 9963  12.357  10.475   1.906 -0.5864 -2.1947 -0.2904
   74MOL0     H 9964  12.641  10.549   1.831  0.4115  0.7422  1.6563
   74MOL0     H 9965  12.497  10.629   1.788  0.2758  0.4409 -0.0699
   74MOL0     H 9966  12.645  10.695   2.005 -2.0330  2.7067 -3.6830
   74MOL0     H 9967  12.569  10.559   2.090 -1.7644  0.1692  0.8628
   74MOL0     H 9968  12.398  10.774   1.971  0.9540 -0.2340 -0.0532
   74MOL0     H 9969  12.352  10.644   2.079  0.9558 -1.8300  0.2704
   74MOL0     H 9970  12.378   9.800   1.338  0.3915  0.3444 -0.1863
   74MOL0     H 9971  12.281   9.598   1.281  3.1173 -0.3112  0.5467
   74MOL0     H 9972  12.216   9.137   1.157 -0.3168 -0.7134  1.0925
   74MOL0     H 9973  12.063   8.991   1.068  2.8861 -0.0770  0.7080
   74MOL0     H 9974  10.302   8.455   2.098  0.3558  1.3904 -0.0524
   74MOL0     H 9975  10.095   8.350   2.092 -1.1466 -3.6792 -0.1106
   74MOL0     H 9976   9.764   8.178   1.987  2.8304  0.5908  3.3924
   74MOL0     H 9977   9.558   8.086   2.083  0.4312 -0.4883  2.4940
   74MOL0     H 9978   9.350   7.766   2.207 -0.3318 -0.7871  1.7142
   74MOL0     H 9979   9.507   7.840   2.271  1.8829 -1.0322 -0.4598
   74MOL0     H 9980   9.511   7.613   2.317  3.9459  2.9392  2.7533
   74MOL0     H 9981   9.635   7.667   2.213  0.0054  0.2667 -2.5352
   74MOL0     H 9982   9.571   7.482   2.067 -2.0046 -2.3002 -0.0934
   74MOL0     H 9983   9.452   7.600   2.009  2.7484  0.5054 -0.2161
   74MOL0     H 9984   9.285   7.518   2.157 -0.2470  0.6710 -1.3368
   74MOL0     H 9985   9.349   7.390   2.049 -0.9766  0.8860 -0.1946
   74MOL0     H 9986   9.420   7.189   2.390  0.8582 -1.1302 -1.2277
   74MOL0     H 9987   9.675   7.697   1.961 -0.8710  0.1103  2.9485
   74MOL0     H 9988   9.949   7.740   1.793 -1.9757  1.0827  0.1003
   74MOL0     H 9989  10.018   7.733   1.951  0.0147 -2.7233 -1.1971
   74MOL0     H 9990   9.885   7.636   1.927 -3.8993  1.4224  0.9972
   75MOL0     O 9991   6.415   9.297   6.472  0.3574  0.4618  0.1802
   75MOL0     C 9992   6.504   9.360   6.414  0.0324  0.1414  0.0099
   75MOL0     O 9993   6.489   9.407   6.287 -0.4402 -0.1134 -0.4028
   75MOL0     C 9994   6.381   9.492   6.281 -0.1602 -0.3804 -0.1926
   75MOL0     C 9995   6.253   9.448   6.256 -0.6918  0.3106 -0.9970
   75MOL0     C 9996   6.147   9.542   6.250  0.3506  0.2166  0.7148
   75MOL0     C 9997   6.166   9.687   6.254  0.7654  1.6160  0.0165
   75MOL0     O 9998   6.070   9.784   6.265 -0.8733  0.0139 -0.3196
   75MOL0     C 9999   5.930   9.755   6.249  0.2693  0.8520 -0.3273
   75MOL0     C10000   5.853   9.887   6.279  0.1405 -0.2315 -0.1312
   75MOL0     C10001   5.701   9.878   6.261  0.0990  1.1761 -0.1605
   75MOL0     C10002   5.636   9.967   6.373 -0.4766  0.2962  0.4883
   75MOL0     C10003   5.492   9.930   6.392 -0.3467  0.9079  0.5192
   75MOL0     C10004   5.431  10.032   6.484  0.1274  0.0841 -0.3601
   75MOL0     C10005   5.291  10.007   6.514  0.6235 -0.2592 -0.4351
   75MOL0     C10006   5.259   9.911   6.634 -0.9417  0.1523  0.2819
   75MOL0     N10007   5.118   9.923   6.650 -0.4621 -0.1818 -0.0668
   75MOL0     C10008   5.020   9.833   6.626 -0.4206  1.1074  0.6761
   75MOL0     C10009   4.906   9.893   6.661  0.8105  0.2368  0.4471
   75MOL0     C10010   4.771   9.825   6.682  0.0455  0.2128 -0.5762
   75MOL0     C10011   4.662   9.898   6.606 -0.5787 -0.1021  0.0568
   75MOL0     C10012   4.527   9.830   6.646 -0.5568 -0.3484  0.5127
   75MOL0     C10013   4.417   9.920   6.607  0.8036 -0.0610  0.0528
   75MOL0     O10014   4.311   9.901   6.704  0.3938 -0.3831  0.2422
   75MOL0     C10015   4.207   9.989   6.706 -1.0281 -0.6740 -0.4091
   75MOL0     C10016   4.104   9.973   6.806 -0.6978  0.0057  0.1522
   75MOL0     C10017   3.992  10.056   6.815 -0.9315  0.0686  0.9784
   75MOL0     C10018   3.966  10.143   6.710  0.3887 -0.2127 -0.0219
   75MOL0     C10019   3.832  10.210   6.710  0.0658  0.7625 -0.6783
   75MOL0     O10020   3.741  10.173   6.809  0.0541 -0.5236 -0.3316
   75MOL0     C10021   3.623  10.233   6.806  0.8306  0.6971  0.4497
   75MOL0     C10022   3.593  10.307   6.915 -0.4059 -0.0312 -0.0404
   75MOL0     C10023   3.470  10.365   6.943 -0.4766  0.2411  0.3061
   75MOL0     C10024   3.371  10.343   6.842  0.8616 -0.2319  0.6270
   75MOL0     O10025   3.230  10.378   6.852 -0.4308 -0.6825  0.5218
   75MOL0     C10026   3.190  10.449   6.970 -0.4012 -0.3521 -0.4795
   75MOL0     C10027   3.214  10.608   6.959 -1.6264 -0.3603  0.6030
   75MOL0     C10028   3.151  10.686   7.072 -1.2586 -0.3141  0.1740
   75MOL0     C10029   3.182  10.836   7.061 -1.0341 -0.2979 -0.6247
   75MOL0     C10030   3.098  10.919   7.146  1.0397 -0.6800 -0.0752
   75MOL0     C10031   3.113  10.899   7.294 -0.3598 -0.2548  0.6146
   75MOL0     C10032   3.002  10.978   7.362 -0.4253  0.1762  0.0856
   75MOL0     C10033   3.041  10.998   7.510 -0.1082 -0.0775  0.1178
   75MOL0    Cl10034   2.903  11.042   7.613  0.0060  0.1509  0.0407
   75MOL0     C10035   3.400  10.282   6.723 -1.5199 -0.2117  0.5039
   75MOL0     C10036   3.531  10.226   6.702 -0.1480  0.3150  0.2978
   75MOL0     O10037   3.824  10.295   6.625  0.2005 -0.2234  0.3773
   75MOL0     C10038   4.069  10.179   6.614  0.4151 -0.1423 -0.5751
   75MOL0     C10039   4.189  10.100   6.616  0.9162  0.4766  0.6830
   75MOL0     N10040   4.928  10.020   6.699  0.0900 -0.4241 -0.1110
   75MOL0     N10041   5.058  10.039   6.687  0.2179  0.9752 -0.0344
   75MOL0     C10042   6.297   9.725   6.276  0.1036  0.4874 -0.2949
   75MOL0     C10043   6.400   9.636   6.288 -0.6015 -0.2251  0.2740
   75MOL0     C10044   6.627   9.403   6.479  0.5604  0.4393 -0.2778
   75MOL0     C10045   6.708   9.501   6.411  0.1195  0.2815 -0.6406
   75MOL0     C10046   6.828   9.550   6.468 -0.5331 -0.1365 -1.1399
   75MOL0     C10047   6.874   9.512   6.593  0.2499 -0.4772  0.2530
   75MOL0     O10048   7.002   9.551   6.618  0.2326  0.0736  0.3546
   75MOL0     C10049   7.041   9.594   6.743 -0.2173 -0.3718 -0.1946
   75MOL0     C10050   7.111   9.485   6.833 -0.3787 -1.0237  0.1969
   75MOL0     C10051   7.241   9.428   6.763  0.1095 -0.0862  0.4804
   75MOL0     C10052   7.366   9.506   6.788  0.6453  0.4142  0.2549
   75MOL0     C10053   7.410   9.486   6.931  0.4572  0.4375  1.1693
   75MOL0     C10054   7.444   9.454   7.041 -0.6191 -0.6556  0.2217
   75MOL0     C10055   6.796   9.415   6.657  0.6598 -0.5293 -0.6147
   75MOL0     C10056   6.672   9.364   6.611  0.2887 -0.0221  0.5197
   75MOL0     C10057   6.595   9.262   6.687  1.0761  0.4887 -0.5454
   75MOL0     H10058   6.233   9.341   6.249  0.3383 -0.0542  0.8458
   75MOL0     H10059   6.054   9.491   6.226  0.5269  0.4596 -0.5129
   75MOL0     H10060   5.915   9.729   6.144  1.2938  2.3472 -0.8772
   75MOL0     H10061   5.899   9.672   6.314 -3.1992  2.1471 -0.1128
   75MOL0     H10062   5.902   9.971   6.228  2.3778 -0.1869  1.9512
   75MOL0     H10063   5.864   9.910   6.385 -5.0084  2.1649  0.2021
   75MOL0     H10064   5.676   9.773   6.280  2.7430  0.2626 -1.2836
   75MOL0     H10065   5.660   9.920   6.169 -0.3505  2.1200  0.4565
   75MOL0     H10066   5.690   9.966   6.468 -0.7377 -1.8477  0.6438
   75MOL0     H10067   5.641  10.071   6.338 -0.9234 -0.1407 -0.9366
   75MOL0     H10068   5.430   9.915   6.304  0.6464 -0.0505 -0.0419
   75MOL0     H10069   5.495   9.837   6.450 -2.3482  1.6214  1.9015
   75MOL0     H10070   5.480  10.039   6.582  1.0281 -0.5534 -0.7564
   75MOL0     H10071   5.437  10.122   6.422 -3.4199 -0.8029 -2.2696
   75MOL0     H10072   5.244   9.967   6.423  2.0713 -2.2390 -0.3720
   75MOL0     H10073   5.249  10.106   6.536  0.3942  0.0831 -2.2611
   75MOL0     H10074   5.286   9.806   6.617 -2.2639 -0.3804  1.3269
   75MOL0     H10075   5.313   9.955   6.718  3.0428 -0.0660 -1.9393
   75MOL0     H10076   5.042   9.729   6.605  1.5374  1.3535  1.2867
   75MOL0     H10077   4.781   9.720   6.653  1.1001 -0.0785  0.7640
   75MOL0     H10078   4.740   9.823   6.787 -0.0501 -0.3335 -0.6129
   75MOL0     H10079   4.658  10.004   6.629 -3.1842 -0.2401  0.5526
   75MOL0     H10080   4.685   9.874   6.502 -1.9707  0.5370 -0.4313
   75MOL0     H10081   4.514   9.807   6.753 -0.4708 -3.6478 -0.0830
   75MOL0     H10082   4.523   9.735   6.592 -1.3603 -0.4079  0.6626
   75MOL0     H10083   4.385   9.892   6.507 -0.3827 -0.6373  0.5767
   75MOL0     H10084   4.445  10.026   6.608  0.7620 -0.0473 -0.2275
   75MOL0     H10085   4.131   9.901   6.883  0.1238  2.5677  2.4798
   75MOL0     H10086   3.924  10.027   6.895 -1.6923 -0.4995  0.1394
   75MOL0     H10087   3.680  10.309   6.981 -0.4749  2.6053  0.0749
   75MOL0     H10088   3.450  10.418   7.036 -1.9818 -0.8707  0.6496
   75MOL0     H10089   3.081  10.435   6.973 -0.2705 -2.9765  5.3452
   75MOL0     H10090   3.226  10.404   7.063 -0.2892 -4.0128 -2.1240
   75MOL0     H10091   3.322  10.625   6.957 -0.8573 -3.7935 -3.6408
   75MOL0     H10092   3.175  10.650   6.866  0.3949 -1.5744 -0.8735
   75MOL0     H10093   3.046  10.663   7.057 -1.0149 -0.0709 -2.1976
   75MOL0     H10094   3.187  10.651   7.169 -1.3125  0.3714  0.4512
   75MOL0     H10095   3.191  10.864   6.956  0.4003  0.5663 -0.2966
   75MOL0     H10096   3.286  10.855   7.088 -1.2026 -1.1402  0.7177
   75MOL0     H10097   2.991  10.912   7.121  0.6829 -0.8786  1.4286
   75MOL0     H10098   3.125  11.025   7.135  3.5822 -1.2116  0.4967
   75MOL0     H10099   3.095  10.792   7.307 -0.1179  0.0024  3.8768
   75MOL0     H10100   3.209  10.925   7.338  0.7367  0.1546 -1.8856
   75MOL0     H10101   2.909  10.921   7.353 -0.5161  0.2720  0.3986
   75MOL0     H10102   2.986  11.074   7.312  2.9572  1.5899  1.4333
   75MOL0     H10103   3.074  10.899   7.544  0.1590 -0.1163 -0.2414
   75MOL0     H10104   3.126  11.066   7.524 -0.2737  0.4853 -1.3735
   75MOL0     H10105   3.328  10.276   6.642 -2.2197 -1.3446  1.1824
   75MOL0     H10106   3.558  10.192   6.603  0.0315  0.6543  0.2305
   75MOL0     H10107   4.053  10.246   6.530 -0.7344  0.0687 -0.1920
   75MOL0     H10108   4.262  10.108   6.536  0.8524 -1.9467  0.3161
   75MOL0     H10109   6.325   9.829   6.289  2.2082  0.0741 -1.1009
   75MOL0     H10110   6.499   9.679   6.294 -0.7141  0.1386 -0.3776
   75MOL0     H10111   6.685   9.521   6.306  0.9287 -1.2004 -1.1278
   75MOL0     H10112   6.901   9.611   6.416 -0.5104 -0.9242 -2.0660
   75MOL0     H10113   6.955   9.632   6.799  0.6014 -1.2191  1.7130
   75MOL0     H10114   7.099   9.685   6.722 -2.0037  1.1195  0.9682
   75MOL0     H10115   7.034   9.412   6.858 -2.9711  1.2246 -0.7339
   75MOL0     H10116   7.129   9.536   6.928  1.9040  0.8798 -1.1408
   75MOL0     H10117   7.217   9.409   6.658  0.1072 -0.8040  0.6058
   75MOL0     H10118   7.259   9.331   6.809 -3.3264 -0.1834  1.8775
   75MOL0     H10119   7.440   9.467   6.717  2.3573  1.9353  1.1191
   75MOL0     H10120   7.345   9.607   6.751  0.0144 -0.4465 -1.8982
   75MOL0     H10121   7.494   9.442   7.135  0.4054  3.1311  0.2948
   75MOL0     H10122   6.820   9.380   6.758  0.4471 -2.2381 -1.1306
   75MOL0     H10123   6.497   9.301   6.715  0.8439  0.6831 -1.5958
   75MOL0     H10124   6.584   9.168   6.632  0.1405 -0.2912  0.9074
   75MOL0     H10125   6.648   9.235   6.779  0.3615  2.1437  0.3984
   76MOL0     O10126  10.907  11.410   2.101  0.6098 -1.0132 -0.4374
   76MOL0     C10127  10.970  11.313   2.132 -0.5564  0.3407 -0.7792
   76MOL0     O10128  10.932  11.187   2.107 -0.6013  0.1804 -0.3898
   76MOL0     C10129  10.819  11.175   2.026  1.0549 -0.0801 -0.0310
   76MOL0     C10130  10.697  11.133   2.089 -0.2370  0.5456 -0.7623
   76MOL0     C10131  10.584  11.104   2.017  0.5265 -0.2710  0.1231
   76MOL0     C10132  10.589  11.113   1.878 -0.3708 -0.1688 -0.5228
   76MOL0     O10133  10.479  11.087   1.806 -0.5581 -0.5967  0.3905
   76MOL0     C10134  10.497  11.015   1.681 -0.2786  0.6896  0.5131
   76MOL0     C10135  10.360  11.009   1.617  0.1926  0.1454 -0.8661
   76MOL0     C10136  10.371  10.946   1.486 -0.2054 -0.4110 -0.4088
   76MOL0     C10137  10.241  10.917   1.429  0.1085  0.0543 -0.7880
   76MOL0     C10138  10.273  10.848   1.295  0.2208  0.1306 -0.0292
   76MOL0     C10139  10.159  10.874   1.194  0.2250 -0.7618  0.0000
   76MOL0     C10140  10.026  10.805   1.248  0.0339  0.5443  0.2537
   76MOL0     C10141   9.915  10.791   1.143  0.1268  0.3006  0.8541
   76MOL0     N10142   9.872  10.928   1.109  0.2248 -0.2682 -0.3802
   76MOL0     C10143   9.809  11.016   1.194 -0.9452  0.7285 -0.2443
   76MOL0     C10144   9.829  11.134   1.133  0.4666 -0.8950  0.5515
   76MOL0     C10145   9.769  11.266   1.166  0.4362  0.0647  0.1513
   76MOL0     C10146   9.686  11.321   1.048 -0.2921 -0.4201 -0.1509
   76MOL0     C10147   9.622  11.445   1.102  0.1332 -0.6034  0.2456
   76MOL0     C10148   9.587  11.539   0.993  0.3054 -0.2097 -0.5064
   76MOL0     O10149   9.513  11.471   0.894  0.0119 -0.0811 -0.2494
   76MOL0     C10150   9.418  11.539   0.828  1.7247  0.7176  0.1033
   76MOL0     C10151   9.310  11.458   0.762 -0.1292 -1.2565 -0.6043
   76MOL0     C10152   9.198  11.516   0.706 -0.1044  0.2198  0.7471
   76MOL0     C10153   9.189  11.649   0.694  0.3956 -0.8136  0.6970
   76MOL0     C10154   9.059  11.704   0.642 -0.0177  0.1383  0.5425
   76MOL0     O10155   8.960  11.612   0.626 -1.0210 -0.2091 -0.5529
   76MOL0     C10156   8.833  11.654   0.644  0.3921  0.1577 -0.1929
   76MOL0     C10157   8.786  11.753   0.738  0.4283 -0.0624 -0.4933
   76MOL0     C10158   8.649  11.794   0.741 -0.6363  0.3084  0.8494
   76MOL0     C10159   8.561  11.738   0.649 -0.9656  1.1616  0.8545
   76MOL0     O10160   8.434  11.780   0.657  1.0720  0.3613 -0.5308
   76MOL0     C10161   8.321  11.701   0.627 -0.3406 -0.7095  0.4005
   76MOL0     C10162   8.204  11.776   0.685  0.4593  0.3080 -0.4867
   76MOL0     C10163   8.174  11.740   0.832 -0.3223  0.1571  0.2790
   76MOL0     C10164   8.282  11.797   0.928  1.0850  0.6911  0.6206
   76MOL0     C10165   8.223  11.807   1.065 -0.7102  0.6752  0.3913
   76MOL0     C10166   8.162  11.680   1.120 -0.0068  0.6771 -0.5094
   76MOL0     C10167   8.108  11.690   1.267  0.8158  1.0957 -0.1417
   76MOL0     C10168   8.071  11.547   1.316  0.8242 -0.8910  0.3928
   76MOL0    Cl10169   8.217  11.445   1.341 -0.1464  0.8139  0.1125
   76MOL0     C10170   8.601  11.627   0.567 -1.0438  0.5610 -0.0018
   76MOL0     C10171   8.734  11.592   0.562 -0.7083  0.6519  0.0877
   76MOL0     O10172   9.048  11.824   0.615 -0.5480 -0.0690  0.4985
   76MOL0     C10173   9.287  11.727   0.752  0.3292 -0.8526 -0.0754
   76MOL0     C10174   9.390  11.672   0.834  0.5641 -0.1362  0.7042
   76MOL0     N10175   9.896  11.115   1.018 -0.2186  1.0026 -0.2807
   76MOL0     N10176   9.919  10.986   0.994 -0.6027  0.4154 -0.5500
   76MOL0     C10177  10.707  11.164   1.819  0.2543 -0.1728  0.1937
   76MOL0     C10178  10.819  11.198   1.890  0.6063  1.2086  0.8775
   76MOL0     C10179  11.102  11.348   2.204 -0.1875  0.3226 -0.5656
   76MOL0     C10180  11.189  11.439   2.148  0.0048  0.7332 -0.3329
   76MOL0     C10181  11.298  11.484   2.216 -0.1568  0.4150 -0.4018
   76MOL0     C10182  11.329  11.446   2.348  0.2026  0.4956  0.0245
   76MOL0     O10183  11.443  11.517   2.400  0.5875  1.0890 -1.1613
   76MOL0     C10184  11.496  11.463   2.522  0.7104 -0.0876  0.5292
   76MOL0     C10185  11.593  11.562   2.557 -0.8411  0.1807  0.6036
   76MOL0     C10186  11.681  11.490   2.662 -0.3808 -0.0573 -0.4095
   76MOL0     C10187  11.785  11.574   2.745 -0.1229  0.4165 -0.4705
   76MOL0     C10188  11.871  11.642   2.652 -0.0089  0.4710  0.2086
   76MOL0     C10189  11.931  11.697   2.560  0.1495  1.2686  0.1765
   76MOL0     C10190  11.252  11.345   2.410 -0.4210  0.0500  0.8311
   76MOL0     C10191  11.139  11.291   2.334 -0.0359  1.2126  0.0442
   76MOL0     C10192  11.043  11.201   2.397 -0.8055  0.3014 -0.5026
   76MOL0     H10193  10.710  11.120   2.196  2.1566 -1.5446 -1.2201
   76MOL0     H10194  10.486  11.087   2.060  0.2113  4.0494  1.5596
   76MOL0     H10195  10.567  11.066   1.615 -0.9090  2.5075  1.1833
   76MOL0     H10196  10.530  10.912   1.697 -0.9723  0.1194 -1.4567
   76MOL0     H10197  10.311  11.105   1.600  1.4024  1.2321  1.4232
   76MOL0     H10198  10.287  10.952   1.675 -0.7758  1.2616 -0.9429
   76MOL0     H10199  10.427  10.852   1.499 -0.9509 -1.0810 -1.8016
   76MOL0     H10200  10.433  11.014   1.427  2.4811 -1.6246  0.8432
   76MOL0     H10201  10.185  10.852   1.497  0.8925  1.1236  0.9474
   76MOL0     H10202  10.188  11.011   1.411  1.5904  0.6534 -2.2834
   76MOL0     H10203  10.357  10.892   1.240  0.3367 -3.0963 -2.7533
   76MOL0     H10204  10.301  10.743   1.305  0.1412  0.1961  1.0548
   76MOL0     H10205  10.137  10.982   1.189  0.8360 -0.6102  0.4797
   76MOL0     H10206  10.185  10.849   1.091 -0.3264  1.0624 -0.6308
   76MOL0     H10207   9.989  10.842   1.343 -0.2700 -1.3433  0.9149
   76MOL0     H10208  10.061  10.704   1.273  3.0156  0.7075 -2.5448
   76MOL0     H10209   9.958  10.738   1.058 -2.2822 -1.9921  0.9575
   76MOL0     H10210   9.835  10.729   1.184  0.4454  0.0033  1.0378
   76MOL0     H10211   9.741  10.999   1.277 -0.9601 -2.8885 -0.8352
   76MOL0     H10212   9.693  11.256   1.244 -0.8420 -1.8547 -1.2676
   76MOL0     H10213   9.857  11.325   1.191  1.7458 -2.1113  0.9328
   76MOL0     H10214   9.749  11.345   0.962  2.5605 -2.2133  1.3027
   76MOL0     H10215   9.606  11.258   1.007 -0.4253 -1.5028  1.6523
   76MOL0     H10216   9.692  11.497   1.168  1.1635 -0.2088 -1.1163
   76MOL0     H10217   9.535  11.420   1.163 -0.1202 -1.7309 -0.5428
   76MOL0     H10218   9.679  11.586   0.957 -0.4831  3.4693  1.7219
   76MOL0     H10219   9.522  11.614   1.039 -2.5533 -3.2198  0.7608
   76MOL0     H10220   9.325  11.351   0.755  1.3132 -1.4450  2.9447
   76MOL0     H10221   9.120  11.451   0.667  1.5495 -0.6076 -1.3744
   76MOL0     H10222   8.862  11.807   0.793 -0.1944 -2.2911  2.7912
   76MOL0     H10223   8.620  11.864   0.819 -0.4467  1.2699  0.0784
   76MOL0     H10224   8.305  11.680   0.521  0.1893 -0.9321  0.3637
   76MOL0     H10225   8.344  11.606   0.675  1.3678 -1.7444 -2.2444
   76MOL0     H10226   8.224  11.883   0.675 -2.4915  0.9905 -0.2254
   76MOL0     H10227   8.113  11.760   0.626 -1.8235  2.4543  2.1486
   76MOL0     H10228   8.075  11.777   0.857 -0.4899 -1.1594  1.7343
   76MOL0     H10229   8.158  11.632   0.836  0.5930 -0.4232 -4.5344
   76MOL0     H10230   8.303  11.895   0.883 -3.1814  0.2835 -3.0531
   76MOL0     H10231   8.373  11.738   0.920 -0.2528 -1.3839 -0.1341
   76MOL0     H10232   8.147  11.886   1.064 -0.8637  0.5335 -0.7093
   76MOL0     H10233   8.306  11.842   1.127  0.3902  0.6172 -1.0064
   76MOL0     H10234   8.082  11.646   1.053  0.7613  4.9818 -4.0846
   76MOL0     H10235   8.232  11.596   1.121 -0.2243  0.4489  2.2791
   76MOL0     H10236   8.020  11.754   1.276 -1.1893 -1.6591  1.6520
   76MOL0     H10237   8.193  11.727   1.325  2.3236 -0.2176 -1.4114
   76MOL0     H10238   8.023  11.552   1.415 -0.3724 -2.4018 -0.0773
   76MOL0     H10239   8.009  11.503   1.238  1.8933 -1.8202  0.0538
   76MOL0     H10240   8.528  11.582   0.501 -1.5291  2.2470 -0.6642
   76MOL0     H10241   8.759  11.515   0.490 -2.5072 -0.5738  0.6904
   76MOL0     H10242   9.294  11.835   0.742  3.1093 -0.9845 -0.3236
   76MOL0     H10243   9.461  11.746   0.872 -1.2464  1.0656  1.8884
   76MOL0     H10244  10.720  11.173   1.712  1.2853 -0.3644  0.2971
   76MOL0     H10245  10.914  11.218   1.842  0.7319  0.5507  0.8375
   76MOL0     H10246  11.168  11.476   2.048  1.6787 -1.1223 -1.4458
   76MOL0     H10247  11.358  11.558   2.165  1.7784 -2.0036 -1.8970
   76MOL0     H10248  11.536  11.365   2.494  0.1961 -0.0374 -0.4318
   76MOL0     H10249  11.424  11.449   2.603  3.7819 -0.4396  3.4359
   76MOL0     H10250  11.550  11.654   2.598  0.4567  0.9423  0.3365
   76MOL0     H10251  11.651  11.601   2.473  0.0370  2.9024  2.3078
   76MOL0     H10252  11.736  11.407   2.616  1.3088 -0.1562  1.6492
   76MOL0     H10253  11.611  11.449   2.735  0.4547 -0.0092  0.4300
   76MOL0     H10254  11.745  11.644   2.818 -1.5815 -0.0315 -0.7908
   76MOL0     H10255  11.839  11.499   2.804 -0.1401 -0.1130 -1.1178
   76MOL0     H10256  11.979  11.767   2.494 -2.9231  1.5741 -1.9439
   76MOL0     H10257  11.275  11.297   2.504 -0.6525 -3.7818 -0.8918
   76MOL0     H10258  10.938  11.228   2.388 -0.9683  0.0366  0.4416
   76MOL0     H10259  11.054  11.103   2.351 -3.0656  0.3178 -1.1715
   76MOL0     H10260  11.064  11.180   2.503 -2.2548  0.4763 -0.1568
   77MOL0     O10261   9.195   1.965   0.145 -0.6121 -0.2023 -0.1963
   77MOL0     C10262   9.207   2.060   0.226  0.2747 -0.2359 -0.2171
   77MOL0     O10263   9.317   2.084   0.308  0.0476  0.4581 -0.2788
   77MOL0     C10264   9.407   1.985   0.318  0.2190 -0.5992  0.0893
   77MOL0     C10265   9.540   1.999   0.272 -0.6484 -0.7553 -0.0375
   77MOL0     C10266   9.616   1.895   0.294 -0.1222  0.6253 -0.0128
   77MOL0     C10267   9.578   1.771   0.346 -0.1697  0.4633  0.4726
   77MOL0     O10268   9.666   1.666   0.370  0.2796  0.3323 -0.0145
   77MOL0     C10269   9.813   1.682   0.379  0.5326 -0.1448  1.1217
   77MOL0     C10270   9.863   1.541   0.411 -0.1271  0.6752 -0.0424
   77MOL0     C10271  10.002   1.519   0.375  0.6551  0.0979 -0.9612
   77MOL0     C10272  10.091   1.607   0.460 -0.2828  0.9383 -0.1813
   77MOL0     C10273  10.244   1.581   0.437  0.0524 -1.0598 -0.4148
   77MOL0     C10274  10.346   1.663   0.510  1.1186  0.2535 -0.2949
   77MOL0     C10275  10.341   1.816   0.511 -0.8225  0.5722  0.8310
   77MOL0     C10276  10.222   1.885   0.573  0.1285 -0.8570 -0.7631
   77MOL0     N10277  10.272   2.024   0.611 -1.1357 -0.0567  0.3834
   77MOL0     C10278  10.321   2.113   0.516  0.6181 -0.1464  0.6858
   77MOL0     C10279  10.374   2.219   0.585 -0.4182 -0.0250  0.4637
   77MOL0     C10280  10.427   2.339   0.522  0.3544 -0.0356 -0.8638
   77MOL0     C10281  10.577   2.350   0.534  0.6642  0.2604 -0.0162
   77MOL0     C10282  10.641   2.271   0.416  0.4043  0.5487 -1.2613
   77MOL0     C10283  10.779   2.214   0.450  0.0516  0.2217 -0.2874
   77MOL0     O10284  10.858   2.168   0.329  0.1204 -1.2192 -0.2462
   77MOL0     C10285  10.998   2.192   0.343  0.4094  0.0235 -0.0439
   77MOL0     C10286  11.073   2.211   0.225  0.1276 -0.3484 -1.2265
   77MOL0     C10287  11.219   2.223   0.235  0.2603 -1.0895  0.3347
   77MOL0     C10288  11.281   2.228   0.365 -0.9029 -0.2741 -0.6954
   77MOL0     C10289  11.426   2.267   0.368  0.2923  0.2622 -0.9371
   77MOL0     O10290  11.475   2.295   0.495  0.5422 -0.1766  0.0423
   77MOL0     C10291  11.608   2.318   0.524  0.5548  0.1176  0.0463
   77MOL0     C10292  11.711   2.245   0.466  0.5272 -0.1743 -0.1131
   77MOL0     C10293  11.842   2.267   0.500 -0.7551 -0.8984 -0.0886
   77MOL0     C10294  11.869   2.362   0.598 -0.6009 -0.0635 -0.2161
   77MOL0     O10295  11.991   2.369   0.667  1.0100 -0.2237 -0.2477
   77MOL0     C10296  12.090   2.260   0.659  0.0276 -0.4046 -0.1657
   77MOL0     C10297  12.230   2.327   0.683  0.1146  0.8154 -0.0019
   77MOL0     C10298  12.330   2.215   0.677 -0.1596 -0.1316  0.5750
   77MOL0     C10299  12.469   2.280   0.687 -1.3308 -0.4279  0.0347
   77MOL0     C10300  12.577   2.173   0.720 -0.8678 -0.5527 -0.1901
   77MOL0     C10301  12.713   2.234   0.686  0.0840  0.3316  0.0898
   77MOL0     C10302  12.747   2.347   0.775 -0.8726 -0.1006 -0.2322
   77MOL0     C10303  12.880   2.416   0.717  0.4068  0.0870 -0.6565
   77MOL0    Cl10304  13.014   2.291   0.674 -0.2397  0.5258 -0.0631
   77MOL0     C10305  11.770   2.431   0.670  0.1642 -0.4459 -0.2973
   77MOL0     C10306  11.645   2.404   0.633  0.5649 -0.0384  0.1094
   77MOL0     O10307  11.486   2.271   0.265 -0.0678  0.8927  0.2091
   77MOL0     C10308  11.209   2.196   0.474  0.8387 -0.0876 -0.3908
   77MOL0     C10309  11.065   2.168   0.463 -0.2710  0.1614 -0.2324
   77MOL0     N10310  10.360   2.181   0.715  1.4536  0.0614 -0.9008
   77MOL0     N10311  10.285   2.077   0.735  0.4410 -0.0096  0.1504
   77MOL0     C10312   9.440   1.748   0.368  0.5355  0.1054 -0.4304
   77MOL0     C10313   9.354   1.859   0.356  0.3166 -0.4091  0.5119
   77MOL0     C10314   9.107   2.170   0.237 -1.2752  0.8887 -1.5227
   77MOL0     C10315   9.119   2.250   0.352  0.9034  0.2822 -0.6128
   77MOL0     C10316   9.027   2.349   0.378 -0.4387 -1.3784 -0.2504
   77MOL0     C10317   8.923   2.375   0.291 -0.4997  0.0014  0.1872
   77MOL0     O10318   8.831   2.473   0.297 -0.0710  0.4000 -0.1690
   77MOL0     C10319   8.894   2.603   0.327  0.3201  0.3476  0.7912
   77MOL0     C10320   8.812   2.719   0.271 -0.7697  0.8491 -0.9450
   77MOL0     C10321   8.655   2.717   0.306  0.8199 -0.4334 -0.5334
   77MOL0     C10322   8.605   2.852   0.367  0.2937 -1.1180 -0.4042
   77MOL0     C10323   8.658   2.864   0.505 -0.2830 -0.0540 -0.3733
   77MOL0     C10324   8.701   2.866   0.613  1.3781  0.8604 -0.0563
   77MOL0     C10325   8.908   2.284   0.184  0.6137  0.2708 -0.4687
   77MOL0     C10326   8.993   2.178   0.158 -0.0976 -0.5658 -0.0171
   77MOL0     C10327   8.965   2.093   0.035  0.5819 -0.3441 -0.1672
   77MOL0     H10328   9.580   2.090   0.228 -1.3358  0.2526  1.3266
   77MOL0     H10329   9.720   1.905   0.264  0.9262 -1.8577  2.3769
   77MOL0     H10330   9.857   1.709   0.283 -3.8240 -3.1782 -2.1353
   77MOL0     H10331   9.842   1.759   0.451  1.6928  1.9618 -1.4555
   77MOL0     H10332   9.810   1.461   0.359  0.6406 -0.0762  0.3276
   77MOL0     H10333   9.851   1.515   0.517  0.2850 -1.5510 -0.5096
   77MOL0     H10334  10.018   1.551   0.272 -0.7901 -4.0874 -2.6942
   77MOL0     H10335  10.026   1.413   0.381  0.0884 -0.1416 -2.4911
   77MOL0     H10336  10.065   1.711   0.439 -3.1635  0.8412  2.2408
   77MOL0     H10337  10.068   1.584   0.565  1.3553  1.3486  0.2955
   77MOL0     H10338  10.262   1.478   0.467 -0.6550 -0.2391  3.3465
   77MOL0     H10339  10.263   1.599   0.331 -0.9622 -1.1116 -0.6128
   77MOL0     H10340  10.332   1.622   0.611 -0.0417 -1.5105 -1.1263
   77MOL0     H10341  10.445   1.645   0.468  1.2618  1.6848 -0.6158
   77MOL0     H10342  10.349   1.854   0.409 -1.8210  0.5800  0.7435
   77MOL0     H10343  10.430   1.853   0.563  0.8290  0.1111 -1.5181
   77MOL0     H10344  10.135   1.888   0.506 -0.1077  1.3823 -0.4419
   77MOL0     H10345  10.191   1.833   0.664  0.5353 -1.5652 -1.0204
   77MOL0     H10346  10.315   2.094   0.410 -1.0734 -0.6501  0.8462
   77MOL0     H10347  10.395   2.343   0.417 -0.1464 -1.1093 -0.7635
   77MOL0     H10348  10.376   2.424   0.569  0.1204 -1.6496  2.0335
   77MOL0     H10349  10.582   2.458   0.516 -1.0390  0.3629 -0.0201
   77MOL0     H10350  10.616   2.308   0.627 -3.1916 -3.3509  0.2348
   77MOL0     H10351  10.640   2.324   0.320  2.1620 -0.3675 -1.8205
   77MOL0     H10352  10.589   2.176   0.399 -0.7176  1.7216 -6.3871
   77MOL0     H10353  10.767   2.127   0.515 -2.5720  0.8483  0.1688
   77MOL0     H10354  10.844   2.292   0.489 -0.4590  1.8884 -2.5700
   77MOL0     H10355  11.039   2.230   0.123 -0.0622  1.2108 -0.9033
   77MOL0     H10356  11.274   2.241   0.143 -2.1082  0.2238 -0.9243
   77MOL0     H10357  11.684   2.176   0.387 -1.0743  0.5724 -0.2594
   77MOL0     H10358  11.912   2.193   0.461 -2.5194 -3.8098  1.8482
   77MOL0     H10359  12.063   2.175   0.722 -2.0728  0.3609  0.0416
   77MOL0     H10360  12.096   2.227   0.555 -1.3705 -1.7347  0.1441
   77MOL0     H10361  12.246   2.414   0.619  0.1412  2.2406  1.8391
   77MOL0     H10362  12.226   2.370   0.784 -0.8571  1.1525 -0.1813
   77MOL0     H10363  12.310   2.147   0.761 -3.3437 -1.1890 -0.8881
   77MOL0     H10364  12.315   2.153   0.588  1.2052  1.7473 -1.0338
   77MOL0     H10365  12.466   2.365   0.757  0.5013  1.1387 -1.6519
   77MOL0     H10366  12.490   2.321   0.588 -0.3669  0.5277  0.6084
   77MOL0     H10367  12.552   2.084   0.661  0.5218 -0.3559 -1.1289
   77MOL0     H10368  12.580   2.147   0.827  1.0815 -1.9023 -0.5123
   77MOL0     H10369  12.792   2.160   0.704  0.5079  1.2327  2.1987
   77MOL0     H10370  12.716   2.266   0.582  1.0908  2.5282  0.7564
   77MOL0     H10371  12.767   2.327   0.881  0.7680 -2.0044 -0.8199
   77MOL0     H10372  12.677   2.428   0.755  1.2113  1.4608 -1.7488
   77MOL0     H10373  12.847   2.472   0.629 -1.2987 -1.1519 -0.8508
   77MOL0     H10374  12.917   2.491   0.788  0.3119 -1.5337  1.1734
   77MOL0     H10375  11.794   2.483   0.763 -1.4389  1.3097 -0.8038
   77MOL0     H10376  11.570   2.449   0.696 -0.9260 -2.4241  0.1865
   77MOL0     H10377  11.256   2.185   0.571 -0.6162  2.7157  0.7349
   77MOL0     H10378  11.012   2.138   0.552  0.7469 -2.7862 -0.5086
   77MOL0     H10379   9.399   1.657   0.410 -2.7537  1.4292 -0.4641
   77MOL0     H10380   9.250   1.855   0.389 -0.3449  1.4860 -1.1260
   77MOL0     H10381   9.198   2.233   0.425  0.0083  1.9285  0.8382
   77MOL0     H10382   9.050   2.413   0.463 -1.9229 -2.0040  0.6546
   77MOL0     H10383   8.996   2.609   0.289  1.4474 -1.8190  3.1247
   77MOL0     H10384   8.890   2.620   0.435  2.3593  1.0897  0.7879
   77MOL0     H10385   8.815   2.724   0.162 -1.0235 -0.2289 -1.0140
   77MOL0     H10386   8.845   2.818   0.305 -2.7022  1.3328 -0.3687
   77MOL0     H10387   8.625   2.634   0.370 -0.8261 -1.9751 -3.0878
   77MOL0     H10388   8.609   2.696   0.208 -0.3828 -1.2238  0.1763
   77MOL0     H10389   8.635   2.942   0.312 -2.7157  0.3306  0.1427
   77MOL0     H10390   8.496   2.851   0.358  0.4202 -0.1199 -2.7004
   77MOL0     H10391   8.757   2.854   0.704  0.4270 -1.6785  0.2867
   77MOL0     H10392   8.821   2.295   0.119  0.5979 -3.2162 -1.2301
   77MOL0     H10393   8.893   2.144  -0.029  1.7741  0.5041 -0.8640
   77MOL0     H10394   9.057   2.087  -0.023  0.9964 -4.5718  0.5516
   77MOL0     H10395   8.941   1.989   0.063  2.1407 -1.2166 -1.9135
   78MOL0     O10396   2.990   3.988   8.211 -0.5572  0.9696  0.0666
   78MOL0     C10397   2.976   3.885   8.275  0.2458 -0.4479 -0.4380
   78MOL0     O10398   2.869   3.856   8.352 -0.9978 -0.6785  0.8624
   78MOL0     C10399   2.760   3.933   8.319  0.3287 -0.0679  0.4222
   78MOL0     C10400   2.753   4.060   8.372 -0.2266  0.2449  0.3353
   78MOL0     C10401   2.645   4.149   8.347 -0.6725  0.7635 -0.1349
   78MOL0     C10402   2.548   4.102   8.252 -0.6651 -0.3915 -0.6214
   78MOL0     O10403   2.453   4.181   8.196  0.4249 -0.0225  0.1884
   78MOL0     C10404   2.470   4.323   8.182  0.5740  0.8119 -0.2005
   78MOL0     C10405   2.348   4.379   8.096 -1.1906  0.5318 -0.4986
   78MOL0     C10406   2.368   4.520   8.047 -0.5533 -0.3247  0.2683
   78MOL0     C10407   2.258   4.535   7.935  0.1049 -0.5915 -0.7875
   78MOL0     C10408   2.244   4.674   7.873  0.6102 -0.7667  0.3042
   78MOL0     C10409   2.108   4.699   7.802 -0.2365 -0.1974  0.1432
   78MOL0     C10410   2.037   4.577   7.721  0.4137 -0.0774 -0.0486
   78MOL0     C10411   1.888   4.595   7.713  0.4002 -0.6195 -0.7843
   78MOL0     N10412   1.820   4.488   7.649  0.8862 -0.0459  0.8312
   78MOL0     C10413   1.785   4.364   7.715 -0.2373 -0.4814  0.2458
   78MOL0     C10414   1.694   4.302   7.639  0.3623  1.0870 -0.5751
   78MOL0     C10415   1.610   4.169   7.660 -1.2062 -0.0787 -0.2536
   78MOL0     C10416   1.689   4.036   7.626  0.3026  0.6652  0.6108
   78MOL0     C10417   1.575   3.916   7.618  0.1104 -0.7607 -0.0262
   78MOL0     C10418   1.619   3.775   7.627  0.0631  0.1511  0.7594
   78MOL0     O10419   1.694   3.758   7.756  0.2701 -0.2027 -0.3262
   78MOL0     C10420   1.754   3.638   7.770 -0.9987  0.7721 -0.6396
   78MOL0     C10421   1.858   3.632   7.861  0.5249  0.3359 -0.1349
   78MOL0     C10422   1.923   3.511   7.879  0.3932  0.3156 -0.7275
   78MOL0     C10423   1.873   3.390   7.814  0.2743 -0.2146 -0.5878
   78MOL0     C10424   1.927   3.255   7.855  0.3759  1.3676 -0.4855
   78MOL0     O10425   1.887   3.151   7.775  0.3606 -0.5716 -0.7912
   78MOL0     C10426   1.930   3.022   7.809  0.3761 -0.2680  0.0539
   78MOL0     C10427   1.866   2.964   7.914 -1.0139 -0.4558 -0.2670
   78MOL0     C10428   1.883   2.826   7.947 -0.8061 -0.7793  0.5539
   78MOL0     C10429   1.980   2.757   7.876 -0.2934  0.3987 -0.1194
   78MOL0     O10430   2.000   2.623   7.908 -0.0543 -0.2219  1.4825
   78MOL0     C10431   1.925   2.533   7.824 -0.4341 -0.3706 -0.5128
   78MOL0     C10432   1.970   2.394   7.812 -0.3023  0.0453  0.9336
   78MOL0     C10433   2.006   2.346   7.963 -0.5082 -0.6088  0.2747
   78MOL0     C10434   2.008   2.191   7.972 -0.2543  0.9617  0.0289
   78MOL0     C10435   2.019   2.153   8.118 -0.4278 -0.2665 -0.6904
   78MOL0     C10436   1.967   2.010   8.137  0.1634  0.5644  0.1054
   78MOL0     C10437   2.050   1.900   8.060  0.3037  1.1458 -0.8169
   78MOL0     C10438   1.973   1.762   8.055 -0.4677 -0.3737  0.4470
   78MOL0    Cl10439   1.975   1.667   8.203  0.1041  0.0501  0.0135
   78MOL0     C10440   2.053   2.816   7.778  0.5653  0.9359  1.1466
   78MOL0     C10441   2.022   2.949   7.736 -0.8504  0.8950  0.2589
   78MOL0     O10442   2.018   3.252   7.940  0.0068  0.3165  0.3191
   78MOL0     C10443   1.773   3.409   7.718  1.3042 -0.2022 -0.2157
   78MOL0     C10444   1.726   3.534   7.685  0.3048  0.3890 -0.2960
   78MOL0     N10445   1.685   4.379   7.520 -0.4585 -0.3479 -0.1642
   78MOL0     N10446   1.745   4.491   7.537 -0.5518 -0.4444  0.0103
   78MOL0     C10447   2.557   3.973   8.198 -0.4968 -0.1943  0.0938
   78MOL0     C10448   2.652   3.880   8.240  0.0742 -0.6206 -0.5528
   78MOL0     C10449   3.100   3.805   8.276 -0.0816  0.6996  0.9509
   78MOL0     C10450   3.222   3.865   8.243 -0.6595  0.4035 -0.7886
   78MOL0     C10451   3.341   3.783   8.262  0.0682  0.3226 -0.4431
   78MOL0     C10452   3.342   3.645   8.291  0.3913  0.8765 -0.6234
   78MOL0     O10453   3.451   3.564   8.318 -0.4613  0.5487 -0.4455
   78MOL0     C10454   3.583   3.595   8.275 -0.2184  0.0604  0.4267
   78MOL0     C10455   3.605   3.556   8.131  1.1349 -0.2846 -0.2503
   78MOL0     C10456   3.591   3.405   8.111  0.4351  0.3598 -0.4105
   78MOL0     C10457   3.724   3.343   8.108 -0.3006  0.1401 -0.5817
   78MOL0     C10458   3.694   3.212   8.049  1.1844  0.6911 -0.4242
   78MOL0     C10459   3.679   3.114   7.984 -0.0851 -0.1576  1.0769
   78MOL0     C10460   3.213   3.591   8.305 -0.6215 -0.8424  0.0279
   78MOL0     C10461   3.097   3.668   8.302 -0.0240  0.2864 -0.0978
   78MOL0     C10462   2.967   3.589   8.337 -0.7909 -0.1687 -0.0695
   78MOL0     H10463   2.821   4.094   8.451 -0.0320  0.1209  0.2194
   78MOL0     H10464   2.653   4.253   8.378 -0.3884  1.1202 -1.3540
   78MOL0     H10465   2.467   4.366   8.283 -1.8568 -0.4233  0.3309
   78MOL0     H10466   2.558   4.353   8.125  0.5290 -1.0924 -1.3710
   78MOL0     H10467   2.262   4.367   8.162 -2.8833  0.4822 -2.5968
   78MOL0     H10468   2.338   4.311   8.011 -2.8073  0.4451 -0.2774
   78MOL0     H10469   2.466   4.538   8.003 -0.9970 -0.4235 -0.7761
   78MOL0     H10470   2.341   4.598   8.119  1.3094 -0.9653  1.7606
   78MOL0     H10471   2.279   4.466   7.853  0.6859 -0.3452 -0.8510
   78MOL0     H10472   2.161   4.510   7.981  0.9965 -0.9295  1.0132
   78MOL0     H10473   2.258   4.763   7.934 -0.7711  2.0678 -3.1694
   78MOL0     H10474   2.325   4.695   7.803  0.4052  0.0052  0.2926
   78MOL0     H10475   2.034   4.738   7.872 -1.6155  1.3873 -2.0403
   78MOL0     H10476   2.126   4.791   7.746  1.4530 -0.3696  0.3504
   78MOL0     H10477   2.059   4.481   7.770 -0.2984  0.6040  1.6994
   78MOL0     H10478   2.075   4.591   7.620  0.5231  1.4277  0.1820
   78MOL0     H10479   1.863   4.615   7.818  1.0441  0.4179 -0.8148
   78MOL0     H10480   1.872   4.693   7.668 -0.7847 -0.2499  0.3490
   78MOL0     H10481   1.819   4.343   7.816  1.3690  0.1479 -0.1426
   78MOL0     H10482   1.557   4.173   7.755 -3.7890  0.3071 -1.6007
   78MOL0     H10483   1.541   4.165   7.574  0.8155  1.5644 -2.0621
   78MOL0     H10484   1.737   4.050   7.529 -2.3527  3.5025 -0.4470
   78MOL0     H10485   1.753   4.008   7.710 -0.3652 -3.6287 -0.0749
   78MOL0     H10486   1.524   3.931   7.522  3.8413  0.0290 -2.0581
   78MOL0     H10487   1.508   3.939   7.702 -0.1317  0.0461 -0.4277
   78MOL0     H10488   1.681   3.764   7.537 -0.7492  2.1818 -0.1163
   78MOL0     H10489   1.531   3.711   7.618  0.1573  0.0112  0.8249
   78MOL0     H10490   1.889   3.731   7.892  4.4033 -0.8976  0.3685
   78MOL0     H10491   2.005   3.505   7.950  1.2182 -1.4387 -1.7557
   78MOL0     H10492   1.791   3.017   7.973  3.2821  1.4803  4.1820
   78MOL0     H10493   1.819   2.782   8.023  1.4441 -1.3744  2.2094
   78MOL0     H10494   1.824   2.517   7.863  0.3552 -2.3816  0.8452
   78MOL0     H10495   1.927   2.579   7.724  1.5492  1.2940  0.2140
   78MOL0     H10496   1.889   2.336   7.768  0.1140  0.9911 -1.2280
   78MOL0     H10497   2.061   2.386   7.751 -1.2639 -0.9411 -0.4418
   78MOL0     H10498   2.098   2.388   8.005 -1.1546 -1.6931  3.0491
   78MOL0     H10499   1.925   2.378   8.030  0.3830  0.3890  0.9197
   78MOL0     H10500   2.091   2.138   7.925  0.4077  0.7734  1.3437
   78MOL0     H10501   1.921   2.139   7.933 -0.0218 -1.7728  2.7856
   78MOL0     H10502   1.948   2.209   8.179 -0.1029  0.4104 -0.9225
   78MOL0     H10503   2.122   2.160   8.154 -1.1096  0.5517  1.2240
   78MOL0     H10504   1.970   1.982   8.243  1.6213 -0.2115 -0.1097
   78MOL0     H10505   1.866   2.006   8.096  0.6251 -0.3444 -1.0092
   78MOL0     H10506   2.147   1.890   8.108 -0.6427 -1.7683  0.6784
   78MOL0     H10507   2.064   1.928   7.955  1.3250  3.8065 -0.0720
   78MOL0     H10508   1.877   1.781   8.007  0.9423  2.7066 -1.5141
   78MOL0     H10509   2.022   1.697   7.982 -0.8731 -0.5577  0.3374
   78MOL0     H10510   2.124   2.759   7.718 -1.6200 -1.7954  0.9686
   78MOL0     H10511   2.063   3.003   7.652 -1.0951 -1.9163 -1.7930
   78MOL0     H10512   1.730   3.325   7.663  2.3422 -0.8886 -0.0269
   78MOL0     H10513   1.670   3.520   7.594  0.2231 -0.4114 -0.1277
   78MOL0     H10514   2.485   3.941   8.124 -0.4798  0.2739 -0.1282
   78MOL0     H10515   2.663   3.776   8.210  0.3029  0.0171 -2.8340
   78MOL0     H10516   3.227   3.972   8.231 -0.2629  0.4052 -0.6235
   78MOL0     H10517   3.428   3.846   8.244 -0.3611  1.0687  0.0704
   78MOL0     H10518   3.655   3.538   8.335  1.9938  1.1528 -1.0563
   78MOL0     H10519   3.601   3.702   8.281 -0.8575  0.3642 -1.9791
   78MOL0     H10520   3.703   3.600   8.107 -0.6692  4.1897 -0.5070
   78MOL0     H10521   3.538   3.615   8.067 -0.9386 -0.0870  1.9768
   78MOL0     H10522   3.555   3.381   8.010  0.7284  1.7981 -0.8751
   78MOL0     H10523   3.529   3.363   8.191 -0.6911 -0.2246 -1.5366
   78MOL0     H10524   3.799   3.397   8.049 -0.3225  0.8213  0.0005
   78MOL0     H10525   3.774   3.337   8.205  0.5868  0.5969 -0.9951
   78MOL0     H10526   3.666   3.031   7.919  0.0880  2.0626 -2.0026
   78MOL0     H10527   3.196   3.484   8.314 -4.3908 -0.3734  0.2938
   78MOL0     H10528   2.898   3.592   8.253  3.3238 -0.7975 -3.8701
   78MOL0     H10529   2.979   3.481   8.350  1.1577 -0.0274 -0.2769
   78MOL0     H10530   2.918   3.628   8.426 -1.7349 -0.9874 -0.2177
   79MOL0     O10531   4.736   9.523   6.153 -0.7514  0.0503  0.3963
   79MOL0     C10532   4.715   9.560   6.270  0.7142  0.1344  1.3698
   79MOL0     O10533   4.791   9.548   6.375  0.0898 -0.4017  0.6525
   79MOL0     C10534   4.930   9.535   6.362  0.0245  0.8753  0.4369
   79MOL0     C10535   5.015   9.581   6.256  0.3541  0.3912 -0.1357
   79MOL0     C10536   5.159   9.583   6.273 -0.5367  0.0020  1.4810
   79MOL0     C10537   5.213   9.531   6.388  0.5618 -0.0906 -0.2462
   79MOL0     O10538   5.353   9.511   6.403  0.0561  0.0068  0.3824
   79MOL0     C10539   5.425   9.435   6.298  0.4007  0.0614 -0.7707
   79MOL0     C10540   5.578   9.439   6.330 -0.6051  0.0604  0.4168
   79MOL0     C10541   5.623   9.369   6.460 -0.8685 -1.5083  0.7872
   79MOL0     C10542   5.769   9.393   6.477  0.0849 -0.7100  0.0328
   79MOL0     C10543   5.821   9.322   6.610  0.6556  0.4157  0.0674
   79MOL0     C10544   5.922   9.214   6.580  0.1409 -0.7377 -0.8449
   79MOL0     C10545   6.057   9.271   6.540 -0.3290 -0.3074  0.6414
   79MOL0     C10546   6.135   9.311   6.671 -0.2264  0.2963  0.7971
   79MOL0     N10547   6.147   9.202   6.766  0.1027 -0.1240 -0.5158
   79MOL0     C10548   6.217   9.086   6.737  0.4671  0.5512 -0.5134
   79MOL0     C10549   6.192   9.003   6.846 -0.0871  0.8929 -0.3519
   79MOL0     C10550   6.243   8.858   6.844 -0.1504  0.8373  0.6339
   79MOL0     C10551   6.262   8.800   6.985  1.0456 -1.0683  0.1742
   79MOL0     C10552   6.360   8.871   7.077 -0.8015 -0.8870  0.2704
   79MOL0     C10553   6.300   8.956   7.189  0.2252  0.3410  0.7491
   79MOL0     O10554   6.399   9.018   7.264 -0.5217  0.3527  1.0862
   79MOL0     C10555   6.483   9.108   7.209  0.6687  0.0145 -0.2286
   79MOL0     C10556   6.589   9.146   7.285 -0.0878  0.3182 -0.3951
   79MOL0     C10557   6.672   9.252   7.253 -0.7197 -0.7192 -0.0974
   79MOL0     C10558   6.641   9.336   7.142 -0.6235 -0.4578 -0.5249
   79MOL0     C10559   6.732   9.438   7.089  0.6442 -0.5631  0.0627
   79MOL0     O10560   6.769   9.532   7.178  0.0834  0.1701 -0.0683
   79MOL0     C10561   6.866   9.615   7.150  0.6574 -0.7015 -0.5787
   79MOL0     C10562   6.865   9.714   7.047 -0.6001  0.2978 -0.3546
   79MOL0     C10563   6.986   9.781   7.015  0.1942 -1.0895  0.5960
   79MOL0     C10564   7.102   9.765   7.090  0.3180  0.3484  1.2652
   79MOL0     O10565   7.230   9.809   7.064  0.2910  0.7652 -0.0682
   79MOL0     C10566   7.266   9.944   7.085  0.2960  0.5448  0.2704
   79MOL0     C10567   7.307   9.976   7.231 -0.0564 -0.0602 -0.5073
   79MOL0     C10568   7.461   9.961   7.253 -0.3082  1.2052  1.0127
   79MOL0     C10569   7.503   9.816   7.242 -0.0642 -0.1065 -0.3583
   79MOL0     C10570   7.633   9.781   7.315 -0.7080 -0.3039  0.2006
   79MOL0     C10571   7.624   9.634   7.352  0.1306  0.3450  0.5024
   79MOL0     C10572   7.751   9.581   7.411 -0.3872  0.0808 -0.4981
   79MOL0     C10573   7.740   9.608   7.551 -0.4175  0.0566 -1.1581
   79MOL0    Cl10574   7.871   9.523   7.632 -0.0049 -0.0771 -0.3584
   79MOL0     C10575   7.095   9.675   7.200 -0.9532 -0.0484 -0.0320
   79MOL0     C10576   6.980   9.600   7.224 -0.6579  0.0129  1.0162
   79MOL0     O10577   6.749   9.450   6.969  0.9081  0.4437  0.3050
   79MOL0     C10578   6.526   9.309   7.066  0.5613  0.6553  0.7637
   79MOL0     C10579   6.451   9.193   7.100 -0.7834  0.4456  0.1844
   79MOL0     N10580   6.125   9.080   6.939 -1.3223 -0.0916  0.1607
   79MOL0     N10581   6.097   9.197   6.895  0.0145  0.3075 -0.3770
   79MOL0     C10582   5.130   9.493   6.492 -0.0759 -0.0177  1.5498
   79MOL0     C10583   4.990   9.498   6.477 -0.0700 -0.7211 -0.4182
   79MOL0     C10584   4.582   9.589   6.296  0.4048 -0.2367  0.6045
   79MOL0     C10585   4.520   9.529   6.399  0.0848 -0.0096 -0.4864
   79MOL0     C10586   4.387   9.569   6.440 -0.3363  0.2636  0.2367
   79MOL0     C10587   4.315   9.658   6.363  0.1900 -0.8023 -0.2085
   79MOL0     O10588   4.197   9.709   6.399  0.1294 -0.8917  0.3718
   79MOL0     C10589   4.131   9.659   6.523  0.3755 -1.3957 -0.1523
   79MOL0     C10590   3.999   9.745   6.527 -0.3826  0.1280  0.2895
   79MOL0     C10591   3.894   9.702   6.624  0.4559 -0.3408 -0.1143
   79MOL0     C10592   3.767   9.780   6.612  0.0453 -0.6173  0.1627
   79MOL0     C10593   3.704   9.767   6.741  0.4526  0.2906 -0.4049
   79MOL0     C10594   3.665   9.737   6.851  0.4954  0.1934  0.1313
   79MOL0     C10595   4.378   9.717   6.251 -0.5479  0.2834  0.3873
   79MOL0     C10596   4.507   9.687   6.222 -0.4682  0.4402 -0.8735
   79MOL0     C10597   4.575   9.778   6.123  0.0617  0.3034 -1.4628
   79MOL0     H10598   4.973   9.624   6.165  2.1731  3.7002  0.4160
   79MOL0     H10599   5.213   9.611   6.183 -1.8237  0.8691  0.9475
   79MOL0     H10600   5.384   9.334   6.304 -0.1218  0.3319  0.9617
   79MOL0     H10601   5.410   9.476   6.198  0.8381 -3.4717 -2.4314
   79MOL0     H10602   5.612   9.543   6.340  0.1268 -0.1599  0.3268
   79MOL0     H10603   5.632   9.397   6.244 -1.0890 -2.8378  1.4294
   79MOL0     H10604   5.593   9.264   6.451 -1.2640 -1.2778 -0.9836
   79MOL0     H10605   5.567   9.406   6.547 -0.9501 -5.2374  2.4877
   79MOL0     H10606   5.837   9.356   6.400  0.7734  1.4796 -0.4764
   79MOL0     H10607   5.783   9.502   6.476  0.1265 -0.7177 -0.2348
   79MOL0     H10608   5.857   9.394   6.685  0.2608  1.0040 -0.2980
   79MOL0     H10609   5.733   9.275   6.654  0.7493 -1.5272 -1.6922
   79MOL0     H10610   5.919   9.136   6.656 -1.8056  1.3946  1.4415
   79MOL0     H10611   5.893   9.161   6.489  0.6937 -0.8173 -0.9801
   79MOL0     H10612   6.048   9.353   6.469  0.7822 -1.1051 -0.4567
   79MOL0     H10613   6.112   9.190   6.491 -0.2450  0.3009 -0.2760
   79MOL0     H10614   6.233   9.344   6.634  0.5515 -3.9731 -1.6368
   79MOL0     H10615   6.076   9.398   6.702 -1.1074 -0.3910  1.0945
   79MOL0     H10616   6.276   9.067   6.648  1.4316  2.7460 -0.4043
   79MOL0     H10617   6.161   8.806   6.795 -0.9337  0.7290  2.0048
   79MOL0     H10618   6.342   8.847   6.799  0.6419  1.8813  2.0330
   79MOL0     H10619   6.167   8.807   7.040  0.6412 -1.9383 -0.3897
   79MOL0     H10620   6.283   8.694   6.969  0.3308 -1.0876 -0.7266
   79MOL0     H10621   6.431   8.930   7.018  0.7782 -1.5773  1.4086
   79MOL0     H10622   6.417   8.789   7.121 -0.8061 -1.3723 -0.6238
   79MOL0     H10623   6.235   8.897   7.255  1.1404 -0.5643  0.8653
   79MOL0     H10624   6.235   9.038   7.157  3.3655  2.4688 -0.5879
   79MOL0     H10625   6.610   9.072   7.362  0.1018  1.2265  0.4481
   79MOL0     H10626   6.763   9.282   7.305 -1.8066  0.6881  1.0508
   79MOL0     H10627   6.769   9.739   7.003 -1.9570  1.8824  3.1187
   79MOL0     H10628   6.975   9.853   6.934 -0.7693  0.4284  2.0147
   79MOL0     H10629   7.343   9.973   7.014  0.7749  1.6288  1.1889
   79MOL0     H10630   7.183  10.009   7.055 -2.6927 -2.7800  0.6018
   79MOL0     H10631   7.280  10.082   7.240 -2.7835 -0.4477 -2.9166
   79MOL0     H10632   7.252   9.923   7.309 -1.0485  0.0895 -1.0910
   79MOL0     H10633   7.502  10.016   7.167  0.3467 -0.9948 -0.1847
   79MOL0     H10634   7.488  10.010   7.347 -0.5643  1.4776  0.9439
   79MOL0     H10635   7.510   9.777   7.140 -0.3859  1.6469 -1.0775
   79MOL0     H10636   7.424   9.760   7.292 -1.0874  0.3857 -1.3912
   79MOL0     H10637   7.655   9.833   7.409  1.2499 -1.3954  0.4104
   79MOL0     H10638   7.721   9.796   7.251  0.2424 -1.5753  1.1533
   79MOL0     H10639   7.543   9.615   7.424  0.4321 -0.4134  0.6540
   79MOL0     H10640   7.612   9.565   7.268  1.6844 -3.0956  2.8406
   79MOL0     H10641   7.836   9.635   7.367  1.0537 -3.2133 -2.1346
   79MOL0     H10642   7.768   9.474   7.397 -1.9773 -0.2824  0.1631
   79MOL0     H10643   7.753   9.716   7.569  2.0061  0.5162 -4.6986
   79MOL0     H10644   7.646   9.576   7.595 -0.5861  0.2976 -1.3348
   79MOL0     H10645   7.178   9.676   7.271 -1.2124 -1.2856  0.3132
   79MOL0     H10646   6.986   9.542   7.316 -0.9494 -1.4026  0.1595
   79MOL0     H10647   6.496   9.366   6.979  0.8984 -0.3243 -0.0218
   79MOL0     H10648   6.360   9.175   7.042 -1.4547 -0.5689  1.5082
   79MOL0     H10649   5.176   9.466   6.587 -1.6171 -1.5007  1.9315
   79MOL0     H10650   4.930   9.477   6.565 -1.2038  1.6457 -0.5440
   79MOL0     H10651   4.574   9.452   6.453 -1.1320 -0.6817 -0.1765
   79MOL0     H10652   4.343   9.513   6.521 -1.3644 -0.7160 -0.9593
   79MOL0     H10653   4.184   9.687   6.614 -2.2251 -0.5309  1.1903
   79MOL0     H10654   4.119   9.551   6.526  0.5841 -1.4086  0.2901
   79MOL0     H10655   3.959   9.722   6.427  1.3316  0.1533 -0.4308
   79MOL0     H10656   4.027   9.850   6.537 -1.3969  0.8133 -2.9089
   79MOL0     H10657   3.941   9.699   6.723  1.2926 -4.1877 -0.4922
   79MOL0     H10658   3.867   9.598   6.605  1.3389 -0.7021  0.5203
   79MOL0     H10659   3.791   9.882   6.579  1.7230 -0.1816  2.5260
   79MOL0     H10660   3.701   9.745   6.531 -3.3459  2.4130  1.3113
   79MOL0     H10661   3.621   9.711   6.945  0.8322  1.7905  0.7487
   79MOL0     H10662   4.321   9.787   6.190 -0.4851 -0.5846 -0.6980
   79MOL0     H10663   4.578   9.717   6.033 -2.5364 -0.9186 -0.8197
   79MOL0     H10664   4.520   9.872   6.111  0.8045  0.4152 -5.0339
   79MOL0     H10665   4.673   9.816   6.154 -0.4170  1.0286 -0.7805
   80MOL0     O10666   8.751   2.245   7.418  0.1376 -0.1729 -0.2367
   80MOL0     C10667   8.811   2.349   7.377 -0.0413 -0.1843 -0.7580
   80MOL0     O10668   8.937   2.354   7.333 -1.2097  0.0291  0.0841
   80MOL0     C10669   9.024   2.249   7.360  0.1136  1.1467  0.2177
   80MOL0     C10670   9.030   2.180   7.474 -0.0895 -0.8610 -0.0003
   80MOL0     C10671   9.120   2.075   7.490  0.4004  0.4132  0.1952
   80MOL0     C10672   9.210   2.049   7.395 -0.9682  0.1573 -0.1661
   80MOL0     O10673   9.304   1.956   7.431 -0.4653  0.3574 -0.1506
   80MOL0     C10674   9.426   1.962   7.364 -0.5458 -0.3015 -0.2932
   80MOL0     C10675   9.533   1.863   7.425  0.3727  0.0243  0.3517
   80MOL0     C10676   9.570   1.894   7.573  0.5899  0.1682  0.4644
   80MOL0     C10677   9.674   1.788   7.611 -0.3958 -0.7267 -0.1236
   80MOL0     C10678   9.811   1.800   7.542  0.1481  0.0364  0.1736
   80MOL0     C10679   9.897   1.667   7.555  0.1443 -0.9021  0.2844
   80MOL0     C10680  10.039   1.673   7.492 -0.7083 -0.1000 -0.4260
   80MOL0     C10681  10.104   1.531   7.501  0.0057  0.2642  0.0435
   80MOL0     N10682  10.115   1.479   7.637  0.2834  0.0599  0.0470
   80MOL0     C10683  10.212   1.508   7.723  0.5092 -0.2322 -0.3845
   80MOL0     C10684  10.189   1.433   7.834 -0.4795 -0.0526 -0.1865
   80MOL0     C10685  10.279   1.393   7.944 -0.3910  0.4053  0.2179
   80MOL0     C10686  10.416   1.334   7.897  0.3823 -0.3382  0.0696
   80MOL0     C10687  10.401   1.247   7.772  0.2457  0.2630  0.1112
   80MOL0     C10688  10.547   1.206   7.732  1.0821 -0.2453  0.7930
   80MOL0     O10689  10.633   1.155   7.838 -0.2335  1.4447  0.1858
   80MOL0     C10690  10.619   1.018   7.872 -0.3374 -0.2465 -0.0280
   80MOL0     C10691  10.713   0.968   7.968  1.3407 -0.5503 -0.3629
   80MOL0     C10692  10.722   0.829   8.008 -0.8312  0.6766  0.1608
   80MOL0     C10693  10.618   0.739   7.958  0.1115 -0.5580  0.7862
   80MOL0     C10694  10.609   0.601   8.005  0.0460 -0.5750  0.2768
   80MOL0     O10695  10.573   0.503   7.910  0.1152 -0.4630  0.3416
   80MOL0     C10696  10.569   0.370   7.941  0.3179 -0.8541 -0.4634
   80MOL0     C10697  10.687   0.295   7.945 -0.7984 -1.4262 -0.2458
   80MOL0     C10698  10.691   0.165   7.967 -0.6436  0.3460 -0.2997
   80MOL0     C10699  10.569   0.092   7.966 -0.5887  0.5016 -0.5417
   80MOL0     O10700  10.557  -0.047   7.957  0.9776 -0.1734 -1.0883
   80MOL0     C10701  10.688  -0.111   7.970  0.2428  0.3326 -0.0520
   80MOL0     C10702  10.682  -0.261   7.933 -0.0841  0.7758 -1.4979
   80MOL0     C10703  10.577  -0.337   8.016 -0.9689 -0.8025  0.0017
   80MOL0     C10704  10.601  -0.490   8.019 -0.7159  0.5595  0.5072
   80MOL0     C10705  10.484  -0.575   8.081 -0.4040 -0.5206  0.6453
   80MOL0     C10706  10.482  -0.589   8.235 -0.8300  0.4706  0.0714
   80MOL0     C10707  10.376  -0.487   8.288 -0.1943  0.2127  0.6172
   80MOL0     C10708  10.356  -0.525   8.431 -0.2360  0.3660 -0.4404
   80MOL0    Cl10709  10.187  -0.481   8.480 -0.0509  0.3940 -0.2631
   80MOL0     C10710  10.446   0.160   7.970  0.4775  1.0131 -0.1274
   80MOL0     C10711  10.451   0.299   7.960  0.0592 -0.8509 -0.0802
   80MOL0     O10712  10.665   0.572   8.115  0.5047 -0.8451 -0.5166
   80MOL0     C10713  10.527   0.792   7.864  0.4344 -0.0653  0.0299
   80MOL0     C10714  10.522   0.926   7.824 -0.3075 -0.3868 -0.4931
   80MOL0     N10715  10.073   1.357   7.812 -0.1882 -0.1717  0.5343
   80MOL0     N10716  10.028   1.394   7.696  0.7507 -0.1625 -0.3635
   80MOL0     C10717   9.215   2.127   7.280  1.2263 -0.0720 -0.4072
   80MOL0     C10718   9.117   2.222   7.268 -0.0652  0.0947 -0.2314
   80MOL0     C10719   8.741   2.476   7.364  0.0875 -0.4437 -0.3026
   80MOL0     C10720   8.695   2.525   7.238 -0.3966 -0.5734  0.7625
   80MOL0     C10721   8.626   2.632   7.224 -0.6296 -0.1509 -0.9272
   80MOL0     C10722   8.612   2.729   7.324 -0.2432 -0.3962  0.1871
   80MOL0     O10723   8.568   2.857   7.298 -0.2290 -0.4140  0.4091
   80MOL0     C10724   8.442   2.889   7.343 -0.5601  0.0410  0.1232
   80MOL0     C10725   8.437   3.009   7.442  0.4649  0.1353  0.6550
   80MOL0     C10726   8.487   3.149   7.385  0.6165  0.3062  0.0410
   80MOL0     C10727   8.492   3.268   7.472  0.4235  0.1401  0.0305
   80MOL0     C10728   8.633   3.320   7.468 -1.4864  0.2335  0.3207
   80MOL0     C10729   8.738   3.383   7.477  0.8162  1.3431 -1.1503
   80MOL0     C10730   8.661   2.694   7.450  0.3010 -1.1592  0.2878
   80MOL0     C10731   8.706   2.559   7.475  0.4591 -0.1713  0.3819
   80MOL0     C10732   8.737   2.514   7.617  0.3716 -0.8707 -0.2094
   80MOL0     H10733   8.960   2.182   7.557  0.2425 -0.0711  0.2668
   80MOL0     H10734   9.122   2.010   7.577  0.6039 -2.4819 -1.8328
   80MOL0     H10735   9.417   1.926   7.261 -3.7886 -0.0090 -0.2133
   80MOL0     H10736   9.459   2.066   7.362 -2.8022  0.4685 -0.1096
   80MOL0     H10737   9.619   1.850   7.358 -2.0347 -2.3597 -2.5623
   80MOL0     H10738   9.504   1.758   7.426 -2.4535  0.6611 -1.9263
   80MOL0     H10739   9.485   1.908   7.640  0.8705  1.8523  0.5103
   80MOL0     H10740   9.609   1.996   7.572  3.8723 -0.8265  3.7884
   80MOL0     H10741   9.694   1.810   7.716 -0.6931 -0.2105 -0.1718
   80MOL0     H10742   9.633   1.687   7.593  0.4349 -0.8869 -1.1943
   80MOL0     H10743   9.798   1.805   7.433  1.0720 -3.1441 -0.1973
   80MOL0     H10744   9.869   1.883   7.582  0.0990  0.6159 -0.9123
   80MOL0     H10745   9.905   1.643   7.661 -2.3297 -0.6151  0.6073
   80MOL0     H10746   9.849   1.582   7.503  0.3754  0.2037 -1.8394
   80MOL0     H10747  10.108   1.748   7.530  1.9516 -1.7293 -1.6986
   80MOL0     H10748  10.028   1.700   7.387 -1.2172  0.7362 -0.1665
   80MOL0     H10749  10.050   1.449   7.452  2.2976  0.4825 -3.0584
   80MOL0     H10750  10.203   1.531   7.455 -0.1842  0.3608 -0.3698
   80MOL0     H10751  10.300   1.571   7.712  0.9961 -0.8440 -0.0532
   80MOL0     H10752  10.302   1.478   8.009  0.4758 -1.7262  2.8508
   80MOL0     H10753  10.233   1.321   8.011  1.1580 -1.1176 -0.2795
   80MOL0     H10754  10.484   1.415   7.871 -0.2042  0.3211  0.5605
   80MOL0     H10755  10.450   1.279   7.985 -0.9599 -0.6578  0.4061
   80MOL0     H10756  10.356   1.296   7.685  0.1728 -0.0768 -0.0462
   80MOL0     H10757  10.337   1.161   7.797 -2.8812  2.8529  1.6951
   80MOL0     H10758  10.606   1.282   7.680  0.6774 -1.7953 -2.1324
   80MOL0     H10759  10.542   1.132   7.652 -3.5226 -1.9164  2.3299
   80MOL0     H10760  10.797   1.023   8.009  0.1522  1.2292 -0.2149
   80MOL0     H10761  10.794   0.799   8.083 -2.3655 -1.5053  0.8514
   80MOL0     H10762  10.775   0.359   7.942 -1.4750 -0.3251  1.4476
   80MOL0     H10763  10.796   0.137   7.978 -0.7458 -0.1406 -0.5425
   80MOL0     H10764  10.761  -0.072   7.899  0.6061  0.9699  0.6597
   80MOL0     H10765  10.735  -0.088   8.066 -0.3419  0.9856  0.0817
   80MOL0     H10766  10.657  -0.265   7.826  4.2398 -1.2588 -2.6220
   80MOL0     H10767  10.773  -0.317   7.955 -0.4754  0.6000 -0.2459
   80MOL0     H10768  10.597  -0.290   8.113  1.9929 -0.0476 -0.8532
   80MOL0     H10769  10.474  -0.322   7.984 -0.4167 -2.2950 -2.7955
   80MOL0     H10770  10.704  -0.514   8.045  0.6211  2.5551 -2.4211
   80MOL0     H10771  10.596  -0.521   7.914  2.7145  3.1754 -0.6115
   80MOL0     H10772  10.493  -0.673   8.033 -1.3855 -0.0868 -0.4854
   80MOL0     H10773  10.392  -0.526   8.045  0.9989 -0.2186 -2.9620
   80MOL0     H10774  10.441  -0.688   8.257 -0.9438  0.3355 -0.7214
   80MOL0     H10775  10.577  -0.560   8.280 -1.5269  2.5223  0.3023
   80MOL0     H10776  10.284  -0.508   8.233  0.5317 -1.2994 -0.0966
   80MOL0     H10777  10.407  -0.385   8.262  1.1592 -0.8961 -2.7898
   80MOL0     H10778  10.354  -0.634   8.437 -2.2091  0.3987  0.2931
   80MOL0     H10779  10.435  -0.482   8.493  0.1462  0.7876 -1.2086
   80MOL0     H10780  10.348   0.115   7.980  0.9060 -0.6696 -2.6535
   80MOL0     H10781  10.360   0.358   7.962  0.7893  0.3107 -0.5814
   80MOL0     H10782  10.449   0.727   7.824  0.1440  1.0808 -1.3071
   80MOL0     H10783  10.449   0.955   7.749 -0.0544 -2.4877 -1.6187
   80MOL0     H10784   9.268   2.087   7.194  0.4782  0.9197 -1.3598
   80MOL0     H10785   9.099   2.285   7.181 -1.6180  0.1585  0.1055
   80MOL0     H10786   8.728   2.457   7.161  1.4028  1.4888 -0.3804
   80MOL0     H10787   8.599   2.666   7.124  0.8549  3.7384 -0.2060
   80MOL0     H10788   8.389   2.802   7.382  1.3217 -1.6486 -0.9088
   80MOL0     H10789   8.378   2.901   7.255 -0.0623  1.3151 -0.0896
   80MOL0     H10790   8.493   2.994   7.535  1.2432  1.6120  0.4555
   80MOL0     H10791   8.333   3.028   7.470 -0.7856 -3.5014 -0.8330
   80MOL0     H10792   8.428   3.166   7.295  1.9977  2.5901 -0.5385
   80MOL0     H10793   8.587   3.114   7.358  1.3888  2.4411 -0.0992
   80MOL0     H10794   8.429   3.338   7.417  0.8843 -0.4843 -1.3259
   80MOL0     H10795   8.444   3.247   7.568 -1.2874  2.0047 -0.3563
   80MOL0     H10796   8.822   3.447   7.492  1.1765  0.5238  0.6872
   80MOL0     H10797   8.652   2.765   7.531 -0.8234 -3.2178  2.0496
   80MOL0     H10798   8.690   2.585   7.686  0.6033 -0.9797  0.0608
   80MOL0     H10799   8.699   2.415   7.640  0.0343 -0.4070  1.3156
   80MOL0     H10800   8.846   2.512   7.630  0.3009 -1.3692  0.3190
   81MOL0     O10801   8.553   9.461   9.663 -0.8670 -0.0647  0.1548
   81MOL0     C10802   8.481   9.557   9.676  0.3705  0.8122 -0.7569
   81MOL0     O10803   8.505   9.676   9.628 -0.4434  0.0284  0.2944
   81MOL0     C10804   8.628   9.722   9.577  0.1346 -0.1095  0.2273
   81MOL0     C10805   8.704   9.658   9.483  0.4869  0.4816 -0.8902
   81MOL0     C10806   8.834   9.689   9.441 -0.2843 -0.4805  0.0507
   81MOL0     C10807   8.878   9.815   9.486  0.3903 -0.8254 -0.0060
   81MOL0     O10808   8.995   9.871   9.430  0.0516  0.4479 -0.2571
   81MOL0     C10809   9.107   9.780   9.400 -0.8117 -0.3835 -0.4759
   81MOL0     C10810   9.219   9.872   9.338  0.6182 -0.2094  0.3973
   81MOL0     C10811   9.342   9.796   9.287  0.1088 -0.4864  0.0979
   81MOL0     C10812   9.467   9.871   9.316 -0.5772  0.1188 -0.2055
   81MOL0     C10813   9.591   9.816   9.241 -0.0242 -0.5513 -0.5034
   81MOL0     C10814   9.642   9.675   9.278  0.6127 -0.5636  0.4147
   81MOL0     C10815   9.768   9.660   9.195  0.6642  0.0599 -0.7847
   81MOL0     C10816   9.888   9.723   9.268  0.3873  0.4720  0.2981
   81MOL0     N10817  10.012   9.675   9.207  0.0899  1.1047  0.0023
   81MOL0     C10818  10.079   9.553   9.230  0.3263  0.4906 -0.1319
   81MOL0     C10819  10.192   9.555   9.164 -0.4450 -0.5301 -0.1419
   81MOL0     C10820  10.321   9.466   9.148 -0.0534 -0.1272 -0.3021
   81MOL0     C10821  10.297   9.322   9.193  0.8263  0.6306 -0.9898
   81MOL0     C10822  10.421   9.229   9.174 -0.2873 -0.6351 -0.6724
   81MOL0     C10823  10.393   9.109   9.262  0.6725 -0.1625 -1.0456
   81MOL0     O10824  10.472   9.001   9.228  0.7877  0.0584  0.3971
   81MOL0     C10825  10.608   9.007   9.256  0.1528  0.4833 -0.2557
   81MOL0     C10826  10.698   8.973   9.150  1.4758 -0.3826  0.2353
   81MOL0     C10827  10.831   8.957   9.168  0.5477  0.3247 -0.3672
   81MOL0     C10828  10.885   8.994   9.295 -0.4012 -0.5766  0.1875
   81MOL0     C10829  11.030   8.980   9.315 -0.0739  0.3790  0.8002
   81MOL0     O10830  11.076   9.015   9.437  0.0299 -0.2446 -0.0932
   81MOL0     C10831  11.210   9.021   9.470  0.5190 -0.1260  0.6539
   81MOL0     C10832  11.312   8.962   9.389 -0.9621 -0.0513 -0.2454
   81MOL0     C10833  11.461   8.981   9.417  0.0775 -0.7647 -0.1268
   81MOL0     C10834  11.487   9.045   9.541  0.4804  0.2413  1.3009
   81MOL0     O10835  11.612   9.092   9.572 -0.4119  0.8357 -0.4040
   81MOL0     C10836  11.723   9.071   9.478  0.3799  0.0876 -0.9129
   81MOL0     C10837  11.845   9.118   9.549 -0.6153  0.7734 -0.4043
   81MOL0     C10838  11.834   9.272   9.574  0.0495  0.8881  0.3277
   81MOL0     C10839  11.961   9.317   9.641  0.4495  0.9046  0.3434
   81MOL0     C10840  11.981   9.462   9.617 -0.4413  0.1738 -0.4226
   81MOL0     C10841  12.114   9.510   9.684 -0.0919 -0.0032 -0.3463
   81MOL0     C10842  12.127   9.663   9.686 -0.4166 -0.2459 -0.5454
   81MOL0     C10843  12.271   9.695   9.709 -1.0701  0.2093  0.4516
   81MOL0    Cl10844  12.344   9.682   9.545 -0.8884 -0.2640 -0.2139
   81MOL0     C10845  11.382   9.089   9.627 -1.1956  0.5796  0.2617
   81MOL0     C10846  11.246   9.071   9.590 -0.3012 -0.8917  0.2997
   81MOL0     O10847  11.096   8.937   9.215 -0.0009  0.0641  0.0769
   81MOL0     C10848  10.805   9.058   9.388 -0.4351 -0.7979 -0.8373
   81MOL0     C10849  10.663   9.059   9.367 -0.8123  0.5111 -0.0908
   81MOL0     N10850  10.195   9.676   9.103 -0.6639 -0.7484  0.6311
   81MOL0     N10851  10.100   9.750   9.138 -0.3398  0.0040  0.9289
   81MOL0     C10852   8.783   9.896   9.563  0.9024 -0.3352  0.1804
   81MOL0     C10853   8.668   9.843   9.619  0.2760  0.4101 -0.0620
   81MOL0     C10854   8.343   9.533   9.739 -0.0034 -0.0393  0.7594
   81MOL0     C10855   8.290   9.623   9.831  0.0126 -0.0178 -0.3792
   81MOL0     C10856   8.170   9.598   9.905  1.2703  0.0528 -0.2865
   81MOL0     C10857   8.105   9.476   9.891 -0.4251  0.7745 -0.1927
   81MOL0     O10858   7.998   9.425   9.952 -0.5123  0.5712 -0.4701
   81MOL0     C10859   7.958   9.495  10.072  0.4892 -0.9670  0.4438
   81MOL0     C10860   7.911   9.388  10.165  0.4091 -0.0593 -0.0914
   81MOL0     C10861   7.886   9.440  10.308 -0.1560  1.3971 -0.8520
   81MOL0     C10862   7.804   9.335  10.386 -0.2603 -0.3741  0.0246
   81MOL0     C10863   7.811   9.364  10.522 -0.1885 -0.2740 -0.1822
   81MOL0     C10864   7.856   9.408  10.627  0.3723 -0.1550  0.3934
   81MOL0     C10865   8.152   9.400   9.791 -0.0998  0.2773 -0.2516
   81MOL0     C10866   8.271   9.419   9.718 -0.7372  0.2379 -0.0399
   81MOL0     C10867   8.304   9.333   9.597  0.2702 -0.2003  0.3191
   81MOL0     H10868   8.663   9.562   9.452  2.8238 -0.7589 -0.3454
   81MOL0     H10869   8.880   9.623   9.369 -3.0869  1.9937 -4.5490
   81MOL0     H10870   9.136   9.739   9.497 -2.5474  2.7579  1.5216
   81MOL0     H10871   9.082   9.693   9.338 -1.3632  1.1607 -2.5250
   81MOL0     H10872   9.246   9.949   9.411 -3.0798  1.1333  0.5780
   81MOL0     H10873   9.182   9.936   9.257  0.5729  2.7955  2.6296
   81MOL0     H10874   9.328   9.792   9.178 -3.3212 -0.3806  0.4395
   81MOL0     H10875   9.341   9.692   9.320 -0.2954 -1.3681 -2.4266
   81MOL0     H10876   9.458   9.979   9.301  3.0026  0.2976 -2.2429
   81MOL0     H10877   9.488   9.852   9.422  2.9543 -3.0573 -1.2687
   81MOL0     H10878   9.571   9.810   9.134 -2.0653  0.8701 -0.2541
   81MOL0     H10879   9.678   9.882   9.254  1.7220 -1.9477 -3.8626
   81MOL0     H10880   9.664   9.663   9.384 -3.7245 -2.3614  1.3654
   81MOL0     H10881   9.561   9.604   9.255  0.2095  0.3771 -1.3042
   81MOL0     H10882   9.758   9.713   9.100  2.2244 -0.4488 -1.2560
   81MOL0     H10883   9.785   9.552   9.188 -4.7941 -1.3379  2.0325
   81MOL0     H10884   9.900   9.831   9.278  1.3910  0.2125  2.4469
   81MOL0     H10885   9.894   9.689   9.372  1.2942 -0.5576 -0.0721
   81MOL0     H10886  10.042   9.461   9.274 -0.1752 -0.2671 -2.0108
   81MOL0     H10887  10.356   9.462   9.045  3.8729 -3.0931  0.8878
   81MOL0     H10888  10.403   9.509   9.208  0.7804  1.7202 -2.6046
   81MOL0     H10889  10.271   9.319   9.299  1.2779  2.7137 -0.7787
   81MOL0     H10890  10.215   9.278   9.135  0.4578 -0.2469  0.1572
   81MOL0     H10891  10.495   9.282   9.235 -1.2525 -0.1288  0.0812
   81MOL0     H10892  10.444   9.211   9.068  1.2998 -2.9281 -0.0123
   81MOL0     H10893  10.288   9.090   9.236 -0.5911  1.5734  2.1817
   81MOL0     H10894  10.402   9.127   9.369 -0.8903  1.4735 -1.1344
   81MOL0     H10895  10.650   8.949   9.056  0.0516  0.4939  0.7012
   81MOL0     H10896  10.889   8.932   9.079 -1.3778 -0.5074 -1.4429
   81MOL0     H10897  11.294   8.903   9.300 -0.0682  0.3417 -0.6974
   81MOL0     H10898  11.538   8.943   9.350 -0.2550  3.8170 -3.6550
   81MOL0     H10899  11.737   8.965   9.454  1.6224  0.1743 -0.5979
   81MOL0     H10900  11.711   9.115   9.378 -2.5819 -0.2993 -0.8330
   81MOL0     H10901  11.859   9.068   9.645  0.7748 -0.6962 -1.3327
   81MOL0     H10902  11.928   9.105   9.479  1.8334  3.3868  1.7937
   81MOL0     H10903  11.822   9.324   9.478  0.6910  0.9522  0.2785
   81MOL0     H10904  11.750   9.299   9.639 -0.7196  1.4710 -0.8739
   81MOL0     H10905  12.049   9.258   9.613 -0.2696 -0.1334  0.1999
   81MOL0     H10906  11.969   9.303   9.750 -1.2086  0.0266  0.3937
   81MOL0     H10907  11.902   9.520   9.665 -0.1620  0.5922 -0.4639
   81MOL0     H10908  11.993   9.496   9.513 -1.6723  2.8944  0.2185
   81MOL0     H10909  12.114   9.473   9.787 -1.9886  0.4330 -0.1550
   81MOL0     H10910  12.204   9.478   9.630  0.4522  1.4398 -0.3275
   81MOL0     H10911  12.081   9.694   9.780  1.1577  0.9631 -0.1418
   81MOL0     H10912  12.081   9.707   9.596 -1.3808 -1.7783 -0.8345
   81MOL0     H10913  12.275   9.792   9.758  3.8596 -0.5173  2.0370
   81MOL0     H10914  12.318   9.620   9.774 -1.5838 -0.0714  0.5047
   81MOL0     H10915  11.413   9.116   9.728 -0.9971  2.6198 -0.3152
   81MOL0     H10916  11.166   9.095   9.659  1.1637 -1.6517  2.3625
   81MOL0     H10917  10.836   9.098   9.484 -2.9971  3.2450 -1.4344
   81MOL0     H10918  10.599   9.090   9.449  0.7794  2.0616  0.6363
   81MOL0     H10919   8.819   9.995   9.591 -2.0847  0.4378  1.6523
   81MOL0     H10920   8.607   9.906   9.682  2.7175  0.1531  2.8007
   81MOL0     H10921   8.349   9.712   9.850  1.9077 -1.3311  0.1324
   81MOL0     H10922   8.149   9.688   9.962 -1.7748 -0.5827 -0.2408
   81MOL0     H10923   7.880   9.570  10.058 -0.7554 -2.2384  0.3328
   81MOL0     H10924   8.048   9.541  10.114 -0.7786  1.0327  1.0750
   81MOL0     H10925   7.990   9.313  10.166 -0.3338 -0.8577  1.5556
   81MOL0     H10926   7.821   9.341  10.124  0.0491 -1.1327  1.8236
   81MOL0     H10927   7.839   9.539  10.308  1.1841  2.0915 -2.3492
   81MOL0     H10928   7.985   9.456  10.353  2.6422  0.8308 -6.0755
   81MOL0     H10929   7.701   9.332  10.349 -0.0943  0.1473 -0.4988
   81MOL0     H10930   7.851   9.236  10.384  1.4707  0.4178 -1.1433
   81MOL0     H10931   7.891   9.440  10.722  0.4605  3.1350 -0.6245
   81MOL0     H10932   8.102   9.303   9.781  0.5706  0.1694 -3.7361
   81MOL0     H10933   8.391   9.268   9.610  1.1152  0.6273 -0.9327
   81MOL0     H10934   8.228   9.264   9.558  2.5144 -1.8503 -1.4587
   81MOL0     H10935   8.341   9.399   9.517  0.7668  0.0924  0.7860
   82MOL0     O10936  10.751   4.166   9.297  0.3500  0.1311 -0.6720
   82MOL0     C10937  10.765   4.200   9.418 -0.1000  0.7830  0.3984
   82MOL0     O10938  10.665   4.210   9.505  0.2276  1.1754  0.3339
   82MOL0     C10939  10.554   4.148   9.481 -0.0236  1.2831 -0.5400
   82MOL0     C10940  10.517   4.036   9.549 -0.2728  0.6138 -0.3078
   82MOL0     C10941  10.404   3.964   9.521  1.1493 -0.0303  1.5485
   82MOL0     C10942  10.309   4.015   9.432 -0.5310  0.6336  0.1566
   82MOL0     O10943  10.186   3.958   9.401  0.2657 -0.3148  0.5044
   82MOL0     C10944  10.138   3.847   9.481  0.1549  0.0559  0.4456
   82MOL0     C10945  10.012   3.793   9.418  0.7885  0.0448 -0.3026
   82MOL0     C10946   9.964   3.674   9.508 -0.4038 -0.1090 -0.4807
   82MOL0     C10947   9.881   3.730   9.627 -0.7918 -0.1070  0.3980
   82MOL0     C10948   9.820   3.616   9.700 -0.7080  0.2067  0.5986
   82MOL0     C10949   9.898   3.526   9.798 -0.1712  0.0295  0.3160
   82MOL0     C10950   9.819   3.401   9.847 -0.2065 -0.0667 -0.3765
   82MOL0     C10951   9.903   3.332   9.953 -0.9642  0.3094 -0.7875
   82MOL0     N10952   9.852   3.226  10.038  0.0257 -0.1178 -0.2452
   82MOL0     C10953   9.735   3.235  10.101  1.0787 -0.2622  0.0459
   82MOL0     C10954   9.722   3.114  10.161  0.3215  0.7741  0.1888
   82MOL0     C10955   9.614   3.060  10.259 -0.0166  0.6903 -0.4879
   82MOL0     C10956   9.675   2.990  10.378 -0.6630  0.1909 -0.0997
   82MOL0     C10957   9.568   2.890  10.441  0.0583  0.2575 -0.1994
   82MOL0     C10958   9.480   2.961  10.547  0.6693 -0.0638 -0.0239
   82MOL0     O10959   9.450   2.854  10.638 -0.3152  0.0582 -1.2280
   82MOL0     C10960   9.404   2.890  10.764  0.1892 -0.0862  0.1434
   82MOL0     C10961   9.332   3.001  10.798  0.3417  0.3069 -0.5914
   82MOL0     C10962   9.278   3.015  10.930 -0.7658  0.2632  0.5335
   82MOL0     C10963   9.314   2.925  11.027 -0.8436 -0.2794  0.3414
   82MOL0     C10964   9.270   2.934  11.173  0.5460 -0.1228  0.3590
   82MOL0     O10965   9.219   3.051  11.213  0.1632  0.5640  0.4148
   82MOL0     C10966   9.145   3.069  11.329 -0.1940  0.7017 -0.4347
   82MOL0     C10967   9.006   3.079  11.334  0.2592  0.3008 -1.1609
   82MOL0     C10968   8.928   3.102  11.460  0.4752  0.5510  0.3278
   82MOL0     C10969   9.000   3.116  11.573 -0.3384  0.4857  0.3397
   82MOL0     O10970   8.930   3.133  11.680  0.2148  0.4958 -0.8797
   82MOL0     C10971   8.979   3.239  11.773 -0.2286  0.7735 -0.0328
   82MOL0     C10972   9.023   3.178  11.901 -0.7216  0.8055  0.2862
   82MOL0     C10973   9.152   3.242  11.966  0.0882  0.2237 -0.4824
   82MOL0     C10974   9.152   3.393  11.992 -0.2274 -0.5998  0.1636
   82MOL0     C10975   9.284   3.429  12.042 -1.4317  1.0623  0.3574
   82MOL0     C10976   9.306   3.573  12.082  0.6806 -0.6144 -0.2149
   82MOL0     C10977   9.413   3.574  12.200 -0.2313  0.2917 -0.1326
   82MOL0     C10978   9.322   3.629  12.319 -0.4183 -0.6765  0.1296
   82MOL0    Cl10979   9.399   3.609  12.483 -0.2178  0.2069  0.0315
   82MOL0     C10980   9.144   3.099  11.570 -0.3675 -0.2227 -0.2233
   82MOL0     C10981   9.211   3.078  11.446 -0.0060  0.9080  0.2382
   82MOL0     O10982   9.275   2.833  11.237  0.5922 -0.7837  0.4047
   82MOL0     C10983   9.393   2.813  10.994 -0.3496 -0.0809  0.6881
   82MOL0     C10984   9.441   2.801  10.866  0.4517 -0.0440  0.3730
   82MOL0     N10985   9.836   3.033  10.133  0.7664  0.5256  0.4695
   82MOL0     N10986   9.910   3.105  10.060  0.0259 -0.6546 -0.4541
   82MOL0     C10987  10.341   4.127   9.362  0.6932  0.2730 -0.8828
   82MOL0     C10988  10.459   4.192   9.390  0.2244 -0.2273 -0.1113
   82MOL0     C10989  10.887   4.268   9.462 -0.3802  0.4324 -0.0860
   82MOL0     C10990  10.972   4.328   9.367  0.2633 -0.5460 -0.0761
   82MOL0     C10991  11.086   4.398   9.408 -0.2108  0.0028  0.5195
   82MOL0     C10992  11.123   4.411   9.540  0.7365 -0.5255 -0.0604
   82MOL0     O10993  11.236   4.487   9.570  0.1902 -1.0621 -0.4078
   82MOL0     C10994  11.253   4.524   9.709 -0.9399  0.8114 -0.3638
   82MOL0     C10995  11.328   4.412   9.772 -0.4946  0.5167 -1.0415
   82MOL0     C10996  11.477   4.430   9.746  0.0099 -0.4948 -0.2128
   82MOL0     C10997  11.546   4.512   9.855  0.0246 -1.6710  0.1133
   82MOL0     C10998  11.553   4.436   9.976  0.1348 -0.5724 -0.4106
   82MOL0     C10999  11.550   4.352  10.071 -0.3501 -0.5296  1.1717
   82MOL0     C11000  11.040   4.344   9.636 -0.9420  0.8822 -0.1669
   82MOL0     C11001  10.924   4.272   9.599 -0.3766 -1.5022 -0.0496
   82MOL0     C11002  10.847   4.201   9.710  0.1524  1.0451 -1.0148
   82MOL0     H11003  10.594   3.987   9.609 -1.6551 -0.9514  0.2629
   82MOL0     H11004  10.387   3.870   9.571  1.1512 -2.1236 -2.0704
   82MOL0     H11005  10.220   3.775   9.481 -2.0778 -2.6928  1.7630
   82MOL0     H11006  10.122   3.886   9.582  1.0442  1.2679  0.1395
   82MOL0     H11007  10.016   3.766   9.312 -2.0953  0.4440 -0.6006
   82MOL0     H11008   9.941   3.876   9.427 -0.0261 -0.3678 -2.3121
   82MOL0     H11009  10.046   3.609   9.540 -1.7337 -1.9124 -0.6348
   82MOL0     H11010   9.898   3.616   9.444 -1.0048  2.4681 -2.3641
   82MOL0     H11011   9.946   3.789   9.692 -0.9224  0.0534  0.3819
   82MOL0     H11012   9.793   3.791   9.602 -0.2146  0.5661  0.0026
   82MOL0     H11013   9.741   3.665   9.758  0.1764  1.3584  0.8630
   82MOL0     H11014   9.762   3.553   9.632 -1.2006  2.8735 -1.6386
   82MOL0     H11015   9.981   3.482   9.741 -1.3165  2.2127 -3.3610
   82MOL0     H11016   9.926   3.589   9.883 -1.1508 -0.5082  1.0506
   82MOL0     H11017   9.794   3.334   9.763  1.6800 -1.7550  0.3296
   82MOL0     H11018   9.720   3.430   9.885 -1.0976  3.3674 -4.5427
   82MOL0     H11019  10.001   3.300   9.915 -1.2975 -0.3207 -1.1307
   82MOL0     H11020   9.925   3.403  10.033  0.2103 -0.5376 -0.3265
   82MOL0     H11021   9.672   3.320  10.123  1.1123  0.2053 -1.5035
   82MOL0     H11022   9.549   3.138  10.300 -1.5658 -0.4934 -0.6330
   82MOL0     H11023   9.552   2.995  10.197 -1.2648  2.0918 -0.7579
   82MOL0     H11024   9.767   2.940  10.348 -1.0236  0.1601 -1.2233
   82MOL0     H11025   9.699   3.066  10.453  2.3910  0.6595 -1.4271
   82MOL0     H11026   9.606   2.800  10.491 -4.1956 -1.0622  1.0592
   82MOL0     H11027   9.501   2.846  10.366 -1.5789  1.6490  0.3893
   82MOL0     H11028   9.392   3.006  10.500  0.0420 -0.7151  0.5076
   82MOL0     H11029   9.540   3.039  10.595  2.3982 -1.7345  0.6759
   82MOL0     H11030   9.299   3.068  10.718 -1.4491  0.4361  0.1960
   82MOL0     H11031   9.216   3.099  10.958 -2.0248  0.1616 -1.7483
   82MOL0     H11032   8.944   3.077  11.244  0.4449  2.1016 -1.3655
   82MOL0     H11033   8.824   3.132  11.452  0.3952  0.3828  0.7166
   82MOL0     H11034   9.053   3.307  11.731  1.7002 -0.0211  1.9008
   82MOL0     H11035   8.894   3.303  11.801 -0.7642 -0.8367  2.3699
   82MOL0     H11036   8.948   3.181  11.981  1.2332 -0.0053  2.2373
   82MOL0     H11037   9.034   3.071  11.882 -3.0770  0.3969  0.8415
   82MOL0     H11038   9.162   3.198  12.066  0.1391  0.3072 -0.4506
   82MOL0     H11039   9.241   3.217  11.908 -0.6331 -1.5449 -0.8875
   82MOL0     H11040   9.081   3.429  12.066  2.3193  0.7108  2.1517
   82MOL0     H11041   9.131   3.453  11.904  0.5486  2.3787  1.8540
   82MOL0     H11042   9.353   3.392  11.965 -0.1951 -0.9732  2.2940
   82MOL0     H11043   9.309   3.369  12.130 -0.4800  2.1098  0.8271
   82MOL0     H11044   9.344   3.619  11.991  0.0053 -1.8265 -1.1426
   82MOL0     H11045   9.205   3.609  12.102  1.0390  0.6588 -0.6285
   82MOL0     H11046   9.498   3.641  12.183 -1.0281  1.6816  1.1026
   82MOL0     H11047   9.451   3.473  12.216  1.0156  0.7647 -0.0095
   82MOL0     H11048   9.302   3.736  12.305  0.5325 -0.0430  2.9854
   82MOL0     H11049   9.229   3.572  12.319 -1.0202  0.2739  0.5885
   82MOL0     H11050   9.192   3.089  11.667  1.5017  1.0640 -0.9568
   82MOL0     H11051   9.316   3.052  11.440 -0.4463 -1.4766  1.4990
   82MOL0     H11052   9.415   2.730  11.061 -1.2099 -0.6959  0.2207
   82MOL0     H11053   9.500   2.714  10.836  0.1258 -0.0743 -0.1851
   82MOL0     H11054  10.269   4.157   9.287 -1.5989 -1.9183  0.2680
   82MOL0     H11055  10.495   4.284   9.344 -0.8543  0.3200  0.1130
   82MOL0     H11056  10.932   4.324   9.266 -0.4418 -1.6260  0.2268
   82MOL0     H11057  11.146   4.450   9.335  0.9618 -3.0007 -0.8391
   82MOL0     H11058  11.159   4.540   9.762 -1.2732 -0.3937 -0.5770
   82MOL0     H11059  11.296   4.624   9.718  0.4589  0.1454  0.7414
   82MOL0     H11060  11.283   4.321   9.733 -0.3050  0.0213 -0.1275
   82MOL0     H11061  11.311   4.419   9.880  2.8326  2.3394 -0.4829
   82MOL0     H11062  11.497   4.477   9.649  0.8433  0.7157  0.5154
   82MOL0     H11063  11.531   4.336   9.732  3.2942  1.5454 -2.6874
   82MOL0     H11064  11.649   4.537   9.826 -0.6257  0.1008 -0.7498
   82MOL0     H11065  11.493   4.605   9.877  1.4463 -0.3323 -1.7614
   82MOL0     H11066  11.566   4.292  10.158 -0.6676  0.4885  1.9487
   82MOL0     H11067  11.070   4.336   9.740 -2.4022  0.4379  0.2351
   82MOL0     H11068  10.915   4.159   9.784 -0.8580  0.4336 -0.4059
   82MOL0     H11069  10.784   4.269   9.768  1.4389  1.5801 -0.2236
   82MOL0     H11070  10.784   4.114   9.687 -1.5015  2.0902 -0.6360
   83MOL0     O11071   4.915  10.334   3.540  0.5503  0.2148  0.2761
   83MOL0     C11072   4.813  10.307   3.476  0.3659 -0.7667 -0.3919
   83MOL0     O11073   4.766  10.367   3.361 -0.1707 -0.5647  0.5362
   83MOL0     C11074   4.852  10.448   3.295 -0.4870  0.4772 -0.4252
   83MOL0     C11075   4.893  10.404   3.171  0.4351  0.1402  0.8580
   83MOL0     C11076   5.007  10.471   3.105  0.3905  0.1525 -0.4435
   83MOL0     C11077   5.054  10.598   3.158 -0.6269  0.3793 -0.5388
   83MOL0     O11078   5.154  10.659   3.080  0.1808  0.4931 -0.3190
   83MOL0     C11079   5.215  10.788   3.111 -0.5865 -0.8942 -0.2918
   83MOL0     C11080   5.344  10.767   3.200  0.2515  0.3570 -0.3360
   83MOL0     C11081   5.437  10.649   3.166  0.8419 -0.5143  0.1943
   83MOL0     C11082   5.499  10.658   3.023 -0.4963  0.5572 -0.4416
   83MOL0     C11083   5.601  10.543   2.995  0.1558 -1.2147 -0.4469
   83MOL0     C11084   5.746  10.575   3.037  0.0258 -0.2591 -0.0589
   83MOL0     C11085   5.832  10.455   3.006 -1.2853  0.5170  0.3795
   83MOL0     C11086   5.976  10.491   3.037 -0.1306 -0.2849 -0.1241
   83MOL0     N11087   6.030  10.440   3.158  0.2622 -0.3280  0.2386
   83MOL0     C11088   6.086  10.311   3.175  0.0703  0.0463 -0.5559
   83MOL0     C11089   6.125  10.333   3.303 -0.0716  0.3050  0.1134
   83MOL0     C11090   6.172  10.217   3.395 -0.1902 -0.7680 -0.0431
   83MOL0     C11091   6.245  10.262   3.518 -0.5946 -0.1647 -0.1280
   83MOL0     C11092   6.320  10.147   3.584  0.6926 -0.2729 -0.4226
   83MOL0     C11093   6.385  10.189   3.713  1.1439 -0.2214 -0.1006
   83MOL0     O11094   6.485  10.289   3.701 -0.2267 -0.7144 -0.5531
   83MOL0     C11095   6.567  10.302   3.810 -0.1385  0.8919  0.1412
   83MOL0     C11096   6.519  10.297   3.940 -0.6704  0.4402 -0.5821
   83MOL0     C11097   6.609  10.296   4.057 -0.9953  0.3530  0.7583
   83MOL0     C11098   6.746  10.306   4.043  1.0304  0.1463  0.2465
   83MOL0     C11099   6.835  10.304   4.155  0.5743  0.4546 -0.4534
   83MOL0     O11100   6.964  10.333   4.130 -0.0385  0.1445 -0.3508
   83MOL0     C11101   7.068  10.318   4.220  0.2508 -1.4673 -0.2648
   83MOL0     C11102   7.188  10.307   4.153  0.0094 -0.6117 -0.2793
   83MOL0     C11103   7.304  10.286   4.225  0.1551  0.5821 -0.0938
   83MOL0     C11104   7.299  10.277   4.367 -0.4911  0.1592  0.1334
   83MOL0     O11105   7.415  10.247   4.430  0.2369 -0.0440  0.0935
   83MOL0     C11106   7.490  10.128   4.382 -0.2679 -0.3187  0.7555
   83MOL0     C11107   7.643  10.139   4.421  0.2786  1.0728 -0.2063
   83MOL0     C11108   7.737  10.029   4.367 -0.1478  0.0122 -0.0002
   83MOL0     C11109   7.884  10.048   4.418 -0.2617 -0.6630 -0.1741
   83MOL0     C11110   7.978   9.950   4.368 -0.0469  1.1825 -0.1221
   83MOL0     C11111   8.108   9.966   4.425 -1.0597 -0.0117  0.1652
   83MOL0     C11112   8.185   9.830   4.416  0.1558 -0.1423 -0.6974
   83MOL0     C11113   8.315   9.852   4.338 -0.4295 -0.8359  0.4995
   83MOL0    Cl11114   8.262   9.887   4.169  0.0621  0.2364  0.0648
   83MOL0     C11115   7.182  10.284   4.438 -0.5403 -0.1295  0.1713
   83MOL0     C11116   7.062  10.305   4.356 -0.1144 -0.1678  0.4579
   83MOL0     O11117   6.792  10.287   4.272 -0.3056  0.1602 -0.0064
   83MOL0     C11118   6.782  10.346   3.914 -0.2777 -0.6847  0.1471
   83MOL0     C11119   6.703  10.343   3.795  0.2117 -0.0750 -0.4231
   83MOL0     N11120   6.102  10.466   3.349  0.3665 -0.0424 -0.2249
   83MOL0     N11121   6.033  10.523   3.263 -0.6761 -0.6967 -0.5979
   83MOL0     C11122   5.017  10.636   3.294 -0.5175 -0.0921  0.5610
   83MOL0     C11123   4.917  10.557   3.355  0.2660 -0.6232  0.7444
   83MOL0     C11124   4.724  10.204   3.541 -0.5148  1.0288  0.0905
   83MOL0     C11125   4.587  10.202   3.519 -0.3064  0.0650  0.5832
   83MOL0     C11126   4.495  10.096   3.548 -0.9342 -0.9254  1.5045
   83MOL0     C11127   4.534   9.988   3.613 -0.1656  0.6093  0.0981
   83MOL0     O11128   4.440   9.887   3.642 -0.5998  0.4515  0.7263
   83MOL0     C11129   4.465   9.830   3.769  0.6634 -0.0366  0.2355
   83MOL0     C11130   4.328   9.792   3.836  0.6473 -0.0660 -0.9464
   83MOL0     C11131   4.328   9.714   3.966  0.0919  0.0859 -0.6813
   83MOL0     C11132   4.197   9.680   4.032 -0.1396  0.5471 -0.0405
   83MOL0     C11133   4.101   9.636   3.932 -0.0661  0.3311  0.6941
   83MOL0     C11134   4.017   9.589   3.858  0.0984  0.7347 -0.4000
   83MOL0     C11135   4.676   9.981   3.644  0.0779  1.3239  0.3719
   83MOL0     C11136   4.766  10.089   3.614 -0.6803 -0.5563 -0.0375
   83MOL0     C11137   4.905  10.073   3.670 -0.2546  0.0891 -0.8800
   83MOL0     H11138   4.861  10.315   3.118 -1.3499  1.6786 -0.7829
   83MOL0     H11139   5.031  10.436   3.005 -1.5974 -2.4469 -0.1117
   83MOL0     H11140   5.254  10.840   3.023 -2.2930  3.7085  1.3510
   83MOL0     H11141   5.145  10.860   3.154  0.3291 -1.2985  2.0614
   83MOL0     H11142   5.317  10.746   3.304 -1.5054  0.4100 -0.7449
   83MOL0     H11143   5.400  10.860   3.212  1.5318 -0.5026  0.6728
   83MOL0     H11144   5.387  10.552   3.172 -0.5619  0.1206 -0.7356
   83MOL0     H11145   5.515  10.647   3.242  2.0663  1.1401 -0.9556
   83MOL0     H11146   5.419  10.661   2.949  0.2483  2.0763 -1.2230
   83MOL0     H11147   5.549  10.754   3.010  0.5127  0.1179  0.0366
   83MOL0     H11148   5.572  10.449   3.041 -2.1694 -1.2318 -1.8159
   83MOL0     H11149   5.600  10.534   2.886  0.7831  0.7214 -0.6500
   83MOL0     H11150   5.772  10.666   2.982 -3.0636  1.1810  0.6368
   83MOL0     H11151   5.752  10.590   3.146  0.3815 -3.0993  0.3900
   83MOL0     H11152   5.824  10.442   2.898 -0.0727  1.0500  0.2174
   83MOL0     H11153   5.801  10.364   3.059 -3.4104  0.6011 -0.6284
   83MOL0     H11154   6.033  10.456   2.950  0.3284  2.7061 -1.1500
   83MOL0     H11155   5.979  10.600   3.044 -0.3872 -0.3576  1.3487
   83MOL0     H11156   6.096  10.225   3.110 -0.6951  0.3228 -1.0452
   83MOL0     H11157   6.084  10.161   3.428  0.8601 -1.5539  1.5420
   83MOL0     H11158   6.244  10.158   3.337  0.1729  0.6985 -1.1464
   83MOL0     H11159   6.333  10.318   3.485 -0.7900 -1.5561 -3.4212
   83MOL0     H11160   6.182  10.309   3.594  0.8241  1.5070  0.0967
   83MOL0     H11161   6.389  10.122   3.503  0.9418  3.3863 -1.5350
   83MOL0     H11162   6.250  10.064   3.593 -0.6423  0.6680 -1.6516
   83MOL0     H11163   6.426  10.099   3.761  1.5550 -0.7528 -1.3957
   83MOL0     H11164   6.302  10.226   3.774  1.6536 -0.1803  0.5689
   83MOL0     H11165   6.413  10.293   3.965 -0.3366 -0.0559  0.8934
   83MOL0     H11166   6.569  10.291   4.158 -1.2257  1.6444  0.7510
   83MOL0     H11167   7.195  10.314   4.045 -2.6051  0.0262 -0.4851
   83MOL0     H11168   7.395  10.286   4.166 -0.3062  1.3294 -0.8206
   83MOL0     H11169   7.458  10.036   4.431  1.5599 -1.4341 -0.0672
   83MOL0     H11170   7.479  10.108   4.275  0.6702 -0.6461  0.7155
   83MOL0     H11171   7.667  10.241   4.391  0.4105  1.2338  0.4189
   83MOL0     H11172   7.663  10.139   4.529 -0.3715 -0.8946 -0.0497
   83MOL0     H11173   7.702   9.934   4.407  1.2844 -2.0597 -3.2657
   83MOL0     H11174   7.726  10.020   4.259  2.0092 -1.7138 -0.1422
   83MOL0     H11175   7.883  10.045   4.528 -1.9495 -1.2095 -0.1749
   83MOL0     H11176   7.915  10.148   4.388 -2.9295 -0.4262 -2.4859
   83MOL0     H11177   7.983   9.931   4.261 -0.2153 -1.1987  0.2386
   83MOL0     H11178   7.949   9.851   4.404  1.2762  0.5848 -0.6158
   83MOL0     H11179   8.169  10.040   4.372 -0.2577 -1.5698 -1.1467
   83MOL0     H11180   8.104  10.002   4.529 -0.3196  0.3343  0.0827
   83MOL0     H11181   8.129   9.759   4.353 -1.3782 -0.4760  0.9694
   83MOL0     H11182   8.202   9.788   4.515 -1.4038 -0.6226 -0.5997
   83MOL0     H11183   8.370   9.938   4.376 -1.8917  1.6014 -2.4341
   83MOL0     H11184   8.365   9.756   4.348 -3.0178 -2.1154  2.4961
   83MOL0     H11185   7.184  10.271   4.546  1.6002 -1.0980  0.0505
   83MOL0     H11186   6.971  10.289   4.413 -1.1759 -3.7476 -1.8729
   83MOL0     H11187   6.887  10.364   3.898 -0.4331 -1.2445 -1.8180
   83MOL0     H11188   6.748  10.358   3.698 -0.6917 -0.4262 -0.9102
   83MOL0     H11189   5.068  10.712   3.353  0.1205  0.9349 -1.2292
   83MOL0     H11190   4.893  10.591   3.456 -0.0026  4.0499 -0.6701
   83MOL0     H11191   4.543  10.285   3.464  0.5548 -0.0598 -0.3289
   83MOL0     H11192   4.394  10.120   3.518  0.2107  2.2955 -0.2087
   83MOL0     H11193   4.519   9.905   3.828  0.1771 -0.4944  1.2799
   83MOL0     H11194   4.533   9.745   3.761  2.6867  1.1506  3.1491
   83MOL0     H11195   4.287   9.739   3.750 -0.0804  0.4486 -0.9283
   83MOL0     H11196   4.268   9.883   3.847  2.4487  1.3367 -2.0261
   83MOL0     H11197   4.405   9.747   4.036  0.6245 -0.2223 -1.1138
   83MOL0     H11198   4.369   9.617   3.937 -0.2633  0.0109 -0.9537
   83MOL0     H11199   4.212   9.602   4.106  0.3540  0.2037 -0.4927
   83MOL0     H11200   4.157   9.771   4.079 -2.2801 -0.5959  0.4658
   83MOL0     H11201   3.958   9.569   3.771 -0.0643  0.2269 -0.1811
   83MOL0     H11202   4.715   9.890   3.689  1.1166  1.9495  0.7663
   83MOL0     H11203   4.920   9.986   3.735  0.7244 -0.5856 -1.9649
   83MOL0     H11204   4.981  10.078   3.591 -0.9170 -1.5939 -1.6766
   83MOL0     H11205   4.916  10.162   3.731 -2.5168 -1.7610  2.5151
   84MOL0     O11206   1.993   7.558   8.882 -0.6859 -0.2164  0.7893
   84MOL0     C11207   2.078   7.552   8.793 -0.0809  0.6257  0.1228
   84MOL0     O11208   2.195   7.633   8.783 -0.1804  0.3039  0.0622
   84MOL0     C11209   2.188   7.748   8.855  0.4728  0.9989 -0.6400
   84MOL0     C11210   2.242   7.746   8.986 -0.0452 -1.0705  0.4728
   84MOL0     C11211   2.222   7.855   9.068  0.2882 -0.3306  0.6680
   84MOL0     C11212   2.136   7.959   9.033 -0.0744  0.0164 -0.2360
   84MOL0     O11213   2.095   8.047   9.136  0.4330 -0.6093 -0.3582
   84MOL0     C11214   1.953   8.058   9.171 -0.6734 -0.2208 -0.5598
   84MOL0     C11215   1.946   7.998   9.311 -0.4518 -0.0432  0.5124
   84MOL0     C11216   2.004   8.087   9.420 -0.8524 -0.5680  0.1441
   84MOL0     C11217   1.983   8.028   9.561 -0.2266  0.5415 -1.3761
   84MOL0     C11218   2.003   8.141   9.671  0.2634  0.2637 -0.7942
   84MOL0     C11219   1.979   8.079   9.812  0.7651 -0.0141  1.0665
   84MOL0     C11220   1.896   8.173   9.910 -0.1694  0.9901  0.1910
   84MOL0     C11221   1.986   8.249  10.009  0.2418  0.1021  0.3973
   84MOL0     N11222   2.055   8.165  10.108  0.4609  0.2915 -0.0407
   84MOL0     C11223   2.027   8.032  10.148 -0.0306  0.2905  0.9135
   84MOL0     C11224   2.107   8.000  10.253  0.3901  0.2679  0.9389
   84MOL0     C11225   2.118   7.869  10.314 -0.4934  0.2188  0.0778
   84MOL0     C11226   2.241   7.847  10.401 -0.3434  0.5801 -0.3337
   84MOL0     C11227   2.358   7.790  10.326 -0.3434  0.7041 -0.4878
   84MOL0     C11228   2.490   7.778  10.398  0.4955 -0.3646 -0.4111
   84MOL0     O11229   2.470   7.690  10.515  0.0430  0.5688 -0.0060
   84MOL0     C11230   2.584   7.674  10.593  0.5440  0.6860 -1.3140
   84MOL0     C11231   2.565   7.637  10.724 -0.2850  0.1070  0.3069
   84MOL0     C11232   2.680   7.587  10.794 -0.1041  0.2659  0.0407
   84MOL0     C11233   2.818   7.582  10.749  0.0322 -0.1436  0.0530
   84MOL0     C11234   2.933   7.522  10.827  0.4063 -1.2178 -0.0954
   84MOL0     O11235   3.047   7.489  10.750  0.1940 -0.2589 -1.2458
   84MOL0     C11236   3.166   7.467  10.793 -0.1185  0.8650  0.6301
   84MOL0     C11237   3.266   7.446  10.695 -0.0480 -0.9457  0.7872
   84MOL0     C11238   3.400   7.433  10.727 -0.0340  0.0567 -0.6070
   84MOL0     C11239   3.440   7.421  10.861 -0.2403  0.2681 -0.3592
   84MOL0     O11240   3.570   7.387  10.897 -0.4110 -0.6725  0.3975
   84MOL0     C11241   3.661   7.303  10.818  0.5350 -0.3288 -0.7232
   84MOL0     C11242   3.789   7.279  10.903  0.2409 -0.4955 -0.5608
   84MOL0     C11243   3.850   7.145  10.872 -0.3682 -0.2044  0.7380
   84MOL0     C11244   3.979   7.148  10.954 -0.0970 -0.3990 -0.5424
   84MOL0     C11245   4.036   7.015  10.992 -0.9126 -0.8065  0.4727
   84MOL0     C11246   4.151   7.021  11.091 -0.9753 -0.4964  0.2376
   84MOL0     C11247   4.281   7.087  11.033  0.5591 -0.5347 -1.0313
   84MOL0     C11248   4.392   7.125  11.139 -0.3153 -0.3336  0.1206
   84MOL0    Cl11249   4.483   6.982  11.199 -0.0014 -0.2448 -0.0339
   84MOL0     C11250   3.335   7.418  10.952 -0.2398  0.6461 -0.5075
   84MOL0     C11251   3.200   7.448  10.924  0.3705 -0.1307 -0.7469
   84MOL0     O11252   2.909   7.498  10.946 -0.5771  0.2892  0.9218
   84MOL0     C11253   2.828   7.621  10.612 -0.7891  0.2933 -0.0819
   84MOL0     C11254   2.715   7.666  10.540 -0.0429 -1.1430  0.1662
   84MOL0     N11255   2.175   8.118  10.288 -0.1110 -0.2241 -0.7186
   84MOL0     N11256   2.147   8.212  10.199  0.0433 -0.4115 -0.5621
   84MOL0     C11257   2.087   7.962   8.906  0.6998 -0.7547 -0.1984
   84MOL0     C11258   2.108   7.859   8.819  0.1914 -0.6575  0.9330
   84MOL0     C11259   2.060   7.424   8.703  0.4673  0.0950 -0.7375
   84MOL0     C11260   1.928   7.380   8.690  0.2749  1.2607  0.0894
   84MOL0     C11261   1.906   7.260   8.616 -0.4586 -0.5541 -0.9898
   84MOL0     C11262   1.998   7.187   8.554  0.2643 -0.2240  0.1663
   84MOL0     O11263   1.985   7.063   8.503 -0.1157  0.2193 -0.0325
   84MOL0     C11264   1.853   7.029   8.443  0.0632  0.0554 -0.3163
   84MOL0     C11265   1.770   6.931   8.530 -0.6507 -0.6131 -0.5395
   84MOL0     C11266   1.624   6.969   8.517  0.5447 -0.3996  0.6949
   84MOL0     C11267   1.519   6.896   8.618  0.1402  0.3602  0.0019
   84MOL0     C11268   1.514   6.758   8.578  0.3689 -0.2641 -0.7290
   84MOL0     C11269   1.502   6.644   8.554 -0.5774  0.4867 -0.9452
   84MOL0     C11270   2.122   7.239   8.555 -0.1910  0.0629 -0.4552
   84MOL0     C11271   2.160   7.354   8.626  0.6054  0.0437  0.4764
   84MOL0     C11272   2.307   7.385   8.620 -0.0873  0.1819  0.2422
   84MOL0     H11273   2.305   7.665   9.022 -1.7343 -3.4444 -1.6552
   84MOL0     H11274   2.254   7.847   9.171  0.3476  1.0383  0.7805
   84MOL0     H11275   1.912   8.159   9.172 -2.1146 -0.7736 -1.0311
   84MOL0     H11276   1.893   8.001   9.100 -1.4087  2.8969 -2.6642
   84MOL0     H11277   1.988   7.898   9.330 -0.8216  0.4435  5.1407
   84MOL0     H11278   1.841   7.987   9.339 -0.1679  0.0282  1.6764
   84MOL0     H11279   1.960   8.187   9.425 -2.2992 -1.2217  3.6612
   84MOL0     H11280   2.107   8.101   9.387 -1.1996  1.4807 -0.1706
   84MOL0     H11281   1.893   7.966   9.572  1.3579 -1.4742  1.7347
   84MOL0     H11282   2.060   7.953   9.583 -1.8631 -1.1339 -1.0678
   84MOL0     H11283   2.104   8.182   9.670  0.8174 -1.0370 -2.3103
   84MOL0     H11284   1.942   8.230   9.653  0.9331  0.5518 -1.7085
   84MOL0     H11285   1.905   8.001   9.796 -2.5974  3.4292 -2.1097
   84MOL0     H11286   2.070   8.027   9.844  0.0402 -1.0095  1.5739
   84MOL0     H11287   1.823   8.129   9.979  1.7212 -3.8164 -0.4800
   84MOL0     H11288   1.825   8.235   9.854 -1.4479 -1.5793 -1.2290
   84MOL0     H11289   2.070   8.307   9.967 -0.3474  0.0557 -0.8863
   84MOL0     H11290   1.918   8.316  10.063 -0.5034  1.4399 -2.0127
   84MOL0     H11291   1.969   7.958  10.093  1.8482 -1.4836  1.2071
   84MOL0     H11292   2.029   7.849  10.375 -1.4328 -0.3241 -1.4116
   84MOL0     H11293   2.114   7.789  10.239  0.1337  0.7390 -0.5186
   84MOL0     H11294   2.279   7.938  10.448 -1.0440  1.2965 -1.1367
   84MOL0     H11295   2.215   7.776  10.480 -0.6337 -0.2510 -1.1560
   84MOL0     H11296   2.373   7.855  10.240 -0.7349  0.4197 -0.7749
   84MOL0     H11297   2.334   7.687  10.298  3.6065 -0.5725  0.2119
   84MOL0     H11298   2.521   7.879  10.426 -2.6398  0.5872 -0.0789
   84MOL0     H11299   2.565   7.747  10.324  0.1469 -1.1985 -0.4188
   84MOL0     H11300   2.465   7.623  10.766 -0.0934 -0.6449  0.5327
   84MOL0     H11301   2.664   7.544  10.893  0.7718  1.2522  0.6292
   84MOL0     H11302   3.241   7.430  10.591 -1.3001 -0.6324  1.0255
   84MOL0     H11303   3.470   7.413  10.647  1.7392  0.6112  0.7431
   84MOL0     H11304   3.626   7.202  10.795 -1.9736  0.0162  1.1457
   84MOL0     H11305   3.691   7.346  10.722  0.6999  0.3327 -0.3777
   84MOL0     H11306   3.865   7.357  10.913  2.0028 -2.4156  3.5427
   84MOL0     H11307   3.744   7.270  11.003  1.5734  0.0472  0.1116
   84MOL0     H11308   3.790   7.057  10.899 -3.6712  1.9883  1.0445
   84MOL0     H11309   3.868   7.152  10.764  2.8713  3.4708  1.2815
   84MOL0     H11310   3.957   7.201  11.047 -1.8069 -2.9998  0.6508
   84MOL0     H11311   4.054   7.206  10.900 -0.3143  0.2208 -0.1932
   84MOL0     H11312   4.068   6.958  10.905  0.3801  1.6241 -0.7278
   84MOL0     H11313   3.958   6.951  11.035 -1.6886 -1.7417 -2.1479
   84MOL0     H11314   4.111   7.075  11.177  1.2168 -1.8155  2.2307
   84MOL0     H11315   4.168   6.919  11.126 -2.2932 -0.9397 -0.3578
   84MOL0     H11316   4.263   7.184  10.986  1.9898  0.5990  0.6535
   84MOL0     H11317   4.320   7.018  10.957 -1.0336 -3.6816  0.7923
   84MOL0     H11318   4.458   7.188  11.078 -1.1866  1.3296  0.8397
   84MOL0     H11319   4.359   7.183  11.225 -0.1890  2.4382 -1.5737
   84MOL0     H11320   3.351   7.400  11.058 -2.3268  0.0300 -0.2508
   84MOL0     H11321   3.125   7.437  11.002 -0.4478 -0.0224 -1.5048
   84MOL0     H11322   2.927   7.608  10.569  0.1991  1.8513  1.5512
   84MOL0     H11323   2.728   7.691  10.435  3.0725  2.8986  1.2565
   84MOL0     H11324   2.002   8.029   8.890  1.1195 -0.5297 -1.6478
   84MOL0     H11325   2.072   7.874   8.718  4.8752  0.4383 -0.8575
   84MOL0     H11326   1.851   7.422   8.755 -0.5242  3.1168 -1.9189
   84MOL0     H11327   1.804   7.223   8.628 -1.4232  1.9110 -0.9636
   84MOL0     H11328   1.862   6.992   8.340 -0.1948 -0.1785 -0.2561
   84MOL0     H11329   1.787   7.115   8.426 -1.4083 -0.5052  2.0455
   84MOL0     H11330   1.803   6.912   8.632 -0.9729 -2.1722 -0.6908
   84MOL0     H11331   1.783   6.830   8.489  0.4132  0.0187 -1.8456
   84MOL0     H11332   1.596   6.964   8.412  2.4044  1.4614  0.0453
   84MOL0     H11333   1.618   7.077   8.533  0.5209 -0.3593  0.4200
   84MOL0     H11334   1.576   6.913   8.710  0.1442  0.8205 -0.0813
   84MOL0     H11335   1.419   6.941   8.611 -0.2851 -0.4693  0.6190
   84MOL0     H11336   1.479   6.545   8.521 -1.2751  0.6922 -1.1006
   84MOL0     H11337   2.190   7.188   8.488  1.8047  0.7189  0.9821
   84MOL0     H11338   2.356   7.355   8.713  0.3798  0.5807  0.1284
   84MOL0     H11339   2.355   7.330   8.538  1.2782  1.3758  0.1922
   84MOL0     H11340   2.315   7.494   8.613  1.3405  0.0566 -0.4956
   85MOL0     O11341   2.234   5.012   1.258  0.3800  0.6800  0.2442
   85MOL0     C11342   2.154   5.010   1.357  0.5121 -0.5339 -0.0477
   85MOL0     O11343   2.023   4.984   1.345 -0.4262 -0.3462 -0.0812
   85MOL0     C11344   1.946   4.960   1.232  0.5330 -0.5339 -0.7655
   85MOL0     C11345   1.988   4.912   1.105 -0.3321 -0.6814 -1.5316
   85MOL0     C11346   1.907   4.898   0.998 -0.0768  0.5125  0.0207
   85MOL0     C11347   1.773   4.940   1.008 -0.3568 -0.0575 -0.3418
   85MOL0     O11348   1.696   4.936   0.890  0.2851  0.4912 -0.1316
   85MOL0     C11349   1.567   4.999   0.889 -1.3945 -0.5179 -0.8011
   85MOL0     C11350   1.480   4.953   0.769  0.4503  0.1361  0.6108
   85MOL0     C11351   1.562   4.938   0.640 -0.0842  0.7603  0.2606
   85MOL0     C11352   1.479   4.941   0.515 -0.0523 -0.2289 -0.4299
   85MOL0     C11353   1.566   4.902   0.398 -0.0204  0.2546 -0.2281
   85MOL0     C11354   1.479   4.892   0.257 -0.9149 -0.0050  0.3401
   85MOL0     C11355   1.549   4.833   0.129  0.3171  0.2183 -0.3822
   85MOL0     C11356   1.704   4.828   0.134 -0.4025 -0.6770 -0.3502
   85MOL0     N11357   1.740   4.816  -0.007  0.0868 -1.1947  0.4348
   85MOL0     C11358   1.722   4.709  -0.089 -0.4506  0.3489  0.7342
   85MOL0     C11359   1.793   4.734  -0.202 -0.8290 -0.3731 -0.4649
   85MOL0     C11360   1.819   4.648  -0.313 -0.0246  0.3295  0.5903
   85MOL0     C11361   1.871   4.510  -0.270  0.0240  0.1227 -0.2083
   85MOL0     C11362   1.840   4.409  -0.377 -0.7747  0.2623  0.6157
   85MOL0     C11363   1.906   4.274  -0.367  0.4594  0.7095 -0.5008
   85MOL0     O11364   1.849   4.195  -0.476  0.5059  0.5873 -0.3903
   85MOL0     C11365   1.917   4.084  -0.506 -0.2811  0.5485  0.1853
   85MOL0     C11366   1.957   3.993  -0.410 -0.3004  0.0320 -0.4984
   85MOL0     C11367   2.028   3.873  -0.443  0.1475 -0.3622 -0.0235
   85MOL0     C11368   2.058   3.842  -0.575 -1.0175  0.1923  0.4729
   85MOL0     C11369   2.136   3.726  -0.616 -0.5313 -0.1586 -0.2284
   85MOL0     O11370   2.152   3.634  -0.517 -0.9389 -0.5618 -0.0269
   85MOL0     C11371   2.233   3.520  -0.533  0.0163  0.6916 -0.6562
   85MOL0     C11372   2.238   3.441  -0.417  0.7411  0.3387 -0.5064
   85MOL0     C11373   2.292   3.311  -0.410 -0.2736  0.0536  1.1523
   85MOL0     C11374   2.354   3.261  -0.530  1.2868 -1.1378  0.7051
   85MOL0     O11375   2.412   3.138  -0.540 -0.0713 -0.2294  0.1986
   85MOL0     C11376   2.377   3.040  -0.647 -0.2904  0.0602  0.3505
   85MOL0     C11377   2.463   2.912  -0.648 -0.3316  0.5856  1.4686
   85MOL0     C11378   2.462   2.844  -0.787 -0.4070  0.0031  0.4192
   85MOL0     C11379   2.568   2.731  -0.789  0.2858 -0.4056 -1.1242
   85MOL0     C11380   2.676   2.747  -0.904 -0.4027 -0.6297  0.4314
   85MOL0     C11381   2.774   2.852  -0.849  0.7440 -0.6504 -0.4665
   85MOL0     C11382   2.920   2.826  -0.881 -0.4095  0.2538 -0.4079
   85MOL0     C11383   3.014   2.946  -0.852  0.6026  0.2830 -0.2410
   85MOL0    Cl11384   3.175   2.913  -0.915 -0.1070 -0.1378 -0.4101
   85MOL0     C11385   2.337   3.333  -0.649 -0.1231  0.7272 -0.7462
   85MOL0     C11386   2.276   3.462  -0.659  0.0455  0.6140 -0.9989
   85MOL0     O11387   2.165   3.715  -0.734  0.3755  0.3908 -0.2017
   85MOL0     C11388   2.023   3.937  -0.674  0.1137  0.2912  0.2977
   85MOL0     C11389   1.949   4.056  -0.643  0.7742  0.0574 -0.6148
   85MOL0     N11390   1.862   4.850  -0.179  0.4098  0.0838  0.7635
   85MOL0     N11391   1.838   4.899  -0.064  0.7699  1.1682 -0.2483
   85MOL0     C11392   1.724   4.983   1.135 -1.0889  0.3440  0.6866
   85MOL0     C11393   1.811   4.989   1.245 -0.5711  0.3630  0.5278
   85MOL0     C11394   2.205   4.989   1.498 -0.7131  1.6480 -0.3855
   85MOL0     C11395   2.120   4.954   1.597 -0.0965 -0.0153 -0.7729
   85MOL0     C11396   2.157   4.931   1.731  0.3176  0.8901  0.6633
   85MOL0     C11397   2.291   4.944   1.764  1.5110  0.2303 -0.1953
   85MOL0     O11398   2.342   4.918   1.879 -0.6636  1.0384 -0.6196
   85MOL0     C11399   2.260   4.874   1.990  0.2473  0.4389  0.2784
   85MOL0     C11400   2.163   4.980   2.046 -1.1203  0.9857 -0.3059
   85MOL0     C11401   2.251   5.107   2.063 -0.6744 -0.1308  0.1298
   85MOL0     C11402   2.166   5.221   2.121  0.5937  0.2255  1.4238
   85MOL0     C11403   2.123   5.196   2.257  0.6287  0.0371  1.1628
   85MOL0     C11404   2.090   5.186   2.371 -0.0976  0.3743 -0.4890
   85MOL0     C11405   2.377   4.980   1.664  0.4191  0.3942  0.0350
   85MOL0     C11406   2.341   5.012   1.534 -0.3543 -0.1773 -0.8824
   85MOL0     C11407   2.441   5.072   1.434 -0.1206  0.3887 -0.1126
   85MOL0     H11408   2.085   4.867   1.089 -0.7362 -1.1414 -2.7877
   85MOL0     H11409   1.935   4.868   0.897  0.2520 -0.6816  0.4558
   85MOL0     H11410   1.515   4.990   0.985 -1.7928  1.5268 -0.7776
   85MOL0     H11411   1.585   5.107   0.881 -1.1091 -0.6656 -2.4359
   85MOL0     H11412   1.399   5.024   0.754  1.3237  0.7050 -1.9238
   85MOL0     H11413   1.438   4.854   0.790 -1.0114 -0.0231 -2.5383
   85MOL0     H11414   1.605   4.839   0.624  0.7284  0.9605  1.0952
   85MOL0     H11415   1.651   5.001   0.652  0.1194  0.7374 -0.9421
   85MOL0     H11416   1.386   4.887   0.536  2.0764 -2.7796  3.9324
   85MOL0     H11417   1.441   5.042   0.496 -0.6043 -0.5054 -0.8108
   85MOL0     H11418   1.643   4.978   0.382  1.7179 -1.5672 -0.8394
   85MOL0     H11419   1.600   4.799   0.413 -1.5649 -0.3452 -0.6640
   85MOL0     H11420   1.384   4.843   0.279 -0.4080 -1.1219  0.1217
   85MOL0     H11421   1.452   4.991   0.220 -3.1975 -0.3532  0.9524
   85MOL0     H11422   1.521   4.904   0.051  0.3465  2.7952  1.8142
   85MOL0     H11423   1.505   4.736   0.102  0.3054 -0.4463  1.7850
   85MOL0     H11424   1.744   4.918   0.181 -1.5364  0.1609 -0.9350
   85MOL0     H11425   1.734   4.744   0.196 -1.1252  0.7482  2.0583
   85MOL0     H11426   1.662   4.619  -0.077  2.0332 -1.5034 -0.0907
   85MOL0     H11427   1.725   4.625  -0.364 -1.4746 -0.6896  3.4928
   85MOL0     H11428   1.886   4.691  -0.389  0.4567 -0.7508  0.3827
   85MOL0     H11429   1.973   4.525  -0.235 -0.1981  1.3434 -0.0326
   85MOL0     H11430   1.817   4.479  -0.180 -1.5165  1.4171 -0.6395
   85MOL0     H11431   1.886   4.444  -0.471  1.1147 -0.4150  1.2379
   85MOL0     H11432   1.734   4.409  -0.406  0.3404  2.2394 -4.6915
   85MOL0     H11433   1.878   4.235  -0.269 -0.6470 -0.6331 -1.3185
   85MOL0     H11434   2.016   4.277  -0.373  0.4039  3.3000 -1.5266
   85MOL0     H11435   1.938   4.004  -0.304  0.0457 -0.7494 -0.3501
   85MOL0     H11436   2.056   3.802  -0.366 -3.1955 -2.6685 -0.7200
   85MOL0     H11437   2.184   3.473  -0.329 -3.1728 -2.8158 -1.4483
   85MOL0     H11438   2.280   3.250  -0.321 -3.4970 -0.8142  0.2633
   85MOL0     H11439   2.272   3.011  -0.636 -0.6799  0.9993 -0.5882
   85MOL0     H11440   2.387   3.084  -0.747  4.6700  0.4077  0.7926
   85MOL0     H11441   2.569   2.926  -0.627  1.4372 -3.2531 -2.9882
   85MOL0     H11442   2.423   2.842  -0.574  1.3774 -1.8529  0.1964
   85MOL0     H11443   2.365   2.798  -0.809 -0.3340 -0.1597  0.4370
   85MOL0     H11444   2.480   2.923  -0.861  2.3940 -0.3096  0.6586
   85MOL0     H11445   2.515   2.638  -0.810  2.1990 -2.1292  1.1912
   85MOL0     H11446   2.619   2.722  -0.693  0.0727 -1.7786 -1.1282
   85MOL0     H11447   2.626   2.780  -0.995  1.8501 -1.4774 -1.1851
   85MOL0     H11448   2.733   2.658  -0.930  0.3960  0.0488 -0.1665
   85MOL0     H11449   2.750   2.942  -0.907 -2.0175 -0.3344  0.9999
   85MOL0     H11450   2.761   2.866  -0.742 -0.1584 -0.8053 -0.5485
   85MOL0     H11451   2.922   2.805  -0.989 -3.7045  2.6860 -1.1125
   85MOL0     H11452   2.951   2.739  -0.822  0.6741  0.5885 -0.4497
   85MOL0     H11453   2.986   3.048  -0.880  4.0064  1.1826 -0.7494
   85MOL0     H11454   3.025   2.952  -0.744 -1.5019 -0.4316  0.0699
   85MOL0     H11455   2.394   3.295  -0.733  2.3866  1.3089  0.5750
   85MOL0     H11456   2.277   3.505  -0.759 -0.9561  2.3608 -0.3137
   85MOL0     H11457   2.048   3.902  -0.773  0.8305 -2.0352  1.2425
   85MOL0     H11458   1.906   4.124  -0.716 -0.4092  0.2092  0.1938
   85MOL0     H11459   1.623   5.015   1.157 -1.2619  0.4885 -0.3100
   85MOL0     H11460   1.784   5.026   1.344  1.9830  2.1338  0.6732
   85MOL0     H11461   2.014   4.952   1.573  0.4178 -3.3690 -3.5462
   85MOL0     H11462   2.085   4.889   1.801 -1.0376  0.4052 -0.9536
   85MOL0     H11463   2.338   4.827   2.052 -0.3052 -1.0269 -0.1088
   85MOL0     H11464   2.203   4.785   1.962 -1.2996  1.0332  1.4014
   85MOL0     H11465   2.115   4.938   2.135 -0.0325  0.1277 -0.1022
   85MOL0     H11466   2.077   4.985   1.978  0.9979  1.9145 -3.0886
   85MOL0     H11467   2.290   5.127   1.962 -1.7716  0.3058 -0.2154
   85MOL0     H11468   2.339   5.080   2.123  0.8721 -3.7138 -3.2716
   85MOL0     H11469   2.223   5.314   2.116  0.3712  0.2766 -2.2554
   85MOL0     H11470   2.082   5.246   2.055  1.1711 -1.0134  0.1881
   85MOL0     H11471   2.060   5.178   2.473  1.2028  1.6481  0.0273
   85MOL0     H11472   2.480   4.991   1.697 -0.1490 -0.6880  2.3881
   85MOL0     H11473   2.406   5.158   1.377  4.3060  1.0424 -2.2423
   85MOL0     H11474   2.526   5.121   1.484 -0.8806  0.0182  1.6176
   85MOL0     H11475   2.481   5.000   1.362  0.8799  0.9229 -0.1089
   86MOL0     O11476   5.471   3.924   8.645  0.6453  0.2726  0.0602
   86MOL0     C11477   5.454   3.971   8.760  0.5541  0.1511 -0.7657
   86MOL0     O11478   5.326   4.000   8.814  0.2055 -0.0001  0.1249
   86MOL0     C11479   5.203   3.993   8.730 -0.4176  0.4400 -0.4150
   86MOL0     C11480   5.116   4.097   8.735  0.4518  0.4394  0.2153
   86MOL0     C11481   5.019   4.122   8.632  0.5515  0.2456  0.8497
   86MOL0     C11482   4.995   4.017   8.542 -0.5302  0.0361 -0.0001
   86MOL0     O11483   4.890   4.026   8.459  0.0565  0.6333 -0.4854
   86MOL0     C11484   4.797   3.905   8.469  0.6102 -0.0585  0.2710
   86MOL0     C11485   4.662   3.956   8.411 -0.4170  0.6316  0.5418
   86MOL0     C11486   4.611   4.085   8.476  0.3401  0.9724  0.0828
   86MOL0     C11487   4.455   4.120   8.451 -0.7894 -0.2365 -0.4077
   86MOL0     C11488   4.436   4.132   8.302  0.1064 -0.8433  0.2300
   86MOL0     C11489   4.282   4.172   8.271 -0.3419 -1.1999  0.1783
   86MOL0     C11490   4.174   4.068   8.293  0.2282  0.0092 -0.8205
   86MOL0     C11491   4.192   3.945   8.210 -0.0811  0.8381  0.3581
   86MOL0     N11492   4.092   3.845   8.242 -0.0827  0.9095 -0.1198
   86MOL0     C11493   4.068   3.785   8.372 -0.5890 -0.9257  1.0106
   86MOL0     C11494   4.008   3.665   8.348  0.7963 -0.6481 -0.2395
   86MOL0     C11495   3.998   3.544   8.439  0.0103  0.8098  0.3202
   86MOL0     C11496   4.122   3.460   8.436 -0.4463  0.1443 -0.4018
   86MOL0     C11497   4.182   3.397   8.307  0.7944 -0.2401 -0.4592
   86MOL0     C11498   4.101   3.277   8.255 -0.3168 -0.0480  0.5162
   86MOL0     O11499   4.092   3.187   8.365  0.0888 -0.1081 -0.0849
   86MOL0     C11500   4.033   3.071   8.336 -0.9627  0.3098 -0.3164
   86MOL0     C11501   3.898   3.059   8.305 -0.0543  1.0597 -0.2057
   86MOL0     C11502   3.849   2.933   8.281 -0.7520  0.0875 -0.4875
   86MOL0     C11503   3.929   2.815   8.264 -0.0578  0.0665  0.0349
   86MOL0     C11504   3.864   2.693   8.220  0.2113  0.0084 -0.2109
   86MOL0     O11505   3.945   2.579   8.198 -0.1291 -0.8162  0.5100
   86MOL0     C11506   3.891   2.456   8.164  1.2276  0.6953  0.9267
   86MOL0     C11507   3.934   2.389   8.047 -0.1174 -0.5198  1.4726
   86MOL0     C11508   3.879   2.275   8.003  0.4740  1.0476  0.0366
   86MOL0     C11509   3.785   2.204   8.083 -0.9010 -0.5485 -1.1074
   86MOL0     O11510   3.732   2.085   8.052  0.3257 -0.1020  0.4080
   86MOL0     C11511   3.686   2.067   7.912  0.1013  0.8931 -0.1921
   86MOL0     C11512   3.625   1.928   7.910 -0.2145 -0.0514  0.6714
   86MOL0     C11513   3.700   1.827   7.842  0.2896  0.9259  0.4975
   86MOL0     C11514   3.656   1.680   7.859  0.1659  0.2004  0.1494
   86MOL0     C11515   3.705   1.589   7.751 -0.1292  1.2401 -0.4506
   86MOL0     C11516   3.636   1.446   7.751 -0.1846 -1.1483  0.1939
   86MOL0     C11517   3.643   1.360   7.872  0.7942  0.1567  1.0278
   86MOL0     C11518   3.549   1.236   7.864 -0.7113 -0.3595  0.1542
   86MOL0    Cl11519   3.384   1.301   7.835  0.6765  0.0570 -0.0699
   86MOL0     C11520   3.749   2.259   8.204 -0.6043  1.0271  0.1482
   86MOL0     C11521   3.793   2.385   8.245  0.5422 -0.4747  0.5986
   86MOL0     O11522   3.744   2.693   8.220 -0.2564 -0.0028 -0.1998
   86MOL0     C11523   4.072   2.836   8.270  0.5214 -0.0456 -0.0395
   86MOL0     C11524   4.121   2.959   8.311 -0.6569 -0.4216 -0.0840
   86MOL0     N11525   3.996   3.650   8.207  0.8738 -0.4581  0.8362
   86MOL0     N11526   4.052   3.758   8.149 -0.5660  1.0313  0.3601
   86MOL0     C11527   5.073   3.903   8.550 -0.3693  0.1095 -0.6730
   86MOL0     C11528   5.172   3.892   8.644  0.0470 -0.2161  0.7700
   86MOL0     C11529   5.578   4.015   8.829 -0.7909 -1.0357 -0.5097
   86MOL0     C11530   5.576   4.119   8.923 -0.4562  0.4551  0.3440
   86MOL0     C11531   5.689   4.158   8.994  0.6195  0.2508 -0.1367
   86MOL0     C11532   5.808   4.084   8.989  1.4512  0.6152  0.6326
   86MOL0     O11533   5.899   4.134   9.074  0.1442  0.3143  0.6363
   86MOL0     C11534   6.007   4.044   9.117  0.3611 -0.0266  0.1007
   86MOL0     C11535   6.133   4.120   9.148 -0.8720 -0.3634 -0.3165
   86MOL0     C11536   6.179   4.214   9.036  0.7896 -0.0195 -0.3665
   86MOL0     C11537   6.245   4.128   8.923 -0.5254  0.3473  0.1715
   86MOL0     C11538   6.360   4.046   8.951 -0.2587  0.8585 -0.2751
   86MOL0     C11539   6.463   3.990   8.993  0.7984  0.2524 -0.4224
   86MOL0     C11540   5.818   3.978   8.894 -0.1586  0.4601  0.5788
   86MOL0     C11541   5.701   3.941   8.818  0.2694  0.2468 -0.5594
   86MOL0     C11542   5.716   3.802   8.757  0.6834 -0.9376  0.0019
   86MOL0     H11543   5.142   4.177   8.803 -0.7695 -1.3547  2.9860
   86MOL0     H11544   4.980   4.223   8.620  3.2067  1.4650  1.5907
   86MOL0     H11545   4.839   3.822   8.412 -1.7340  1.2934 -3.8359
   86MOL0     H11546   4.786   3.864   8.570  1.6984 -2.0591 -0.3697
   86MOL0     H11547   4.603   3.871   8.445 -1.7547  0.0224 -2.8862
   86MOL0     H11548   4.651   3.957   8.302 -1.7419  0.7141  0.6667
   86MOL0     H11549   4.674   4.166   8.438 -0.9851  0.3526 -3.9589
   86MOL0     H11550   4.621   4.079   8.584  4.6024 -3.6597 -0.2150
   86MOL0     H11551   4.394   4.045   8.502 -0.5567 -2.6414 -3.3680
   86MOL0     H11552   4.439   4.221   8.491  0.5393  0.0023 -0.4342
   86MOL0     H11553   4.507   4.210   8.275 -0.3756 -0.4356  0.1288
   86MOL0     H11554   4.468   4.043   8.246  3.9387  0.1518  0.5725
   86MOL0     H11555   4.271   4.263   8.331 -0.2967 -1.7864  1.0812
   86MOL0     H11556   4.279   4.211   8.168 -0.9381  2.2754  1.3744
   86MOL0     H11557   4.083   4.123   8.271  0.1503  0.1336 -0.2017
   86MOL0     H11558   4.185   4.048   8.400  1.6821  0.9466 -0.7687
   86MOL0     H11559   4.176   3.971   8.105  1.4704  2.1487  0.4166
   86MOL0     H11560   4.295   3.909   8.213 -0.7365 -1.1126  1.2352
   86MOL0     H11561   4.106   3.822   8.467 -4.1611 -0.7581  2.5317
   86MOL0     H11562   3.956   3.579   8.534  2.1335 -0.1828  1.6948
   86MOL0     H11563   3.916   3.483   8.399  1.3003 -0.9508  0.2825
   86MOL0     H11564   4.208   3.517   8.472 -2.3603  0.9385  3.4004
   86MOL0     H11565   4.114   3.377   8.507  1.2896  1.1133  1.0213
   86MOL0     H11566   4.284   3.369   8.337  0.4830  0.5018  1.4757
   86MOL0     H11567   4.189   3.477   8.233  1.8832 -0.6554 -0.8245
   86MOL0     H11568   4.160   3.239   8.171 -1.8317  2.0331 -1.6087
   86MOL0     H11569   3.997   3.302   8.233 -1.4291  1.5892  5.9639
   86MOL0     H11570   3.828   3.140   8.321 -0.1469  0.9444 -0.0287
   86MOL0     H11571   3.743   2.919   8.262 -0.9622  1.7382 -0.6668
   86MOL0     H11572   4.016   2.437   7.994 -1.3613  3.0379  2.4708
   86MOL0     H11573   3.907   2.244   7.903 -3.1843  0.0274 -0.8147
   86MOL0     H11574   3.614   2.148   7.900  0.3635  1.4042  1.5303
   86MOL0     H11575   3.769   2.070   7.841 -0.6498 -0.1125 -1.1652
   86MOL0     H11576   3.619   1.880   8.008  0.7047 -1.5568  0.0228
   86MOL0     H11577   3.526   1.933   7.865  1.2038 -3.2507 -3.3982
   86MOL0     H11578   3.689   1.838   7.734  0.2871 -3.8674 -0.1994
   86MOL0     H11579   3.808   1.834   7.855  0.0692  2.2692  1.9386
   86MOL0     H11580   3.547   1.679   7.855  0.0875  0.6078  1.4845
   86MOL0     H11581   3.686   1.645   7.959 -0.0056 -2.1317 -0.5735
   86MOL0     H11582   3.813   1.577   7.760 -0.4492 -1.1278  1.1363
   86MOL0     H11583   3.685   1.647   7.660  1.8976  4.2972  0.9043
   86MOL0     H11584   3.531   1.470   7.730 -1.4706 -5.0479  1.3470
   86MOL0     H11585   3.667   1.398   7.658 -2.7274  2.8774 -3.1079
   86MOL0     H11586   3.589   1.412   7.952 -1.5637 -1.3715  0.5438
   86MOL0     H11587   3.746   1.327   7.883  0.0776 -2.9031 -0.3299
   86MOL0     H11588   3.591   1.177   7.782  1.7625  1.6992 -0.1935
   86MOL0     H11589   3.561   1.185   7.960 -0.9275  0.3554  0.5748
   86MOL0     H11590   3.672   2.218   8.268 -0.7213 -1.8308 -1.6638
   86MOL0     H11591   3.759   2.436   8.335  0.9470 -1.2523  1.2066
   86MOL0     H11592   4.129   2.743   8.265 -1.8029 -1.6136  1.0965
   86MOL0     H11593   4.229   2.957   8.325 -0.4330 -0.3390 -1.6401
   86MOL0     H11594   5.053   3.815   8.491 -1.5025  0.0116 -0.1595
   86MOL0     H11595   5.223   3.796   8.652 -1.2716 -1.4271 -3.2099
   86MOL0     H11596   5.486   4.177   8.940 -0.3615  0.8000 -0.2924
   86MOL0     H11597   5.702   4.235   9.069  1.8174  1.0444 -1.1075
   86MOL0     H11598   6.031   3.960   9.052 -1.6905 -0.1877 -0.5020
   86MOL0     H11599   5.984   3.991   9.210  1.8332 -0.4181  0.2633
   86MOL0     H11600   6.215   4.051   9.170  1.3258  2.0604 -0.3861
   86MOL0     H11601   6.118   4.173   9.242 -0.0502  0.3714 -0.5884
   86MOL0     H11602   6.250   4.281   9.086  0.3946  0.5021 -0.4985
   86MOL0     H11603   6.102   4.279   8.994 -1.1246 -0.3570  2.3759
   86MOL0     H11604   6.171   4.060   8.880  0.4139 -2.3293  2.4533
   86MOL0     H11605   6.281   4.202   8.850 -0.1615  0.1910  0.1870
   86MOL0     H11606   6.557   3.945   9.017 -0.5592 -2.5996 -0.0830
   86MOL0     H11607   5.913   3.929   8.876 -0.4658 -0.4323  1.3101
   86MOL0     H11608   5.806   3.748   8.786  0.7659 -0.6619  0.2661
   86MOL0     H11609   5.636   3.733   8.785  0.6468 -0.3223  1.4715
   86MOL0     H11610   5.709   3.801   8.647  0.0451  1.6966 -0.0590
   87MOL0     O11611   2.672   5.371   9.419 -0.4363 -0.4135 -0.2464
   87MOL0     C11612   2.554   5.334   9.426 -0.1622 -1.1253 -0.5745
   87MOL0     O11613   2.451   5.424   9.425 -0.3747 -0.0227  0.9298
   87MOL0     C11614   2.472   5.557   9.400 -0.6165  0.1098 -0.5852
   87MOL0     C11615   2.581   5.636   9.445  0.4465 -0.3909 -0.1184
   87MOL0     C11616   2.589   5.767   9.402 -0.1061  0.2950  0.3998
   87MOL0     C11617   2.489   5.824   9.320 -0.3518  1.0997 -0.1551
   87MOL0     O11618   2.485   5.951   9.282  0.4451  0.0321  0.1068
   87MOL0     C11619   2.499   5.969   9.142  0.0743 -0.1871  0.2890
   87MOL0     C11620   2.504   6.116   9.100  0.0563  0.1306 -0.7173
   87MOL0     C11621   2.387   6.212   9.153  0.6335 -0.6648 -0.6602
   87MOL0     C11622   2.383   6.348   9.074 -0.2896 -0.0700  0.6444
   87MOL0     C11623   2.262   6.429   9.109  0.0850  0.2634  0.1138
   87MOL0     C11624   2.256   6.559   9.033  0.4243 -0.6033  0.2086
   87MOL0     C11625   2.333   6.666   9.114 -0.4592 -0.1027 -0.0798
   87MOL0     C11626   2.371   6.780   9.005 -0.1449  1.1965 -0.0470
   87MOL0     N11627   2.288   6.902   9.007  0.5684  0.9296  0.3438
   87MOL0     C11628   2.321   7.023   9.072 -0.0512 -0.1466  0.3494
   87MOL0     C11629   2.222   7.101   9.051  0.4143 -0.4138  0.4752
   87MOL0     C11630   2.194   7.244   9.107  0.2873 -1.2365 -0.4252
   87MOL0     C11631   2.263   7.358   9.018  0.5226  1.2126 -0.0636
   87MOL0     C11632   2.421   7.363   9.027 -1.0890 -0.4266  0.0232
   87MOL0     C11633   2.462   7.388   9.174 -0.2905 -0.4457  0.6383
   87MOL0     O11634   2.604   7.414   9.211 -0.6216 -0.3396 -0.4349
   87MOL0     C11635   2.657   7.538   9.212 -0.6565 -0.0238  0.1004
   87MOL0     C11636   2.592   7.646   9.164 -0.4244 -0.6709  0.5454
   87MOL0     C11637   2.646   7.772   9.155  0.2018  0.3392  0.0209
   87MOL0     C11638   2.779   7.795   9.193 -1.0284 -0.1384  0.7140
   87MOL0     C11639   2.845   7.921   9.181 -0.0194 -0.0761  1.3665
   87MOL0     O11640   2.971   7.931   9.224  0.6692  0.6732  1.2155
   87MOL0     C11641   3.032   8.051   9.228  0.4240  0.3438  0.2051
   87MOL0     C11642   2.994   8.151   9.312  0.4250  0.0227  0.2736
   87MOL0     C11643   3.067   8.270   9.309  0.9844 -0.6241  0.7920
   87MOL0     C11644   3.172   8.290   9.218 -0.7458 -0.1163 -0.1936
   87MOL0     O11645   3.232   8.411   9.229 -0.0656  0.0228  0.1697
   87MOL0     C11646   3.334   8.448   9.136 -0.4212  0.3415 -0.1821
   87MOL0     C11647   3.469   8.370   9.168  0.2624 -0.5267  0.1427
   87MOL0     C11648   3.569   8.364   9.055 -0.1444  0.5898  0.8810
   87MOL0     C11649   3.538   8.241   8.963 -0.1874  0.2481  0.4996
   87MOL0     C11650   3.627   8.242   8.842  0.0170  0.4040 -0.8207
   87MOL0     C11651   3.768   8.190   8.876 -0.7285  0.1563 -0.4359
   87MOL0     C11652   3.855   8.171   8.749  0.1240  0.0990  0.1805
   87MOL0     C11653   3.926   8.302   8.708  0.9745 -0.1194 -1.3208
   87MOL0    Cl11654   4.021   8.259   8.565 -0.1113 -0.0401  0.1309
   87MOL0     C11655   3.208   8.188   9.127  0.2692  0.5456 -0.3705
   87MOL0     C11656   3.135   8.065   9.137  0.3059  0.6194 -0.1155
   87MOL0     O11657   2.783   8.022   9.136  0.2463  0.6211  0.6428
   87MOL0     C11658   2.846   7.680   9.238 -0.6139 -0.1844  0.3084
   87MOL0     C11659   2.790   7.553   9.244 -0.0060  0.1103  1.2868
   87MOL0     N11660   2.128   7.027   8.968 -0.0533  0.1946  0.6026
   87MOL0     N11661   2.165   6.906   8.967 -0.2129 -0.0432 -0.0764
   87MOL0     C11662   2.377   5.749   9.288  0.4555 -0.4576 -0.3135
   87MOL0     C11663   2.365   5.616   9.338  0.3917  0.1187  0.7923
   87MOL0     C11664   2.517   5.210   9.478  0.3369  0.1673 -0.4316
   87MOL0     C11665   2.427   5.211   9.588 -0.1809 -0.0164 -0.2691
   87MOL0     C11666   2.407   5.087   9.660 -1.0360  0.2824  0.7932
   87MOL0     C11667   2.477   4.974   9.618  0.2724  0.8647 -0.2590
   87MOL0     O11668   2.460   4.851   9.685  0.0996 -0.2334  0.6360
   87MOL0     C11669   2.479   4.853   9.836 -0.1648  0.0711 -0.2924
   87MOL0     C11670   2.343   4.839   9.905  0.8240  1.2216  0.2945
   87MOL0     C11671   2.274   4.713   9.826 -0.0749  0.4996 -0.0843
   87MOL0     C11672   2.125   4.698   9.859  0.1166 -0.4824 -0.3419
   87MOL0     C11673   2.114   4.659   9.999  0.5942 -0.0111 -0.8214
   87MOL0     C11674   2.088   4.636  10.121  1.3984  0.0169 -0.0808
   87MOL0     C11675   2.555   4.978   9.507 -0.5400 -0.2179 -0.1199
   87MOL0     C11676   2.583   5.091   9.440 -0.3591 -0.8754 -0.3397
   87MOL0     C11677   2.678   5.087   9.322  0.6943 -1.1313  0.1308
   87MOL0     H11678   2.655   5.597   9.515  0.5149  0.9763  0.6153
   87MOL0     H11679   2.681   5.819   9.425 -1.4180  3.8830 -1.6851
   87MOL0     H11680   2.584   5.917   9.099 -1.4843 -4.4953  1.9098
   87MOL0     H11681   2.410   5.928   9.093 -0.0406  2.5364 -2.0694
   87MOL0     H11682   2.489   6.105   8.992 -0.4314 -0.3078 -0.6117
   87MOL0     H11683   2.604   6.157   9.119 -0.4605  0.3091  1.9512
   87MOL0     H11684   2.403   6.247   9.255 -1.9167 -0.6479 -0.2050
   87MOL0     H11685   2.293   6.159   9.134  0.4680 -0.6081 -0.0251
   87MOL0     H11686   2.470   6.407   9.105  0.9751 -0.9693 -1.0783
   87MOL0     H11687   2.385   6.322   8.968 -2.0886  0.3475  0.4690
   87MOL0     H11688   2.195   6.357   9.062  0.2223 -0.1628  0.5598
   87MOL0     H11689   2.234   6.425   9.215 -2.3578  0.1340 -0.4685
   87MOL0     H11690   2.284   6.535   8.930  1.2603  1.4545 -0.0982
   87MOL0     H11691   2.154   6.599   9.029  1.5803  3.0692  2.4506
   87MOL0     H11692   2.424   6.625   9.158 -0.4045 -1.9232 -1.7640
   87MOL0     H11693   2.272   6.710   9.193 -1.0209 -1.7550  0.4455
   87MOL0     H11694   2.473   6.815   9.019  0.5371  0.2235 -2.0629
   87MOL0     H11695   2.360   6.733   8.906 -0.6819 -2.7698  1.6790
   87MOL0     H11696   2.422   7.039   9.107  1.7026 -3.0825 -2.7019
   87MOL0     H11697   2.084   7.245   9.105  0.2486  1.9558 -0.7840
   87MOL0     H11698   2.232   7.264   9.207  1.5697 -1.8561 -0.7710
   87MOL0     H11699   2.248   7.356   8.910 -0.9968  3.0578  0.0571
   87MOL0     H11700   2.208   7.445   9.054 -3.6961 -1.1310 -0.2547
   87MOL0     H11701   2.472   7.439   8.966  2.2549  0.1330  3.1367
   87MOL0     H11702   2.458   7.265   8.996 -2.3317 -1.3456  1.3285
   87MOL0     H11703   2.450   7.290   9.221  1.0033 -2.1468 -2.3198
   87MOL0     H11704   2.388   7.448   9.228 -1.1595 -0.7858 -0.1513
   87MOL0     H11705   2.487   7.652   9.137 -0.6400  2.1227  1.7366
   87MOL0     H11706   2.578   7.854   9.133 -2.0577 -2.3741 -4.3587
   87MOL0     H11707   2.920   8.137   9.391  0.1411 -1.0105 -0.1551
   87MOL0     H11708   3.046   8.346   9.384 -1.6304  0.7921 -1.1827
   87MOL0     H11709   3.311   8.447   9.029  1.7084 -1.0469 -0.6977
   87MOL0     H11710   3.356   8.554   9.149  0.3535  0.0524  1.1567
   87MOL0     H11711   3.514   8.426   9.251 -3.6357  1.1987  1.3207
   87MOL0     H11712   3.434   8.271   9.197 -1.5926  0.5388  1.8005
   87MOL0     H11713   3.570   8.459   9.001 -2.4163  2.4007  3.7186
   87MOL0     H11714   3.671   8.353   9.094 -0.9487 -1.1625  2.7324
   87MOL0     H11715   3.438   8.248   8.919 -0.1607 -0.7856  0.2504
   87MOL0     H11716   3.555   8.149   9.019  2.9135  0.9452  0.8782
   87MOL0     H11717   3.635   8.343   8.801 -0.5733 -0.3302 -2.8738
   87MOL0     H11718   3.578   8.179   8.767 -0.6112 -1.4709  1.0639
   87MOL0     H11719   3.819   8.255   8.946  1.7124  0.9573 -2.7820
   87MOL0     H11720   3.750   8.092   8.922 -1.7472  0.1520 -0.8099
   87MOL0     H11721   3.792   8.140   8.666  0.8805  0.5401 -0.5713
   87MOL0     H11722   3.942   8.108   8.770  0.0013 -0.3892 -0.7614
   87MOL0     H11723   3.854   8.381   8.686  2.9852  1.6288 -1.9483
   87MOL0     H11724   4.011   8.335   8.769  0.3396  0.4121 -0.7058
   87MOL0     H11725   3.292   8.191   9.058 -0.4515 -0.7482 -1.3402
   87MOL0     H11726   3.170   7.978   9.083  0.1514  1.5341 -1.7606
   87MOL0     H11727   2.952   7.693   9.259 -0.4819  1.0242 -0.9806
   87MOL0     H11728   2.856   7.469   9.265  0.8950  1.0310  2.2504
   87MOL0     H11729   2.297   5.799   9.233 -0.3578 -2.2365 -0.8192
   87MOL0     H11730   2.274   5.560   9.319  1.5489 -1.5713  0.0364
   87MOL0     H11731   2.380   5.307   9.609  1.1075  0.8272 -1.1084
   87MOL0     H11732   2.336   5.084   9.742 -2.0178 -1.5102 -0.0644
   87MOL0     H11733   2.532   4.943   9.871  0.4800 -1.0832  1.8456
   87MOL0     H11734   2.533   4.766   9.873 -1.1344 -1.0592 -1.4657
   87MOL0     H11735   2.280   4.924   9.879  2.0956  1.2123 -3.5865
   87MOL0     H11736   2.360   4.822  10.011 -0.1143 -1.1149  0.1358
   87MOL0     H11737   2.335   4.623   9.831  0.3052  0.7674  0.1540
   87MOL0     H11738   2.274   4.741   9.721 -1.0004 -0.5910 -0.3860
   87MOL0     H11739   2.072   4.792   9.843  0.1099 -0.9027 -3.5316
   87MOL0     H11740   2.076   4.634   9.785 -0.8846  0.7303 -0.7552
   87MOL0     H11741   2.070   4.621  10.225 -2.1394  0.2595 -0.5336
   87MOL0     H11742   2.595   4.883   9.472 -0.7386 -0.2515 -0.2568
   87MOL0     H11743   2.770   5.138   9.354 -0.4955  0.4419  1.1616
   87MOL0     H11744   2.706   4.985   9.293  2.1315 -1.2255  1.6915
   87MOL0     H11745   2.640   5.141   9.235  2.2030  2.8753  1.7393
   88MOL0     O11746   6.676  11.338   6.504  0.0727 -1.2734 -0.0244
   88MOL0     C11747   6.595  11.421   6.457 -0.3289 -0.0819 -0.6793
   88MOL0     O11748   6.576  11.542   6.516 -0.1540 -0.0507  0.9599
   88MOL0     C11749   6.678  11.594   6.596  0.3318 -0.3131  0.6271
   88MOL0     C11750   6.813  11.559   6.595 -0.3998  1.3239  0.5294
   88MOL0     C11751   6.902  11.623   6.687 -0.0898  0.8798 -0.4838
   88MOL0     C11752   6.864  11.724   6.780  0.4755  1.1647 -0.2488
   88MOL0     O11753   6.958  11.785   6.856  0.0409 -1.0146 -0.2024
   88MOL0     C11754   7.081  11.732   6.871  0.0190  0.1292  0.4164
   88MOL0     C11755   7.157  11.793   6.991  0.4382 -0.2356  0.2257
   88MOL0     C11756   7.092  11.767   7.124  0.0091  0.4620  0.2515
   88MOL0     C11757   7.196  11.797   7.234  0.3225 -0.4010 -0.0476
   88MOL0     C11758   7.139  11.800   7.376  0.3075 -0.3266 -0.1282
   88MOL0     C11759   7.105  11.660   7.420  0.0561  0.5493  1.1650
   88MOL0     C11760   7.019  11.650   7.548 -0.7781  0.2359 -0.3259
   88MOL0     C11761   7.095  11.709   7.663  0.4992 -0.4472 -0.2486
   88MOL0     N11762   7.065  11.642   7.793  1.3288 -0.6060  0.7063
   88MOL0     C11763   7.129  11.529   7.838  1.0425 -0.8336  0.3331
   88MOL0     C11764   7.055  11.506   7.953  0.6199  0.4238 -0.4774
   88MOL0     C11765   7.075  11.384   8.038 -0.6545  0.2309  0.2282
   88MOL0     C11766   7.101  11.424   8.179  0.1332 -0.8485  0.2608
   88MOL0     C11767   7.059  11.312   8.277 -0.0693  0.3819  0.2497
   88MOL0     C11768   7.136  11.333   8.414  0.1114  0.1009 -0.2562
   88MOL0     O11769   7.096  11.235   8.511  0.6142 -0.2364  0.0957
   88MOL0     C11770   7.148  11.110   8.525 -1.1329 -0.3548 -0.0736
   88MOL0     C11771   7.078  11.013   8.593  0.3867 -0.4248 -0.0084
   88MOL0     C11772   7.128  10.886   8.608  0.3317  0.7097  0.4021
   88MOL0     C11773   7.252  10.842   8.548  0.3414  0.4816 -0.2683
   88MOL0     C11774   7.284  10.687   8.562 -0.4699  0.5461 -0.1848
   88MOL0     O11775   7.218  10.617   8.669 -0.4470 -0.3162 -0.4798
   88MOL0     C11776   7.209  10.484   8.686 -0.9300  0.3750  0.1307
   88MOL0     C11777   7.229  10.430   8.808 -0.6247  1.5441  0.4560
   88MOL0     C11778   7.222  10.289   8.817 -0.2908  0.4355 -0.0746
   88MOL0     C11779   7.213  10.201   8.708  1.0815  0.6370 -0.6385
   88MOL0     O11780   7.211  10.065   8.729 -0.0374  0.4408 -0.6373
   88MOL0     C11781   7.125   9.988   8.647 -0.0318  0.2232 -1.1332
   88MOL0     C11782   7.078   9.856   8.715 -0.3115  0.5638 -0.1396
   88MOL0     C11783   6.952   9.790   8.669 -0.2485 -0.1660  0.1869
   88MOL0     C11784   6.933   9.662   8.741  0.0552 -0.4185 -0.2285
   88MOL0     C11785   6.795   9.609   8.785 -0.4703  0.1464  0.4670
   88MOL0     C11786   6.787   9.456   8.815  0.0765 -0.4413 -0.3392
   88MOL0     C11787   6.884   9.418   8.923  0.0289  1.1160  0.1772
   88MOL0     C11788   6.888   9.264   8.943  0.2327 -0.6222  0.0913
   88MOL0    Cl11789   6.740   9.197   9.031  0.0600  0.2193  0.2810
   88MOL0     C11790   7.188  10.259   8.583 -0.6074 -0.6214  0.7493
   88MOL0     C11791   7.184  10.399   8.569  0.0406  0.1922  0.2318
   88MOL0     O11792   7.358  10.640   8.482  0.0143 -0.2235 -0.6246
   88MOL0     C11793   7.324  10.940   8.475 -0.4238 -1.5917 -0.0294
   88MOL0     C11794   7.267  11.067   8.465  0.0496 -0.8095  0.9120
   88MOL0     N11795   6.957  11.606   7.975 -0.4792 -0.8624 -0.5193
   88MOL0     N11796   6.960  11.689   7.867  0.0434 -0.1720  0.1723
   88MOL0     C11797   6.730  11.756   6.781 -0.2596 -0.4726  0.6193
   88MOL0     C11798   6.638  11.691   6.689 -0.6596  0.5578 -0.3692
   88MOL0     C11799   6.515  11.395   6.340  0.2091  0.1441  0.8735
   88MOL0     C11800   6.403  11.473   6.321 -0.2041 -0.4657  0.1128
   88MOL0     C11801   6.313  11.460   6.219 -1.0645 -0.5332 -0.0900
   88MOL0     C11802   6.327  11.363   6.122 -0.5537  0.3930  0.7472
   88MOL0     O11803   6.237  11.330   6.012  0.0323  0.5384 -1.0834
   88MOL0     C11804   6.110  11.401   6.021 -0.0997 -0.6954 -0.6556
   88MOL0     C11805   5.992  11.335   5.950 -0.1657  0.4720  0.4817
   88MOL0     C11806   5.864  11.405   5.997  0.4247 -0.5544  0.0062
   88MOL0     C11807   5.743  11.321   5.950 -0.7242 -0.1084  0.3487
   88MOL0     C11808   5.613  11.404   5.977  0.5289 -0.4730  0.2130
   88MOL0     C11809   5.509  11.460   6.012  0.5375  0.1512  0.5392
   88MOL0     C11810   6.436  11.275   6.134 -0.6328  0.4848 -0.7940
   88MOL0     C11811   6.537  11.294   6.234  0.1740 -0.3805  0.1906
   88MOL0     C11812   6.648  11.187   6.245  0.6072  0.3500 -0.6157
   88MOL0     H11813   6.857  11.491   6.524  0.2262  2.1204  0.1357
   88MOL0     H11814   7.008  11.607   6.669  0.4172  3.2549  0.0425
   88MOL0     H11815   7.076  11.625   6.892 -2.4502 -0.0125 -0.5127
   88MOL0     H11816   7.139  11.752   6.781  0.3210  0.5010  0.6870
   88MOL0     H11817   7.160  11.900   6.969  1.6756 -0.4228 -0.6932
   88MOL0     H11818   7.260  11.756   6.989  0.6824  0.4663 -0.9114
   88MOL0     H11819   7.056  11.664   7.132  0.9287  0.2099  1.5672
   88MOL0     H11820   7.015  11.843   7.138 -0.9784 -0.1234 -1.6719
   88MOL0     H11821   7.281  11.728   7.231 -0.0696 -0.8769 -0.3371
   88MOL0     H11822   7.238  11.892   7.202  0.1611 -0.7669 -1.4334
   88MOL0     H11823   7.209  11.855   7.440  1.5870 -1.7876 -0.2304
   88MOL0     H11824   7.047  11.858   7.366  1.7086  1.6526 -3.0288
   88MOL0     H11825   7.051  11.612   7.338 -3.2489  2.7549  1.8768
   88MOL0     H11826   7.192  11.595   7.434  1.1974  1.6206 -0.6134
   88MOL0     H11827   7.003  11.545   7.571 -0.1299  0.0076 -0.8918
   88MOL0     H11828   6.926  11.705   7.529 -0.5863  0.5973 -0.2319
   88MOL0     H11829   7.201  11.694   7.640  0.2673 -2.5118 -0.1352
   88MOL0     H11830   7.065  11.814   7.667 -0.3583 -0.6881  3.3858
   88MOL0     H11831   7.216  11.484   7.794  0.5242  0.1519 -1.8453
   88MOL0     H11832   6.985  11.323   8.029 -0.1615 -1.0547  2.8647
   88MOL0     H11833   7.153  11.321   7.995  0.9375  1.1785  1.6035
   88MOL0     H11834   7.209  11.439   8.194 -0.0013  1.6489 -0.8412
   88MOL0     H11835   7.063  11.523   8.203 -1.2116 -1.1448 -0.5843
   88MOL0     H11836   7.092  11.212   8.248  1.0869  0.3448  1.6107
   88MOL0     H11837   6.952  11.307   8.300 -0.0346 -2.1701  0.0581
   88MOL0     H11838   7.115  11.433   8.452  0.6346  0.1463 -0.0801
   88MOL0     H11839   7.244  11.351   8.408  0.1783 -0.0555  0.4231
   88MOL0     H11840   6.981  11.045   8.630 -0.2343 -4.4849  2.4292
   88MOL0     H11841   7.076  10.815   8.671  3.0434  0.0828  2.1090
   88MOL0     H11842   7.262  10.486   8.895  3.4396 -0.0699  0.1953
   88MOL0     H11843   7.243  10.236   8.910 -1.0090  0.6305  0.2108
   88MOL0     H11844   7.031  10.044   8.637 -0.3725 -0.4995 -2.1857
   88MOL0     H11845   7.165   9.963   8.548 -1.6227 -2.6656 -1.1706
   88MOL0     H11846   7.158   9.782   8.710  0.6138  1.6007 -3.5623
   88MOL0     H11847   7.072   9.879   8.821  2.0791 -0.3947  0.2640
   88MOL0     H11848   6.863   9.848   8.696 -0.3514 -1.2299  2.3987
   88MOL0     H11849   6.964   9.770   8.562  1.9535 -3.6616  0.9382
   88MOL0     H11850   6.982   9.668   8.838 -1.0234 -2.9281  0.5624
   88MOL0     H11851   6.987   9.587   8.681 -0.1620 -2.0808  1.5475
   88MOL0     H11852   6.717   9.648   8.719 -1.6547 -0.6491  1.3682
   88MOL0     H11853   6.773   9.670   8.874 -0.3567 -1.7285  1.8415
   88MOL0     H11854   6.684   9.434   8.843 -0.4268  0.7838 -1.1787
   88MOL0     H11855   6.791   9.391   8.727  1.1574 -0.4970 -0.2647
   88MOL0     H11856   6.854   9.470   9.014 -0.5399 -2.7770  2.4252
   88MOL0     H11857   6.989   9.433   8.896  0.2675  0.5531  0.7656
   88MOL0     H11858   6.906   9.206   8.852 -0.5665  0.8496 -1.0529
   88MOL0     H11859   6.981   9.263   9.001  1.5025  1.0645 -1.7750
   88MOL0     H11860   7.176  10.188   8.501 -2.3445 -0.3040  0.6948
   88MOL0     H11861   7.164  10.450   8.476  1.4798  2.8723  1.2768
   88MOL0     H11862   7.422  10.911   8.439 -0.2842 -1.8754  0.5537
   88MOL0     H11863   7.316  11.137   8.398 -1.2463 -2.5899 -2.1126
   88MOL0     H11864   6.705  11.828   6.858  1.0473 -0.3072  0.9119
   88MOL0     H11865   6.540  11.732   6.667  1.1403  4.5060 -2.0478
   88MOL0     H11866   6.386  11.560   6.385 -1.1335  0.0411 -0.7951
   88MOL0     H11867   6.241  11.542   6.216 -0.4068  0.0499 -0.3762
   88MOL0     H11868   6.115  11.502   5.980  0.2871 -0.3749  0.1599
   88MOL0     H11869   6.079  11.409   6.126  3.0754 -0.7039  0.3911
   88MOL0     H11870   6.006  11.233   5.987  0.4798 -1.0646 -3.5457
   88MOL0     H11871   5.974  11.328   5.842 -2.3579  3.7972  0.4743
   88MOL0     H11872   5.855  11.501   5.946 -0.2728 -2.1003 -3.0140
   88MOL0     H11873   5.854  11.421   6.105  1.1457 -2.2828  0.3656
   88MOL0     H11874   5.747  11.288   5.845 -3.4017  3.2841 -1.0373
   88MOL0     H11875   5.741  11.225   6.002  2.5927 -1.2039 -1.2468
   88MOL0     H11876   5.417  11.507   6.041  1.8735  1.3505  3.1383
   88MOL0     H11877   6.442  11.192   6.065 -1.3670 -1.3440  1.2230
   88MOL0     H11878   6.638  11.119   6.160  2.5102 -0.6731 -0.0645
   88MOL0     H11879   6.747  11.232   6.236  1.0731 -0.3833  0.7033
   88MOL0     H11880   6.641  11.131   6.338  0.7209  0.3598 -0.6014
   89MOL0     O11881   6.610   4.631   0.586  0.7378  0.7614 -0.2230
   89MOL0     C11882   6.641   4.716   0.656  0.0064  0.0340  0.0165
   89MOL0     O11883   6.553   4.796   0.731 -0.5505  0.2318 -0.8246
   89MOL0     C11884   6.416   4.782   0.697 -0.4359 -0.5590  0.3449
   89MOL0     C11885   6.367   4.854   0.585 -0.0251  0.0964  0.3464
   89MOL0     C11886   6.228   4.845   0.554  0.4785  0.0443  0.7562
   89MOL0     C11887   6.139   4.771   0.631  0.6078  0.4112  0.1878
   89MOL0     O11888   6.002   4.767   0.593  0.3216  0.0267  0.1456
   89MOL0     C11889   5.910   4.739   0.701  0.1922  0.0583 -0.7496
   89MOL0     C11890   5.776   4.802   0.674 -0.2396  0.4192  0.2264
   89MOL0     C11891   5.797   4.959   0.678 -0.2429  0.8490 -0.2113
   89MOL0     C11892   5.671   5.023   0.626 -0.8335 -0.2292 -0.4061
   89MOL0     C11893   5.695   5.175   0.609 -0.2788  0.9114 -0.4625
   89MOL0     C11894   5.563   5.251   0.572 -0.2031 -0.5684  0.5350
   89MOL0     C11895   5.604   5.395   0.536 -0.5613  0.0100 -1.0010
   89MOL0     C11896   5.478   5.470   0.493  0.8744  0.2015 -0.3079
   89MOL0     N11897   5.420   5.441   0.356 -0.1902  0.4589  0.2796
   89MOL0     C11898   5.359   5.330   0.306 -0.5461 -0.1112  0.0965
   89MOL0     C11899   5.331   5.359   0.178 -0.0314  0.0782  0.0122
   89MOL0     C11900   5.253   5.264   0.094 -0.5355  0.7247  0.7027
   89MOL0     C11901   5.309   5.123   0.103 -0.9489 -0.3926  0.6496
   89MOL0     C11902   5.455   5.118   0.049 -0.0973  0.6857 -0.6859
   89MOL0     C11903   5.505   4.973   0.057 -0.4996  0.4922  0.5112
   89MOL0     O11904   5.592   4.970   0.165 -0.1582 -0.7176  0.2722
   89MOL0     C11905   5.724   4.969   0.135 -0.1916 -0.4651 -0.0646
   89MOL0     C11906   5.784   4.995   0.006  0.1618 -0.9216 -0.7917
   89MOL0     C11907   5.917   4.973  -0.013  0.5445  0.9453 -0.4911
   89MOL0     C11908   5.997   4.919   0.086  0.0419  0.6660 -0.5066
   89MOL0     C11909   6.127   4.855   0.058 -0.4095 -0.2803 -0.0401
   89MOL0     O11910   6.187   4.790   0.155 -0.3401  0.1024  0.0477
   89MOL0     C11911   6.323   4.758   0.153  0.1770  0.1304  0.9566
   89MOL0     C11912   6.344   4.658   0.261 -0.0865 -0.5749  0.6398
   89MOL0     C11913   6.475   4.617   0.283  1.5275 -1.2896  0.3614
   89MOL0     C11914   6.579   4.677   0.214 -0.0538  0.1790  0.6564
   89MOL0     O11915   6.712   4.641   0.233  0.3032 -0.0168  0.0496
   89MOL0     C11916   6.743   4.532   0.317 -0.1649 -0.1251  0.9729
   89MOL0     C11917   6.886   4.485   0.271 -0.0521  0.2425 -0.1985
   89MOL0     C11918   7.014   4.561   0.317 -0.1704 -0.0414 -0.1884
   89MOL0     C11919   7.132   4.480   0.278  0.2057 -0.6709 -0.9542
   89MOL0     C11920   7.229   4.568   0.202 -0.8206 -0.6353  0.3398
   89MOL0     C11921   7.287   4.689   0.280  0.3645  1.0413 -0.2203
   89MOL0     C11922   7.424   4.726   0.224  0.5578  0.2062  0.6283
   89MOL0     C11923   7.468   4.855   0.287  0.5712 -0.0457 -0.3825
   89MOL0    Cl11924   7.543   4.828   0.452 -0.0080  0.4507 -0.8970
   89MOL0     C11925   6.560   4.788   0.128  0.4805 -0.5022  0.1517
   89MOL0     C11926   6.437   4.823   0.083  0.1105 -0.3545  0.6714
   89MOL0     O11927   6.182   4.881  -0.052 -0.5243  0.2487 -0.3010
   89MOL0     C11928   5.951   4.926   0.219 -0.4404 -0.3784  0.4883
   89MOL0     C11929   5.811   4.942   0.240  0.2207 -0.5650 -1.0432
   89MOL0     N11930   5.376   5.482   0.143  0.2123 -0.4254 -0.0133
   89MOL0     N11931   5.432   5.530   0.249  0.2817  0.5870 -0.4384
   89MOL0     C11932   6.195   4.688   0.731 -0.5417 -0.4644 -0.0087
   89MOL0     C11933   6.333   4.696   0.760 -0.3748  0.1180  0.4754
   89MOL0     C11934   6.782   4.731   0.675 -0.0312 -0.5073  0.1742
   89MOL0     C11935   6.850   4.615   0.715 -1.1912  0.0994 -0.3712
   89MOL0     C11936   6.987   4.622   0.712  1.0345  0.0956 -0.4397
   89MOL0     C11937   7.057   4.743   0.701  0.5186 -0.2439 -0.4139
   89MOL0     O11938   7.189   4.771   0.733  0.7661 -0.4912  0.0479
   89MOL0     C11939   7.267   4.670   0.794 -0.2041 -0.4152 -0.6910
   89MOL0     C11940   7.407   4.692   0.745  0.9017  0.0130 -1.3005
   89MOL0     C11941   7.509   4.608   0.819  0.0648  0.3983 -0.3324
   89MOL0     C11942   7.506   4.453   0.795 -0.4668  0.9247  0.9697
   89MOL0     C11943   7.516   4.420   0.654 -0.0498 -0.1372  0.5726
   89MOL0     C11944   7.533   4.396   0.536 -0.1400 -0.4925 -0.7005
   89MOL0     C11945   6.988   4.860   0.666 -0.4178 -0.4026  0.0651
   89MOL0     C11946   6.850   4.856   0.665 -0.3896  0.5267  1.0375
   89MOL0     C11947   6.784   4.983   0.633 -1.3777  0.3904  0.2013
   89MOL0     H11948   6.419   4.921   0.517 -2.1393  0.1755 -1.3177
   89MOL0     H11949   6.188   4.903   0.471 -0.1755  1.0403  1.7395
   89MOL0     H11950   5.907   4.630   0.711 -0.7294  0.2644  2.7525
   89MOL0     H11951   5.964   4.770   0.791  0.0839  0.6401 -0.8824
   89MOL0     H11952   5.704   4.782   0.753  0.9027 -0.0933  1.1747
   89MOL0     H11953   5.739   4.763   0.579 -1.7583  0.9203  0.5928
   89MOL0     H11954   5.882   4.987   0.615  0.4166 -1.3194 -0.3368
   89MOL0     H11955   5.825   4.995   0.777 -0.1088 -0.9720  0.4440
   89MOL0     H11956   5.643   4.973   0.533  4.5585 -2.3027 -1.3132
   89MOL0     H11957   5.598   4.999   0.704 -1.0429 -2.2358 -1.1647
   89MOL0     H11958   5.737   5.215   0.702 -4.6693 -1.6046  3.0010
   89MOL0     H11959   5.772   5.188   0.533  2.2114 -3.3706  0.9535
   89MOL0     H11960   5.531   5.211   0.476 -2.0515 -0.9999  1.2928
   89MOL0     H11961   5.488   5.238   0.650 -1.5837  1.9845 -0.2226
   89MOL0     H11962   5.675   5.395   0.453 -0.5271 -3.3209 -1.0725
   89MOL0     H11963   5.648   5.442   0.625  4.9225 -2.6050 -1.9837
   89MOL0     H11964   5.394   5.466   0.563  0.6212 -0.2818 -0.6246
   89MOL0     H11965   5.503   5.576   0.489 -2.1913  1.0248 -0.6614
   89MOL0     H11966   5.336   5.240   0.361  1.8227 -2.4472 -2.4297
   89MOL0     H11967   5.148   5.258   0.122 -0.2483  1.1828  1.9485
   89MOL0     H11968   5.247   5.294  -0.011  1.6058 -0.8501  0.0455
   89MOL0     H11969   5.302   5.080   0.203 -0.7811 -3.2720 -0.4873
   89MOL0     H11970   5.244   5.068   0.035  1.0268 -0.6421 -1.1416
   89MOL0     H11971   5.532   5.175   0.102  0.0570  1.2957 -1.5338
   89MOL0     H11972   5.463   5.143  -0.057  2.2385 -0.3905 -0.8440
   89MOL0     H11973   5.537   4.929  -0.038  1.3422  2.8573 -0.0610
   89MOL0     H11974   5.418   4.914   0.088  1.3844 -3.2754 -0.7889
   89MOL0     H11975   5.724   5.032  -0.076 -1.1128 -0.0167  0.4919
   89MOL0     H11976   5.957   4.992  -0.113  1.7132  1.1168 -0.0057
   89MOL0     H11977   6.266   4.619   0.326  1.1271  1.6795  3.6896
   89MOL0     H11978   6.489   4.551   0.368 -1.9465 -1.2449  1.1531
   89MOL0     H11979   6.754   4.553   0.423 -2.1596 -0.8827  1.3700
   89MOL0     H11980   6.671   4.450   0.308 -0.1951  0.1258 -2.1761
   89MOL0     H11981   6.887   4.382   0.308  1.3557  0.4396  0.3802
   89MOL0     H11982   6.884   4.480   0.162  1.5587  0.5743 -0.2627
   89MOL0     H11983   7.009   4.658   0.267 -2.9922 -1.2457 -2.5344
   89MOL0     H11984   7.017   4.570   0.426  2.0561  0.1519 -0.2231
   89MOL0     H11985   7.100   4.407   0.203  1.2085  0.6960 -2.7960
   89MOL0     H11986   7.170   4.446   0.374 -3.7285 -0.4571  0.8512
   89MOL0     H11987   7.185   4.608   0.111 -0.7594 -0.0102  0.5827
   89MOL0     H11988   7.314   4.504   0.175  2.6448  2.0753  3.7052
   89MOL0     H11989   7.212   4.769   0.273  0.9662  1.6705  0.4361
   89MOL0     H11990   7.304   4.662   0.385  1.5107  2.5669  0.0224
   89MOL0     H11991   7.406   4.749   0.119 -0.4426  1.8193  1.1078
   89MOL0     H11992   7.483   4.636   0.241  0.6166  0.0167 -0.4969
   89MOL0     H11993   7.543   4.897   0.221  1.2425  2.5827  1.8721
   89MOL0     H11994   7.392   4.934   0.284 -1.1602 -1.6395 -0.9473
   89MOL0     H11995   6.650   4.831   0.087 -0.0340  0.3560 -0.1121
   89MOL0     H11996   6.422   4.892   0.001 -1.8462  0.2149  1.4517
   89MOL0     H11997   6.013   4.909   0.307  1.1685 -0.9583 -0.7103
   89MOL0     H11998   5.765   4.942   0.338 -0.9216  2.2184 -1.4860
   89MOL0     H11999   6.139   4.616   0.791 -1.8002  0.1165 -0.4493
   89MOL0     H12000   6.375   4.633   0.838  0.2927 -3.5826 -2.6007
   89MOL0     H12001   6.813   4.517   0.742  3.1678 -2.0742 -1.2273
   89MOL0     H12002   7.038   4.533   0.748 -0.1595  0.4197  2.3576
   89MOL0     H12003   7.234   4.569   0.770 -2.3248 -0.3833  1.6315
   89MOL0     H12004   7.257   4.674   0.903 -0.6951  0.5854 -0.7559
   89MOL0     H12005   7.435   4.796   0.759 -2.9261  1.7081 -4.3603
   89MOL0     H12006   7.409   4.672   0.638  0.3503 -0.9867 -1.1424
   89MOL0     H12007   7.515   4.628   0.927  0.9251 -1.7521  0.0683
   89MOL0     H12008   7.603   4.651   0.784  0.7661  0.8915  1.9867
   89MOL0     H12009   7.595   4.408   0.839  2.2188  3.0789 -1.8383
   89MOL0     H12010   7.414   4.406   0.830 -1.2857  1.4802 -0.3415
   89MOL0     H12011   7.553   4.359   0.438  3.5536 -3.2006  0.8599
   89MOL0     H12012   7.041   4.950   0.638 -1.2075 -0.6855 -2.6705
   89MOL0     H12013   6.680   5.001   0.660 -1.0026  1.8319  0.7543
   89MOL0     H12014   6.834   5.064   0.686  3.5703 -0.4259 -2.5811
   89MOL0     H12015   6.814   5.011   0.531  0.2925 -0.4390  0.4228
   90MOL0     O12016   4.228   4.065   5.141 -0.4751  0.0823  0.3905
   90MOL0     C12017   4.264   4.106   5.031  0.1091 -0.0562  0.4597
   90MOL0     O12018   4.336   4.220   5.003 -0.3234 -0.0795 -0.7941
   90MOL0     C12019   4.359   4.314   5.101 -0.0202 -0.4338  0.1279
   90MOL0     C12020   4.477   4.310   5.170 -0.3696 -0.5872 -0.3090
   90MOL0     C12021   4.508   4.412   5.264  0.6194 -0.0379 -0.2410
   90MOL0     C12022   4.432   4.527   5.266 -0.4210  0.5047  0.2095
   90MOL0     O12023   4.460   4.624   5.365 -0.4744  0.9074  0.6351
   90MOL0     C12024   4.350   4.716   5.403 -0.4367  0.0159  0.0474
   90MOL0     C12025   4.396   4.773   5.540 -0.1890 -0.3249  0.2402
   90MOL0     C12026   4.527   4.853   5.512 -0.9292 -1.1629  0.0355
   90MOL0     C12027   4.559   4.980   5.602  0.0819  0.3316  0.1683
   90MOL0     C12028   4.679   5.055   5.559 -0.3178 -0.4572  0.1459
   90MOL0     C12029   4.696   5.185   5.647  0.2768  0.3561 -0.3590
   90MOL0     C12030   4.834   5.255   5.617  0.2904  0.2717 -0.2624
   90MOL0     C12031   4.861   5.357   5.736  0.9216  0.1869 -0.4784
   90MOL0     N12032   4.978   5.448   5.734  0.8915  0.6828  0.1851
   90MOL0     C12033   5.005   5.555   5.809  0.2075 -0.5112 -0.2693
   90MOL0     C12034   5.108   5.620   5.742 -0.2502 -0.8722 -0.4684
   90MOL0     C12035   5.188   5.735   5.798 -0.9701  0.0524 -0.6235
   90MOL0     C12036   5.098   5.857   5.805  0.4334 -0.1082  0.4142
   90MOL0     C12037   5.168   5.991   5.820 -0.3583 -0.0147  0.3458
   90MOL0     C12038   5.244   6.033   5.687  0.7924 -0.1049  0.2102
   90MOL0     O12039   5.313   6.160   5.698 -0.6678  0.8508  0.7739
   90MOL0     C12040   5.402   6.166   5.797  0.8952  0.3897  0.2187
   90MOL0     C12041   5.506   6.071   5.809 -0.5585 -0.0321  0.8776
   90MOL0     C12042   5.613   6.091   5.901  1.3240 -0.3231 -0.8648
   90MOL0     C12043   5.627   6.209   5.967  0.1020 -0.4448  0.6049
   90MOL0     C12044   5.747   6.240   6.050 -0.2131  0.9086  0.0348
   90MOL0     O12045   5.730   6.316   6.163 -0.2094  0.6036 -0.4535
   90MOL0     C12046   5.842   6.325   6.245  0.2732  0.4947  0.1158
   90MOL0     C12047   5.926   6.222   6.285  0.2331  0.0291  0.4595
   90MOL0     C12048   6.027   6.243   6.376 -0.9069 -0.6849 -0.8987
   90MOL0     C12049   6.043   6.370   6.428  0.4575 -0.5501 -0.3747
   90MOL0     O12050   6.137   6.410   6.521  0.0119  0.0909 -0.1716
   90MOL0     C12051   6.250   6.321   6.543  0.4762 -0.1128 -0.2739
   90MOL0     C12052   6.350   6.379   6.649 -0.1922 -0.2804  1.3291
   90MOL0     C12053   6.393   6.528   6.617  0.0691 -0.0652 -0.2983
   90MOL0     C12054   6.505   6.579   6.713  0.3763  0.6673  0.1428
   90MOL0     C12055   6.461   6.586   6.860 -0.0887 -0.6314  0.2245
   90MOL0     C12056   6.539   6.680   6.956 -0.2534 -0.1000  0.3660
   90MOL0     C12057   6.560   6.815   6.902 -0.7176 -0.1450  0.7291
   90MOL0     C12058   6.443   6.901   6.863 -0.0526  0.2818 -0.1424
   90MOL0    Cl12059   6.498   7.064   6.815  0.2027 -0.2067  0.0984
   90MOL0     C12060   5.953   6.474   6.390 -0.0537  0.2338 -0.9100
   90MOL0     C12061   5.861   6.452   6.293 -0.1717 -0.3111  0.4699
   90MOL0     O12062   5.855   6.184   6.013  1.2944 -0.0443 -0.1475
   90MOL0     C12063   5.526   6.303   5.965  1.0249  0.4998 -0.4181
   90MOL0     C12064   5.424   6.283   5.873  0.2497 -0.0409  0.0873
   90MOL0     N12065   5.136   5.547   5.630  0.6251 -0.7928  0.6560
   90MOL0     N12066   5.053   5.447   5.621 -0.0603 -0.6380 -0.2867
   90MOL0     C12067   4.322   4.534   5.188  0.2987  0.9339  0.3900
   90MOL0     C12068   4.277   4.433   5.103  0.6325 -0.3727  0.2748
   90MOL0     C12069   4.248   4.019   4.917  0.1619 -0.2211  1.5813
   90MOL0     C12070   4.234   3.880   4.946 -1.3292 -0.2855  0.2822
   90MOL0     C12071   4.207   3.795   4.837 -0.7135  0.2771 -0.1641
   90MOL0     C12072   4.205   3.844   4.702 -0.8264 -0.1711 -1.0308
   90MOL0     O12073   4.185   3.768   4.589 -0.0424 -0.1796  0.0504
   90MOL0     C12074   4.136   3.631   4.613  0.4303  0.0788  0.0044
   90MOL0     C12075   4.102   3.557   4.491  0.6319  1.0798 -0.3240
   90MOL0     C12076   4.237   3.517   4.417  0.0662  0.3823 -0.8100
   90MOL0     C12077   4.202   3.432   4.299  0.1086 -0.8937 -0.4275
   90MOL0     C12078   4.133   3.306   4.346  0.0250 -0.2071  0.4640
   90MOL0     C12079   4.092   3.201   4.390 -0.2722  0.9083 -0.4573
   90MOL0     C12080   4.211   3.984   4.684  0.3553 -0.8028  0.1175
   90MOL0     C12081   4.233   4.080   4.784  0.2097  0.4942 -0.1835
   90MOL0     C12082   4.206   4.227   4.749 -0.5674  0.7474  0.6076
   90MOL0     H12083   4.551   4.231   5.161 -0.8246 -1.0659  0.0594
   90MOL0     H12084   4.592   4.396   5.330 -0.4018 -2.3748  0.5947
   90MOL0     H12085   4.338   4.797   5.330 -2.2616 -0.9144 -0.7503
   90MOL0     H12086   4.251   4.669   5.411 -0.2536 -0.3604  0.0785
   90MOL0     H12087   4.399   4.698   5.621 -1.3224 -1.2903 -0.5900
   90MOL0     H12088   4.324   4.848   5.574  1.6673  1.6072  0.1189
   90MOL0     H12089   4.534   4.899   5.412 -0.6991 -2.7970 -0.7292
   90MOL0     H12090   4.613   4.787   5.528 -1.1472 -1.3978  0.2429
   90MOL0     H12091   4.469   5.041   5.591 -0.9874 -1.1851  0.1957
   90MOL0     H12092   4.584   4.962   5.707 -1.2257 -0.9075  0.2920
   90MOL0     H12093   4.769   4.995   5.572  0.9535  1.8222  2.7864
   90MOL0     H12094   4.662   5.083   5.454 -0.2214  1.8554  0.6928
   90MOL0     H12095   4.608   5.248   5.637 -0.7173 -0.4657  2.3669
   90MOL0     H12096   4.705   5.152   5.751 -1.4265 -0.9963 -0.5871
   90MOL0     H12097   4.834   5.302   5.519 -1.6992 -1.1511 -1.0160
   90MOL0     H12098   4.915   5.181   5.619  0.6244  0.6150 -0.7574
   90MOL0     H12099   4.781   5.431   5.726  1.0350  0.1564 -1.7940
   90MOL0     H12100   4.869   5.304   5.831  1.1103  0.4228 -0.3628
   90MOL0     H12101   4.970   5.576   5.909 -1.5550 -2.4702 -0.4033
   90MOL0     H12102   5.221   5.693   5.894  1.9768  3.6054  0.1268
   90MOL0     H12103   5.279   5.753   5.740 -0.5152 -0.6167 -0.1306
   90MOL0     H12104   5.031   5.849   5.719  0.9336  1.5229 -0.1713
   90MOL0     H12105   5.037   5.837   5.894  0.3416  0.7335  0.5512
   90MOL0     H12106   5.227   6.009   5.909 -3.1028  2.2578  1.8520
   90MOL0     H12107   5.089   6.064   5.842 -0.1083  0.9796 -1.7876
   90MOL0     H12108   5.171   6.050   5.607  0.2205  0.1983  0.7946
   90MOL0     H12109   5.305   5.947   5.656 -0.4949  0.0708 -3.3429
   90MOL0     H12110   5.512   5.990   5.737 -3.4059 -1.9639  2.6279
   90MOL0     H12111   5.696   6.024   5.920 -0.5179 -2.7580 -0.9531
   90MOL0     H12112   5.923   6.120   6.247 -0.6664 -0.4862  1.8802
   90MOL0     H12113   6.093   6.158   6.388 -1.7850 -1.5828 -2.1416
   90MOL0     H12114   6.202   6.232   6.586  0.5557 -0.0185  0.0133
   90MOL0     H12115   6.298   6.300   6.447  1.0436 -1.4178  0.2665
   90MOL0     H12116   6.289   6.395   6.738 -3.0821 -0.1322 -0.5341
   90MOL0     H12117   6.440   6.319   6.666  2.0445  2.8661  1.5625
   90MOL0     H12118   6.417   6.531   6.511  0.3688  1.7082 -0.2211
   90MOL0     H12119   6.308   6.590   6.648 -0.2977 -1.0659  0.7859
   90MOL0     H12120   6.529   6.679   6.677  0.6780  0.3012 -0.6804
   90MOL0     H12121   6.586   6.506   6.703 -0.5798 -1.3745  4.4916
   90MOL0     H12122   6.477   6.489   6.909  0.9174 -1.3474 -1.4486
   90MOL0     H12123   6.354   6.605   6.876  0.2819  1.9945  0.0827
   90MOL0     H12124   6.490   6.698   7.052  4.8124  3.8080  2.7270
   90MOL0     H12125   6.630   6.626   6.982 -0.9567 -1.8004 -0.5846
   90MOL0     H12126   6.625   6.809   6.814 -2.9216  4.1431 -1.5802
   90MOL0     H12127   6.607   6.883   6.973 -0.4525  0.2933  0.1473
   90MOL0     H12128   6.376   6.853   6.791  0.8965  0.8657 -1.4520
   90MOL0     H12129   6.385   6.916   6.955  0.1841 -4.6445  1.0730
   90MOL0     H12130   5.967   6.573   6.432 -1.2020  0.3797 -0.8325
   90MOL0     H12131   5.786   6.528   6.272  2.9742  3.2009  0.9924
   90MOL0     H12132   5.534   6.399   6.014  0.0310  1.1182 -1.4370
   90MOL0     H12133   5.350   6.361   5.865 -1.7434 -2.0322 -3.3336
   90MOL0     H12134   4.258   4.622   5.184 -2.0169 -0.6634 -0.2550
   90MOL0     H12135   4.188   4.437   5.041  0.7127 -3.1170 -0.1531
   90MOL0     H12136   4.262   3.837   5.042 -0.2717 -1.6821 -0.6147
   90MOL0     H12137   4.209   3.689   4.859  0.0768 -0.0542 -1.6787
   90MOL0     H12138   4.048   3.637   4.676 -0.0342 -1.9163 -0.3803
   90MOL0     H12139   4.219   3.577   4.660  2.5189  3.2415  0.2584
   90MOL0     H12140   4.046   3.624   4.426 -0.2468  0.2925 -0.3935
   90MOL0     H12141   4.028   3.480   4.515 -0.4424  1.9508 -0.7734
   90MOL0     H12142   4.307   3.457   4.476  0.2177  0.1668 -1.2044
   90MOL0     H12143   4.301   3.606   4.405  1.4682  0.1732  3.4329
   90MOL0     H12144   4.135   3.481   4.228 -0.4198 -0.3598  0.4160
   90MOL0     H12145   4.288   3.386   4.250  0.4209 -2.6041  1.5646
   90MOL0     H12146   4.046   3.111   4.423  0.0126  0.3848 -1.4262
   90MOL0     H12147   4.197   4.015   4.581 -4.5702  1.0964  1.1097
   90MOL0     H12148   4.166   4.244   4.649  2.1301 -0.4017 -0.7859
   90MOL0     H12149   4.133   4.280   4.810 -0.2996  0.4828  1.1602
   90MOL0     H12150   4.306   4.272   4.746 -0.6899  0.9796 -0.4134
   91MOL0     O12151   3.347  10.308  10.802 -0.5667 -0.1587  0.0598
   91MOL0     C12152   3.397  10.293  10.918 -0.2090  0.2586 -0.3040
   91MOL0     O12153   3.465  10.188  10.953  0.8288 -0.3972  0.2440
   91MOL0     C12154   3.449  10.060  10.911 -0.7279  1.5743  0.3413
   91MOL0     C12155   3.344  10.020  10.826 -0.5351  0.7108  0.4925
   91MOL0     C12156   3.344   9.887  10.771 -0.1183  0.7869  0.9896
   91MOL0     C12157   3.442   9.799  10.795  0.0931 -0.3212 -0.7388
   91MOL0     O12158   3.424   9.674  10.737 -0.8787 -0.3284  0.2150
   91MOL0     C12159   3.518   9.570  10.781 -0.8337 -0.4250 -1.0523
   91MOL0     C12160   3.521   9.441  10.697 -0.5213 -0.0571  0.6256
   91MOL0     C12161   3.388   9.358  10.690  0.1460 -1.0219 -0.5135
   91MOL0     C12162   3.395   9.243  10.599  0.0826  0.2465  0.5974
   91MOL0     C12163   3.263   9.173  10.614  1.1816 -1.1957 -0.2637
   91MOL0     C12164   3.152   9.210  10.509 -0.1061  0.4416 -0.1822
   91MOL0     C12165   3.038   9.105  10.513  0.0340 -0.5778 -0.5191
   91MOL0     C12166   2.913   9.153  10.438  0.7178  0.6164 -0.1215
   91MOL0     N12167   2.835   9.256  10.510 -0.1895 -0.2337  0.0230
   91MOL0     C12168   2.758   9.240  10.618 -0.0840  0.8036 -1.3313
   91MOL0     C12169   2.733   9.361  10.669  0.1134  0.8780 -0.0108
   91MOL0     C12170   2.657   9.389  10.792  0.3603  0.0809 -0.0030
   91MOL0     C12171   2.754   9.398  10.907 -0.0903 -0.4715 -0.3644
   91MOL0     C12172   2.895   9.451  10.882  1.2539  0.0167  0.3433
   91MOL0     C12173   2.887   9.607  10.864  0.4526  1.2828 -0.8996
   91MOL0     O12174   2.837   9.662  10.980 -0.6639 -0.3070  0.1131
   91MOL0     C12175   2.914   9.712  11.075  0.3406 -1.1505 -0.1411
   91MOL0     C12176   3.027   9.783  11.051  0.2021 -0.1851  0.0450
   91MOL0     C12177   3.105   9.842  11.155 -1.2279  0.0234 -0.0012
   91MOL0     C12178   3.052   9.833  11.286 -0.7316 -0.3586  0.0282
   91MOL0     C12179   3.129   9.898  11.396 -0.1253  0.1267 -0.1245
   91MOL0     O12180   3.257   9.943  11.379 -0.1118 -0.2249 -0.4148
   91MOL0     C12181   3.321  10.026  11.469 -0.1975 -0.2409  0.4608
   91MOL0     C12182   3.460  10.037  11.456 -0.4380  0.6108 -0.3346
   91MOL0     C12183   3.538  10.120  11.531  0.1152 -0.6557 -0.1246
   91MOL0     C12184   3.479  10.201  11.631 -0.0460  0.1611  0.3597
   91MOL0     O12185   3.553  10.280  11.716  0.7328 -0.0095  0.9870
   91MOL0     C12186   3.500  10.402  11.759  0.7965 -0.0795 -1.0810
   91MOL0     C12187   3.601  10.515  11.797  0.1314 -0.0879  0.3185
   91MOL0     C12188   3.653  10.471  11.934 -0.4229  0.3526 -0.2009
   91MOL0     C12189   3.707  10.596  12.009  0.1642  0.6265  0.2402
   91MOL0     C12190   3.735  10.580  12.160 -0.8621 -0.2548 -0.5038
   91MOL0     C12191   3.818  10.456  12.197 -0.0163  0.0203  0.7138
   91MOL0     C12192   3.894  10.486  12.328  0.0209 -0.1907  0.4566
   91MOL0     C12193   3.949  10.367  12.398  0.9527  0.2476  0.3460
   91MOL0    Cl12194   3.810  10.267  12.458 -0.2791 -0.4594  0.1895
   91MOL0     C12195   3.335  10.194  11.643 -0.0580  0.1593  0.6720
   91MOL0     C12196   3.253  10.113  11.560 -0.4463  0.2553  1.4705
   91MOL0     O12197   3.069   9.912  11.496  0.4526 -0.4820 -0.1871
   91MOL0     C12198   2.925   9.776  11.305 -0.2736 -0.3569 -0.0674
   91MOL0     C12199   2.859   9.708  11.200 -0.8904 -1.0913 -0.0479
   91MOL0     N12200   2.785   9.456  10.582  0.4080  1.0903 -0.6360
   91MOL0     N12201   2.848   9.390  10.488 -0.8963  0.1212  1.0224
   91MOL0     C12202   3.537   9.839  10.885 -0.5398 -0.5638 -0.1671
   91MOL0     C12203   3.548   9.967  10.941 -0.4445  0.4245 -0.1342
   91MOL0     C12204   3.342  10.375  11.032  1.1234  0.7061  0.2946
   91MOL0     C12205   3.382  10.509  11.041  0.4438 -0.1623 -0.5745
   91MOL0     C12206   3.349  10.589  11.148  0.4166 -1.1031 -0.7357
   91MOL0     C12207   3.269  10.536  11.251  0.2565 -0.1900 -0.4994
   91MOL0     O12208   3.235  10.618  11.358  0.1501 -0.1387  0.1223
   91MOL0     C12209   3.117  10.604  11.434  0.2568  0.0374 -0.9716
   91MOL0     C12210   3.103  10.731  11.526  0.1709  0.4700  0.5719
   91MOL0     C12211   3.220  10.763  11.621  0.1372 -0.5958  0.2077
   91MOL0     C12212   3.250  10.669  11.737  0.6585  0.0410  1.2799
   91MOL0     C12213   3.130  10.663  11.823 -1.1218  1.8384  0.1258
   91MOL0     C12214   3.037  10.658  11.901 -0.5483  0.5376  0.2199
   91MOL0     C12215   3.212  10.410  11.246  0.1937  0.3824 -1.0160
   91MOL0     C12216   3.248  10.328  11.135 -0.0631  0.2998  0.4766
   91MOL0     C12217   3.177  10.202  11.132  0.2945  0.0358 -0.2785
   91MOL0     H12218   3.275  10.091  10.782 -0.7021  0.6339  0.6274
   91MOL0     H12219   3.270   9.868  10.694  1.3403 -1.6544  0.1063
   91MOL0     H12220   3.625   9.594  10.777 -0.6935 -1.0298 -1.0484
   91MOL0     H12221   3.484   9.552  10.883 -3.5891  4.7081 -0.7465
   91MOL0     H12222   3.607   9.380  10.724 -0.6921  0.2139  1.8466
   91MOL0     H12223   3.538   9.467  10.592 -3.2622 -1.3075 -0.2417
   91MOL0     H12224   3.302   9.423  10.670  0.1767 -0.8772 -0.1885
   91MOL0     H12225   3.361   9.324  10.790 -4.1992 -0.4407 -1.2744
   91MOL0     H12226   3.420   9.272  10.496 -2.1681 -0.6881 -0.2813
   91MOL0     H12227   3.485   9.185  10.622  1.1061  0.4638 -2.3630
   91MOL0     H12228   3.274   9.067  10.587 -5.0687 -1.2304 -5.0425
   91MOL0     H12229   3.223   9.183  10.715 -0.7538 -1.5060 -0.9589
   91MOL0     H12230   3.105   9.307  10.532 -0.0252  0.6137 -0.7353
   91MOL0     H12231   3.199   9.220  10.411 -0.3989 -3.0972 -0.7880
   91MOL0     H12232   2.999   9.077  10.611 -4.5622 -0.2950 -2.0390
   91MOL0     H12233   3.078   9.027  10.448  3.2800  1.7449 -1.6107
   91MOL0     H12234   2.935   9.183  10.335 -0.9627 -1.3382 -1.1410
   91MOL0     H12235   2.844   9.072  10.414 -0.2648  1.2873  0.4064
   91MOL0     H12236   2.722   9.144  10.652  1.7895  0.0790 -1.2561
   91MOL0     H12237   2.593   9.477  10.782 -3.1671 -2.4844 -2.6040
   91MOL0     H12238   2.598   9.300  10.815  1.0374 -0.1099  1.0206
   91MOL0     H12239   2.694   9.446  10.985 -0.7843 -0.4067 -0.9250
   91MOL0     H12240   2.768   9.295  10.941 -1.2220 -0.7572 -0.7299
   91MOL0     H12241   2.942   9.404  10.795  0.7006  0.7275 -0.3486
   91MOL0     H12242   2.955   9.434  10.972 -0.1849 -1.8043  1.0405
   91MOL0     H12243   2.817   9.641  10.787 -1.3835  2.3311  1.1279
   91MOL0     H12244   2.988   9.638  10.833  0.9208  0.3032 -0.3898
   91MOL0     H12245   3.051   9.801  10.947 -0.9759  0.0656 -0.1957
   91MOL0     H12246   3.191   9.907  11.143 -2.0401  1.5586  1.8967
   91MOL0     H12247   3.520   9.981  11.385 -0.1376  2.3807 -1.5495
   91MOL0     H12248   3.644  10.118  11.509  0.3637  0.1995  0.9586
   91MOL0     H12249   3.447  10.443  11.673 -0.0433 -0.3451 -0.6919
   91MOL0     H12250   3.434  10.372  11.841  1.7492 -3.0202 -1.2489
   91MOL0     H12251   3.671  10.517  11.713  3.8706 -0.7010  3.1161
   91MOL0     H12252   3.559  10.616  11.802  3.1102  1.2400  0.9980
   91MOL0     H12253   3.588  10.415  12.002  0.5304  2.5065  2.6752
   91MOL0     H12254   3.729  10.395  11.917 -1.8511 -1.7247  1.9222
   91MOL0     H12255   3.641  10.681  11.995  2.6420  2.6952  0.3720
   91MOL0     H12256   3.793  10.629  11.949 -1.4946  3.5313 -0.7027
   91MOL0     H12257   3.635  10.582  12.203 -0.5887  3.3240  0.2639
   91MOL0     H12258   3.787  10.668  12.201  0.2323 -1.7842  1.5911
   91MOL0     H12259   3.741  10.378  12.197 -1.3326  1.1852 -2.4777
   91MOL0     H12260   3.882  10.426  12.114 -1.3957 -1.0017 -0.0221
   91MOL0     H12261   3.825  10.534  12.398  1.5736 -2.4180  3.7713
   91MOL0     H12262   3.973  10.560  12.311 -0.4242  0.4912  1.2507
   91MOL0     H12263   4.013  10.317  12.324  1.5949 -0.0821  1.1120
   91MOL0     H12264   4.006  10.390  12.488  0.6879 -2.8921  1.4336
   91MOL0     H12265   3.289  10.249  11.725  1.2359 -0.6494  1.9907
   91MOL0     H12266   3.145  10.118  11.559 -0.5450  1.4659 -2.9040
   91MOL0     H12267   2.887   9.778  11.407  0.1176 -0.6879  0.0921
   91MOL0     H12268   2.766   9.657  11.219 -1.4965  0.5377  1.6486
   91MOL0     H12269   3.622   9.780  10.919 -0.0694  1.5245  2.6850
   91MOL0     H12270   3.629  10.002  11.004 -0.2701 -1.8134  0.9814
   91MOL0     H12271   3.439  10.551  10.958  2.3407 -0.0591  0.7177
   91MOL0     H12272   3.370  10.695  11.160  3.9543 -1.3810 -2.8649
   91MOL0     H12273   3.128  10.517  11.499  0.5016  0.6641 -0.1610
   91MOL0     H12274   3.027  10.603  11.372  1.0759 -1.4483 -2.1814
   91MOL0     H12275   3.013  10.715  11.587 -0.6725 -0.8158 -0.9470
   91MOL0     H12276   3.083  10.817  11.462 -1.4571  0.1783  0.6573
   91MOL0     H12277   3.207  10.867  11.654  0.6329 -0.6362  0.5383
   91MOL0     H12278   3.307  10.751  11.557 -0.8718 -1.3520 -1.0624
   91MOL0     H12279   3.260  10.568  11.697 -0.7018  0.2897  0.2518
   91MOL0     H12280   3.344  10.685  11.789  1.8426  0.4149 -0.8727
   91MOL0     H12281   2.951  10.660  11.965  0.1944 -2.3509  1.4924
   91MOL0     H12282   3.147  10.380  11.327  0.8904  0.9534 -0.2314
   91MOL0     H12283   3.111  10.200  11.044  0.5926 -2.0095 -0.4987
   91MOL0     H12284   3.239  10.115  11.109  2.3114  1.1911  0.4834
   91MOL0     H12285   3.117  10.188  11.222  1.0245 -1.0616  0.0529
   92MOL0     O12286   9.333   7.992   4.865  0.5468 -0.3419 -0.2095
   92MOL0     C12287   9.276   7.969   4.756 -0.8831  0.2806  0.5412
   92MOL0     O12288   9.310   7.870   4.670  0.3144 -0.1747  0.5703
   92MOL0     C12289   9.399   7.765   4.701 -0.1817 -0.0620  0.0224
   92MOL0     C12290   9.518   7.728   4.626  0.5826 -0.7400 -0.7678
   92MOL0     C12291   9.602   7.629   4.678 -0.7346 -0.1327 -1.2931
   92MOL0     C12292   9.571   7.571   4.806 -0.3087  0.4616 -0.3631
   92MOL0     O12293   9.657   7.480   4.868  0.5379 -0.5724 -0.8755
   92MOL0     C12294   9.631   7.352   4.812 -0.6546  0.9570  0.2989
   92MOL0     C12295   9.705   7.239   4.897  1.1247 -0.0596 -0.0138
   92MOL0     C12296   9.855   7.240   4.860  0.5958 -0.3466 -0.4571
   92MOL0     C12297   9.933   7.175   4.976  0.3224  0.9446 -0.3973
   92MOL0     C12298  10.084   7.148   4.942 -0.0002 -0.0085  0.8772
   92MOL0     C12299  10.157   7.038   5.040 -0.2638 -0.6104  0.5081
   92MOL0     C12300  10.302   7.027   5.004  0.6097  0.1051 -0.2101
   92MOL0     C12301  10.369   6.957   5.119 -0.6200 -0.3533  0.5511
   92MOL0     N12302  10.506   6.910   5.083  0.6303 -0.4568  0.3854
   92MOL0     C12303  10.542   6.828   4.983 -0.7457  0.2048  0.5042
   92MOL0     C12304  10.667   6.815   5.013 -0.9980  0.2118 -0.4213
   92MOL0     C12305  10.762   6.715   4.940  0.4350 -0.7228  0.2982
   92MOL0     C12306  10.913   6.761   4.916 -0.0698 -0.1738 -0.0560
   92MOL0     C12307  10.942   6.889   4.830  0.0908  0.1596 -0.4665
   92MOL0     C12308  10.822   6.980   4.793 -0.1330  0.6818 -0.2306
   92MOL0     O12309  10.727   6.915   4.702  0.3146  0.1533 -0.2437
   92MOL0     C12310  10.607   6.975   4.665  0.0594 -0.8468 -0.2318
   92MOL0     C12311  10.551   6.932   4.544 -0.2243 -0.0021  0.4379
   92MOL0     C12312  10.445   7.000   4.488  1.0116 -0.0830  0.7940
   92MOL0     C12313  10.384   7.104   4.559 -0.1202 -0.3451 -0.7108
   92MOL0     C12314  10.288   7.198   4.513  0.0674  0.8526 -0.8156
   92MOL0     O12315  10.198   7.255   4.606  0.2477 -0.6396  0.3167
   92MOL0     C12316  10.077   7.311   4.556 -1.0580 -0.9279 -0.5053
   92MOL0     C12317  10.066   7.446   4.573  0.4678  0.6240 -0.0034
   92MOL0     C12318   9.959   7.516   4.532 -0.3531  0.1088 -0.1553
   92MOL0     C12319   9.857   7.453   4.466 -1.1102 -0.1451  0.2896
   92MOL0     O12320   9.773   7.544   4.405  0.9503 -0.4403  0.4732
   92MOL0     C12321   9.738   7.537   4.265  1.0425  0.1553  0.5172
   92MOL0     C12322   9.692   7.676   4.219  0.0806  0.6671  0.2854
   92MOL0     C12323   9.545   7.705   4.265  0.6258  0.2987  0.8630
   92MOL0     C12324   9.504   7.859   4.231  0.9277  0.5710  0.2269
   92MOL0     C12325   9.362   7.876   4.273 -0.6584  0.6152  0.1693
   92MOL0     C12326   9.303   8.027   4.281  0.3898  0.0062 -0.7185
   92MOL0     C12327   9.263   8.090   4.145 -0.4310 -0.1407  0.5115
   92MOL0     C12328   9.128   8.168   4.155  0.4271  0.2627 -0.3073
   92MOL0    Cl12329   9.127   8.290   4.286 -0.4781  0.5475  0.0374
   92MOL0     C12330   9.863   7.317   4.452  0.7445  0.1756 -0.8992
   92MOL0     C12331   9.970   7.248   4.505 -0.5374 -0.7612  1.3737
   92MOL0     O12332  10.273   7.207   4.394 -0.1802  1.1894  0.0801
   92MOL0     C12333  10.432   7.140   4.684  0.0375  0.1570  0.0333
   92MOL0     C12334  10.545   7.080   4.742 -0.3097  0.2851  0.2196
   92MOL0     N12335  10.713   6.882   5.132  0.3698  0.5237  0.0759
   92MOL0     N12336  10.601   6.926   5.176  0.5732 -0.0555 -0.0410
   92MOL0     C12337   9.453   7.606   4.876 -0.5388 -0.1728 -0.0755
   92MOL0     C12338   9.369   7.707   4.826 -0.0181  0.4064 -0.8595
   92MOL0     C12339   9.153   8.040   4.700 -0.0223 -0.2020 -0.6505
   92MOL0     C12340   9.088   8.008   4.578  0.4140 -0.9083 -0.2888
   92MOL0     C12341   8.982   8.082   4.524 -0.6130 -0.3080  0.2097
   92MOL0     C12342   8.931   8.195   4.590 -0.1269 -0.0775  0.2640
   92MOL0     O12343   8.819   8.268   4.538 -0.3067  0.0099 -0.0900
   92MOL0     C12344   8.759   8.230   4.412  0.1106  0.5757 -0.5465
   92MOL0     C12345   8.634   8.318   4.371  0.3144 -0.6594 -0.2877
   92MOL0     C12346   8.662   8.477   4.371  0.4745 -0.2762 -0.1329
   92MOL0     C12347   8.673   8.546   4.235  0.4178 -0.6327 -0.7947
   92MOL0     C12348   8.810   8.525   4.190 -0.0928 -1.1080  0.6659
   92MOL0     C12349   8.915   8.502   4.140  1.0250  0.2160  0.3283
   92MOL0     C12350   8.999   8.238   4.705  0.1899  1.0647 -0.7917
   92MOL0     C12351   9.100   8.161   4.761 -0.7138  0.8117 -0.3147
   92MOL0     C12352   9.158   8.228   4.893  0.5661  0.3677 -0.1554
   92MOL0     H12353   9.543   7.783   4.537  2.2720  1.4693  0.9547
   92MOL0     H12354   9.681   7.576   4.626 -1.6693 -2.8638 -0.1322
   92MOL0     H12355   9.527   7.316   4.817  0.3926 -2.3061  0.5286
   92MOL0     H12356   9.663   7.357   4.707  0.4957  2.0196  0.6831
   92MOL0     H12357   9.665   7.139   4.879 -1.9595  0.7203  1.7727
   92MOL0     H12358   9.701   7.263   5.004  3.7546  0.4425  0.0337
   92MOL0     H12359   9.901   7.337   4.840 -0.0769  0.2625  0.8299
   92MOL0     H12360   9.871   7.186   4.766 -3.4723 -0.4268 -1.3057
   92MOL0     H12361   9.925   7.229   5.071 -0.4941 -0.3809  0.3111
   92MOL0     H12362   9.895   7.075   4.997  1.9303  0.4159  0.1355
   92MOL0     H12363  10.085   7.115   4.838 -1.2224  0.1418  0.7988
   92MOL0     H12364  10.140   7.242   4.947  1.1870 -0.6989  0.7275
   92MOL0     H12365  10.148   7.062   5.146 -1.4650 -1.1869  0.5506
   92MOL0     H12366  10.124   6.936   5.018  0.1574 -0.2261 -2.3794
   92MOL0     H12367  10.346   7.125   4.982 -1.0610  0.7083 -0.9895
   92MOL0     H12368  10.302   6.978   4.906 -0.4676 -0.5994  0.1239
   92MOL0     H12369  10.368   7.026   5.204 -2.5234 -0.6443  0.7987
   92MOL0     H12370  10.322   6.865   5.155 -2.1197  0.8982  1.9517
   92MOL0     H12371  10.490   6.800   4.892  0.2441  1.5059 -0.4954
   92MOL0     H12372  10.751   6.626   5.003 -1.2144 -1.2948 -0.7568
   92MOL0     H12373  10.730   6.699   4.837 -0.3927  1.5827  0.1304
   92MOL0     H12374  10.950   6.778   5.017 -0.2440 -4.5719  0.9199
   92MOL0     H12375  10.958   6.668   4.879 -1.7053 -1.7382  1.6707
   92MOL0     H12376  10.981   6.851   4.736  0.0923 -1.4070  0.1357
   92MOL0     H12377  11.019   6.954   4.872 -1.0291 -0.0032  2.0006
   92MOL0     H12378  10.862   7.060   4.729  0.6642 -2.0989 -3.5261
   92MOL0     H12379  10.787   7.025   4.886  2.9934  0.0361  1.4044
   92MOL0     H12380  10.597   6.841   4.506  0.9587 -0.0693  1.9578
   92MOL0     H12381  10.410   6.962   4.393  1.2701  0.5461  0.4447
   92MOL0     H12382  10.147   7.497   4.624  0.4920 -0.2619  0.8762
   92MOL0     H12383   9.943   7.621   4.555  2.0156  0.2133  1.3816
   92MOL0     H12384   9.820   7.503   4.201  1.7734 -0.6588  1.8428
   92MOL0     H12385   9.663   7.459   4.249  2.0857 -1.2951  2.2831
   92MOL0     H12386   9.760   7.749   4.263  1.4026 -1.9566  2.9590
   92MOL0     H12387   9.698   7.682   4.110 -0.6892 -0.6254  0.1371
   92MOL0     H12388   9.479   7.637   4.211  0.8711  1.0514 -0.4265
   92MOL0     H12389   9.538   7.685   4.373  1.7120 -4.7604  0.2360
   92MOL0     H12390   9.511   7.876   4.124  1.5866  0.6957  0.2858
   92MOL0     H12391   9.575   7.933   4.269 -0.4379  3.0530 -1.8052
   92MOL0     H12392   9.359   7.848   4.379 -3.1726  0.9283  0.2339
   92MOL0     H12393   9.302   7.798   4.225  1.5233 -0.9481 -0.1913
   92MOL0     H12394   9.218   8.026   4.349 -0.5856  0.6120 -1.8932
   92MOL0     H12395   9.381   8.083   4.335 -0.1677 -0.6408  0.8260
   92MOL0     H12396   9.254   8.008   4.073  0.6880 -2.4929  2.8772
   92MOL0     H12397   9.343   8.159   4.117 -0.5178  0.0514  0.7425
   92MOL0     H12398   9.090   8.215   4.064 -0.7396 -1.3024 -0.6723
   92MOL0     H12399   9.058   8.090   4.187 -0.1116  1.2720  1.0981
   92MOL0     H12400   9.778   7.270   4.403 -0.5378  0.6329  0.8073
   92MOL0     H12401   9.973   7.140   4.497  3.6148 -0.6558 -0.7432
   92MOL0     H12402  10.395   7.227   4.739  1.0349  1.8836 -1.9189
   92MOL0     H12403  10.584   7.101   4.842  2.9377 -2.7706 -0.2018
   92MOL0     H12404   9.444   7.571   4.979 -0.4362  3.5851  1.3415
   92MOL0     H12405   9.295   7.750   4.895 -0.1724  0.4725 -1.0654
   92MOL0     H12406   9.118   7.919   4.524 -2.7037 -1.5063 -1.2394
   92MOL0     H12407   8.953   8.071   4.420  1.2568  0.3469 -0.4157
   92MOL0     H12408   8.723   8.127   4.408 -0.2916  0.7201 -0.7664
   92MOL0     H12409   8.833   8.239   4.332  1.6175  2.0355  0.9296
   92MOL0     H12410   8.564   8.300   4.453  1.5289 -1.5674  0.5821
   92MOL0     H12411   8.600   8.282   4.273  1.3720 -2.0177 -0.1927
   92MOL0     H12412   8.757   8.486   4.424  2.0181 -1.9122 -2.4184
   92MOL0     H12413   8.587   8.530   4.430 -2.2701 -2.6886 -1.1981
   92MOL0     H12414   8.593   8.505   4.173 -2.1640  1.1532  1.1705
   92MOL0     H12415   8.667   8.653   4.257  4.0761 -0.4789  0.1086
   92MOL0     H12416   9.012   8.505   4.094  0.6153 -2.7288 -1.0096
   92MOL0     H12417   8.959   8.321   4.763  2.1275  1.7767 -0.3915
   92MOL0     H12418   9.118   8.325   4.925 -2.0225 -0.8604  0.5436
   92MOL0     H12419   9.165   8.167   4.984 -0.3337  0.4058 -0.0567
   92MOL0     H12420   9.261   8.262   4.875  0.1568  1.0859 -1.2448
   93MOL0     O12421  11.107   5.701   2.853  0.9786  0.3021 -0.6308
   93MOL0     C12422  11.193   5.786   2.846  0.1857 -0.2217  0.0560
   93MOL0     O12423  11.323   5.770   2.822  0.7073  0.3977  0.6619
   93MOL0     C12424  11.378   5.647   2.846  0.0645  0.5150  0.3527
   93MOL0     C12425  11.326   5.524   2.791  0.2734 -0.1603 -0.1827
   93MOL0     C12426  11.376   5.406   2.829  0.5993 -0.1800 -0.4430
   93MOL0     C12427  11.470   5.395   2.939  0.4175  0.8376  0.9705
   93MOL0     O12428  11.489   5.267   2.992  0.6271 -0.3082 -0.2455
   93MOL0     C12429  11.608   5.246   3.072  0.1571 -0.8183 -0.1231
   93MOL0     C12430  11.620   5.101   3.097 -0.3893 -0.6567 -0.5517
   93MOL0     C12431  11.507   5.049   3.194  0.6892  0.7218 -0.8936
   93MOL0     C12432  11.488   5.123   3.324 -0.9469 -0.4930 -0.6677
   93MOL0     C12433  11.476   5.026   3.443  0.2022  0.1900  0.3783
   93MOL0     C12434  11.450   5.092   3.576 -0.6646  0.2746 -0.4734
   93MOL0     C12435  11.573   5.119   3.644  0.4890 -0.2246  0.7356
   93MOL0     C12436  11.570   5.196   3.765 -0.6472 -0.5239 -0.1306
   93MOL0     N12437  11.605   5.337   3.739  0.2937 -0.0766 -0.5053
   93MOL0     C12438  11.541   5.413   3.644  0.1775 -0.3573  0.7124
   93MOL0     C12439  11.633   5.518   3.638  1.1205  0.0584  0.4645
   93MOL0     C12440  11.625   5.650   3.565 -0.1591 -0.3660 -0.5771
   93MOL0     C12441  11.573   5.773   3.637 -0.4697 -0.7446  0.0494
   93MOL0     C12442  11.657   5.810   3.757 -0.2640  1.4604 -0.7478
   93MOL0     C12443  11.636   5.953   3.805 -0.7061  0.3844  0.7965
   93MOL0     O12444  11.500   5.962   3.851 -1.0085  0.3184 -0.0099
   93MOL0     C12445  11.481   5.935   3.988  0.3939 -0.1038  0.1626
   93MOL0     C12446  11.580   5.882   4.078  0.9243 -0.1528  0.3609
   93MOL0     C12447  11.550   5.873   4.207  0.1909 -0.0216 -0.4964
   93MOL0     C12448  11.426   5.903   4.267 -0.5693  0.0862 -0.7111
   93MOL0     C12449  11.410   5.891   4.419 -1.4399  0.3797  0.8135
   93MOL0     O12450  11.295   5.924   4.475  0.0030 -0.3377  0.1318
   93MOL0     C12451  11.281   5.927   4.610 -0.9986  0.2026 -0.2384
   93MOL0     C12452  11.257   5.804   4.684  0.3443  0.1389 -0.1213
   93MOL0     C12453  11.248   5.810   4.818  0.4928 -0.1761  0.2193
   93MOL0     C12454  11.264   5.928   4.889 -0.0080 -0.9010  0.0267
   93MOL0     O12455  11.251   5.939   5.029 -0.3406  1.0703  0.5928
   93MOL0     C12456  11.136   5.902   5.105  0.1321 -0.5971 -0.0357
   93MOL0     C12457  11.167   5.792   5.207 -0.2891 -0.7690 -0.7362
   93MOL0     C12458  11.121   5.820   5.347 -0.0719 -0.5111 -0.6534
   93MOL0     C12459  11.200   5.922   5.422  0.1175  1.0032  0.6031
   93MOL0     C12460  11.341   5.885   5.453  0.0740 -1.2460  0.0735
   93MOL0     C12461  11.424   6.004   5.500  0.1132  0.2551  0.0756
   93MOL0     C12462  11.383   6.080   5.620 -0.5111  0.2151  0.5362
   93MOL0     C12463  11.483   6.192   5.651  0.3398  0.7057 -0.4575
   93MOL0    Cl12464  11.436   6.245   5.817 -0.7676 -0.1183 -0.4769
   93MOL0     C12465  11.272   6.051   4.812 -0.3157 -0.4768  0.2891
   93MOL0     C12466  11.285   6.045   4.674 -0.2326  0.2437 -0.7147
   93MOL0     O12467  11.510   5.846   4.487 -0.2741 -0.5324 -0.5089
   93MOL0     C12468  11.321   5.950   4.177 -1.0806  0.5317 -0.3418
   93MOL0     C12469  11.349   5.963   4.039  0.6915  0.0079  0.3053
   93MOL0     N12470  11.742   5.496   3.716  0.1798 -0.0885  0.8817
   93MOL0     N12471  11.721   5.385   3.778 -0.6566 -0.1347  0.4861
   93MOL0     C12472  11.528   5.511   2.985 -0.0128  0.7494 -0.3173
   93MOL0     C12473  11.485   5.640   2.936 -0.4065  0.0386 -0.0167
   93MOL0     C12474  11.151   5.920   2.866 -0.6030  0.5985  0.1705
   93MOL0     C12475  11.219   6.018   2.789 -0.1731 -0.0319  0.3246
   93MOL0     C12476  11.177   6.154   2.789 -0.2881 -0.5876  0.3597
   93MOL0     C12477  11.073   6.199   2.877 -0.1530  1.0252 -0.2767
   93MOL0     O12478  11.028   6.328   2.884 -0.5825  0.3279  0.4815
   93MOL0     C12479  11.065   6.415   2.782 -0.6049  0.1355  0.7229
   93MOL0     C12480  10.980   6.540   2.775  0.2380  0.0709  0.1222
   93MOL0     C12481  11.041   6.642   2.875  0.5119  0.7286  0.1439
   93MOL0     C12482  10.936   6.746   2.916 -0.1842  0.6691 -1.3533
   93MOL0     C12483  10.990   6.818   3.030  0.1756  0.0766 -1.2194
   93MOL0     C12484  11.027   6.865   3.136 -0.1985 -0.3623 -0.0890
   93MOL0     C12485  11.010   6.097   2.953 -0.5022  0.1567  0.2992
   93MOL0     C12486  11.046   5.961   2.949  0.5708  1.2787  0.2122
   93MOL0     C12487  10.989   5.869   3.057 -0.6846 -0.3524 -0.4821
   93MOL0     H12488  11.246   5.542   2.719  0.6671 -0.4703 -0.7048
   93MOL0     H12489  11.325   5.320   2.787  1.7093 -1.1016  0.0502
   93MOL0     H12490  11.701   5.275   3.023  0.6731  1.4538  1.9734
   93MOL0     H12491  11.602   5.305   3.164 -0.6765 -2.8164  1.1899
   93MOL0     H12492  11.718   5.096   3.146  0.0507  2.3799 -0.9071
   93MOL0     H12493  11.625   5.043   3.004 -0.6238 -0.6059 -0.5966
   93MOL0     H12494  11.528   4.944   3.216  2.7836  1.6643  2.2261
   93MOL0     H12495  11.418   5.058   3.131 -1.0689 -1.3128  1.1480
   93MOL0     H12496  11.577   5.184   3.344 -2.4864  0.6302  4.2928
   93MOL0     H12497  11.407   5.195   3.308 -0.5862 -0.1344 -0.8969
   93MOL0     H12498  11.394   4.960   3.412  0.4540 -1.1432  2.4088
   93MOL0     H12499  11.573   4.977   3.432  0.5710  1.2103 -1.2949
   93MOL0     H12500  11.402   5.186   3.548  3.5258  2.0516 -2.6321
   93MOL0     H12501  11.395   5.017   3.633  2.0680 -2.3502 -1.0011
   93MOL0     H12502  11.651   5.146   3.571 -1.1790 -1.6238 -1.7366
   93MOL0     H12503  11.601   5.018   3.675  5.5327  1.1086  1.4882
   93MOL0     H12504  11.468   5.201   3.806 -1.8542 -0.7154 -2.9088
   93MOL0     H12505  11.641   5.162   3.840  0.7277  1.8587 -0.2526
   93MOL0     H12506  11.444   5.402   3.596  1.0998 -1.5473 -0.9483
   93MOL0     H12507  11.722   5.668   3.517 -0.0780  0.2750 -0.1771
   93MOL0     H12508  11.556   5.637   3.481 -0.1307 -0.2607 -0.6162
   93MOL0     H12509  11.567   5.864   3.576  0.6250  1.0096  2.3631
   93MOL0     H12510  11.471   5.746   3.664 -0.7269  0.2286  0.1042
   93MOL0     H12511  11.765   5.795   3.753 -0.4730 -0.2852 -0.7963
   93MOL0     H12512  11.624   5.749   3.842  1.5035  1.6650  0.1441
   93MOL0     H12513  11.657   6.014   3.717  0.7405 -3.4109 -1.7623
   93MOL0     H12514  11.711   5.979   3.880  1.6271 -4.8683  0.7733
   93MOL0     H12515  11.680   5.850   4.048 -0.6007 -2.1838 -3.1284
   93MOL0     H12516  11.628   5.834   4.271  0.0860 -1.9729 -1.4958
   93MOL0     H12517  11.250   5.709   4.632 -3.6016 -0.0201  0.3765
   93MOL0     H12518  11.219   5.721   4.873 -0.0070 -0.1075  0.0730
   93MOL0     H12519  11.112   5.998   5.150  3.5102  1.7313 -2.6966
   93MOL0     H12520  11.061   5.866   5.034  2.6846  0.0185 -3.2864
   93MOL0     H12521  11.131   5.703   5.155  0.8885 -0.2540 -2.5088
   93MOL0     H12522  11.275   5.778   5.216 -0.4587 -1.3382  0.6783
   93MOL0     H12523  11.017   5.852   5.345  0.0936  0.3656  1.5982
   93MOL0     H12524  11.118   5.723   5.397 -0.7706  0.1513  0.6442
   93MOL0     H12525  11.143   5.936   5.514 -1.4803 -3.3072  0.5149
   93MOL0     H12526  11.217   6.002   5.350  0.6456 -1.4036 -2.1351
   93MOL0     H12527  11.399   5.851   5.366  0.8226  0.1945 -0.0196
   93MOL0     H12528  11.334   5.807   5.529 -2.2683 -1.1283  0.0276
   93MOL0     H12529  11.521   5.956   5.510 -0.5993 -1.1645  0.4097
   93MOL0     H12530  11.432   6.078   5.420 -0.0682  0.9463  0.6857
   93MOL0     H12531  11.379   6.007   5.701  0.4086 -2.5958 -1.7719
   93MOL0     H12532  11.286   6.129   5.618 -1.0039 -0.6066 -2.8683
   93MOL0     H12533  11.589   6.165   5.655  0.3264  0.6561  3.2733
   93MOL0     H12534  11.453   6.276   5.588  0.2917 -0.4733 -2.0665
   93MOL0     H12535  11.272   6.147   4.862  1.9887  0.8558 -2.0672
   93MOL0     H12536  11.263   6.138   4.623  0.7324 -0.7926 -3.1950
   93MOL0     H12537  11.220   5.963   4.214 -0.2849  1.5742  1.7000
   93MOL0     H12538  11.268   5.995   3.974  0.5405  0.0537  0.5151
   93MOL0     H12539  11.605   5.507   3.062  2.1647  2.9878 -2.1857
   93MOL0     H12540  11.522   5.734   2.976  0.5166 -1.4678  2.9838
   93MOL0     H12541  11.316   6.010   2.741  0.7680  4.7568  0.9038
   93MOL0     H12542  11.231   6.218   2.720  0.2080 -3.1143 -1.7445
   93MOL0     H12543  11.054   6.359   2.689 -0.1972  1.8508 -0.3931
   93MOL0     H12544  11.171   6.438   2.799 -0.9036  0.6529  1.9506
   93MOL0     H12545  10.877   6.511   2.798  0.2807 -0.9909 -0.9126
   93MOL0     H12546  10.978   6.580   2.673  0.2669  0.3450  0.2284
   93MOL0     H12547  11.124   6.694   2.826  0.9576  0.6579  0.8147
   93MOL0     H12548  11.073   6.587   2.964 -2.1396 -1.3779 -0.0802
   93MOL0     H12549  10.928   6.815   2.832 -2.1207  0.9253 -0.9983
   93MOL0     H12550  10.843   6.693   2.936  0.9652 -0.9245  0.0958
   93MOL0     H12551  11.064   6.903   3.230 -1.1328 -1.7485  0.8650
   93MOL0     H12552  10.942   6.138   3.027  1.2757  2.5075  0.7647
   93MOL0     H12553  10.904   5.807   3.027  0.0364 -0.9143 -1.4602
   93MOL0     H12554  11.064   5.794   3.083 -0.8011  0.2243  1.6530
   93MOL0     H12555  10.965   5.919   3.151 -1.6608  0.5933 -1.2155
   94MOL0     O12556   7.234   0.537   4.342  0.6830  0.0148 -0.2647
   94MOL0     C12557   7.136   0.609   4.368  0.3489 -0.1279  0.0484
   94MOL0     O12558   7.135   0.738   4.410 -0.4571 -0.1025  0.3340
   94MOL0     C12559   7.262   0.798   4.437  0.4476 -0.1544 -0.8222
   94MOL0     C12560   7.365   0.805   4.344 -0.2864 -0.2324  0.1608
   94MOL0     C12561   7.484   0.872   4.376 -0.0322 -0.3547  0.3522
   94MOL0     C12562   7.504   0.921   4.515  0.5648  0.3058  0.4493
   94MOL0     O12563   7.616   0.989   4.552  0.1120 -0.1902 -0.2749
   94MOL0     C12564   7.737   0.927   4.513 -0.0761 -0.7289  0.5302
   94MOL0     C12565   7.859   1.000   4.587  0.0418 -0.5680 -0.0397
   94MOL0     C12566   7.993   0.940   4.553 -0.0274  0.3260  0.3409
   94MOL0     C12567   8.109   1.036   4.592  0.0466 -0.4001 -0.6761
   94MOL0     C12568   8.147   1.172   4.518  0.0885  0.0630  0.2455
   94MOL0     C12569   8.194   1.140   4.373 -0.3068 -0.6544  0.0971
   94MOL0     C12570   8.175   1.256   4.263  0.2192  0.4455 -0.7957
   94MOL0     C12571   8.220   1.205   4.129  0.2717  0.8682  0.3714
   94MOL0     N12572   8.367   1.207   4.118  0.9074  0.1131 -1.1459
   94MOL0     C12573   8.453   1.303   4.166  0.0775 -0.7051  0.2800
   94MOL0     C12574   8.578   1.268   4.113  0.2968  0.0346 -0.4058
   94MOL0     C12575   8.710   1.337   4.121 -0.7946 -0.3977 -0.0101
   94MOL0     C12576   8.719   1.456   4.030  0.7471  0.1333 -0.3216
   94MOL0     C12577   8.842   1.542   4.040 -0.1140  0.2491  0.3694
   94MOL0     C12578   8.868   1.613   4.177 -0.1688 -0.0738 -0.5749
   94MOL0     O12579   8.962   1.723   4.165 -0.2142  0.6331 -0.7223
   94MOL0     C12580   9.098   1.696   4.183  0.9997  0.6540 -0.5425
   94MOL0     C12581   9.155   1.571   4.189 -0.2350 -0.3304  0.8353
   94MOL0     C12582   9.296   1.563   4.195  0.2276 -0.2902  0.0471
   94MOL0     C12583   9.378   1.680   4.204 -0.2669 -0.1876  0.8826
   94MOL0     C12584   9.521   1.671   4.208 -0.1656  0.5714  0.9618
   94MOL0     O12585   9.567   1.549   4.155  0.6061 -0.8450  0.4865
   94MOL0     C12586   9.707   1.520   4.145 -0.3380  0.3436 -0.2900
   94MOL0     C12587   9.802   1.563   4.232  0.3845 -0.1252  0.2161
   94MOL0     C12588   9.934   1.538   4.203 -0.9837 -0.0499  0.0052
   94MOL0     C12589   9.969   1.443   4.106  0.0192 -0.0145 -1.2988
   94MOL0     O12590  10.108   1.417   4.091 -0.0217 -0.1588 -0.9907
   94MOL0     C12591  10.140   1.292   4.037 -0.8058 -0.1278  0.9069
   94MOL0     C12592  10.290   1.271   4.049  0.4350 -0.3203  0.3902
   94MOL0     C12593  10.345   1.142   3.992 -0.4720 -0.5348  0.3858
   94MOL0     C12594  10.295   1.107   3.849  0.3223  0.9179  0.7721
   94MOL0     C12595  10.408   1.010   3.795  0.2000  0.0613 -0.2659
   94MOL0     C12596  10.355   0.909   3.695 -0.4250 -0.4771  0.1298
   94MOL0     C12597  10.472   0.843   3.627 -0.4111 -0.6873  0.3256
   94MOL0     C12598  10.531   0.929   3.511 -0.6356  0.1474  0.4037
   94MOL0    Cl12599  10.460   0.885   3.353 -0.4211 -0.0276 -0.2854
   94MOL0     C12600   9.870   1.385   4.022  0.3515 -1.4051  0.3210
   94MOL0     C12601   9.738   1.430   4.039  0.2725 -0.2403 -0.4441
   94MOL0     O12602   9.589   1.771   4.240  0.7147 -0.5562  0.0942
   94MOL0     C12603   9.310   1.800   4.195 -1.6852 -0.4698 -0.0906
   94MOL0     C12604   9.180   1.808   4.182 -0.4800  0.4179  0.0874
   94MOL0     N12605   8.566   1.140   4.058 -0.4127 -0.2250  0.3937
   94MOL0     N12606   8.441   1.106   4.058 -0.3562 -0.6422 -0.1168
   94MOL0     C12607   7.403   0.907   4.608 -0.0426  0.0286 -0.1288
   94MOL0     C12608   7.285   0.848   4.567  0.4513  0.2469 -0.7513
   94MOL0     C12609   6.999   0.555   4.345  0.2381  0.0767 -0.0022
   94MOL0     C12610   6.891   0.635   4.380 -0.2864 -0.8073 -0.4366
   94MOL0     C12611   6.762   0.600   4.362 -0.4292 -0.5300  0.4523
   94MOL0     C12612   6.733   0.482   4.295 -0.9172 -0.5436  0.3650
   94MOL0     O12613   6.596   0.467   4.271 -0.5230 -0.2554  0.0369
   94MOL0     C12614   6.540   0.340   4.235  0.5142  0.0115 -0.0592
   94MOL0     C12615   6.508   0.262   4.353  0.0523 -0.5901 -0.6849
   94MOL0     C12616   6.481   0.116   4.331  0.0612 -0.2366  0.0762
   94MOL0     C12617   6.424   0.050   4.458 -0.4061  0.2513  0.1044
   94MOL0     C12618   6.528   0.037   4.563  0.8308 -0.0099 -0.1225
   94MOL0     C12619   6.597   0.067   4.656  0.0619  1.1320 -0.7975
   94MOL0     C12620   6.838   0.398   4.259 -0.7120 -0.1168 -0.8055
   94MOL0     C12621   6.971   0.430   4.285 -0.5956 -0.7207 -0.4829
   94MOL0     C12622   7.081   0.323   4.256  0.6909  0.3819  0.5209
   94MOL0     H12623   7.341   0.784   4.241  0.4029 -3.2989  0.5085
   94MOL0     H12624   7.544   0.886   4.287 -2.8326  0.5942 -1.5222
   94MOL0     H12625   7.745   0.819   4.531 -0.2177 -0.7338  0.5591
   94MOL0     H12626   7.756   0.958   4.410  0.3332  1.3684  1.1999
   94MOL0     H12627   7.831   0.995   4.693 -0.2910 -1.5738 -0.1602
   94MOL0     H12628   7.844   1.105   4.561  0.2618 -0.9293 -1.7374
   94MOL0     H12629   7.999   0.923   4.445 -1.9793 -3.2658  0.6525
   94MOL0     H12630   8.004   0.845   4.607 -0.2734  0.0309 -0.1201
   94MOL0     H12631   8.087   1.056   4.698 -0.2295  0.6321 -0.9190
   94MOL0     H12632   8.199   0.974   4.599  0.6791  0.3720 -1.6506
   94MOL0     H12633   8.060   1.238   4.515  0.1653  0.1692  0.3266
   94MOL0     H12634   8.233   1.217   4.569  1.2761 -0.9342 -0.8272
   94MOL0     H12635   8.298   1.109   4.385  0.4155  0.2117 -2.9474
   94MOL0     H12636   8.142   1.053   4.331 -2.1483  0.8368 -0.8686
   94MOL0     H12637   8.223   1.354   4.279 -0.2600  0.4224  0.9611
   94MOL0     H12638   8.070   1.285   4.263 -0.4552 -1.6140  2.0043
   94MOL0     H12639   8.175   1.109   4.104 -2.1227  1.7066  1.1530
   94MOL0     H12640   8.190   1.273   4.048  2.0191 -2.1411 -3.1160
   94MOL0     H12641   8.436   1.397   4.217 -0.3033 -1.4334  1.5442
   94MOL0     H12642   8.729   1.365   4.225 -2.1765 -0.8602  0.3850
   94MOL0     H12643   8.790   1.266   4.097 -0.4877 -0.1169  0.1700
   94MOL0     H12644   8.707   1.423   3.926 -0.0008 -0.4957 -0.0379
   94MOL0     H12645   8.638   1.526   4.054 -0.1853 -1.4975  1.6326
   94MOL0     H12646   8.847   1.624   3.967 -0.6115  1.1341  1.3033
   94MOL0     H12647   8.929   1.482   4.012 -1.1878 -1.9007  1.3873
   94MOL0     H12648   8.898   1.547   4.260  2.5802  0.7898 -0.7734
   94MOL0     H12649   8.771   1.654   4.204  0.6359  0.4197  1.8410
   94MOL0     H12650   9.091   1.485   4.174 -1.6774  1.1196 -2.0031
   94MOL0     H12651   9.346   1.467   4.207  3.0525  1.1387  0.5788
   94MOL0     H12652   9.774   1.624   4.318 -2.4388  3.4590 -2.9457
   94MOL0     H12653  10.012   1.570   4.271 -0.5465 -2.7534  0.9028
   94MOL0     H12654  10.088   1.209   4.084 -0.2173  0.6215  3.0194
   94MOL0     H12655  10.117   1.296   3.931 -1.7073 -2.3733  0.9728
   94MOL0     H12656  10.342   1.346   3.989  0.8173  1.1034  2.3846
   94MOL0     H12657  10.318   1.267   4.155  0.3404 -1.4510  0.3813
   94MOL0     H12658  10.452   1.166   3.993 -0.1202 -1.4773 -2.9647
   94MOL0     H12659  10.308   1.063   4.057 -0.6961 -0.2892  0.5597
   94MOL0     H12660  10.291   1.198   3.788 -0.2636  2.2118  2.6733
   94MOL0     H12661  10.196   1.063   3.852  1.4919 -1.9762  0.2883
   94MOL0     H12662  10.458   0.958   3.877  3.9117  1.2238 -1.5509
   94MOL0     H12663  10.489   1.074   3.758 -2.4482  2.1568 -2.8753
   94MOL0     H12664  10.301   0.831   3.748 -1.3980  1.0388  1.4508
   94MOL0     H12665  10.289   0.958   3.623 -0.3414  0.6820  0.8210
   94MOL0     H12666  10.452   0.748   3.576  2.1406 -3.5850  4.1301
   94MOL0     H12667  10.552   0.813   3.695  2.4348  0.5267 -2.2881
   94MOL0     H12668  10.534   1.037   3.526 -0.2196  0.4106 -1.2870
   94MOL0     H12669  10.635   0.898   3.497 -1.3575 -1.9169 -0.7283
   94MOL0     H12670   9.897   1.312   3.946  1.0278 -1.3969  0.5433
   94MOL0     H12671   9.653   1.388   3.985  0.4531 -2.2235  0.7087
   94MOL0     H12672   9.372   1.888   4.185  2.9205 -3.5813 -3.7071
   94MOL0     H12673   9.139   1.908   4.191  0.5818  0.7975  0.9650
   94MOL0     H12674   7.418   0.951   4.706 -1.3158 -2.0050  1.0559
   94MOL0     H12675   7.204   0.859   4.638  0.3287  1.3575 -1.0539
   94MOL0     H12676   6.905   0.736   4.418  0.8920 -0.4632 -1.7116
   94MOL0     H12677   6.682   0.664   4.398 -0.3429  0.7966 -1.5642
   94MOL0     H12678   6.613   0.281   4.179  2.3282  0.1845  2.0031
   94MOL0     H12679   6.448   0.339   4.176 -1.3139 -3.0116  2.5090
   94MOL0     H12680   6.426   0.314   4.404  1.5514 -0.7279  2.0566
   94MOL0     H12681   6.599   0.257   4.413  0.0789  0.9680 -0.5587
   94MOL0     H12682   6.571   0.068   4.292 -0.4713 -0.4017 -0.9856
   94MOL0     H12683   6.398   0.098   4.263  1.0273 -1.0287 -0.9127
   94MOL0     H12684   6.342   0.114   4.489 -1.0016 -0.1073 -0.7006
   94MOL0     H12685   6.376  -0.040   4.419  1.3555  0.7136 -3.6302
   94MOL0     H12686   6.666   0.073   4.738  0.3297 -4.1788 -0.2874
   94MOL0     H12687   6.814   0.305   4.210 -0.3940 -0.0480 -1.0942
   94MOL0     H12688   7.177   0.365   4.225  1.2020 -0.4747  0.8760
   94MOL0     H12689   7.104   0.284   4.356  1.1021  0.6008  0.5104
   94MOL0     H12690   7.044   0.240   4.195 -1.4262  0.5875  1.4275
   95MOL0     O12691   0.927  11.302   1.358  0.3945  0.0299 -0.2758
   95MOL0     C12692   0.927  11.424   1.338 -0.3462 -0.0782 -0.4925
   95MOL0     O12693   0.843  11.491   1.266 -0.3821 -0.1057  0.0544
   95MOL0     C12694   0.726  11.428   1.231  0.0701 -0.8167 -0.0510
   95MOL0     C12695   0.735  11.319   1.148 -0.2172 -0.5355 -0.4354
   95MOL0     C12696   0.623  11.267   1.082 -0.5811  0.9092 -1.2910
   95MOL0     C12697   0.496  11.309   1.119 -0.6405 -0.0763 -0.1960
   95MOL0     O12698   0.392  11.231   1.074 -0.5967  0.6598  0.3369
   95MOL0     C12699   0.266  11.244   1.125  1.3888  0.3659 -0.8438
   95MOL0     C12700   0.174  11.131   1.067 -0.6074 -0.2380 -0.0974
   95MOL0     C12701   0.207  10.987   1.107 -0.0558 -0.3538  0.8473
   95MOL0     C12702   0.342  10.948   1.059  0.0823 -0.9333  0.2082
   95MOL0     C12703   0.349  10.799   1.076 -0.8569  0.2167  1.1650
   95MOL0     C12704   0.286  10.736   0.952 -0.4739 -0.0989 -0.0919
   95MOL0     C12705   0.248  10.585   0.964  0.1978 -0.1999  0.0618
   95MOL0     C12706   0.368  10.485   0.976 -0.0414 -0.7869 -0.2552
   95MOL0     N12707   0.459  10.499   0.859  0.0911  0.4519  0.8370
   95MOL0     C12708   0.434  10.508   0.726 -0.1265  0.2209  0.0726
   95MOL0     C12709   0.548  10.519   0.665 -0.3917 -0.0491  0.6129
   95MOL0     C12710   0.574  10.536   0.521 -1.0812  0.1480 -0.4221
   95MOL0     C12711   0.698  10.447   0.491 -0.8351 -0.0192 -0.1631
   95MOL0     C12712   0.768  10.465   0.358 -0.3660  0.4981 -0.6048
   95MOL0     C12713   0.902  10.392   0.364 -0.4941 -0.7017  0.6981
   95MOL0     O12714   0.973  10.433   0.245 -0.5365 -0.0854 -0.6161
   95MOL0     C12715   1.108  10.409   0.251  0.1558 -0.2145  0.0013
   95MOL0     C12716   1.177  10.336   0.347  0.4087 -0.3186  0.3160
   95MOL0     C12717   1.309  10.307   0.325  0.1329  0.6461  0.1643
   95MOL0     C12718   1.383  10.358   0.208 -0.4490  0.0017  0.7498
   95MOL0     C12719   1.525  10.319   0.192  0.4848 -0.3239 -0.5637
   95MOL0     O12720   1.595  10.361   0.090 -0.2872 -0.0561 -0.1419
   95MOL0     C12721   1.728  10.386   0.110  0.1851  0.1033 -0.0959
   95MOL0     C12722   1.779  10.512   0.157 -0.6656  0.1844  0.0619
   95MOL0     C12723   1.916  10.528   0.183 -0.5956  0.2074  0.5623
   95MOL0     C12724   2.009  10.424   0.164  0.7077  0.8829  0.5380
   95MOL0     O12725   2.143  10.430   0.190  0.2517 -0.9351 -0.4356
   95MOL0     C12726   2.173  10.520   0.304  0.6814  0.7397 -0.4968
   95MOL0     C12727   2.314  10.497   0.353 -0.1893 -0.6884 -0.2573
   95MOL0     C12728   2.356  10.595   0.469  0.5462  0.1398  0.4574
   95MOL0     C12729   2.374  10.730   0.417  0.8578  0.0602  0.5051
   95MOL0     C12730   2.431  10.835   0.524 -0.4672  0.3034 -0.4733
   95MOL0     C12731   2.437  10.973   0.467 -1.1867  0.5844 -0.2921
   95MOL0     C12732   2.520  11.077   0.544  0.7440 -0.2710 -0.7767
   95MOL0     C12733   2.671  11.080   0.521  0.7211  0.6332  0.7295
   95MOL0    Cl12734   2.716  11.190   0.659 -0.0823  0.3930  0.2784
   95MOL0     C12735   1.962  10.297   0.119 -0.0422 -0.1861  0.0367
   95MOL0     C12736   1.827  10.283   0.095  0.7038  0.3514  1.3383
   95MOL0     O12737   1.572  10.262   0.292  0.3188 -0.6514  0.7000
   95MOL0     C12738   1.313  10.434   0.114 -0.4077  0.2791 -0.4014
   95MOL0     C12739   1.175  10.460   0.139  0.1401  0.5775  1.0138
   95MOL0     N12740   0.647  10.527   0.760  0.6852  1.1592  0.2101
   95MOL0     N12741   0.588  10.524   0.871  0.9244 -0.6462  0.3229
   95MOL0     C12742   0.490  11.425   1.203 -0.6623  0.4824 -0.2845
   95MOL0     C12743   0.601  11.488   1.252  0.4729 -0.2225 -0.5263
   95MOL0     C12744   1.025  11.503   1.415  0.1545  0.2803  0.4115
   95MOL0     C12745   1.102  11.437   1.522  0.7309 -0.6282 -0.6455
   95MOL0     C12746   1.183  11.516   1.603 -0.6163  0.1073 -0.4809
   95MOL0     C12747   1.210  11.648   1.575  1.1717 -0.0061 -0.1786
   95MOL0     O12748   1.302  11.702   1.655 -0.2293 -0.0717 -0.4313
   95MOL0     C12749   1.268  11.811   1.740  0.1653 -0.4010  0.5267
   95MOL0     C12750   1.171  11.780   1.849 -0.3473 -1.0080 -0.2547
   95MOL0     C12751   1.162  11.906   1.946  0.1136  0.1028  0.0380
   95MOL0     C12752   1.087  11.859   2.069 -0.0010  0.2267  0.1429
   95MOL0     C12753   0.938  11.851   2.046 -0.2975  1.2560  0.1784
   95MOL0     C12754   0.834  11.815   1.996  0.6959  0.6014 -0.4712
   95MOL0     C12755   1.147  11.706   1.467 -0.6407  0.6342  0.7154
   95MOL0     C12756   1.048  11.640   1.387  0.3605  0.0826 -1.0776
   95MOL0     C12757   0.966  11.735   1.291 -0.2039  0.3853 -0.0862
   95MOL0     H12758   0.829  11.277   1.113  2.1227  0.5153  3.9179
   95MOL0     H12759   0.638  11.183   1.015 -0.3926 -0.8990  0.8773
   95MOL0     H12760   0.263  11.243   1.235  1.6823 -0.7509 -0.8282
   95MOL0     H12761   0.226  11.339   1.089  1.6640  1.3379  1.2419
   95MOL0     H12762   0.181  11.145   0.959  1.2274 -0.2079 -0.0027
   95MOL0     H12763   0.074  11.161   1.100 -0.5563  0.6399 -0.7089
   95MOL0     H12764   0.131  10.915   1.074 -0.5408  0.1942  0.7546
   95MOL0     H12765   0.200  10.981   1.216 -1.3903  0.0398  0.7995
   95MOL0     H12766   0.358  10.975   0.954  0.3244  0.8379  0.6554
   95MOL0     H12767   0.422  10.994   1.118  1.4649 -0.7827 -1.6978
   95MOL0     H12768   0.454  10.769   1.073 -0.3463  1.8940 -1.2430
   95MOL0     H12769   0.309  10.770   1.173  1.4185 -1.6530  1.6471
   95MOL0     H12770   0.198  10.794   0.922  0.2560  1.4389  0.6176
   95MOL0     H12771   0.362  10.738   0.874  0.5722 -1.7634  0.8210
   95MOL0     H12772   0.179  10.557   0.883  1.7846 -3.9447 -0.1893
   95MOL0     H12773   0.189  10.572   1.055 -1.6199  1.0970 -0.8601
   95MOL0     H12774   0.414  10.503   1.073 -2.1470  1.3445  0.4556
   95MOL0     H12775   0.321  10.387   0.989 -1.9672  0.1219  0.0333
   95MOL0     H12776   0.336  10.517   0.680  1.3447  0.3113 -3.3801
   95MOL0     H12777   0.492  10.510   0.453  0.1216 -0.0476 -1.8605
   95MOL0     H12778   0.602  10.641   0.504 -0.4272  0.0618  0.0728
   95MOL0     H12779   0.779  10.467   0.561 -0.0469  2.1115 -1.5752
   95MOL0     H12780   0.676  10.340   0.493 -3.8609  0.4693 -1.1123
   95MOL0     H12781   0.781  10.573   0.352 -0.0643  0.7559  2.5930
   95MOL0     H12782   0.700  10.426   0.282 -0.4189  0.6770 -0.6492
   95MOL0     H12783   0.881  10.286   0.376 -2.5121 -0.3052  1.1077
   95MOL0     H12784   0.953  10.418   0.457  2.1507 -1.4273 -0.4617
   95MOL0     H12785   1.128  10.298   0.436 -1.1319 -2.5928 -1.4154
   95MOL0     H12786   1.369  10.254   0.399  0.1088 -1.1124 -0.9939
   95MOL0     H12787   1.707  10.588   0.183 -4.9311 -2.9918 -1.3542
   95MOL0     H12788   1.943  10.623   0.227 -0.0814  0.8293 -1.0031
   95MOL0     H12789   2.166  10.621   0.263  1.3741  1.1226  0.2942
   95MOL0     H12790   2.106  10.510   0.390  0.6068  0.6628 -0.5626
   95MOL0     H12791   2.333  10.398   0.395  4.0203  0.2109  0.4884
   95MOL0     H12792   2.383  10.512   0.270  1.5137  2.5254  1.5273
   95MOL0     H12793   2.282  10.591   0.550 -1.2762  0.1171 -1.1480
   95MOL0     H12794   2.455  10.559   0.501 -0.1187 -1.8619  0.4144
   95MOL0     H12795   2.284  10.773   0.373  0.2829  2.2880  3.5654
   95MOL0     H12796   2.453  10.732   0.340  1.3156 -2.7157  0.7993
   95MOL0     H12797   2.527  10.800   0.562 -1.9936 -0.6939  2.8651
   95MOL0     H12798   2.365  10.826   0.611  0.9904  3.5790  1.1581
   95MOL0     H12799   2.481  10.976   0.367 -1.3108 -2.6803 -0.5305
   95MOL0     H12800   2.335  11.010   0.451 -0.3369  4.7885  2.3505
   95MOL0     H12801   2.499  11.058   0.650  4.2732  0.6323  0.2100
   95MOL0     H12802   2.477  11.174   0.519 -0.3866 -1.0188 -1.9089
   95MOL0     H12803   2.715  10.980   0.530 -1.3399 -0.6563 -2.1459
   95MOL0     H12804   2.706  11.119   0.425 -1.9905 -1.1846 -1.1453
   95MOL0     H12805   2.023  10.207   0.125 -0.0334 -0.2195 -0.5543
   95MOL0     H12806   1.801  10.181   0.067  1.5874  1.0084 -2.4862
   95MOL0     H12807   1.366  10.478   0.030  1.1674  0.1730  0.5055
   95MOL0     H12808   1.118  10.506   0.060  1.9534  2.5914  0.8142
   95MOL0     H12809   0.391  11.465   1.220 -0.2879  0.6813  1.6717
   95MOL0     H12810   0.614  11.577   1.312  2.2143 -0.0164 -1.1518
   95MOL0     H12811   1.089  11.331   1.540 -1.0680 -0.6479 -1.8294
   95MOL0     H12812   1.240  11.480   1.688 -2.1899  0.2021  0.6504
   95MOL0     H12813   1.229  11.889   1.673  1.7091 -2.5044 -3.1174
   95MOL0     H12814   1.362  11.846   1.783  0.8498  0.1411 -1.2992
   95MOL0     H12815   1.202  11.686   1.895 -0.4729 -1.3451 -0.8547
   95MOL0     H12816   1.071  11.769   1.807 -0.6375 -1.9687  0.6387
   95MOL0     H12817   1.116  11.993   1.899 -0.3413  0.0154  0.3178
   95MOL0     H12818   1.260  11.945   1.976 -0.6231  1.2526  1.0054
   95MOL0     H12819   1.127  11.766   2.110 -0.3460 -0.1813 -0.4326
   95MOL0     H12820   1.105  11.924   2.155  0.3069 -0.1278  0.3463
   95MOL0     H12821   0.749  11.791   1.935  0.5511 -2.9339  0.8784
   95MOL0     H12822   1.156  11.810   1.436 -0.6043  0.1430 -1.0654
   95MOL0     H12823   1.015  11.710   1.196  0.2221 -0.0611  0.2494
   95MOL0     H12824   0.862  11.703   1.299  0.2376 -0.9281  0.7633
   95MOL0     H12825   0.983  11.842   1.302 -1.4870  0.8000 -1.7836
   96MOL0     O12826   5.622   2.675   5.859  0.8947  0.0029 -0.4229
   96MOL0     C12827   5.735   2.658   5.819 -0.0409  0.1557  0.0689
   96MOL0     O12828   5.834   2.747   5.846 -0.2814  0.9607 -0.3206
   96MOL0     C12829   5.837   2.833   5.951  0.2158  0.2401 -0.3253
   96MOL0     C12830   5.892   2.956   5.932 -1.4840 -1.1494 -0.1406
   96MOL0     C12831   5.922   3.040   6.046  0.3601  0.1097 -0.2745
   96MOL0     C12832   5.873   3.013   6.172  0.1493 -0.3328  0.2199
   96MOL0     O12833   5.892   3.113   6.267 -0.6676 -0.1318  0.0291
   96MOL0     C12834   5.834   3.080   6.394  0.3962 -0.0681 -0.4619
   96MOL0     C12835   5.826   3.199   6.493 -0.7294  1.0296 -0.1200
   96MOL0     C12836   5.763   3.326   6.438 -0.2937  0.6875  0.0299
   96MOL0     C12837   5.727   3.436   6.546 -0.0093 -0.1060  0.3124
   96MOL0     C12838   5.682   3.564   6.470 -0.7654  0.4263 -0.2194
   96MOL0     C12839   5.801   3.627   6.397 -0.3839 -0.4874  0.8909
   96MOL0     C12840   5.768   3.772   6.348  0.1446  0.9828 -0.4592
   96MOL0     C12841   5.657   3.785   6.243  0.2046 -0.0496  0.4568
   96MOL0     N12842   5.678   3.701   6.122 -0.4062  0.0541 -0.2324
   96MOL0     C12843   5.610   3.584   6.103 -1.3105  1.9456 -0.1467
   96MOL0     C12844   5.668   3.533   6.000 -0.2516 -0.8521  0.7821
   96MOL0     C12845   5.610   3.423   5.913 -0.7837 -0.0405 -0.1495
   96MOL0     C12846   5.649   3.281   5.970 -0.7265 -0.2249 -0.1023
   96MOL0     C12847   5.565   3.242   6.087 -0.5350  0.7753  0.8466
   96MOL0     C12848   5.416   3.220   6.054 -0.5071  0.1314  0.4015
   96MOL0     O12849   5.417   3.126   5.946  0.7895 -0.1439 -0.3600
   96MOL0     C12850   5.354   3.004   5.986 -0.4926  0.0406  1.1432
   96MOL0     C12851   5.420   2.884   6.002 -0.1776  1.2057  0.1310
   96MOL0     C12852   5.344   2.769   6.040  0.0942  0.9210  0.4581
   96MOL0     C12853   5.206   2.764   6.028  0.5092  0.1548  0.3086
   96MOL0     C12854   5.131   2.638   6.049  0.1624  0.6705  0.1084
   96MOL0     O12855   5.200   2.523   6.064 -0.6311  0.6388 -0.0753
   96MOL0     C12856   5.145   2.410   6.014  0.5657  0.1913  0.3934
   96MOL0     C12857   5.207   2.365   5.894 -0.1604 -0.0333 -0.0924
   96MOL0     C12858   5.167   2.245   5.836  0.1412 -0.4011 -0.5233
   96MOL0     C12859   5.052   2.184   5.883 -1.0320  0.8069 -0.0446
   96MOL0     O12860   4.997   2.076   5.819  0.3393 -0.2813 -1.0856
   96MOL0     C12861   5.010   2.056   5.673  0.5212 -1.2922 -0.5939
   96MOL0     C12862   4.898   1.960   5.637 -0.0461 -0.4497 -0.4048
   96MOL0     C12863   4.917   1.812   5.684 -1.1219  0.1989 -0.0433
   96MOL0     C12864   4.796   1.726   5.684 -0.3575 -0.0459 -0.3762
   96MOL0     C12865   4.723   1.739   5.816 -0.3285 -0.0138 -0.4683
   96MOL0     C12866   4.605   1.633   5.821 -0.2362 -1.1700 -0.0359
   96MOL0     C12867   4.546   1.635   5.962 -0.2377 -0.3116  0.1850
   96MOL0     C12868   4.417   1.554   5.976 -0.9768 -0.2691 -0.5474
   96MOL0    Cl12869   4.377   1.554   6.157 -0.5587 -0.1884 -0.3854
   96MOL0     C12870   4.987   2.230   5.998  1.1472 -0.3486  1.0878
   96MOL0     C12871   5.030   2.339   6.066 -0.1050 -0.1389 -0.6878
   96MOL0     O12872   5.009   2.640   6.048 -0.1638  0.1452 -0.4761
   96MOL0     C12873   5.132   2.889   5.992 -0.6435 -0.2349 -0.0240
   96MOL0     C12874   5.209   3.005   5.974 -1.2089 -0.5213 -0.0929
   96MOL0     N12875   5.790   3.596   5.977 -1.1642  0.5239 -0.3115
   96MOL0     N12876   5.793   3.699   6.048  0.6167  0.5363  0.1403
   96MOL0     C12877   5.798   2.896   6.195 -0.3224 -0.0867 -0.6106
   96MOL0     C12878   5.786   2.802   6.082  0.4830 -0.4938 -0.5809
   96MOL0     C12879   5.766   2.547   5.728  0.2460  0.0599  0.5820
   96MOL0     C12880   5.900   2.535   5.681 -0.3296 -0.2382 -0.0706
   96MOL0     C12881   5.937   2.417   5.621  0.4327  0.4835  0.3059
   96MOL0     C12882   5.840   2.322   5.583  0.2806 -0.1819  0.3001
   96MOL0     O12883   5.875   2.205   5.506  0.6817  0.0927 -1.0330
   96MOL0     C12884   6.006   2.196   5.454  0.6198  0.3098 -0.5855
   96MOL0     C12885   6.014   2.068   5.381  0.1235  0.1855  0.8889
   96MOL0     C12886   6.136   2.073   5.290  0.1599  0.1714  0.7167
   96MOL0     C12887   6.135   1.950   5.201  0.4617 -0.0161 -0.6161
   96MOL0     C12888   6.258   1.943   5.125  0.4548  0.2460  0.5070
   96MOL0     C12889   6.361   1.920   5.059 -0.3081  0.5094  0.4435
   96MOL0     C12890   5.710   2.345   5.613 -1.1199 -1.1493 -0.4035
   96MOL0     C12891   5.665   2.454   5.682 -0.4100 -0.5439  0.2118
   96MOL0     C12892   5.521   2.460   5.713  0.2876  1.1515  0.3293
   96MOL0     H12893   5.917   2.986   5.830  0.8177  1.0344  0.9335
   96MOL0     H12894   5.979   3.130   6.027 -1.0637  1.4011  1.2924
   96MOL0     H12895   5.734   3.039   6.376  0.4431 -1.4432  1.8995
   96MOL0     H12896   5.890   2.993   6.428 -2.7381 -1.4036  1.8059
   96MOL0     H12897   5.924   3.233   6.527 -1.3768  2.1568  0.6781
   96MOL0     H12898   5.775   3.169   6.585  1.1558 -0.3206  0.5568
   96MOL0     H12899   5.665   3.304   6.394  0.6677 -0.5981 -1.5862
   96MOL0     H12900   5.828   3.351   6.354  0.6129 -0.3781  0.3820
   96MOL0     H12901   5.667   3.410   6.634 -1.2736 -1.0963 -0.7982
   96MOL0     H12902   5.822   3.461   6.595 -1.8620  2.3276  3.0244
   96MOL0     H12903   5.607   3.531   6.398 -1.6247 -2.0584  1.6521
   96MOL0     H12904   5.637   3.644   6.530 -0.8349  0.5466 -0.4291
   96MOL0     H12905   5.884   3.634   6.468  0.0393 -1.5556  0.5131
   96MOL0     H12906   5.837   3.563   6.316  0.2006  0.3663  0.4519
   96MOL0     H12907   5.860   3.802   6.295  3.7135 -4.5716  1.6891
   96MOL0     H12908   5.755   3.831   6.439  3.2536  2.7420 -0.9798
   96MOL0     H12909   5.557   3.755   6.276  0.1136 -1.0384 -0.6396
   96MOL0     H12910   5.652   3.889   6.210 -0.3574 -0.2849 -0.2151
   96MOL0     H12911   5.517   3.538   6.135  0.4228 -2.3812 -0.6467
   96MOL0     H12912   5.501   3.420   5.902 -0.8449  1.1542 -0.0445
   96MOL0     H12913   5.657   3.435   5.815  1.7933 -2.6158  0.6490
   96MOL0     H12914   5.637   3.202   5.895  2.1650 -1.6864  0.8234
   96MOL0     H12915   5.756   3.280   5.990 -0.3399 -0.9080 -1.9474
   96MOL0     H12916   5.579   3.314   6.169 -0.2055 -0.7599  2.1900
   96MOL0     H12917   5.605   3.147   6.123  0.2935  0.3592 -1.0655
   96MOL0     H12918   5.368   3.308   6.010  0.2089 -1.0816 -3.1067
   96MOL0     H12919   5.352   3.181   6.133 -1.0803 -1.1294 -0.6577
   96MOL0     H12920   5.528   2.888   6.000  0.2779 -3.0811  2.8626
   96MOL0     H12921   5.407   2.689   6.080 -1.5723  0.5589  2.5482
   96MOL0     H12922   5.289   2.416   5.845 -1.0989  0.0522 -1.6111
   96MOL0     H12923   5.218   2.202   5.750  0.2690  4.2910 -3.1415
   96MOL0     H12924   4.975   2.142   5.616  2.7752  0.5064  0.5399
   96MOL0     H12925   5.111   2.031   5.638  1.4051  1.9537 -0.6619
   96MOL0     H12926   4.801   1.993   5.676 -0.0263 -1.3619  0.4403
   96MOL0     H12927   4.884   1.959   5.528  2.2626 -1.3918 -0.7584
   96MOL0     H12928   4.982   1.766   5.608 -1.1241  2.7700 -1.7328
   96MOL0     H12929   4.966   1.807   5.782 -1.2487  0.9364  0.0632
   96MOL0     H12930   4.831   1.624   5.664 -1.3836 -0.5201  0.1733
   96MOL0     H12931   4.732   1.754   5.600  1.1103  0.9028 -1.2181
   96MOL0     H12932   4.697   1.845   5.826  0.4779  0.0781  1.0429
   96MOL0     H12933   4.794   1.725   5.898 -0.7213 -0.5469 -0.2219
   96MOL0     H12934   4.529   1.648   5.744  1.1634  0.1137 -1.2524
   96MOL0     H12935   4.653   1.540   5.789  1.0310 -0.1782 -1.1527
   96MOL0     H12936   4.546   1.735   6.005  2.1738 -0.2120  0.1148
   96MOL0     H12937   4.613   1.581   6.029 -1.1481 -1.2305  0.3860
   96MOL0     H12938   4.336   1.588   5.911 -0.8036 -1.3728 -1.3600
   96MOL0     H12939   4.435   1.448   5.959 -2.1164 -0.7359  0.9759
   96MOL0     H12940   4.902   2.171   6.031  1.6315 -2.5186 -1.1899
   96MOL0     H12941   4.980   2.362   6.159 -0.4276 -1.0471 -0.6325
   96MOL0     H12942   5.024   2.885   5.982 -0.6363 -2.4318  0.3111
   96MOL0     H12943   5.162   3.099   5.944 -0.2834  0.3582  1.1306
   96MOL0     H12944   5.762   2.863   6.292  0.9909 -2.7808 -0.9188
   96MOL0     H12945   5.753   2.701   6.104 -0.3274 -0.1841 -0.3543
   96MOL0     H12946   5.973   2.611   5.709 -1.6027  1.3977 -0.9582
   96MOL0     H12947   6.041   2.395   5.599  0.9935  0.4709  2.7599
   96MOL0     H12948   6.084   2.201   5.530  0.5463  1.0832 -0.5523
   96MOL0     H12949   6.028   2.279   5.387 -0.9958  1.0792 -0.2187
   96MOL0     H12950   5.924   2.059   5.320  0.1522 -3.4105  1.1782
   96MOL0     H12951   6.012   1.984   5.451 -4.0642 -1.8794 -1.3073
   96MOL0     H12952   6.229   2.072   5.347  0.1339 -1.8913  0.8140
   96MOL0     H12953   6.122   2.155   5.220 -0.8180 -0.7430 -0.2057
   96MOL0     H12954   6.130   1.861   5.265 -0.6981  1.2408  1.1197
   96MOL0     H12955   6.051   1.970   5.134 -1.9703 -0.7615  2.0093
   96MOL0     H12956   6.446   1.885   5.005 -0.7648  0.8931 -0.5520
   96MOL0     H12957   5.642   2.269   5.575 -1.1539  0.2383 -3.4207
   96MOL0     H12958   5.472   2.556   5.729  0.6545  1.4363 -0.2317
   96MOL0     H12959   5.467   2.417   5.627  2.7967 -2.4427  0.3258
   96MOL0     H12960   5.491   2.393   5.794 -2.4883 -1.9055 -2.8561
   97MOL0     O12961   4.693   6.518   7.840  0.2811  1.3644  0.1213
   97MOL0     C12962   4.610   6.470   7.916 -0.9342 -0.6459 -0.6509
   97MOL0     O12963   4.561   6.535   8.023  0.1320 -0.5973  0.2677
   97MOL0     C12964   4.619   6.653   8.059  0.0936 -0.3619  0.3112
   97MOL0     C12965   4.677   6.667   8.178 -0.7340  0.0993  0.1773
   97MOL0     C12966   4.712   6.788   8.232  0.9198  0.3298  0.3888
   97MOL0     C12967   4.688   6.906   8.162 -0.8803 -0.1496 -0.5285
   97MOL0     O12968   4.718   7.019   8.229 -0.4478 -0.6757 -0.0528
   97MOL0     C12969   4.682   7.150   8.188  0.1655 -0.5697 -0.5948
   97MOL0     C12970   4.698   7.263   8.287  0.3559 -0.2917 -0.8155
   97MOL0     C12971   4.832   7.270   8.352 -0.0820  1.4710 -0.2711
   97MOL0     C12972   4.866   7.393   8.430 -0.3314  0.2690  0.4463
   97MOL0     C12973   4.900   7.508   8.331 -0.2931 -0.9797 -0.3841
   97MOL0     C12974   5.039   7.498   8.288  0.1081 -0.6310  0.7315
   97MOL0     C12975   5.141   7.543   8.395 -0.2023  0.9089  0.2715
   97MOL0     C12976   5.147   7.695   8.403 -0.6284 -0.2396 -0.6059
   97MOL0     N12977   5.206   7.740   8.531  0.4364 -0.4808 -0.7208
   97MOL0     C12978   5.310   7.689   8.618  0.8458  0.6283 -0.0583
   97MOL0     C12979   5.331   7.790   8.705 -0.4964  0.8078 -0.2831
   97MOL0     C12980   5.426   7.801   8.819  0.6871 -0.3141 -0.0240
   97MOL0     C12981   5.539   7.696   8.801  0.1963  0.1150 -0.3015
   97MOL0     C12982   5.662   7.709   8.893  0.0454 -0.3096  0.0404
   97MOL0     C12983   5.643   7.637   9.031  0.1987 -0.4475  0.0222
   97MOL0     O12984   5.641   7.489   9.011 -0.3580 -0.2961  0.2390
   97MOL0     C12985   5.699   7.416   9.109  0.7531 -0.3396 -0.4194
   97MOL0     C12986   5.725   7.467   9.244 -0.1652 -0.2127 -0.3756
   97MOL0     C12987   5.782   7.387   9.339  0.1760 -0.3521 -0.8612
   97MOL0     C12988   5.801   7.251   9.313 -0.2569  0.2715 -0.3327
   97MOL0     C12989   5.828   7.153   9.421  0.3823  0.2600  0.4366
   97MOL0     O12990   5.894   7.210   9.526  0.0464 -0.2845 -0.0712
   97MOL0     C12991   5.949   7.132   9.625 -0.4749 -0.6859  0.3142
   97MOL0     C12992   6.084   7.097   9.616 -0.3971  0.4212  0.5448
   97MOL0     C12993   6.157   7.026   9.706  0.5357 -0.5245 -0.6105
   97MOL0     C12994   6.075   6.976   9.810  0.9822  1.0717 -0.4098
   97MOL0     O12995   6.111   6.871   9.894 -0.5572 -0.4423 -0.4443
   97MOL0     C12996   6.247   6.828   9.909  0.4433  0.1887  0.8505
   97MOL0     C12997   6.237   6.720  10.021 -0.3397  0.1353 -0.1401
   97MOL0     C12998   6.235   6.790  10.156  0.2183 -0.0817  0.4120
   97MOL0     C12999   6.223   6.701  10.282  0.9144  0.4963  0.5337
   97MOL0     C13000   6.243   6.795  10.403  0.4348  0.4655  0.2115
   97MOL0     C13001   6.262   6.705  10.536  0.0871 -0.1389  1.3481
   97MOL0     C13002   6.202   6.779  10.654  0.1110 -0.3501 -0.1005
   97MOL0     C13003   6.216   6.706  10.784  0.5406 -0.5636 -0.2197
   97MOL0    Cl13004   6.123   6.801  10.910  0.5858  0.1017 -0.2796
   97MOL0     C13005   5.937   7.012   9.825 -0.9773  0.2775 -0.5185
   97MOL0     C13006   5.876   7.095   9.733 -0.3971 -0.5628  0.5298
   97MOL0     O13007   5.791   7.036   9.415  0.1210 -0.2723  0.2983
   97MOL0     C13008   5.766   7.194   9.193  0.2366  0.6860 -0.2248
   97MOL0     C13009   5.721   7.282   9.089 -0.5703 -0.5780 -0.3096
   97MOL0     N13010   5.242   7.894   8.680 -0.0924  0.2452  0.0790
   97MOL0     N13011   5.180   7.868   8.569 -0.2222 -0.1839  0.0683
   97MOL0     C13012   4.636   6.894   8.031 -0.6494  0.3040 -0.7403
   97MOL0     C13013   4.598   6.767   7.980  0.0831 -0.0205  0.2617
   97MOL0     C13014   4.554   6.340   7.878 -0.1351  0.8561 -0.1617
   97MOL0     C13015   4.413   6.325   7.883 -0.6188  0.8182  0.5206
   97MOL0     C13016   4.354   6.205   7.851 -0.3515  0.3774  0.2813
   97MOL0     C13017   4.424   6.089   7.821 -0.5670  0.0054  1.0333
   97MOL0     O13018   4.365   5.960   7.807  0.1853  0.0761 -0.5239
   97MOL0     C13019   4.431   5.855   7.727  0.5164 -0.0217 -0.4666
   97MOL0     C13020   4.425   5.878   7.575 -0.9108 -0.8899  0.8245
   97MOL0     C13021   4.477   5.753   7.497 -0.1699 -0.4931  0.5080
   97MOL0     C13022   4.514   5.782   7.353  0.1167 -0.2078  0.0519
   97MOL0     C13023   4.398   5.818   7.279  0.4172  0.5159 -0.7356
   97MOL0     C13024   4.288   5.834   7.227  0.2434  0.1430 -0.3150
   97MOL0     C13025   4.567   6.101   7.816  0.5889 -0.5196  0.1202
   97MOL0     C13026   4.635   6.227   7.833  1.4367 -0.4362  0.3531
   97MOL0     C13027   4.783   6.229   7.824 -0.0026 -0.0745 -0.0603
   97MOL0     H13028   4.680   6.579   8.240 -5.0163 -1.3948 -1.3883
   97MOL0     H13029   4.747   6.799   8.334 -1.2679  2.0910  1.0140
   97MOL0     H13030   4.761   7.164   8.112  2.3300 -2.0473  1.2495
   97MOL0     H13031   4.582   7.145   8.144 -0.1868  2.1003 -0.2455
   97MOL0     H13032   4.621   7.248   8.363  0.3551 -2.1401 -1.1222
   97MOL0     H13033   4.677   7.358   8.237 -2.5472  0.3950  1.4170
   97MOL0     H13034   4.911   7.241   8.282 -1.4696 -0.7229 -1.0354
   97MOL0     H13035   4.837   7.187   8.423  0.6679  2.0618  0.3730
   97MOL0     H13036   4.776   7.430   8.480  0.0430  1.7355  0.1095
   97MOL0     H13037   4.935   7.353   8.505 -2.5068 -1.0271  1.8894
   97MOL0     H13038   4.832   7.515   8.246 -1.3501  1.7998  0.5795
   97MOL0     H13039   4.894   7.597   8.394 -0.9930 -1.9944  1.0313
   97MOL0     H13040   5.062   7.393   8.270  1.9435  0.0974 -1.6168
   97MOL0     H13041   5.050   7.568   8.205 -4.0106 -0.0389  0.4817
   97MOL0     H13042   5.238   7.503   8.363 -1.2059 -1.5551  0.1129
   97MOL0     H13043   5.121   7.499   8.493 -4.4702 -0.1898 -0.8919
   97MOL0     H13044   5.219   7.719   8.323  1.2312  0.5823  1.2214
   97MOL0     H13045   5.051   7.745   8.391  0.6979  2.6754  0.0005
   97MOL0     H13046   5.352   7.590   8.603  1.9006  0.9536  0.6374
   97MOL0     H13047   5.481   7.895   8.811  1.4150 -0.4896  2.0583
   97MOL0     H13048   5.391   7.798   8.923  1.1037 -2.0324  0.1120
   97MOL0     H13049   5.498   7.595   8.815 -3.1037  0.8637 -3.0036
   97MOL0     H13050   5.574   7.700   8.698 -1.0112 -0.3156 -0.7438
   97MOL0     H13051   5.677   7.817   8.897 -2.7174  0.2020 -1.4477
   97MOL0     H13052   5.751   7.665   8.846 -1.4938 -4.4349  0.5242
   97MOL0     H13053   5.545   7.667   9.069 -1.2367 -3.7397 -0.6838
   97MOL0     H13054   5.727   7.666   9.094  1.4462 -0.4794 -1.5456
   97MOL0     H13055   5.725   7.572   9.269  0.1950 -1.0216  3.6816
   97MOL0     H13056   5.816   7.417   9.437  0.0608 -2.4686 -0.1159
   97MOL0     H13057   6.129   7.122   9.520  0.2367 -2.6228 -0.0527
   97MOL0     H13058   6.259   6.990   9.700  0.7632 -0.5068  2.0231
   97MOL0     H13059   6.280   6.792   9.811  2.3970  0.1286  1.4876
   97MOL0     H13060   6.318   6.906   9.936  0.6322 -0.0453  1.0385
   97MOL0     H13061   6.149   6.659  10.001  0.5419 -0.3087 -3.0226
   97MOL0     H13062   6.326   6.657  10.014 -0.3499  0.1979 -0.8210
   97MOL0     H13063   6.331   6.841  10.169  0.1155  0.2287 -0.0446
   97MOL0     H13064   6.153   6.862  10.147  1.6414  1.9873  2.5032
   97MOL0     H13065   6.290   6.616  10.270  0.1978 -0.4077  2.5691
   97MOL0     H13066   6.127   6.649  10.277  1.1006  0.2735 -1.5626
   97MOL0     H13067   6.157   6.861  10.421  0.1025  0.5516 -1.5411
   97MOL0     H13068   6.331   6.858  10.392  0.5454  0.3207  0.2534
   97MOL0     H13069   6.206   6.612  10.523 -0.4775  0.3654 -0.0404
   97MOL0     H13070   6.368   6.687  10.558  0.4014 -0.1818 -0.1172
   97MOL0     H13071   6.095   6.797  10.643 -0.1204  0.4804  2.6802
   97MOL0     H13072   6.242   6.881  10.654  0.1960 -0.3409 -2.5090
   97MOL0     H13073   6.182   6.602  10.788  1.9920 -1.3020 -3.8660
   97MOL0     H13074   6.321   6.707  10.815  0.3828  3.5400  0.7554
   97MOL0     H13075   5.885   6.967   9.908  1.2530  0.5618  1.1251
   97MOL0     H13076   5.773   7.126   9.747  0.2604  4.3981 -3.1308
   97MOL0     H13077   5.783   7.088   9.173 -3.9718  0.2296 -2.5949
   97MOL0     H13078   5.705   7.234   8.993 -2.7174  2.2079 -1.4749
   97MOL0     H13079   4.625   6.985   7.972 -1.3034 -0.4588 -1.8385
   97MOL0     H13080   4.549   6.754   7.884  0.0020  1.7107  0.0449
   97MOL0     H13081   4.353   6.409   7.919 -0.1403  0.3073  2.6506
   97MOL0     H13082   4.246   6.194   7.852 -0.5697  0.8061  5.3800
   97MOL0     H13083   4.373   5.764   7.743  0.7839 -0.4481 -1.7339
   97MOL0     H13084   4.537   5.838   7.747  0.8018  0.1109 -1.7252
   97MOL0     H13085   4.479   5.970   7.552 -0.7606 -0.7577  1.6594
   97MOL0     H13086   4.322   5.901   7.547 -0.6728 -0.3441  0.3934
   97MOL0     H13087   4.413   5.665   7.507  1.3036 -1.9245 -1.5852
   97MOL0     H13088   4.574   5.726   7.541 -1.0198 -2.3274  1.3832
   97MOL0     H13089   4.582   5.864   7.330  0.0216 -0.5387 -1.4930
   97MOL0     H13090   4.548   5.692   7.302 -2.6448 -2.1263  1.2994
   97MOL0     H13091   4.184   5.842   7.204  0.3904  3.2837 -0.1913
   97MOL0     H13092   4.631   6.017   7.789  1.7466 -0.0973  1.4557
   97MOL0     H13093   4.823   6.132   7.856 -0.3989 -1.4554 -3.3255
   97MOL0     H13094   4.815   6.257   7.723  1.0325  2.9033  0.9955
   97MOL0     H13095   4.827   6.305   7.889  0.0888 -2.1125  2.3743
   98MOL0     O13096   2.229   3.107   3.617  0.7077  0.1478  0.0959
   98MOL0     C13097   2.163   3.160   3.706  1.2165 -0.2523 -0.4626
   98MOL0     O13098   2.169   3.124   3.844  0.0377  0.0322 -0.8669
   98MOL0     C13099   2.252   3.023   3.880 -0.1498 -0.0106 -0.5284
   98MOL0     C13100   2.217   2.890   3.859  0.0332  0.1321  0.1842
   98MOL0     C13101   2.306   2.790   3.897 -0.4922 -0.3008 -0.1850
   98MOL0     C13102   2.440   2.832   3.949 -0.0832 -0.0515  0.8537
   98MOL0     O13103   2.542   2.753   3.981 -0.6408  0.5816 -0.2140
   98MOL0     C13104   2.540   2.626   3.911  0.3053 -0.2454  0.1913
   98MOL0     C13105   2.666   2.542   3.941 -0.5598 -0.3682 -0.9159
   98MOL0     C13106   2.659   2.397   3.899  0.2133 -0.2977  0.1804
   98MOL0     C13107   2.767   2.312   3.958 -0.4053  0.4732  0.6999
   98MOL0     C13108   2.759   2.179   3.891 -0.6713  0.3471  0.6674
   98MOL0     C13109   2.767   2.156   3.736 -0.1764 -0.6634  0.5146
   98MOL0     C13110   2.893   2.215   3.681  0.1168  0.4641 -0.3435
   98MOL0     C13111   2.900   2.181   3.532 -0.5870 -0.3819  0.5760
   98MOL0     N13112   3.026   2.222   3.468  0.4803 -0.1374  0.5884
   98MOL0     C13113   3.140   2.137   3.462 -0.1434 -0.7482 -0.4196
   98MOL0     C13114   3.240   2.211   3.412  0.4983  0.2597  0.0171
   98MOL0     C13115   3.388   2.178   3.391  0.0257 -0.4202  0.2655
   98MOL0     C13116   3.446   2.233   3.260  0.5564  0.7648  0.8625
   98MOL0     C13117   3.343   2.202   3.151 -0.2679 -0.2792 -1.3156
   98MOL0     C13118   3.394   2.257   3.021  0.3785  0.1099  0.2885
   98MOL0     O13119   3.499   2.168   2.976 -0.1093  0.3956 -0.8196
   98MOL0     C13120   3.528   2.158   2.834  0.2823 -0.5361  0.7389
   98MOL0     C13121   3.436   2.094   2.743  0.3588 -0.4533  0.4929
   98MOL0     C13122   3.471   2.089   2.610 -0.2599 -0.2061 -1.0240
   98MOL0     C13123   3.595   2.137   2.562 -0.0590  0.7473 -0.1827
   98MOL0     C13124   3.630   2.120   2.420  0.3138 -0.3278 -0.6880
   98MOL0     O13125   3.739   2.203   2.377 -0.0202  1.0038 -1.1440
   98MOL0     C13126   3.768   2.188   2.242  0.2116  0.2065 -0.8556
   98MOL0     C13127   3.688   2.261   2.153 -0.3672  0.5775 -0.4725
   98MOL0     C13128   3.744   2.264   2.026  0.5210 -0.0959 -0.6682
   98MOL0     C13129   3.857   2.197   1.979  0.3153 -0.3865  0.5280
   98MOL0     O13130   3.875   2.208   1.842 -0.1896  0.5690 -0.7737
   98MOL0     C13131   3.913   2.086   1.776 -0.0891 -0.2867 -0.1052
   98MOL0     C13132   3.871   2.119   1.632  0.2086  0.4423  0.1725
   98MOL0     C13133   3.719   2.119   1.594 -1.1050  0.2315  0.1712
   98MOL0     C13134   3.644   2.225   1.665 -0.3929  1.1961 -0.2863
   98MOL0     C13135   3.510   2.247   1.608  0.3164 -0.8159  0.6395
   98MOL0     C13136   3.410   2.148   1.658 -0.4870  0.5438 -0.1142
   98MOL0     C13137   3.273   2.179   1.593  0.1012  0.7125 -0.3323
   98MOL0     C13138   3.180   2.057   1.616  0.3503 -0.0901 -0.2771
   98MOL0    Cl13139   3.051   2.088   1.488  0.4082  0.4504  0.0997
   98MOL0     C13140   3.933   2.139   2.071  0.2612 -0.0534 -0.1689
   98MOL0     C13141   3.892   2.134   2.207 -0.2360  0.7909 -0.1890
   98MOL0     O13142   3.557   2.046   2.348 -0.1222  0.3529  0.3026
   98MOL0     C13143   3.678   2.207   2.658  0.6974  0.4635  0.6391
   98MOL0     C13144   3.645   2.222   2.790  0.0856  0.8515  0.1652
   98MOL0     N13145   3.179   2.342   3.380 -0.9289 -0.1774  0.3819
   98MOL0     N13146   3.062   2.346   3.413  0.7276 -0.3904 -0.1645
   98MOL0     C13147   2.455   2.964   3.976  0.9063  0.5464 -0.6206
   98MOL0     C13148   2.361   3.059   3.959 -0.0016  0.7167 -0.7054
   98MOL0     C13149   2.059   3.268   3.668 -0.2311  0.3608  0.2836
   98MOL0     C13150   1.959   3.294   3.766  0.1325 -0.6661  0.1599
   98MOL0     C13151   1.853   3.375   3.730  0.3627 -0.5873  0.0509
   98MOL0     C13152   1.859   3.460   3.620  0.2704 -0.6315 -0.2831
   98MOL0     O13153   1.744   3.541   3.598 -0.2029  0.4573 -0.2387
   98MOL0     C13154   1.736   3.597   3.467  0.6109 -0.1441 -0.5572
   98MOL0     C13155   1.599   3.674   3.452  0.3208 -0.4398  0.5071
   98MOL0     C13156   1.576   3.774   3.572 -0.2424  0.1634 -0.3603
   98MOL0     C13157   1.663   3.903   3.567 -0.1221 -0.0043 -0.5608
   98MOL0     C13158   1.598   3.999   3.476 -0.1601  0.2984  0.5203
   98MOL0     C13159   1.553   4.090   3.413  0.0207  0.0381 -0.1236
   98MOL0     C13160   1.970   3.441   3.530  0.4286 -0.8602 -0.6781
   98MOL0     C13161   2.071   3.352   3.552  1.1815  1.1356  0.6707
   98MOL0     C13162   2.190   3.354   3.462 -0.1147  0.7899  0.2103
   98MOL0     H13163   2.120   2.870   3.814 -0.8783 -1.9689  2.7875
   98MOL0     H13164   2.271   2.688   3.891 -1.2296 -0.4526  3.6812
   98MOL0     H13165   2.462   2.563   3.953  1.5240 -1.1943  1.1110
   98MOL0     H13166   2.542   2.630   3.801 -0.4006 -2.1893  0.0705
   98MOL0     H13167   2.686   2.537   4.049  1.7372 -1.2934 -1.3154
   98MOL0     H13168   2.749   2.597   3.896  0.2489 -0.8886 -0.1072
   98MOL0     H13169   2.658   2.392   3.790  0.0363 -2.8614  0.2430
   98MOL0     H13170   2.567   2.354   3.938 -1.5287  3.7066  0.9759
   98MOL0     H13171   2.860   2.364   3.934  0.3239 -1.2889 -0.4987
   98MOL0     H13172   2.762   2.302   4.067 -1.6830  1.4292  0.7454
   98MOL0     H13173   2.840   2.123   3.937 -0.4999 -1.9907 -2.2186
   98MOL0     H13174   2.658   2.137   3.906 -0.6417 -0.0958 -0.2830
   98MOL0     H13175   2.755   2.048   3.722  0.7722 -0.6844 -0.3152
   98MOL0     H13176   2.688   2.215   3.689  1.7259  2.7969  1.3070
   98MOL0     H13177   2.986   2.192   3.733  0.3841  5.8860  2.3255
   98MOL0     H13178   2.884   2.324   3.691  3.3153  0.8769 -0.9427
   98MOL0     H13179   2.893   2.074   3.511  0.3784  0.0960 -2.9496
   98MOL0     H13180   2.812   2.218   3.478  0.0295 -0.4274 -0.5024
   98MOL0     H13181   3.143   2.032   3.489 -2.0767 -0.7894 -0.1839
   98MOL0     H13182   3.446   2.212   3.478 -2.1369  3.1212  0.5260
   98MOL0     H13183   3.396   2.069   3.380 -1.8684 -0.4125 -2.0147
   98MOL0     H13184   3.455   2.341   3.270 -0.7199  0.9860 -0.1165
   98MOL0     H13185   3.543   2.188   3.235 -0.1342 -1.0372  1.2329
   98MOL0     H13186   3.248   2.256   3.158  0.1353  0.4075 -1.0483
   98MOL0     H13187   3.319   2.100   3.121  2.2870 -1.0110 -1.0867
   98MOL0     H13188   3.431   2.359   3.032  0.9437 -0.1834  1.2761
   98MOL0     H13189   3.313   2.257   2.949  0.2204 -2.2769  0.3810
   98MOL0     H13190   3.344   2.043   2.771  0.6971 -1.1960  0.2824
   98MOL0     H13191   3.402   2.033   2.548 -1.0536  0.3295 -0.6477
   98MOL0     H13192   3.596   2.314   2.175 -0.0554  1.6436 -1.6239
   98MOL0     H13193   3.684   2.309   1.949  2.5800  0.4827 -2.0285
   98MOL0     H13194   4.018   2.061   1.792 -0.8677 -3.7629  0.5099
   98MOL0     H13195   3.848   2.005   1.811 -3.7579  1.9436 -1.2755
   98MOL0     H13196   3.914   2.213   1.598  0.4249  1.1303  2.2424
   98MOL0     H13197   3.912   2.035   1.575  0.3731  1.1122 -0.7186
   98MOL0     H13198   3.699   2.128   1.487 -2.2429  0.2870  0.3763
   98MOL0     H13199   3.682   2.024   1.631  2.0527 -0.3645  2.2055
   98MOL0     H13200   3.695   2.322   1.663  2.1497  0.0473  2.2174
   98MOL0     H13201   3.632   2.205   1.772  0.5334 -0.3215 -0.4276
   98MOL0     H13202   3.508   2.249   1.498  2.0539  1.4309  0.5715
   98MOL0     H13203   3.480   2.347   1.641  2.1657  0.1633 -0.4299
   98MOL0     H13204   3.442   2.045   1.642  0.8753  0.4233  2.6523
   98MOL0     H13205   3.405   2.160   1.767 -1.1358 -0.1552 -0.0600
   98MOL0     H13206   3.273   2.193   1.484 -3.1101 -2.2278 -0.8896
   98MOL0     H13207   3.228   2.267   1.637 -5.0512 -1.9610  0.4761
   98MOL0     H13208   3.229   1.961   1.602 -1.8573 -1.0678 -1.7681
   98MOL0     H13209   3.143   2.056   1.719 -1.6700 -1.4702 -0.9598
   98MOL0     H13210   4.029   2.102   2.038 -0.8038 -0.5499 -2.9637
   98MOL0     H13211   3.959   2.087   2.278 -2.9619  1.4546  3.0460
   98MOL0     H13212   3.770   2.257   2.630 -1.4864  4.6781  0.1846
   98MOL0     H13213   3.719   2.271   2.852  1.7177  0.2771 -1.2554
   98MOL0     H13214   2.531   3.000   4.044 -1.7632  1.9750  1.8620
   98MOL0     H13215   2.373   3.164   3.986 -0.5884  0.9306 -1.2463
   98MOL0     H13216   1.949   3.238   3.859 -1.1287 -1.4380 -0.4136
   98MOL0     H13217   1.774   3.401   3.799  0.1156  0.9773 -0.7860
   98MOL0     H13218   1.740   3.522   3.387 -0.9649  0.3049 -1.0794
   98MOL0     H13219   1.818   3.669   3.455  0.1602  1.1957  3.0999
   98MOL0     H13220   1.520   3.599   3.460  0.8978 -1.0293  0.8100
   98MOL0     H13221   1.592   3.730   3.358  1.9157 -2.7068 -1.0680
   98MOL0     H13222   1.593   3.718   3.664 -1.4190  0.9190  0.3516
   98MOL0     H13223   1.467   3.786   3.577 -0.1888  0.1052  1.1968
   98MOL0     H13224   1.674   3.955   3.663  2.2421  1.0140 -1.3138
   98MOL0     H13225   1.762   3.888   3.525  1.3251  2.9309  1.4428
   98MOL0     H13226   1.499   4.164   3.358  0.2903 -0.9686 -1.8176
   98MOL0     H13227   1.980   3.515   3.451 -1.8925  0.5983  0.2894
   98MOL0     H13228   2.195   3.447   3.405 -1.7149 -0.3785 -2.0378
   98MOL0     H13229   2.280   3.350   3.523  1.1868 -3.4181 -1.6082
   98MOL0     H13230   2.191   3.265   3.398  1.9624  0.6512  0.3709
   99MOL0     O13231   6.455   2.653   0.474  0.1482 -0.4207 -0.2292
   99MOL0     C13232   6.532   2.628   0.567 -0.9048  0.2587  0.9855
   99MOL0     O13233   6.625   2.524   0.553 -0.2870 -0.3790  0.2163
   99MOL0     C13234   6.640   2.476   0.417  0.3344 -0.1511  0.1151
   99MOL0     C13235   6.640   2.563   0.304  0.2352 -0.5486 -0.7351
   99MOL0     C13236   6.647   2.508   0.172  0.0065 -0.1241  0.0092
   99MOL0     C13237   6.666   2.369   0.157 -0.3508  0.4539  0.4465
   99MOL0     O13238   6.668   2.310   0.034  0.2591 -0.0032  0.3490
   99MOL0     C13239   6.763   2.357  -0.075 -0.4660  0.3101  0.1685
   99MOL0     C13240   6.909   2.308  -0.057 -0.0232 -0.0598  0.6329
   99MOL0     C13241   6.988   2.371  -0.171 -0.4491 -0.4179  0.5858
   99MOL0     C13242   7.135   2.342  -0.171 -0.3357 -0.8923  0.7976
   99MOL0     C13243   7.189   2.415  -0.307  0.2398 -0.2183  0.0858
   99MOL0     C13244   7.341   2.383  -0.333  0.3337 -0.3915 -0.2929
   99MOL0     C13245   7.424   2.500  -0.381  0.1185  0.5439  0.1635
   99MOL0     C13246   7.569   2.487  -0.330 -0.3224 -0.6466 -0.4001
   99MOL0     N13247   7.586   2.569  -0.200  0.1111  0.5565  0.2992
   99MOL0     C13248   7.681   2.665  -0.188  0.1810  0.0148  0.1064
   99MOL0     C13249   7.696   2.695  -0.054 -0.4286  0.5515  0.8653
   99MOL0     C13250   7.773   2.803   0.009  0.3224  0.6488 -0.3510
   99MOL0     C13251   7.706   2.938   0.005  0.8069 -0.6617 -0.0147
   99MOL0     C13252   7.797   3.059   0.015 -0.3679 -0.9447 -0.3133
   99MOL0     C13253   7.863   3.101  -0.120  0.4836  0.5403 -0.5633
   99MOL0     O13254   7.928   2.992  -0.184 -0.7180  0.2363  0.0507
   99MOL0     C13255   8.057   2.956  -0.144 -0.5112 -0.3738 -0.1724
   99MOL0     C13256   8.110   2.846  -0.211 -0.8345  0.2530 -0.4256
   99MOL0     C13257   8.236   2.792  -0.186 -0.9807 -0.0114  0.0907
   99MOL0     C13258   8.316   2.865  -0.089  0.4593  0.0180 -0.3168
   99MOL0     C13259   8.457   2.824  -0.066 -0.0843  0.0879  0.7941
   99MOL0     O13260   8.489   2.716  -0.144 -0.6609  0.3403  0.7092
   99MOL0     C13261   8.606   2.640  -0.128 -0.0661  0.9375  0.6888
   99MOL0     C13262   8.726   2.683  -0.074  0.9046  0.4264  0.0564
   99MOL0     C13263   8.837   2.596  -0.071  0.5634 -0.2598  0.2275
   99MOL0     C13264   8.826   2.470  -0.133 -0.0506  0.1491 -0.3337
   99MOL0     O13265   8.932   2.391  -0.141 -0.3232 -0.1381  0.3640
   99MOL0     C13266   9.064   2.455  -0.158  0.2373  0.2264  0.9385
   99MOL0     C13267   9.134   2.444  -0.024 -0.5180  0.1410  0.1856
   99MOL0     C13268   9.294   2.467  -0.047  0.1820 -0.0700 -0.3395
   99MOL0     C13269   9.353   2.526   0.087  1.2675  0.2326  0.6044
   99MOL0     C13270   9.463   2.442   0.126 -0.2010  0.0764 -0.2829
   99MOL0     C13271   9.546   2.485   0.248 -0.0086 -0.5463 -0.0430
   99MOL0     C13272   9.462   2.504   0.375 -0.4484  0.2206 -0.0416
   99MOL0     C13273   9.520   2.593   0.487  0.0974 -0.1731 -0.3111
   99MOL0    Cl13274   9.584   2.743   0.409 -0.1356 -0.0686  0.4061
   99MOL0     C13275   8.709   2.440  -0.197  0.6303  0.9954  0.1101
   99MOL0     C13276   8.592   2.515  -0.186 -1.3533  0.0723  0.1502
   99MOL0     O13277   8.523   2.870   0.025 -0.7634  0.1716  0.2173
   99MOL0     C13278   8.265   2.979  -0.019  0.1341 -0.1093  0.5201
   99MOL0     C13279   8.137   3.026  -0.045 -1.2018 -0.4721 -0.0468
   99MOL0     N13280   7.623   2.602   0.006  0.1964 -0.3054 -0.0181
   99MOL0     N13281   7.546   2.530  -0.077  0.5628 -0.5303 -0.7309
   99MOL0     C13282   6.674   2.283   0.265 -0.0284  0.2072 -0.2216
   99MOL0     C13283   6.653   2.337   0.395 -0.1941 -0.0959 -0.4275
   99MOL0     C13284   6.509   2.687   0.702 -0.3014 -0.0710 -0.6082
   99MOL0     C13285   6.568   2.627   0.811 -0.7157 -1.5122  0.5976
   99MOL0     C13286   6.526   2.664   0.943  0.5850  0.0413 -0.3409
   99MOL0     C13287   6.434   2.775   0.968  0.1319  0.1276 -0.1207
   99MOL0     O13288   6.392   2.794   1.102  0.1064 -0.2007  0.5211
   99MOL0     C13289   6.321   2.910   1.145  0.2063 -0.4514 -0.9173
   99MOL0     C13290   6.360   2.965   1.282  0.2263  0.5057  0.1549
   99MOL0     C13291   6.372   2.857   1.388  0.2984 -0.0769  1.2383
   99MOL0     C13292   6.522   2.820   1.409 -0.6362 -1.0191  0.0601
   99MOL0     C13293   6.568   2.933   1.494 -0.3935  0.7317 -0.4612
   99MOL0     C13294   6.619   3.020   1.561 -0.2227 -1.0231  0.5338
   99MOL0     C13295   6.387   2.840   0.849 -0.5296  0.2081 -0.7326
   99MOL0     C13296   6.424   2.796   0.719  0.1440  0.1414  0.1839
   99MOL0     C13297   6.361   2.882   0.610 -1.0483 -0.5008 -1.2320
   99MOL0     H13298   6.643   2.672   0.308 -0.7415 -0.5411  2.8409
   99MOL0     H13299   6.642   2.581   0.091  1.2303  3.9286  3.2276
   99MOL0     H13300   6.718   2.328  -0.171 -2.9090  3.7897  0.0856
   99MOL0     H13301   6.760   2.466  -0.080 -0.0218  0.3713  0.9799
   99MOL0     H13302   6.902   2.199  -0.065 -0.7380 -0.1078  1.6996
   99MOL0     H13303   6.951   2.340   0.038 -0.4638 -0.6163  1.0252
   99MOL0     H13304   6.963   2.478  -0.165 -0.4296 -0.3138 -0.9039
   99MOL0     H13305   6.941   2.341  -0.264 -2.6207  0.5883  1.2913
   99MOL0     H13306   7.191   2.379  -0.084  0.7015 -2.3747  0.8064
   99MOL0     H13307   7.155   2.234  -0.175 -1.1317 -1.0066 -0.6489
   99MOL0     H13308   7.129   2.387  -0.394 -1.4649 -0.4829  1.3112
   99MOL0     H13309   7.171   2.522  -0.290  0.3049 -0.0779 -0.6764
   99MOL0     H13310   7.382   2.351  -0.237  0.6452  1.8068  0.3448
   99MOL0     H13311   7.350   2.302  -0.407  0.8436 -2.2727  1.7282
   99MOL0     H13312   7.382   2.590  -0.334  1.3537  0.5048  1.4109
   99MOL0     H13313   7.412   2.510  -0.489 -0.0235  1.9842  0.2905
   99MOL0     H13314   7.592   2.382  -0.308  4.7948  0.1004 -1.0728
   99MOL0     H13315   7.646   2.517  -0.401 -1.1872  0.8843 -0.7260
   99MOL0     H13316   7.729   2.706  -0.276 -2.1353  0.5619 -0.9887
   99MOL0     H13317   7.794   2.772   0.112 -1.0857  1.8838  0.3371
   99MOL0     H13318   7.862   2.811  -0.054 -0.6819  1.6818 -1.6743
   99MOL0     H13319   7.634   2.953  -0.076 -0.2875 -0.1236  1.0302
   99MOL0     H13320   7.642   2.952   0.092 -0.5405 -0.4716 -1.0111
   99MOL0     H13321   7.870   3.051   0.097 -1.6599 -0.4160  0.9296
   99MOL0     H13322   7.741   3.148   0.044  0.8027  0.4194 -2.0775
   99MOL0     H13323   7.929   3.188  -0.116  1.6230 -0.3372  1.2729
   99MOL0     H13324   7.787   3.132  -0.192 -1.3751 -0.7946  0.7401
   99MOL0     H13325   8.035   2.805  -0.278 -3.6231 -0.1511  2.6738
   99MOL0     H13326   8.261   2.695  -0.228 -1.1700  0.5197 -1.3350
   99MOL0     H13327   8.731   2.788  -0.047 -1.0315  1.1110 -1.9964
   99MOL0     H13328   8.931   2.640  -0.041  1.1440  0.4398 -2.3264
   99MOL0     H13329   9.123   2.399  -0.231 -1.9187 -2.2838  0.9908
   99MOL0     H13330   9.046   2.551  -0.208 -2.4350  0.0203  1.3257
   99MOL0     H13331   9.098   2.514   0.052 -2.4585  0.7034 -1.1649
   99MOL0     H13332   9.113   2.341   0.008 -1.9662 -0.2058 -1.6843
   99MOL0     H13333   9.345   2.376  -0.079  0.9687 -1.4430  4.0432
   99MOL0     H13334   9.294   2.547  -0.120  1.2312  1.6310  1.4327
   99MOL0     H13335   9.280   2.541   0.167 -1.6627 -0.6615 -1.6962
   99MOL0     H13336   9.379   2.630   0.067  0.3909  0.5516  1.0926
   99MOL0     H13337   9.535   2.450   0.044  1.2039  0.8991  0.9742
   99MOL0     H13338   9.423   2.341   0.140 -0.9787  0.6014  1.5644
   99MOL0     H13339   9.618   2.405   0.268  0.3448 -0.7303 -1.8732
   99MOL0     H13340   9.616   2.567   0.232  2.7769 -2.2120  2.4793
   99MOL0     H13341   9.413   2.412   0.410  1.1003 -0.3113  0.8343
   99MOL0     H13342   9.374   2.561   0.346 -0.7403 -0.4223 -0.4425
   99MOL0     H13343   9.444   2.636   0.552  2.9197  0.1751  3.0708
   99MOL0     H13344   9.602   2.545   0.543 -0.2146 -0.7590 -0.3448
   99MOL0     H13345   8.706   2.349  -0.257 -0.2923  1.2079 -0.1835
   99MOL0     H13346   8.495   2.492  -0.227 -0.8451 -0.3867 -0.8111
   99MOL0     H13347   8.317   3.033   0.060 -1.8622  1.8487  0.5952
   99MOL0     H13348   8.111   3.124  -0.007 -2.8781 -0.1671 -1.7835
   99MOL0     H13349   6.696   2.177   0.257  1.7089  0.5456 -0.2043
   99MOL0     H13350   6.642   2.276   0.484  0.6480 -0.7137 -0.7380
   99MOL0     H13351   6.643   2.552   0.792  1.3155  0.9198 -1.8508
   99MOL0     H13352   6.546   2.601   1.029  1.8954  0.6627 -0.1776
   99MOL0     H13353   6.215   2.886   1.147 -0.0249  0.5148  1.0124
   99MOL0     H13354   6.344   2.988   1.071 -0.2264 -1.3539 -2.0310
   99MOL0     H13355   6.270   3.020   1.310 -2.0747 -1.8993 -1.8845
   99MOL0     H13356   6.449   3.026   1.268  0.5326 -0.2237 -1.2757
   99MOL0     H13357   6.308   2.771   1.367 -0.5607  1.0522 -1.2303
   99MOL0     H13358   6.325   2.900   1.478  1.4353  2.1242  0.8490
   99MOL0     H13359   6.537   2.724   1.459 -0.0927  0.1161  2.2364
   99MOL0     H13360   6.584   2.816   1.319  1.9935 -2.6077  1.7810
   99MOL0     H13361   6.655   3.103   1.618 -0.4841 -2.4470  2.9358
   99MOL0     H13362   6.323   2.925   0.869  3.3399  3.0565  0.8859
   99MOL0     H13363   6.363   2.987   0.641 -3.5076 -0.9526  0.8621
   99MOL0     H13364   6.414   2.873   0.516  1.3083  3.2738 -0.4967
   99MOL0     H13365   6.257   2.848   0.621 -0.4180 -2.0366  0.6437
  100MOL0     O13366   4.358   7.909  10.488 -0.4039  0.7779 -0.3058
  100MOL0     C13367   4.344   8.003  10.564  0.4225  0.4660  0.3529
  100MOL0     O13368   4.439   8.051  10.649  0.0541  0.0109  0.1200
  100MOL0     C13369   4.553   7.980  10.669  0.4702  0.6008  1.1265
  100MOL0     C13370   4.670   8.056  10.677 -0.5926  0.2784 -0.4988
  100MOL0     C13371   4.792   8.002  10.716 -0.1535 -0.4019  1.3061
  100MOL0     C13372   4.806   7.862  10.719  0.1704  0.7208  0.6216
  100MOL0     O13373   4.933   7.809  10.741  0.8005 -0.2601  0.2388
  100MOL0     C13374   4.939   7.684  10.801  0.5690  0.6260  0.1848
  100MOL0     C13375   5.071   7.642  10.864 -0.0180  0.5181 -0.5118
  100MOL0     C13376   5.168   7.608  10.747 -0.5797 -0.1542  0.3811
  100MOL0     C13377   5.313   7.609  10.807  0.1187  0.1185  0.0600
  100MOL0     C13378   5.418   7.589  10.698  0.5339  0.1079  0.0991
  100MOL0     C13379   5.422   7.707  10.597 -0.0632 -0.4231 -0.4672
  100MOL0     C13380   5.558   7.725  10.531 -0.5715  0.0169  0.3185
  100MOL0     C13381   5.542   7.809  10.413 -0.0608 -0.0318  0.2332
  100MOL0     N13382   5.491   7.742  10.299 -0.5639  0.6875  0.5398
  100MOL0     C13383   5.401   7.809  10.213 -0.4817  0.2599  0.3261
  100MOL0     C13384   5.387   7.717  10.110 -0.9003  0.0306  0.4257
  100MOL0     C13385   5.309   7.713   9.982 -0.2383  0.4703 -0.0542
  100MOL0     C13386   5.212   7.593   9.986 -0.1121 -0.1440  0.0582
  100MOL0     C13387   5.061   7.644   9.989  0.4789 -0.3146 -0.9590
  100MOL0     C13388   5.009   7.731   9.875 -0.3409 -0.6886 -1.0900
  100MOL0     O13389   5.030   7.666   9.753 -0.6066 -0.1985  0.4347
  100MOL0     C13390   5.139   7.715   9.675 -0.5777 -0.5022  1.1419
  100MOL0     C13391   5.223   7.622   9.613  0.3923 -0.0921  0.2410
  100MOL0     C13392   5.338   7.655   9.540  0.8364  1.1604 -0.5716
  100MOL0     C13393   5.378   7.784   9.533  1.2255  0.3305 -0.1798
  100MOL0     C13394   5.501   7.833   9.471 -0.1568  1.1204 -0.4686
  100MOL0     O13395   5.521   7.971   9.465 -0.0984 -0.5376  0.5614
  100MOL0     C13396   5.630   8.022   9.399 -0.2385 -0.3536  0.2285
  100MOL0     C13397   5.608   8.060   9.263 -0.2606 -0.1912  0.0091
  100MOL0     C13398   5.696   8.128   9.196 -0.1220 -0.4205 -0.0663
  100MOL0     C13399   5.826   8.161   9.248 -0.2953 -0.2627  0.2893
  100MOL0     O13400   5.926   8.231   9.186 -0.0752  0.2320 -1.0417
  100MOL0     C13401   5.901   8.343   9.111  0.5816 -0.6733 -0.3619
  100MOL0     C13402   5.933   8.468   9.201  0.0840 -0.3761 -0.4126
  100MOL0     C13403   5.904   8.597   9.109 -0.8985 -0.2039  0.4098
  100MOL0     C13404   5.922   8.728   9.185 -0.2114 -0.0460  0.6939
  100MOL0     C13405   5.915   8.851   9.093  0.7901 -0.8397 -0.6279
  100MOL0     C13406   5.773   8.877   9.042 -0.4209  0.2178 -0.2833
  100MOL0     C13407   5.752   9.010   8.980 -0.2562  0.4302  0.5256
  100MOL0     C13408   5.655   9.013   8.866 -0.1953  0.0686 -0.2444
  100MOL0    Cl13409   5.492   8.969   8.935 -0.1783 -0.4566 -0.3706
  100MOL0     C13410   5.853   8.126   9.385  0.0494 -0.0480 -0.2884
  100MOL0     C13411   5.756   8.058   9.462 -0.8352  0.5761 -0.4922
  100MOL0     O13412   5.568   7.748   9.426 -1.0309 -0.7128 -0.4842
  100MOL0     C13413   5.288   7.874   9.585 -0.5241  0.3726  0.8862
  100MOL0     C13414   5.178   7.841   9.659 -0.2335  0.0336 -0.5802
  100MOL0     N13415   5.468   7.606  10.143  0.0113 -0.4972  0.8980
  100MOL0     N13416   5.546   7.632  10.244  0.1337  0.2510  0.5223
  100MOL0     C13417   4.685   7.785  10.721  1.3256 -0.4122  0.3921
  100MOL0     C13418   4.559   7.843  10.703 -0.4410  0.2319  0.3045
  100MOL0     C13419   4.227   8.084  10.534  0.2105  0.1932  0.1637
  100MOL0     C13420   4.244   8.206  10.472 -0.1814 -0.2183  0.4758
  100MOL0     C13421   4.139   8.293  10.450  0.5299  0.0425 -0.7584
  100MOL0     C13422   4.012   8.250  10.489 -0.3507  0.0878 -0.2393
  100MOL0     O13423   3.914   8.343  10.501  0.2029  0.6480 -0.0042
  100MOL0     C13424   3.805   8.351  10.408 -0.2317  0.8679  0.8224
  100MOL0     C13425   3.695   8.432  10.462 -0.3226 -0.1979 -0.6161
  100MOL0     C13426   3.608   8.490  10.347 -0.6613  0.0353 -0.2118
  100MOL0     C13427   3.513   8.386  10.305 -0.2516  0.2639  0.5435
  100MOL0     C13428   3.410   8.447  10.220  0.0389 -0.1627  0.3868
  100MOL0     C13429   3.320   8.508  10.163  0.1513 -0.5220 -0.4013
  100MOL0     C13430   3.991   8.120  10.534 -0.5472 -0.8233  0.1031
  100MOL0     C13431   4.095   8.039  10.553  0.6589  0.1117 -0.2249
  100MOL0     C13432   4.067   7.899  10.600 -1.1358  0.3796  0.8509
  100MOL0     H13433   4.672   8.164  10.670 -1.2814  0.1990 -2.7173
  100MOL0     H13434   4.878   8.068  10.728 -0.4952  0.4072 -0.3667
  100MOL0     H13435   4.858   7.677  10.875 -2.6345 -1.1524 -3.1705
  100MOL0     H13436   4.902   7.616  10.724  0.1058  0.6675  0.3640
  100MOL0     H13437   5.049   7.545  10.909 -2.6594  0.5013 -1.6683
  100MOL0     H13438   5.116   7.710  10.938  1.4571 -2.0857  1.1201
  100MOL0     H13439   5.146   7.676  10.664  0.3379 -0.8743 -0.4609
  100MOL0     H13440   5.144   7.511  10.704  0.1438  0.1676 -0.7841
  100MOL0     H13441   5.335   7.687  10.880  1.4837  0.3204 -0.5304
  100MOL0     H13442   5.320   7.511  10.856 -1.2545 -0.0306 -0.0030
  100MOL0     H13443   5.515   7.583  10.748  0.5334  1.0779  0.2454
  100MOL0     H13444   5.397   7.495  10.646 -1.7000 -0.3039  1.5771
  100MOL0     H13445   5.342   7.689  10.524 -1.8823  1.4375  0.9635
  100MOL0     H13446   5.385   7.793  10.654 -1.6618 -1.8148  0.6646
  100MOL0     H13447   5.606   7.634  10.493 -0.0517  1.1124 -1.8386
  100MOL0     H13448   5.629   7.767  10.603 -0.9488  0.8355  0.2256
  100MOL0     H13449   5.473   7.887  10.447 -0.6565 -0.5915  0.3342
  100MOL0     H13450   5.641   7.846  10.386 -0.7853  0.7299 -1.6149
  100MOL0     H13451   5.359   7.909  10.212 -2.6155 -0.5246  2.2001
  100MOL0     H13452   5.251   7.805   9.969 -1.7449 -0.2482  1.1723
  100MOL0     H13453   5.372   7.692   9.895 -0.5759 -0.6043 -0.0576
  100MOL0     H13454   5.232   7.535   9.895 -1.0433 -2.1712  1.0752
  100MOL0     H13455   5.231   7.529  10.073  2.3023 -0.9118 -0.9605
  100MOL0     H13456   5.029   7.690  10.083  0.2603  1.1454 -1.7234
  100MOL0     H13457   5.001   7.552   9.989  0.6673 -0.4380 -1.1577
  100MOL0     H13458   5.048   7.832   9.886 -0.2861 -0.9200  1.1720
  100MOL0     H13459   4.902   7.753   9.882 -0.4705 -0.1049 -3.7164
  100MOL0     H13460   5.199   7.518   9.632 -2.5374  0.9475  3.1605
  100MOL0     H13461   5.384   7.575   9.482 -1.4131 -0.9128  0.3221
  100MOL0     H13462   5.513   8.030   9.221 -1.3981  1.2652  1.4020
  100MOL0     H13463   5.672   8.166   9.097  1.2563  2.2666  0.5229
  100MOL0     H13464   5.960   8.349   9.018 -0.9126  0.1107 -1.3116
  100MOL0     H13465   5.795   8.343   9.082 -0.5719  1.6829  3.1359
  100MOL0     H13466   5.877   8.458   9.294 -0.0221 -3.5029 -0.7059
  100MOL0     H13467   6.037   8.449   9.226 -0.7447 -4.2604  0.7384
  100MOL0     H13468   5.974   8.596   9.024 -1.1423 -0.1939  0.2074
  100MOL0     H13469   5.805   8.584   9.064  0.8170 -1.7463 -3.4183
  100MOL0     H13470   6.018   8.733   9.238 -0.7984  1.5005  1.6899
  100MOL0     H13471   5.836   8.740   9.250 -2.0452  1.7328 -1.8650
  100MOL0     H13472   5.990   8.846   9.014  0.8817 -4.1107 -0.4905
  100MOL0     H13473   5.939   8.942   9.149  0.3858 -0.4759 -1.0352
  100MOL0     H13474   5.767   8.806   8.959  0.0178  2.1050 -2.0174
  100MOL0     H13475   5.697   8.848   9.115 -1.0514 -1.7600 -1.6412
  100MOL0     H13476   5.845   9.043   8.932 -0.3033  0.1836  0.2601
  100MOL0     H13477   5.726   9.084   9.056  1.0298  1.8797 -0.3625
  100MOL0     H13478   5.648   9.114   8.826 -1.8875  0.7365  1.6014
  100MOL0     H13479   5.679   8.957   8.775 -3.6430  1.0472 -1.8938
  100MOL0     H13480   5.951   8.138   9.430 -0.0511  0.9456 -0.3136
  100MOL0     H13481   5.778   8.017   9.560  1.0516  0.5379 -0.8793
  100MOL0     H13482   5.308   7.981   9.581  0.5098  0.1675 -0.5213
  100MOL0     H13483   5.123   7.930   9.688  0.2583  0.1634 -0.0334
  100MOL0     H13484   4.699   7.678  10.728  1.5032 -0.3659  0.8140
  100MOL0     H13485   4.477   7.772  10.711  1.6154 -2.0454  4.8458
  100MOL0     H13486   4.349   8.225  10.454 -0.0272 -1.3855  0.0614
  100MOL0     H13487   4.163   8.395  10.422 -1.3166  1.4009  2.1290
  100MOL0     H13488   3.768   8.249  10.391 -1.6786  1.4172  0.5597
  100MOL0     H13489   3.850   8.381  10.313  1.7148  0.0266  1.4168
  100MOL0     H13490   3.738   8.513  10.522 -2.1624 -1.1672  2.2652
  100MOL0     H13491   3.645   8.379  10.544  0.4158  0.7993  0.5162
  100MOL0     H13492   3.662   8.510  10.254 -0.8866  0.8130 -0.1738
  100MOL0     H13493   3.560   8.582  10.382 -2.9692 -1.2499  0.2287
  100MOL0     H13494   3.568   8.316  10.241 -0.9231 -1.0555  1.3695
  100MOL0     H13495   3.484   8.335  10.397  3.5013  1.7304  2.7784
  100MOL0     H13496   3.246   8.556  10.102 -2.0742 -1.7858  1.1309
  100MOL0     H13497   3.886   8.101  10.547 -0.9346  1.1061  0.1651
  100MOL0     H13498   3.968   7.896  10.647 -1.8328  0.2480 -0.5510
  100MOL0     H13499   4.052   7.831  10.516  3.3278 -0.8975  0.8337
  100MOL0     H13500   4.147   7.861  10.663  1.9164 -0.9072 -3.3906
  101MOL0     O13501   6.442   7.799   4.696  0.2849  0.5844 -0.1448
  101MOL0     C13502   6.451   7.683   4.744  0.5399 -0.1673 -0.7698
  101MOL0     O13503   6.356   7.588   4.737  0.2502  0.3003  0.4330
  101MOL0     C13504   6.234   7.619   4.669 -0.5454  0.0970 -0.3895
  101MOL0     C13505   6.191   7.550   4.555 -0.5838 -1.3654 -0.0228
  101MOL0     C13506   6.074   7.600   4.486  0.8486 -0.3467  0.5479
  101MOL0     C13507   6.002   7.709   4.539  0.2768  0.2091 -0.1829
  101MOL0     O13508   5.888   7.752   4.474  0.4002 -0.4370 -0.0056
  101MOL0     C13509   5.904   7.788   4.336  0.9676  0.1251  0.3472
  101MOL0     C13510   5.806   7.889   4.295  0.0075  0.1706 -0.8745
  101MOL0     C13511   5.801   8.009   4.390 -0.3368 -0.5636 -0.2946
  101MOL0     C13512   5.672   8.066   4.426 -0.1662 -0.2484 -0.4218
  101MOL0     C13513   5.656   8.144   4.566 -1.0085  0.2907 -0.3702
  101MOL0     C13514   5.522   8.209   4.582 -0.1481  0.0731  0.6078
  101MOL0     C13515   5.507   8.350   4.513 -0.4215 -0.3657 -0.3692
  101MOL0     C13516   5.364   8.375   4.464 -0.5220  0.1744 -0.2299
  101MOL0     N13517   5.279   8.433   4.575  0.0262 -0.4543  0.0288
  101MOL0     C13518   5.270   8.565   4.618 -0.1925 -0.1395 -0.1111
  101MOL0     C13519   5.212   8.567   4.736  0.0284 -0.8675 -0.5661
  101MOL0     C13520   5.188   8.699   4.803  0.4171 -0.0941 -1.1244
  101MOL0     C13521   5.051   8.693   4.872 -0.0179  0.1752  0.2529
  101MOL0     C13522   5.009   8.815   4.942  0.3682  0.5248  0.0960
  101MOL0     C13523   5.097   8.845   5.060 -0.2528 -0.0311  0.4547
  101MOL0     O13524   5.063   8.763   5.173  0.6175 -0.2984  0.1850
  101MOL0     C13525   5.146   8.764   5.283  0.1975 -0.5737  0.0634
  101MOL0     C13526   5.089   8.732   5.407 -0.7108 -0.4229 -0.0554
  101MOL0     C13527   5.177   8.729   5.515  0.0548  0.1601 -0.1662
  101MOL0     C13528   5.311   8.761   5.518  0.2294  0.5753  0.2379
  101MOL0     C13529   5.385   8.748   5.640  0.0819 -0.5237  0.1418
  101MOL0     O13530   5.496   8.838   5.631 -0.1683 -0.0414  0.3160
  101MOL0     C13531   5.598   8.830   5.725 -0.7534  0.7553 -0.5404
  101MOL0     C13532   5.610   8.745   5.844  0.3302 -0.5192 -0.1041
  101MOL0     C13533   5.731   8.743   5.915 -0.2875  0.1321  0.1132
  101MOL0     C13534   5.842   8.820   5.884 -0.5272 -0.1910  0.8472
  101MOL0     O13535   5.954   8.804   5.961 -0.0234  0.3734  0.6988
  101MOL0     C13536   6.031   8.913   5.979  0.4902 -0.6636  0.1750
  101MOL0     C13537   6.139   8.897   6.087  0.3599  0.4878 -0.0778
  101MOL0     C13538   6.085   8.897   6.241  0.4122 -0.5299 -0.4577
  101MOL0     C13539   6.208   8.905   6.343  0.0304  0.8754  0.5420
  101MOL0     C13540   6.308   8.787   6.329  0.2056  0.9438  1.0226
  101MOL0     C13541   6.402   8.781   6.456  0.3040 -0.0982  0.8401
  101MOL0     C13542   6.511   8.884   6.431  0.1785 -0.0905 -0.8896
  101MOL0     C13543   6.611   8.892   6.549  0.3821 -0.0279 -0.3871
  101MOL0    Cl13544   6.709   8.745   6.565 -0.2947  0.4120 -0.2313
  101MOL0     C13545   5.832   8.900   5.769  0.3350  0.0135 -0.3677
  101MOL0     C13546   5.713   8.907   5.699  0.1584  0.2387 -0.1466
  101MOL0     O13547   5.348   8.683   5.737 -0.2288 -0.1770  0.2316
  101MOL0     C13548   5.367   8.783   5.386  0.9402  0.1950  0.0336
  101MOL0     C13549   5.284   8.776   5.275  0.3500 -0.1140  0.3436
  101MOL0     N13550   5.194   8.434   4.780 -0.9433 -0.5321  0.0137
  101MOL0     N13551   5.213   8.362   4.677 -0.2292 -0.1638 -0.5634
  101MOL0     C13552   6.042   7.775   4.650  0.0136 -1.0758  0.7474
  101MOL0     C13553   6.159   7.733   4.714 -0.0348  0.6272 -0.0586
  101MOL0     C13554   6.563   7.651   4.831  0.1554 -0.7422 -0.8804
  101MOL0     C13555   6.564   7.534   4.911  0.0308  0.5128 -0.1919
  101MOL0     C13556   6.661   7.515   4.998  0.5323 -0.7299 -0.6177
  101MOL0     C13557   6.756   7.612   5.023  0.1326 -0.1044  0.0419
  101MOL0     O13558   6.852   7.583   5.116  0.0300  0.4685 -0.0004
  101MOL0     C13559   6.965   7.670   5.145 -0.0647  0.1613 -0.5047
  101MOL0     C13560   7.069   7.604   5.227 -0.3858  0.4438 -0.7279
  101MOL0     C13561   7.124   7.491   5.141 -0.2809 -0.4375 -0.5763
  101MOL0     C13562   7.247   7.416   5.198 -0.7456  0.0571  0.2571
  101MOL0     C13563   7.357   7.506   5.221 -0.1308 -0.0365 -0.8784
  101MOL0     C13564   7.450   7.580   5.253  1.0475  0.1060  0.0587
  101MOL0     C13565   6.757   7.728   4.947 -0.2649  0.7820  0.5577
  101MOL0     C13566   6.662   7.747   4.845  0.6654  0.8082  0.2041
  101MOL0     C13567   6.691   7.870   4.759 -0.3469  0.3501  0.3120
  101MOL0     H13568   6.251   7.481   4.497 -3.1663 -1.0869 -3.2956
  101MOL0     H13569   6.038   7.548   4.399  3.0231 -0.9422 -0.0664
  101MOL0     H13570   6.004   7.825   4.310  0.8476 -0.6482 -1.3740
  101MOL0     H13571   5.890   7.698   4.275 -1.0578 -0.3729  1.4813
  101MOL0     H13572   5.705   7.851   4.278 -0.4025  1.6176 -1.9631
  101MOL0     H13573   5.840   7.934   4.201  1.2671  2.7430  0.6710
  101MOL0     H13574   5.859   8.087   4.340 -1.5051  2.0185  2.1451
  101MOL0     H13575   5.848   7.990   4.487 -4.9574  2.8956  3.1180
  101MOL0     H13576   5.657   8.138   4.345 -1.7988  0.5342  0.5089
  101MOL0     H13577   5.597   7.987   4.421 -0.7549  0.2724 -0.0512
  101MOL0     H13578   5.670   8.078   4.652 -0.1521  2.3311  1.1205
  101MOL0     H13579   5.735   8.219   4.575 -0.8895  0.1515 -0.2566
  101MOL0     H13580   5.438   8.144   4.554 -0.5164 -0.1183  2.0946
  101MOL0     H13581   5.511   8.225   4.690 -3.7841  1.7383  0.1318
  101MOL0     H13582   5.589   8.383   4.448 -0.4745  1.3278  0.3712
  101MOL0     H13583   5.529   8.424   4.591  1.6409 -0.0776 -1.1354
  101MOL0     H13584   5.373   8.438   4.375  1.3299  1.2966  0.6973
  101MOL0     H13585   5.312   8.284   4.433 -0.1283 -0.2112  0.2411
  101MOL0     H13586   5.307   8.652   4.565 -1.6380  0.8068  0.4076
  101MOL0     H13587   5.254   8.716   4.889 -3.2141  0.2827  1.8602
  101MOL0     H13588   5.197   8.785   4.736 -0.5100  0.6706 -0.3028
  101MOL0     H13589   4.983   8.652   4.797  1.7641  0.2571 -1.4922
  101MOL0     H13590   5.055   8.607   4.940  0.7582 -0.5244 -0.6536
  101MOL0     H13591   4.904   8.809   4.971  1.1352 -3.2822  2.9621
  101MOL0     H13592   5.023   8.902   4.876  2.2982  1.3191  1.4359
  101MOL0     H13593   5.077   8.949   5.086 -3.1023 -0.5623  0.7003
  101MOL0     H13594   5.203   8.843   5.034  0.3890  3.4216  2.2165
  101MOL0     H13595   4.982   8.718   5.419 -0.2289 -3.8793  1.4107
  101MOL0     H13596   5.126   8.717   5.610 -1.8777  0.8051 -1.0612
  101MOL0     H13597   5.526   8.682   5.871 -0.7473  0.7970 -0.2978
  101MOL0     H13598   5.734   8.675   6.000 -3.5328  1.1261  1.1489
  101MOL0     H13599   6.077   8.934   5.882 -0.5562  1.4033  0.0716
  101MOL0     H13600   5.972   8.997   6.018  0.9531  0.6050 -1.7197
  101MOL0     H13601   6.196   8.809   6.055 -2.4250 -0.7042 -2.2375
  101MOL0     H13602   6.215   8.975   6.077  0.9991 -0.2805 -1.5205
  101MOL0     H13603   6.032   8.992   6.255 -0.1793 -0.5039 -2.5114
  101MOL0     H13604   6.015   8.817   6.267  0.0817 -1.3907 -3.6140
  101MOL0     H13605   6.164   8.908   6.444  0.6411  0.7127  0.8200
  101MOL0     H13606   6.268   8.995   6.332  1.4572 -0.3184 -2.3323
  101MOL0     H13607   6.357   8.794   6.232  1.1294  1.5330  1.5129
  101MOL0     H13608   6.244   8.698   6.324  0.0710  1.0600  0.6273
  101MOL0     H13609   6.346   8.814   6.543  0.2239  1.5493  0.2107
  101MOL0     H13610   6.448   8.682   6.461  3.3187  1.0638 -0.8712
  101MOL0     H13611   6.472   8.986   6.421  0.1551  0.1762  1.2920
  101MOL0     H13612   6.573   8.863   6.343  1.0221  0.3667 -0.4270
  101MOL0     H13613   6.679   8.973   6.518  0.0473  1.7860  3.1249
  101MOL0     H13614   6.552   8.921   6.636  0.5743  4.3450 -1.4634
  101MOL0     H13615   5.911   8.966   5.735 -0.0201  0.2776 -0.6842
  101MOL0     H13616   5.714   8.971   5.611 -1.2074  2.8887  1.6351
  101MOL0     H13617   5.474   8.797   5.374  1.1708 -1.2076  0.2548
  101MOL0     H13618   5.328   8.771   5.175 -0.4149 -2.6889  0.0759
  101MOL0     H13619   5.965   7.845   4.682 -1.0910 -0.4891 -2.7576
  101MOL0     H13620   6.176   7.774   4.813  2.0162 -1.4957  0.5829
  101MOL0     H13621   6.488   7.457   4.902  0.7109 -0.5324  2.2821
  101MOL0     H13622   6.659   7.420   5.050  1.6559 -1.1876 -1.3740
  101MOL0     H13623   6.921   7.742   5.215 -0.8727 -1.8645  1.1792
  101MOL0     H13624   7.014   7.714   5.058 -0.2276 -4.4988 -3.2634
  101MOL0     H13625   7.028   7.564   5.320 -2.7962  0.0383 -1.8883
  101MOL0     H13626   7.150   7.675   5.241 -1.6070  1.6256  0.7181
  101MOL0     H13627   7.156   7.546   5.052  0.1923  3.5571  1.8049
  101MOL0     H13628   7.053   7.409   5.125 -0.6321 -0.5727  1.4735
  101MOL0     H13629   7.221   7.362   5.290  0.1212 -2.5868 -0.9347
  101MOL0     H13630   7.277   7.335   5.131  1.7959 -2.4316  3.9668
  101MOL0     H13631   7.525   7.651   5.281 -0.7420  1.6388  1.1647
  101MOL0     H13632   6.844   7.791   4.961  1.8144 -1.0843 -2.6283
  101MOL0     H13633   6.690   7.840   4.654 -1.8705 -2.1218  0.9568
  101MOL0     H13634   6.619   7.952   4.762  2.1208  2.7970 -1.9705
  101MOL0     H13635   6.779   7.929   4.787 -1.4584  3.5119 -2.1438
  102MOL0     O13636   1.289   6.408   8.281 -0.1655  0.2812 -0.5287
  102MOL0     C13637   1.225   6.499   8.327 -0.6960 -0.3397  0.2579
  102MOL0     O13638   1.132   6.488   8.418 -0.0283  0.2788  0.4008
  102MOL0     C13639   1.088   6.362   8.439 -0.7448 -0.3335 -0.5371
  102MOL0     C13640   1.137   6.284   8.546  0.2500  0.5569 -0.6009
  102MOL0     C13641   1.083   6.163   8.577  0.4537  0.0789 -0.7088
  102MOL0     C13642   0.976   6.109   8.502  0.2068 -1.0419 -0.1972
  102MOL0     O13643   0.917   6.000   8.551 -0.0144 -0.4465 -0.1656
  102MOL0     C13644   0.805   5.947   8.479 -0.4163 -0.6744  0.1860
  102MOL0     C13645   0.746   5.822   8.544 -0.4157 -0.4352  0.8398
  102MOL0     C13646   0.590   5.791   8.518  0.1034 -0.4365 -0.1969
  102MOL0     C13647   0.514   5.715   8.630 -0.2419  0.6082 -0.5851
  102MOL0     C13648   0.369   5.679   8.606  0.5090 -0.1729 -0.5901
  102MOL0     C13649   0.282   5.802   8.643  0.0407  0.2365  0.1597
  102MOL0     C13650   0.136   5.779   8.636  0.9092 -0.1693 -0.1259
  102MOL0     C13651   0.073   5.757   8.772  0.0701 -0.2676 -0.7563
  102MOL0     N13652   0.073   5.874   8.863 -0.3459 -0.4414 -0.4946
  102MOL0     C13653  -0.011   5.978   8.868  0.2108  0.0613 -0.2399
  102MOL0     C13654   0.040   6.069   8.949 -0.0752  0.2624  0.2326
  102MOL0     C13655  -0.019   6.205   8.984 -0.9159  0.5932 -0.5882
  102MOL0     C13656  -0.122   6.217   9.100  0.1809 -0.3391  0.7715
  102MOL0     C13657  -0.266   6.162   9.074  0.2359 -0.8612  0.0884
  102MOL0     C13658  -0.347   6.190   9.199 -0.5197  0.1114  0.9248
  102MOL0     O13659  -0.489   6.159   9.178  0.0060 -0.0974  0.6325
  102MOL0     C13660  -0.577   6.200   9.284  0.1048  0.1666  0.0291
  102MOL0     C13661  -0.534   6.239   9.412 -0.4709 -0.1656  0.2770
  102MOL0     C13662  -0.625   6.270   9.510  0.3761 -0.5936  0.9059
  102MOL0     C13663  -0.759   6.251   9.488 -0.4104 -0.1831 -0.7200
  102MOL0     C13664  -0.854   6.303   9.597 -0.5699  0.6101 -0.3634
  102MOL0     O13665  -0.983   6.250   9.597 -0.6888  0.4453  0.3322
  102MOL0     C13666  -1.048   6.229   9.708 -0.5674 -0.3422  0.5764
  102MOL0     C13667  -1.182   6.275   9.711  0.1540 -0.5515  0.2658
  102MOL0     C13668  -1.256   6.256   9.827  0.1959  0.4391  0.2716
  102MOL0     C13669  -1.196   6.200   9.939 -0.6405  0.6131 -0.0401
  102MOL0     O13670  -1.266   6.165  10.054 -0.1906  0.8185  0.1433
  102MOL0     C13671  -1.352   6.263  10.117  0.8317 -0.3095  0.0205
  102MOL0     C13672  -1.499   6.219  10.114  0.0852 -0.4167 -0.4633
  102MOL0     C13673  -1.579   6.320  10.196 -1.2975 -0.9943  0.2360
  102MOL0     C13674  -1.728   6.297  10.208  0.0548  0.9689 -0.6331
  102MOL0     C13675  -1.759   6.180  10.300 -0.1905 -0.2653  0.4740
  102MOL0     C13676  -1.722   6.192  10.451  0.8724  0.0551  0.5034
  102MOL0     C13677  -1.847   6.242  10.536  0.0044  0.9176  0.0038
  102MOL0     C13678  -1.801   6.225  10.677 -0.5361 -0.4368 -1.6644
  102MOL0    Cl13679  -1.911   6.303  10.790 -0.0728 -0.0697 -0.0368
  102MOL0     C13680  -1.065   6.152   9.932  0.1526 -0.2089  0.0147
  102MOL0     C13681  -0.991   6.169   9.820 -0.4499 -0.9489  0.1676
  102MOL0     O13682  -0.813   6.383   9.675  0.0305 -0.2293  0.3020
  102MOL0     C13683  -0.804   6.186   9.373 -0.0683 -0.8636  0.2648
  102MOL0     C13684  -0.709   6.170   9.270  0.3229 -0.7620  0.0176
  102MOL0     N13685   0.145   6.013   9.014 -0.5483 -0.0884 -0.4979
  102MOL0     N13686   0.167   5.892   8.961  0.1260  0.2315  0.0256
  102MOL0     C13687   0.935   6.185   8.391 -0.3129 -0.1686  0.2385
  102MOL0     C13688   0.980   6.313   8.363  0.0899  0.7264 -0.2043
  102MOL0     C13689   1.266   6.635   8.278 -0.1647 -0.4221  0.5385
  102MOL0     C13690   1.219   6.748   8.351  0.5477 -0.1728  0.0101
  102MOL0     C13691   1.270   6.875   8.333 -0.8918 -0.5497  0.9969
  102MOL0     C13692   1.363   6.894   8.228 -0.1178 -0.3659  0.7562
  102MOL0     O13693   1.413   7.019   8.189 -0.0610  0.2395 -0.3408
  102MOL0     C13694   1.345   7.148   8.203 -0.2843 -0.3491  0.6284
  102MOL0     C13695   1.244   7.163   8.089  0.3064 -0.2608 -0.9436
  102MOL0     C13696   1.158   7.294   8.115  0.7716 -0.4706 -0.0383
  102MOL0     C13697   1.052   7.308   7.999 -0.0223  0.3729 -0.2018
  102MOL0     C13698   0.950   7.411   8.038 -0.6575  0.7332  1.4473
  102MOL0     C13699   0.871   7.498   8.065 -0.1215 -0.0103 -0.2495
  102MOL0     C13700   1.407   6.787   8.146  0.3932  0.4064 -0.0905
  102MOL0     C13701   1.348   6.660   8.163 -0.3264 -0.0447 -0.4613
  102MOL0     C13702   1.404   6.563   8.065  0.1153  0.6158  0.1233
  102MOL0     H13703   1.208   6.327   8.615 -0.1435  1.8505 -0.9624
  102MOL0     H13704   1.117   6.113   8.667 -0.9960  0.3850  0.0378
  102MOL0     H13705   0.726   6.023   8.480 -0.6987 -0.9473  1.9636
  102MOL0     H13706   0.826   5.914   8.377  1.4588  0.6722  0.1054
  102MOL0     H13707   0.777   5.828   8.649  1.3957 -2.1749  0.4601
  102MOL0     H13708   0.809   5.743   8.502  0.3955  0.0705  1.0681
  102MOL0     H13709   0.600   5.727   8.430  1.3067  0.3836 -0.6798
  102MOL0     H13710   0.536   5.884   8.495  1.1316 -0.0440 -1.1044
  102MOL0     H13711   0.568   5.621   8.646 -0.5229  0.2393 -1.7491
  102MOL0     H13712   0.520   5.771   8.724 -0.9302 -2.7144  1.6418
  102MOL0     H13713   0.347   5.649   8.503 -2.5504  1.2449 -0.4651
  102MOL0     H13714   0.338   5.597   8.671 -0.4145  1.0149  0.4969
  102MOL0     H13715   0.316   5.853   8.734  3.5258  3.2723 -2.5382
  102MOL0     H13716   0.307   5.882   8.573 -0.5277  1.7125  1.5838
  102MOL0     H13717   0.109   5.692   8.574 -2.1808 -2.0171  3.3818
  102MOL0     H13718   0.078   5.860   8.591  0.0836 -2.1911 -3.0458
  102MOL0     H13719  -0.029   5.718   8.763 -0.5389  0.9656  0.3377
  102MOL0     H13720   0.130   5.683   8.828 -0.4637  0.1695  0.4246
  102MOL0     H13721  -0.100   5.976   8.808 -1.0733 -2.2345  1.5579
  102MOL0     H13722   0.069   6.266   9.006 -2.2093  2.9371 -1.4679
  102MOL0     H13723  -0.059   6.247   8.891  2.1880  3.2489 -0.9199
  102MOL0     H13724  -0.076   6.166   9.186  3.0087 -1.4744 -1.2658
  102MOL0     H13725  -0.128   6.325   9.109 -0.6553  0.0419 -2.8571
  102MOL0     H13726  -0.265   6.052   9.076 -1.1351 -0.8833  1.2798
  102MOL0     H13727  -0.313   6.191   8.980  2.9174 -1.8677 -1.6969
  102MOL0     H13728  -0.345   6.296   9.224  0.0559  0.0892  0.9804
  102MOL0     H13729  -0.293   6.147   9.285  1.4507  0.8232  0.0930
  102MOL0     H13730  -0.429   6.264   9.424 -0.7542  1.8518 -0.9663
  102MOL0     H13731  -0.570   6.318   9.589  2.6757 -4.2434  1.7819
  102MOL0     H13732  -1.205   6.343   9.629  2.8799 -1.0677 -1.0337
  102MOL0     H13733  -1.361   6.283   9.829 -0.6038 -2.1874 -1.4553
  102MOL0     H13734  -1.316   6.269  10.220  2.6794  0.9149 -0.6431
  102MOL0     H13735  -1.340   6.361  10.069  0.5248 -1.4690 -2.6054
  102MOL0     H13736  -1.538   6.209  10.013 -1.5293 -2.1458  0.2572
  102MOL0     H13737  -1.507   6.117  10.154 -2.9489 -0.1365 -0.0967
  102MOL0     H13738  -1.536   6.317  10.296  1.2201 -0.2786 -0.7370
  102MOL0     H13739  -1.561   6.418  10.151  3.6700 -1.8827 -0.3791
  102MOL0     H13740  -1.764   6.266  10.110 -2.5858 -1.9179  1.0744
  102MOL0     H13741  -1.774   6.388  10.247 -0.5003 -0.2079  1.6723
  102MOL0     H13742  -1.699   6.096  10.265  2.6464  1.6907  0.3251
  102MOL0     H13743  -1.863   6.148  10.289 -0.6644  0.4877  2.3512
  102MOL0     H13744  -1.708   6.087  10.480 -0.1572 -0.1391  0.3418
  102MOL0     H13745  -1.642   6.260  10.483  0.3497  1.4391 -0.9973
  102MOL0     H13746  -1.933   6.175  10.528  1.9303 -1.8982  1.1429
  102MOL0     H13747  -1.870   6.346  10.514  1.1807  0.8323 -1.9173
  102MOL0     H13748  -1.790   6.121  10.710 -0.1529  0.5398  1.6389
  102MOL0     H13749  -1.706   6.277  10.690 -1.0366 -0.0871  1.4579
  102MOL0     H13750  -1.010   6.107  10.014 -0.5377  1.8976  1.7366
  102MOL0     H13751  -0.894   6.123   9.806 -0.3364 -0.4041 -0.9854
  102MOL0     H13752  -0.909   6.160   9.365 -0.1250 -1.8677  3.1890
  102MOL0     H13753  -0.740   6.124   9.177  1.9027 -4.1063  0.9561
  102MOL0     H13754   0.848   6.157   8.333 -1.8419  0.2052  2.2479
  102MOL0     H13755   0.931   6.378   8.291 -0.4794 -1.3423 -1.7389
  102MOL0     H13756   1.144   6.742   8.429  1.3570  0.6877  0.8762
  102MOL0     H13757   1.234   6.963   8.386  0.8572  0.1478  1.1120
  102MOL0     H13758   1.410   7.236   8.199 -0.7884 -0.0106 -1.5805
  102MOL0     H13759   1.306   7.145   8.305  0.1680  0.5741  0.8435
  102MOL0     H13760   1.181   7.074   8.083  1.0282 -0.8707  0.1458
  102MOL0     H13761   1.292   7.180   7.992  1.5394  1.3769 -0.0886
  102MOL0     H13762   1.220   7.384   8.125  1.1742 -0.6248 -1.0597
  102MOL0     H13763   1.107   7.289   8.211  1.1685  2.1865  0.4024
  102MOL0     H13764   1.103   7.346   7.909 -0.6222 -4.2116 -2.7997
  102MOL0     H13765   1.006   7.210   7.983  2.8798 -0.8977 -1.6076
  102MOL0     H13766   0.803   7.576   8.092  0.4902  0.4686 -0.0728
  102MOL0     H13767   1.478   6.820   8.071 -0.9292  0.4343 -1.3657
  102MOL0     H13768   1.329   6.485   8.048 -0.8528  1.9576 -2.2366
  102MOL0     H13769   1.418   6.598   7.962 -3.2021 -0.0756 -0.7074
  102MOL0     H13770   1.490   6.508   8.104  0.8783  1.5027 -0.2561
  103MOL0     O13771   6.588   5.558  11.446  0.3301  0.1052  0.1962
  103MOL0     C13772   6.563   5.513  11.555  0.4543  0.5551  0.0313
  103MOL0     O13773   6.473   5.568  11.650 -0.3927 -0.0940  0.7234
  103MOL0     C13774   6.449   5.701  11.664  0.0379  0.3266  0.8396
  103MOL0     C13775   6.366   5.728  11.775 -0.4128  0.1711  0.4181
  103MOL0     C13776   6.340   5.872  11.800  1.0215  0.6209 -0.0271
  103MOL0     C13777   6.396   5.975  11.721 -0.5139 -0.3544  0.1898
  103MOL0     O13778   6.370   6.104  11.732 -0.4623 -0.6630  0.0128
  103MOL0     C13779   6.312   6.153  11.854  0.8233  0.2259  0.3675
  103MOL0     C13780   6.414   6.146  11.978 -0.4002 -0.5117 -0.1745
  103MOL0     C13781   6.531   6.238  11.948  0.6083  0.3119  0.1934
  103MOL0     C13782   6.626   6.230  12.061 -0.5271 -0.5638 -0.8572
  103MOL0     C13783   6.744   6.321  12.021  0.7694 -0.3737  0.4306
  103MOL0     C13784   6.861   6.311  12.124  0.1343  0.2111 -0.1818
  103MOL0     C13785   6.998   6.361  12.087 -0.8283 -0.1739  1.0643
  103MOL0     C13786   7.081   6.381  12.220  0.3027  0.3562 -0.0501
  103MOL0     N13787   7.013   6.485  12.297  0.6383 -0.6466 -0.7058
  103MOL0     C13788   6.965   6.608  12.251  0.0853 -0.3767 -0.2584
  103MOL0     C13789   6.886   6.659  12.351 -0.0062  0.0154 -0.2715
  103MOL0     C13790   6.798   6.782  12.353 -0.2333  0.3730  0.2770
  103MOL0     C13791   6.788   6.851  12.488  0.6107 -0.2802 -0.7515
  103MOL0     C13792   6.718   6.981  12.517  0.0131  0.4111  0.2801
  103MOL0     C13793   6.572   6.995  12.475  0.8111  0.7443 -0.8644
  103MOL0     O13794   6.501   6.908  12.560  0.3082 -0.5560  0.4296
  103MOL0     C13795   6.368   6.908  12.531 -0.3767  0.9029 -0.9022
  103MOL0     C13796   6.323   6.827  12.427 -0.3323  0.3769  0.0217
  103MOL0     C13797   6.186   6.827  12.403 -0.3308  0.5399 -0.0423
  103MOL0     C13798   6.084   6.881  12.483  1.0314  0.1401  0.1698
  103MOL0     C13799   5.944   6.879  12.436  0.2213 -0.3671 -0.4665
  103MOL0     O13800   5.847   6.927  12.519 -0.3243 -0.5995 -0.0399
  103MOL0     C13801   5.715   6.917  12.498 -0.5020 -0.4611  1.2344
  103MOL0     C13802   5.642   6.844  12.395  0.7068 -0.8710  0.1962
  103MOL0     C13803   5.506   6.855  12.385  0.3244 -0.1075 -0.5763
  103MOL0     C13804   5.430   6.936  12.475 -0.0602 -0.4112  0.4007
  103MOL0     O13805   5.294   6.960  12.473  0.5223 -0.0448  0.1421
  103MOL0     C13806   5.208   6.904  12.372 -0.6511 -0.6533 -0.2043
  103MOL0     C13807   5.079   6.894  12.445  0.6638  0.6359 -0.2418
  103MOL0     C13808   4.986   6.815  12.357 -0.1041  0.2685 -0.0210
  103MOL0     C13809   4.865   6.771  12.430  0.5343 -0.6116  0.0101
  103MOL0     C13810   4.760   6.715  12.339 -0.0327  0.2072  0.3775
  103MOL0     C13811   4.642   6.664  12.429  0.0393 -0.2533  0.5822
  103MOL0     C13812   4.533   6.603  12.336  0.2620 -0.3654  0.4891
  103MOL0     C13813   4.469   6.708  12.238  1.0132 -1.4055  0.0606
  103MOL0    Cl13814   4.330   6.636  12.141  0.6442  0.5374 -0.5015
  103MOL0     C13815   5.502   7.004  12.573 -1.1349  0.0040 -0.3328
  103MOL0     C13816   5.646   6.989  12.590  0.9168 -0.5292  0.0464
  103MOL0     O13817   5.927   6.815  12.331 -0.2151  0.4689 -0.2668
  103MOL0     C13818   6.127   6.938  12.600 -0.5626  0.0856  0.3142
  103MOL0     C13819   6.266   6.947  12.625  0.5198  0.3959 -0.6637
  103MOL0     N13820   6.901   6.566  12.451  0.7180 -0.5213  0.3392
  103MOL0     N13821   6.974   6.470  12.425  0.1658  0.4026  0.4614
  103MOL0     C13822   6.470   5.941  11.613 -0.1628  0.7929  0.5585
  103MOL0     C13823   6.502   5.802  11.576  0.2702 -0.7001 -0.8230
  103MOL0     C13824   6.649   5.407  11.609 -0.9667  0.2698  0.5971
  103MOL0     C13825   6.781   5.416  11.569 -0.0414  0.2228  0.6631
  103MOL0     C13826   6.872   5.322  11.620 -0.9205  0.5507  1.1832
  103MOL0     C13827   6.841   5.221  11.701  0.5349 -0.1351 -0.6694
  103MOL0     O13828   6.936   5.148  11.783  0.2308  0.4109  0.1387
  103MOL0     C13829   6.978   5.017  11.732 -0.2060  0.0288 -0.1693
  103MOL0     C13830   7.079   5.033  11.628  0.1164 -0.2942 -0.5742
  103MOL0     C13831   7.071   4.921  11.516 -0.6170  0.2533 -0.5028
  103MOL0     C13832   6.954   4.929  11.415  0.0147 -0.3277  0.1311
  103MOL0     C13833   6.889   4.798  11.409 -0.7149 -1.0126 -0.0065
  103MOL0     C13834   6.839   4.694  11.409  1.0539 -0.2197  1.0598
  103MOL0     C13835   6.708   5.207  11.739  0.5939 -0.3810 -0.0220
  103MOL0     C13836   6.613   5.301  11.692 -0.3388 -0.0548 -0.8261
  103MOL0     C13837   6.469   5.284  11.739  0.2756 -0.0734 -0.4232
  103MOL0     H13838   6.324   5.642  11.826 -0.4857 -1.4204 -2.1753
  103MOL0     H13839   6.273   5.886  11.884 -1.5583 -1.5032 -1.5934
  103MOL0     H13840   6.274   6.253  11.830  1.2485  0.1361 -0.7521
  103MOL0     H13841   6.221   6.107  11.894  1.9214 -1.8109  0.6595
  103MOL0     H13842   6.451   6.043  11.977  2.1653  0.2799 -3.0419
  103MOL0     H13843   6.364   6.169  12.072 -0.1534  0.8257 -0.3453
  103MOL0     H13844   6.504   6.342  11.927 -1.2082  0.1464  1.5278
  103MOL0     H13845   6.581   6.190  11.864 -2.2408 -1.6283 -0.5334
  103MOL0     H13846   6.581   6.269  12.153  0.5683 -1.7703  0.2251
  103MOL0     H13847   6.658   6.127  12.074  0.5633 -0.2660 -1.0821
  103MOL0     H13848   6.770   6.277  11.924 -2.7920 -2.0194  0.0587
  103MOL0     H13849   6.721   6.427  12.008 -1.0119 -0.6666  0.8740
  103MOL0     H13850   6.826   6.362  12.214 -1.5960 -0.9792 -0.1342
  103MOL0     H13851   6.864   6.208  12.161  0.8092 -0.1430 -1.1841
  103MOL0     H13852   6.972   6.458  12.045 -0.0933 -0.0865  0.8156
  103MOL0     H13853   7.052   6.299  12.015  0.6894  1.2466  0.9446
  103MOL0     H13854   7.093   6.284  12.270  0.1698  0.1201 -0.4687
  103MOL0     H13855   7.186   6.412  12.221  0.7115 -0.9775  1.2196
  103MOL0     H13856   6.984   6.654  12.155 -0.9154  2.5422  0.8365
  103MOL0     H13857   6.840   6.851  12.279  0.8430  1.6613  2.0284
  103MOL0     H13858   6.697   6.762  12.317  0.3027 -3.9529  0.5785
  103MOL0     H13859   6.757   6.772  12.557  3.1306  1.4494  2.6319
  103MOL0     H13860   6.888   6.868  12.526 -0.2454 -0.0561  1.5334
  103MOL0     H13861   6.769   7.053  12.451  1.2911 -1.0695 -0.4025
  103MOL0     H13862   6.741   6.995  12.623  0.0157 -1.2861  0.5294
  103MOL0     H13863   6.542   6.970  12.373 -0.9467  2.4293 -0.8257
  103MOL0     H13864   6.522   7.089  12.499 -3.7814 -2.1188  2.2438
  103MOL0     H13865   6.389   6.774  12.359 -0.9897 -0.8593  0.3154
  103MOL0     H13866   6.157   6.770  12.316  2.0608  1.3300 -1.4604
  103MOL0     H13867   5.683   6.782  12.316 -5.2244 -1.3280 -3.1113
  103MOL0     H13868   5.457   6.812  12.299 -0.9605 -3.0327  1.4689
  103MOL0     H13869   5.207   6.986  12.300  0.7030  0.2002  0.7103
  103MOL0     H13870   5.249   6.809  12.336 -1.0925 -1.0148  0.2398
  103MOL0     H13871   5.079   6.853  12.547 -1.6629 -0.8560 -0.7885
  103MOL0     H13872   5.042   6.997  12.439  1.2879  1.1439  2.8541
  103MOL0     H13873   4.979   6.880  12.269  2.3995  1.9483  0.8955
  103MOL0     H13874   5.019   6.713  12.336 -0.5522 -0.1927  1.4064
  103MOL0     H13875   4.825   6.856  12.487  5.9300  0.5628  2.6636
  103MOL0     H13876   4.886   6.692  12.502 -1.8973 -0.3775  1.1076
  103MOL0     H13877   4.804   6.631  12.285 -0.8505  0.5123 -0.8068
  103MOL0     H13878   4.722   6.790  12.270 -1.2933 -1.2724 -0.6082
  103MOL0     H13879   4.665   6.581  12.496 -2.0165 -1.5602 -0.2222
  103MOL0     H13880   4.587   6.740  12.485 -2.2163 -4.1288  4.2434
  103MOL0     H13881   4.450   6.564  12.397 -1.6173  2.4524 -0.0739
  103MOL0     H13882   4.573   6.526  12.269  1.7417  2.3818 -1.9873
  103MOL0     H13883   4.428   6.787  12.302  0.0386 -0.7298 -1.3231
  103MOL0     H13884   4.542   6.749  12.168 -1.6128  1.8798 -1.0782
  103MOL0     H13885   5.442   7.043  12.654 -1.5857 -2.7276  0.7679
  103MOL0     H13886   5.702   7.038  12.669  0.8448 -0.6542  0.1740
  103MOL0     H13887   6.050   6.973  12.669 -1.5171 -2.4347  0.6225
  103MOL0     H13888   6.291   6.987  12.723 -0.2475 -2.8312  0.9728
  103MOL0     H13889   6.511   6.020  11.552 -0.3202 -1.1138 -2.1969
  103MOL0     H13890   6.576   5.784  11.498  0.6254 -1.2318 -0.3701
  103MOL0     H13891   6.822   5.486  11.498 -1.6776  0.1679 -0.3851
  103MOL0     H13892   6.976   5.335  11.590 -1.5223 -1.3261 -2.1315
  103MOL0     H13893   6.891   4.966  11.689 -1.5475  4.3088 -3.1687
  103MOL0     H13894   7.014   4.951  11.811  1.3809 -1.4568 -2.0476
  103MOL0     H13895   7.177   5.039  11.677 -0.1333 -1.3517  0.0767
  103MOL0     H13896   7.074   5.123  11.566 -2.9632 -0.3335 -0.5442
  103MOL0     H13897   7.074   4.822  11.563 -0.7697 -0.5872 -2.1951
  103MOL0     H13898   7.165   4.931  11.460  0.1231 -0.4694  0.5698
  103MOL0     H13899   6.890   5.013  11.444 -0.2394 -0.5838  0.3104
  103MOL0     H13900   7.006   4.955  11.322  2.0560 -1.0502  1.0257
  103MOL0     H13901   6.802   4.593  11.410  1.5582 -0.4573 -0.5989
  103MOL0     H13902   6.681   5.122  11.802  1.5566 -2.2272 -1.9590
  103MOL0     H13903   6.439   5.364  11.807 -0.9263 -0.1547 -0.8366
  103MOL0     H13904   6.396   5.283  11.658  0.4251 -2.0462 -0.5718
  103MOL0     H13905   6.458   5.191  11.795  1.0964  0.9364  1.5194
  104MOL0     O13906   6.235   7.474   7.400  0.5714 -0.8468  0.1825
  104MOL0     C13907   6.142   7.393   7.421 -0.3824  0.1850 -0.9111
  104MOL0     O13908   6.151   7.295   7.521 -0.1744 -0.5181 -0.9641
  104MOL0     C13909   6.265   7.291   7.595 -0.3050 -0.4912  0.1628
  104MOL0     C13910   6.365   7.193   7.579 -0.8582 -0.0656 -0.0016
  104MOL0     C13911   6.471   7.178   7.674  0.1386 -0.7949  0.1473
  104MOL0     C13912   6.485   7.277   7.769 -0.8712 -0.2974  0.5761
  104MOL0     O13913   6.597   7.261   7.854 -0.8992  1.0142  0.2918
  104MOL0     C13914   6.718   7.334   7.813  1.0055  0.5329  0.4319
  104MOL0     C13915   6.792   7.400   7.928  0.6739 -0.1266 -0.4497
  104MOL0     C13916   6.743   7.535   7.972  0.2151 -0.2322  0.4387
  104MOL0     C13917   6.770   7.563   8.121  0.1711 -0.1498  0.3876
  104MOL0     C13918   6.675   7.670   8.178 -0.3247 -0.4573  0.5920
  104MOL0     C13919   6.525   7.619   8.199  0.0831 -1.0040 -0.5257
  104MOL0     C13920   6.506   7.505   8.303 -0.3520  0.7540 -0.1316
  104MOL0     C13921   6.365   7.500   8.370 -0.0396  0.0182 -0.2210
  104MOL0     N13922   6.271   7.444   8.277 -0.3070  0.5080 -0.4367
  104MOL0     C13923   6.296   7.334   8.192  0.7012 -0.0232 -0.5436
  104MOL0     C13924   6.183   7.317   8.131  0.2809  0.3044  0.2262
  104MOL0     C13925   6.160   7.208   8.028  0.2721 -0.6393  0.5100
  104MOL0     C13926   6.028   7.211   7.970  0.3809  0.1769  0.3339
  104MOL0     C13927   6.011   7.107   7.854 -0.2355  0.8171  0.2466
  104MOL0     C13928   5.874   7.088   7.774 -0.2013  0.4429 -0.4599
  104MOL0     O13929   5.847   7.216   7.720  0.2465 -0.2739  0.1316
  104MOL0     C13930   5.764   7.222   7.608  0.9470 -0.5770 -0.5387
  104MOL0     C13931   5.666   7.125   7.579 -0.0356 -0.5249 -0.1433
  104MOL0     C13932   5.581   7.144   7.471 -0.0147 -0.2879 -0.1291
  104MOL0     C13933   5.591   7.258   7.383 -0.4009  0.7251 -0.0156
  104MOL0     C13934   5.492   7.275   7.275 -0.4465  0.4139 -0.1511
  104MOL0     O13935   5.466   7.399   7.220  0.0896 -0.0757 -0.2753
  104MOL0     C13936   5.355   7.440   7.139 -0.1975 -0.5585 -1.1830
  104MOL0     C13937   5.261   7.349   7.094  0.4678 -0.8425  1.0003
  104MOL0     C13938   5.161   7.400   7.006  0.3410 -0.2308  0.3519
  104MOL0     C13939   5.149   7.540   6.968 -0.1467  0.4286  0.5400
  104MOL0     O13940   5.040   7.595   6.897 -0.0602  0.2584  0.3974
  104MOL0     C13941   4.990   7.517   6.788 -0.6121  0.2258  0.1316
  104MOL0     C13942   5.082   7.515   6.670 -0.5471 -0.0381 -0.6177
  104MOL0     C13943   5.123   7.655   6.631 -0.4773 -0.2800 -0.3949
  104MOL0     C13944   5.150   7.666   6.480  0.2630  0.5771  0.5220
  104MOL0     C13945   5.181   7.814   6.430 -0.3563 -0.2969  0.0919
  104MOL0     C13946   5.301   7.885   6.504 -0.8684 -0.7066  0.8120
  104MOL0     C13947   5.429   7.820   6.452  0.0407 -0.2306 -0.2337
  104MOL0     C13948   5.554   7.906   6.485 -0.0695  0.4058 -0.2674
  104MOL0    Cl13949   5.700   7.847   6.394 -0.3422 -0.3769  0.3747
  104MOL0     C13950   5.250   7.621   7.028  0.8641 -1.1632  0.3633
  104MOL0     C13951   5.354   7.573   7.106 -0.0125 -0.9312  1.1245
  104MOL0     O13952   5.438   7.166   7.238  0.1384 -0.3399 -0.3840
  104MOL0     C13953   5.667   7.368   7.423 -0.3056 -0.3434  0.2637
  104MOL0     C13954   5.758   7.346   7.527  0.3772 -0.1483  0.1086
  104MOL0     N13955   6.085   7.410   8.176 -0.1257 -0.8822  0.0636
  104MOL0     N13956   6.137   7.483   8.268  0.2312 -0.8756 -0.8480
  104MOL0     C13957   6.388   7.375   7.787  0.2233  0.3800  0.2372
  104MOL0     C13958   6.280   7.385   7.699 -0.1979 -0.0276  0.1516
  104MOL0     C13959   6.040   7.369   7.320  0.4702  1.4699 -0.4256
  104MOL0     C13960   5.982   7.239   7.322  0.5187  0.0176  0.3521
  104MOL0     C13961   5.887   7.204   7.225  0.6324 -0.9341  0.2951
  104MOL0     C13962   5.846   7.285   7.121  0.1670 -0.2361  0.1850
  104MOL0     O13963   5.778   7.228   7.016 -0.1513  0.8580 -0.2470
  104MOL0     C13964   5.718   7.314   6.923  0.2493  0.0463  0.4941
  104MOL0     C13965   5.628   7.225   6.834 -0.4415  0.2714  0.2830
  104MOL0     C13966   5.511   7.160   6.918 -0.3693  0.1232 -1.0519
  104MOL0     C13967   5.438   7.051   6.834 -0.2385 -0.3108  0.0537
  104MOL0     C13968   5.373   7.133   6.731  0.0542 -0.0613 -0.0644
  104MOL0     C13969   5.315   7.190   6.636  0.2825  0.4851  0.4118
  104MOL0     C13970   5.903   7.416   7.121  0.3619 -0.3232 -0.1224
  104MOL0     C13971   5.997   7.460   7.220  0.2755 -0.6730 -0.2187
  104MOL0     C13972   6.048   7.591   7.212 -0.3895 -1.1298  0.0897
  104MOL0     H13973   6.349   7.120   7.501  2.3623 -0.2378 -0.6159
  104MOL0     H13974   6.542   7.098   7.658 -0.4839 -1.0235 -1.6234
  104MOL0     H13975   6.785   7.266   7.759  2.4801  2.4961 -0.3447
  104MOL0     H13976   6.705   7.427   7.757  1.2304  1.5984  2.0820
  104MOL0     H13977   6.894   7.422   7.896  1.6543 -1.8890  1.1826
  104MOL0     H13978   6.785   7.321   8.004 -3.6976  1.7065  1.3745
  104MOL0     H13979   6.634   7.532   7.960  0.3132 -0.8382 -0.4111
  104MOL0     H13980   6.794   7.615   7.918  1.0011  0.3132  1.9372
  104MOL0     H13981   6.759   7.462   8.163  0.1137 -0.4962 -0.4502
  104MOL0     H13982   6.872   7.594   8.145 -0.1884  0.6753  0.8927
  104MOL0     H13983   6.712   7.702   8.276 -1.3556 -0.0731  0.8697
  104MOL0     H13984   6.666   7.756   8.112 -1.1382  0.0019  1.2819
  104MOL0     H13985   6.457   7.695   8.238  0.1153 -0.4945 -1.4306
  104MOL0     H13986   6.483   7.595   8.101 -3.1820  4.3101 -0.8333
  104MOL0     H13987   6.578   7.525   8.383 -0.2895 -1.7058  0.5044
  104MOL0     H13988   6.527   7.409   8.257 -1.9523 -0.1043  0.8190
  104MOL0     H13989   6.375   7.439   8.460  1.6980  0.6193  0.0278
  104MOL0     H13990   6.336   7.602   8.395 -2.8265 -0.2086 -2.1105
  104MOL0     H13991   6.378   7.263   8.178  1.4410  0.0950  2.4213
  104MOL0     H13992   6.228   7.229   7.945  0.9446  0.0485  1.2053
  104MOL0     H13993   6.170   7.109   8.073 -3.3789 -0.4362  2.1711
  104MOL0     H13994   5.962   7.180   8.052  1.7525 -0.7149  1.1424
  104MOL0     H13995   6.002   7.307   7.925 -1.3013  0.7050  2.2653
  104MOL0     H13996   6.025   7.015   7.911 -1.4403 -0.0498 -0.7915
  104MOL0     H13997   6.100   7.128   7.795  0.7515  2.0829  2.1138
  104MOL0     H13998   5.792   7.072   7.846  0.5238  2.5313  0.9281
  104MOL0     H13999   5.889   7.013   7.696 -1.3120  0.7659 -1.0087
  104MOL0     H14000   5.647   7.045   7.649  1.7278 -1.2515 -0.4341
  104MOL0     H14001   5.509   7.064   7.456 -1.1662  1.1052 -2.6561
  104MOL0     H14002   5.263   7.243   7.120  0.2788 -1.1724 -0.2915
  104MOL0     H14003   5.094   7.324   6.966  1.2523 -0.3447 -1.0368
  104MOL0     H14004   4.949   7.419   6.815  0.2464 -0.1330  0.1522
  104MOL0     H14005   4.895   7.565   6.762 -0.6064 -0.6898 -1.8219
  104MOL0     H14006   5.175   7.468   6.702 -0.9857 -0.0520  0.6899
  104MOL0     H14007   5.044   7.461   6.583  0.0100 -0.4995 -0.5766
  104MOL0     H14008   5.049   7.730   6.660  0.8757  0.0400  2.6103
  104MOL0     H14009   5.211   7.684   6.689 -2.3917  2.1864  1.4821
  104MOL0     H14010   5.057   7.638   6.431  1.7651 -2.9118 -0.6593
  104MOL0     H14011   5.227   7.593   6.455  1.8730  2.0319  0.9826
  104MOL0     H14012   5.099   7.881   6.460  1.7540  3.4482 -1.7998
  104MOL0     H14013   5.181   7.825   6.321 -1.8827 -0.7677  0.0092
  104MOL0     H14014   5.300   7.992   6.478  1.3177 -0.8446 -0.0606
  104MOL0     H14015   5.302   7.872   6.612 -1.1142  0.4148  0.9593
  104MOL0     H14016   5.421   7.820   6.343  2.9845  1.1027 -0.5440
  104MOL0     H14017   5.425   7.719   6.493 -1.8491 -0.2717 -0.4100
  104MOL0     H14018   5.542   8.010   6.453  1.5460  0.4820 -0.6949
  104MOL0     H14019   5.570   7.895   6.592  1.9002  4.4583  0.0431
  104MOL0     H14020   5.235   7.727   7.010  0.8650 -1.3035 -0.4874
  104MOL0     H14021   5.423   7.642   7.153  0.8863  0.2850 -1.7531
  104MOL0     H14022   5.684   7.459   7.366 -1.3824  0.3528  1.0043
  104MOL0     H14023   5.840   7.417   7.537 -1.4185  1.7175  3.3878
  104MOL0     H14024   6.398   7.455   7.859  4.6974  0.5156 -0.2694
  104MOL0     H14025   6.203   7.460   7.714  2.3042  2.4201  1.6859
  104MOL0     H14026   6.019   7.163   7.390 -0.7551 -0.8265  0.1459
  104MOL0     H14027   5.847   7.103   7.228  0.9867 -1.1390 -1.1451
  104MOL0     H14028   5.789   7.359   6.853  1.6023 -1.8931  0.5503
  104MOL0     H14029   5.658   7.390   6.975  1.4822  1.5902 -0.2622
  104MOL0     H14030   5.686   7.142   6.794 -3.6591 -1.8897 -0.2696
  104MOL0     H14031   5.574   7.291   6.765 -1.4742 -0.3528  0.4809
  104MOL0     H14032   5.441   7.235   6.954  1.6815  1.1481  1.0780
  104MOL0     H14033   5.557   7.109   7.003 -0.4445  2.8847  0.7699
  104MOL0     H14034   5.500   6.971   6.794 -1.7989 -0.9896 -1.1062
  104MOL0     H14035   5.364   7.002   6.898  1.6656 -2.6956  0.5851
  104MOL0     H14036   5.265   7.224   6.548 -1.2684 -0.0019  1.0590
  104MOL0     H14037   5.884   7.479   7.035  3.1498  2.4227  1.0774
  104MOL0     H14038   5.975   7.652   7.159  0.7093  0.0881 -0.0603
  104MOL0     H14039   6.050   7.637   7.311 -2.6099  1.1192 -0.8120
  104MOL0     H14040   6.146   7.595   7.164 -0.6560  0.0469 -0.3817
  105MOL0     O14041   7.730   3.027   5.928 -0.9196 -0.1013  0.9185
  105MOL0     C14042   7.807   3.095   5.856 -1.0201 -0.5059 -1.0176
  105MOL0     O14043   7.775   3.139   5.740  0.2057  0.1664  0.3651
  105MOL0     C14044   7.675   3.074   5.675 -0.3201  0.5552 -0.2654
  105MOL0     C14045   7.693   2.968   5.594 -0.1594  0.3514  0.6116
  105MOL0     C14046   7.591   2.906   5.526  0.3461 -0.2010  0.1168
  105MOL0     C14047   7.463   2.967   5.524 -0.8877  0.0107 -0.4447
  105MOL0     O14048   7.361   2.927   5.444 -0.2623 -0.4988  0.3616
  105MOL0     C14049   7.235   2.884   5.488  0.5930  0.1207 -0.3581
  105MOL0     C14050   7.117   2.961   5.430 -0.3292 -0.0625 -0.2118
  105MOL0     C14051   7.118   3.112   5.455  0.0192  0.5499  0.4480
  105MOL0     C14052   7.062   3.141   5.594 -0.4889  0.1272 -0.2257
  105MOL0     C14053   7.028   3.292   5.631  0.4544 -0.3804  0.6903
  105MOL0     C14054   7.150   3.388   5.596  1.2253  0.8289  0.1378
  105MOL0     C14055   7.115   3.538   5.612 -1.4028 -0.1289  0.1987
  105MOL0     C14056   7.013   3.606   5.520  0.7166  0.2380 -0.1986
  105MOL0     N14057   7.003   3.751   5.544 -0.0992  0.0943 -0.7312
  105MOL0     C14058   7.026   3.840   5.439 -0.5564 -0.6569 -0.6192
  105MOL0     C14059   6.958   3.953   5.469 -0.0714 -0.6048  0.2468
  105MOL0     C14060   6.957   4.054   5.361 -0.4141  0.0309  0.6418
  105MOL0     C14061   6.840   4.139   5.343  0.4686 -0.0733 -1.1377
  105MOL0     C14062   6.836   4.247   5.456 -0.0381  1.0564 -0.0345
  105MOL0     C14063   6.713   4.337   5.456 -0.4457  1.1066 -0.3424
  105MOL0     O14064   6.713   4.418   5.576  0.2170  1.2073  0.0275
  105MOL0     C14065   6.620   4.517   5.591  0.3759  0.5554 -0.0878
  105MOL0     C14066   6.653   4.617   5.684  0.2430 -0.8816  0.4014
  105MOL0     C14067   6.549   4.713   5.708 -0.0538  0.2892 -0.8864
  105MOL0     C14068   6.415   4.709   5.649 -0.7728  1.6095  0.6216
  105MOL0     C14069   6.309   4.799   5.678 -0.3363 -0.1810 -0.5039
  105MOL0     O14070   6.238   4.842   5.570 -0.3643  0.4090  0.0234
  105MOL0     C14071   6.144   4.935   5.600 -0.0859 -1.1945 -0.1214
  105MOL0     C14072   6.159   5.072   5.577 -0.8518  1.0693 -1.2089
  105MOL0     C14073   6.055   5.165   5.584  0.2752  0.0574  0.1112
  105MOL0     C14074   5.926   5.116   5.608 -0.6154  0.9438 -0.3515
  105MOL0     O14075   5.819   5.203   5.602  0.1035 -0.0773 -0.2363
  105MOL0     C14076   5.675   5.154   5.618 -0.3751  0.1057 -0.4451
  105MOL0     C14077   5.588   5.273   5.591 -0.1799  0.7208  0.0285
  105MOL0     C14078   5.605   5.381   5.705  0.0928 -0.4230  0.9917
  105MOL0     C14079   5.548   5.514   5.661 -0.1851 -0.3905 -0.2447
  105MOL0     C14080   5.583   5.643   5.742  0.6689  0.2700  0.7441
  105MOL0     C14081   5.571   5.617   5.891  0.2068 -0.9327  0.0135
  105MOL0     C14082   5.629   5.739   5.970 -0.7460  0.8842  0.1059
  105MOL0     C14083   5.588   5.731   6.106 -0.8005 -1.1074 -0.5079
  105MOL0    Cl14084   5.717   5.846   6.180 -0.2878  0.5840  0.2935
  105MOL0     C14085   5.902   4.981   5.648 -0.5554  0.0055  0.1054
  105MOL0     C14086   6.006   4.894   5.631  0.0010 -0.1310 -0.1905
  105MOL0     O14087   6.299   4.831   5.800  0.4222 -0.7669  0.1540
  105MOL0     C14088   6.400   4.612   5.554  0.3474  0.7123 -0.5970
  105MOL0     C14089   6.497   4.516   5.522  0.1493  0.2018 -0.1144
  105MOL0     N14090   6.901   3.943   5.597  0.5261 -0.4288  0.1185
  105MOL0     N14091   6.921   3.818   5.632  0.3765 -0.1161 -0.2804
  105MOL0     C14092   7.445   3.078   5.607  0.3339 -1.1624  0.4830
  105MOL0     C14093   7.544   3.123   5.688  0.1250 -0.4339 -0.7667
  105MOL0     C14094   7.943   3.128   5.906 -0.6681 -0.1263  0.1409
  105MOL0     C14095   8.042   3.140   5.801  0.1388  0.0947  0.1555
  105MOL0     C14096   8.180   3.166   5.840  0.6234 -0.0259 -0.2290
  105MOL0     C14097   8.206   3.194   5.980  0.5068 -0.6885  1.1487
  105MOL0     O14098   8.330   3.236   6.012 -0.4190 -1.0838 -0.1550
  105MOL0     C14099   8.440   3.181   5.936 -0.1298 -0.4588  0.2302
  105MOL0     C14100   8.571   3.170   6.025 -0.0042 -0.3348  1.1817
  105MOL0     C14101   8.700   3.151   5.938  0.3624 -0.3876 -0.5394
  105MOL0     C14102   8.731   3.256   5.824  0.5795  0.2395  0.7845
  105MOL0     C14103   8.749   3.398   5.863  0.2181  0.8899 -0.0036
  105MOL0     C14104   8.745   3.516   5.893  0.3888  1.1076  0.0269
  105MOL0     C14105   8.104   3.184   6.075 -0.0011  0.3932 -0.1910
  105MOL0     C14106   7.974   3.154   6.046 -0.3015 -0.6664  1.4100
  105MOL0     C14107   7.867   3.162   6.159 -0.0632 -0.8868 -0.0329
  105MOL0     H14108   7.793   2.928   5.582 -0.7185 -0.8106 -0.4165
  105MOL0     H14109   7.606   2.817   5.465 -1.5881 -1.4030  1.2964
  105MOL0     H14110   7.225   2.781   5.454  1.7256 -0.6425  1.4604
  105MOL0     H14111   7.239   2.883   5.597  1.7630  4.0220 -0.2326
  105MOL0     H14112   7.022   2.911   5.451 -0.4026  0.3905  0.5498
  105MOL0     H14113   7.142   2.956   5.323  0.8538  1.1811 -0.0212
  105MOL0     H14114   7.044   3.149   5.383 -2.7509 -2.9552  1.2011
  105MOL0     H14115   7.213   3.157   5.424  0.6750 -1.8947 -1.3828
  105MOL0     H14116   6.970   3.085   5.613 -0.9998  1.6889  2.5136
  105MOL0     H14117   7.137   3.099   5.662  2.4620  1.6917 -2.3194
  105MOL0     H14118   6.939   3.323   5.575  0.8880 -0.4388 -0.0398
  105MOL0     H14119   7.005   3.305   5.738 -1.2098  0.2815  0.2846
  105MOL0     H14120   7.236   3.370   5.661  1.6557  1.9789 -0.0872
  105MOL0     H14121   7.172   3.372   5.490  1.2996 -2.5654  0.5731
  105MOL0     H14122   7.206   3.593   5.589 -2.7677  1.7379 -0.9699
  105MOL0     H14123   7.091   3.556   5.717  4.7569 -0.0449  1.9663
  105MOL0     H14124   7.057   3.599   5.420  0.5845 -1.8059 -0.1544
  105MOL0     H14125   6.913   3.561   5.520  1.5474 -1.7991 -1.9438
  105MOL0     H14126   7.076   3.822   5.344  1.6966 -4.0807  1.0544
  105MOL0     H14127   7.046   4.118   5.370 -1.6931  2.0926 -0.6742
  105MOL0     H14128   6.971   4.010   5.262 -2.2616  1.9118 -0.5407
  105MOL0     H14129   6.832   4.194   5.249 -0.2280  0.7248 -0.6243
  105MOL0     H14130   6.753   4.073   5.336 -0.1131  0.6731 -1.1497
  105MOL0     H14131   6.927   4.308   5.447 -0.4774  1.6151 -0.8683
  105MOL0     H14132   6.825   4.195   5.551 -4.7133  0.4043 -0.7307
  105MOL0     H14133   6.619   4.282   5.447 -1.2074  1.4996  3.4433
  105MOL0     H14134   6.717   4.403   5.369 -3.2010  0.1364 -1.3292
  105MOL0     H14135   6.752   4.635   5.725  0.8325 -0.4492 -1.1327
  105MOL0     H14136   6.580   4.786   5.782  1.9332 -1.0833 -0.3000
  105MOL0     H14137   6.255   5.116   5.553 -0.3391 -0.0846 -1.3126
  105MOL0     H14138   6.081   5.269   5.572 -0.7169  0.3076  0.0476
  105MOL0     H14139   5.650   5.066   5.558 -2.7760  0.4435 -0.0297
  105MOL0     H14140   5.676   5.127   5.724 -0.4271 -0.5179 -0.5971
  105MOL0     H14141   5.608   5.315   5.492 -0.3682 -1.0673 -0.8048
  105MOL0     H14142   5.482   5.246   5.588 -0.8011  2.3019  3.0696
  105MOL0     H14143   5.574   5.343   5.802 -1.2243  2.2025  1.6959
  105MOL0     H14144   5.707   5.420   5.719  0.0939  0.1147 -0.3028
  105MOL0     H14145   5.441   5.496   5.674 -0.0217 -2.8892 -1.7056
  105MOL0     H14146   5.575   5.533   5.557 -1.9370 -0.5818 -0.7756
  105MOL0     H14147   5.507   5.719   5.717  0.9738  0.5075  0.5245
  105MOL0     H14148   5.685   5.675   5.720  1.2763  0.2654  3.3349
  105MOL0     H14149   5.467   5.605   5.922  0.7505  1.8595  3.6336
  105MOL0     H14150   5.620   5.526   5.926  4.7336  0.9206 -0.7137
  105MOL0     H14151   5.593   5.828   5.917  0.5888  1.4017  0.0226
  105MOL0     H14152   5.738   5.733   5.965 -0.7524  1.4138 -3.1171
  105MOL0     H14153   5.485   5.756   6.132 -0.7329  0.8526 -1.8605
  105MOL0     H14154   5.610   5.632   6.146 -0.5212 -0.3933  1.2233
  105MOL0     H14155   5.807   4.950   5.689 -1.0550  1.0718 -0.1926
  105MOL0     H14156   5.997   4.786   5.638 -2.0758  0.0646  1.0285
  105MOL0     H14157   6.307   4.621   5.498 -1.1125 -1.9264  1.2191
  105MOL0     H14158   6.477   4.448   5.439 -1.0279  2.7078 -1.9944
  105MOL0     H14159   7.353   3.134   5.596 -0.2352 -2.2063 -0.2257
  105MOL0     H14160   7.534   3.210   5.752  0.3686  0.5403 -2.0000
  105MOL0     H14161   8.014   3.129   5.697 -1.2068 -1.3896  0.6268
  105MOL0     H14162   8.251   3.179   5.760 -0.2033  0.7754 -0.8448
  105MOL0     H14163   8.472   3.255   5.862 -0.5620 -0.1208  0.3732
  105MOL0     H14164   8.409   3.086   5.892 -1.7819  0.2382 -0.1797
  105MOL0     H14165   8.561   3.095   6.104  4.6046  0.3863  2.7608
  105MOL0     H14166   8.590   3.267   6.074  1.1608 -0.6291  1.3359
  105MOL0     H14167   8.703   3.050   5.895  0.4610  0.2467 -2.1103
  105MOL0     H14168   8.790   3.150   6.000 -0.6283 -0.1540  0.9323
  105MOL0     H14169   8.824   3.224   5.775 -0.7591 -1.5238 -0.7249
  105MOL0     H14170   8.648   3.247   5.754 -0.9207  2.4594  2.1502
  105MOL0     H14171   8.752   3.618   5.926  0.4071 -0.1855  4.6240
  105MOL0     H14172   8.135   3.216   6.174  2.3335  0.0373 -0.7513
  105MOL0     H14173   7.818   3.064   6.167 -0.5719 -0.7217 -0.9198
  105MOL0     H14174   7.915   3.198   6.250  1.2248  1.6392 -1.6147
  105MOL0     H14175   7.791   3.237   6.136  1.3700  0.3031 -1.0949
  106MOL0     O14176   9.201   0.572  10.299  0.2077  0.3857  0.0075
  106MOL0     C14177   9.196   0.508  10.405  0.3649  0.0572  0.0632
  106MOL0     O14178   9.104   0.533  10.504  0.2422 -0.1321  0.4239
  106MOL0     C14179   9.007   0.625  10.483  0.2926 -1.0822 -0.0151
  106MOL0     C14180   8.878   0.585  10.484 -0.4629 -1.0902 -0.1304
  106MOL0     C14181   8.765   0.665  10.466  0.2243 -0.2683 -0.2033
  106MOL0     C14182   8.781   0.800  10.436 -0.6243 -0.6942  0.0299
  106MOL0     O14183   8.679   0.888  10.397  0.2491 -0.2630  0.0401
  106MOL0     C14184   8.670   1.017  10.468  0.1428 -0.2464  0.1319
  106MOL0     C14185   8.559   1.020  10.564  0.0093  0.0877 -0.6099
  106MOL0     C14186   8.424   0.982  10.506  0.3137 -0.7452 -0.0891
  106MOL0     C14187   8.313   0.982  10.619 -0.5181  0.7266  0.0715
  106MOL0     C14188   8.180   0.931  10.553 -1.6408  0.3702  0.4951
  106MOL0     C14189   8.066   0.953  10.649 -0.6976  0.2128  0.1441
  106MOL0     C14190   7.935   0.879  10.613 -0.0290  0.0175 -0.3166
  106MOL0     C14191   7.819   0.922  10.707 -1.1632 -0.3897 -0.5112
  106MOL0     N14192   7.759   1.061  10.672 -0.1864  0.0533  0.4514
  106MOL0     C14193   7.700   1.140  10.772 -0.8311 -0.2153  1.1157
  106MOL0     C14194   7.659   1.253  10.701  0.1108  0.4936  0.5911
  106MOL0     C14195   7.592   1.381  10.752  0.4268  0.6755 -0.0427
  106MOL0     C14196   7.684   1.496  10.777 -0.2755  0.1721 -0.5150
  106MOL0     C14197   7.783   1.527  10.654  0.8045 -0.0188  0.4164
  106MOL0     C14198   7.917   1.459  10.636 -0.5281 -0.1276  0.7046
  106MOL0     O14199   8.008   1.515  10.736 -0.4319  0.4241 -1.4682
  106MOL0     C14200   8.143   1.503  10.719 -0.6635  0.9576 -0.2218
  106MOL0     C14201   8.200   1.408  10.625 -0.2200  0.1495  0.1656
  106MOL0     C14202   8.339   1.397  10.617  0.1779 -0.3709  0.8699
  106MOL0     C14203   8.426   1.477  10.698 -0.3443  0.0959  0.0558
  106MOL0     C14204   8.576   1.465  10.674  1.0984  1.1689  0.5319
  106MOL0     O14205   8.621   1.367  10.589 -0.5826  1.0880  0.1529
  106MOL0     C14206   8.758   1.350  10.586  0.2245 -0.1669  0.0767
  106MOL0     C14207   8.828   1.408  10.485 -0.0751  0.7715 -0.0187
  106MOL0     C14208   8.966   1.379  10.471 -0.8631 -0.4238 -0.2215
  106MOL0     C14209   9.031   1.297  10.562 -0.0490  0.1794  0.1782
  106MOL0     O14210   9.163   1.263  10.556 -0.2383 -0.2433  0.1206
  106MOL0     C14211   9.256   1.348  10.493 -0.2640 -0.3536  0.1193
  106MOL0     C14212   9.399   1.300  10.538 -0.3625 -0.3930 -0.0442
  106MOL0     C14213   9.434   1.174  10.453 -0.5968 -0.7047 -0.1061
  106MOL0     C14214   9.572   1.120  10.501 -0.3139  0.4339 -0.1476
  106MOL0     C14215   9.554   1.009  10.603  0.0443  0.3826 -1.8065
  106MOL0     C14216   9.477   0.865  10.573  0.4185  0.6667  0.6027
  106MOL0     C14217   9.497   0.756  10.681 -0.8981 -0.1887 -0.3204
  106MOL0     C14218   9.415   0.632  10.682  1.3567  0.4312 -0.0975
  106MOL0    Cl14219   9.415   0.547  10.837  0.1481  0.3796 -0.2021
  106MOL0     C14220   8.956   1.228  10.658  0.0163  0.3784 -0.5784
  106MOL0     C14221   8.823   1.263  10.674 -1.2538  0.0282  0.4496
  106MOL0     O14222   8.647   1.546  10.717 -0.5006 -1.0496 -0.2434
  106MOL0     C14223   8.366   1.558  10.797  0.0863 -0.5252 -0.1847
  106MOL0     C14224   8.227   1.572  10.806  0.0765 -0.4414 -0.2271
  106MOL0     N14225   7.682   1.232  10.562 -0.0391 -0.4042  0.3693
  106MOL0     N14226   7.746   1.119  10.546  0.4670 -0.3034  0.5088
  106MOL0     C14227   8.915   0.854  10.437 -0.6212 -0.3434  0.0580
  106MOL0     C14228   9.025   0.770  10.459 -0.4967  0.5332  0.1633
  106MOL0     C14229   9.304   0.406  10.417  0.6427 -0.3799 -0.9325
  106MOL0     C14230   9.408   0.405  10.322 -1.8238  0.3548  0.5777
  106MOL0     C14231   9.502   0.296  10.315 -0.1933 -0.4046 -0.5883
  106MOL0     C14232   9.498   0.199  10.418 -0.4175  0.8853 -0.9132
  106MOL0     O14233   9.583   0.096  10.437  0.3692  0.1428 -0.5275
  106MOL0     C14234   9.614   0.025  10.314  0.3288  0.1155  0.5179
  106MOL0     C14235   9.752  -0.030  10.326  0.0735  0.2663 -0.0774
  106MOL0     C14236   9.772  -0.139  10.217  0.1672  0.3945  0.6840
  106MOL0     C14237   9.758  -0.089  10.072  1.1526  0.1143  0.2772
  106MOL0     C14238   9.791  -0.195   9.971  0.0568 -0.0197 -1.0277
  106MOL0     C14239   9.840  -0.270   9.890 -0.9330 -0.7708 -0.9321
  106MOL0     C14240   9.403   0.215  10.521  0.3037 -0.4881  1.3718
  106MOL0     C14241   9.306   0.323  10.529 -0.3235  0.6440  0.3204
  106MOL0     C14242   9.202   0.319  10.645 -0.0664  0.0394  0.5844
  106MOL0     H14243   8.858   0.478  10.494  0.9395 -1.5250 -1.6136
  106MOL0     H14244   8.670   0.613  10.463 -0.3757  0.6399  1.4744
  106MOL0     H14245   8.762   1.039  10.522  0.5614 -0.6053 -0.4202
  106MOL0     H14246   8.652   1.097  10.394  4.5258  1.3658  0.4753
  106MOL0     H14247   8.564   1.112  10.624 -0.7483  0.2746 -0.8267
  106MOL0     H14248   8.595   0.946  10.636 -2.0629  0.6974  1.1599
  106MOL0     H14249   8.425   0.883  10.461 -3.0300 -0.8837 -0.0737
  106MOL0     H14250   8.388   1.054  10.432  0.2494 -0.2690  0.3995
  106MOL0     H14251   8.336   0.908  10.696  1.8342  1.0394 -0.2763
  106MOL0     H14252   8.304   1.082  10.662  4.7246  1.3296  0.4036
  106MOL0     H14253   8.174   0.989  10.460  2.6607  2.6647  1.3811
  106MOL0     H14254   8.185   0.825  10.527  2.0506  1.1522 -3.0263
  106MOL0     H14255   8.092   0.923  10.750  0.4130  2.8975  0.7390
  106MOL0     H14256   8.043   1.060  10.650 -0.1814  0.3302 -0.3830
  106MOL0     H14257   7.956   0.772  10.623 -1.3283 -0.1075  1.5518
  106MOL0     H14258   7.904   0.899  10.510 -0.3628 -3.1817 -0.9333
  106MOL0     H14259   7.733   0.855  10.695 -0.2030 -2.0326  1.2072
  106MOL0     H14260   7.845   0.913  10.812  3.2663 -2.1389 -1.5413
  106MOL0     H14261   7.703   1.140  10.881 -0.6596 -1.4371  1.1270
  106MOL0     H14262   7.510   1.413  10.686  0.0837  2.5430  1.2208
  106MOL0     H14263   7.547   1.356  10.848  2.4250  0.3514  0.8546
  106MOL0     H14264   7.627   1.588  10.798  1.6858  0.9404  2.0194
  106MOL0     H14265   7.736   1.480  10.872  0.7431 -2.5186 -1.4430
  106MOL0     H14266   7.802   1.635  10.659 -1.3533  0.7347 -3.5765
  106MOL0     H14267   7.733   1.512  10.558 -1.2378 -1.5733  1.6432
  106MOL0     H14268   7.947   1.484  10.533 -2.6315 -0.0397  0.0599
  106MOL0     H14269   7.908   1.351  10.638 -1.8614 -0.1587 -2.0827
  106MOL0     H14270   8.134   1.347  10.564  1.2114 -0.5047 -0.7783
  106MOL0     H14271   8.377   1.332  10.538  1.4420  0.4376  0.7828
  106MOL0     H14272   8.785   1.474  10.411  2.5756  1.5113 -0.9755
  106MOL0     H14273   9.012   1.418  10.381 -0.4464  1.0260  0.5877
  106MOL0     H14274   9.256   1.355  10.384  2.4878  0.9707  0.1341
  106MOL0     H14275   9.255   1.452  10.526 -3.2150  0.2716 -1.6083
  106MOL0     H14276   9.472   1.381  10.534 -0.7261 -0.0999 -2.2032
  106MOL0     H14277   9.388   1.263  10.640 -2.0577  1.7544  0.6275
  106MOL0     H14278   9.370   1.086  10.457  0.3100 -1.3918 -0.4701
  106MOL0     H14279   9.442   1.213  10.351 -1.3868  2.2653  0.8737
  106MOL0     H14280   9.640   1.197  10.538  2.3094 -2.4809  1.5103
  106MOL0     H14281   9.623   1.074  10.416  2.9203 -0.3065  2.0301
  106MOL0     H14282   9.504   1.056  10.688  0.1296 -0.0116 -1.5328
  106MOL0     H14283   9.648   0.967  10.640 -0.3826 -0.7252 -1.9320
  106MOL0     H14284   9.371   0.889  10.563  0.6110  1.8478  1.1912
  106MOL0     H14285   9.508   0.819  10.478 -2.1195 -1.0041  0.4781
  106MOL0     H14286   9.486   0.808  10.777  1.5617  1.7402 -0.9949
  106MOL0     H14287   9.600   0.720  10.687 -0.5003  1.1439  3.0897
  106MOL0     H14288   9.311   0.655  10.655  1.4114  0.6134 -0.1451
  106MOL0     H14289   9.457   0.569  10.603  5.8405  1.0799  1.5011
  106MOL0     H14290   8.991   1.159  10.734 -2.0479 -0.2633 -0.1541
  106MOL0     H14291   8.773   1.214  10.758 -1.9045  1.6310  1.0237
  106MOL0     H14292   8.433   1.601  10.872  0.5954 -2.7470  0.7246
  106MOL0     H14293   8.174   1.632  10.879  0.1677 -0.5528 -0.0692
  106MOL0     H14294   8.935   0.958  10.417  3.5331 -0.4653  2.5764
  106MOL0     H14295   9.117   0.824  10.479  1.2680 -1.7897 -1.1657
  106MOL0     H14296   9.423   0.474  10.240  0.5051 -2.7647 -1.8912
  106MOL0     H14297   9.569   0.293  10.230  1.5126  1.6288  0.5788
  106MOL0     H14298   9.607   0.086  10.224  4.3290 -1.2975 -0.9567
  106MOL0     H14299   9.533  -0.048  10.306 -0.2490  0.3268  3.2552
  106MOL0     H14300   9.765  -0.083  10.421  3.4667  0.1726 -0.4897
  106MOL0     H14301   9.840   0.034  10.320  0.7159 -0.0972  3.1631
  106MOL0     H14302   9.700  -0.216  10.246 -0.8296  0.5308 -1.2411
  106MOL0     H14303   9.863  -0.198  10.226 -0.0721 -0.2395 -0.7096
  106MOL0     H14304   9.653  -0.062  10.055 -0.2171 -4.4110  0.0594
  106MOL0     H14305   9.816   0.002  10.054  1.6760 -0.4067 -0.7721
  106MOL0     H14306   9.872  -0.347   9.823  2.6524 -0.0867 -0.1817
  106MOL0     H14307   9.399   0.145  10.604 -0.5202 -1.0069  0.9065
  106MOL0     H14308   9.101   0.319  10.604  1.3356  0.3194 -3.3106
  106MOL0     H14309   9.208   0.226  10.703 -3.4207 -1.2778 -0.9262
  106MOL0     H14310   9.204   0.404  10.714 -0.9504 -0.4224  1.2003
  107MOL0     O14311   7.373   0.750   1.512 -0.0161  0.2143 -0.1499
  107MOL0     C14312   7.366   0.656   1.434  1.0292  0.2558  0.6399
  107MOL0     O14313   7.453   0.622   1.331  0.0596  1.0843  0.1296
  107MOL0     C14314   7.558   0.690   1.312  0.3440 -0.7388 -0.6691
  107MOL0     C14315   7.670   0.618   1.287 -0.0718  0.0118 -0.1549
  107MOL0     C14316   7.794   0.680   1.268 -0.4293  0.4067  0.1043
  107MOL0     C14317   7.808   0.821   1.273 -0.7692  0.8479 -0.0132
  107MOL0     O14318   7.939   0.873   1.262  0.5152  0.2437  1.1641
  107MOL0     C14319   7.962   1.009   1.280  0.1129  0.4976  0.1534
  107MOL0     C14320   8.097   1.036   1.228  0.0800  0.7693  0.4843
  107MOL0     C14321   8.115   1.188   1.210 -0.6160 -0.1048 -0.0441
  107MOL0     C14322   8.257   1.231   1.183  0.3945 -0.0890 -0.5309
  107MOL0     C14323   8.251   1.383   1.173 -0.3429 -0.7723  0.0177
  107MOL0     C14324   8.387   1.448   1.154  0.0252  0.3396  0.1549
  107MOL0     C14325   8.489   1.432   1.272  0.6103 -0.7679  0.8208
  107MOL0     C14326   8.468   1.523   1.385 -0.2719  0.0702 -0.4242
  107MOL0     N14327   8.486   1.669   1.358  0.0190  0.7644 -0.9981
  107MOL0     C14328   8.594   1.743   1.330 -0.6815  0.8998  0.4072
  107MOL0     C14329   8.557   1.868   1.322 -0.2465  0.1935 -0.2373
  107MOL0     C14330   8.649   1.988   1.286 -0.3706 -0.6827 -0.0728
  107MOL0     C14331   8.698   2.066   1.408 -0.0755  0.5596 -0.6079
  107MOL0     C14332   8.801   2.170   1.373  0.1929 -0.1502  0.2807
  107MOL0     C14333   8.939   2.111   1.341  0.3424 -0.5151 -0.8944
  107MOL0     O14334   9.000   2.179   1.231 -0.7380  0.8860  0.1337
  107MOL0     C14335   9.071   2.297   1.269  0.8760  0.8596  0.2182
  107MOL0     C14336   9.118   2.333   1.401  0.1085  0.9801 -0.0409
  107MOL0     C14337   9.200   2.443   1.422  0.2649 -0.0098  0.7631
  107MOL0     C14338   9.257   2.516   1.312 -0.2692 -0.1563  0.5490
  107MOL0     C14339   9.329   2.638   1.327  0.0964 -1.5494 -0.0134
  107MOL0     O14340   9.350   2.732   1.212  0.6572  0.8755  0.0774
  107MOL0     C14341   9.428   2.846   1.231 -0.6447  0.1900 -0.6329
  107MOL0     C14342   9.548   2.842   1.160  0.1369  0.2084  0.0172
  107MOL0     C14343   9.626   2.958   1.170 -0.0857  0.9117  0.4949
  107MOL0     C14344   9.591   3.068   1.253 -0.2094  0.1826  0.2076
  107MOL0     O14345   9.664   3.179   1.270  0.2107 -0.3063  0.3379
  107MOL0     C14346   9.634   3.291   1.187 -0.5637  0.5019 -0.1765
  107MOL0     C14347   9.680   3.418   1.252  0.1940 -0.6966  0.0388
  107MOL0     C14348   9.585   3.473   1.353 -0.2083  0.1555  0.0364
  107MOL0     C14349   9.632   3.613   1.418 -0.1917  0.0477 -0.1076
  107MOL0     C14350   9.501   3.673   1.484  0.0103  0.7114  0.4504
  107MOL0     C14351   9.532   3.813   1.545  0.0603 -0.6092 -0.4129
  107MOL0     C14352   9.409   3.891   1.588  0.2717  0.2737 -0.1961
  107MOL0     C14353   9.300   3.904   1.481  0.3934 -0.0593 -0.1809
  107MOL0    Cl14354   9.168   3.782   1.495 -0.5331  0.3316 -0.0867
  107MOL0     C14355   9.473   3.065   1.319 -1.1810 -0.3099  0.5966
  107MOL0     C14356   9.385   2.958   1.306  0.5642 -0.3262 -1.0785
  107MOL0     O14357   9.374   2.663   1.446 -0.5835 -0.1144  0.3235
  107MOL0     C14358   9.226   2.467   1.182  0.3542  0.0021  1.1406
  107MOL0     C14359   9.128   2.367   1.164  0.6524  0.8856  0.4500
  107MOL0     N14360   8.423   1.879   1.350 -0.5681  0.5178  0.0618
  107MOL0     N14361   8.383   1.762   1.374  0.4852 -0.2876  0.9466
  107MOL0     C14362   7.694   0.892   1.310 -0.3408 -0.0045  0.7637
  107MOL0     C14363   7.573   0.828   1.331 -0.1625  0.6164  0.0570
  107MOL0     C14364   7.254   0.566   1.450  0.2037  0.1225 -0.3175
  107MOL0     C14365   7.253   0.455   1.358  0.4421 -0.3280  0.4761
  107MOL0     C14366   7.148   0.371   1.350  1.2960  0.0811  0.6759
  107MOL0     C14367   7.036   0.394   1.439 -0.7483 -0.2192  0.0167
  107MOL0     O14368   6.927   0.316   1.447  1.1614 -0.9285  0.7450
  107MOL0     C14369   6.909   0.204   1.359  0.4041 -0.9417  0.4858
  107MOL0     C14370   6.761   0.162   1.374 -0.0024  0.9887 -0.3097
  107MOL0     C14371   6.651   0.281   1.371  0.3059  0.4009  0.6129
  107MOL0     C14372   6.513   0.231   1.389 -0.2396 -0.3093  0.4269
  107MOL0     C14373   6.420   0.345   1.386 -0.1858 -0.3341  0.2433
  107MOL0     C14374   6.345   0.442   1.393  0.8182  0.0866 -0.1440
  107MOL0     C14375   7.039   0.487   1.543  1.1441 -0.0326 -0.4503
  107MOL0     C14376   7.144   0.580   1.542 -0.7555 -0.2963  0.5497
  107MOL0     C14377   7.137   0.693   1.646 -0.0721  0.0342 -0.0375
  107MOL0     H14378   7.659   0.510   1.297  0.7390  0.0992  2.2406
  107MOL0     H14379   7.885   0.623   1.251 -0.9948 -0.9154  1.3935
  107MOL0     H14380   7.891   1.069   1.222 -0.1069  1.2760  1.1863
  107MOL0     H14381   7.947   1.035   1.385 -1.0660 -2.7960  0.9206
  107MOL0     H14382   8.106   0.986   1.131  0.8393  2.3017 -0.2731
  107MOL0     H14383   8.168   1.002   1.304 -2.9601 -1.1466  2.7197
  107MOL0     H14384   8.079   1.241   1.299 -0.4756 -0.6034  0.3177
  107MOL0     H14385   8.047   1.218   1.130 -0.2158  2.9338  0.6616
  107MOL0     H14386   8.321   1.192   1.262  0.3562  1.8710  0.5466
  107MOL0     H14387   8.281   1.191   1.084 -2.6652 -0.7423 -1.0919
  107MOL0     H14388   8.198   1.407   1.081 -2.1431  3.2861  1.8457
  107MOL0     H14389   8.206   1.430   1.261 -1.2643 -0.9200 -0.3639
  107MOL0     H14390   8.447   1.398   1.078  0.6100  0.7288  0.3528
  107MOL0     H14391   8.381   1.552   1.118 -2.5190 -0.1824 -1.1862
  107MOL0     H14392   8.589   1.455   1.234 -0.8596  3.1654 -1.2495
  107MOL0     H14393   8.504   1.330   1.309  1.7535 -0.4701  1.2183
  107MOL0     H14394   8.362   1.522   1.412 -0.4336  1.7634 -0.8627
  107MOL0     H14395   8.524   1.491   1.473 -0.6640 -0.0901 -0.2275
  107MOL0     H14396   8.696   1.706   1.322 -0.3056  2.1057 -0.6180
  107MOL0     H14397   8.731   1.954   1.221 -0.8381  0.1187 -1.1107
  107MOL0     H14398   8.591   2.065   1.234  0.9862  0.2526 -0.2751
  107MOL0     H14399   8.611   2.113   1.454 -0.3345 -1.8700  1.6483
  107MOL0     H14400   8.731   1.999   1.488  0.0556 -0.7461 -1.7334
  107MOL0     H14401   8.813   2.232   1.462  1.8615 -0.7131  0.4871
  107MOL0     H14402   8.769   2.229   1.287  2.5113  2.0470  0.7821
  107MOL0     H14403   8.924   2.008   1.306  0.9069 -2.0952  3.0027
  107MOL0     H14404   8.985   2.098   1.439  0.0746  1.7250 -0.4381
  107MOL0     H14405   9.085   2.288   1.494  1.9191  1.2488  0.7680
  107MOL0     H14406   9.238   2.485   1.515  2.3830  1.4939 -0.6643
  107MOL0     H14407   9.563   2.767   1.083 -2.0290  0.5884 -0.8339
  107MOL0     H14408   9.726   2.971   1.129  0.1009 -3.9280 -1.3384
  107MOL0     H14409   9.697   3.270   1.099  0.3737 -1.4933  0.9005
  107MOL0     H14410   9.530   3.307   1.156  0.6141  3.4724 -3.3332
  107MOL0     H14411   9.779   3.405   1.297  1.0191  0.2616 -1.4337
  107MOL0     H14412   9.701   3.499   1.182  0.2399 -1.1985 -0.5359
  107MOL0     H14413   9.496   3.491   1.292 -0.4835 -0.6340  0.1925
  107MOL0     H14414   9.562   3.403   1.434 -2.7430  1.3441  0.4575
  107MOL0     H14415   9.676   3.676   1.339  0.9033  0.5678  0.8823
  107MOL0     H14416   9.712   3.605   1.492 -0.4555  0.4068  0.2186
  107MOL0     H14417   9.467   3.612   1.568  1.8118 -1.3537 -0.2508
  107MOL0     H14418   9.420   3.678   1.411 -0.3151 -1.2770  0.6220
  107MOL0     H14419   9.598   3.804   1.632 -0.6383 -5.8658 -0.1117
  107MOL0     H14420   9.577   3.881   1.472  0.2651 -1.0475 -0.6928
  107MOL0     H14421   9.446   3.990   1.616  2.1210 -0.9283  1.8738
  107MOL0     H14422   9.370   3.852   1.683  1.5102  0.7608  0.5342
  107MOL0     H14423   9.253   4.002   1.486  0.6741  0.1879 -1.9173
  107MOL0     H14424   9.341   3.892   1.381  4.0819 -1.2594  1.2826
  107MOL0     H14425   9.449   3.154   1.376  0.3820  2.4999 -2.7492
  107MOL0     H14426   9.286   2.966   1.350  0.1553  1.7835 -2.2539
  107MOL0     H14427   9.266   2.513   1.093  0.3271  1.0174  1.6317
  107MOL0     H14428   9.099   2.340   1.063 -1.1483  2.3794  0.5237
  107MOL0     H14429   7.698   1.000   1.300 -3.8070  0.1597 -0.4078
  107MOL0     H14430   7.477   0.876   1.338 -0.6887 -0.4990  0.7551
  107MOL0     H14431   7.330   0.426   1.288 -1.6270 -4.5877 -0.3633
  107MOL0     H14432   7.154   0.287   1.281  0.5639 -0.9400  1.7939
  107MOL0     H14433   6.979   0.124   1.387  1.5579 -0.1849 -0.1620
  107MOL0     H14434   6.933   0.224   1.254  1.5488 -2.9369  0.3152
  107MOL0     H14435   6.760   0.109   1.470  0.7357  1.0032 -0.2870
  107MOL0     H14436   6.749   0.090   1.293 -1.0284  0.7810  0.0128
  107MOL0     H14437   6.672   0.317   1.270  0.1751  0.4778  0.6129
  107MOL0     H14438   6.658   0.359   1.448 -0.6418 -1.5802  2.8611
  107MOL0     H14439   6.483   0.156   1.315  0.0065 -1.1432  1.1453
  107MOL0     H14440   6.514   0.189   1.491  1.5290 -1.2761  0.0596
  107MOL0     H14441   6.283   0.528   1.380 -0.6355 -0.7954  0.6517
  107MOL0     H14442   6.953   0.500   1.608  2.0736  0.1576  0.7677
  107MOL0     H14443   7.056   0.694   1.721  1.2096  0.6655  1.3938
  107MOL0     H14444   7.225   0.685   1.710  0.6910  0.9815 -0.9350
  107MOL0     H14445   7.128   0.791   1.598  1.3957  0.0564 -0.3002
  108MOL0     O14446  11.046   5.121   9.622 -0.2563  0.1780  0.3370
  108MOL0     C14447  10.930   5.079   9.608 -0.4786  0.0026  0.9130
  108MOL0     O14448  10.900   4.957   9.550 -0.5758 -0.2544 -0.1453
  108MOL0     C14449  11.006   4.885   9.490 -0.5740 -0.4143  0.7788
  108MOL0     C14450  10.986   4.847   9.357  0.9487  0.4490  0.0921
  108MOL0     C14451  11.082   4.782   9.275 -0.4159  0.3758 -1.0423
  108MOL0     C14452  11.204   4.748   9.335  0.7564  0.0112  0.3579
  108MOL0     O14453  11.298   4.688   9.255 -0.2883 -0.7478 -0.7182
  108MOL0     C14454  11.398   4.589   9.301  1.0835  0.4217 -1.0304
  108MOL0     C14455  11.522   4.661   9.267  0.0715  0.0036  1.0186
  108MOL0     C14456  11.562   4.797   9.342 -0.4498  0.1458  0.4125
  108MOL0     C14457  11.606   4.770   9.485  0.4604  0.1229  0.0635
  108MOL0     C14458  11.607   4.908   9.549  0.0428 -0.5644 -0.1381
  108MOL0     C14459  11.665   4.895   9.695  0.5773  0.9701  0.3422
  108MOL0     C14460  11.638   5.029   9.755 -0.7009  0.4689  0.1117
  108MOL0     C14461  11.626   5.045   9.904  0.5070 -0.3419 -0.0378
  108MOL0     N14462  11.762   5.060   9.956  0.1702 -0.4596 -0.1148
  108MOL0     C14463  11.832   5.176   9.960  0.5614  0.0207 -0.5324
  108MOL0     C14464  11.955   5.135  10.001  0.2195 -0.7045 -0.2681
  108MOL0     C14465  12.083   5.220   9.996  0.3653  0.6559  0.5079
  108MOL0     C14466  12.069   5.367  10.045  0.3280 -0.0377 -0.3031
  108MOL0     C14467  12.053   5.368  10.201 -0.2566 -1.2088  0.4261
  108MOL0     C14468  12.060   5.513  10.245 -0.2228  0.2217  0.2650
  108MOL0     O14469  12.017   5.514  10.380  0.1118  0.1004  0.0169
  108MOL0     C14470  12.041   5.622  10.458  0.4146  0.6081  0.3631
  108MOL0     C14471  12.041   5.753  10.415  0.8949  0.5387 -0.7176
  108MOL0     C14472  12.066   5.846  10.514 -0.1152 -0.2150 -0.2714
  108MOL0     C14473  12.087   5.821  10.652  0.3547  0.3530  0.5207
  108MOL0     C14474  12.124   5.930  10.744  0.5241  0.3441 -0.0178
  108MOL0     O14475  12.140   5.896  10.876 -0.3119  0.1944 -0.2263
  108MOL0     C14476  12.168   5.999  10.971  0.4624  0.1379  0.1660
  108MOL0     C14477  12.084   6.028  11.078 -0.4271 -0.0057 -0.2247
  108MOL0     C14478  12.114   6.119  11.184 -0.0748  0.5495  0.6203
  108MOL0     C14479  12.250   6.174  11.183 -0.8609 -0.0916  0.0608
  108MOL0     O14480  12.280   6.263  11.286 -0.1240 -0.3938 -0.5030
  108MOL0     C14481  12.371   6.366  11.264  1.3111  0.2065  0.4421
  108MOL0     C14482  12.337   6.487  11.361 -0.3269 -0.0560 -1.1316
  108MOL0     C14483  12.452   6.587  11.349 -1.0077 -0.0252 -0.0015
  108MOL0     C14484  12.408   6.725  11.285  0.1624  0.4788  0.2768
  108MOL0     C14485  12.533   6.800  11.231 -0.1490 -0.7417 -0.0915
  108MOL0     C14486  12.481   6.938  11.174  0.4303  1.1110 -0.2636
  108MOL0     C14487  12.570   6.992  11.064  0.3080 -0.2751  0.0665
  108MOL0     C14488  12.555   7.134  11.035  0.7173  0.0342 -0.3819
  108MOL0    Cl14489  12.653   7.189  10.911  0.1531 -0.2842 -0.0007
  108MOL0     C14490  12.340   6.147  11.072  0.8683 -0.0296  0.8376
  108MOL0     C14491  12.295   6.059  10.970 -0.8355 -1.2131  0.9292
  108MOL0     O14492  12.121   6.048  10.706 -0.2925 -0.0416 -0.0111
  108MOL0     C14493  12.080   5.687  10.698  0.9711  0.6536  0.7997
  108MOL0     C14494  12.055   5.589  10.600 -0.6418  0.0037  0.0782
  108MOL0     N14495  11.951   5.005  10.044  0.3602 -0.3900 -0.1681
  108MOL0     N14496  11.835   4.957  10.012  1.0086 -0.0565  0.2154
  108MOL0     C14497  11.229   4.794   9.467  0.1489  0.0584 -0.9570
  108MOL0     C14498  11.129   4.861   9.541  0.8233  0.7860  0.7745
  108MOL0     C14499  10.829   5.191   9.655 -0.7282 -0.2153 -0.2120
  108MOL0     C14500  10.873   5.322   9.671 -0.5699  0.1171 -0.0852
  108MOL0     C14501  10.779   5.417   9.702 -0.6046  0.4517 -0.1937
  108MOL0     C14502  10.641   5.384   9.707 -1.4913  1.1790  0.3355
  108MOL0     O14503  10.546   5.491   9.703 -0.5420  0.1029 -0.3852
  108MOL0     C14504  10.587   5.637   9.687  0.0841  0.2465  0.9481
  108MOL0     C14505  10.449   5.706   9.654 -0.4363  0.2209  0.2772
  108MOL0     C14506  10.473   5.855   9.619  0.8459 -0.1748 -0.6189
  108MOL0     C14507  10.553   5.883   9.486 -0.5476  0.9811  0.1817
  108MOL0     C14508  10.694   5.872   9.522 -0.6439  0.4896  0.6654
  108MOL0     C14509  10.813   5.868   9.563  0.1566  0.4506  0.1163
  108MOL0     C14510  10.601   5.250   9.701 -0.3907  0.7139 -0.5807
  108MOL0     C14511  10.693   5.147   9.692  0.4887 -0.6493  0.5318
  108MOL0     C14512  10.653   5.006   9.717 -0.7444 -0.6746  0.2375
  108MOL0     H14513  10.892   4.875   9.310 -0.8019  0.0667  3.0639
  108MOL0     H14514  11.072   4.742   9.174  1.2229 -2.1428 -0.3048
  108MOL0     H14515  11.386   4.561   9.406  2.2585 -1.8657 -1.4510
  108MOL0     H14516  11.378   4.497   9.245  4.0909 -0.7940 -0.2742
  108MOL0     H14517  11.508   4.687   9.162  2.0688  1.4449  1.0475
  108MOL0     H14518  11.608   4.596   9.283  1.8188  2.0669  0.3844
  108MOL0     H14519  11.474   4.863   9.342  1.1112  2.3599  0.3568
  108MOL0     H14520  11.639   4.862   9.299 -0.2667  2.3987  3.6962
  108MOL0     H14521  11.554   4.695   9.545  1.3229 -0.2418  0.3719
  108MOL0     H14522  11.704   4.724   9.474  0.2788 -0.2793  0.1117
  108MOL0     H14523  11.683   4.970   9.502  3.7775 -2.6060  2.6825
  108MOL0     H14524  11.509   4.958   9.547 -0.0025 -0.6232 -2.9827
  108MOL0     H14525  11.610   4.817   9.748 -0.4640  2.6317  1.8571
  108MOL0     H14526  11.770   4.868   9.689  0.5048  0.3204  1.5883
  108MOL0     H14527  11.535   5.049   9.724 -0.7714 -0.8535 -0.5726
  108MOL0     H14528  11.709   5.101   9.712  1.6060  0.8418  4.1136
  108MOL0     H14529  11.556   5.122   9.938 -1.1358 -2.8881  2.9517
  108MOL0     H14530  11.570   4.964   9.951  0.4109  1.6051  3.6385
  108MOL0     H14531  11.808   5.280   9.940 -1.7540 -0.1170  1.0085
  108MOL0     H14532  12.142   5.171  10.075  0.3432  2.1410  1.4752
  108MOL0     H14533  12.133   5.204   9.900 -1.9658 -1.4165 -0.4709
  108MOL0     H14534  12.167   5.414  10.032 -0.1964  1.3306  0.3978
  108MOL0     H14535  11.985   5.409   9.989 -0.5992 -0.4313  0.7555
  108MOL0     H14536  12.136   5.321  10.255  1.8370  1.3972 -0.3299
  108MOL0     H14537  11.960   5.319  10.231 -0.1563 -2.5700 -1.3028
  108MOL0     H14538  11.996   5.582  10.189 -0.4397  0.1555  0.4266
  108MOL0     H14539  12.166   5.539  10.251 -0.5242  3.0428 -3.4171
  108MOL0     H14540  12.026   5.781  10.311 -1.1316  1.1585 -0.2972
  108MOL0     H14541  12.077   5.951  10.493 -1.9835  0.5831  2.2275
  108MOL0     H14542  11.992   5.969  11.076 -0.4728  0.0360  0.6729
  108MOL0     H14543  12.043   6.139  11.263 -0.6105 -0.2181  0.3484
  108MOL0     H14544  12.472   6.331  11.288  0.9388  0.6861  3.0850
  108MOL0     H14545  12.356   6.401  11.162 -4.3756 -3.0062 -0.2592
  108MOL0     H14546  12.242   6.534  11.332 -0.3040  1.0883  0.5274
  108MOL0     H14547  12.314   6.452  11.462 -0.0701  0.6896 -0.8069
  108MOL0     H14548  12.490   6.608  11.449  4.7186  0.3868 -1.8721
  108MOL0     H14549  12.534   6.535  11.299  0.1874  0.8230  1.0128
  108MOL0     H14550  12.365   6.782  11.369 -1.0842  3.0364 -1.9395
  108MOL0     H14551  12.346   6.705  11.197  3.7982 -1.3578 -2.1050
  108MOL0     H14552  12.582   6.735  11.158 -0.4560 -1.1719  0.0791
  108MOL0     H14553  12.612   6.817  11.304  2.0204  1.0995 -2.6710
  108MOL0     H14554  12.380   6.925  11.135 -0.7867  1.6779  2.4422
  108MOL0     H14555  12.470   7.010  11.256 -1.3573  1.4459 -0.7620
  108MOL0     H14556  12.551   6.937  10.971 -2.0973  0.4679  0.0350
  108MOL0     H14557  12.675   6.978  11.090  0.8907  1.4503 -1.1533
  108MOL0     H14558  12.457   7.174  11.011 -0.4177 -2.7006 -0.6529
  108MOL0     H14559  12.583   7.168  11.136  0.4567 -1.0993  0.0963
  108MOL0     H14560  12.441   6.187  11.068  1.4962 -1.6043 -1.9996
  108MOL0     H14561  12.375   6.035  10.900 -1.3913 -1.2266  0.2858
  108MOL0     H14562  12.090   5.669  10.805 -1.3142  2.2975  1.3820
  108MOL0     H14563  12.034   5.485  10.623  0.9228 -0.0515  1.5013
  108MOL0     H14564  11.324   4.781   9.518 -0.4925 -0.3147  0.1852
  108MOL0     H14565  11.163   4.922   9.624  0.9833 -0.6070  1.7850
  108MOL0     H14566  10.967   5.362   9.636 -1.2050  1.3502 -0.4467
  108MOL0     H14567  10.821   5.512   9.733 -0.4362 -0.1414  1.5161
  108MOL0     H14568  10.658   5.640   9.604 -1.4457 -1.9428 -0.5585
  108MOL0     H14569  10.635   5.681   9.775 -1.5766  3.4070  0.4461
  108MOL0     H14570  10.386   5.693   9.742 -0.2652 -1.4991  0.1837
  108MOL0     H14571  10.403   5.664   9.564  2.4001  1.3481 -1.8716
  108MOL0     H14572  10.524   5.909   9.699 -0.1136 -1.0258  0.6018
  108MOL0     H14573  10.372   5.896   9.608 -0.7459 -3.0932  1.8195
  108MOL0     H14574  10.526   5.810   9.409 -0.9698  1.8352 -0.4929
  108MOL0     H14575  10.540   5.987   9.456  2.1021  0.9919 -1.2699
  108MOL0     H14576  10.904   5.844   9.614  1.2638 -0.9123 -2.3006
  108MOL0     H14577  10.500   5.211   9.713  0.3574 -2.5085 -3.2168
  108MOL0     H14578  10.635   4.949   9.626 -1.2378 -2.8005  1.6112
  108MOL0     H14579  10.740   4.956   9.761 -0.7910 -1.6520 -0.7645
  108MOL0     H14580  10.565   4.996   9.781 -1.2513  0.4733 -0.2575
  109MOL0     O14581   0.372   9.991  11.371  0.1186  0.8763 -0.6786
  109MOL0     C14582   0.378  10.002  11.491  0.2421  0.3419  0.1902
  109MOL0     O14583   0.493  10.016  11.566  0.4025 -0.7722 -1.0362
  109MOL0     C14584   0.620  10.032  11.512  1.0169 -0.2638 -0.1995
  109MOL0     C14585   0.723  10.028  11.603 -0.0883 -0.8185  0.6819
  109MOL0     C14586   0.855  10.044  11.567 -0.6751  0.0834  0.0203
  109MOL0     C14587   0.892  10.058  11.438 -0.0558  0.0433 -0.5679
  109MOL0     O14588   1.027  10.060  11.412  0.0197 -0.5961  0.7279
  109MOL0     C14589   1.131  10.004  11.507 -0.3008 -0.5120  0.8151
  109MOL0     C14590   1.267  10.012  11.429  0.7625  0.7525 -0.6367
  109MOL0     C14591   1.383   9.947  11.511  0.1293  0.5326  0.1933
  109MOL0     C14592   1.524   9.950  11.436  0.2845 -0.3730 -0.0559
  109MOL0     C14593   1.633   9.862  11.490 -0.3478  0.7639  0.2789
  109MOL0     C14594   1.745   9.837  11.387 -0.2395 -1.0173  0.3914
  109MOL0     C14595   1.874   9.787  11.459  0.2239 -0.4094  0.8572
  109MOL0     C14596   1.954   9.892  11.532 -0.1327 -0.3535  0.5446
  109MOL0     N14597   2.069   9.833  11.590 -0.6673  0.1266  0.6675
  109MOL0     C14598   2.071   9.762  11.712 -0.3929  0.6610  0.6010
  109MOL0     C14599   2.205   9.728  11.730  0.6376  0.2140 -0.2378
  109MOL0     C14600   2.261   9.668  11.858  0.4827  0.6170  0.1930
  109MOL0     C14601   2.373   9.563  11.815  0.2652  0.1194 -0.0624
  109MOL0     C14602   2.437   9.509  11.943  0.3929  0.8735  0.5294
  109MOL0     C14603   2.548   9.407  11.899  0.1457 -0.2569 -0.4378
  109MOL0     O14604   2.668   9.480  11.875  0.8254  0.7354 -1.0935
  109MOL0     C14605   2.787   9.402  11.866  0.4988  0.3530 -0.0334
  109MOL0     C14606   2.807   9.277  11.807 -0.3619  0.5435  0.1189
  109MOL0     C14607   2.934   9.221  11.799  0.5722 -0.3320 -0.7824
  109MOL0     C14608   3.039   9.271  11.865  0.2732 -0.7888 -0.3643
  109MOL0     C14609   3.168   9.197  11.875 -0.1512  0.7540 -0.3670
  109MOL0     O14610   3.235   9.239  11.986 -0.2105  0.7022 -1.0503
  109MOL0     C14611   3.358   9.171  12.008 -0.5234 -0.2048  0.0882
  109MOL0     C14612   3.366   9.044  12.061  0.3227 -0.1931 -0.3799
  109MOL0     C14613   3.484   8.971  12.044  0.5797  0.4334 -0.6513
  109MOL0     C14614   3.596   9.030  11.982 -0.3815 -0.0754  0.6386
  109MOL0     O14615   3.718   8.971  11.967  0.2879 -0.2992  0.1245
  109MOL0     C14616   3.735   8.834  11.952 -0.5369 -0.0509 -0.3761
  109MOL0     C14617   3.879   8.789  11.912 -0.3018  0.2168  0.6278
  109MOL0     C14618   3.929   8.821  11.772 -0.3664 -0.0132 -0.1970
  109MOL0     C14619   4.076   8.764  11.737  0.0236 -0.2174 -0.7976
  109MOL0     C14620   4.099   8.807  11.587  0.2363  0.4776  0.5072
  109MOL0     C14621   4.220   8.744  11.524  0.5482  0.0743  0.7581
  109MOL0     C14622   4.228   8.767  11.377  0.3113 -0.6544  0.1873
  109MOL0     C14623   4.363   8.706  11.319  1.5882 -0.0378 -0.5931
  109MOL0    Cl14624   4.499   8.793  11.391  0.1174  0.0156 -0.3976
  109MOL0     C14625   3.583   9.159  11.934 -0.4903  0.2311  0.7534
  109MOL0     C14626   3.472   9.230  11.949  1.0487 -0.5562  0.3104
  109MOL0     O14627   3.202   9.100  11.810 -0.1498  0.4431 -0.7037
  109MOL0     C14628   3.028   9.399  11.918 -0.0769 -1.3136 -0.2724
  109MOL0     C14629   2.905   9.465  11.918 -0.3097  0.2224 -0.3800
  109MOL0     N14630   2.275   9.777  11.619  0.1161 -0.3211 -0.1893
  109MOL0     N14631   2.197   9.836  11.533 -0.1423  0.4094 -0.0254
  109MOL0     C14632   0.792  10.074  11.346 -0.1463 -0.1280  0.6536
  109MOL0     C14633   0.654  10.054  11.381 -0.7827  0.5109  0.9617
  109MOL0     C14634   0.250   9.986  11.561  0.2816  0.1615 -0.1081
  109MOL0     C14635   0.145   9.923  11.485 -1.3840 -0.0050 -0.5610
  109MOL0     C14636   0.015   9.907  11.539 -0.2872  0.0478  0.5784
  109MOL0     C14637  -0.008   9.953  11.669  0.3660  0.9528  0.8651
  109MOL0     O14638  -0.133   9.939  11.729 -0.0375 -0.4425 -0.6322
  109MOL0     C14639  -0.244   9.867  11.667  1.1788  1.0113  0.1272
  109MOL0     C14640  -0.352   9.866  11.777  0.7233 -0.4481  0.2814
  109MOL0     C14641  -0.310   9.809  11.911  0.2567  0.0092 -2.0939
  109MOL0     C14642  -0.252   9.667  11.909 -0.0774 -0.2811  0.4037
  109MOL0     C14643  -0.355   9.586  11.866  0.2846  0.9319 -0.3240
  109MOL0     C14644  -0.445   9.526  11.818  0.1995  0.5170 -1.1386
  109MOL0     C14645   0.091   9.999  11.748 -0.2590  0.9372 -0.1793
  109MOL0     C14646   0.222  10.025  11.696  0.6195 -0.4972  0.1421
  109MOL0     C14647   0.321  10.084  11.790  0.1283  0.1652  0.0345
  109MOL0     H14648   0.695  10.015  11.707  0.5718 -0.5948  0.8950
  109MOL0     H14649   0.928  10.053  11.646 -0.1690  1.1086 -0.5430
  109MOL0     H14650   1.142  10.055  11.604 -3.1422 -0.8844  1.4245
  109MOL0     H14651   1.108   9.899  11.529  4.0614 -1.5651  1.2515
  109MOL0     H14652   1.292  10.115  11.404  3.0593 -0.0967 -2.2946
  109MOL0     H14653   1.255   9.955  11.336  2.0991 -2.7670  1.1442
  109MOL0     H14654   1.361   9.842  11.530  1.8835  0.5186  2.6783
  109MOL0     H14655   1.391  10.000  11.607 -2.7345  2.6996 -0.6290
  109MOL0     H14656   1.502   9.942  11.329  1.9660  0.5552 -0.5092
  109MOL0     H14657   1.563  10.051  11.450 -1.7143  0.4657 -0.1624
  109MOL0     H14658   1.680   9.919  11.570 -1.6452  0.4892  1.2815
  109MOL0     H14659   1.592   9.767  11.524  0.3762 -0.0905 -1.1439
  109MOL0     H14660   1.719   9.761  11.313 -4.6524 -2.1449  2.7106
  109MOL0     H14661   1.767   9.934  11.342  1.0994 -0.6145  1.7954
  109MOL0     H14662   1.932   9.730  11.386  0.3879  1.1638 -0.2936
  109MOL0     H14663   1.823   9.716  11.525  1.6658  0.8558  3.4940
  109MOL0     H14664   1.986   9.975  11.469 -0.6712 -0.0714  0.6376
  109MOL0     H14665   1.894   9.949  11.604 -1.9963  1.3418 -2.1646
  109MOL0     H14666   1.993   9.741  11.785  1.0614 -3.8496  1.1281
  109MOL0     H14667   2.286   9.744  11.932 -2.9876  0.2414  1.9233
  109MOL0     H14668   2.174   9.628  11.910  0.2937  0.0844 -0.5121
  109MOL0     H14669   2.330   9.484  11.752  1.2860  1.3164 -2.3813
  109MOL0     H14670   2.453   9.614  11.761  0.7055 -1.1744 -0.6846
  109MOL0     H14671   2.360   9.463  12.005 -0.1870  1.9365  0.6065
  109MOL0     H14672   2.477   9.588  12.007  0.1379  0.2126  1.5147
  109MOL0     H14673   2.529   9.360  11.802 -2.1597 -2.2807  0.8769
  109MOL0     H14674   2.562   9.328  11.974  0.7910 -0.3232 -0.6228
  109MOL0     H14675   2.730   9.224  11.751 -0.9418 -0.3404  1.7029
  109MOL0     H14676   2.943   9.123  11.753 -1.6201 -2.0011  1.9270
  109MOL0     H14677   3.274   9.020  12.114  0.6425  0.4650  0.5028
  109MOL0     H14678   3.481   8.867  12.075 -0.9398  0.6597 -0.0026
  109MOL0     H14679   3.718   8.776  12.043  3.7651 -0.8194  0.1661
  109MOL0     H14680   3.662   8.793  11.881  1.2281  1.1857 -3.0523
  109MOL0     H14681   3.946   8.827  11.990 -0.1639 -3.3582  2.4811
  109MOL0     H14682   3.871   8.681  11.926 -2.3132  0.4559  1.7901
  109MOL0     H14683   3.853   8.788  11.701 -0.4882 -1.0527  0.4018
  109MOL0     H14684   3.924   8.930  11.760  0.1780 -0.0259 -0.5283
  109MOL0     H14685   4.068   8.656  11.753 -2.1804 -0.1305 -0.9704
  109MOL0     H14686   4.156   8.790  11.807 -0.4451 -1.0824  0.1050
  109MOL0     H14687   4.095   8.916  11.581 -0.4668  0.7567  3.7922
  109MOL0     H14688   4.007   8.779  11.534 -1.9980  3.4798  2.4262
  109MOL0     H14689   4.310   8.781  11.573  0.8076 -0.6264  0.8196
  109MOL0     H14690   4.208   8.638  11.548  1.2666  0.5576  3.5612
  109MOL0     H14691   4.235   8.875  11.358  3.4216 -0.5676  1.1740
  109MOL0     H14692   4.142   8.725  11.326  2.0137 -1.8685 -1.8406
  109MOL0     H14693   4.373   8.600  11.343 -0.5656 -0.5590 -1.7108
  109MOL0     H14694   4.372   8.706  11.210 -1.0135  2.8619 -0.9552
  109MOL0     H14695   3.660   9.212  11.878 -1.8324  1.9299  0.4013
  109MOL0     H14696   3.479   9.331  11.910  3.6969 -0.8465 -0.1612
  109MOL0     H14697   3.114   9.451  11.959 -1.3208  2.4442 -1.9807
  109MOL0     H14698   2.890   9.561  11.967  0.3199  0.7042 -1.1065
  109MOL0     H14699   0.834  10.106  11.252  0.7262 -1.6028  0.5079
  109MOL0     H14700   0.583  10.066  11.300  0.5619 -0.0779 -0.3287
  109MOL0     H14701   0.162   9.879  11.387 -1.7878 -2.2706  0.3195
  109MOL0     H14702  -0.047   9.840  11.479  1.0840 -1.6295  0.9516
  109MOL0     H14703  -0.232   9.760  11.646 -4.7735 -0.7018  3.1494
  109MOL0     H14704  -0.277   9.918  11.576  0.8909 -1.7163 -1.3949
  109MOL0     H14705  -0.430   9.799  11.738 -0.6655  1.7331 -0.9265
  109MOL0     H14706  -0.397   9.966  11.773  2.2555  0.3081 -4.4404
  109MOL0     H14707  -0.390   9.826  11.984  0.3584  0.9389 -2.1886
  109MOL0     H14708  -0.224   9.864  11.952 -0.8535  0.2592  0.0513
  109MOL0     H14709  -0.169   9.651  11.839 -1.0572 -1.0513 -0.6179
  109MOL0     H14710  -0.240   9.635  12.012 -2.5155  0.2998  0.9410
  109MOL0     H14711  -0.513   9.456  11.773 -2.9854 -0.6482  4.5450
  109MOL0     H14712   0.067  10.030  11.849  0.1321  3.5461 -0.8162
  109MOL0     H14713   0.286  10.132  11.882 -1.3607 -0.8012  0.0150
  109MOL0     H14714   0.382  10.005  11.834  0.4862  0.2751 -0.2651
  109MOL0     H14715   0.388  10.156  11.741  3.6175 -2.3451  0.7882
  110MOL0     O14716   7.491   2.507   5.208  0.0349 -0.2957  0.9690
  110MOL0     C14717   7.390   2.475   5.275 -0.8710 -0.0886 -0.4008
  110MOL0     O14718   7.381   2.370   5.350  0.2260  0.9425  0.0049
  110MOL0     C14719   7.490   2.290   5.361 -0.4025  0.0522 -0.1288
  110MOL0     C14720   7.613   2.335   5.418 -0.9246  0.3658 -0.3131
  110MOL0     C14721   7.727   2.248   5.421  0.5167 -0.3039 -0.6009
  110MOL0     C14722   7.720   2.114   5.378 -0.0634 -0.9541 -1.2254
  110MOL0     O14723   7.828   2.037   5.407  0.5882  0.3732  0.3296
  110MOL0     C14724   7.860   1.931   5.303 -0.1009  1.0935 -0.1267
  110MOL0     C14725   7.981   1.858   5.347 -0.4963  0.0952 -0.2978
  110MOL0     C14726   8.095   1.945   5.366 -0.5709 -0.3668  0.3025
  110MOL0     C14727   8.208   1.860   5.416  0.0790  0.5033  0.2131
  110MOL0     C14728   8.328   1.942   5.439 -0.0890 -0.6371 -0.3960
  110MOL0     C14729   8.446   1.854   5.494  0.7477  0.2026  0.4481
  110MOL0     C14730   8.406   1.771   5.628  0.2148  0.4704  0.2080
  110MOL0     C14731   8.530   1.688   5.683 -0.1434  0.7944 -0.1382
  110MOL0     N14732   8.620   1.781   5.744 -0.1383 -0.7767 -0.0732
  110MOL0     C14733   8.584   1.855   5.859 -0.2324  0.1706  0.0368
  110MOL0     C14734   8.686   1.936   5.879  0.8689 -0.9203 -0.0122
  110MOL0     C14735   8.686   2.048   5.989 -0.2891  0.9320  0.8844
  110MOL0     C14736   8.776   2.002   6.114  0.4046 -0.2246  0.3209
  110MOL0     C14737   8.714   1.881   6.193  0.5380 -0.3919 -0.4028
  110MOL0     C14738   8.727   1.884   6.350  0.1372 -1.3141  0.2411
  110MOL0     O14739   8.629   1.797   6.395 -0.7448  0.3690 -0.4113
  110MOL0     C14740   8.606   1.803   6.532 -0.3620  0.9164  0.2906
  110MOL0     C14741   8.654   1.693   6.617  1.1044 -0.3056  0.0347
  110MOL0     C14742   8.644   1.692   6.757 -0.5122 -0.3026  0.1917
  110MOL0     C14743   8.578   1.804   6.819  0.0277 -0.2362 -0.3556
  110MOL0     C14744   8.560   1.815   6.965  0.9819  0.0042  0.0175
  110MOL0     O14745   8.625   1.718   7.041  0.2101 -0.8468  0.0346
  110MOL0     C14746   8.646   1.729   7.176 -0.3157  0.6365 -0.2027
  110MOL0     C14747   8.700   1.849   7.224  0.2738  0.4862 -0.0381
  110MOL0     C14748   8.713   1.866   7.368 -0.4172 -0.1179  0.1058
  110MOL0     C14749   8.667   1.769   7.462 -0.5181 -0.2017 -0.4142
  110MOL0     O14750   8.668   1.809   7.591 -0.0693 -0.2662 -0.0992
  110MOL0     C14751   8.680   1.717   7.695 -0.5870  0.5516 -0.1806
  110MOL0     C14752   8.764   1.766   7.811  0.1817  1.0056 -1.2020
  110MOL0     C14753   8.757   1.665   7.923  0.0752  0.7670 -0.1963
  110MOL0     C14754   8.812   1.709   8.056 -0.8098 -0.1174  0.4606
  110MOL0     C14755   8.957   1.769   8.066  0.2125 -0.8229 -0.3098
  110MOL0     C14756   8.990   1.811   8.213 -0.5228 -0.7566 -0.3902
  110MOL0     C14757   9.135   1.870   8.210  0.6708 -0.4850 -0.8906
  110MOL0     C14758   9.192   1.899   8.357 -0.3500 -0.6482  0.0630
  110MOL0    Cl14759   9.203   1.753   8.458 -0.4183 -0.0494  0.1598
  110MOL0     C14760   8.606   1.657   7.400  0.2889  0.0548 -0.2295
  110MOL0     C14761   8.598   1.626   7.263 -0.0169  0.5312  0.5358
  110MOL0     O14762   8.502   1.909   7.013  0.2771 -0.1319  0.5687
  110MOL0     C14763   8.513   1.908   6.738 -0.1970  0.3452 -0.0446
  110MOL0     C14764   8.537   1.901   6.600  0.2479  0.6670 -0.2431
  110MOL0     N14765   8.780   1.913   5.780  0.3201 -0.0504  0.9316
  110MOL0     N14766   8.740   1.813   5.702 -0.8931  0.0231  0.9210
  110MOL0     C14767   7.593   2.072   5.327 -0.6611 -0.4756 -0.3144
  110MOL0     C14768   7.486   2.158   5.319  0.1248 -0.1750  0.3515
  110MOL0     C14769   7.259   2.551   5.282 -0.0093  0.0808 -0.9263
  110MOL0     C14770   7.176   2.525   5.391  0.4324  0.4170 -0.7377
  110MOL0     C14771   7.049   2.582   5.410 -0.6598 -0.2784 -0.4182
  110MOL0     C14772   7.004   2.684   5.327  0.1406  0.3522  0.3768
  110MOL0     O14773   6.886   2.746   5.362 -0.2003  0.3040  0.2176
  110MOL0     C14774   6.793   2.773   5.260  0.7243 -1.0794 -0.6656
  110MOL0     C14775   6.774   2.919   5.243  0.3374  0.5902  0.3584
  110MOL0     C14776   6.700   2.988   5.359  0.1890  0.1988 -0.3253
  110MOL0     C14777   6.701   3.145   5.348 -0.1282  0.0228 -1.0706
  110MOL0     C14778   6.597   3.199   5.266 -0.2942 -0.1568  0.3979
  110MOL0     C14779   6.508   3.259   5.205  0.5232  0.1377 -0.1509
  110MOL0     C14780   7.075   2.703   5.208 -0.6930 -0.4080  0.6686
  110MOL0     C14781   7.202   2.638   5.183 -0.3987 -0.6169 -0.2893
  110MOL0     C14782   7.279   2.651   5.042  0.5386  1.0525  0.0791
  110MOL0     H14783   7.642   2.431   5.459  0.8876 -0.8586  1.4640
  110MOL0     H14784   7.818   2.278   5.472 -0.2080  2.0645 -0.5678
  110MOL0     H14785   7.776   1.861   5.302 -0.3033  1.1006  3.1995
  110MOL0     H14786   7.886   1.964   5.203 -1.3755 -0.1838 -0.9131
  110MOL0     H14787   8.007   1.777   5.278  0.2145  1.4122 -1.6255
  110MOL0     H14788   7.968   1.811   5.445  1.2210 -0.4611 -0.2982
  110MOL0     H14789   8.081   2.034   5.427 -1.7746 -0.8117  0.6990
  110MOL0     H14790   8.130   1.991   5.273  2.0728  1.4477  2.0672
  110MOL0     H14791   8.179   1.804   5.506 -0.4405  0.4107 -0.0105
  110MOL0     H14792   8.237   1.791   5.337 -0.5297  1.2026 -0.6296
  110MOL0     H14793   8.366   1.995   5.352  1.9428 -1.9440 -0.3630
  110MOL0     H14794   8.306   2.021   5.512  3.0969  0.4042 -0.4281
  110MOL0     H14795   8.476   1.787   5.413 -0.5550  1.7051 -1.3843
  110MOL0     H14796   8.531   1.918   5.517  0.2061  0.6691  1.2051
  110MOL0     H14797   8.335   1.690   5.609 -0.7148  1.3614 -0.2637
  110MOL0     H14798   8.368   1.846   5.698  1.7354  0.9463  0.5640
  110MOL0     H14799   8.496   1.621   5.763  2.2809  1.3585  1.4849
  110MOL0     H14800   8.577   1.623   5.609 -0.2564  0.8224 -0.2350
  110MOL0     H14801   8.493   1.848   5.918  1.3894 -0.2555  2.6538
  110MOL0     H14802   8.720   2.143   5.946 -1.3701  1.4409  1.1300
  110MOL0     H14803   8.585   2.078   6.018  0.4334  1.1593  3.4280
  110MOL0     H14804   8.877   1.978   6.081  0.5008  0.8302 -0.2037
  110MOL0     H14805   8.789   2.088   6.181 -1.1723 -0.8758  1.5185
  110MOL0     H14806   8.769   1.791   6.166  0.4009 -0.1091 -1.7018
  110MOL0     H14807   8.608   1.865   6.168  0.2711 -2.8116  1.8276
  110MOL0     H14808   8.711   1.986   6.388 -0.0070 -1.5798  0.9061
  110MOL0     H14809   8.822   1.850   6.392  0.4423 -1.0574 -0.2376
  110MOL0     H14810   8.711   1.621   6.559  0.9360  0.0284 -0.5568
  110MOL0     H14811   8.695   1.619   6.818  1.4693 -0.5917 -1.6934
  110MOL0     H14812   8.738   1.927   7.160 -0.7979  0.9490 -0.1348
  110MOL0     H14813   8.754   1.959   7.405 -1.1664  1.2552 -2.2725
  110MOL0     H14814   8.579   1.685   7.721 -0.3012  0.3430  0.7189
  110MOL0     H14815   8.738   1.632   7.660  3.1458  0.6331  4.7504
  110MOL0     H14816   8.868   1.773   7.780  0.6151 -0.9200 -0.3273
  110MOL0     H14817   8.729   1.866   7.840 -0.9034  0.6887 -1.3553
  110MOL0     H14818   8.652   1.636   7.934  0.4637 -0.4511  0.5809
  110MOL0     H14819   8.802   1.571   7.889 -1.5877 -0.7254  1.4738
  110MOL0     H14820   8.807   1.617   8.115 -0.9399 -1.9114 -2.1944
  110MOL0     H14821   8.735   1.776   8.095 -2.9532 -1.2005 -1.6725
  110MOL0     H14822   8.953   1.863   8.011 -1.9320 -0.9060 -0.3749
  110MOL0     H14823   9.029   1.695   8.028  0.5768 -1.1751  1.0175
  110MOL0     H14824   8.928   1.893   8.249  0.8937  0.7532 -1.2642
  110MOL0     H14825   8.972   1.735   8.290 -1.8253  1.5908  1.7752
  110MOL0     H14826   9.134   1.960   8.148  4.8333  0.2997 -0.1074
  110MOL0     H14827   9.195   1.794   8.159 -1.7566 -2.2754 -1.2800
  110MOL0     H14828   9.275   1.971   8.361 -3.0114  2.5677  1.7560
  110MOL0     H14829   9.110   1.957   8.400 -4.3989 -4.1004 -2.2551
  110MOL0     H14830   8.551   1.578   7.450 -1.6807  1.2277 -0.4742
  110MOL0     H14831   8.561   1.531   7.225  0.2974 -0.0191  1.5721
  110MOL0     H14832   8.455   1.993   6.773  1.0091  0.2349  2.4894
  110MOL0     H14833   8.496   1.978   6.536  1.3217 -0.3719 -2.2994
  110MOL0     H14834   7.590   1.972   5.286  3.8812 -1.6559  1.5665
  110MOL0     H14835   7.394   2.129   5.270  1.3010  0.9088 -2.7390
  110MOL0     H14836   7.195   2.440   5.457 -1.9503 -1.2816 -2.0697
  110MOL0     H14837   7.002   2.567   5.507  2.1104  4.2193  1.9884
  110MOL0     H14838   6.700   2.731   5.300 -0.1804  1.3387 -0.0526
  110MOL0     H14839   6.820   2.724   5.166 -1.2163 -3.3694 -0.1548
  110MOL0     H14840   6.703   2.933   5.161 -1.7995 -0.1249  1.9861
  110MOL0     H14841   6.872   2.967   5.229  2.0842 -2.3718  1.5627
  110MOL0     H14842   6.748   2.954   5.451  0.1481 -3.0120 -1.3906
  110MOL0     H14843   6.595   2.959   5.362 -0.9161  3.4767 -2.0771
  110MOL0     H14844   6.708   3.179   5.452  2.5890 -0.9776 -0.8551
  110MOL0     H14845   6.793   3.195   5.316 -1.0654  0.6347 -2.9641
  110MOL0     H14846   6.426   3.310   5.160  1.7669  3.7054  1.2941
  110MOL0     H14847   7.040   2.764   5.126  2.7891 -1.7134 -2.0456
  110MOL0     H14848   7.368   2.716   5.039  1.3149  0.1451  1.7936
  110MOL0     H14849   7.316   2.549   5.026 -1.4208  0.0628  1.4893
  110MOL0     H14850   7.210   2.671   4.960  1.9302  2.0630 -0.8890
  111MOL0     O14851   8.885   3.041   6.219  0.5056  0.9312 -0.4180
  111MOL0     C14852   8.795   3.013   6.297  0.9469  0.2665 -0.4394
  111MOL0     O14853   8.748   3.091   6.390  0.8543 -0.6178 -0.0586
  111MOL0     C14854   8.787   3.220   6.400  0.5218 -0.9970 -0.2119
  111MOL0     C14855   8.798   3.318   6.297  0.3882  0.4951  0.1764
  111MOL0     C14856   8.838   3.446   6.322 -0.5160 -0.9856 -1.1591
  111MOL0     C14857   8.862   3.491   6.456 -0.2254  0.2063  0.3569
  111MOL0     O14858   8.886   3.626   6.470 -0.3004 -0.7282 -0.3145
  111MOL0     C14859   8.819   3.702   6.569  0.6308 -0.1632 -1.5520
  111MOL0     C14860   8.900   3.830   6.601  0.2799 -0.2067 -0.3462
  111MOL0     C14861   9.031   3.797   6.672  0.2044 -0.2721  1.0532
  111MOL0     C14862   9.009   3.734   6.805  0.2516  0.1191  0.1051
  111MOL0     C14863   9.130   3.751   6.891  0.2977  0.3490 -0.5985
  111MOL0     C14864   9.108   3.680   7.025 -0.1076 -0.0008 -0.1270
  111MOL0     C14865   9.230   3.708   7.114  0.7050  0.8197 -0.3058
  111MOL0     C14866   9.179   3.698   7.258 -0.0655  0.0547  0.2140
  111MOL0     N14867   9.160   3.561   7.297 -0.4817  0.1323 -1.1561
  111MOL0     C14868   9.263   3.492   7.356 -0.3135  0.4214  0.2857
  111MOL0     C14869   9.221   3.362   7.361 -0.9683 -0.1087 -0.3683
  111MOL0     C14870   9.308   3.245   7.414  1.1480 -0.5838 -0.2409
  111MOL0     C14871   9.263   3.103   7.367 -0.5229  0.6900  0.1871
  111MOL0     C14872   9.375   2.994   7.398 -0.2059  0.4561  0.0051
  111MOL0     C14873   9.316   2.850   7.370  0.2826 -0.9232  0.4859
  111MOL0     O14874   9.423   2.758   7.337  0.2896 -0.1947  0.0377
  111MOL0     C14875   9.448   2.679   7.444  0.2805 -0.8691 -1.0976
  111MOL0     C14876   9.522   2.736   7.554  0.9414 -0.1025  1.0379
  111MOL0     C14877   9.546   2.651   7.661  0.6335  0.0794 -0.2405
  111MOL0     C14878   9.502   2.522   7.667  0.8145  0.4604 -0.2996
  111MOL0     C14879   9.543   2.432   7.774 -0.5367  1.6631 -0.2397
  111MOL0     O14880   9.574   2.499   7.901  0.3191  0.2190 -0.0136
  111MOL0     C14881   9.572   2.404   8.000 -0.7584 -0.1035 -0.3297
  111MOL0     C14882   9.688   2.322   8.032  1.2230 -0.0298 -0.4396
  111MOL0     C14883   9.682   2.227   8.134  0.7388 -0.6252 -0.1276
  111MOL0     C14884   9.560   2.195   8.216  0.2322 -0.1282  0.5452
  111MOL0     O14885   9.546   2.096   8.316 -0.1036 -0.8792  0.1431
  111MOL0     C14886   9.662   2.006   8.327 -0.4692  0.0906  0.3083
  111MOL0     C14887   9.632   1.892   8.433 -0.8134 -0.7398  0.1899
  111MOL0     C14888   9.716   1.767   8.407 -0.1935 -1.3701 -0.6141
  111MOL0     C14889   9.670   1.661   8.508 -0.3146 -0.3440  0.1585
  111MOL0     C14890   9.753   1.529   8.499 -1.1182 -0.1166  0.2413
  111MOL0     C14891   9.903   1.572   8.520 -0.0533 -0.2785  0.5417
  111MOL0     C14892   9.993   1.460   8.576 -0.6147 -0.9426  0.3164
  111MOL0     C14893  10.125   1.516   8.629 -0.1550 -0.8424  0.0087
  111MOL0    Cl14894  10.075   1.590   8.788  0.1186 -0.0163 -0.5089
  111MOL0     C14895   9.453   2.283   8.196  0.2533  0.1146 -0.2542
  111MOL0     C14896   9.464   2.388   8.102  0.0777 -0.0527  1.0195
  111MOL0     O14897   9.538   2.309   7.756  0.2688  0.8941 -0.4954
  111MOL0     C14898   9.426   2.462   7.561  0.5203  0.0638 -0.6105
  111MOL0     C14899   9.406   2.547   7.451  0.0794  0.1713 -0.5197
  111MOL0     N14900   9.097   3.361   7.317  0.6764  0.0154  0.3738
  111MOL0     N14901   9.049   3.478   7.278 -0.3856  0.0209  0.0783
  111MOL0     C14902   8.845   3.392   6.566  0.3621  0.2072  0.5346
  111MOL0     C14903   8.807   3.265   6.531  0.4292  0.0505 -0.1234
  111MOL0     C14904   8.750   2.869   6.289 -0.4795 -0.1792  0.1329
  111MOL0     C14905   8.802   2.781   6.195  0.4582 -0.6153 -0.1176
  111MOL0     C14906   8.760   2.650   6.185  0.5765  0.9710  1.0792
  111MOL0     C14907   8.666   2.597   6.268  0.3784  1.0954  0.0930
  111MOL0     O14908   8.661   2.463   6.279 -0.8862 -0.7206  0.4941
  111MOL0     C14909   8.534   2.400   6.261  0.4508 -0.0542  0.4726
  111MOL0     C14910   8.560   2.257   6.230 -0.1672  0.8235  0.0537
  111MOL0     C14911   8.433   2.160   6.246 -0.1359 -0.7515 -0.0621
  111MOL0     C14912   8.318   2.188   6.164 -0.0835 -0.5624 -0.0682
  111MOL0     C14913   8.350   2.185   6.022 -0.6481 -0.1989  0.0481
  111MOL0     C14914   8.364   2.173   5.905 -0.7668 -0.0647 -0.4340
  111MOL0     C14915   8.594   2.677   6.350 -0.1098  0.1750  0.3052
  111MOL0     C14916   8.636   2.809   6.365 -0.0847  0.1315 -0.1279
  111MOL0     C14917   8.576   2.885   6.484 -0.5088 -0.3919  0.0629
  111MOL0     H14918   8.804   3.293   6.191 -1.2589  1.0482 -0.0637
  111MOL0     H14919   8.849   3.519   6.242 -1.5237 -1.7176 -1.9847
  111MOL0     H14920   8.729   3.734   6.515 -0.2058 -0.8169 -0.5999
  111MOL0     H14921   8.787   3.653   6.661 -0.3351 -0.3182 -1.9575
  111MOL0     H14922   8.851   3.899   6.671  1.2637  1.6009 -1.3652
  111MOL0     H14923   8.917   3.900   6.518  0.4110 -0.7155 -0.7525
  111MOL0     H14924   9.088   3.889   6.688 -0.5187  0.3713  0.0264
  111MOL0     H14925   9.096   3.733   6.612  1.3330  1.3013  0.5204
  111MOL0     H14926   8.921   3.784   6.846  0.9226  0.6325  0.9420
  111MOL0     H14927   8.979   3.629   6.797 -2.3423  0.7695  0.1562
  111MOL0     H14928   9.204   3.687   6.842 -0.5354 -1.5992  0.5654
  111MOL0     H14929   9.176   3.850   6.902  2.1678 -0.3466 -1.6902
  111MOL0     H14930   9.013   3.707   7.071 -0.5055 -0.8784 -0.4105
  111MOL0     H14931   9.103   3.571   7.012  1.1787 -0.2814  1.4609
  111MOL0     H14932   9.272   3.808   7.103  0.4390  0.7695 -2.0594
  111MOL0     H14933   9.312   3.638   7.093  0.1895 -0.3828  1.4173
  111MOL0     H14934   9.253   3.750   7.319 -1.1505 -1.5371  3.0856
  111MOL0     H14935   9.082   3.750   7.260  0.1358  0.5022 -0.8699
  111MOL0     H14936   9.358   3.524   7.398 -0.3557  0.5784  0.2648
  111MOL0     H14937   9.405   3.262   7.367  0.2015  1.8632 -1.4988
  111MOL0     H14938   9.312   3.242   7.523  1.6101  0.5455 -0.2184
  111MOL0     H14939   9.167   3.085   7.415 -0.4061  1.5234  0.7538
  111MOL0     H14940   9.243   3.098   7.259 -1.0795 -1.1806  0.3434
  111MOL0     H14941   9.404   3.005   7.503  0.1961  4.6420 -0.3645
  111MOL0     H14942   9.467   3.017   7.343 -0.2791  1.2103  0.1905
  111MOL0     H14943   9.254   2.857   7.280  0.9041 -1.1112  0.0404
  111MOL0     H14944   9.253   2.819   7.455  1.0961 -1.6254  0.8380
  111MOL0     H14945   9.561   2.837   7.559 -0.8569  0.8178 -1.2946
  111MOL0     H14946   9.590   2.709   7.742  0.9407 -0.1383 -0.2506
  111MOL0     H14947   9.779   2.335   7.975  1.0707  0.5478 -0.5621
  111MOL0     H14948   9.780   2.179   8.137  1.3271  0.5866  0.8028
  111MOL0     H14949   9.683   1.961   8.229 -1.0407  1.4654 -0.4837
  111MOL0     H14950   9.745   2.060   8.373  1.1489 -1.6525 -0.4707
  111MOL0     H14951   9.659   1.915   8.536 -1.1821 -0.7608  0.2932
  111MOL0     H14952   9.525   1.870   8.431 -0.9063 -0.2467 -0.3556
  111MOL0     H14953   9.701   1.739   8.302 -0.2962 -2.3810 -0.3374
  111MOL0     H14954   9.823   1.789   8.419 -0.0170 -2.6247  0.4035
  111MOL0     H14955   9.564   1.644   8.490 -0.3687 -0.6426  0.7366
  111MOL0     H14956   9.668   1.701   8.610 -0.5766 -3.5992  1.5395
  111MOL0     H14957   9.738   1.490   8.398  0.6449 -2.9772  0.9600
  111MOL0     H14958   9.716   1.459   8.576  0.9441  1.1687  2.5429
  111MOL0     H14959   9.933   1.613   8.423  0.9963  1.4300  1.5503
  111MOL0     H14960   9.909   1.660   8.584  0.6763 -0.4165  0.6684
  111MOL0     H14961  10.004   1.392   8.491 -2.0131  3.5285 -3.8975
  111MOL0     H14962   9.949   1.394   8.651  0.3664  0.9514  2.7130
  111MOL0     H14963  10.183   1.431   8.667 -0.0464 -0.5334  0.5486
  111MOL0     H14964  10.173   1.591   8.565  0.7433 -0.0828  1.5059
  111MOL0     H14965   9.365   2.290   8.259  0.7736  1.9175  0.3228
  111MOL0     H14966   9.377   2.447   8.076 -2.2070 -4.2713 -2.1238
  111MOL0     H14967   9.386   2.361   7.568 -2.1698  1.1689  1.8679
  111MOL0     H14968   9.364   2.511   7.357  3.0565 -0.2162 -1.8311
  111MOL0     H14969   8.837   3.424   6.670 -0.1357  3.5984 -0.4066
  111MOL0     H14970   8.777   3.189   6.602  3.4622 -1.3891 -0.2343
  111MOL0     H14971   8.886   2.812   6.133  0.5586  0.7169  0.6524
  111MOL0     H14972   8.813   2.584   6.116  1.9788  0.8712  2.2118
  111MOL0     H14973   8.475   2.445   6.180 -1.1752 -0.7162  1.2549
  111MOL0     H14974   8.484   2.406   6.358 -0.3749 -0.5918  0.0957
  111MOL0     H14975   8.635   2.216   6.299 -0.6173 -0.4881 -0.1995
  111MOL0     H14976   8.583   2.260   6.123  0.0256 -0.0217  0.0629
  111MOL0     H14977   8.414   2.163   6.353 -0.3112 -0.9765 -0.0877
  111MOL0     H14978   8.454   2.055   6.227 -2.4969 -2.2571  4.2692
  111MOL0     H14979   8.238   2.114   6.179  1.1758 -1.6502  1.6755
  111MOL0     H14980   8.278   2.288   6.180 -0.5642 -0.7312 -0.1819
  111MOL0     H14981   8.396   2.172   5.803  2.1878  0.0609  0.4265
  111MOL0     H14982   8.511   2.645   6.413 -2.1236  1.9923 -1.2516
  111MOL0     H14983   8.560   2.989   6.455  1.1947 -0.7750 -2.6708
  111MOL0     H14984   8.484   2.836   6.519 -0.1851 -3.0152 -2.3536
  111MOL0     H14985   8.655   2.882   6.559  1.7437  1.0151 -2.1065
  112MOL0     O14986   9.657   2.976   2.949 -0.4851  0.0233  0.0086
  112MOL0     C14987   9.705   2.879   3.009  0.6133 -0.5192 -0.2419
  112MOL0     O14988   9.737   2.755   2.959 -1.0278 -0.6096  0.2402
  112MOL0     C14989   9.685   2.720   2.839  0.3674 -0.3351  1.1488
  112MOL0     C14990   9.570   2.647   2.842  0.1145 -0.2409 -0.2749
  112MOL0     C14991   9.512   2.598   2.723  0.3927 -1.0382 -0.7111
  112MOL0     C14992   9.574   2.637   2.600  0.7994  0.6880 -0.0364
  112MOL0     O14993   9.518   2.602   2.480  0.1040  0.0245 -0.0657
  112MOL0     C14994   9.512   2.466   2.464 -0.1962  0.4977 -0.4405
  112MOL0     C14995   9.549   2.428   2.321  0.4023 -1.1208 -0.2392
  112MOL0     C14996   9.603   2.281   2.310  0.8252  0.5676  0.5548
  112MOL0     C14997   9.592   2.216   2.167  1.0883  0.1294 -0.3975
  112MOL0     C14998   9.643   2.077   2.152 -0.1458 -0.2778  0.9710
  112MOL0     C14999   9.649   2.036   2.005  0.3651  0.1593  0.1689
  112MOL0     C15000   9.685   1.878   1.982  0.1688 -0.0542 -0.2694
  112MOL0     C15001   9.553   1.807   1.958  0.4458  0.6442  0.5683
  112MOL0     N15002   9.559   1.662   1.981 -0.8442  0.1836  0.0943
  112MOL0     C15003   9.467   1.584   2.053  0.2142  0.1982 -0.4561
  112MOL0     C15004   9.472   1.458   1.999 -0.8493 -0.0786  1.0506
  112MOL0     C15005   9.403   1.329   2.034  0.0977  0.2695 -0.8246
  112MOL0     C15006   9.259   1.319   1.971 -0.9647 -0.6585  0.0825
  112MOL0     C15007   9.178   1.444   1.990 -0.2002 -0.1010 -0.5769
  112MOL0     C15008   9.035   1.416   1.940 -0.7420  0.5134  0.3369
  112MOL0     O15009   8.974   1.306   1.998 -0.7911  0.4107  0.6422
  112MOL0     C15010   8.845   1.272   1.965 -0.2748  1.1260  0.3384
  112MOL0     C15011   8.797   1.154   2.026  0.4659 -0.1458 -0.4975
  112MOL0     C15012   8.672   1.102   1.980  0.6734 -0.9207 -0.1605
  112MOL0     C15013   8.591   1.172   1.888  0.1376 -0.1216 -0.3677
  112MOL0     C15014   8.453   1.116   1.863  0.5910 -1.0514  0.9851
  112MOL0     O15015   8.405   1.138   1.728 -0.5639  0.8312 -0.2647
  112MOL0     C15016   8.282   1.101   1.709  1.0613  0.1021 -0.6565
  112MOL0     C15017   8.171   1.180   1.737 -0.3117 -0.0600 -0.3224
  112MOL0     C15018   8.039   1.137   1.732  0.2571 -0.2504  0.2374
  112MOL0     C15019   8.016   1.012   1.672  0.2707 -0.3794  0.7206
  112MOL0     O15020   7.890   0.967   1.638 -0.2946 -0.1128  0.2421
  112MOL0     C15021   7.862   0.826   1.667  0.4441  0.7122  0.2552
  112MOL0     C15022   7.710   0.816   1.657  0.5418  0.0740  0.1493
  112MOL0     C15023   7.642   0.881   1.777  0.5161  0.1031  0.8289
  112MOL0     C15024   7.506   0.823   1.806  0.1055 -0.4543  0.2628
  112MOL0     C15025   7.467   0.834   1.951 -0.4751 -1.4005  0.1723
  112MOL0     C15026   7.320   0.797   1.980 -0.7807 -0.4371 -0.1449
  112MOL0     C15027   7.303   0.837   2.124  0.2635 -0.1896 -0.3254
  112MOL0     C15028   7.148   0.849   2.150 -1.1595 -0.2040  0.6296
  112MOL0    Cl15029   7.067   0.698   2.103  0.1045 -0.0737  0.4035
  112MOL0     C15030   8.126   0.936   1.640 -0.9559 -0.2377  0.3521
  112MOL0     C15031   8.259   0.975   1.668  0.5247  0.6576  0.7424
  112MOL0     O15032   8.403   1.049   1.954  0.4721 -0.6717  0.0742
  112MOL0     C15033   8.637   1.288   1.823  0.9003  0.3837 -0.0446
  112MOL0     C15034   8.764   1.335   1.870  1.1241 -0.1615 -0.3313
  112MOL0     N15035   9.549   1.474   1.888 -0.1848  0.6247 -0.0644
  112MOL0     N15036   9.607   1.582   1.879  0.2996 -0.2083  0.1221
  112MOL0     C15037   9.684   2.719   2.599  0.4830 -0.7813  0.2229
  112MOL0     C15038   9.746   2.760   2.714  0.1601 -0.8226  0.8104
  112MOL0     C15039   9.717   2.901   3.153 -0.1055  0.1879  0.3888
  112MOL0     C15040   9.841   2.954   3.205  0.5676 -0.5085  0.0818
  112MOL0     C15041   9.855   2.987   3.343 -0.0946  0.1443  0.6352
  112MOL0     C15042   9.742   2.970   3.430 -0.3825  0.0522  0.0993
  112MOL0     O15043   9.734   3.008   3.562  0.0827  0.0534  0.1918
  112MOL0     C15044   9.847   3.069   3.619 -1.0763 -0.9838 -0.1095
  112MOL0     C15045   9.822   3.064   3.773 -0.6474 -0.3644 -0.0144
  112MOL0     C15046   9.942   3.156   3.823 -0.1919 -0.2015  0.4213
  112MOL0     C15047   9.964   3.151   3.979 -0.4809 -0.4316  0.2589
  112MOL0     C15048   9.933   3.020   4.043  0.1776 -0.0699  0.1400
  112MOL0     C15049   9.907   2.910   4.085  0.5056 -0.0405 -0.6465
  112MOL0     C15050   9.627   2.922   3.377 -0.9598 -0.5509 -0.5040
  112MOL0     C15051   9.609   2.895   3.242 -0.3885 -0.1803 -1.1485
  112MOL0     C15052   9.474   2.859   3.198 -1.1955 -0.4660 -0.0816
  112MOL0     H15053   9.511   2.631   2.931 -1.4665  2.1802 -0.7932
  112MOL0     H15054   9.421   2.541   2.738  0.6332 -1.0222  1.1026
  112MOL0     H15055   9.592   2.428   2.529  0.8271  1.1869 -1.2500
  112MOL0     H15056   9.411   2.441   2.497 -1.2781  1.0866 -3.0768
  112MOL0     H15057   9.626   2.484   2.268  0.4178 -1.3916 -0.5041
  112MOL0     H15058   9.460   2.428   2.258  0.4436  1.9081 -0.4513
  112MOL0     H15059   9.532   2.224   2.370  1.3187  1.3134  1.9035
  112MOL0     H15060   9.704   2.276   2.351  1.3208  1.3315 -0.5052
  112MOL0     H15061   9.485   2.216   2.144  0.4057  2.0120  2.2756
  112MOL0     H15062   9.643   2.280   2.093  3.4094 -1.2019 -0.0527
  112MOL0     H15063   9.745   2.074   2.190  0.4384  0.0257 -0.5001
  112MOL0     H15064   9.583   2.005   2.208 -1.4186  0.9181  1.2190
  112MOL0     H15065   9.554   2.068   1.960  0.8690  1.3311 -0.1096
  112MOL0     H15066   9.735   2.088   1.961  0.2621  2.6195  2.6237
  112MOL0     H15067   9.731   1.844   2.075 -1.0792 -3.1571 -0.6687
  112MOL0     H15068   9.752   1.860   1.897 -0.5702 -0.9400 -0.6845
  112MOL0     H15069   9.468   1.845   2.014  0.7598  2.2254  0.0278
  112MOL0     H15070   9.517   1.825   1.856 -1.2999 -0.1302  1.0244
  112MOL0     H15071   9.407   1.617   2.137  1.2633  1.4184 -0.1653
  112MOL0     H15072   9.456   1.235   2.015 -0.5620 -0.7088  1.8483
  112MOL0     H15073   9.415   1.331   2.142  1.3451  0.3970 -0.9465
  112MOL0     H15074   9.277   1.310   1.863  2.5531  0.1981  0.4734
  112MOL0     H15075   9.215   1.236   2.028 -2.5722 -0.5539 -0.9568
  112MOL0     H15076   9.219   1.524   1.927 -1.0429  0.7327 -0.0831
  112MOL0     H15077   9.169   1.472   2.095 -1.4789 -0.8422 -0.4666
  112MOL0     H15078   9.028   1.410   1.831  3.4657 -2.6487 -0.0358
  112MOL0     H15079   8.977   1.505   1.966 -2.5677 -0.4708 -0.1485
  112MOL0     H15080   8.850   1.120   2.114 -0.7196  0.2241  0.3809
  112MOL0     H15081   8.637   1.016   2.035 -2.1729  0.2268 -0.0077
  112MOL0     H15082   8.195   1.283   1.764  1.0252 -0.6484  0.8849
  112MOL0     H15083   7.943   1.183   1.753 -1.7670 -3.0227 -2.0641
  112MOL0     H15084   7.902   0.762   1.588 -2.3164 -3.2915  1.7861
  112MOL0     H15085   7.896   0.797   1.766 -0.5211 -0.3397  0.3044
  112MOL0     H15086   7.680   0.873   1.569 -3.7742 -1.0968  0.6282
  112MOL0     H15087   7.687   0.711   1.637  0.0800  0.0023  1.0003
  112MOL0     H15088   7.700   0.880   1.869 -1.1355  1.2652  1.9261
  112MOL0     H15089   7.634   0.989   1.767  0.1724  0.1757  1.8259
  112MOL0     H15090   7.504   0.718   1.776  1.0288 -0.8913  1.6422
  112MOL0     H15091   7.434   0.865   1.735  3.0697  0.3407 -2.5644
  112MOL0     H15092   7.478   0.941   1.975  1.8563 -1.0632 -1.9569
  112MOL0     H15093   7.529   0.767   2.010 -0.9689  1.0614  3.8002
  112MOL0     H15094   7.248   0.856   1.922 -3.6207 -2.5809  0.9572
  112MOL0     H15095   7.298   0.691   1.960 -2.1914 -0.3605  0.8610
  112MOL0     H15096   7.343   0.936   2.146 -1.6273  0.4492  0.3925
  112MOL0     H15097   7.343   0.759   2.190  4.1824  1.8257 -0.0337
  112MOL0     H15098   7.127   0.872   2.255  2.2068 -0.3159  1.4578
  112MOL0     H15099   7.116   0.931   2.086 -0.4493  0.0128  0.5343
  112MOL0     H15100   8.116   0.843   1.585  3.4594  1.1457 -3.4341
  112MOL0     H15101   8.339   0.903   1.655 -0.2480  0.1014 -1.3026
  112MOL0     H15102   8.586   1.328   1.736  0.4935  1.3365  0.6092
  112MOL0     H15103   8.792   1.419   1.808 -1.2243  1.3958  0.5550
  112MOL0     H15104   9.735   2.742   2.506 -0.6987 -0.2022 -0.3039
  112MOL0     H15105   9.836   2.820   2.718 -0.3677  0.4661 -2.8881
  112MOL0     H15106   9.927   2.979   3.144  0.7291  4.2699  1.8678
  112MOL0     H15107   9.951   3.013   3.387 -0.8931  0.2447  2.4100
  112MOL0     H15108   9.859   3.175   3.595 -1.8338 -0.1868  2.6578
  112MOL0     H15109   9.938   3.015   3.592 -0.7547 -0.1471 -0.7576
  112MOL0     H15110   9.833   2.958   3.798 -0.6344  0.1823  2.6893
  112MOL0     H15111   9.722   3.098   3.801 -0.9318 -1.4656  0.3687
  112MOL0     H15112   9.934   3.257   3.782  0.9439 -0.6384 -0.9328
  112MOL0     H15113  10.041   3.129   3.784  0.3681  1.2690  0.7376
  112MOL0     H15114  10.059   3.187   4.020  0.2044  0.7116 -2.1655
  112MOL0     H15115   9.887   3.219   4.020 -0.9028  0.4952 -1.9466
  112MOL0     H15116   9.903   2.805   4.106  0.5413  0.2548  0.9257
  112MOL0     H15117   9.540   2.919   3.442  0.2965 -1.6420  1.2110
  112MOL0     H15118   9.439   2.789   3.274  0.2030 -0.6625  0.4087
  112MOL0     H15119   9.405   2.944   3.195 -0.1727  0.8674  4.8481
  112MOL0     H15120   9.477   2.811   3.100 -2.5229 -0.6543 -0.0372
  113MOL0     O15121   3.469   2.384   9.881  0.2109  0.4268 -1.0327
  113MOL0     C15122   3.482   2.290   9.959  0.3291 -0.4766 -0.8933
  113MOL0     O15123   3.496   2.292  10.094  0.1912 -0.0645  0.1838
  113MOL0     C15124   3.530   2.415  10.144 -0.5408  0.1294 -0.2152
  113MOL0     C15125   3.660   2.450  10.183 -0.1508 -0.3497  0.2685
  113MOL0     C15126   3.678   2.576  10.238  0.5279 -0.7978 -0.4289
  113MOL0     C15127   3.571   2.672  10.256 -0.3054 -1.3913 -0.2941
  113MOL0     O15128   3.593   2.794  10.318 -0.5290  0.0699  0.2133
  113MOL0     C15129   3.512   2.814  10.429 -0.0501  0.0764 -0.4405
  113MOL0     C15130   3.584   2.877  10.546 -0.3851  0.0417  0.2612
  113MOL0     C15131   3.643   3.014  10.499 -0.1541  0.2592  0.1842
  113MOL0     C15132   3.761   3.072  10.581  0.3919  0.2996 -0.4316
  113MOL0     C15133   3.893   2.988  10.553  1.4490 -0.2782 -0.0106
  113MOL0     C15134   3.922   2.956  10.402 -0.6416 -0.2334  0.1160
  113MOL0     C15135   3.954   3.068  10.305  0.1670  0.0411 -0.7827
  113MOL0     C15136   3.957   3.009  10.175 -0.9725  0.6525  0.1806
  113MOL0     N15137   4.086   2.951  10.135 -0.4671  1.5001 -0.4155
  113MOL0     C15138   4.201   3.018  10.108 -0.6388  0.0698 -0.2881
  113MOL0     C15139   4.308   2.935  10.117  0.6629  0.2081 -0.5354
  113MOL0     C15140   4.458   2.979  10.134  0.4027 -0.1577  0.1262
  113MOL0     C15141   4.502   3.014  10.279  0.4897  0.5433 -0.1888
  113MOL0     C15142   4.422   3.134  10.322 -0.9092  0.2759  0.0807
  113MOL0     C15143   4.501   3.198  10.436 -0.0335 -0.1427  0.3270
  113MOL0     O15144   4.618   3.278  10.393  0.3877 -0.1678  0.7713
  113MOL0     C15145   4.722   3.288  10.481  0.4765 -0.1395 -0.4311
  113MOL0     C15146   4.846   3.274  10.424  0.8029  0.4595 -0.1166
  113MOL0     C15147   4.961   3.291  10.506  0.3742 -0.1750 -0.0823
  113MOL0     C15148   4.946   3.320  10.641  0.8686 -0.6603  0.0489
  113MOL0     C15149   5.069   3.335  10.727 -0.7893  0.1362  0.1481
  113MOL0     O15150   5.186   3.345  10.651 -0.2273  0.6153 -0.1427
  113MOL0     C15151   5.318   3.329  10.699  0.5264  0.4382  0.2572
  113MOL0     C15152   5.418   3.319  10.595  0.7454  0.8151 -0.7882
  113MOL0     C15153   5.551   3.317  10.638  0.3118  0.5144 -0.0366
  113MOL0     C15154   5.591   3.317  10.778 -0.2805 -0.7437  0.7249
  113MOL0     O15155   5.724   3.322  10.791  0.2625 -0.2159 -0.1926
  113MOL0     C15156   5.771   3.330  10.929 -0.4260 -0.4038  1.0879
  113MOL0     C15157   5.909   3.375  10.899  0.4510 -0.5904 -0.4182
  113MOL0     C15158   5.998   3.254  10.864  0.4718 -0.7151 -1.5758
  113MOL0     C15159   6.069   3.193  10.978  0.3170  0.1255  0.8662
  113MOL0     C15160   6.164   3.074  10.948  0.5789 -0.1705 -0.6984
  113MOL0     C15161   6.259   3.036  11.065 -0.3321 -1.1539 -0.6765
  113MOL0     C15162   6.204   2.927  11.165  1.3538 -0.1167  0.3382
  113MOL0     C15163   6.167   2.800  11.089 -0.2255 -0.4673 -0.2869
  113MOL0    Cl15164   6.138   2.670  11.206  0.1361 -0.2187  0.3354
  113MOL0     C15165   5.489   3.310  10.875 -1.0754  1.1812 -0.8783
  113MOL0     C15166   5.359   3.319  10.841 -0.1604 -0.4875  0.2800
  113MOL0     O15167   5.051   3.328  10.847 -0.9506 -1.2260 -0.1949
  113MOL0     C15168   4.812   3.341  10.697 -0.6756 -0.2126 -0.2560
  113MOL0     C15169   4.707   3.324  10.612 -0.9148  0.1224  0.0569
  113MOL0     N15170   4.261   2.810  10.148  0.0735  0.0972  0.1657
  113MOL0     N15171   4.130   2.819  10.166  0.1932 -0.8525 -0.4479
  113MOL0     C15172   3.438   2.639  10.211  0.1760  0.4771 -0.0997
  113MOL0     C15173   3.425   2.511  10.150 -0.1435  0.9975 -1.0645
  113MOL0     C15174   3.470   2.153   9.908  1.1259  0.0566  0.0629
  113MOL0     C15175   3.418   2.052   9.992  0.1904 -0.4604  0.0602
  113MOL0     C15176   3.395   1.923   9.943  0.2543  0.4847 -0.1586
  113MOL0     C15177   3.435   1.895   9.811  0.0938 -0.3613  0.2027
  113MOL0     O15178   3.414   1.766   9.765 -0.1370  0.2629  0.3488
  113MOL0     C15179   3.535   1.692   9.742 -0.8724  0.2659  0.6903
  113MOL0     C15180   3.615   1.672   9.868  0.2301  0.7207  0.3856
  113MOL0     C15181   3.716   1.562   9.834 -0.6531  0.7139  0.3914
  113MOL0     C15182   3.800   1.541   9.956 -0.3452  0.3040  0.0954
  113MOL0     C15183   3.730   1.463  10.061 -0.5259  0.2582 -0.5425
  113MOL0     C15184   3.685   1.384  10.141 -0.1901  0.3868 -0.3007
  113MOL0     C15185   3.491   1.988   9.730 -0.4384  0.0133  0.2882
  113MOL0     C15186   3.509   2.115   9.771 -0.6951  0.9413  0.8906
  113MOL0     C15187   3.589   2.210   9.693 -0.3041  0.4999 -0.0402
  113MOL0     H15188   3.736   2.373  10.174  1.1555  0.9887 -0.3912
  113MOL0     H15189   3.771   2.615  10.279  1.0092 -0.6075 -1.6293
  113MOL0     H15190   3.423   2.868  10.394 -1.0763 -1.2337  0.0453
  113MOL0     H15191   3.463   2.720  10.458  0.7975 -0.8406 -1.8229
  113MOL0     H15192   3.662   2.811  10.587 -0.4374 -0.0992  0.1359
  113MOL0     H15193   3.510   2.895  10.625 -1.8314  1.2342 -1.2917
  113MOL0     H15194   3.566   3.088  10.519  0.1810  0.4718  0.6961
  113MOL0     H15195   3.665   3.009  10.392  0.8221 -2.5356  0.4169
  113MOL0     H15196   3.776   3.177  10.556 -3.0030  0.8832 -0.3965
  113MOL0     H15197   3.748   3.057  10.689  0.7874  0.7528 -0.3184
  113MOL0     H15198   3.975   3.023  10.616  0.7581 -1.9968  1.9700
  113MOL0     H15199   3.876   2.888  10.594  4.4779 -0.7598  0.2296
  113MOL0     H15200   4.004   2.884  10.407 -1.8238 -2.0726 -3.4609
  113MOL0     H15201   3.835   2.901  10.366 -2.1592  1.5985  0.8162
  113MOL0     H15202   4.050   3.115  10.327 -0.1847 -0.6672  2.8313
  113MOL0     H15203   3.874   3.142  10.306 -1.4657 -1.6011  1.7603
  113MOL0     H15204   3.873   2.946  10.146 -1.2410  0.7093  0.8295
  113MOL0     H15205   3.939   3.090  10.103  1.1964  0.6894 -0.4131
  113MOL0     H15206   4.209   3.126  10.099  3.1276  0.2059  2.4024
  113MOL0     H15207   4.519   2.904  10.082 -0.4221 -1.6054  1.1568
  113MOL0     H15208   4.476   3.077  10.090  1.2441 -0.2479  0.2522
  113MOL0     H15209   4.492   2.926  10.343 -3.3914 -2.0847 -3.8774
  113MOL0     H15210   4.607   3.043  10.274  0.1784  1.8505  0.2403
  113MOL0     H15211   4.319   3.110  10.348 -1.0565  2.4404  1.7035
  113MOL0     H15212   4.400   3.203  10.240 -0.4407  0.0435 -0.2446
  113MOL0     H15213   4.534   3.119  10.504 -2.0332 -0.9705  0.4023
  113MOL0     H15214   4.439   3.269  10.492  3.0417  3.5743 -0.5363
  113MOL0     H15215   4.858   3.230  10.325  1.6313  0.0583  0.1522
  113MOL0     H15216   5.055   3.276  10.454  0.3354  0.9823 -0.4991
  113MOL0     H15217   5.392   3.327  10.490 -2.7956 -0.3093 -0.1712
  113MOL0     H15218   5.628   3.302  10.563 -2.0182  1.7841 -2.9398
  113MOL0     H15219   5.720   3.405  10.992  0.0742 -0.4124  1.5154
  113MOL0     H15220   5.790   3.233  10.976  2.3506 -0.4802  0.0241
  113MOL0     H15221   5.904   3.440  10.811 -1.4775 -1.3488 -0.9057
  113MOL0     H15222   5.943   3.431  10.987  0.2222  0.0406 -0.7211
  113MOL0     H15223   5.948   3.178  10.803 -2.0143 -0.0257 -0.5417
  113MOL0     H15224   6.070   3.301  10.796  0.8528  0.8520 -0.1772
  113MOL0     H15225   5.992   3.154  11.046  1.4916 -1.6259  1.2539
  113MOL0     H15226   6.115   3.278  11.029 -1.1573  2.0659 -0.8374
  113MOL0     H15227   6.234   3.116  10.876 -1.2734  1.5238 -1.5878
  113MOL0     H15228   6.122   2.978  10.919  2.7548 -2.7428  3.6231
  113MOL0     H15229   6.343   2.988  11.013  0.5127 -1.1873  0.6779
  113MOL0     H15230   6.293   3.130  11.108  0.4103 -2.2358  1.2237
  113MOL0     H15231   6.111   2.956  11.215  2.2385  0.9800  1.3942
  113MOL0     H15232   6.287   2.902  11.231  2.0585  0.4028 -0.3319
  113MOL0     H15233   6.081   2.818  11.024  0.1026 -0.0949 -0.6160
  113MOL0     H15234   6.255   2.773  11.031  1.6885 -1.3061  2.7468
  113MOL0     H15235   5.521   3.280  10.975  0.3520 -1.0034 -1.9108
  113MOL0     H15236   5.291   3.307  10.926  1.6070  0.2255  1.8742
  113MOL0     H15237   4.797   3.356  10.803 -3.7358 -0.7713 -0.5213
  113MOL0     H15238   4.609   3.338  10.656 -0.6907  0.8224  0.3407
  113MOL0     H15239   3.348   2.698  10.224 -1.3631 -0.7951 -3.6886
  113MOL0     H15240   3.331   2.482  10.103 -0.1626  0.8750 -0.9497
  113MOL0     H15241   3.381   2.072  10.092  0.2108 -0.9022  0.1569
  113MOL0     H15242   3.350   1.851  10.011 -0.6825 -0.4381 -1.6915
  113MOL0     H15243   3.603   1.740   9.671 -0.6245 -0.4185  0.4503
  113MOL0     H15244   3.510   1.597   9.694 -1.0514  0.1320  1.0498
  113MOL0     H15245   3.551   1.618   9.939 -0.3742 -1.7634 -1.8700
  113MOL0     H15246   3.647   1.765   9.915 -0.1053  0.2417  1.6013
  113MOL0     H15247   3.778   1.579   9.746  1.0971 -1.1995  1.1748
  113MOL0     H15248   3.660   1.473   9.806 -2.8257  2.1213  0.0031
  113MOL0     H15249   3.891   1.494   9.919  0.2430 -0.2304  2.0666
  113MOL0     H15250   3.825   1.640   9.994  1.1060  0.1582 -0.4203
  113MOL0     H15251   3.654   1.296  10.193  1.6196  0.7980  1.5945
  113MOL0     H15252   3.532   1.962   9.634 -1.9787 -0.4824 -0.2738
  113MOL0     H15253   3.527   2.263   9.621 -2.6344  2.3517  3.0839
  113MOL0     H15254   3.655   2.266   9.760  0.9711 -0.8161 -0.1279
  113MOL0     H15255   3.653   2.147   9.631 -2.5976 -0.6781 -1.3482
  114MOL0     O15256   3.905   5.607   8.713 -0.4223 -0.6277  0.3820
  114MOL0     C15257   3.823   5.674   8.653  0.0992 -0.0477  0.1063
  114MOL0     O15258   3.788   5.801   8.690  0.9913 -1.4806 -0.0084
  114MOL0     C15259   3.809   5.841   8.821 -0.0423 -0.4010 -0.6226
  114MOL0     C15260   3.797   5.758   8.934  0.1775  1.2818  0.0340
  114MOL0     C15261   3.809   5.802   9.069  0.0790  0.2245  0.5588
  114MOL0     C15262   3.853   5.937   9.085 -1.0248  0.2779  0.1993
  114MOL0     O15263   3.876   5.974   9.216  0.6379 -0.1460  0.6468
  114MOL0     C15264   3.939   6.100   9.239 -0.3867  0.6460  0.2708
  114MOL0     C15265   3.978   6.125   9.383  0.2570  0.2175 -1.6491
  114MOL0     C15266   3.857   6.102   9.478  1.0249 -0.5944 -0.1812
  114MOL0     C15267   3.888   6.145   9.625  0.6615 -0.2056  0.0483
  114MOL0     C15268   4.017   6.079   9.678 -0.5817  0.2752 -0.3361
  114MOL0     C15269   4.155   6.150   9.656  0.5919  0.4506 -0.0211
  114MOL0     C15270   4.251   6.101   9.764 -0.2061 -0.3169  0.8045
  114MOL0     C15271   4.285   5.950   9.758 -0.3450 -0.1971  0.9398
  114MOL0     N15272   4.427   5.926   9.793 -0.7005 -0.3043 -0.5065
  114MOL0     C15273   4.510   6.001   9.876  0.0744  0.8437 -0.2080
  114MOL0     C15274   4.622   5.923   9.887  0.1132 -0.1982 -0.0797
  114MOL0     C15275   4.746   5.954   9.977  0.5411  0.0843  0.5868
  114MOL0     C15276   4.873   5.965   9.884 -0.1981  0.0397 -0.1495
  114MOL0     C15277   4.990   5.964   9.978  0.0891 -0.6203  0.8306
  114MOL0     C15278   5.112   5.946   9.903  0.2671  0.0469 -0.3662
  114MOL0     O15279   5.232   5.964   9.989  0.2572  0.2873 -0.2582
  114MOL0     C15280   5.352   5.921   9.942  0.3357  0.0841  0.8136
  114MOL0     C15281   5.427   5.857  10.034 -0.7261  0.5594 -0.0359
  114MOL0     C15282   5.552   5.810   9.989  0.3342 -0.1228 -0.6456
  114MOL0     C15283   5.596   5.832   9.857  0.3310  0.4433 -0.8941
  114MOL0     C15284   5.728   5.804   9.810 -0.3377  1.2214 -0.8520
  114MOL0     O15285   5.774   5.860   9.699 -0.4575  0.6100  0.3387
  114MOL0     C15286   5.906   5.834   9.647 -1.1453  0.1453 -0.0953
  114MOL0     C15287   5.918   5.862   9.516  0.6316  0.0988  0.2242
  114MOL0     C15288   6.025   5.839   9.428  0.5460  0.2198 -0.6519
  114MOL0     C15289   6.135   5.773   9.483 -0.1340  0.1808  0.0511
  114MOL0     O15290   6.242   5.751   9.397  0.4653 -0.8389  0.2410
  114MOL0     C15291   6.353   5.677   9.437 -0.4457  1.0596  0.4568
  114MOL0     C15292   6.324   5.525   9.436 -1.0909  0.0320 -0.1269
  114MOL0     C15293   6.441   5.439   9.503 -0.6260 -0.1476  0.8062
  114MOL0     C15294   6.566   5.425   9.407 -0.2032  0.6994  0.0485
  114MOL0     C15295   6.679   5.345   9.478 -1.2113  0.3132  0.7071
  114MOL0     C15296   6.662   5.192   9.471  0.3450  0.3042  0.1982
  114MOL0     C15297   6.799   5.123   9.514  0.3799  1.1694 -0.0274
  114MOL0     C15298   6.787   4.975   9.518 -0.6890  0.9147 -1.0115
  114MOL0    Cl15299   6.948   4.908   9.565 -0.4091  0.5291 -0.6518
  114MOL0     C15300   6.133   5.741   9.626 -0.3011 -0.2931 -0.0727
  114MOL0     C15301   6.023   5.775   9.712  0.3286 -0.0992 -0.4089
  114MOL0     O15302   5.792   5.715   9.874  0.3202  0.0085  0.2332
  114MOL0     C15303   5.514   5.889   9.761 -0.0291 -0.4517 -0.0822
  114MOL0     C15304   5.388   5.934   9.802 -0.4475 -0.5199 -0.0729
  114MOL0     N15305   4.601   5.810   9.808 -0.7016  0.5596 -0.3609
  114MOL0     N15306   4.484   5.810   9.753  0.1751  0.1224  0.0373
  114MOL0     C15307   3.875   6.028   8.975 -0.4963 -0.4472  0.6718
  114MOL0     C15308   3.861   5.965   8.844 -0.8802 -0.7941 -0.3792
  114MOL0     C15309   3.768   5.607   8.533 -0.5117  0.2186  0.3985
  114MOL0     C15310   3.851   5.531   8.448 -0.4456 -0.0588  0.5485
  114MOL0     C15311   3.806   5.468   8.333  0.6171 -0.7464  0.5068
  114MOL0     C15312   3.671   5.486   8.289 -0.7131  0.8529  0.3195
  114MOL0     O15313   3.621   5.404   8.186 -0.2626  0.3475  1.0990
  114MOL0     C15314   3.710   5.314   8.115 -0.0892  0.6292  0.2397
  114MOL0     C15315   3.634   5.289   7.979  1.2972  0.8896  0.2655
  114MOL0     C15316   3.587   5.405   7.898 -0.4856 -0.3997  0.4351
  114MOL0     C15317   3.666   5.527   7.916  0.4319  0.0758  0.0095
  114MOL0     C15318   3.640   5.634   7.820 -0.3011  0.1757 -0.5275
  114MOL0     C15319   3.632   5.722   7.740  0.4066  0.0842  0.1598
  114MOL0     C15320   3.590   5.566   8.366 -0.3262  0.2219  0.2436
  114MOL0     C15321   3.638   5.640   8.479  1.0352  0.6898  0.8286
  114MOL0     C15322   3.541   5.744   8.532 -0.2308  0.1994 -0.0760
  114MOL0     H15323   3.765   5.656   8.915  1.8035  0.5110  1.2378
  114MOL0     H15324   3.806   5.726   9.147  3.1982 -0.8499 -0.1906
  114MOL0     H15325   4.028   6.101   9.175 -0.2776  0.5421  0.4209
  114MOL0     H15326   3.873   6.179   9.201 -0.0272  0.4664 -0.7655
  114MOL0     H15327   4.019   6.226   9.395 -0.3202  0.3389 -0.6067
  114MOL0     H15328   4.043   6.044   9.415 -0.0465  1.2560  2.1289
  114MOL0     H15329   3.814   6.001   9.486 -0.6824  0.0868 -0.2691
  114MOL0     H15330   3.775   6.159   9.435  2.8791  1.0409 -1.7289
  114MOL0     H15331   3.894   6.254   9.632  0.9464 -0.2654  0.8600
  114MOL0     H15332   3.812   6.107   9.693 -2.3690 -0.5597 -3.2577
  114MOL0     H15333   4.002   6.082   9.786  1.1310 -0.0877 -0.0643
  114MOL0     H15334   4.029   5.974   9.647  3.6282  0.8904 -1.4089
  114MOL0     H15335   4.199   6.145   9.556  0.7012  1.2927 -0.0180
  114MOL0     H15336   4.130   6.256   9.669 -2.2290  0.0532 -1.3551
  114MOL0     H15337   4.216   6.130   9.864 -0.4041 -1.8518  1.1990
  114MOL0     H15338   4.345   6.148   9.734  0.0362 -2.3758 -2.0975
  114MOL0     H15339   4.213   5.891   9.816 -3.1155 -0.8840 -2.8125
  114MOL0     H15340   4.271   5.915   9.656 -2.4329 -1.9218  1.7519
  114MOL0     H15341   4.505   6.099   9.921  2.0708  0.9324 -0.0859
  114MOL0     H15342   4.741   6.053  10.023  1.0084  0.9323 -1.0884
  114MOL0     H15343   4.748   5.862  10.035 -1.8267 -2.1582 -2.5796
  114MOL0     H15344   4.875   5.870   9.830  0.7160  1.1864 -2.2421
  114MOL0     H15345   4.875   6.044   9.809 -0.7111 -0.9757 -1.2579
  114MOL0     H15346   4.970   5.892  10.058 -0.4049 -0.5209  0.8007
  114MOL0     H15347   5.004   6.064  10.019 -2.5861  0.0978  0.2208
  114MOL0     H15348   5.115   6.012   9.816 -1.2613  0.1509 -0.3794
  114MOL0     H15349   5.109   5.849   9.852 -0.3153  0.5888 -1.3931
  114MOL0     H15350   5.394   5.847  10.137  1.2067 -1.1379  0.4691
  114MOL0     H15351   5.618   5.758  10.057  0.2954  2.1420  1.2513
  114MOL0     H15352   5.841   5.927   9.477  0.4336  1.1583  2.2237
  114MOL0     H15353   6.017   5.871   9.324  3.4351  0.1143 -0.9837
  114MOL0     H15354   6.441   5.700   9.376  3.1342 -4.2840  2.8850
  114MOL0     H15355   6.384   5.712   9.536  1.8284 -0.9286  0.5288
  114MOL0     H15356   6.230   5.498   9.485 -2.7159  2.6155 -1.5828
  114MOL0     H15357   6.317   5.493   9.332 -1.0135 -1.1494  0.2127
  114MOL0     H15358   6.482   5.498   9.585 -1.9782  2.0383  0.0121
  114MOL0     H15359   6.391   5.350   9.540 -2.6471  1.7697  3.0182
  114MOL0     H15360   6.606   5.520   9.372  0.4014  0.1592 -0.7681
  114MOL0     H15361   6.539   5.375   9.314 -0.8223 -0.0740  0.6277
  114MOL0     H15362   6.680   5.371   9.584 -3.2484 -0.1675  0.8794
  114MOL0     H15363   6.778   5.365   9.434 -1.0273  0.7452  1.3164
  114MOL0     H15364   6.573   5.163   9.528  1.1431 -0.2820  1.1909
  114MOL0     H15365   6.634   5.162   9.370 -1.7655 -1.3669  1.1952
  114MOL0     H15366   6.832   5.156   9.613 -1.5145  1.0465  0.6680
  114MOL0     H15367   6.884   5.143   9.448  0.1216 -0.4348 -0.9127
  114MOL0     H15368   6.720   4.944   9.598  4.0021 -0.1927  3.0004
  114MOL0     H15369   6.761   4.933   9.420  2.9973  1.8849 -2.6034
  114MOL0     H15370   6.215   5.687   9.672 -2.0545 -2.3568  0.8001
  114MOL0     H15371   6.019   5.748   9.817 -0.8245 -2.5661 -1.0194
  114MOL0     H15372   5.539   5.894   9.655 -1.5572 -0.0593 -0.4655
  114MOL0     H15373   5.311   5.971   9.735  0.5022 -0.5517 -1.2293
  114MOL0     H15374   3.926   6.121   8.998 -0.6302  0.5116 -2.4328
  114MOL0     H15375   3.903   6.026   8.764  0.7305 -1.5385 -0.1396
  114MOL0     H15376   3.951   5.506   8.484 -1.9411 -4.6135  2.2435
  114MOL0     H15377   3.873   5.410   8.271  1.9566  1.3358 -0.1097
  114MOL0     H15378   3.735   5.220   8.166 -2.0302 -0.4648 -0.6954
  114MOL0     H15379   3.806   5.363   8.102 -0.1158  0.6208  0.0012
  114MOL0     H15380   3.547   5.228   8.004  2.0396 -0.3509 -0.0501
  114MOL0     H15381   3.695   5.218   7.922 -1.8210 -0.5661 -1.5292
  114MOL0     H15382   3.481   5.434   7.894  0.4436  3.5369  0.5142
  114MOL0     H15383   3.614   5.376   7.796  0.6082  2.3093 -0.1097
  114MOL0     H15384   3.650   5.566   8.016  0.4230 -1.9478  0.8520
  114MOL0     H15385   3.772   5.502   7.930 -0.1565 -1.2845  2.7361
  114MOL0     H15386   3.626   5.793   7.660 -0.7481  2.5201  2.2276
  114MOL0     H15387   3.486   5.567   8.335 -0.6618 -1.3434  1.2363
  114MOL0     H15388   3.486   5.710   8.621  0.0326  0.4134  0.1699
  114MOL0     H15389   3.588   5.841   8.550  0.2312  0.1832 -1.1327
  114MOL0     H15390   3.462   5.740   8.456  0.4477 -0.6182 -0.7633
  115MOL0     O15391  10.884   3.298   9.867  0.2140  0.1108 -0.4833
  115MOL0     C15392  10.851   3.197   9.818  0.8797  0.4872  0.2115
  115MOL0     O15393  10.898   3.067   9.852 -1.0288 -0.2037  0.0309
  115MOL0     C15394  10.999   3.066   9.950 -0.0402 -0.1758 -0.7584
  115MOL0     C15395  11.132   3.078   9.913  0.3422 -0.0488 -0.4443
  115MOL0     C15396  11.236   3.093  10.018  0.2160  0.5331 -0.0078
  115MOL0     C15397  11.196   3.078  10.151  0.0401 -0.2515  0.0910
  115MOL0     O15398  11.293   3.086  10.252  0.2899  0.2228 -0.6692
  115MOL0     C15399  11.292   3.206  10.337 -0.6221  0.2030  0.9416
  115MOL0     C15400  11.431   3.234  10.400 -0.7743  0.1912  0.4956
  115MOL0     C15401  11.424   3.370  10.478  0.0379  0.6304 -0.6383
  115MOL0     C15402  11.565   3.409  10.524  0.3338  0.0755 -0.3207
  115MOL0     C15403  11.570   3.522  10.614 -1.0973  0.5941 -0.2348
  115MOL0     C15404  11.705   3.579  10.655  0.3541  0.3579  0.5577
  115MOL0     C15405  11.779   3.477  10.742 -0.2894  0.7969  0.2574
  115MOL0     C15406  11.910   3.520  10.796 -0.3676 -0.7629 -0.4713
  115MOL0     N15407  12.008   3.570  10.696  1.2635  0.4264 -0.4583
  115MOL0     C15408  12.072   3.691  10.694 -0.3170 -0.6456 -0.7475
  115MOL0     C15409  12.164   3.687  10.599  0.0123  0.0201  0.3687
  115MOL0     C15410  12.282   3.789  10.590 -0.0907  0.1681 -0.7097
  115MOL0     C15411  12.245   3.932  10.608  0.2289  0.4135  0.4001
  115MOL0     C15412  12.370   4.018  10.568  0.9947  0.3791 -0.3605
  115MOL0     C15413  12.361   4.178  10.572 -1.2823 -0.2738 -0.5091
  115MOL0     O15414  12.299   4.211  10.456  0.0029  0.6547 -0.1482
  115MOL0     C15415  12.191   4.303  10.456 -0.1180 -0.0441  1.7370
  115MOL0     C15416  12.141   4.377  10.561  0.0622 -0.3609 -0.2574
  115MOL0     C15417  12.032   4.470  10.553  0.0683  0.6588 -0.2127
  115MOL0     C15418  11.951   4.455  10.444 -1.0204 -0.9787 -0.4102
  115MOL0     C15419  11.824   4.535  10.437 -0.8069  0.2040 -0.2180
  115MOL0     O15420  11.766   4.570  10.310  0.7438  0.3002 -0.2048
  115MOL0     C15421  11.660   4.661  10.320 -0.4855 -0.1258  0.3709
  115MOL0     C15422  11.534   4.617  10.353 -0.2866 -0.4423 -0.4102
  115MOL0     C15423  11.427   4.709  10.356  0.0244 -0.4519 -0.1694
  115MOL0     C15424  11.448   4.845  10.324  0.3600  0.0362  0.4008
  115MOL0     O15425  11.344   4.943  10.312  0.1866  0.0790 -0.3397
  115MOL0     C15426  11.263   4.978  10.425  0.0425 -1.1966 -0.1663
  115MOL0     C15427  11.175   5.115  10.402  1.0930  0.4325 -0.3031
  115MOL0     C15428  11.285   5.226  10.381  1.4753 -0.7425 -0.1429
  115MOL0     C15429  11.210   5.356  10.359  0.3654  0.0412 -0.2588
  115MOL0     C15430  11.305   5.475  10.351 -0.7836 -0.0488  0.5141
  115MOL0     C15431  11.231   5.605  10.390  0.5710 -0.3275 -0.2493
  115MOL0     C15432  11.233   5.626  10.547 -0.6116  0.6476 -0.1573
  115MOL0     C15433  11.246   5.779  10.591 -0.1068 -0.3921 -0.3087
  115MOL0    Cl15434  11.218   5.779  10.771 -0.2488 -0.2038 -0.0147
  115MOL0     C15435  11.570   4.882  10.278 -0.1432  0.7800 -0.0766
  115MOL0     C15436  11.674   4.787  10.277 -0.5306 -0.6074  0.2925
  115MOL0     O15437  11.772   4.567  10.549  0.3109  0.5724  1.1256
  115MOL0     C15438  11.986   4.376  10.334 -1.3273 -0.1569  0.4840
  115MOL0     C15439  12.106   4.299  10.346 -0.3402  1.3418  0.6204
  115MOL0     N15440  12.138   3.564  10.538 -0.4979  0.1345  0.2737
  115MOL0     N15441  12.048   3.495  10.598 -0.5212 -0.2252 -0.2341
  115MOL0     C15442  11.063   3.059  10.180 -0.5440 -0.0378 -0.7698
  115MOL0     C15443  10.962   3.063  10.091  0.3512  0.9148  1.1025
  115MOL0     C15444  10.752   3.196   9.707  0.8650  0.7201  0.8997
  115MOL0     C15445  10.750   3.314   9.624  0.3454  0.9501  0.2303
  115MOL0     C15446  10.668   3.329   9.512  0.4917  0.0692  0.4807
  115MOL0     C15447  10.570   3.227   9.483  0.4485 -0.1441  0.2028
  115MOL0     O15448  10.484   3.234   9.379 -0.5040 -0.3256  0.0745
  115MOL0     C15449  10.523   3.317   9.261  0.5211 -0.5219  0.3802
  115MOL0     C15450  10.652   3.277   9.198 -0.4330 -0.2779 -0.3085
  115MOL0     C15451  10.655   3.132   9.130 -0.0345 -0.7479 -1.0060
  115MOL0     C15452  10.785   3.118   9.041  0.2398  0.4245  0.2923
  115MOL0     C15453  10.834   2.982   9.058  0.0276 -0.9133 -0.2789
  115MOL0     C15454  10.883   2.870   9.075  0.4915  0.0366 -0.8271
  115MOL0     C15455  10.560   3.123   9.574  1.1148  0.7634  0.3423
  115MOL0     C15456  10.648   3.096   9.678  0.1850  0.2541 -0.7041
  115MOL0     C15457  10.638   2.974   9.760 -0.7699  0.1602  0.2258
  115MOL0     H15458  11.130   3.102   9.807 -0.7896  5.2652  0.5096
  115MOL0     H15459  11.340   3.110   9.991  0.8386 -1.3289  1.0494
  115MOL0     H15460  11.276   3.295  10.275 -1.8286 -1.0014 -0.5291
  115MOL0     H15461  11.212   3.203  10.411 -1.6305  2.3907  0.0361
  115MOL0     H15462  11.508   3.248  10.323 -3.0012  1.7309 -1.6046
  115MOL0     H15463  11.460   3.155  10.470  0.7544 -0.5478 -0.8990
  115MOL0     H15464  11.353   3.367  10.560 -0.8937 -0.8393 -1.4561
  115MOL0     H15465  11.378   3.443  10.412  1.4345  0.2918 -2.0602
  115MOL0     H15466  11.608   3.320  10.570  0.5036  1.1076  1.6115
  115MOL0     H15467  11.630   3.439  10.441  0.9614  1.0875  0.5220
  115MOL0     H15468  11.517   3.611  10.579 -2.6203  0.3083  1.1984
  115MOL0     H15469  11.514   3.498  10.705  0.1098 -2.4726 -0.1631
  115MOL0     H15470  11.765   3.601  10.566 -0.0149  1.1571  0.4990
  115MOL0     H15471  11.680   3.673  10.706 -0.3724  0.9357 -0.8258
  115MOL0     H15472  11.802   3.386  10.685 -3.7133  0.6670 -1.1916
  115MOL0     H15473  11.719   3.442  10.827  1.3151  0.9996  1.5204
  115MOL0     H15474  11.894   3.601  10.868  1.3528  0.6268 -1.5649
  115MOL0     H15475  11.945   3.431  10.850 -1.9652 -1.2457 -0.1737
  115MOL0     H15476  12.080   3.767  10.771  0.7985  0.0824 -1.5493
  115MOL0     H15477  12.355   3.765  10.668  2.8287  1.3268 -2.9064
  115MOL0     H15478  12.328   3.772  10.493  2.1898  1.1842  0.1109
  115MOL0     H15479  12.154   3.963  10.555  0.9905  1.9196 -0.0661
  115MOL0     H15480  12.217   3.935  10.714 -1.1702 -1.5655  0.1399
  115MOL0     H15481  12.392   3.986  10.465 -0.0528 -1.6790 -0.0068
  115MOL0     H15482  12.447   3.982  10.637  0.7866 -0.3301 -0.4868
  115MOL0     H15483  12.463   4.212  10.592 -1.5441  0.3146 -0.1614
  115MOL0     H15484  12.311   4.209  10.664  0.9925 -0.4702  0.8877
  115MOL0     H15485  12.215   4.393  10.638  1.9549  0.8626 -2.1971
  115MOL0     H15486  12.019   4.535  10.638  1.1255  0.3176  0.2297
  115MOL0     H15487  11.512   4.515  10.381  1.8246 -0.7975  0.0713
  115MOL0     H15488  11.323   4.681  10.373  0.6805 -2.9527  0.0899
  115MOL0     H15489  11.194   4.902  10.462  0.1974 -1.1265  0.2725
  115MOL0     H15490  11.332   5.004  10.506  1.9386  3.0534 -2.7447
  115MOL0     H15491  11.110   5.109  10.314 -0.7397  0.1194  0.9950
  115MOL0     H15492  11.098   5.134  10.478  0.5881  0.4229 -0.7986
  115MOL0     H15493  11.350   5.237  10.468  1.8086 -0.6476 -0.4014
  115MOL0     H15494  11.332   5.201  10.285 -1.2675 -1.2552 -1.4459
  115MOL0     H15495  11.153   5.363  10.452  1.2487  1.2043  0.2014
  115MOL0     H15496  11.145   5.361  10.271  0.4759  3.4828 -0.2813
  115MOL0     H15497  11.341   5.490  10.249  1.1714  0.9852  1.2962
  115MOL0     H15498  11.393   5.451  10.411  0.1131  0.4979 -0.5577
  115MOL0     H15499  11.277   5.693  10.343 -2.1463  1.2770 -0.1148
  115MOL0     H15500  11.129   5.594  10.351  0.3532  0.3470  0.1090
  115MOL0     H15501  11.326   5.576  10.576 -1.7489 -1.2122  0.4315
  115MOL0     H15502  11.146   5.576  10.589  0.8475  0.9534  3.5934
  115MOL0     H15503  11.350   5.806  10.571  0.7187 -2.9482  0.1983
  115MOL0     H15504  11.181   5.842  10.530  0.8355 -1.9911 -3.1444
  115MOL0     H15505  11.582   4.988  10.258  1.1433  0.2721 -2.3341
  115MOL0     H15506  11.776   4.821  10.264 -0.8902  1.6205  2.4874
  115MOL0     H15507  11.921   4.364  10.248 -3.0963  2.1546  1.4153
  115MOL0     H15508  12.135   4.229  10.268 -1.0028  1.3979  0.3055
  115MOL0     H15509  11.030   3.053  10.283  0.4846  0.3878 -0.3996
  115MOL0     H15510  10.857   3.061  10.115  0.2720  0.9611  0.7659
  115MOL0     H15511  10.833   3.382   9.639  1.7317 -0.1756 -1.7641
  115MOL0     H15512  10.686   3.418   9.454  1.5164  1.4038  2.7435
  115MOL0     H15513  10.535   3.422   9.288 -1.2232 -0.3111  0.4503
  115MOL0     H15514  10.439   3.295   9.195  0.4622  2.0522 -0.5038
  115MOL0     H15515  10.727   3.282   9.278 -0.3724  2.1635 -0.4440
  115MOL0     H15516  10.688   3.356   9.131  1.0702  0.6791  1.5400
  115MOL0     H15517  10.570   3.112   9.065 -1.1963 -2.2804  0.8888
  115MOL0     H15518  10.644   3.052   9.204  0.1820  0.2613  0.1556
  115MOL0     H15519  10.753   3.137   8.938  0.9152 -0.0444 -0.0102
  115MOL0     H15520  10.853   3.201   9.061 -2.2340  2.2580  1.7640
  115MOL0     H15521  10.926   2.776   9.105  2.1227  1.9028  3.5064
  115MOL0     H15522  10.489   3.041   9.567  3.4101 -1.3573  0.3727
  115MOL0     H15523  10.537   2.936   9.741  0.1347 -1.9004 -0.6914
  115MOL0     H15524  10.706   2.895   9.726 -0.3903  0.9971 -1.0268
  115MOL0     H15525  10.664   2.990   9.866  0.6274  0.0857 -0.0886
  116MOL0     O15526  10.032   3.350   6.274 -0.3018 -0.0787  0.2942
  116MOL0     C15527   9.930   3.296   6.221 -0.0199  0.2320 -0.2489
  116MOL0     O15528   9.853   3.204   6.276 -1.1563  0.3117  0.0999
  116MOL0     C15529   9.880   3.154   6.402  0.5627 -0.6165  0.3343
  116MOL0     C15530   9.969   3.194   6.498  0.5205  0.9316  0.6582
  116MOL0     C15531   9.987   3.117   6.614  0.5227 -0.0546 -0.4554
  116MOL0     C15532   9.907   2.998   6.640 -0.8883 -0.3115  0.2397
  116MOL0     O15533   9.939   2.919   6.744 -0.2703 -0.3255 -0.5841
  116MOL0     C15534   9.928   2.775   6.719  0.3919  1.1843 -0.5081
  116MOL0     C15535  10.008   2.691   6.820 -0.9721  0.3034  0.0031
  116MOL0     C15536   9.934   2.553   6.828 -1.0039 -0.4423  0.3221
  116MOL0     C15537  10.011   2.449   6.904 -0.9705  0.2022  1.0922
  116MOL0     C15538   9.967   2.302   6.864  0.5650  0.4993 -0.3013
  116MOL0     C15539  10.050   2.233   6.748  0.2152 -0.9569  0.2786
  116MOL0     C15540  10.010   2.082   6.737 -0.6545  0.5618 -0.7959
  116MOL0     C15541  10.104   1.997   6.645  0.1714  0.7241  0.6623
  116MOL0     N15542  10.051   1.866   6.605 -0.1768  0.1988 -0.9159
  116MOL0     C15543   9.964   1.847   6.506 -0.6072  0.0998 -1.0137
  116MOL0     C15544   9.948   1.718   6.509  0.5929  0.2454 -0.3646
  116MOL0     C15545   9.851   1.634   6.426  0.1174  0.6830 -0.4398
  116MOL0     C15546   9.934   1.524   6.353  0.5774  0.1301  0.0881
  116MOL0     C15547   9.834   1.410   6.300  1.2185  0.4372 -0.0924
  116MOL0     C15548   9.906   1.310   6.214  0.2233 -0.0886  0.3251
  116MOL0     O15549   9.822   1.252   6.117  1.1563 -0.5599  0.3990
  116MOL0     C15550   9.742   1.146   6.149  0.4155  0.2314 -0.2952
  116MOL0     C15551   9.788   1.033   6.087 -0.0180  0.4159 -0.2757
  116MOL0     C15552   9.734   0.906   6.110 -0.8602  0.0663  0.4316
  116MOL0     C15553   9.632   0.901   6.211 -0.4225  0.1479  0.6967
  116MOL0     C15554   9.569   0.768   6.236 -0.2134 -0.2825  0.4871
  116MOL0     O15555   9.442   0.772   6.282 -0.0267  0.1894 -0.5371
  116MOL0     C15556   9.389   0.655   6.315  0.2632 -0.5069 -0.5746
  116MOL0     C15557   9.434   0.584   6.428  0.3614 -0.4776  0.7840
  116MOL0     C15558   9.379   0.463   6.455  0.6772  0.1524 -0.4534
  116MOL0     C15559   9.266   0.415   6.389  0.4512  1.0433 -0.1697
  116MOL0     O15560   9.194   0.305   6.429  0.2498 -0.5063 -0.3029
  116MOL0     C15561   9.130   0.324   6.553 -0.2855  0.0971 -0.5431
  116MOL0     C15562   9.001   0.416   6.548  0.1737  1.1966 -1.0734
  116MOL0     C15563   8.955   0.419   6.688  0.1994  0.1763  0.3169
  116MOL0     C15564   8.817   0.483   6.701 -0.7794 -0.0219  0.0606
  116MOL0     C15565   8.769   0.487   6.843 -0.4743 -0.1803  0.3501
  116MOL0     C15566   8.873   0.518   6.952  0.2900  0.0210  0.4112
  116MOL0     C15567   8.801   0.541   7.078 -0.4435 -0.4804 -0.6339
  116MOL0     C15568   8.886   0.489   7.198  0.3668  0.3600 -0.4289
  116MOL0    Cl15569   9.030   0.598   7.193 -0.6321 -0.0346 -0.0512
  116MOL0     C15570   9.216   0.478   6.270 -0.3559  0.5353 -0.7462
  116MOL0     C15571   9.282   0.597   6.238 -0.6537 -0.4948  0.0767
  116MOL0     O15572   9.630   0.665   6.192  0.8841 -0.4960  0.8384
  116MOL0     C15573   9.600   1.018   6.278 -0.1072 -0.0000 -0.2328
  116MOL0     C15574   9.647   1.141   6.245 -0.2915 -0.9320  0.0366
  116MOL0     N15575  10.028   1.657   6.609  0.8958  0.1623 -0.3886
  116MOL0     N15576  10.088   1.748   6.664 -0.2246  1.0296  0.2428
  116MOL0     C15577   9.815   2.963   6.552  0.5757 -0.2558 -0.3423
  116MOL0     C15578   9.802   3.040   6.432 -0.6453  1.2029 -0.1037
  116MOL0     C15579   9.897   3.341   6.083 -0.0602 -0.4306 -0.6854
  116MOL0     C15580   9.781   3.286   6.016  0.9736 -0.0986 -0.8952
  116MOL0     C15581   9.745   3.304   5.886 -0.1475 -0.2498 -1.2685
  116MOL0     C15582   9.808   3.401   5.806 -0.8487  0.4882 -1.0589
  116MOL0     O15583   9.788   3.426   5.680  0.7165 -0.2111 -0.2239
  116MOL0     C15584   9.649   3.404   5.634  0.0431 -0.0132  1.1584
  116MOL0     C15585   9.629   3.492   5.513  0.5936 -0.3225  0.6209
  116MOL0     C15586   9.480   3.490   5.476 -0.2025  0.2319 -0.0237
  116MOL0     C15587   9.443   3.557   5.350  0.6485 -0.0392  1.1714
  116MOL0     C15588   9.305   3.520   5.299 -0.8109 -0.2264  0.6721
  116MOL0     C15589   9.204   3.470   5.243 -0.5490  0.6366  1.0019
  116MOL0     C15590   9.924   3.458   5.869  0.6660 -0.2239 -0.2239
  116MOL0     C15591   9.970   3.430   5.999 -0.3106 -0.1694 -0.9660
  116MOL0     C15592  10.102   3.498   6.039 -0.2483  0.3152  0.3768
  116MOL0     H15593  10.035   3.279   6.481 -0.8772  1.9200  0.0291
  116MOL0     H15594  10.060   3.150   6.688  2.0160  1.8090 -2.6536
  116MOL0     H15595   9.820   2.756   6.723  0.9253 -2.3122 -0.1122
  116MOL0     H15596   9.956   2.748   6.617 -0.4560 -1.9327 -0.0087
  116MOL0     H15597  10.017   2.740   6.917 -0.0880 -0.5439  0.3689
  116MOL0     H15598  10.111   2.683   6.784  0.1896 -1.3255  3.2841
  116MOL0     H15599   9.910   2.517   6.728 -0.6469 -0.2964  0.1814
  116MOL0     H15600   9.835   2.573   6.870 -0.3517  3.2686  0.4993
  116MOL0     H15601  10.115   2.464   6.872 -0.8601 -2.3954 -0.0696
  116MOL0     H15602  10.004   2.465   7.012 -2.0497 -1.8517  1.3897
  116MOL0     H15603   9.969   2.238   6.952  0.1639  0.1786 -0.5250
  116MOL0     H15604   9.864   2.317   6.831 -1.2556  3.4560  5.3520
  116MOL0     H15605  10.032   2.287   6.655  4.8004  1.4414  0.4812
  116MOL0     H15606  10.154   2.244   6.779  0.2452 -0.6825  0.0850
  116MOL0     H15607   9.909   2.075   6.697 -1.2601  0.6335  0.6598
  116MOL0     H15608  10.015   2.047   6.841  0.1909  0.2236 -0.9411
  116MOL0     H15609  10.133   2.042   6.550 -1.4854 -5.7418 -3.5324
  116MOL0     H15610  10.193   1.974   6.704 -0.3832 -3.0922  0.2542
  116MOL0     H15611   9.920   1.926   6.446 -0.2996 -1.4000 -3.3270
  116MOL0     H15612   9.770   1.584   6.480  2.5005 -1.9609  0.9393
  116MOL0     H15613   9.797   1.703   6.359 -0.5415  0.9298  0.3323
  116MOL0     H15614   9.982   1.564   6.263  0.7289 -0.2364  0.0060
  116MOL0     H15615  10.009   1.477   6.417  1.2841 -0.6971 -1.2850
  116MOL0     H15616   9.750   1.458   6.249  1.0426  1.9606  1.5194
  116MOL0     H15617   9.793   1.353   6.384 -1.0385 -1.0957 -2.0992
  116MOL0     H15618   9.977   1.250   6.271 -0.1920 -2.7652 -1.7808
  116MOL0     H15619   9.976   1.370   6.155  1.0039  1.7919  2.9674
  116MOL0     H15620   9.869   1.039   6.015  1.3933 -0.4850  1.1844
  116MOL0     H15621   9.790   0.826   6.064  3.3057  2.9084  0.0982
  116MOL0     H15622   9.505   0.642   6.486 -0.5497  1.3643  0.1236
  116MOL0     H15623   9.412   0.407   6.543 -1.4126  2.4080  1.9145
  116MOL0     H15624   9.099   0.224   6.584 -0.0531  0.4130  0.7636
  116MOL0     H15625   9.199   0.365   6.628  0.1924 -0.9715 -0.3847
  116MOL0     H15626   9.035   0.514   6.513 -0.1354  0.9385 -2.1567
  116MOL0     H15627   8.931   0.371   6.477  1.4491 -1.9612 -0.4752
  116MOL0     H15628   8.944   0.324   6.743  1.0476  1.5486  3.0144
  116MOL0     H15629   9.031   0.478   6.739  0.8551  0.3713 -0.8571
  116MOL0     H15630   8.734   0.430   6.654 -0.7335  0.0158 -0.0631
  116MOL0     H15631   8.824   0.582   6.657 -1.7710  0.6940  1.4370
  116MOL0     H15632   8.708   0.398   6.861 -3.6134  1.0838 -2.9347
  116MOL0     H15633   8.696   0.568   6.852 -0.7827 -0.6705  2.9798
  116MOL0     H15634   8.946   0.438   6.969  1.4010  1.0639  0.6534
  116MOL0     H15635   8.930   0.607   6.923  0.4854  0.4028  1.9103
  116MOL0     H15636   8.705   0.490   7.078 -1.4465  0.9379  3.7556
  116MOL0     H15637   8.779   0.645   7.101 -0.1122  0.0313 -2.4726
  116MOL0     H15638   8.834   0.493   7.294  2.2035 -0.6449  0.6725
  116MOL0     H15639   8.910   0.383   7.202 -2.4715 -0.3959  4.0398
  116MOL0     H15640   9.136   0.435   6.211 -0.9868  2.3024 -1.2384
  116MOL0     H15641   9.256   0.648   6.146  2.0373 -0.8305 -0.9378
  116MOL0     H15642   9.533   1.024   6.363  1.9992  0.9279  1.4401
  116MOL0     H15643   9.615   1.234   6.292 -0.4319 -0.7640 -0.3847
  116MOL0     H15644   9.741   2.888   6.579 -0.1917  0.0705 -1.4835
  116MOL0     H15645   9.735   2.994   6.360 -0.6476 -1.2945  1.3679
  116MOL0     H15646   9.721   3.217   6.075  0.1640 -1.0537 -2.7562
  116MOL0     H15647   9.656   3.251   5.853  1.0135 -4.0543  1.1046
  116MOL0     H15648   9.569   3.425   5.705 -0.0072 -2.2430  1.8616
  116MOL0     H15649   9.634   3.299   5.606 -1.3210  0.5633 -0.4991
  116MOL0     H15650   9.699   3.452   5.439 -0.8585  0.3767 -1.2102
  116MOL0     H15651   9.662   3.593   5.540 -2.7949  1.4844 -1.2811
  116MOL0     H15652   9.430   3.542   5.558  0.5272  1.4981 -0.3440
  116MOL0     H15653   9.432   3.392   5.475 -3.8591  1.7206  2.8185
  116MOL0     H15654   9.446   3.665   5.366 -0.8229  0.5074 -1.7060
  116MOL0     H15655   9.530   3.543   5.285  0.1065  0.0193  0.4197
  116MOL0     H15656   9.119   3.422   5.200 -0.7185  0.9120  1.0294
  116MOL0     H15657   9.986   3.516   5.802  1.8583 -0.4646  0.6431
  116MOL0     H15658  10.092   3.553   6.133  0.9323  0.4871  0.4138
  116MOL0     H15659  10.175   3.418   6.043  1.4228  1.4655 -3.0663
  116MOL0     H15660  10.136   3.566   5.960  3.4484 -1.7237 -0.0180
  117MOL0     O15661   4.785   2.167   7.393  0.2291  0.1731 -0.1763
  117MOL0     C15662   4.760   2.200   7.272 -0.1125 -0.9051  0.7978
  117MOL0     O15663   4.846   2.270   7.194 -0.2858 -0.4823 -0.0098
  117MOL0     C15664   4.967   2.320   7.243 -0.0060 -0.2497 -0.2652
  117MOL0     C15665   5.040   2.310   7.368 -0.2231  0.0145  0.5031
  117MOL0     C15666   5.177   2.350   7.369  0.3922 -0.1751 -0.9649
  117MOL0     C15667   5.235   2.419   7.260  0.7704 -0.3814 -0.2332
  117MOL0     O15668   5.367   2.457   7.268  0.3431  0.6620  0.3921
  117MOL0     C15669   5.388   2.555   7.369 -0.0988 -1.2015 -0.5159
  117MOL0     C15670   5.337   2.690   7.315  0.4030  0.5051 -0.3373
  117MOL0     C15671   5.368   2.815   7.409  0.1682  0.4009 -0.3569
  117MOL0     C15672   5.405   2.941   7.315 -0.4125 -0.1679 -0.3792
  117MOL0     C15673   5.390   3.067   7.392  0.1779  0.4561 -0.8875
  117MOL0     C15674   5.506   3.078   7.489 -0.1350 -0.9461 -0.0600
  117MOL0     C15675   5.514   3.213   7.567 -0.2948 -1.2646 -0.4359
  117MOL0     C15676   5.411   3.224   7.674  1.0671 -0.7442 -0.6970
  117MOL0     N15677   5.425   3.349   7.757 -0.2042 -0.0322  0.0614
  117MOL0     C15678   5.410   3.479   7.728 -0.2385 -0.0707  0.0104
  117MOL0     C15679   5.448   3.548   7.842  0.8615 -0.1017 -0.2357
  117MOL0     C15680   5.454   3.698   7.858  0.0978 -0.7689  0.0955
  117MOL0     C15681   5.381   3.777   7.747  0.6662 -0.5510 -0.6003
  117MOL0     C15682   5.223   3.757   7.736 -0.0507  0.0770  0.2512
  117MOL0     C15683   5.156   3.819   7.615  0.5067 -0.1470 -0.1577
  117MOL0     O15684   5.238   3.810   7.495  0.0181 -0.5513  0.2378
  117MOL0     C15685   5.246   3.684   7.439  0.0401 -0.0007  0.3367
  117MOL0     C15686   5.375   3.658   7.373  0.9508 -0.2152  0.7250
  117MOL0     C15687   5.396   3.551   7.288  0.4386  0.0719  0.6193
  117MOL0     C15688   5.299   3.452   7.271 -0.3490 -0.2596  0.1290
  117MOL0     C15689   5.329   3.347   7.172  0.4302 -0.0569 -0.5465
  117MOL0     O15690   5.442   3.344   7.104 -1.0005 -0.0806  0.6201
  117MOL0     C15691   5.452   3.259   6.989  0.2752 -0.3732 -0.8242
  117MOL0     C15692   5.481   3.320   6.867 -0.3001  0.4216  0.1638
  117MOL0     C15693   5.468   3.247   6.751  0.0697  0.6817 -0.7985
  117MOL0     C15694   5.450   3.110   6.762 -0.1554 -0.3427 -0.3243
  117MOL0     O15695   5.444   3.046   6.639  0.8251 -0.4570  0.1800
  117MOL0     C15696   5.328   2.962   6.617 -0.7558  0.2309  0.2561
  117MOL0     C15697   5.324   2.955   6.464 -0.1152 -0.7038  0.2746
  117MOL0     C15698   5.442   2.886   6.405  0.1479 -0.2641  0.1350
  117MOL0     C15699   5.419   2.734   6.408 -0.0556 -0.5447  0.0536
  117MOL0     C15700   5.538   2.654   6.346  0.5282  0.3141  0.2017
  117MOL0     C15701   5.495   2.505   6.301  0.2868 -0.4030 -0.5414
  117MOL0     C15702   5.612   2.423   6.268  0.2855 -0.8585  0.1394
  117MOL0     C15703   5.584   2.286   6.213  0.1319  0.7261 -1.2943
  117MOL0    Cl15704   5.530   2.182   6.352 -0.0176 -0.3744 -0.0389
  117MOL0     C15705   5.434   3.049   6.881  1.2733  0.6847 -0.7869
  117MOL0     C15706   5.439   3.116   7.001 -0.1095 -0.7503 -0.2372
  117MOL0     O15707   5.229   3.278   7.144  0.1628  0.3361 -1.2557
  117MOL0     C15708   5.176   3.473   7.339  0.2927 -0.4992  0.1181
  117MOL0     C15709   5.144   3.593   7.413  0.0976 -0.0899 -1.1101
  117MOL0     N15710   5.482   3.454   7.937 -0.0251  0.2874  0.1278
  117MOL0     N15711   5.461   3.330   7.888  0.7307  0.0994 -0.2121
  117MOL0     C15712   5.167   2.434   7.147 -0.3222  0.5620 -0.3587
  117MOL0     C15713   5.033   2.378   7.136 -0.7472  0.8430  0.1967
  117MOL0     C15714   4.632   2.149   7.211 -0.6956 -0.3689 -0.0139
  117MOL0     C15715   4.582   2.031   7.267  0.1117  0.2509  0.3561
  117MOL0     C15716   4.465   1.970   7.212  0.6832  0.6501  0.2358
  117MOL0     C15717   4.399   2.029   7.108 -0.7529 -1.2630  0.6031
  117MOL0     O15718   4.279   1.975   7.072 -0.2577 -0.5081  0.5597
  117MOL0     C15719   4.171   2.079   7.053  0.5637 -0.0965  0.2122
  117MOL0     C15720   4.053   2.033   7.150 -1.0835 -0.4236 -0.2785
  117MOL0     C15721   3.995   1.914   7.093  0.5346  0.8253 -0.9187
  117MOL0     C15722   3.887   1.857   7.188 -0.5325 -0.0446 -0.6843
  117MOL0     C15723   3.937   1.783   7.306 -0.0481  0.3932 -0.8758
  117MOL0     C15724   3.966   1.721   7.400 -0.3984  0.3328  0.0851
  117MOL0     C15725   4.457   2.145   7.054  0.7219 -0.7387 -1.0874
  117MOL0     C15726   4.578   2.203   7.096  0.1739 -0.4772 -0.0901
  117MOL0     C15727   4.631   2.333   7.025 -0.0648 -0.3718  0.3677
  117MOL0     H15728   4.986   2.270   7.453 -1.1549 -0.0487 -0.0920
  117MOL0     H15729   5.240   2.345   7.458 -0.6702  0.3096 -0.1579
  117MOL0     H15730   5.337   2.529   7.462  3.0236  0.0844  1.7298
  117MOL0     H15731   5.497   2.558   7.384 -0.2438  0.2231  0.4737
  117MOL0     H15732   5.228   2.693   7.308  0.4391  0.5513 -0.9005
  117MOL0     H15733   5.361   2.701   7.209  0.0885 -1.9055 -0.6961
  117MOL0     H15734   5.450   2.785   7.476  0.1675  0.4456 -0.3360
  117MOL0     H15735   5.280   2.836   7.470 -0.9849  1.0290 -2.1655
  117MOL0     H15736   5.509   2.936   7.281  0.2353  4.3047  0.2762
  117MOL0     H15737   5.335   2.944   7.232 -1.5913 -0.2925  0.5794
  117MOL0     H15738   5.399   3.151   7.322  1.6799 -0.6446 -2.1055
  117MOL0     H15739   5.298   3.075   7.450  0.3557  0.2897 -0.5812
  117MOL0     H15740   5.497   2.998   7.563 -0.9308 -0.4679  0.3728
  117MOL0     H15741   5.602   3.069   7.438 -1.1899 -1.7354 -2.0057
  117MOL0     H15742   5.509   3.295   7.495  2.7114 -0.6962 -0.1087
  117MOL0     H15743   5.617   3.227   7.602 -1.0710  0.7811  1.2313
  117MOL0     H15744   5.311   3.226   7.631  0.4617  0.9102  0.6629
  117MOL0     H15745   5.405   3.140   7.743 -0.6925 -0.8813 -0.9742
  117MOL0     H15746   5.386   3.533   7.637 -0.3376  0.3744  0.2975
  117MOL0     H15747   5.411   3.727   7.954  1.4354 -1.0861  0.8111
  117MOL0     H15748   5.561   3.718   7.853  0.3109 -2.0163 -1.2582
  117MOL0     H15749   5.393   3.880   7.781  0.5977 -0.5524 -0.5715
  117MOL0     H15750   5.434   3.761   7.653  1.9483  2.7465 -0.5589
  117MOL0     H15751   5.174   3.781   7.831  1.1921 -1.6333  1.3944
  117MOL0     H15752   5.209   3.652   7.709 -0.4217  0.5363 -1.4374
  117MOL0     H15753   5.150   3.926   7.632 -2.0413  0.2907 -2.9105
  117MOL0     H15754   5.058   3.773   7.604  1.0339 -0.6985 -4.4618
  117MOL0     H15755   5.450   3.735   7.388  0.6799  0.0261  0.8392
  117MOL0     H15756   5.490   3.543   7.235 -0.5365 -0.6854 -1.0824
  117MOL0     H15757   5.488   3.428   6.879 -4.3128  0.7409  1.0659
  117MOL0     H15758   5.488   3.293   6.655 -1.8873  1.3676 -0.9127
  117MOL0     H15759   5.353   2.860   6.647  0.8787  1.1146  2.1102
  117MOL0     H15760   5.241   2.993   6.675 -2.2038 -2.0529 -0.5993
  117MOL0     H15761   5.228   2.911   6.434 -0.5338  0.6703 -0.5175
  117MOL0     H15762   5.308   3.059   6.431 -4.2300 -0.9715  0.8888
  117MOL0     H15763   5.441   2.929   6.304  0.6547  1.1217  0.7053
  117MOL0     H15764   5.537   2.914   6.449 -0.8733  3.5219  0.3002
  117MOL0     H15765   5.324   2.710   6.359 -1.3006  0.3022  1.9379
  117MOL0     H15766   5.408   2.701   6.512  4.5963 -1.1632  0.5398
  117MOL0     H15767   5.617   2.640   6.420 -0.5405  2.0693  1.7947
  117MOL0     H15768   5.579   2.696   6.254  2.3821 -1.9040 -0.0700
  117MOL0     H15769   5.431   2.448   6.369  1.1990 -0.0535  0.6541
  117MOL0     H15770   5.431   2.520   6.214  0.4233  1.0017 -0.4174
  117MOL0     H15771   5.674   2.415   6.358 -0.4891 -0.6462  0.6939
  117MOL0     H15772   5.677   2.471   6.195 -0.4058 -0.7118 -0.3820
  117MOL0     H15773   5.510   2.276   6.133 -0.8961  0.2877 -0.3250
  117MOL0     H15774   5.682   2.250   6.180  2.0778  4.8222 -0.6389
  117MOL0     H15775   5.410   2.943   6.888 -2.9234  1.5033  0.0748
  117MOL0     H15776   5.416   3.077   7.100  3.0107 -0.4459  0.6981
  117MOL0     H15777   5.103   3.393   7.333  2.3760 -2.4598 -0.5036
  117MOL0     H15778   5.041   3.602   7.447 -0.2692 -0.0416 -2.1832
  117MOL0     H15779   5.219   2.481   7.064  2.0631 -3.1867 -1.2523
  117MOL0     H15780   4.992   2.380   7.036 -0.3779 -1.4703 -0.0646
  117MOL0     H15781   4.645   1.989   7.345  0.8623 -2.4366 -1.5303
  117MOL0     H15782   4.418   1.887   7.264 -0.6121  1.5273  0.5287
  117MOL0     H15783   4.140   2.067   6.949  0.8474 -0.8093  0.2037
  117MOL0     H15784   4.195   2.185   7.063 -4.1550  1.6421 -3.0683
  117MOL0     H15785   3.981   2.114   7.159  0.0149  0.9366 -2.7410
  117MOL0     H15786   4.097   2.000   7.245 -0.9458 -0.4002 -0.3339
  117MOL0     H15787   4.070   1.842   7.062  1.3738  0.4504  1.7038
  117MOL0     H15788   3.935   1.943   7.007 -0.6523  0.0496 -0.3832
  117MOL0     H15789   3.816   1.935   7.217 -3.4175 -3.2809  1.9456
  117MOL0     H15790   3.829   1.783   7.132 -0.7744 -0.3993  0.0189
  117MOL0     H15791   4.009   1.683   7.490 -0.0207  1.6513  0.4850
  117MOL0     H15792   4.405   2.195   6.972 -3.6123 -0.9736  1.2152
  117MOL0     H15793   4.562   2.360   6.945  0.2032  1.6535  0.7695
  117MOL0     H15794   4.635   2.421   7.090  0.7516  1.5246 -2.0844
  117MOL0     H15795   4.731   2.310   6.987  0.9673  1.1723  2.0052
  118MOL0     O15796   6.897   0.810   8.746  0.2280  0.3808  0.4614
  118MOL0     C15797   6.995   0.839   8.679 -0.1079  0.2194 -0.2056
  118MOL0     O15798   7.101   0.754   8.660  0.8042  0.6862 -0.7460
  118MOL0     C15799   7.097   0.610   8.677  0.1559 -1.3170  0.0314
  118MOL0     C15800   7.052   0.526   8.573  0.7560 -0.6562 -0.3330
  118MOL0     C15801   7.071   0.393   8.574 -0.2129  0.8575 -0.4537
  118MOL0     C15802   7.143   0.342   8.678 -0.0423  1.4150 -0.9413
  118MOL0     O15803   7.172   0.208   8.668  0.2406 -0.8426  0.1918
  118MOL0     C15804   7.165   0.137   8.796 -0.7469 -0.1809  0.0955
  118MOL0     C15805   7.112  -0.003   8.768  0.1017 -0.4276 -0.1969
  118MOL0     C15806   7.078  -0.080   8.900 -0.3244 -0.6062 -0.4357
  118MOL0     C15807   7.147  -0.220   8.915 -0.0473 -0.2504 -0.4603
  118MOL0     C15808   7.103  -0.299   9.042 -0.3539 -0.6139  0.2280
  118MOL0     C15809   7.193  -0.419   9.070  0.3252 -0.8754  0.6515
  118MOL0     C15810   7.157  -0.532   8.970  0.5455  0.1617  0.6068
  118MOL0     C15811   7.181  -0.667   9.041  0.1526  0.7056 -0.8362
  118MOL0     N15812   7.328  -0.699   9.052  0.7192  0.2346  0.6148
  118MOL0     C15813   7.403  -0.653   9.154  0.2956  0.3904 -0.5495
  118MOL0     C15814   7.532  -0.693   9.122 -0.5875  0.1527  0.6794
  118MOL0     C15815   7.661  -0.680   9.204  0.5602 -0.2734  0.8625
  118MOL0     C15816   7.661  -0.569   9.313  0.7009 -0.6268 -0.6117
  118MOL0     C15817   7.656  -0.637   9.460 -0.5448 -0.2740 -0.1879
  118MOL0     C15818   7.511  -0.662   9.499  0.0529  0.2152 -0.6182
  118MOL0     O15819   7.453  -0.532   9.514  0.2450 -0.2847 -0.4051
  118MOL0     C15820   7.315  -0.525   9.510  0.0736  0.0094 -0.5707
  118MOL0     C15821   7.244  -0.639   9.542 -0.6652  0.3560  0.3364
  118MOL0     C15822   7.109  -0.641   9.553 -0.8349  0.5717 -0.4147
  118MOL0     C15823   7.034  -0.515   9.529  0.1403  0.3817 -0.9510
  118MOL0     C15824   6.885  -0.494   9.540  0.1431 -0.3778 -0.5230
  118MOL0     O15825   6.832  -0.376   9.493 -0.4524 -0.6757  0.1997
  118MOL0     C15826   6.704  -0.347   9.484  0.3201  0.4225 -0.4630
  118MOL0     C15827   6.591  -0.425   9.535 -0.6408  0.0232  0.5540
  118MOL0     C15828   6.466  -0.376   9.515 -0.5996 -0.5973  0.1126
  118MOL0     C15829   6.444  -0.242   9.467  0.2891 -0.1137 -0.9707
  118MOL0     O15830   6.311  -0.198   9.486  0.2865  0.1329 -0.5718
  118MOL0     C15831   6.280  -0.058   9.491  0.4195 -0.3079 -0.2363
  118MOL0     C15832   6.129  -0.028   9.490 -1.0876 -0.2965  0.3035
  118MOL0     C15833   6.083   0.125   9.497 -0.4398 -0.6580  0.3322
  118MOL0     C15834   6.124   0.202   9.368 -0.4481  0.0615  0.0362
  118MOL0     C15835   6.078   0.354   9.376 -0.3778  0.5691 -0.0767
  118MOL0     C15836   6.112   0.436   9.256 -0.2283 -0.3146  0.6122
  118MOL0     C15837   6.085   0.589   9.281 -0.3226 -0.2029  0.1204
  118MOL0     C15838   6.025   0.663   9.156 -0.5350  0.1300 -1.0744
  118MOL0    Cl15839   6.120   0.635   9.017 -0.3827  0.1606 -0.0362
  118MOL0     C15840   6.560  -0.166   9.429  0.3116 -0.3195 -0.8442
  118MOL0     C15841   6.687  -0.223   9.424  0.9113  0.2005 -0.5626
  118MOL0     O15842   6.819  -0.596   9.554 -0.3169 -0.3669 -0.4853
  118MOL0     C15843   7.112  -0.414   9.487  1.3952 -0.9990  0.4224
  118MOL0     C15844   7.244  -0.410   9.479 -0.5074  0.7366 -0.2777
  118MOL0     N15845   7.524  -0.759   9.003  0.2834  0.3478  0.6770
  118MOL0     N15846   7.404  -0.753   8.953  0.3418 -0.4846 -0.4981
  118MOL0     C15847   7.184   0.413   8.792 -0.0871 -0.1861  1.1444
  118MOL0     C15848   7.166   0.554   8.790  0.2922 -0.2205  1.0945
  118MOL0     C15849   6.993   0.976   8.606 -0.7242 -0.0976  0.8951
  118MOL0     C15850   7.119   1.030   8.570 -0.4317  0.4590  0.3017
  118MOL0     C15851   7.139   1.143   8.494  0.7965  0.0173 -0.0208
  118MOL0     C15852   7.030   1.201   8.437  0.3880 -1.1071 -0.1409
  118MOL0     O15853   7.052   1.308   8.350  0.3191  0.5146  0.7422
  118MOL0     C15854   6.974   1.426   8.338  0.7370 -0.4624  0.0421
  118MOL0     C15855   7.070   1.526   8.274 -0.6592  0.1703 -2.0046
  118MOL0     C15856   7.007   1.653   8.226 -0.4056 -0.2107 -0.8209
  118MOL0     C15857   7.032   1.765   8.332 -0.4898 -0.0584  0.1507
  118MOL0     C15858   6.964   1.886   8.283 -0.3988  0.8064  0.5324
  118MOL0     C15859   6.927   1.989   8.225 -0.1568 -0.0681  0.4190
  118MOL0     C15860   6.895   1.166   8.479  0.7496  0.6245  0.9006
  118MOL0     C15861   6.875   1.056   8.563  0.8288 -0.1319  0.1934
  118MOL0     C15862   6.741   1.008   8.596  0.7379 -0.0749 -0.2716
  118MOL0     H15863   7.008   0.574   8.486  3.0899 -0.1922 -1.3308
  118MOL0     H15864   7.036   0.329   8.494 -2.4801  2.9640 -1.2617
  118MOL0     H15865   7.260   0.123   8.848 -1.1698  4.2775  2.6164
  118MOL0     H15866   7.095   0.195   8.858  1.1531  1.8173  0.5287
  118MOL0     H15867   7.187  -0.056   8.709 -0.8798 -1.9438 -0.1380
  118MOL0     H15868   7.022   0.001   8.705  0.3326 -1.2773 -0.5863
  118MOL0     H15869   6.970  -0.100   8.905 -0.1408 -1.4199  0.8336
  118MOL0     H15870   7.098  -0.016   8.986  0.2776 -2.1047  0.5874
  118MOL0     H15871   7.126  -0.277   8.824 -0.7231 -0.3546 -0.2420
  118MOL0     H15872   7.255  -0.203   8.914  0.0115 -0.6240 -1.6606
  118MOL0     H15873   7.089  -0.231   9.127 -1.0675  0.2247 -0.5303
  118MOL0     H15874   6.997  -0.325   9.030 -0.6263  0.9606 -1.1200
  118MOL0     H15875   7.302  -0.405   9.075  0.7509 -2.9113 -1.3770
  118MOL0     H15876   7.172  -0.449   9.173 -1.7446  0.5994  0.7097
  118MOL0     H15877   7.209  -0.531   8.874 -2.9455 -0.1094 -1.4736
  118MOL0     H15878   7.049  -0.532   8.953  0.7708 -0.4386 -0.9912
  118MOL0     H15879   7.137  -0.654   9.140 -0.0411 -0.9329 -0.6908
  118MOL0     H15880   7.132  -0.750   8.989  2.0362 -1.6967  0.9841
  118MOL0     H15881   7.379  -0.598   9.244  0.1120  1.5015 -1.2621
  118MOL0     H15882   7.669  -0.777   9.254 -1.9727 -2.1719 -2.0133
  118MOL0     H15883   7.738  -0.659   9.128  0.4574 -0.4741  0.7007
  118MOL0     H15884   7.751  -0.507   9.307  1.4286 -1.7929 -3.4403
  118MOL0     H15885   7.575  -0.505   9.292  0.1315 -1.2116 -0.1101
  118MOL0     H15886   7.708  -0.580   9.537  0.6342 -1.5738  0.0204
  118MOL0     H15887   7.709  -0.733   9.461 -2.6900 -1.6568  3.8100
  118MOL0     H15888   7.513  -0.701   9.601  1.4445  3.4994  0.7486
  118MOL0     H15889   7.462  -0.732   9.431  0.0624 -2.6298  2.0644
  118MOL0     H15890   7.284  -0.735   9.572 -2.6094 -0.4416  0.5240
  118MOL0     H15891   7.065  -0.734   9.587 -0.4578  1.1415  1.7745
  118MOL0     H15892   6.601  -0.523   9.580  1.7746 -0.0283  0.0191
  118MOL0     H15893   6.377  -0.430   9.545  0.3745 -0.5013  3.6055
  118MOL0     H15894   6.338  -0.013   9.572 -1.1579  1.8629 -0.2383
  118MOL0     H15895   6.315  -0.002   9.404 -3.3024  1.1683 -0.9555
  118MOL0     H15896   6.089  -0.079   9.401 -1.5330  1.3468 -0.4775
  118MOL0     H15897   6.098  -0.076   9.583  1.7386  1.9473  2.6290
  118MOL0     H15898   5.975   0.141   9.485  0.2167  2.7296 -2.5545
  118MOL0     H15899   6.107   0.179   9.589 -2.3299 -0.3997  0.7284
  118MOL0     H15900   6.084   0.149   9.281  0.1661 -1.0324  0.4133
  118MOL0     H15901   6.230   0.190   9.347 -0.5946 -0.1394 -0.6192
  118MOL0     H15902   6.114   0.408   9.464 -1.5186  2.7931 -0.8856
  118MOL0     H15903   5.970   0.350   9.388 -0.5010 -0.2457 -1.2924
  118MOL0     H15904   6.217   0.429   9.225 -0.9685  0.4952 -2.4559
  118MOL0     H15905   6.051   0.400   9.173 -1.2668  3.2183 -0.3496
  118MOL0     H15906   6.171   0.651   9.310 -3.6063  4.3289  1.4367
  118MOL0     H15907   6.012   0.587   9.362 -0.3182  1.5877  0.2248
  118MOL0     H15908   5.923   0.635   9.128 -0.8294 -0.4011  0.4329
  118MOL0     H15909   5.999   0.765   9.183  0.3024  0.3213 -0.9632
  118MOL0     H15910   6.554  -0.067   9.385  2.0078 -0.4789 -1.5101
  118MOL0     H15911   6.772  -0.162   9.394 -1.0982  3.8748  0.5437
  118MOL0     H15912   7.059  -0.319   9.479 -1.0826 -2.1216  2.0662
  118MOL0     H15913   7.298  -0.319   9.454 -0.3815  1.0774  1.1528
  118MOL0     H15914   7.229   0.359   8.875  0.3088 -2.2836 -0.3722
  118MOL0     H15915   7.200   0.608   8.878  1.4377 -1.5171  1.4775
  118MOL0     H15916   7.209   0.975   8.594  0.0450  0.5700 -1.1323
  118MOL0     H15917   7.231   1.188   8.457 -0.1206 -0.5004 -3.2076
  118MOL0     H15918   6.937   1.472   8.430 -2.2389  1.9865 -2.1682
  118MOL0     H15919   6.881   1.423   8.280  1.3044 -2.0969 -0.8512
  118MOL0     H15920   7.117   1.484   8.184 -1.6963 -5.1456 -0.4056
  118MOL0     H15921   7.153   1.546   8.342 -0.7749 -2.3707 -1.0086
  118MOL0     H15922   6.898   1.645   8.218 -0.5988  1.6246 -0.4769
  118MOL0     H15923   7.049   1.683   8.130  1.7888  1.9754  0.7035
  118MOL0     H15924   6.979   1.751   8.426 -0.8976  2.4527  0.3659
  118MOL0     H15925   7.139   1.763   8.355 -1.0482 -2.2403  3.0900
  118MOL0     H15926   6.904   2.066   8.155 -1.1102 -1.7696 -1.2101
  118MOL0     H15927   6.802   1.218   8.457  1.0121  0.2047 -1.5702
  118MOL0     H15928   6.709   1.037   8.697 -2.5823 -2.3830 -0.4686
  118MOL0     H15929   6.660   1.046   8.533 -0.2828 -0.4200  0.7962
  118MOL0     H15930   6.724   0.901   8.611 -0.3137  0.5190  4.3804
  119MOL0     O15931   2.139   7.692   2.976 -0.5073 -0.1855  0.7616
  119MOL0     C15932   2.073   7.653   2.877 -0.3516  0.4402 -0.9917
  119MOL0     O15933   1.938   7.622   2.900  0.1335  0.0888  0.0527
  119MOL0     C15934   1.873   7.625   3.021 -0.6107 -0.5640  0.4839
  119MOL0     C15935   1.908   7.708   3.126  0.5768 -0.0119 -0.1026
  119MOL0     C15936   1.827   7.731   3.240 -0.4501  0.9021  0.1743
  119MOL0     C15937   1.713   7.653   3.253  0.6696 -1.0967 -0.4702
  119MOL0     O15938   1.634   7.654   3.363  0.2299 -1.0140 -0.3769
  119MOL0     C15939   1.610   7.785   3.424  0.0875  0.5210  0.1601
  119MOL0     C15940   1.470   7.764   3.488 -0.8269 -0.1456 -0.1054
  119MOL0     C15941   1.425   7.893   3.558 -0.8009  0.2552  0.3173
  119MOL0     C15942   1.300   7.864   3.653 -0.5922 -0.6305 -1.3975
  119MOL0     C15943   1.246   8.000   3.702  0.3291  0.5430  0.0216
  119MOL0     C15944   1.123   7.955   3.782  0.3077 -0.3289  0.2114
  119MOL0     C15945   1.034   8.080   3.830  0.1735 -0.1311  0.7392
  119MOL0     C15946   0.937   8.117   3.713 -0.5848 -0.3917 -0.3526
  119MOL0     N15947   0.827   8.013   3.711  0.0429 -0.6612 -0.5786
  119MOL0     C15948   0.701   8.047   3.740  0.1636  0.5644 -0.5652
  119MOL0     C15949   0.620   7.939   3.708 -0.6931 -0.0550 -0.5119
  119MOL0     C15950   0.474   7.917   3.752 -0.1190  0.6669  0.1407
  119MOL0     C15951   0.450   7.877   3.897 -0.9611  0.1108 -0.0748
  119MOL0     C15952   0.568   7.911   3.996  0.2986  0.4093  0.1760
  119MOL0     C15953   0.519   7.907   4.143 -0.3257  0.5905  0.1918
  119MOL0     O15954   0.535   7.778   4.199 -1.0188 -0.4280  0.6294
  119MOL0     C15955   0.674   7.763   4.228 -0.0626 -0.2351  0.2891
  119MOL0     C15956   0.783   7.843   4.189  0.1562  0.0742  0.5912
  119MOL0     C15957   0.919   7.806   4.229  0.6281  0.5229  0.2647
  119MOL0     C15958   0.945   7.688   4.306  0.6284  0.3176  1.0390
  119MOL0     C15959   1.077   7.659   4.363 -0.4177 -0.0024 -0.4860
  119MOL0     O15960   1.176   7.747   4.338 -0.3199 -0.1046  0.7518
  119MOL0     C15961   1.301   7.711   4.319 -0.7021 -0.4400 -0.1134
  119MOL0     C15962   1.397   7.806   4.350 -0.8720 -0.2020  0.9976
  119MOL0     C15963   1.537   7.774   4.353  0.5044 -0.5842 -0.6892
  119MOL0     C15964   1.575   7.641   4.335  0.1224  0.2301  0.2832
  119MOL0     O15965   1.710   7.615   4.333  0.8091  0.4800 -0.0203
  119MOL0     C15966   1.767   7.493   4.314  0.6749  0.8225  1.4830
  119MOL0     C15967   1.907   7.500   4.362  0.0852  1.1294 -0.1557
  119MOL0     C15968   1.907   7.499   4.512  0.3448 -0.3186  0.1423
  119MOL0     C15969   2.043   7.498   4.581  0.7547 -0.1790 -0.1965
  119MOL0     C15970   2.030   7.468   4.730  0.1076 -0.3032  0.3139
  119MOL0     C15971   2.171   7.449   4.790 -0.9697 -0.4575  0.1717
  119MOL0     C15972   2.170   7.445   4.946  0.0482 -0.3009  0.2744
  119MOL0     C15973   2.236   7.563   5.018  0.0864 -0.3500 -0.0259
  119MOL0    Cl15974   2.124   7.684   5.043  0.5204 -0.1079  0.3355
  119MOL0     C15975   1.476   7.542   4.285  0.7152  0.2809  1.2552
  119MOL0     C15976   1.340   7.587   4.273 -0.4520  0.0534  0.4184
  119MOL0     O15977   1.106   7.554   4.418  0.3735  0.8899 -0.4726
  119MOL0     C15978   0.836   7.611   4.342  0.0527 -0.3041  0.3369
  119MOL0     C15979   0.699   7.653   4.306  0.3780  0.2409 -0.2134
  119MOL0     N15980   0.714   7.842   3.665  1.3498  0.5209  0.6442
  119MOL0     N15981   0.827   7.894   3.662  0.1301  0.1856  0.0456
  119MOL0     C15982   1.678   7.562   3.155  0.5745 -0.4715 -0.5921
  119MOL0     C15983   1.759   7.549   3.042 -0.2297  0.3256 -0.2692
  119MOL0     C15984   2.138   7.654   2.745  0.7379  0.2359  0.7479
  119MOL0     C15985   2.054   7.610   2.638 -1.0718 -0.8947 -1.1049
  119MOL0     C15986   2.099   7.609   2.507  0.2132 -0.0268 -0.6236
  119MOL0     C15987   2.231   7.649   2.475 -0.1149 -0.2041 -0.8283
  119MOL0     O15988   2.259   7.681   2.347  0.2105 -0.5086 -0.6896
  119MOL0     C15989   2.369   7.596   2.305  0.5410  0.1342  0.1283
  119MOL0     C15990   2.369   7.592   2.155  0.0646  0.2648  0.7154
  119MOL0     C15991   2.425   7.729   2.098 -0.5913  0.6719 -0.2201
  119MOL0     C15992   2.463   7.726   1.950  1.1142 -1.0710 -0.3900
  119MOL0     C15993   2.563   7.643   1.888 -0.3088  0.2231  0.6839
  119MOL0     C15994   2.652   7.579   1.841 -0.7111  0.7205 -0.1380
  119MOL0     C15995   2.311   7.685   2.583 -0.9169  1.0873 -0.3630
  119MOL0     C15996   2.270   7.683   2.717 -0.7846 -0.6674  1.5369
  119MOL0     C15997   2.367   7.718   2.827  1.0330  0.3481 -0.5510
  119MOL0     H15998   1.995   7.773   3.117  0.8947 -0.5571 -1.2568
  119MOL0     H15999   1.850   7.794   3.324 -3.9296 -1.4878  3.2733
  119MOL0     H16000   1.681   7.818   3.501  0.6057 -0.6515  0.2033
  119MOL0     H16001   1.611   7.862   3.347 -0.5561  0.3328 -0.0379
  119MOL0     H16002   1.485   7.686   3.563 -0.3508  0.4261  0.4065
  119MOL0     H16003   1.398   7.724   3.416  1.6016 -3.2115 -1.0919
  119MOL0     H16004   1.416   7.961   3.473  2.6638 -1.3521 -1.5722
  119MOL0     H16005   1.502   7.926   3.629  0.6168 -4.1473  1.1644
  119MOL0     H16006   1.233   7.795   3.601  0.2918 -2.7869  0.1787
  119MOL0     H16007   1.320   7.807   3.744 -1.7481 -0.5566 -1.0876
  119MOL0     H16008   1.315   8.051   3.770 -1.4032  1.5419  1.0892
  119MOL0     H16009   1.220   8.062   3.616 -2.2628 -3.3463 -2.3374
  119MOL0     H16010   1.070   7.883   3.720 -0.5651  0.8375 -0.4493
  119MOL0     H16011   1.152   7.901   3.872  0.6398  0.9737  0.9051
  119MOL0     H16012   1.106   8.159   3.855 -0.8853  0.6207  1.4678
  119MOL0     H16013   0.961   8.067   3.910 -1.6893  2.8316 -0.3124
  119MOL0     H16014   0.901   8.217   3.740  2.3130  0.5003  0.6293
  119MOL0     H16015   0.989   8.135   3.619 -1.9535  2.0147 -0.7403
  119MOL0     H16016   0.673   8.145   3.775 -0.4098  0.4825 -0.7934
  119MOL0     H16017   0.418   8.008   3.729  0.0444  0.7959  0.2443
  119MOL0     H16018   0.431   7.838   3.690  2.2717 -0.9752  0.4521
  119MOL0     H16019   0.367   7.943   3.923  1.1587  2.6195  0.7778
  119MOL0     H16020   0.440   7.768   3.898  1.3802 -0.1556  1.2438
  119MOL0     H16021   0.606   8.012   3.978 -1.3847  0.9216 -0.7304
  119MOL0     H16022   0.662   7.856   3.988 -0.0036 -0.1017  0.1535
  119MOL0     H16023   0.418   7.949   4.146 -0.5993 -0.0564  0.1063
  119MOL0     H16024   0.574   7.980   4.204  2.1453 -1.3620  0.4696
  119MOL0     H16025   0.783   7.938   4.136  1.0586 -0.6698 -0.7892
  119MOL0     H16026   1.004   7.867   4.200  3.4560 -3.8536 -1.6785
  119MOL0     H16027   1.360   7.904   4.379 -4.0964 -0.6957 -0.9539
  119MOL0     H16028   1.614   7.846   4.379 -0.4120 -0.0403  0.5853
  119MOL0     H16029   1.710   7.415   4.366 -1.7992  1.0928 -0.6373
  119MOL0     H16030   1.766   7.469   4.208  1.2106  1.1308  1.4043
  119MOL0     H16031   1.958   7.411   4.326  1.1305  0.9097  1.7340
  119MOL0     H16032   1.954   7.586   4.312 -1.7257 -0.0274 -4.1852
  119MOL0     H16033   1.849   7.583   4.552 -4.0016 -2.9489 -0.0015
  119MOL0     H16034   1.862   7.403   4.542 -3.1010  0.7695 -1.0743
  119MOL0     H16035   2.098   7.592   4.577  0.3497  0.2039  1.9644
  119MOL0     H16036   2.096   7.416   4.532 -1.0739 -1.2377 -0.5191
  119MOL0     H16037   1.971   7.377   4.745 -2.7870  1.2428 -0.8310
  119MOL0     H16038   1.967   7.550   4.766 -2.0162  0.4517 -4.4799
  119MOL0     H16039   2.220   7.367   4.737 -2.4738 -1.2158 -0.1116
  119MOL0     H16040   2.231   7.537   4.766 -1.3963  0.3607  1.9576
  119MOL0     H16041   2.226   7.359   4.985 -1.4708 -2.7822 -2.5448
  119MOL0     H16042   2.068   7.423   4.979  0.1637  0.1977  0.9737
  119MOL0     H16043   2.272   7.532   5.117 -2.8477 -0.2343  1.1721
  119MOL0     H16044   2.318   7.605   4.958 -1.6688  2.3533 -0.7111
  119MOL0     H16045   1.504   7.439   4.264 -0.3750 -0.0938  1.5694
  119MOL0     H16046   1.270   7.515   4.232  0.8318 -1.1474  0.2425
  119MOL0     H16047   0.847   7.516   4.393  0.2779 -0.7735 -0.5621
  119MOL0     H16048   0.614   7.593   4.336  0.1978  0.0031 -1.1794
  119MOL0     H16049   1.586   7.505   3.164 -0.7661  1.8615  2.0883
  119MOL0     H16050   1.731   7.481   2.962 -2.2702 -2.9677  2.9055
  119MOL0     H16051   1.949   7.588   2.651 -1.2235  0.3944  0.1859
  119MOL0     H16052   2.022   7.590   2.433 -0.4560 -0.8480  0.2513
  119MOL0     H16053   2.352   7.497   2.347  2.5980 -0.6398 -0.7474
  119MOL0     H16054   2.467   7.629   2.339  2.2487 -2.0110 -2.3035
  119MOL0     H16055   2.270   7.579   2.109 -1.7839  0.6938  4.2287
  119MOL0     H16056   2.427   7.508   2.117 -1.2632 -0.5747  0.4728
  119MOL0     H16057   2.520   7.759   2.143 -1.3768 -1.7051  3.5513
  119MOL0     H16058   2.346   7.803   2.115 -3.4309 -2.2942  0.6092
  119MOL0     H16059   2.372   7.699   1.897  0.0395  2.1639 -0.4262
  119MOL0     H16060   2.473   7.830   1.917  1.3062 -0.3076  1.8509
  119MOL0     H16061   2.730   7.513   1.808 -1.3411 -2.3463  3.7942
  119MOL0     H16062   2.414   7.711   2.559 -0.2604 -1.3114 -0.4089
  119MOL0     H16063   2.358   7.643   2.906 -2.4759  1.6227  0.4654
  119MOL0     H16064   2.468   7.720   2.785  2.0859 -3.8008  1.2556
  119MOL0     H16065   2.333   7.816   2.862  0.2481  0.5684 -1.8323
  120MOL0     O16066   7.292   4.042   9.096  0.1985  0.1863 -0.0572
  120MOL0     C16067   7.282   4.068   9.213  0.5189  0.3265 -0.1870
  120MOL0     O16068   7.374   4.072   9.309 -0.1354 -0.5904 -0.8869
  120MOL0     C16069   7.513   4.051   9.288 -0.2441  0.4134 -0.4784
  120MOL0     C16070   7.593   4.053   9.408 -0.0599 -0.6672  0.2833
  120MOL0     C16071   7.732   4.038   9.415 -0.0016  0.3691 -0.3686
  120MOL0     C16072   7.800   3.998   9.299 -0.3264  0.0093 -0.0732
  120MOL0     O16073   7.938   3.956   9.287 -0.2688  0.0907 -0.2348
  120MOL0     C16074   8.010   3.957   9.411  0.2392  0.0446  0.0368
  120MOL0     C16075   8.133   3.877   9.391  0.1602  0.0433  0.5423
  120MOL0     C16076   8.224   3.876   9.517 -0.0733  0.2038 -0.2352
  120MOL0     C16077   8.314   4.001   9.528  0.9982  0.8497 -0.4958
  120MOL0     C16078   8.466   3.962   9.499  0.5533 -0.3729 -0.5567
  120MOL0     C16079   8.526   3.890   9.623 -0.7007 -0.2016 -0.6086
  120MOL0     C16080   8.676   3.871   9.599  0.5155 -0.3587  0.1786
  120MOL0     C16081   8.707   3.773   9.495  0.2768  0.6616 -0.4141
  120MOL0     N16082   8.850   3.750   9.489  0.1417 -0.4440 -0.3475
  120MOL0     C16083   8.958   3.843   9.502  0.1188  0.2527  0.0617
  120MOL0     C16084   9.060   3.766   9.470  0.0901 -0.5295  0.3449
  120MOL0     C16085   9.198   3.821   9.463  0.1876  0.1178 -0.5589
  120MOL0     C16086   9.302   3.741   9.540  0.1481  1.1082 -0.7669
  120MOL0     C16087   9.316   3.770   9.691 -0.6740  0.4460 -0.4321
  120MOL0     C16088   9.191   3.754   9.780  0.1135 -0.2347 -0.7941
  120MOL0     O16089   9.106   3.875   9.768 -0.5240  0.0749 -0.4235
  120MOL0     C16090   8.995   3.883   9.848  0.0847  0.1256  0.5984
  120MOL0     C16091   8.927   3.782   9.917 -0.0211 -0.6765 -0.4838
  120MOL0     C16092   8.807   3.810   9.981 -0.0862  0.3533 -0.4451
  120MOL0     C16093   8.747   3.934   9.966 -0.1635 -0.3021 -0.9946
  120MOL0     C16094   8.624   3.962  10.050 -0.3692 -0.3783 -0.8762
  120MOL0     O16095   8.611   3.891  10.172  0.2893  0.0499 -0.1554
  120MOL0     C16096   8.507   3.920  10.259 -0.6166 -0.4082 -0.6984
  120MOL0     C16097   8.422   3.823  10.305 -0.1200 -0.1172 -0.1237
  120MOL0     C16098   8.308   3.863  10.375 -0.0139 -0.5043  0.3281
  120MOL0     C16099   8.284   3.996  10.409  1.0112 -0.9733 -0.6860
  120MOL0     O16100   8.168   4.026  10.478  0.5890  0.1678 -0.1299
  120MOL0     C16101   8.124   4.162  10.507  0.3545 -0.9349  0.7761
  120MOL0     C16102   8.015   4.147  10.610  0.2306 -0.4249 -0.1567
  120MOL0     C16103   7.911   4.255  10.618  0.1852 -0.3616  0.5755
  120MOL0     C16104   7.829   4.251  10.746  0.5633  0.4020 -0.5583
  120MOL0     C16105   7.710   4.346  10.764  0.0823  0.1221 -0.1781
  120MOL0     C16106   7.734   4.493  10.725 -0.3474  0.6496  0.1348
  120MOL0     C16107   7.620   4.595  10.766 -0.0918  0.1677 -0.0432
  120MOL0     C16108   7.604   4.721  10.681 -0.4979 -0.4337 -0.0025
  120MOL0    Cl16109   7.587   4.681  10.500  0.0233  0.6089 -0.2025
  120MOL0     C16110   8.392   4.090  10.390 -0.1405 -0.4002  0.1177
  120MOL0     C16111   8.497   4.055  10.308  1.5786  0.5793  0.2130
  120MOL0     O16112   8.543   4.047  10.007  0.7037  0.4165  0.4631
  120MOL0     C16113   8.816   4.038   9.897  0.0304  0.1894 -0.5842
  120MOL0     C16114   8.946   4.010   9.847  1.4160  0.2553  0.5413
  120MOL0     N16115   9.024   3.635   9.428  0.0569  0.0535 -0.2887
  120MOL0     N16116   8.895   3.622   9.452  0.1231 -0.5022  0.0321
  120MOL0     C16117   7.727   4.007   9.179 -0.6935  0.4596  0.6774
  120MOL0     C16118   7.590   4.030   9.174  0.7662 -1.1437 -0.2088
  120MOL0     C16119   7.151   4.092   9.268  0.4030 -0.2297 -0.4010
  120MOL0     C16120   7.136   4.174   9.381  0.6305  0.1260 -0.5359
  120MOL0     C16121   7.003   4.198   9.439 -0.2898  0.2627  0.3167
  120MOL0     C16122   6.886   4.161   9.372 -1.5257 -0.2961 -0.6284
  120MOL0     O16123   6.769   4.190   9.431  0.3396 -0.3304  0.3178
  120MOL0     C16124   6.650   4.180   9.344  0.1798 -0.0644  0.7777
  120MOL0     C16125   6.526   4.245   9.411  0.5049 -0.0136  0.3994
  120MOL0     C16126   6.447   4.140   9.491 -0.3874  0.4414  0.2449
  120MOL0     C16127   6.306   4.189   9.531 -0.5920  0.0162  0.3170
  120MOL0     C16128   6.216   4.070   9.569 -0.4300  0.9054 -0.3075
  120MOL0     C16129   6.149   3.966   9.573 -0.6369 -0.1116 -0.0623
  120MOL0     C16130   6.902   4.091   9.253  0.0193 -0.0314  0.6112
  120MOL0     C16131   7.030   4.050   9.207 -1.9718 -0.0353  0.4667
  120MOL0     C16132   7.025   3.964   9.081  0.6979 -0.4439 -0.1091
  120MOL0     H16133   7.537   4.081   9.496 -0.3477  1.4299 -0.5212
  120MOL0     H16134   7.784   4.044   9.510 -0.2766 -1.6323 -0.0505
  120MOL0     H16135   8.026   4.059   9.446 -3.8497  0.8589 -0.0109
  120MOL0     H16136   7.947   3.914   9.490  2.3176  3.4952  4.0499
  120MOL0     H16137   8.186   3.934   9.314 -3.7996  1.0589 -1.7445
  120MOL0     H16138   8.111   3.775   9.359 -2.1412 -0.9130  4.5348
  120MOL0     H16139   8.290   3.790   9.530 -0.6933 -0.1091  0.9390
  120MOL0     H16140   8.159   3.871   9.604  0.0570 -2.1693 -0.2167
  120MOL0     H16141   8.295   4.077   9.452 -0.2482 -1.6865 -2.8977
  120MOL0     H16142   8.298   4.043   9.628  0.3831  0.2073 -0.3167
  120MOL0     H16143   8.488   3.919   9.401 -0.3346  2.3419 -2.0683
  120MOL0     H16144   8.512   4.061   9.486 -0.3172  0.0196 -0.7104
  120MOL0     H16145   8.505   3.953   9.710  0.5413 -1.1849  0.4352
  120MOL0     H16146   8.471   3.796   9.635  0.5004 -1.0581 -1.6153
  120MOL0     H16147   8.720   3.855   9.698 -0.1929  0.6411  0.6802
  120MOL0     H16148   8.717   3.968   9.568 -0.1805 -0.1958 -0.2713
  120MOL0     H16149   8.656   3.680   9.520 -2.3783  2.0611 -0.2417
  120MOL0     H16150   8.681   3.808   9.394  0.0179  3.5783  0.5631
  120MOL0     H16151   8.963   3.947   9.530  0.3921 -0.0548  1.2047
  120MOL0     H16152   9.229   3.835   9.359  0.2287  1.0249 -0.4311
  120MOL0     H16153   9.199   3.919   9.512  0.8042 -0.3557  0.4047
  120MOL0     H16154   9.284   3.633   9.527  3.0648  0.1219  2.0856
  120MOL0     H16155   9.403   3.753   9.499  0.0976 -1.9616 -2.1409
  120MOL0     H16156   9.360   3.870   9.705 -0.2627  0.2732 -0.4784
  120MOL0     H16157   9.387   3.694   9.723 -1.9279 -1.6123 -2.2944
  120MOL0     H16158   9.221   3.732   9.883 -1.0262  0.4369 -0.3021
  120MOL0     H16159   9.135   3.665   9.749  1.0264 -0.6577 -1.2793
  120MOL0     H16160   8.969   3.683   9.926 -0.6059 -0.7469  2.2661
  120MOL0     H16161   8.763   3.731  10.040  1.6509  2.2002  3.7111
  120MOL0     H16162   8.449   3.723  10.271  0.7204 -0.1824  0.7130
  120MOL0     H16163   8.223   3.798  10.396 -1.7005  1.3854 -0.2637
  120MOL0     H16164   8.214   4.217  10.535  1.0848 -0.3783 -2.3783
  120MOL0     H16165   8.077   4.212  10.422 -3.4209 -2.4856  1.7149
  120MOL0     H16166   7.970   4.049  10.593  2.3434 -1.0253 -3.2457
  120MOL0     H16167   8.071   4.144  10.704  0.0067 -2.1192 -0.0530
  120MOL0     H16168   7.965   4.351  10.610 -2.6446  1.1981 -1.8467
  120MOL0     H16169   7.847   4.258  10.530  1.2299  2.3840 -0.2145
  120MOL0     H16170   7.904   4.257  10.826  0.3962 -1.3299 -0.2367
  120MOL0     H16171   7.785   4.151  10.749  0.4919  0.3435 -2.2851
  120MOL0     H16172   7.668   4.337  10.865  0.2202  0.4483 -0.0918
  120MOL0     H16173   7.631   4.306  10.700  1.5914 -2.8245 -0.3984
  120MOL0     H16174   7.827   4.513  10.779  1.4898 -0.7113 -2.2725
  120MOL0     H16175   7.765   4.504  10.621  3.1887  2.2869  1.1968
  120MOL0     H16176   7.642   4.629  10.868  0.2032  1.3848 -0.4887
  120MOL0     H16177   7.524   4.544  10.764 -0.6832  1.2277  0.3956
  120MOL0     H16178   7.517   4.773  10.722 -1.5157 -1.2756 -1.0333
  120MOL0     H16179   7.693   4.784  10.692 -1.2019  0.9618 -1.7421
  120MOL0     H16180   8.390   4.194  10.421  1.9992 -1.1149  3.0983
  120MOL0     H16181   8.562   4.130  10.265  0.7780  1.6012  0.7422
  120MOL0     H16182   8.772   4.137   9.892 -1.6231 -0.3562  1.6237
  120MOL0     H16183   8.993   4.092   9.795 -3.1946  0.9493 -3.2518
  120MOL0     H16184   7.788   3.984   9.092  0.5524  0.1455  1.5959
  120MOL0     H16185   7.545   4.035   9.076  1.7348  1.2057 -0.6187
  120MOL0     H16186   7.221   4.216   9.433  0.1123 -0.0592  0.4870
  120MOL0     H16187   6.989   4.266   9.522 -1.4440 -3.1485  3.1853
  120MOL0     H16188   6.631   4.076   9.317  2.0562  0.7126 -4.8629
  120MOL0     H16189   6.672   4.232   9.251 -0.6547 -0.3200  0.4315
  120MOL0     H16190   6.459   4.285   9.334  1.5298  0.9696 -0.0097
  120MOL0     H16191   6.558   4.324   9.479 -0.4003 -0.0736  0.9002
  120MOL0     H16192   6.500   4.106   9.581  1.3531 -1.6089 -1.4376
  120MOL0     H16193   6.445   4.047   9.434  1.3873 -0.9597  2.2791
  120MOL0     H16194   6.315   4.262   9.613  1.8292  0.8870 -0.6595
  120MOL0     H16195   6.260   4.242   9.447 -0.3069  0.0477  0.1818
  120MOL0     H16196   6.092   3.877   9.561 -0.5346 -0.4308  1.5669
  120MOL0     H16197   6.816   4.054   9.198  0.4831 -0.7540  0.3665
  120MOL0     H16198   7.093   3.878   9.084  1.0336 -0.1480  2.3322
  120MOL0     H16199   6.926   3.919   9.068  0.2607  0.8770 -1.8062
  120MOL0     H16200   7.057   4.013   8.988  1.6523  0.2325  0.5557
  121MOL0     O16201   4.453   2.063   2.533 -0.4674  0.3248  0.6246
  121MOL0     C16202   4.354   2.054   2.599 -0.5825  0.4017 -0.7192
  121MOL0     O16203   4.321   1.959   2.686  0.4004  0.1009 -0.0130
  121MOL0     C16204   4.409   1.859   2.715  0.0377  0.0421 -0.1840
  121MOL0     C16205   4.491   1.863   2.823 -0.4034 -0.1855 -0.1721
  121MOL0     C16206   4.600   1.771   2.843  0.3917  0.3544  1.1250
  121MOL0     C16207   4.621   1.678   2.746 -0.1563  1.0066 -0.6842
  121MOL0     O16208   4.728   1.592   2.757  0.2453 -0.5864 -0.0490
  121MOL0     C16209   4.706   1.452   2.766  0.4873 -0.4932 -0.0861
  121MOL0     C16210   4.671   1.427   2.915  0.6618  0.4799 -0.7496
  121MOL0     C16211   4.784   1.458   3.012 -1.0131  0.3041  0.1353
  121MOL0     C16212   4.729   1.463   3.150  0.6136  0.4607 -0.2101
  121MOL0     C16213   4.835   1.442   3.267  0.3613  0.3618  0.5803
  121MOL0     C16214   4.772   1.425   3.409 -0.3861 -0.2144  0.7897
  121MOL0     C16215   4.738   1.555   3.477  0.2869  0.2761  0.4882
  121MOL0     C16216   4.678   1.527   3.615 -0.1479  0.1967  0.0717
  121MOL0     N16217   4.533   1.527   3.606  0.3423 -0.3403 -0.2846
  121MOL0     C16218   4.463   1.411   3.586  0.3723  0.8649 -0.4323
  121MOL0     C16219   4.330   1.450   3.593 -0.7183  0.6468  0.1540
  121MOL0     C16220   4.209   1.358   3.572 -0.0972 -0.6820 -0.2851
  121MOL0     C16221   4.174   1.337   3.429 -0.1697  0.9758 -0.6715
  121MOL0     C16222   4.060   1.240   3.413  0.4679 -0.3323 -0.1137
  121MOL0     C16223   4.027   1.213   3.270  0.6008 -0.7939 -0.5034
  121MOL0     O16224   3.906   1.134   3.253 -0.6103 -1.0107  0.1598
  121MOL0     C16225   3.895   1.063   3.134 -0.0401 -0.0352  0.5357
  121MOL0     C16226   3.932   1.120   3.010 -0.2796 -0.2758 -0.4025
  121MOL0     C16227   3.936   1.031   2.902  0.3997  0.3305  0.4407
  121MOL0     C16228   3.879   0.905   2.903  0.4466  0.2740 -0.7898
  121MOL0     C16229   3.876   0.816   2.785  1.0725 -0.3417 -0.3537
  121MOL0     O16230   3.934   0.873   2.677  0.4664  0.3111 -0.0946
  121MOL0     C16231   3.911   0.808   2.557 -0.2987  0.5357 -0.3440
  121MOL0     C16232   4.012   0.797   2.457  1.0236 -0.1769 -0.6943
  121MOL0     C16233   3.979   0.741   2.331  0.2275  0.2949 -0.0550
  121MOL0     C16234   3.850   0.694   2.297  0.6491  1.2214 -0.5302
  121MOL0     O16235   3.818   0.637   2.177  0.0343 -0.4964 -0.4173
  121MOL0     C16236   3.744   0.522   2.180 -0.0526  0.1012 -0.4003
  121MOL0     C16237   3.733   0.468   2.030  0.0300 -0.9249  0.0898
  121MOL0     C16238   3.870   0.447   1.957 -0.5747 -0.3995  0.0741
  121MOL0     C16239   3.853   0.448   1.799 -0.2131 -0.1791 -0.6629
  121MOL0     C16240   3.980   0.418   1.727  0.8168  0.5527  0.1770
  121MOL0     C16241   3.960   0.439   1.580  0.2584  0.5877  0.3956
  121MOL0     C16242   4.097   0.421   1.500  0.4649 -0.2104 -0.0678
  121MOL0     C16243   4.082   0.504   1.374  0.6072  0.5715  0.1772
  121MOL0    Cl16244   4.240   0.471   1.285  0.4438 -0.0254  0.0740
  121MOL0     C16245   3.748   0.713   2.395 -0.2021  0.2975 -0.4846
  121MOL0     C16246   3.780   0.769   2.518 -0.1388 -0.3417 -0.6695
  121MOL0     O16247   3.813   0.707   2.791 -0.6460  0.2282 -0.1119
  121MOL0     C16248   3.834   0.859   3.032  0.3237  0.9058  0.4047
  121MOL0     C16249   3.845   0.934   3.144  1.0298 -0.3649  0.2533
  121MOL0     N16250   4.326   1.586   3.608 -0.7877  0.0798  0.1911
  121MOL0     N16251   4.449   1.635   3.615 -0.5130  0.0548  0.2772
  121MOL0     C16252   4.541   1.665   2.629 -0.1883 -0.2370  1.0057
  121MOL0     C16253   4.427   1.753   2.623  1.2057 -1.0653  0.5628
  121MOL0     C16254   4.252   2.160   2.570 -0.0433  0.0844  0.1847
  121MOL0     C16255   4.218   2.183   2.439  0.2521 -0.3622 -0.0994
  121MOL0     C16256   4.140   2.293   2.398  0.7373 -0.2826  0.1193
  121MOL0     C16257   4.094   2.380   2.499  0.3299  0.3347 -0.2145
  121MOL0     O16258   4.022   2.498   2.472 -0.2941 -0.1136 -0.2667
  121MOL0     C16259   3.963   2.510   2.343 -0.0821 -0.7979 -0.0380
  121MOL0     C16260   3.886   2.634   2.340  0.8725  0.0432  0.0641
  121MOL0     C16261   3.741   2.617   2.393  0.5343 -0.0743  0.4629
  121MOL0     C16262   3.691   2.750   2.469 -0.5946 -1.0739 -0.0994
  121MOL0     C16263   3.546   2.778   2.429  0.4233 -0.6165  0.0580
  121MOL0     C16264   3.426   2.789   2.413 -0.2636 -0.1985 -0.0161
  121MOL0     C16265   4.116   2.345   2.635 -1.1542  0.1276 -0.5679
  121MOL0     C16266   4.205   2.248   2.673  0.6984  1.2378  0.0878
  121MOL0     C16267   4.229   2.229   2.823 -0.0233  0.7518  0.3937
  121MOL0     H16268   4.469   1.941   2.894  1.0653  3.1253 -3.0817
  121MOL0     H16269   4.683   1.772   2.914  0.5326 -0.6143  0.9972
  121MOL0     H16270   4.620   1.414   2.711 -0.3986 -1.2005  1.6990
  121MOL0     H16271   4.792   1.395   2.729 -0.4123 -1.5506 -0.5861
  121MOL0     H16272   4.637   1.324   2.921  0.9745  0.4021 -0.2259
  121MOL0     H16273   4.582   1.485   2.944  0.2635  0.1796 -1.3523
  121MOL0     H16274   4.813   1.559   2.981 -2.1078  0.8147  0.7293
  121MOL0     H16275   4.874   1.396   3.005 -2.0554 -1.0877 -1.7223
  121MOL0     H16276   4.690   1.564   3.164 -1.5808 -0.2372 -0.7887
  121MOL0     H16277   4.648   1.389   3.157  0.1686  0.7201 -2.0381
  121MOL0     H16278   4.890   1.350   3.246  0.6860  0.9045 -1.1034
  121MOL0     H16279   4.906   1.525   3.262  0.6439  0.0534 -1.2786
  121MOL0     H16280   4.682   1.365   3.392 -0.2820 -0.0719 -0.3755
  121MOL0     H16281   4.840   1.373   3.477  2.0568  1.2322 -0.3875
  121MOL0     H16282   4.660   1.605   3.419  1.9019 -1.8160 -4.0289
  121MOL0     H16283   4.820   1.627   3.487  0.5623 -0.3345  3.2210
  121MOL0     H16284   4.697   1.430   3.661 -0.8921  0.4772  1.0137
  121MOL0     H16285   4.697   1.604   3.691 -2.3185 -1.3754  2.3886
  121MOL0     H16286   4.495   1.314   3.549 -2.5089 -0.4378  0.2208
  121MOL0     H16287   4.223   1.266   3.630 -1.7757  0.4208  2.0456
  121MOL0     H16288   4.123   1.407   3.620  0.5484  0.7588 -0.5392
  121MOL0     H16289   4.150   1.436   3.388  1.3564  1.6147 -0.0961
  121MOL0     H16290   4.264   1.296   3.382  1.8008  1.5955  2.2916
  121MOL0     H16291   3.970   1.277   3.464 -2.4741 -1.0890 -4.3088
  121MOL0     H16292   4.090   1.146   3.461  3.0372  0.3567 -0.2089
  121MOL0     H16293   4.114   1.171   3.218 -0.7626 -3.1233 -1.0319
  121MOL0     H16294   4.008   1.312   3.229  2.3299  0.9070  2.4293
  121MOL0     H16295   3.984   1.215   3.008  1.5803 -1.1990  1.3060
  121MOL0     H16296   3.978   1.073   2.811  0.2420 -1.0059 -0.2706
  121MOL0     H16297   4.113   0.835   2.465  0.6239  0.8088 -0.2618
  121MOL0     H16298   4.061   0.743   2.260  1.5896  0.5429  1.4520
  121MOL0     H16299   3.795   0.447   2.242 -3.2427 -0.9504  1.1822
  121MOL0     H16300   3.644   0.519   2.222  0.0113  2.1486 -0.0090
  121MOL0     H16301   3.685   0.370   2.028  1.1425 -1.4938  0.7389
  121MOL0     H16302   3.666   0.534   1.974  2.2898  1.7764  0.3431
  121MOL0     H16303   3.943   0.521   1.991 -0.8777 -0.3704  0.6771
  121MOL0     H16304   3.918   0.351   1.973  0.7570 -0.2407 -2.4237
  121MOL0     H16305   3.820   0.545   1.762 -0.9128 -0.5107 -0.9302
  121MOL0     H16306   3.773   0.375   1.778 -0.6407 -0.1868  0.9208
  121MOL0     H16307   4.013   0.322   1.767  0.3053  0.0473 -0.6067
  121MOL0     H16308   4.054   0.495   1.754  1.8113  0.0454 -0.9640
  121MOL0     H16309   3.910   0.352   1.536  0.6909  0.6603 -0.2538
  121MOL0     H16310   3.905   0.522   1.536  0.5367  0.7298  0.3144
  121MOL0     H16311   4.123   0.320   1.467 -0.2885 -0.1237 -0.9537
  121MOL0     H16312   4.181   0.453   1.562  1.2133  0.1385 -1.2324
  121MOL0     H16313   3.991   0.467   1.327  0.7600  1.0114 -0.4669
  121MOL0     H16314   4.058   0.611   1.378 -1.8908  0.1208 -0.7503
  121MOL0     H16315   3.644   0.695   2.370 -0.2170 -3.3666  1.4313
  121MOL0     H16316   3.697   0.764   2.589  0.2191  0.7916 -0.1487
  121MOL0     H16317   3.800   0.756   3.046  0.9558  0.8496  1.5759
  121MOL0     H16318   3.803   0.890   3.233 -1.8711  0.6151 -0.5271
  121MOL0     H16319   4.560   1.583   2.560 -1.6075 -0.3461  0.7169
  121MOL0     H16320   4.357   1.750   2.541  3.5099  0.5808 -1.5700
  121MOL0     H16321   4.254   2.121   2.357 -0.3231 -2.0410  0.8673
  121MOL0     H16322   4.125   2.316   2.293  1.4366 -0.1671  0.0376
  121MOL0     H16323   3.911   2.420   2.309  2.7525 -3.8191  2.8984
  121MOL0     H16324   4.055   2.519   2.285  3.1501 -2.1130  4.3882
  121MOL0     H16325   3.874   2.658   2.233  0.6365 -0.4110 -0.0130
  121MOL0     H16326   3.944   2.716   2.385 -1.0351  1.6398 -0.2386
  121MOL0     H16327   3.745   2.532   2.461 -3.0258 -1.3377 -0.6798
  121MOL0     H16328   3.675   2.591   2.309  0.2830  1.2336  0.2287
  121MOL0     H16329   3.700   2.732   2.577  3.2383 -2.2631 -0.4807
  121MOL0     H16330   3.748   2.837   2.434 -0.9481 -1.6897 -2.3691
  121MOL0     H16331   3.323   2.811   2.395  0.1846  1.5308 -0.6295
  121MOL0     H16332   4.084   2.414   2.712 -0.1263  1.9807 -1.7197
  121MOL0     H16333   4.166   2.299   2.878 -2.8628 -0.7515 -0.7605
  121MOL0     H16334   4.215   2.129   2.865  1.2787  1.2400  2.1360
  121MOL0     H16335   4.331   2.257   2.852  1.1940  0.1218 -2.8401
  122MOL0     O16336   9.159   1.164  11.210  0.2705 -0.9664 -0.8443
  122MOL0     C16337   9.164   1.054  11.269 -1.0197 -0.8691 -0.6415
  122MOL0     O16338   9.280   0.975  11.278  0.3325  1.1460 -0.1316
  122MOL0     C16339   9.393   1.019  11.224  0.0493  0.5819 -0.3949
  122MOL0     C16340   9.419   0.977  11.091 -0.2148  0.0999 -0.4643
  122MOL0     C16341   9.535   1.026  11.028  0.1829 -0.5316  0.0771
  122MOL0     C16342   9.616   1.120  11.092 -0.8895 -0.6302  0.1314
  122MOL0     O16343   9.724   1.189  11.027 -0.5384  0.0015 -0.6725
  122MOL0     C16344   9.739   1.176  10.885 -0.4717  0.4363  0.4050
  122MOL0     C16345   9.864   1.248  10.843 -0.4892 -0.0180 -0.4438
  122MOL0     C16346   9.991   1.169  10.871 -0.6097 -0.1262  0.0885
  122MOL0     C16347  10.110   1.238  10.809 -0.2830 -1.4243 -0.2190
  122MOL0     C16348  10.239   1.177  10.864  0.2040  1.0446  0.1893
  122MOL0     C16349  10.356   1.216  10.767 -0.4407  0.0455  0.3307
  122MOL0     C16350  10.486   1.150  10.806 -0.7969  0.5264  0.0601
  122MOL0     C16351  10.596   1.182  10.699  0.5372  0.4613 -1.2003
  122MOL0     N16352  10.673   1.304  10.710  0.3390  0.3081 -0.2848
  122MOL0     C16353  10.754   1.331  10.811  0.2173 -0.5058 -1.0113
  122MOL0     C16354  10.836   1.429  10.778 -0.0122 -0.6552 -0.8870
  122MOL0     C16355  10.945   1.497  10.853  0.0548 -0.0737  0.2308
  122MOL0     C16356  11.079   1.496  10.774 -0.1377  0.2722  0.9846
  122MOL0     C16357  11.184   1.560  10.855 -0.1083  0.4178 -0.8715
  122MOL0     C16358  11.329   1.552  10.800  0.1602 -0.4473  0.4384
  122MOL0     O16359  11.412   1.650  10.881  0.6365  0.5930  0.2848
  122MOL0     C16360  11.544   1.664  10.851 -0.9967 -0.6307 -0.1915
  122MOL0     C16361  11.600   1.604  10.738 -0.3112 -0.2373  0.7418
  122MOL0     C16362  11.741   1.606  10.714 -0.3027  0.4827  0.7490
  122MOL0     C16363  11.822   1.682  10.799 -1.1783  0.2407 -0.8514
  122MOL0     C16364  11.970   1.681  10.785  0.6702 -0.2233  0.4504
  122MOL0     O16365  12.022   1.607  10.684  0.1060  0.3391  0.1377
  122MOL0     C16366  12.150   1.569  10.679  0.0524  0.4383  1.4822
  122MOL0     C16367  12.182   1.500  10.557  0.6436 -0.6441 -0.1586
  122MOL0     C16368  12.309   1.448  10.523  0.3641 -0.7357 -0.3156
  122MOL0     C16369  12.405   1.452  10.618  0.3801 -0.6578  0.5202
  122MOL0     O16370  12.526   1.385  10.612 -0.3672  0.4440 -0.1748
  122MOL0     C16371  12.554   1.309  10.495 -0.4857 -0.3706 -0.0871
  122MOL0     C16372  12.691   1.260  10.482  1.3316 -0.8363 -0.1807
  122MOL0     C16373  12.717   1.118  10.546 -1.0054  0.7352 -0.9537
  122MOL0     C16374  12.687   1.100  10.696  0.1518  0.0431 -0.2073
  122MOL0     C16375  12.717   0.958  10.741  0.4120 -0.3252 -0.2586
  122MOL0     C16376  12.684   0.937  10.890  0.4801  0.0336  0.8047
  122MOL0     C16377  12.672   0.782  10.912  0.2873 -0.3305 -0.0002
  122MOL0     C16378  12.665   0.762  11.063 -0.2554  0.3335 -0.0197
  122MOL0    Cl16379  12.685   0.592  11.099 -0.0197  0.3314  0.1867
  122MOL0     C16380  12.379   1.501  10.745  0.3424  0.1552  0.5179
  122MOL0     C16381  12.255   1.567  10.771 -0.2885 -0.2490 -0.0918
  122MOL0     O16382  12.039   1.742  10.869  0.2380 -0.3078 -0.0165
  122MOL0     C16383  11.770   1.745  10.918  0.1087  0.4434 -0.6597
  122MOL0     C16384  11.627   1.743  10.935 -0.2507  0.5519 -0.4661
  122MOL0     N16385  10.800   1.461  10.646 -1.1894 -0.2933 -0.2385
  122MOL0     N16386  10.707   1.379  10.604  0.8251 -0.6124 -0.3969
  122MOL0     C16387   9.591   1.146  11.226 -0.2272 -0.5199 -0.4398
  122MOL0     C16388   9.486   1.101  11.296 -0.3515  0.1134 -0.2429
  122MOL0     C16389   9.039   1.009  11.336 -0.0050  0.6575  0.3474
  122MOL0     C16390   9.038   0.888  11.410  0.5435  0.1298  0.6179
  122MOL0     C16391   8.932   0.845  11.482  0.2581  0.2299 -0.6261
  122MOL0     C16392   8.817   0.927  11.488 -0.1965 -0.1248 -0.4498
  122MOL0     O16393   8.715   0.866  11.558 -0.7078  0.1902  0.3890
  122MOL0     C16394   8.593   0.935  11.569 -0.3725 -0.5371  0.4382
  122MOL0     C16395   8.492   0.841  11.635  0.1809  0.9363  0.5998
  122MOL0     C16396   8.448   0.728  11.539  1.1228 -0.4027 -0.0510
  122MOL0     C16397   8.427   0.772  11.392  0.4080  0.1780  0.0481
  122MOL0     C16398   8.317   0.876  11.375 -0.5946 -0.9763  0.6068
  122MOL0     C16399   8.223   0.957  11.351  0.4408  0.0334  0.1381
  122MOL0     C16400   8.819   1.047  11.421 -0.6125  0.4982  0.8422
  122MOL0     C16401   8.922   1.079  11.331 -0.8224  0.4065 -0.0959
  122MOL0     C16402   8.887   1.206  11.255 -0.4059  0.1570 -0.6695
  122MOL0     H16403   9.356   0.904  11.041  0.3439 -1.8356  1.5147
  122MOL0     H16404   9.554   0.992  10.927 -0.2081 -1.6632  0.3725
  122MOL0     H16405   9.753   1.071  10.857  1.0378  1.1518 -1.7667
  122MOL0     H16406   9.655   1.215  10.826  0.6723  0.3734 -1.3282
  122MOL0     H16407   9.870   1.337  10.906  0.3497 -1.2968  1.3789
  122MOL0     H16408   9.865   1.271  10.736 -0.4193  3.7658  0.2503
  122MOL0     H16409   9.984   1.067  10.834  0.0472 -0.7559  1.6007
  122MOL0     H16410  10.000   1.150  10.979 -0.6714  1.3774  0.3763
  122MOL0     H16411  10.094   1.238  10.700 -2.2684  2.7015 -0.1122
  122MOL0     H16412  10.102   1.340  10.846 -1.1474 -1.8622  0.8633
  122MOL0     H16413  10.250   1.195  10.971  2.9643 -2.7742  0.7831
  122MOL0     H16414  10.220   1.069  10.856 -1.8576  1.4279 -0.7883
  122MOL0     H16415  10.332   1.191  10.663  1.6614  2.8586 -0.9459
  122MOL0     H16416  10.370   1.324  10.764  2.1707 -0.2565 -2.5412
  122MOL0     H16417  10.454   1.046  10.799  2.6922 -0.7969  1.8358
  122MOL0     H16418  10.514   1.181  10.907 -1.7574  1.5253  0.0434
  122MOL0     H16419  10.665   1.099  10.710 -1.2318 -0.9631 -0.1160
  122MOL0     H16420  10.545   1.187  10.602  1.9208  1.1863 -1.9197
  122MOL0     H16421  10.759   1.277  10.905 -3.1320 -1.3268 -1.1640
  122MOL0     H16422  10.923   1.601  10.875 -2.3123 -0.7289  1.2521
  122MOL0     H16423  10.956   1.444  10.949 -0.8717 -1.9096 -0.6202
  122MOL0     H16424  11.095   1.388  10.760 -3.0543 -0.2931  1.1937
  122MOL0     H16425  11.063   1.539  10.675 -0.3049  1.5283  1.5486
  122MOL0     H16426  11.191   1.519  10.956  1.6527 -0.4284 -1.2913
  122MOL0     H16427  11.153   1.664  10.866 -1.9901 -0.2832  0.9204
  122MOL0     H16428  11.326   1.558  10.691 -0.9617 -2.2051  0.3303
  122MOL0     H16429  11.377   1.455  10.813  2.4306  0.8142  2.2001
  122MOL0     H16430  11.551   1.541  10.664  0.1105  0.0431  0.2139
  122MOL0     H16431  11.791   1.564  10.627 -0.1560  3.5132 -0.7547
  122MOL0     H16432  12.105   1.497  10.480 -0.9587 -1.2610  1.4041
  122MOL0     H16433  12.316   1.405  10.423  3.3412  0.4963 -0.7185
  122MOL0     H16434  12.490   1.221  10.493  0.5313 -1.1226 -0.2031
  122MOL0     H16435  12.534   1.372  10.408 -2.3049  0.6937  1.0344
  122MOL0     H16436  12.726   1.263  10.379  1.8024 -2.1169 -0.0761
  122MOL0     H16437  12.747   1.330  10.546 -0.1672 -0.6886  1.0426
  122MOL0     H16438  12.655   1.050  10.487  0.9120 -1.3110 -0.7578
  122MOL0     H16439  12.820   1.084  10.529 -1.9887 -2.1838 -1.5998
  122MOL0     H16440  12.578   1.113  10.698 -0.0201 -0.9516 -1.5112
  122MOL0     H16441  12.738   1.171  10.761  2.9079 -1.2349 -0.8325
  122MOL0     H16442  12.823   0.938  10.724  1.0121 -1.0783  3.3854
  122MOL0     H16443  12.649   0.896  10.681 -3.4356  1.6987  1.6443
  122MOL0     H16444  12.771   0.981  10.940 -0.0479  2.0190  0.0883
  122MOL0     H16445  12.592   0.995  10.901  0.1971 -0.0177 -1.0313
  122MOL0     H16446  12.769   0.741  10.881  0.7824 -1.0770  2.3442
  122MOL0     H16447  12.585   0.745  10.856  0.4813 -0.7678 -0.0145
  122MOL0     H16448  12.741   0.826  11.111 -1.6903  2.3585 -0.3268
  122MOL0     H16449  12.570   0.803  11.099 -1.1750 -1.7833  0.1069
  122MOL0     H16450  12.461   1.491  10.815 -0.9935  0.3552  2.1997
  122MOL0     H16451  12.229   1.610  10.867 -1.9049  2.1313 -1.4898
  122MOL0     H16452  11.831   1.791  10.995 -0.9466  0.7738  0.0123
  122MOL0     H16453  11.584   1.790  11.022  0.4433 -1.0980  0.8150
  122MOL0     H16454   9.652   1.224  11.272  2.0394 -1.2341 -2.0589
  122MOL0     H16455   9.479   1.138  11.398 -0.3578 -3.6500  1.2735
  122MOL0     H16456   9.132   0.842  11.438 -0.0708 -2.3371 -1.1108
  122MOL0     H16457   8.943   0.760  11.547 -1.4834 -2.5374 -3.6232
  122MOL0     H16458   8.559   0.969  11.471  1.5684 -0.4925 -0.2709
  122MOL0     H16459   8.615   1.029  11.620  1.3862 -0.0572 -1.0801
  122MOL0     H16460   8.405   0.897  11.667 -2.4151 -1.5275 -1.5923
  122MOL0     H16461   8.532   0.799  11.728 -0.5789 -2.4807 -0.4660
  122MOL0     H16462   8.360   0.673  11.574  1.9046 -0.8968  1.1909
  122MOL0     H16463   8.526   0.652  11.542  2.1006  0.5794  2.4595
  122MOL0     H16464   8.520   0.808  11.348  1.0214 -1.6445 -0.2151
  122MOL0     H16465   8.391   0.685  11.338 -2.5569  0.6824  1.0118
  122MOL0     H16466   8.152   1.037  11.345  0.5636  0.7121  4.6285
  122MOL0     H16467   8.723   1.096  11.406 -0.8936 -0.2928  0.0043
  122MOL0     H16468   8.785   1.237  11.279 -0.0921  0.5169  0.2221
  122MOL0     H16469   8.949   1.289  11.289 -1.0368 -0.8956  3.6127
  122MOL0     H16470   8.902   1.195  11.147 -2.8944  2.9274 -1.4355
  123MOL0     O16471   6.189   9.543  11.207 -0.1053  0.3977 -0.0556
  123MOL0     C16472   6.153   9.659  11.185 -0.5475  0.1206  0.9945
  123MOL0     O16473   6.225   9.769  11.195  0.0438 -0.5443 -0.4170
  123MOL0     C16474   6.341   9.755  11.266  0.6697  0.2414  0.5602
  123MOL0     C16475   6.446   9.675  11.230  0.7137 -0.6984 -0.0156
  123MOL0     C16476   6.567   9.660  11.308  0.6673  0.0554  0.7042
  123MOL0     C16477   6.579   9.735  11.427  0.1996  0.1966 -0.0260
  123MOL0     O16478   6.686   9.718  11.502 -0.0772  0.0068 -0.5051
  123MOL0     C16479   6.718   9.818  11.604 -1.4303 -0.0267 -0.1800
  123MOL0     C16480   6.869   9.818  11.646  0.1470 -0.8870  0.0676
  123MOL0     C16481   6.969   9.872  11.544  0.3502 -0.2669 -0.1673
  123MOL0     C16482   7.105   9.843  11.600  0.2249  0.8224  0.6303
  123MOL0     C16483   7.211   9.891  11.503 -0.8506  0.2718  0.4811
  123MOL0     C16484   7.356   9.834  11.508 -0.7806 -0.6417 -0.3591
  123MOL0     C16485   7.362   9.690  11.468  0.2921  0.2756  0.4940
  123MOL0     C16486   7.503   9.637  11.441 -0.3768 -0.2603  0.3667
  123MOL0     N16487   7.577   9.701  11.329  0.5571  0.6578  0.5028
  123MOL0     C16488   7.709   9.688  11.308  0.0196  0.1848  0.3754
  123MOL0     C16489   7.730   9.773  11.203 -0.4026  0.2570 -0.5005
  123MOL0     C16490   7.863   9.785  11.130  1.1720  0.3344  0.0809
  123MOL0     C16491   7.963   9.865  11.207  0.1587 -0.0279  0.6102
  123MOL0     C16492   7.927  10.012  11.212 -0.6256 -0.4757  0.7172
  123MOL0     C16493   8.040  10.109  11.249  0.1497 -0.0057 -0.4345
  123MOL0     O16494   8.126  10.047  11.343  0.1593  1.0506 -0.4585
  123MOL0     C16495   8.257  10.023  11.311 -0.7381  0.8392 -0.0565
  123MOL0     C16496   8.312   9.988  11.189 -0.4471 -0.3291 -0.2634
  123MOL0     C16497   8.452   9.971  11.162 -0.1468 -0.0119 -0.6492
  123MOL0     C16498   8.536   9.981  11.271 -0.2518  0.2225  0.3942
  123MOL0     C16499   8.686   9.984  11.244 -0.2010 -1.1583 -0.0347
  123MOL0     O16500   8.763  10.007  11.357 -0.3417 -0.2364  0.4785
  123MOL0     C16501   8.896   9.975  11.332  0.4302  0.1627  0.4509
  123MOL0     C16502   8.925   9.837  11.334  0.0064 -1.0029  0.3988
  123MOL0     C16503   9.059   9.788  11.311 -0.5888  0.3018  0.1609
  123MOL0     C16504   9.160   9.887  11.298  0.1519  0.5616  0.4097
  123MOL0     O16505   9.291   9.857  11.290 -0.4222 -0.0243 -0.2910
  123MOL0     C16506   9.330   9.724  11.280  0.0158  0.4125  0.6042
  123MOL0     C16507   9.474   9.726  11.229 -0.1303 -0.6435 -0.3723
  123MOL0     C16508   9.523   9.582  11.187 -0.3944 -0.0309  0.4280
  123MOL0     C16509   9.655   9.585  11.124 -0.9263 -0.2213  0.0992
  123MOL0     C16510   9.695   9.440  11.100  0.3041 -1.1645  0.4125
  123MOL0     C16511   9.842   9.444  11.039  0.3224 -0.8063  0.2411
  123MOL0     C16512   9.903   9.312  11.009 -0.0562  0.1384 -0.2119
  123MOL0     C16513  10.036   9.321  10.942  0.4962 -0.8344 -0.1219
  123MOL0    Cl16514  10.106   9.160  10.934  0.0093  0.4279 -0.0514
  123MOL0     C16515   9.124  10.029  11.293 -0.5582  0.9830 -0.2869
  123MOL0     C16516   8.995  10.072  11.305 -0.0998  0.1240  0.1617
  123MOL0     O16517   8.731   9.992  11.127 -0.3678  0.0255  0.4029
  123MOL0     C16518   8.484   9.999  11.397 -0.1425 -0.4129 -1.3280
  123MOL0     C16519   8.350  10.013  11.413 -0.4882  0.0540 -0.2267
  123MOL0     N16520   7.622   9.842  11.172  0.6496 -0.1880 -0.3637
  123MOL0     N16521   7.526   9.792  11.243  0.0731 -0.0438 -0.1074
  123MOL0     C16522   6.468   9.822  11.458  0.0678  0.5454  1.0114
  123MOL0     C16523   6.356   9.832  11.383  1.0946  0.0649  1.8393
  123MOL0     C16524   6.012   9.680  11.129  0.5298  0.0380 -0.4554
  123MOL0     C16525   5.915   9.581  11.148 -0.0271 -0.1969  0.2311
  123MOL0     C16526   5.776   9.600  11.118 -0.5843 -0.0410 -1.2913
  123MOL0     C16527   5.726   9.719  11.069 -0.1313  0.3629  0.2283
  123MOL0     O16528   5.600   9.710  11.010 -0.1009  0.2601 -0.2541
  123MOL0     C16529   5.527   9.827  10.972  0.1700 -0.0242 -0.0881
  123MOL0     C16530   5.482   9.901  11.104 -0.6560  0.3189 -0.7023
  123MOL0     C16531   5.417   9.817  11.224 -0.7977 -0.4463 -1.3178
  123MOL0     C16532   5.350   9.886  11.343  0.1561 -0.0453  0.3099
  123MOL0     C16533   5.233   9.950  11.296 -0.1342 -0.3594  0.4979
  123MOL0     C16534   5.131   9.997  11.246 -0.5764  0.3160  0.0329
  123MOL0     C16535   5.821   9.823  11.056  0.1074 -0.1232 -0.8974
  123MOL0     C16536   5.958   9.799  11.069  0.9093 -0.3433  0.4134
  123MOL0     C16537   6.047   9.909  11.019 -0.1933 -0.2476 -1.1064
  123MOL0     H16538   6.443   9.626  11.133  1.8078 -0.7625 -0.0263
  123MOL0     H16539   6.656   9.612  11.268  0.9208  1.0630  0.0340
  123MOL0     H16540   6.689   9.918  11.573 -1.0490 -0.0730 -0.7077
  123MOL0     H16541   6.661   9.803  11.696  1.1523  2.0638  1.9397
  123MOL0     H16542   6.893   9.713  11.665 -0.0235 -1.8450 -4.0169
  123MOL0     H16543   6.880   9.883  11.733 -0.2192 -1.6022  0.6544
  123MOL0     H16544   6.948   9.979  11.541  1.1655 -0.0730  0.5769
  123MOL0     H16545   6.962   9.829  11.444  1.0787  1.8598 -1.1881
  123MOL0     H16546   7.114   9.904  11.691 -3.3230 -0.0539  1.7186
  123MOL0     H16547   7.112   9.740  11.634  4.1651  1.6016  2.8021
  123MOL0     H16548   7.165   9.877  11.405 -0.8193 -0.2221  0.5342
  123MOL0     H16549   7.232   9.996  11.527  1.9240 -0.4715  1.7789
  123MOL0     H16550   7.418   9.900  11.445 -1.0289 -0.1351 -0.0836
  123MOL0     H16551   7.409   9.846  11.603  0.2405  2.2211 -1.1611
  123MOL0     H16552   7.298   9.664  11.384  0.9746 -0.1811  0.1019
  123MOL0     H16553   7.321   9.637  11.554  0.1457  1.1752  0.9890
  123MOL0     H16554   7.564   9.639  11.532  0.7716 -1.9857 -0.3243
  123MOL0     H16555   7.484   9.532  11.421  3.1298 -1.4063  2.1923
  123MOL0     H16556   7.783   9.619  11.349 -0.7934 -1.1803 -0.3695
  123MOL0     H16557   7.906   9.686  11.114 -1.1027 -0.4555 -1.7033
  123MOL0     H16558   7.837   9.816  11.028  1.3923 -0.9639 -0.3815
  123MOL0     H16559   7.973   9.824  11.308 -1.5696  1.4985  1.4650
  123MOL0     H16560   8.057   9.848  11.153 -0.8226 -1.3055 -0.7914
  123MOL0     H16561   7.849  10.017  11.289 -0.3250 -1.1990  1.0782
  123MOL0     H16562   7.872  10.042  11.122 -2.6558 -4.1040  0.5177
  123MOL0     H16563   8.002  10.195  11.305 -1.2845  0.3854 -1.9078
  123MOL0     H16564   8.091  10.132  11.156  0.6558  1.2213  0.1226
  123MOL0     H16565   8.244   9.973  11.105  0.4049 -0.6371 -0.9198
  123MOL0     H16566   8.489   9.963  11.060  2.7710 -2.3057  0.4599
  123MOL0     H16567   8.845   9.765  11.349 -1.6692  0.2333 -1.9552
  123MOL0     H16568   9.091   9.684  11.306  2.6842  1.2620 -1.6397
  123MOL0     H16569   9.341   9.673  11.376  1.4273 -1.2891 -0.3923
  123MOL0     H16570   9.279   9.667  11.202  1.6355  1.9923 -1.7455
  123MOL0     H16571   9.475   9.799  11.147 -3.8560  0.3776  0.3436
  123MOL0     H16572   9.534   9.769  11.309 -1.6692  0.6618  0.1286
  123MOL0     H16573   9.544   9.514  11.270  2.3274 -0.8554 -0.8071
  123MOL0     H16574   9.448   9.551  11.114  0.5585  0.5271 -0.8430
  123MOL0     H16575   9.730   9.642  11.178  0.8391  2.8389 -4.9113
  123MOL0     H16576   9.661   9.628  11.023 -2.4619 -1.2877 -0.4905
  123MOL0     H16577   9.632   9.393  11.024 -3.3296  0.3466  2.2409
  123MOL0     H16578   9.691   9.379  11.191  0.9841  1.2274  2.1369
  123MOL0     H16579   9.840   9.507  10.950  1.4033 -0.3577  0.5085
  123MOL0     H16580   9.913   9.487  11.111 -0.4447 -1.3180  1.3351
  123MOL0     H16581   9.823   9.253  10.962 -3.4748  2.3979  2.2390
  123MOL0     H16582   9.911   9.244  11.095 -2.2284 -0.4721 -0.4303
  123MOL0     H16583  10.041   9.371  10.845 -2.2824  0.1981  0.1759
  123MOL0     H16584  10.096   9.374  11.016  1.0956  0.8826 -1.7508
  123MOL0     H16585   9.200  10.104  11.272  0.6882 -0.2191 -0.2783
  123MOL0     H16586   8.976  10.179  11.314  2.4596  0.6061  0.8737
  123MOL0     H16587   8.543  10.007  11.488  0.0059  0.4274 -1.4936
  123MOL0     H16588   8.301  10.032  11.509 -1.4380  2.3273 -1.0910
  123MOL0     H16589   6.475   9.890  11.542 -1.0640  2.1929 -0.1574
  123MOL0     H16590   6.283   9.907  11.413 -1.4432 -2.1100  1.4782
  123MOL0     H16591   5.956   9.487  11.185  2.5053  1.3655  1.6706
  123MOL0     H16592   5.709   9.516  11.135 -0.8310  0.5492  0.9923
  123MOL0     H16593   5.439   9.794  10.916  1.0043 -2.6905  0.0660
  123MOL0     H16594   5.579   9.896  10.904  1.2113 -1.9351 -1.2999
  123MOL0     H16595   5.400   9.965  11.070 -1.5458 -0.2165  0.3349
  123MOL0     H16596   5.563   9.962  11.145 -0.4567 -1.0673  1.1031
  123MOL0     H16597   5.487   9.740  11.260 -4.3460 -3.0061  0.7557
  123MOL0     H16598   5.346   9.754  11.170 -0.5924 -1.4401 -0.4589
  123MOL0     H16599   5.336   9.817  11.427  1.5285 -2.2821 -1.1874
  123MOL0     H16600   5.410   9.966  11.387  0.6512  0.0926 -0.6036
  123MOL0     H16601   5.043  10.029  11.195 -0.9552 -0.1472  0.3831
  123MOL0     H16602   5.793   9.925  11.031  3.5694  1.7174  1.9260
  123MOL0     H16603   6.002   9.966  10.937 -1.0303 -1.0344 -1.2165
  123MOL0     H16604   6.081   9.976  11.097 -1.4281  1.1198 -1.6842
  123MOL0     H16605   6.140   9.870  10.977  0.4733  1.8768 -1.7076
  124MOL0     O16606   3.301   8.244   5.922  0.0060 -0.1436  0.2423
  124MOL0     C16607   3.269   8.287   5.808 -0.8196 -0.1102 -0.0848
  124MOL0     O16608   3.359   8.332   5.715 -0.5293 -0.0800 -0.1436
  124MOL0     C16609   3.489   8.283   5.723 -0.3488  0.3147 -0.0986
  124MOL0     C16610   3.579   8.333   5.816 -0.1780  0.3947  0.2940
  124MOL0     C16611   3.708   8.283   5.829 -0.3308 -0.0943  0.1358
  124MOL0     C16612   3.757   8.184   5.736 -0.2858 -0.4645  0.0612
  124MOL0     O16613   3.889   8.151   5.745 -0.2936 -0.8005 -0.4498
  124MOL0     C16614   3.996   8.229   5.797 -0.3916 -0.2000 -0.0088
  124MOL0     C16615   4.118   8.166   5.720 -0.0051  0.7565 -0.2353
  124MOL0     C16616   4.249   8.215   5.783 -0.0818 -0.1575 -0.1237
  124MOL0     C16617   4.278   8.351   5.727 -0.1362 -0.1618  0.7926
  124MOL0     C16618   4.401   8.401   5.792  0.2110 -0.1819  0.5387
  124MOL0     C16619   4.528   8.324   5.749  0.3448 -0.5985 -0.5423
  124MOL0     C16620   4.658   8.395   5.787  0.2051 -0.0498  0.0379
  124MOL0     C16621   4.715   8.498   5.690  1.3786  0.0437  0.3090
  124MOL0     N16622   4.673   8.635   5.736  0.3476  0.7547 -0.0904
  124MOL0     C16623   4.601   8.730   5.668 -0.9016  0.2880  0.4072
  124MOL0     C16624   4.639   8.846   5.719 -0.2266 -0.6799  0.0980
  124MOL0     C16625   4.599   8.990   5.673  0.0488 -0.4942  0.3152
  124MOL0     C16626   4.444   9.004   5.664  0.3476  0.6429  1.1967
  124MOL0     C16627   4.404   9.134   5.596  0.4653  0.1881  0.4843
  124MOL0     C16628   4.263   9.158   5.556 -0.8146 -0.1876 -0.1482
  124MOL0     O16629   4.269   9.269   5.466 -1.2191 -0.0742  0.8209
  124MOL0     C16630   4.160   9.321   5.410 -0.0515  0.1455  0.1147
  124MOL0     C16631   4.030   9.283   5.453  0.2234 -0.2920 -0.1383
  124MOL0     C16632   3.919   9.343   5.395  0.0840  0.6157  0.2626
  124MOL0     C16633   3.931   9.459   5.316 -0.5945 -0.8929 -0.1435
  124MOL0     C16634   3.811   9.521   5.267  0.1449  0.0967  0.1507
  124MOL0     O16635   3.826   9.622   5.179  0.4392  0.3378 -0.0537
  124MOL0     C16636   3.724   9.663   5.108 -0.4732 -0.2032  0.4744
  124MOL0     C16637   3.704   9.608   4.980 -0.6360  0.2345  0.2850
  124MOL0     C16638   3.589   9.636   4.902  0.2635 -0.0965  0.1488
  124MOL0     C16639   3.491   9.722   4.948 -0.1870  0.4815  0.0833
  124MOL0     O16640   3.381   9.744   4.874  0.5763 -0.2037  0.3635
  124MOL0     C16641   3.278   9.835   4.927  0.3613 -0.4463 -0.7970
  124MOL0     C16642   3.183   9.763   5.030 -0.0250  0.5808 -0.2495
  124MOL0     C16643   3.075   9.678   4.963 -0.5050 -0.6280  0.0838
  124MOL0     C16644   2.946   9.660   5.056 -1.0984  0.1148 -0.3079
  124MOL0     C16645   2.836   9.577   4.986  0.2372  0.1329 -0.0382
  124MOL0     C16646   2.712   9.581   5.079 -0.6684  0.8989 -1.0324
  124MOL0     C16647   2.744   9.519   5.216  0.0030 -0.5778 -0.6637
  124MOL0     C16648   2.617   9.465   5.285  0.8011 -0.0905 -0.6918
  124MOL0    Cl16649   2.536   9.333   5.182  0.1225 -0.3529 -0.4562
  124MOL0     C16650   3.503   9.769   5.079 -1.1118 -0.6002  1.0277
  124MOL0     C16651   3.619   9.750   5.157 -0.4309  0.3497  0.7109
  124MOL0     O16652   3.702   9.481   5.305  0.0147 -1.0403  0.6857
  124MOL0     C16653   4.060   9.510   5.294 -0.4495 -0.0978  0.4452
  124MOL0     C16654   4.169   9.434   5.330 -0.1936  0.6596  0.8638
  124MOL0     N16655   4.733   8.822   5.820 -0.4589 -0.1357 -0.2077
  124MOL0     N16656   4.757   8.689   5.820  1.0937  0.0085  0.3520
  124MOL0     C16657   3.669   8.147   5.625  0.2893 -0.3097  1.1599
  124MOL0     C16658   3.538   8.200   5.621 -0.2202 -0.4782 -0.0902
  124MOL0     C16659   3.124   8.308   5.781  0.7132 -0.1580 -0.4231
  124MOL0     C16660   3.032   8.284   5.887  0.6909  0.4037 -0.3044
  124MOL0     C16661   2.898   8.295   5.868  0.5853 -0.5952 -0.0027
  124MOL0     C16662   2.843   8.327   5.739  0.7189 -0.2309  0.4523
  124MOL0     O16663   2.706   8.349   5.732  0.0231 -0.1045  0.3813
  124MOL0     C16664   2.652   8.399   5.603  0.5111  0.2312 -0.1619
  124MOL0     C16665   2.507   8.427   5.606  0.6167  0.1278 -1.3343
  124MOL0     C16666   2.433   8.298   5.621  0.6901 -0.1091  0.0904
  124MOL0     C16667   2.291   8.335   5.599  0.8276 -0.0092  0.0526
  124MOL0     C16668   2.201   8.227   5.633  0.8176 -0.5442 -0.3147
  124MOL0     C16669   2.108   8.150   5.643  0.3079  0.2044  0.0259
  124MOL0     C16670   2.932   8.345   5.631 -0.3444  0.1294  0.2300
  124MOL0     C16671   3.074   8.336   5.653  0.2144  0.0660 -0.7602
  124MOL0     C16672   3.152   8.366   5.526 -0.3426 -0.3203  1.0227
  124MOL0     H16673   3.543   8.403   5.891 -2.9989 -0.3290 -0.2935
  124MOL0     H16674   3.767   8.323   5.911 -0.0526  0.1883 -0.1973
  124MOL0     H16675   3.976   8.332   5.766  1.0635  0.3679  0.8170
  124MOL0     H16676   4.012   8.214   5.904 -2.1782  0.6892  0.4115
  124MOL0     H16677   4.110   8.187   5.613  1.3900 -1.1729 -0.7614
  124MOL0     H16678   4.118   8.058   5.732 -0.4880  0.6987 -0.7342
  124MOL0     H16679   4.327   8.152   5.740 -2.4021 -1.1427 -3.3277
  124MOL0     H16680   4.246   8.212   5.892 -0.9157 -0.5815 -0.1491
  124MOL0     H16681   4.276   8.329   5.620 -0.0400 -3.6404  1.3700
  124MOL0     H16682   4.208   8.434   5.741 -0.9830  0.2403 -3.9948
  124MOL0     H16683   4.414   8.502   5.750  2.3471 -1.0614 -1.1178
  124MOL0     H16684   4.379   8.423   5.897  0.2499  2.4232  0.0835
  124MOL0     H16685   4.527   8.227   5.800  1.4423  0.2232  1.1362
  124MOL0     H16686   4.508   8.307   5.643 -3.9787  0.5462 -0.0977
  124MOL0     H16687   4.731   8.314   5.784  0.5744  0.2537  0.5732
  124MOL0     H16688   4.659   8.434   5.889 -3.5728 -1.8452  0.9408
  124MOL0     H16689   4.824   8.490   5.687  1.2839 -1.6747 -2.4360
  124MOL0     H16690   4.676   8.485   5.588  2.1178  0.4924 -0.0345
  124MOL0     H16691   4.537   8.714   5.581  1.7428 -0.0414 -1.6153
  124MOL0     H16692   4.651   9.051   5.747  1.1442 -2.0161  0.8646
  124MOL0     H16693   4.636   8.999   5.570 -2.6718 -2.1993 -0.9427
  124MOL0     H16694   4.409   8.915   5.611 -0.4155  0.4374  2.0341
  124MOL0     H16695   4.405   9.006   5.766  1.8123 -1.6685  1.8682
  124MOL0     H16696   4.466   9.144   5.507 -0.2169  0.2544  0.0125
  124MOL0     H16697   4.433   9.209   5.672  1.6603  1.4212 -1.1106
  124MOL0     H16698   4.206   9.194   5.642 -0.8040  2.7031 -1.2475
  124MOL0     H16699   4.218   9.069   5.512 -2.9634  1.3789 -1.3309
  124MOL0     H16700   4.005   9.189   5.501  0.0129 -0.9053 -1.4178
  124MOL0     H16701   3.822   9.295   5.402  0.2323  0.5085  2.2802
  124MOL0     H16702   3.780   9.545   4.936 -1.0562 -0.7937  0.9810
  124MOL0     H16703   3.573   9.568   4.819  1.2546  0.0304 -0.1578
  124MOL0     H16704   3.327   9.923   4.969 -1.8188 -0.0857  1.2165
  124MOL0     H16705   3.217   9.860   4.840 -2.7093 -6.9130 -1.1572
  124MOL0     H16706   3.240   9.699   5.098 -2.7067  0.1939  1.8152
  124MOL0     H16707   3.145   9.839   5.098  1.2031 -1.2094  2.6199
  124MOL0     H16708   3.040   9.727   4.872 -1.2647  1.5209  1.4518
  124MOL0     H16709   3.123   9.583   4.941  1.1250 -0.1042  1.2129
  124MOL0     H16710   2.908   9.758   5.090  2.4313  0.8466  2.0539
  124MOL0     H16711   2.971   9.609   5.149 -3.8813 -1.8821 -0.5291
  124MOL0     H16712   2.867   9.473   4.970 -0.9591  0.0858 -2.6870
  124MOL0     H16713   2.810   9.620   4.889 -0.6039 -1.4703 -0.5750
  124MOL0     H16714   2.692   9.687   5.097 -2.4046  0.7580 -1.8538
  124MOL0     H16715   2.623   9.535   5.034 -0.4037  0.7339 -1.3939
  124MOL0     H16716   2.791   9.592   5.284 -2.7449  1.6992 -0.9868
  124MOL0     H16717   2.808   9.433   5.197 -0.9442 -0.9658 -2.2605
  124MOL0     H16718   2.641   9.431   5.386  0.5986  1.6101 -0.0490
  124MOL0     H16719   2.541   9.543   5.294  2.7402  1.9400 -1.1826
  124MOL0     H16720   3.430   9.838   5.120 -0.2093  0.7226  0.4800
  124MOL0     H16721   3.639   9.801   5.251  1.8436 -1.1263  1.1284
  124MOL0     H16722   4.084   9.604   5.246 -1.7053  0.3610  0.6790
  124MOL0     H16723   4.261   9.486   5.307  0.9186 -0.8828  1.6752
  124MOL0     H16724   3.701   8.090   5.538  0.4298  0.9083  0.3804
  124MOL0     H16725   3.455   8.170   5.557 -0.9939  1.5220 -0.1098
  124MOL0     H16726   3.066   8.254   5.986 -0.3447 -2.8603 -0.8055
  124MOL0     H16727   2.833   8.272   5.952  3.1798  2.6704  3.2438
  124MOL0     H16728   2.664   8.330   5.520 -1.5016 -0.2630 -0.0906
  124MOL0     H16729   2.701   8.493   5.575  0.6993  0.5525  1.1531
  124MOL0     H16730   2.482   8.483   5.516  1.1908  3.2776  0.3173
  124MOL0     H16731   2.483   8.489   5.694  1.4053 -1.2296 -0.1137
  124MOL0     H16732   2.452   8.255   5.720 -0.0852 -2.0504 -0.5531
  124MOL0     H16733   2.467   8.233   5.540 -3.3363  0.6913 -2.5367
  124MOL0     H16734   2.266   8.420   5.664  1.8339  2.3734 -2.4836
  124MOL0     H16735   2.259   8.370   5.500 -3.7922  1.4229  1.7851
  124MOL0     H16736   2.033   8.075   5.656  0.7377 -0.4983 -1.3915
  124MOL0     H16737   2.904   8.385   5.535 -0.7001 -0.5668  0.0402
  124MOL0     H16738   3.210   8.458   5.521  3.6046 -2.6349 -1.4336
  124MOL0     H16739   3.224   8.285   5.506 -0.2840 -0.6739  2.5379
  124MOL0     H16740   3.089   8.352   5.438  0.0472 -0.9521  0.8364
  125MOL0     O16741  10.370   8.499   0.049 -0.4991  0.2125 -0.0046
  125MOL0     C16742  10.278   8.447  -0.005  0.4975 -0.2924  0.6092
  125MOL0     O16743  10.276   8.315  -0.048 -0.1702  0.0606  0.1165
  125MOL0     C16744  10.394   8.253  -0.062  0.5436 -0.8322  0.2001
  125MOL0     C16745  10.477   8.261  -0.179 -0.1644 -0.0298 -0.3741
  125MOL0     C16746  10.597   8.187  -0.183  0.2605  0.5170  0.0043
  125MOL0     C16747  10.634   8.093  -0.078  0.3924  0.1917  0.5932
  125MOL0     O16748  10.750   8.026  -0.079  0.9002  0.4994 -0.2879
  125MOL0     C16749  10.753   7.893  -0.027  0.1982 -0.2634 -0.4364
  125MOL0     C16750  10.901   7.868   0.015  0.6145 -0.2350 -0.0012
  125MOL0     C16751  10.932   7.713   0.006 -0.1191 -0.8205 -0.5766
  125MOL0     C16752  11.070   7.680   0.045 -0.3106  0.6377 -0.5486
  125MOL0     C16753  11.182   7.793   0.027 -0.1261  0.5027  0.2711
  125MOL0     C16754  11.325   7.749   0.062  0.5116  0.8064  0.1435
  125MOL0     C16755  11.330   7.699   0.211 -0.5842  1.1447 -0.0074
  125MOL0     C16756  11.483   7.688   0.246 -0.0618  0.0580  0.5477
  125MOL0     N16757  11.558   7.590   0.161 -0.5146 -0.3075  0.2213
  125MOL0     C16758  11.584   7.461   0.206 -0.0797 -0.1223 -1.0553
  125MOL0     C16759  11.674   7.415   0.117  0.4834 -0.5387  0.3528
  125MOL0     C16760  11.739   7.279   0.121 -0.5173  0.1766  0.5576
  125MOL0     C16761  11.797   7.243   0.262  0.6139  0.3435  0.0353
  125MOL0     C16762  11.864   7.101   0.270 -1.1011  0.3518 -0.4478
  125MOL0     C16763  11.771   6.989   0.242  0.2152 -0.2749 -0.4439
  125MOL0     O16764  11.659   6.981   0.336  0.5306 -0.5735  0.0122
  125MOL0     C16765  11.556   6.904   0.281 -0.4941  0.1121 -1.4202
  125MOL0     C16766  11.581   6.782   0.211  0.2209  1.0023 -1.0322
  125MOL0     C16767  11.482   6.716   0.140  1.0705  0.0737  0.3718
  125MOL0     C16768  11.344   6.758   0.151 -0.4275 -0.4146  0.4711
  125MOL0     C16769  11.238   6.680   0.087 -0.0879  0.0444  0.5113
  125MOL0     O16770  11.274   6.555   0.054  0.4016  0.2468  0.1334
  125MOL0     C16771  11.198   6.466  -0.026  0.3041 -0.8481 -1.1551
  125MOL0     C16772  11.055   6.465  -0.008 -0.0770  0.5488 -0.2335
  125MOL0     C16773  10.977   6.372  -0.081 -0.6237  1.4348  0.1449
  125MOL0     C16774  11.033   6.271  -0.168 -0.8346  0.0144  0.2512
  125MOL0     O16775  10.960   6.180  -0.239  0.0480  0.1600 -0.4866
  125MOL0     C16776  10.823   6.150  -0.197 -0.2789  0.4747 -0.8914
  125MOL0     C16777  10.819   6.062  -0.070  1.1411  0.0717  0.0422
  125MOL0     C16778  10.676   6.017  -0.029  0.1892  0.8135  0.4211
  125MOL0     C16779  10.624   5.903  -0.109  0.5629  0.1168 -0.9294
  125MOL0     C16780  10.526   5.819  -0.035  0.6969  0.0387 -0.2734
  125MOL0     C16781  10.567   5.685   0.017 -0.0032 -0.5616 -0.3650
  125MOL0     C16782  10.635   5.694   0.158 -1.0084 -0.4624  0.9599
  125MOL0     C16783  10.647   5.561   0.235 -0.2441 -0.3039  0.3735
  125MOL0    Cl16784  10.780   5.467   0.183  0.0466 -0.0738  0.4382
  125MOL0     C16785  11.173   6.266  -0.174 -0.6395  0.6897  0.2288
  125MOL0     C16786  11.254   6.358  -0.104  0.1454  0.4535 -0.9544
  125MOL0     O16787  11.129   6.727   0.071 -0.5661 -0.8040 -0.0562
  125MOL0     C16788  11.319   6.876   0.220  0.5009  0.7042  0.8902
  125MOL0     C16789  11.423   6.942   0.281 -0.3433 -0.2482 -0.4406
  125MOL0     N16790  11.694   7.512   0.018  0.0268 -0.3086 -0.2155
  125MOL0     N16791  11.620   7.611   0.046  0.0936 -1.1697 -0.2899
  125MOL0     C16792  10.563   8.103   0.035  1.0583 -0.4301 -0.2933
  125MOL0     C16793  10.441   8.172   0.045 -0.0177  0.7228 -0.8643
  125MOL0     C16794  10.156   8.523  -0.024  0.0724 -0.6423 -0.9542
  125MOL0     C16795  10.038   8.449  -0.050 -0.8038 -0.6173  0.5431
  125MOL0     C16796   9.908   8.513  -0.056 -0.1406  1.2688 -0.4407
  125MOL0     C16797   9.897   8.646  -0.034  0.7969  0.1783 -0.1322
  125MOL0     O16798   9.765   8.705  -0.043 -0.4711 -0.0745  0.0433
  125MOL0     C16799   9.740   8.814   0.049  0.9623 -0.1943 -0.1178
  125MOL0     C16800   9.660   8.927  -0.023  0.1528 -0.3317  0.6389
  125MOL0     C16801   9.745   8.992  -0.141  0.1902 -0.1630 -0.5038
  125MOL0     C16802   9.857   9.080  -0.087  0.7831 -0.7005 -0.6188
  125MOL0     C16803   9.795   9.187  -0.001 -0.6128  0.2195 -0.2488
  125MOL0     C16804   9.747   9.276   0.068 -0.6445 -0.1928 -0.4490
  125MOL0     C16805  10.012   8.720  -0.002  0.1814 -1.0798 -1.0574
  125MOL0     C16806  10.139   8.658   0.011  0.0913 -0.1300 -0.9307
  125MOL0     C16807  10.255   8.748   0.039  0.1473 -1.4782 -0.8598
  125MOL0     H16808  10.453   8.338  -0.251 -1.9841  0.8387  1.0695
  125MOL0     H16809  10.649   8.206  -0.276 -0.4971  1.6564 -0.2008
  125MOL0     H16810  10.686   7.880   0.059 -0.1462  1.4447 -0.4065
  125MOL0     H16811  10.719   7.833  -0.112  0.3051  1.5837 -1.8675
  125MOL0     H16812  10.915   7.914   0.113 -0.3186 -0.7172  0.3761
  125MOL0     H16813  10.961   7.916  -0.062  0.6724 -0.4389 -0.0844
  125MOL0     H16814  10.915   7.685  -0.099  1.5105  1.0659 -1.4198
  125MOL0     H16815  10.855   7.658   0.061  0.1097  0.5811  1.2407
  125MOL0     H16816  11.073   7.659   0.152  0.2515  0.4336 -0.5984
  125MOL0     H16817  11.100   7.593  -0.016  2.1320 -0.2285  1.7053
  125MOL0     H16818  11.178   7.820  -0.079 -1.3984 -1.6133 -0.2799
  125MOL0     H16819  11.169   7.881   0.091  1.7968  0.0869  1.2808
  125MOL0     H16820  11.365   7.676  -0.010  3.6819  0.0686  2.4359
  125MOL0     H16821  11.385   7.838   0.045  2.3261 -0.7871 -2.5059
  125MOL0     H16822  11.285   7.602   0.234 -0.2057  1.5155  2.6497
  125MOL0     H16823  11.281   7.766   0.282 -4.0168 -2.2302  1.1604
  125MOL0     H16824  11.524   7.789   0.232 -0.7017  0.1647 -0.6869
  125MOL0     H16825  11.493   7.659   0.351 -2.5719 -1.4077  0.4543
  125MOL0     H16826  11.553   7.416   0.300 -0.8383  0.5611 -0.9607
  125MOL0     H16827  11.662   7.206   0.096 -0.1187 -0.2004  0.4164
  125MOL0     H16828  11.825   7.292   0.054 -0.1045 -1.0145  0.8397
  125MOL0     H16829  11.862   7.322   0.302  3.6153 -1.5179 -0.8678
  125MOL0     H16830  11.703   7.244   0.319  1.5531 -0.8742  1.6904
  125MOL0     H16831  11.894   7.092   0.375 -2.5490  0.3159 -0.0124
  125MOL0     H16832  11.948   7.107   0.200 -1.9459  1.8870 -1.4018
  125MOL0     H16833  11.845   6.910   0.253  1.2854  0.9499  2.0662
  125MOL0     H16834  11.740   7.002   0.138  3.5376  1.3355 -1.3805
  125MOL0     H16835  11.678   6.733   0.203 -0.1331  0.3252 -1.2704
  125MOL0     H16836  11.509   6.641   0.067  2.1536  1.3757 -0.6006
  125MOL0     H16837  10.987   6.521   0.055  0.3865  0.4723  0.3459
  125MOL0     H16838  10.869   6.363  -0.072 -0.4369 -1.3695  0.4575
  125MOL0     H16839  10.762   6.240  -0.190  0.4715  0.8784  0.8773
  125MOL0     H16840  10.782   6.081  -0.272 -0.6751  0.4649 -0.6658
  125MOL0     H16841  10.878   5.971  -0.080  0.4882 -0.4102  0.4091
  125MOL0     H16842  10.867   6.114   0.014  0.6765  2.4100 -1.0864
  125MOL0     H16843  10.688   5.986   0.076  1.3605  1.7971  0.6093
  125MOL0     H16844  10.603   6.096  -0.011 -0.1867  0.2139  1.7105
  125MOL0     H16845  10.711   5.844  -0.139  1.8594  1.7134 -0.4583
  125MOL0     H16846  10.568   5.940  -0.195 -0.5004 -2.3002 -1.3675
  125MOL0     H16847  10.448   5.800  -0.110  0.5744  0.4112 -0.2434
  125MOL0     H16848  10.483   5.873   0.049  0.7072 -1.0850  0.4742
  125MOL0     H16849  10.478   5.624   0.032 -1.3048  0.7989 -2.2376
  125MOL0     H16850  10.636   5.644  -0.058  1.8650  0.5677  0.6394
  125MOL0     H16851  10.568   5.748   0.227  1.0120 -0.4618  3.0558
  125MOL0     H16852  10.734   5.741   0.151  0.5046 -3.6475 -1.5790
  125MOL0     H16853  10.668   5.579   0.341  3.3156  1.4569 -0.4816
  125MOL0     H16854  10.550   5.513   0.219 -0.9213  1.8836 -3.2751
  125MOL0     H16855  11.223   6.183  -0.223 -2.9158  0.4023 -1.8516
  125MOL0     H16856  11.362   6.350  -0.109  0.3569  2.2112  0.0353
  125MOL0     H16857  11.214   6.899   0.233 -0.4764 -2.2554 -0.8220
  125MOL0     H16858  11.404   7.031   0.340 -1.4110 -0.9926  0.3816
  125MOL0     H16859  10.581   8.050   0.128 -3.1106  2.4404  2.5296
  125MOL0     H16860  10.385   8.149   0.134 -2.0898 -0.6445 -2.4267
  125MOL0     H16861  10.038   8.341  -0.045 -1.7252 -0.5754  2.9326
  125MOL0     H16862   9.819   8.452  -0.065 -1.1268  2.0288  2.8408
  125MOL0     H16863   9.831   8.852   0.096  0.6110  1.8365 -0.9871
  125MOL0     H16864   9.668   8.779   0.124 -0.9359 -0.8779 -2.1200
  125MOL0     H16865   9.617   8.997   0.048  1.0803  1.7311 -0.7465
  125MOL0     H16866   9.571   8.883  -0.068  0.0103  0.1504  0.4500
  125MOL0     H16867   9.691   9.067  -0.200  2.7683  3.0720  0.8716
  125MOL0     H16868   9.782   8.915  -0.210  0.6967  1.1065 -1.7043
  125MOL0     H16869   9.934   9.019  -0.039  2.3331  1.0075 -0.8229
  125MOL0     H16870   9.900   9.139  -0.169 -1.5177  0.4744 -1.0764
  125MOL0     H16871   9.715   9.359   0.127 -0.8049 -1.1986  0.9442
  125MOL0     H16872   9.999   8.828   0.007  0.1339 -1.0952 -0.9370
  125MOL0     H16873  10.229   8.855   0.033 -0.9170 -1.7881 -2.5724
  125MOL0     H16874  10.283   8.718   0.140 -1.3815  0.2573  0.1526
  125MOL0     H16875  10.340   8.743  -0.030  0.5806  0.0665 -0.4805
  126MOL0     O16876   8.230   6.124   4.974 -0.3977  0.2371 -0.1857
  126MOL0     C16877   8.165   6.121   5.080  0.1310 -0.1776  0.3988
  126MOL0     O16878   8.022   6.150   5.089 -0.2415  0.4294 -0.4285
  126MOL0     C16879   7.965   6.206   4.976 -0.3090 -0.4792 -0.4919
  126MOL0     C16880   7.852   6.149   4.935 -0.0363  0.4757  0.2321
  126MOL0     C16881   7.783   6.204   4.833  0.2064 -0.1264  0.0051
  126MOL0     C16882   7.828   6.315   4.758  0.5575 -0.2090 -0.3525
  126MOL0     O16883   7.757   6.389   4.665  0.3534 -0.0998 -0.0109
  126MOL0     C16884   7.617   6.355   4.638 -0.3832  0.2084 -0.0888
  126MOL0     C16885   7.595   6.400   4.498  0.2113 -0.1517  1.1346
  126MOL0     C16886   7.449   6.349   4.451 -0.2330 -0.5825 -0.6507
  126MOL0     C16887   7.387   6.427   4.339 -0.4350  0.2107  0.1274
  126MOL0     C16888   7.476   6.460   4.227  0.1011  0.4391  0.5261
  126MOL0     C16889   7.496   6.343   4.143 -0.7102 -0.1554  0.2641
  126MOL0     C16890   7.578   6.359   4.017  0.0134 -0.1218  0.0879
  126MOL0     C16891   7.511   6.414   3.894  0.6736 -0.4200 -0.3819
  126MOL0     N16892   7.603   6.408   3.783  0.4057  0.3710 -0.2348
  126MOL0     C16893   7.591   6.302   3.691 -0.5403 -0.3397 -0.4860
  126MOL0     C16894   7.664   6.354   3.592  0.4083  0.9103  0.5152
  126MOL0     C16895   7.704   6.273   3.474 -1.3072 -0.7164 -0.6667
  126MOL0     C16896   7.824   6.336   3.393  0.2209 -0.5400  0.6872
  126MOL0     C16897   7.831   6.262   3.259 -0.1278 -0.2451  0.5011
  126MOL0     C16898   7.952   6.309   3.166 -0.1545 -0.4289 -0.6945
  126MOL0     O16899   7.964   6.213   3.056 -0.0223  0.1844  0.3740
  126MOL0     C16900   8.058   6.223   2.958  0.4825 -0.3274 -0.3115
  126MOL0     C16901   8.054   6.117   2.871  0.3357  0.6941  0.4866
  126MOL0     C16902   8.146   6.120   2.766  0.4194  0.3638  0.0897
  126MOL0     C16903   8.245   6.219   2.744 -0.9374 -0.1068  0.4012
  126MOL0     C16904   8.342   6.210   2.634  0.0562  0.4890 -0.3055
  126MOL0     O16905   8.352   6.088   2.575 -1.0337  0.0012 -0.5776
  126MOL0     C16906   8.453   6.075   2.484 -0.9543 -0.1433 -0.7398
  126MOL0     C16907   8.419   5.989   2.384 -0.8146  0.8131  0.1873
  126MOL0     C16908   8.506   5.954   2.279  0.1421 -1.1929  0.7980
  126MOL0     C16909   8.639   6.003   2.279 -0.8326 -0.3967 -0.3493
  126MOL0     O16910   8.722   5.957   2.172  0.8515  0.1861 -0.1887
  126MOL0     C16911   8.840   6.023   2.157 -1.3513  0.2577  0.4433
  126MOL0     C16912   8.927   5.979   2.042  0.1292  0.6373 -0.2409
  126MOL0     C16913   8.850   5.986   1.913 -0.5189  0.3394  0.3480
  126MOL0     C16914   8.947   5.988   1.790  0.7992  0.2292 -0.8460
  126MOL0     C16915   8.887   5.989   1.652 -0.8719  0.7818  0.2026
  126MOL0     C16916   8.988   6.019   1.541 -1.3281  0.9176  1.1979
  126MOL0     C16917   9.106   5.914   1.519 -0.1839 -0.4463 -0.3940
  126MOL0     C16918   9.057   5.771   1.481 -0.9955 -0.5451  0.1268
  126MOL0    Cl16919   8.986   5.785   1.314  0.3342 -0.4092  0.2286
  126MOL0     C16920   8.669   6.092   2.379 -0.5487  1.2672 -0.6800
  126MOL0     C16921   8.584   6.135   2.486  0.7052 -0.2258 -0.4654
  126MOL0     O16922   8.397   6.310   2.604  0.1528 -0.2352  0.5045
  126MOL0     C16923   8.237   6.330   2.826 -0.4526  0.2052  0.3726
  126MOL0     C16924   8.145   6.327   2.933  0.2250 -0.4702 -0.9157
  126MOL0     N16925   7.728   6.471   3.630  0.3402  0.0772  0.8018
  126MOL0     N16926   7.689   6.508   3.750  0.7741  0.0714  0.5615
  126MOL0     C16927   7.943   6.376   4.805 -0.2840 -0.2019  0.2733
  126MOL0     C16928   8.019   6.315   4.903 -0.1188 -0.0958 -0.2413
  126MOL0     C16929   8.218   6.058   5.206 -0.9308 -0.2947  0.6705
  126MOL0     C16930   8.355   6.021   5.215  0.2619 -0.4803  0.7396
  126MOL0     C16931   8.411   5.950   5.324 -0.1572 -0.5910 -0.2868
  126MOL0     C16932   8.333   5.939   5.438 -0.1130  0.6257 -0.7458
  126MOL0     O16933   8.394   5.876   5.541  0.7097 -0.5272 -0.3492
  126MOL0     C16934   8.337   5.860   5.677 -0.2238  0.1668 -0.3179
  126MOL0     C16935   8.436   5.801   5.780 -0.4059 -0.8667  0.5764
  126MOL0     C16936   8.576   5.887   5.757 -0.1662  0.0894 -0.1012
  126MOL0     C16937   8.701   5.826   5.847  1.0910 -0.4392  0.3280
  126MOL0     C16938   8.677   5.840   5.988 -0.2429 -0.1994  0.7344
  126MOL0     C16939   8.640   5.828   6.105 -0.7097 -0.1064  0.6658
  126MOL0     C16940   8.196   5.960   5.434 -0.8678  0.7509  0.2774
  126MOL0     C16941   8.140   6.019   5.319 -0.1915 -0.0658  0.6274
  126MOL0     C16942   7.991   6.042   5.333  0.4353  0.0594 -0.1838
  126MOL0     H16943   7.821   6.063   4.994  1.2156 -0.2261 -0.1181
  126MOL0     H16944   7.694   6.149   4.805 -0.3885  1.6371 -1.8384
  126MOL0     H16945   7.598   6.247   4.641 -0.7631  0.2372 -1.0730
  126MOL0     H16946   7.548   6.415   4.699 -0.7135  1.4881 -1.6526
  126MOL0     H16947   7.673   6.365   4.429 -2.1542 -0.3522 -1.6353
  126MOL0     H16948   7.592   6.509   4.495 -1.7574 -0.1866 -1.7259
  126MOL0     H16949   7.387   6.340   4.541  2.5926 -0.7831  1.4183
  126MOL0     H16950   7.467   6.245   4.422 -1.9048 -0.5936 -1.7884
  126MOL0     H16951   7.303   6.364   4.311 -0.9701  0.0612  1.9491
  126MOL0     H16952   7.350   6.522   4.378 -0.7271 -0.4518  1.5219
  126MOL0     H16953   7.414   6.539   4.183  1.3518  0.5941 -1.0579
  126MOL0     H16954   7.567   6.511   4.261  0.0828  0.6298  0.2951
  126MOL0     H16955   7.549   6.265   4.199  2.1957 -1.1818 -3.4901
  126MOL0     H16956   7.399   6.304   4.111 -0.1153 -0.1500 -1.7088
  126MOL0     H16957   7.606   6.258   3.986 -4.7153 -1.2566 -1.2579
  126MOL0     H16958   7.665   6.420   4.044 -1.0438  0.1161  3.4279
  126MOL0     H16959   7.416   6.362   3.882 -2.5427  3.9492  2.8055
  126MOL0     H16960   7.486   6.518   3.917  0.4635 -0.3198 -1.0449
  126MOL0     H16961   7.532   6.211   3.696  0.5530 -1.0114  1.5245
  126MOL0     H16962   7.726   6.169   3.502 -1.5025 -1.0601 -1.7569
  126MOL0     H16963   7.614   6.266   3.412 -1.0278  0.9230 -1.2909
  126MOL0     H16964   7.817   6.444   3.378  1.3150 -0.8098 -2.7307
  126MOL0     H16965   7.922   6.322   3.438  1.0550  1.0266 -0.5389
  126MOL0     H16966   7.736   6.269   3.205 -0.8027  0.3749  1.7316
  126MOL0     H16967   7.852   6.157   3.280 -0.5458 -0.3067  0.6117
  126MOL0     H16968   8.041   6.315   3.229 -2.1331  0.9718  2.2162
  126MOL0     H16969   7.931   6.405   3.119 -1.8656 -1.9462 -3.2565
  126MOL0     H16970   7.994   6.030   2.895  0.9986  0.0041 -0.3227
  126MOL0     H16971   8.152   6.026   2.711  2.0759 -0.5761  1.7443
  126MOL0     H16972   8.313   5.968   2.375 -0.7394  0.9522 -1.3265
  126MOL0     H16973   8.465   5.885   2.207 -0.1468 -0.7559  0.5349
  126MOL0     H16974   8.818   6.129   2.141 -0.2641  0.3662 -0.4824
  126MOL0     H16975   8.904   6.003   2.243  1.7388 -0.0577 -1.7721
  126MOL0     H16976   9.008   6.053   2.033  0.6953 -0.1304 -2.0445
  126MOL0     H16977   8.976   5.882   2.050 -1.8201 -0.5103 -1.3273
  126MOL0     H16978   8.771   5.913   1.896  0.2777 -0.7340  1.0685
  126MOL0     H16979   8.808   6.087   1.908  0.7612  0.8387 -1.3487
  126MOL0     H16980   9.010   5.899   1.789  0.0381 -0.3399 -2.7468
  126MOL0     H16981   9.008   6.078   1.805 -1.3401  1.9645 -1.9296
  126MOL0     H16982   8.805   6.061   1.661 -0.1938  1.4084  1.5673
  126MOL0     H16983   8.838   5.892   1.638 -0.0144  0.2367  0.8757
  126MOL0     H16984   8.933   6.025   1.446  0.5373 -2.4347 -0.2871
  126MOL0     H16985   9.037   6.114   1.558 -2.1113  1.5896 -0.1025
  126MOL0     H16986   9.151   5.911   1.619  0.7667  0.0302 -0.7979
  126MOL0     H16987   9.178   5.953   1.447 -0.5748  1.5713  0.2308
  126MOL0     H16988   9.148   5.709   1.480  0.0309  0.8864  1.0352
  126MOL0     H16989   8.988   5.734   1.557 -2.2276  3.3394  1.1192
  126MOL0     H16990   8.770   6.127   2.399 -0.3268  0.1113  0.3316
  126MOL0     H16991   8.619   6.187   2.575 -1.3450 -3.0970  2.2264
  126MOL0     H16992   8.300   6.418   2.823 -3.0514  2.1419 -1.1602
  126MOL0     H16993   8.141   6.415   2.997  1.9046 -1.8348  1.2285
  126MOL0     H16994   7.983   6.468   4.762  1.9752 -1.2152  0.0769
  126MOL0     H16995   8.118   6.352   4.929 -0.3149  0.4449 -0.2455
  126MOL0     H16996   8.418   6.042   5.130  0.1279 -4.3530 -0.5028
  126MOL0     H16997   8.512   5.910   5.320 -0.8650 -2.5742  0.5535
  126MOL0     H16998   8.247   5.797   5.679  0.7535 -1.4682 -2.8287
  126MOL0     H16999   8.305   5.963   5.697  0.5827  0.4747 -0.5808
  126MOL0     H17000   8.448   5.693   5.776 -0.6236 -0.8472 -1.5727
  126MOL0     H17001   8.409   5.819   5.885 -1.0233  3.1295 -0.0809
  126MOL0     H17002   8.571   5.994   5.779  0.2955  0.2235 -0.6442
  126MOL0     H17003   8.616   5.883   5.655  0.8804 -1.6656  0.3321
  126MOL0     H17004   8.711   5.723   5.813  1.7920 -0.1257 -0.4538
  126MOL0     H17005   8.795   5.879   5.829  2.2810 -2.2582  0.9737
  126MOL0     H17006   8.615   5.817   6.208 -1.2750  2.0973  0.8164
  126MOL0     H17007   8.138   5.935   5.522 -2.8355  0.4330 -1.0648
  126MOL0     H17008   7.969   6.018   5.437  3.6700 -0.4236  0.4934
  126MOL0     H17009   7.960   6.146   5.325 -2.2066 -0.4398  2.2485
  126MOL0     H17010   7.926   5.976   5.274  1.8170 -2.6680  1.1289
  127MOL0     O17011   8.071   3.331   0.391 -0.0292  0.2335 -1.2236
  127MOL0     C17012   8.141   3.417   0.447 -0.8331 -0.1712  0.5914
  127MOL0     O17013   8.105   3.546   0.456  0.4108 -0.0057  0.0317
  127MOL0     C17014   7.996   3.587   0.387 -0.3378  0.8129 -0.9263
  127MOL0     C17015   7.866   3.532   0.404  0.2038  0.5117 -0.3069
  127MOL0     C17016   7.761   3.585   0.333  0.3859  0.2036  0.0807
  127MOL0     C17017   7.773   3.683   0.243 -0.4697 -0.0245  0.9590
  127MOL0     O17018   7.675   3.745   0.169 -0.1894  0.4174  0.2288
  127MOL0     C17019   7.558   3.681   0.122 -0.1801  0.8801 -0.3960
  127MOL0     C17020   7.450   3.731   0.208  0.6937 -1.5073  0.0953
  127MOL0     C17021   7.333   3.641   0.220  0.4984  0.5142 -0.3645
  127MOL0     C17022   7.263   3.630   0.095  0.1199  0.0732 -0.9125
  127MOL0     C17023   7.193   3.761   0.050  0.3370  0.4946  0.0394
  127MOL0     C17024   7.069   3.739  -0.035  0.0730  0.1908 -0.0601
  127MOL0     C17025   7.002   3.878  -0.058 -0.1656  0.4357  1.3660
  127MOL0     C17026   6.884   3.859  -0.161  0.4158  1.3455 -0.6297
  127MOL0     N17027   6.804   3.738  -0.137 -0.3037  0.0785 -0.7149
  127MOL0     C17028   6.716   3.742  -0.035  0.7486  0.0217 -0.2733
  127MOL0     C17029   6.651   3.621  -0.043  0.9227  1.4661  0.6323
  127MOL0     C17030   6.534   3.564   0.032 -0.4554  0.0165 -0.3317
  127MOL0     C17031   6.426   3.500  -0.057 -0.1128  0.3769 -1.0115
  127MOL0     C17032   6.301   3.453   0.026 -0.0798  0.4778 -0.2007
  127MOL0     C17033   6.180   3.417  -0.062  0.0377  0.3668  0.5845
  127MOL0     O17034   6.065   3.425   0.016 -0.5198 -0.2838  0.2393
  127MOL0     C17035   5.947   3.357  -0.001  1.1512  0.2111 -1.1737
  127MOL0     C17036   5.933   3.236  -0.063  0.5919  0.4295  0.2137
  127MOL0     C17037   5.825   3.149  -0.045  0.0008  0.7218 -0.0423
  127MOL0     C17038   5.719   3.187   0.038 -0.8541 -0.3954 -0.1312
  127MOL0     C17039   5.600   3.100   0.064 -0.1892  1.0582 -0.3712
  127MOL0     O17040   5.633   2.970   0.099 -0.4083 -0.0887  0.2191
  127MOL0     C17041   5.533   2.883   0.111  0.5907 -0.1454  0.1278
  127MOL0     C17042   5.549   2.789   0.212  0.5293 -0.3420 -0.0489
  127MOL0     C17043   5.447   2.684   0.228 -0.1215 -0.6761 -0.2959
  127MOL0     C17044   5.323   2.697   0.159  1.1822 -0.3615 -0.9390
  127MOL0     O17045   5.219   2.622   0.196  0.2642 -0.7944 -0.1885
  127MOL0     C17046   5.088   2.643   0.132 -0.6061  0.0430 -0.2268
  127MOL0     C17047   4.984   2.566   0.220 -0.3635 -0.5729  0.3650
  127MOL0     C17048   4.980   2.420   0.190 -0.6584 -0.5348 -0.2887
  127MOL0     C17049   4.852   2.351   0.241 -0.2773  0.1339  0.8340
  127MOL0     C17050   4.886   2.197   0.228  0.4061 -0.1175 -1.1293
  127MOL0     C17051   4.779   2.109   0.309  0.6812 -0.9331  0.4847
  127MOL0     C17052   4.800   1.961   0.291 -1.1794 -0.9467 -0.0354
  127MOL0     C17053   4.700   1.883   0.386 -0.3742 -0.1615 -0.4403
  127MOL0    Cl17054   4.709   1.705   0.378  0.4126  0.2804 -0.2040
  127MOL0     C17055   5.313   2.801   0.058 -0.0603  0.4400 -0.7959
  127MOL0     C17056   5.416   2.890   0.036  0.4327 -0.4149  0.9797
  127MOL0     O17057   5.483   3.154   0.071 -0.5028  0.0262 -0.6745
  127MOL0     C17058   5.730   3.312   0.098 -0.8237 -0.0832 -0.4044
  127MOL0     C17059   5.839   3.403   0.073  0.3531 -0.0461 -0.8548
  127MOL0     N17060   6.708   3.560  -0.152 -0.3283  0.7664  0.8259
  127MOL0     N17061   6.802   3.624  -0.203 -0.0194  0.3504 -0.5429
  127MOL0     C17062   7.896   3.747   0.230 -0.0151 -0.5448 -0.3981
  127MOL0     C17063   8.011   3.699   0.305 -0.2285 -0.4818 -0.3007
  127MOL0     C17064   8.272   3.376   0.504 -0.5620  0.5181  1.1684
  127MOL0     C17065   8.291   3.404   0.631 -0.3476 -0.4201  0.3506
  127MOL0     C17066   8.409   3.358   0.705 -0.0956 -0.1303  0.5427
  127MOL0     C17067   8.504   3.280   0.637 -0.1204 -0.9370  0.5828
  127MOL0     O17068   8.621   3.237   0.682 -0.1186  0.4316  0.0004
  127MOL0     C17069   8.646   3.269   0.826 -0.0829  0.2946 -0.5307
  127MOL0     C17070   8.787   3.237   0.842 -0.4545 -0.2002 -0.3981
  127MOL0     C17071   8.874   3.329   0.937  0.7062  0.3137 -1.1099
  127MOL0     C17072   9.020   3.291   0.926 -0.6957  0.5463  0.2376
  127MOL0     C17073   9.099   3.341   1.040 -0.1944  0.6922 -0.4584
  127MOL0     C17074   9.161   3.393   1.137 -0.4938 -0.0497  0.5424
  127MOL0     C17075   8.470   3.234   0.513  0.1275 -0.3249  0.1509
  127MOL0     C17076   8.365   3.288   0.439  0.2860  0.5968  0.6746
  127MOL0     C17077   8.358   3.244   0.298 -0.2224  0.6156  0.9620
  127MOL0     H17078   7.832   3.451   0.467  1.0604 -1.7425 -2.5953
  127MOL0     H17079   7.659   3.548   0.342  0.5835 -0.5754 -0.7777
  127MOL0     H17080   7.544   3.716   0.019 -1.4050  1.2146 -0.1334
  127MOL0     H17081   7.565   3.572   0.130  0.6832  0.9921  0.5540
  127MOL0     H17082   7.409   3.827   0.176  1.1005 -0.9309  1.2117
  127MOL0     H17083   7.488   3.768   0.304  0.2162  2.2072 -0.9971
  127MOL0     H17084   7.263   3.675   0.296 -1.1271 -3.0089 -0.0790
  127MOL0     H17085   7.374   3.548   0.261  5.3154  2.6608  0.3572
  127MOL0     H17086   7.329   3.587   0.019  0.6628 -0.1914 -0.2987
  127MOL0     H17087   7.182   3.557   0.109  0.0202  0.6004  1.7752
  127MOL0     H17088   7.161   3.814   0.140  3.0159  2.7833 -0.2436
  127MOL0     H17089   7.258   3.835   0.001  0.7695 -0.7394 -1.3293
  127MOL0     H17090   7.120   3.682  -0.113 -0.3733 -3.0702  1.8524
  127MOL0     H17091   7.000   3.672   0.017  0.9202  1.2743  2.6494
  127MOL0     H17092   7.070   3.949  -0.105  0.2900 -0.6795  0.3050
  127MOL0     H17093   6.967   3.910   0.041  0.0719 -1.3158  2.0563
  127MOL0     H17094   6.818   3.946  -0.158 -0.9808  0.4001 -2.1915
  127MOL0     H17095   6.932   3.853  -0.259  0.4258 -1.2661 -0.5396
  127MOL0     H17096   6.704   3.819   0.041 -0.1679 -2.0949  1.8457
  127MOL0     H17097   6.574   3.479   0.087  4.5365  1.7378 -0.7756
  127MOL0     H17098   6.496   3.642   0.099  0.3676 -0.3416  0.5573
  127MOL0     H17099   6.386   3.580  -0.120 -2.7532 -0.5115 -0.5896
  127MOL0     H17100   6.463   3.419  -0.121  1.1334 -0.1055  0.2681
  127MOL0     H17101   6.271   3.528   0.099 -0.6879 -0.1737  0.2402
  127MOL0     H17102   6.329   3.360   0.077  3.8028  2.3717  1.5572
  127MOL0     H17103   6.205   3.322  -0.110  0.2443  0.7219 -0.0219
  127MOL0     H17104   6.170   3.486  -0.147 -0.8717 -1.3000 -0.7178
  127MOL0     H17105   6.001   3.202  -0.140 -2.2902  1.0174 -2.8664
  127MOL0     H17106   5.822   3.045  -0.078  0.6274  1.2028 -1.7222
  127MOL0     H17107   5.638   2.794   0.273  0.7973 -2.0074 -0.2467
  127MOL0     H17108   5.450   2.614   0.310  0.1173  1.0984  1.2808
  127MOL0     H17109   5.061   2.749   0.131 -0.0668  0.2656  2.3191
  127MOL0     H17110   5.073   2.605   0.030  0.3225 -0.8143 -0.0593
  127MOL0     H17111   5.003   2.581   0.327 -3.1989  0.3526  0.8069
  127MOL0     H17112   4.892   2.615   0.189  0.9154  1.8079  0.0344
  127MOL0     H17113   4.996   2.395   0.084  0.4160 -2.3546  0.2440
  127MOL0     H17114   5.068   2.372   0.234 -0.1214 -0.2658 -1.0486
  127MOL0     H17115   4.759   2.372   0.188  0.0412 -0.0481  0.1935
  127MOL0     H17116   4.821   2.373   0.343 -1.1188  0.1050  0.5915
  127MOL0     H17117   4.989   2.182   0.261  0.2606  2.6156  0.9526
  127MOL0     H17118   4.870   2.156   0.128 -4.2102 -1.7599  0.0315
  127MOL0     H17119   4.782   2.139   0.414  1.7628  4.0647 -0.7279
  127MOL0     H17120   4.692   2.144   0.251  1.3940  2.3217  1.2022
  127MOL0     H17121   4.900   1.933   0.325 -0.0615  2.7234  0.1307
  127MOL0     H17122   4.796   1.926   0.187  0.0708  0.0889 -0.4609
  127MOL0     H17123   4.717   1.906   0.491 -2.1154 -2.8509  0.5162
  127MOL0     H17124   4.594   1.909   0.380 -0.1100  0.6632 -2.3289
  127MOL0     H17125   5.218   2.824   0.010 -0.0896  4.8035  0.9398
  127MOL0     H17126   5.400   2.959  -0.047 -2.3755 -2.5053 -0.3671
  127MOL0     H17127   5.646   3.345   0.158 -1.9289 -2.5183 -0.5037
  127MOL0     H17128   5.848   3.498   0.123  3.4950 -0.1420 -1.0860
  127MOL0     H17129   7.899   3.827   0.157  0.5556 -1.3968 -1.3383
  127MOL0     H17130   8.110   3.740   0.292 -0.0068 -0.2632  1.7598
  127MOL0     H17131   8.220   3.460   0.690 -2.5196 -1.1565 -1.4427
  127MOL0     H17132   8.422   3.377   0.811 -0.2754 -1.8024  0.8902
  127MOL0     H17133   8.574   3.217   0.890  0.2763 -2.6587 -2.3424
  127MOL0     H17134   8.637   3.377   0.842 -0.7726  0.0869  0.5883
  127MOL0     H17135   8.827   3.246   0.740 -3.1217 -0.0090 -1.5018
  127MOL0     H17136   8.798   3.134   0.876 -1.2408 -0.0636  0.2848
  127MOL0     H17137   8.845   3.315   1.042 -5.4924  3.0668 -2.0557
  127MOL0     H17138   8.849   3.435   0.941  0.1731  0.1608  0.8676
  127MOL0     H17139   9.019   3.182   0.915 -0.7977  0.7091 -1.9613
  127MOL0     H17140   9.060   3.325   0.829  2.1186 -2.4934  0.1786
  127MOL0     H17141   9.213   3.437   1.219  0.1121  1.3733 -0.5702
  127MOL0     H17142   8.546   3.165   0.478  0.7104  0.1950  0.3841
  127MOL0     H17143   8.347   3.136   0.285 -0.6726  0.2941  3.4593
  127MOL0     H17144   8.286   3.306   0.243  0.7458  0.7213 -0.2316
  127MOL0     H17145   8.455   3.263   0.251  0.1379 -2.0707  0.4695
  128MOL0     O17146   8.981  10.587   9.078  0.2619 -0.7079  0.1100
  128MOL0     C17147   8.896  10.619   8.992 -0.9006 -0.8244 -0.0333
  128MOL0     O17148   8.914  10.609   8.860  0.0120 -0.1846  0.6869
  128MOL0     C17149   9.014  10.539   8.811 -1.2347  0.0572  0.6910
  128MOL0     C17150   8.978  10.408   8.766  0.1620 -0.5016  0.5054
  128MOL0     C17151   9.070  10.322   8.714 -0.3249  0.4074 -0.6792
  128MOL0     C17152   9.204  10.356   8.703  0.0319  0.2079 -0.3072
  128MOL0     O17153   9.289  10.265   8.650  0.6108  0.1653 -0.1183
  128MOL0     C17154   9.328  10.302   8.519  0.1533  0.1283  0.1070
  128MOL0     C17155   9.459  10.224   8.468 -0.5101 -0.5125  0.0259
  128MOL0     C17156   9.580  10.271   8.529  0.0551 -0.2585 -0.7838
  128MOL0     C17157   9.640  10.395   8.466  0.0019 -0.3599  0.3862
  128MOL0     C17158   9.775  10.428   8.529 -0.0409 -0.8149  0.4817
  128MOL0     C17159   9.835  10.556   8.469  0.9087 -0.2400  0.4639
  128MOL0     C17160   9.974  10.587   8.525  0.0731  0.2399 -0.4705
  128MOL0     C17161  10.042  10.707   8.463  0.1944 -0.2028  0.2127
  128MOL0     N17162  10.052  10.692   8.317 -0.8790 -0.0103 -0.0556
  128MOL0     C17163  10.167  10.646   8.270 -0.2587 -0.8376  0.8364
  128MOL0     C17164  10.152  10.648   8.137 -0.5515 -0.8823  0.2635
  128MOL0     C17165  10.241  10.588   8.031 -0.5150 -0.0981  0.1191
  128MOL0     C17166  10.161  10.481   7.955 -0.1011  0.4633  0.2514
  128MOL0     C17167  10.049  10.517   7.860 -0.2369 -0.2560 -0.0247
  128MOL0     C17168  10.010  10.395   7.779  0.1394 -0.4659  0.1703
  128MOL0     O17169   9.896  10.443   7.696  0.5151  0.2766  0.0311
  128MOL0     C17170   9.918  10.484   7.569 -0.1587  0.3791 -0.9475
  128MOL0     C17171  10.048  10.527   7.519  0.4813 -0.1805  0.4379
  128MOL0     C17172  10.072  10.551   7.386  0.3426  0.2635  0.6408
  128MOL0     C17173   9.971  10.522   7.292 -0.0225  0.5068 -0.3010
  128MOL0     C17174  10.000  10.520   7.143 -0.8019 -0.3246 -0.3478
  128MOL0     O17175   9.897  10.555   7.057  0.2806  0.3965 -0.7055
  128MOL0     C17176   9.898  10.508   6.921 -0.3774  0.3503 -0.6006
  128MOL0     C17177   9.993  10.453   6.836 -0.8830  0.4210  0.8840
  128MOL0     C17178   9.962  10.418   6.703 -0.7823 -0.3511  0.0422
  128MOL0     C17179   9.840  10.453   6.646  0.4647  0.8648 -0.7290
  128MOL0     O17180   9.813  10.435   6.517 -0.2387 -0.0483  0.2774
  128MOL0     C17181   9.806  10.295   6.482 -1.2936  0.2857  0.4423
  128MOL0     C17182   9.845  10.281   6.336  0.4542 -0.9176  0.4914
  128MOL0     C17183   9.825  10.133   6.296  0.3340  0.1667  0.2936
  128MOL0     C17184   9.869  10.110   6.156 -0.0366  0.1507  1.1211
  128MOL0     C17185   9.858   9.971   6.105 -0.5414 -0.6213  0.6948
  128MOL0     C17186   9.718   9.917   6.097  0.5338 -1.2991 -0.0995
  128MOL0     C17187   9.721   9.766   6.077 -0.4645  0.7045 -0.3789
  128MOL0     C17188   9.580   9.705   6.086  0.3592 -0.8755 -0.0052
  128MOL0    Cl17189   9.590   9.537   6.112  0.1256  0.1645  0.1861
  128MOL0     C17190   9.754  10.534   6.734  0.9642 -0.6955  0.4209
  128MOL0     C17191   9.779  10.557   6.866  0.4898  0.4733 -0.0713
  128MOL0     O17192  10.114  10.482   7.118 -0.3871 -0.2164  0.0562
  128MOL0     C17193   9.845  10.495   7.345  0.4648  0.0203 -0.0723
  128MOL0     C17194   9.818  10.470   7.478  0.6701 -0.4612  0.3000
  128MOL0     N17195  10.032  10.701   8.104 -0.4141 -0.1391  0.7748
  128MOL0     N17196   9.973  10.735   8.218  1.1160  0.1315  0.3811
  128MOL0     C17197   9.248  10.486   8.749 -0.6355  0.3615  0.3440
  128MOL0     C17198   9.152  10.577   8.802  0.8687  0.5540  0.1878
  128MOL0     C17199   8.783  10.708   9.038  0.4044  0.7891 -1.5102
  128MOL0     C17200   8.797  10.781   9.161 -0.3632 -0.8513 -0.2345
  128MOL0     C17201   8.691  10.865   9.207  0.3942 -0.2299  0.2425
  128MOL0     C17202   8.568  10.866   9.141 -0.8609  0.0202 -1.0914
  128MOL0     O17203   8.463  10.938   9.189  0.2540  0.1437 -0.0181
  128MOL0     C17204   8.386  10.897   9.308 -0.5859 -0.1339  0.4839
  128MOL0     C17205   8.319  10.762   9.282  0.0917 -0.2848 -0.5999
  128MOL0     C17206   8.215  10.751   9.166  0.1711  0.4125 -0.2561
  128MOL0     C17207   8.075  10.806   9.191 -0.4854 -1.0264  0.4677
  128MOL0     C17208   8.015  10.729   9.292  0.1252 -0.2357 -0.4234
  128MOL0     C17209   7.999  10.652   9.384 -1.6694 -0.2010  0.1461
  128MOL0     C17210   8.555  10.788   9.022  0.5874 -0.0509 -1.1232
  128MOL0     C17211   8.657  10.710   8.975 -0.0340  0.7044 -0.1454
  128MOL0     C17212   8.631  10.621   8.848 -0.7446  0.3821  0.2084
  128MOL0     H17213   8.873  10.379   8.760  0.4871 -1.6444 -4.8734
  128MOL0     H17214   9.031  10.230   8.671  0.6059 -0.7245  0.7824
  128MOL0     H17215   9.242  10.287   8.453  0.1989  0.3516 -0.0027
  128MOL0     H17216   9.358  10.407   8.517 -0.1355  0.2292  0.6297
  128MOL0     H17217   9.470  10.242   8.360  3.0609 -2.5898 -0.1198
  128MOL0     H17218   9.451  10.118   8.493 -2.8826  0.0254  1.8818
  128MOL0     H17219   9.652  10.188   8.537 -2.7909 -2.7379  2.3290
  128MOL0     H17220   9.559  10.298   8.633  0.4865  0.6291 -0.9199
  128MOL0     H17221   9.650  10.372   8.360 -1.7317 -0.7072  0.2770
  128MOL0     H17222   9.571  10.480   8.470 -0.3193 -0.5710 -0.5312
  128MOL0     H17223   9.759  10.438   8.636  1.2314  0.1122  0.6098
  128MOL0     H17224   9.841  10.344   8.502  0.5087 -1.1480  2.6479
  128MOL0     H17225   9.832  10.540   8.361 -1.0774  0.7938  0.3236
  128MOL0     H17226   9.772  10.644   8.479  0.6515 -0.2056 -1.2536
  128MOL0     H17227  10.028  10.492   8.514  0.5996  0.6973 -2.2967
  128MOL0     H17228   9.971  10.601   8.633  2.1573 -1.1248 -0.1787
  128MOL0     H17229   9.983  10.795   8.489 -0.1642 -0.5278  0.5057
  128MOL0     H17230  10.138  10.709   8.517  1.4510 -0.1967 -1.8954
  128MOL0     H17231  10.252  10.602   8.321 -1.0207 -1.9924  1.1678
  128MOL0     H17232  10.268  10.669   7.962 -2.8191  1.3527  0.8094
  128MOL0     H17233  10.333  10.553   8.078 -1.2734 -2.4235 -0.0055
  128MOL0     H17234  10.244  10.426   7.908 -1.4859 -0.6010 -1.0553
  128MOL0     H17235  10.112  10.421   8.032 -2.7696  0.6347 -1.1940
  128MOL0     H17236  10.065  10.613   7.808  1.3200 -1.0011 -1.0024
  128MOL0     H17237   9.957  10.548   7.910 -1.1795  2.0845 -2.8347
  128MOL0     H17238   9.982  10.306   7.836  0.5068  0.7406  2.3637
  128MOL0     H17239  10.098  10.366   7.722  3.2586  1.4606  3.5435
  128MOL0     H17240  10.132  10.536   7.587  1.7309  0.6943 -1.1619
  128MOL0     H17241  10.175  10.555   7.353  0.1335 -1.1289 -0.2742
  128MOL0     H17242  10.093  10.424   6.866  0.4844  1.0792 -2.5391
  128MOL0     H17243  10.035  10.365   6.642  0.9845  2.8598 -0.8756
  128MOL0     H17244   9.880  10.232   6.533  0.6911  1.2171 -1.1787
  128MOL0     H17245   9.711  10.243   6.498 -0.8532 -0.8267 -0.3958
  128MOL0     H17246   9.776  10.341   6.277  0.8636 -1.9911 -1.1555
  128MOL0     H17247   9.948  10.317   6.322  0.4492 -0.5893  1.2456
  128MOL0     H17248   9.870  10.060   6.364 -0.1571 -1.5937 -1.1776
  128MOL0     H17249   9.721  10.102   6.306  1.7650 -5.3742  1.2306
  128MOL0     H17250   9.970  10.151   6.147  0.0548 -0.5703 -1.9906
  128MOL0     H17251   9.808  10.164   6.082  0.1379 -2.2542 -0.8961
  128MOL0     H17252   9.934   9.912   6.158  0.3769  1.1086  1.3699
  128MOL0     H17253   9.903   9.970   6.005  0.6427 -0.7013  1.2121
  128MOL0     H17254   9.666   9.949   6.188  0.5383  1.2848 -0.9416
  128MOL0     H17255   9.678   9.969   6.010  1.4267  0.3232  0.4235
  128MOL0     H17256   9.776   9.718   6.158  1.0470  0.0192 -1.7539
  128MOL0     H17257   9.775   9.755   5.982 -2.7571  1.1767 -1.8322
  128MOL0     H17258   9.529   9.752   6.171 -0.8931 -1.1395 -0.6020
  128MOL0     H17259   9.517   9.735   6.003 -0.1328 -1.8959 -0.0121
  128MOL0     H17260   9.670  10.587   6.690  0.8069 -1.5083 -0.2710
  128MOL0     H17261   9.706  10.605   6.931  0.9285  0.7420  0.2250
  128MOL0     H17262   9.763  10.473   7.277 -0.4280  1.9691  0.2912
  128MOL0     H17263   9.722  10.434   7.513 -3.0711  5.2556 -2.5607
  128MOL0     H17264   9.354  10.499   8.729 -0.4476 -0.0397  1.0344
  128MOL0     H17265   9.180  10.680   8.825 -1.1747  1.1834  0.1174
  128MOL0     H17266   8.890  10.781   9.215 -2.2562  1.7290  3.4640
  128MOL0     H17267   8.693  10.937   9.289  0.0796  1.9706 -1.5777
  128MOL0     H17268   8.306  10.969   9.328 -1.3182 -0.9577  0.5325
  128MOL0     H17269   8.451  10.901   9.396 -2.2557 -2.8581  1.9885
  128MOL0     H17270   8.278  10.724   9.376  1.3176 -2.1879 -0.7734
  128MOL0     H17271   8.389  10.684   9.248  0.3606 -0.2207 -0.1920
  128MOL0     H17272   8.203  10.648   9.130 -0.7426  1.3447 -2.8590
  128MOL0     H17273   8.259  10.808   9.083 -2.3870  1.8315 -0.7098
  128MOL0     H17274   8.085  10.912   9.213  1.8162 -0.9645 -0.5306
  128MOL0     H17275   8.012  10.790   9.103 -2.6530  1.0579  1.5337
  128MOL0     H17276   7.990  10.596   9.475 -0.2456  0.3276  0.6611
  128MOL0     H17277   8.460  10.785   8.970 -0.0274 -0.0505 -0.0322
  128MOL0     H17278   8.525  10.592   8.854 -0.0814 -2.0852  2.2899
  128MOL0     H17279   8.649  10.667   8.751  1.8373  1.9548  1.3289
  128MOL0     H17280   8.689  10.528   8.850 -0.7732  0.3697  1.0924
  129MOL0     O17281   1.000   2.214   9.234  0.0149  0.0090  0.8431
  129MOL0     C17282   1.094   2.292   9.271 -0.3801 -0.2394 -0.7951
  129MOL0     O17283   1.220   2.275   9.223  0.1653 -0.7495  0.0875
  129MOL0     C17284   1.266   2.152   9.181 -0.2342 -0.5119 -0.5282
  129MOL0     C17285   1.265   2.042   9.268 -0.1866 -0.0524  0.0476
  129MOL0     C17286   1.315   1.913   9.239  0.2949 -0.2528  0.4550
  129MOL0     C17287   1.375   1.900   9.116  0.1110 -0.0446  0.0176
  129MOL0     O17288   1.446   1.786   9.094  0.3517 -0.3169  1.1722
  129MOL0     C17289   1.578   1.782   9.148  0.6909  0.3014  0.4498
  129MOL0     C17290   1.692   1.755   9.050  0.6680 -0.8070  0.9971
  129MOL0     C17291   1.815   1.728   9.133  1.2105 -0.1699 -0.0947
  129MOL0     C17292   1.945   1.722   9.046 -0.1306  0.4687 -0.3872
  129MOL0     C17293   2.080   1.723   9.111 -0.2248 -0.5436  0.6347
  129MOL0     C17294   2.200   1.731   9.014 -0.5159 -0.0713 -0.5204
  129MOL0     C17295   2.330   1.718   9.095  0.2956 -0.7698 -0.7094
  129MOL0     C17296   2.361   1.830   9.198  0.2342 -0.5149 -0.1981
  129MOL0     N17297   2.481   1.821   9.276  0.0611 -0.1210  0.1007
  129MOL0     C17298   2.507   1.737   9.375  0.2061  0.4350 -1.1261
  129MOL0     C17299   2.643   1.740   9.392  0.6315 -1.3257  0.6638
  129MOL0     C17300   2.728   1.676   9.500  0.5638  0.7267 -0.1562
  129MOL0     C17301   2.714   1.520   9.495 -0.9402  0.1289  0.7113
  129MOL0     C17302   2.710   1.454   9.637 -0.2442  0.0825 -0.8190
  129MOL0     C17303   2.834   1.471   9.721 -0.1810  0.3219  0.2516
  129MOL0     O17304   2.836   1.607   9.794  0.7221  0.3347 -0.7204
  129MOL0     C17305   2.932   1.622   9.891 -0.0388  0.6610 -0.1468
  129MOL0     C17306   3.054   1.556   9.897 -0.0393  0.7488  0.3976
  129MOL0     C17307   3.140   1.572  10.002  0.0721  0.7020  0.5157
  129MOL0     C17308   3.116   1.659  10.116  0.7562  0.0838 -0.6400
  129MOL0     C17309   3.204   1.670  10.235 -0.3459  0.4694  0.0329
  129MOL0     O17310   3.328   1.609  10.212 -1.2829 -0.2758 -0.4151
  129MOL0     C17311   3.401   1.577  10.331  1.0493 -0.6515 -0.2521
  129MOL0     C17312   3.384   1.455  10.394  0.1173 -0.6513  0.5387
  129MOL0     C17313   3.453   1.427  10.508 -0.8068 -0.2052 -0.3836
  129MOL0     C17314   3.528   1.521  10.570  0.4745  0.8817  0.2743
  129MOL0     O17315   3.600   1.490  10.677  0.4046  0.2150 -0.0752
  129MOL0     C17316   3.535   1.453  10.800 -0.0520 -0.5355 -0.0571
  129MOL0     C17317   3.553   1.554  10.913 -0.4261  0.8109  0.2559
  129MOL0     C17318   3.490   1.697  10.882 -0.2967 -0.1896  0.2037
  129MOL0     C17319   3.492   1.771  11.013  0.3277 -0.0596  0.2406
  129MOL0     C17320   3.496   1.926  10.985 -0.0888  0.5236  0.0203
  129MOL0     C17321   3.512   2.009  11.111 -0.3825 -0.6109  0.0646
  129MOL0     C17322   3.557   2.155  11.103  0.8536 -0.7762 -0.9435
  129MOL0     C17323   3.496   2.234  10.983  0.1718  0.0410  0.2081
  129MOL0    Cl17324   3.321   2.245  11.000  0.1252  0.1996 -0.0331
  129MOL0     C17325   3.545   1.651  10.512  0.4323 -0.4594  0.2830
  129MOL0     C17326   3.484   1.679  10.381 -0.2161  0.3396  0.1533
  129MOL0     O17327   3.172   1.731  10.331 -0.2174  0.5203  0.2304
  129MOL0     C17328   3.001   1.745  10.104 -0.8855 -0.4982  0.3368
  129MOL0     C17329   2.910   1.714   9.993 -0.2537 -0.0666 -0.0066
  129MOL0     N17330   2.696   1.835   9.299 -0.9470 -1.1203  0.2168
  129MOL0     N17331   2.597   1.878   9.228  0.2524 -0.4833  1.4313
  129MOL0     C17332   1.382   2.004   9.021 -0.0306 -0.9937 -0.5014
  129MOL0     C17333   1.324   2.133   9.056 -0.2709  0.2031  0.3730
  129MOL0     C17334   1.059   2.420   9.335 -0.5467  0.7272 -0.3670
  129MOL0     C17335   0.929   2.471   9.333 -0.4156 -0.5478  0.5627
  129MOL0     C17336   0.898   2.592   9.393 -0.0660  0.2493 -0.2300
  129MOL0     C17337   0.990   2.677   9.445 -0.2289  0.0378  0.3647
  129MOL0     O17338   0.949   2.800   9.478 -0.8607 -0.5783 -0.3606
  129MOL0     C17339   1.046   2.902   9.512  0.1920  0.4327  0.4416
  129MOL0     C17340   1.006   3.003   9.621  0.5057 -0.9069  0.0962
  129MOL0     C17341   0.863   3.040   9.602  0.8702  0.3025  0.0291
  129MOL0     C17342   0.840   3.111   9.470  0.2038  0.7277  0.2589
  129MOL0     C17343   0.920   3.230   9.459  1.3749  0.3447 -0.4687
  129MOL0     C17344   0.991   3.323   9.433  0.0199 -0.4102  0.4826
  129MOL0     C17345   1.120   2.622   9.445 -0.3854  0.2254  0.5869
  129MOL0     C17346   1.157   2.498   9.402 -0.7175 -0.9504 -0.5159
  129MOL0     C17347   1.301   2.458   9.433 -0.3941 -0.6529  0.4029
  129MOL0     H17348   1.229   2.058   9.369  2.7682 -0.6950  1.3079
  129MOL0     H17349   1.327   1.831   9.310  0.8410 -3.1088 -2.6680
  129MOL0     H17350   1.600   1.871   9.207  1.3177 -1.2603  2.7057
  129MOL0     H17351   1.590   1.703   9.222  1.8044 -3.3434 -3.2389
  129MOL0     H17352   1.712   1.847   8.995  1.6398  0.5683  3.4909
  129MOL0     H17353   1.664   1.676   8.979  0.0140 -0.4568  0.8514
  129MOL0     H17354   1.793   1.628   9.173  0.7451 -1.5342 -3.4247
  129MOL0     H17355   1.823   1.796   9.218 -2.1431 -1.7456  1.6967
  129MOL0     H17356   1.936   1.635   8.980  1.7295 -0.3826  0.4230
  129MOL0     H17357   1.938   1.815   8.989  1.0151  3.2157  3.5100
  129MOL0     H17358   2.078   1.813   9.173  0.7626 -0.0633 -0.0059
  129MOL0     H17359   2.077   1.635   9.175  2.7556 -1.8403 -0.8278
  129MOL0     H17360   2.200   1.645   8.946  0.3523 -0.9873  0.5724
  129MOL0     H17361   2.205   1.825   8.959 -0.9713 -0.4983 -1.3045
  129MOL0     H17362   2.412   1.709   9.023 -2.7677  0.9278 -4.8113
  129MOL0     H17363   2.331   1.621   9.146 -0.3152 -0.3071  0.2135
  129MOL0     H17364   2.373   1.927   9.149  0.7364  2.0232  4.4351
  129MOL0     H17365   2.277   1.840   9.267 -0.7725  3.2424 -1.7028
  129MOL0     H17366   2.437   1.700   9.450  0.5250  2.7764  0.4532
  129MOL0     H17367   2.835   1.698   9.491  0.6868  0.7585  1.1710
  129MOL0     H17368   2.694   1.714   9.597  3.2503  1.8395  0.4385
  129MOL0     H17369   2.619   1.491   9.449 -0.2879  1.0436 -1.2933
  129MOL0     H17370   2.796   1.473   9.441  1.1275  2.2617  1.8097
  129MOL0     H17371   2.694   1.346   9.635  0.0680  0.0513 -2.4686
  129MOL0     H17372   2.615   1.481   9.686 -1.2944  0.9567 -3.2030
  129MOL0     H17373   2.918   1.459   9.652 -1.5537  3.0277 -2.1013
  129MOL0     H17374   2.821   1.397   9.801 -1.7834 -0.6518 -0.8405
  129MOL0     H17375   3.084   1.494   9.814  0.3997  0.7940  0.5225
  129MOL0     H17376   3.231   1.514   9.994 -0.3880 -0.5526  3.1977
  129MOL0     H17377   3.320   1.383  10.344  3.5105 -4.0216  0.5999
  129MOL0     H17378   3.445   1.331  10.557 -0.2532  0.3254  0.7768
  129MOL0     H17379   3.428   1.437  10.780  0.4544 -4.1290 -0.5505
  129MOL0     H17380   3.568   1.361  10.848 -1.1527  0.4973  2.9346
  129MOL0     H17381   3.498   1.511  10.997 -2.3015 -2.6753 -2.4874
  129MOL0     H17382   3.661   1.560  10.924 -0.1140 -3.4996  1.0803
  129MOL0     H17383   3.551   1.753  10.811 -1.2798 -2.0183 -2.2382
  129MOL0     H17384   3.388   1.689  10.843 -0.7455  1.1061  1.0438
  129MOL0     H17385   3.575   1.744  11.079 -1.7142 -4.0081  1.5430
  129MOL0     H17386   3.398   1.750  11.066  1.5063  0.2691  2.5879
  129MOL0     H17387   3.409   1.950  10.923 -0.2552  1.2851  0.5354
  129MOL0     H17388   3.588   1.945  10.929 -0.0214  2.7498  0.7691
  129MOL0     H17389   3.417   2.004  11.165  0.5426  0.5368  1.8926
  129MOL0     H17390   3.590   1.966  11.174  0.9788  1.0416 -0.4198
  129MOL0     H17391   3.664   2.173  11.098  1.3715 -2.5821  1.5095
  129MOL0     H17392   3.527   2.193  11.201 -0.8890  0.9916 -2.0843
  129MOL0     H17393   3.543   2.333  10.983  0.4744 -0.0966  1.1788
  129MOL0     H17394   3.528   2.197  10.885  0.8427  2.3569 -0.5049
  129MOL0     H17395   3.609   1.723  10.563  0.6095 -0.3529 -0.0838
  129MOL0     H17396   3.494   1.773  10.327 -1.9638  1.3069  1.4201
  129MOL0     H17397   2.972   1.816  10.180  2.5429  0.6689  0.6889
  129MOL0     H17398   2.820   1.772   9.976  1.0267  1.3086 -2.7747
  129MOL0     H17399   1.421   1.979   8.923 -2.4937 -1.4250 -1.4635
  129MOL0     H17400   1.316   2.207   8.977  0.7236  1.2783  1.2325
  129MOL0     H17401   0.852   2.410   9.287  1.1651 -0.9261 -1.7357
  129MOL0     H17402   0.793   2.616   9.402 -1.0957 -3.4043 -0.7360
  129MOL0     H17403   1.077   2.954   9.421  1.1307 -0.4894  0.2083
  129MOL0     H17404   1.143   2.861   9.544  0.8965 -1.4944 -3.6028
  129MOL0     H17405   1.087   3.076   9.627  0.0242 -0.1081 -2.0209
  129MOL0     H17406   1.006   2.951   9.717  0.4904 -3.0057 -0.9812
  129MOL0     H17407   0.831   3.096   9.690  1.1187  0.1089  0.2452
  129MOL0     H17408   0.802   2.949   9.609  0.9419  0.1889 -0.7393
  129MOL0     H17409   0.850   3.048   9.381  1.4591  0.0268  0.8629
  129MOL0     H17410   0.738   3.149   9.468 -0.2476 -0.4419 -1.8858
  129MOL0     H17411   1.067   3.393   9.406 -1.2304  1.8471  2.4746
  129MOL0     H17412   1.202   2.681   9.484 -1.4739  0.4829  2.6001
  129MOL0     H17413   1.328   2.493   9.533  0.2370 -1.2581  0.4484
  129MOL0     H17414   1.320   2.350   9.429  0.5335 -0.4850  0.2633
  129MOL0     H17415   1.355   2.498   9.347  0.4075 -1.7258  0.3950
  130MOL0     O17416   4.613   1.051   8.627  0.1274  0.1923  0.2647
  130MOL0     C17417   4.617   1.151   8.702 -0.3077 -0.6979  0.1432
  130MOL0     O17418   4.584   1.145   8.840 -0.2180 -0.1519 -0.7883
  130MOL0     C17419   4.569   1.015   8.894  1.3711 -0.4234 -1.3405
  130MOL0     C17420   4.647   0.903   8.870 -0.2499  0.5551  0.2243
  130MOL0     C17421   4.618   0.776   8.926 -0.3661  0.1951 -0.3127
  130MOL0     C17422   4.515   0.761   9.021  0.5163  0.4293 -0.3339
  130MOL0     O17423   4.487   0.631   9.063 -0.5715  0.3780  0.0581
  130MOL0     C17424   4.485   0.614   9.201  0.5305 -0.3669 -0.3324
  130MOL0     C17425   4.508   0.465   9.228  0.4243 -0.1193  0.7048
  130MOL0     C17426   4.527   0.448   9.382  0.0192 -0.5623 -0.4712
  130MOL0     C17427   4.496   0.310   9.416  0.3997  0.2605 -0.5677
  130MOL0     C17428   4.570   0.257   9.536 -1.6032  0.8311  0.2770
  130MOL0     C17429   4.721   0.246   9.530 -0.9962  0.3357  0.7927
  130MOL0     C17430   4.771   0.171   9.662  0.3575 -0.1925  0.0443
  130MOL0     C17431   4.921   0.154   9.689 -0.2486  0.4656  0.1637
  130MOL0     N17432   4.987   0.112   9.568  0.7106  0.5203  0.7340
  130MOL0     C17433   4.998  -0.009   9.516 -0.0965  0.1294 -0.5840
  130MOL0     C17434   5.074   0.011   9.404  0.5057 -0.0114  0.5314
  130MOL0     C17435   5.110  -0.089   9.301 -0.1654  0.7530 -0.0137
  130MOL0     C17436   5.257  -0.084   9.253 -0.9427  0.6785  0.2860
  130MOL0     C17437   5.305  -0.193   9.151 -1.3211 -0.2585  0.6037
  130MOL0     C17438   5.317  -0.331   9.205  0.4521 -0.9418  0.7584
  130MOL0     O17439   5.305  -0.417   9.091 -0.8142  0.0138 -0.0664
  130MOL0     C17440   5.228  -0.532   9.099  0.7524  0.0293 -0.4976
  130MOL0     C17441   5.109  -0.537   9.169  0.3790 -0.3539  0.2682
  130MOL0     C17442   5.046  -0.658   9.178  0.3531 -0.1156  0.6979
  130MOL0     C17443   5.075  -0.771   9.095  0.1591 -0.4674  0.2639
  130MOL0     C17444   4.998  -0.897   9.091  0.3784 -0.0458 -0.5010
  130MOL0     O17445   5.058  -1.000   9.025  0.3098 -1.1080  0.3258
  130MOL0     C17446   4.985  -1.116   9.010  0.1423  0.2656 -0.0227
  130MOL0     C17447   4.854  -1.130   8.961 -0.0250 -0.1585 -0.7582
  130MOL0     C17448   4.793  -1.253   8.938  0.2647 -0.2078  0.0622
  130MOL0     C17449   4.843  -1.371   9.000 -1.2083 -0.7682 -0.4071
  130MOL0     O17450   4.769  -1.483   8.980  0.1888 -0.0179 -0.2996
  130MOL0     C17451   4.780  -1.580   9.090 -0.2348  0.0349  0.1435
  130MOL0     C17452   4.639  -1.634   9.121  0.9266  0.4380  0.2283
  130MOL0     C17453   4.646  -1.709   9.265  0.2830  0.0058  1.1432
  130MOL0     C17454   4.505  -1.729   9.312  0.8250 -0.2365 -0.7010
  130MOL0     C17455   4.511  -1.804   9.450 -0.4289  0.2501  0.4150
  130MOL0     C17456   4.379  -1.803   9.528 -0.8585  0.0005  0.0704
  130MOL0     C17457   4.403  -1.877   9.660 -0.3416 -0.1649 -0.6803
  130MOL0     C17458   4.349  -1.802   9.778  0.2737  0.2364  0.6102
  130MOL0    Cl17459   4.180  -1.755   9.733 -0.3200  0.2063  0.2931
  130MOL0     C17460   4.964  -1.356   9.070  0.0096 -1.1859 -0.2454
  130MOL0     C17461   5.034  -1.233   9.066  0.4528  0.1152 -0.1529
  130MOL0     O17462   4.885  -0.896   9.150  0.0628  0.2637  0.0523
  130MOL0     C17463   5.185  -0.753   9.009 -0.8070  0.2221 -0.5442
  130MOL0     C17464   5.254  -0.637   9.008 -0.5850  0.7954 -0.8666
  130MOL0     N17465   5.105   0.147   9.395 -0.6751 -0.8483  0.8637
  130MOL0     N17466   5.052   0.206   9.487  0.3445 -0.0935 -1.0819
  130MOL0     C17467   4.449   0.876   9.061  0.0402 -1.3566  0.6564
  130MOL0     C17468   4.469   0.999   8.994 -0.3391  0.5513 -0.1014
  130MOL0     C17469   4.652   1.292   8.656  0.5596  0.2005 -0.1748
  130MOL0     C17470   4.665   1.397   8.751  0.1775 -1.0518  0.5264
  130MOL0     C17471   4.698   1.529   8.713  0.0830 -1.1528  0.5638
  130MOL0     C17472   4.727   1.563   8.583 -0.0672  0.1881  0.2043
  130MOL0     O17473   4.740   1.693   8.544 -0.2715 -0.5016  1.1540
  130MOL0     C17474   4.876   1.733   8.494 -0.1679 -0.2988  0.6454
  130MOL0     C17475   4.951   1.807   8.612 -0.0227  0.6422  0.8361
  130MOL0     C17476   4.903   1.942   8.638 -0.5809  0.1353 -0.0042
  130MOL0     C17477   5.019   2.037   8.648 -0.3280  0.0220  0.2963
  130MOL0     C17478   5.102   2.049   8.524  0.3463 -0.4551 -0.2008
  130MOL0     C17479   5.180   2.064   8.437 -0.2184 -0.0189 -0.5625
  130MOL0     C17480   4.716   1.460   8.488 -0.0100 -0.0318 -0.2303
  130MOL0     C17481   4.676   1.328   8.519  0.7490 -0.3829 -0.0627
  130MOL0     C17482   4.675   1.220   8.404  0.5969 -0.1431  0.1618
  130MOL0     H17483   4.725   0.914   8.795  1.5606  0.0554  1.9637
  130MOL0     H17484   4.670   0.685   8.898 -1.9411 -0.2247 -2.0051
  130MOL0     H17485   4.574   0.658   9.247 -0.3319  1.8810 -0.7023
  130MOL0     H17486   4.386   0.654   9.227  2.0203  4.3853 -1.0176
  130MOL0     H17487   4.595   0.436   9.168 -0.3723 -2.0045  0.3789
  130MOL0     H17488   4.426   0.412   9.180 -1.9876  2.6698  1.4593
  130MOL0     H17489   4.470   0.518   9.443  0.9180  1.0386 -1.4019
  130MOL0     H17490   4.630   0.470   9.410 -0.1131 -0.5040 -0.0239
  130MOL0     H17491   4.389   0.311   9.441 -0.0483  0.7976 -2.3494
  130MOL0     H17492   4.519   0.249   9.327 -1.0756 -1.1526 -0.0359
  130MOL0     H17493   4.546   0.320   9.622  0.4945  0.1774  1.3888
  130MOL0     H17494   4.530   0.156   9.538 -1.0768  0.5275 -1.8228
  130MOL0     H17495   4.745   0.190   9.439 -2.6210  0.0725  0.4987
  130MOL0     H17496   4.771   0.343   9.522  2.0513 -1.2152 -1.5075
  130MOL0     H17497   4.718   0.076   9.646  1.1181 -0.8846  1.5017
  130MOL0     H17498   4.734   0.219   9.753  0.1242 -1.3413  0.5833
  130MOL0     H17499   4.975   0.243   9.723 -0.5216 -0.2217  2.5725
  130MOL0     H17500   4.933   0.073   9.761 -0.9528 -1.4471 -1.7646
  130MOL0     H17501   4.950  -0.103   9.543  0.3249  0.0960  0.0575
  130MOL0     H17502   5.079  -0.176   9.360 -3.6350  2.9278  1.7038
  130MOL0     H17503   5.043  -0.068   9.217 -0.4062  2.1045  0.4896
  130MOL0     H17504   5.282   0.009   9.200  0.1528 -0.0666 -0.5622
  130MOL0     H17505   5.327  -0.095   9.336 -1.1236 -3.3568  0.0663
  130MOL0     H17506   5.401  -0.166   9.107 -2.2617 -0.0809 -1.5015
  130MOL0     H17507   5.228  -0.196   9.073 -1.4879 -3.6054  0.7561
  130MOL0     H17508   5.247  -0.358   9.285 -2.4808 -0.4528 -1.4591
  130MOL0     H17509   5.418  -0.337   9.247  1.0582  0.1443 -0.4719
  130MOL0     H17510   5.074  -0.455   9.231 -2.1277 -1.2397  0.0967
  130MOL0     H17511   4.972  -0.681   9.254  3.2470  0.1630  3.8342
  130MOL0     H17512   4.799  -1.039   8.940  0.8451 -0.0443 -2.7043
  130MOL0     H17513   4.692  -1.248   8.896  0.8420  0.0375 -1.3608
  130MOL0     H17514   4.840  -1.662   9.051 -2.8791 -2.5162  1.0736
  130MOL0     H17515   4.827  -1.523   9.170 -0.9327 -0.5229  0.9645
  130MOL0     H17516   4.577  -1.545   9.131  2.9091  1.9552 -0.2074
  130MOL0     H17517   4.618  -1.706   9.041 -0.2225  1.2785 -0.2379
  130MOL0     H17518   4.707  -1.800   9.256 -0.8271 -0.5716 -1.4174
  130MOL0     H17519   4.686  -1.649   9.347 -0.0495 -0.2887  1.5212
  130MOL0     H17520   4.447  -1.775   9.231  0.2395 -0.0478 -0.3960
  130MOL0     H17521   4.457  -1.632   9.325  0.1150 -0.4715 -1.4928
  130MOL0     H17522   4.583  -1.748   9.511 -0.7036  1.2118 -0.1104
  130MOL0     H17523   4.549  -1.904   9.426  1.2179  0.6190  1.3173
  130MOL0     H17524   4.349  -1.700   9.551  0.1054 -0.0164  1.5529
  130MOL0     H17525   4.294  -1.836   9.468  0.6872 -0.3926 -2.0345
  130MOL0     H17526   4.510  -1.873   9.682 -0.5184  0.3469  0.1438
  130MOL0     H17527   4.372  -1.982   9.658 -1.5348  0.1660 -0.4732
  130MOL0     H17528   4.345  -1.866   9.867  0.1291  0.0371  0.4606
  130MOL0     H17529   4.415  -1.716   9.790 -0.7021  1.2699 -0.9947
  130MOL0     H17530   5.017  -1.445   9.101  0.4890 -2.7824 -4.8584
  130MOL0     H17531   5.139  -1.239   9.094  0.5230  1.6515  0.0206
  130MOL0     H17532   5.210  -0.830   8.937 -2.5641 -1.6177  0.7345
  130MOL0     H17533   5.346  -0.618   8.954  1.5774  0.7676  2.4828
  130MOL0     H17534   4.371   0.880   9.136 -0.0096 -3.6394  0.8019
  130MOL0     H17535   4.405   1.084   9.018 -0.6618  0.0418  0.8855
  130MOL0     H17536   4.609   1.382   8.842 -0.4138  1.4779  0.6492
  130MOL0     H17537   4.703   1.599   8.796  2.1917 -2.1057  1.3219
  130MOL0     H17538   4.875   1.794   8.403  3.3958  1.0482  1.3645
  130MOL0     H17539   4.933   1.644   8.467 -1.7736 -0.6871 -1.7993
  130MOL0     H17540   5.056   1.796   8.586  1.1772  2.9979  4.0740
  130MOL0     H17541   4.929   1.742   8.698 -1.8402  1.2986  0.9089
  130MOL0     H17542   4.839   1.944   8.728 -3.0299  2.8925 -1.6154
  130MOL0     H17543   4.828   1.972   8.564  0.4935  0.8172 -0.8305
  130MOL0     H17544   4.985   2.136   8.679 -2.4840 -0.0750 -1.4661
  130MOL0     H17545   5.085   2.004   8.729  1.4570 -2.1892 -1.8668
  130MOL0     H17546   5.259   2.058   8.365 -1.6319 -1.1067 -2.1029
  130MOL0     H17547   4.751   1.472   8.386  1.5332 -4.0641 -0.3397
  130MOL0     H17548   4.693   1.270   8.308  0.1907  0.6279  0.4833
  130MOL0     H17549   4.747   1.140   8.421  2.1143  1.4747  1.7043
  130MOL0     H17550   4.580   1.167   8.390  0.4127  0.5862 -1.7061
  131MOL0     O17551   0.722   4.873   0.344 -0.1679  0.5668 -0.8122
  131MOL0     C17552   0.630   4.797   0.384 -1.0237 -0.6101  0.0345
  131MOL0     O17553   0.643   4.666   0.381  0.5738  0.2155  0.0585
  131MOL0     C17554   0.742   4.596   0.310 -0.4524 -0.1708 -0.2911
  131MOL0     C17555   0.835   4.519   0.378 -0.2787 -0.3856 -0.6607
  131MOL0     C17556   0.934   4.446   0.305 -0.1912 -0.2648  0.3242
  131MOL0     C17557   0.946   4.446   0.162 -0.2585  0.6789  0.5255
  131MOL0     O17558   1.024   4.370   0.081  0.2060 -0.0866  0.4358
  131MOL0     C17559   1.103   4.263   0.144 -0.2948  0.0988 -0.8126
  131MOL0     C17560   1.179   4.184   0.041  0.3717  0.2202 -0.8342
  131MOL0     C17561   1.266   4.274  -0.058 -0.2719  1.0775  0.4813
  131MOL0     C17562   1.363   4.188  -0.138  0.0351  0.6173 -0.9668
  131MOL0     C17563   1.437   4.262  -0.253  0.5881 -0.3265 -0.1302
  131MOL0     C17564   1.545   4.188  -0.320  0.0236 -0.4605 -0.1003
  131MOL0     C17565   1.475   4.068  -0.392 -0.2288 -1.0296  0.2175
  131MOL0     C17566   1.586   4.010  -0.473  0.3566 -0.2437  0.5400
  131MOL0     N17567   1.545   3.901  -0.566 -0.9087 -0.3690 -1.1824
  131MOL0     C17568   1.454   3.797  -0.533  0.0773 -0.0414  0.3980
  131MOL0     C17569   1.461   3.710  -0.632  0.3057 -0.3309 -0.3653
  131MOL0     C17570   1.396   3.570  -0.635 -0.2822  0.4866 -0.5334
  131MOL0     C17571   1.275   3.555  -0.736  1.3340  0.0553 -0.0048
  131MOL0     C17572   1.301   3.556  -0.877 -0.3666  0.1992  0.6959
  131MOL0     C17573   1.378   3.431  -0.926  0.0871  0.9421  0.1209
  131MOL0     O17574   1.517   3.453  -0.903 -0.5738  0.8746 -0.8122
  131MOL0     C17575   1.607   3.436  -1.006  0.7595  0.2459  0.0636
  131MOL0     C17576   1.737   3.450  -0.981  0.3396 -0.2826 -0.5047
  131MOL0     C17577   1.835   3.434  -1.077  0.1659  0.2558 -0.2403
  131MOL0     C17578   1.799   3.402  -1.207 -0.7212 -0.7539 -0.1993
  131MOL0     C17579   1.903   3.370  -1.309  0.6055 -0.0322 -0.0882
  131MOL0     O17580   1.851   3.309  -1.423  0.1874  0.0669 -0.1979
  131MOL0     C17581   1.927   3.266  -1.527 -0.2258 -0.0026 -0.0227
  131MOL0     C17582   1.888   3.150  -1.583  1.0935  0.5082 -0.1927
  131MOL0     C17583   1.959   3.108  -1.695  0.2939  0.3537  0.2723
  131MOL0     C17584   2.076   3.163  -1.735 -0.0636  0.0347  0.0491
  131MOL0     O17585   2.147   3.087  -1.820  0.7756 -0.3069 -0.0447
  131MOL0     C17586   2.255   3.147  -1.897 -0.3432 -0.0870 -1.3252
  131MOL0     C17587   2.328   3.043  -1.978 -0.5448  0.5559  0.9039
  131MOL0     C17588   2.244   2.947  -2.049  0.4340 -0.6423  0.7301
  131MOL0     C17589   2.336   2.868  -2.138  0.7040 -0.4008  0.3325
  131MOL0     C17590   2.260   2.746  -2.185 -0.2033 -0.3103  0.3635
  131MOL0     C17591   2.163   2.775  -2.297  0.4292 -0.8927  0.9690
  131MOL0     C17592   2.133   2.638  -2.366  0.2887 -0.7083  0.1196
  131MOL0     C17593   2.022   2.618  -2.462 -0.9103  0.1743 -0.3911
  131MOL0    Cl17594   2.075   2.666  -2.628 -0.1783 -0.1699  0.2629
  131MOL0     C17595   2.101   3.289  -1.694  0.1282 -0.3131  1.3549
  131MOL0     C17596   2.032   3.341  -1.581 -0.1577  0.2632 -0.3468
  131MOL0     O17597   2.018   3.414  -1.300  0.2179  0.1392  0.3671
  131MOL0     C17598   1.667   3.366  -1.233 -0.4985  0.1498  0.3507
  131MOL0     C17599   1.568   3.379  -1.136 -0.5114 -0.4899  0.1582
  131MOL0     N17600   1.556   3.755  -0.726 -0.0456  0.1322 -0.2459
  131MOL0     N17601   1.607   3.867  -0.679 -0.0808 -0.5211  0.4056
  131MOL0     C17602   0.847   4.527   0.098  0.9096 -0.1024  0.6217
  131MOL0     C17603   0.749   4.597   0.174 -0.2114  0.0545  1.0664
  131MOL0     C17604   0.516   4.859   0.459 -0.4994 -0.5439  0.0855
  131MOL0     C17605   0.409   4.777   0.488 -0.4333  0.1351  0.1966
  131MOL0     C17606   0.297   4.820   0.565 -0.2294 -0.3255 -1.0059
  131MOL0     C17607   0.296   4.951   0.614  0.0410 -0.8092 -0.9341
  131MOL0     O17608   0.199   5.009   0.693 -0.1912  0.4883  0.1611
  131MOL0     C17609   0.088   4.926   0.743  0.0496 -0.4480  0.7816
  131MOL0     C17610   0.130   4.881   0.882  0.4628 -0.5726 -0.2640
  131MOL0     C17611   0.192   4.995   0.967 -0.2968  0.4739 -1.4595
  131MOL0     C17612   0.213   4.945   1.110  0.6289 -0.6017 -0.2716
  131MOL0     C17613   0.202   5.060   1.199 -0.0792 -0.6068  0.3842
  131MOL0     C17614   0.168   5.160   1.256  0.2043  1.1971  0.3298
  131MOL0     C17615   0.403   5.032   0.582  0.1390 -0.4381 -0.4564
  131MOL0     C17616   0.509   4.995   0.503 -0.1043  0.1757  0.9170
  131MOL0     C17617   0.617   5.094   0.470  0.3684 -0.5565 -0.5098
  131MOL0     H17618   0.826   4.511   0.486  0.3244  3.1536 -0.2209
  131MOL0     H17619   1.007   4.389   0.360 -0.3191 -1.8079 -1.0344
  131MOL0     H17620   1.181   4.302   0.210 -0.9105 -2.4003  1.5747
  131MOL0     H17621   1.036   4.194   0.196 -1.7095  0.7527 -1.7000
  131MOL0     H17622   1.101   4.125  -0.009 -0.3298 -0.3852  0.9174
  131MOL0     H17623   1.230   4.100   0.091 -2.6501 -0.4678  1.3700
  131MOL0     H17624   1.324   4.353  -0.008 -0.6828  0.8188  1.3800
  131MOL0     H17625   1.200   4.321  -0.131 -1.3537 -1.4883 -0.2957
  131MOL0     H17626   1.434   4.144  -0.068 -0.2366 -1.1765 -1.7686
  131MOL0     H17627   1.312   4.097  -0.171 -1.7618  0.8111  0.9982
  131MOL0     H17628   1.366   4.303  -0.325  1.9365  1.9576 -0.2627
  131MOL0     H17629   1.495   4.346  -0.213 -0.8641  0.7080 -0.1087
  131MOL0     H17630   1.597   4.256  -0.387  0.6272  0.2715  1.0654
  131MOL0     H17631   1.628   4.164  -0.252 -0.1261 -2.5371 -0.5950
  131MOL0     H17632   1.391   4.087  -0.459 -1.9528 -0.4247  2.4295
  131MOL0     H17633   1.450   3.992  -0.318  1.9036  0.1202  2.2787
  131MOL0     H17634   1.622   4.090  -0.538 -0.5818  0.0350  0.3518
  131MOL0     H17635   1.663   3.975  -0.404 -0.0771  1.3448  1.9161
  131MOL0     H17636   1.393   3.790  -0.444  1.2430  1.3933  1.3691
  131MOL0     H17637   1.478   3.500  -0.651  2.8869  3.1931  2.5212
  131MOL0     H17638   1.355   3.531  -0.541 -0.0339 -1.4280 -1.1636
  131MOL0     H17639   1.207   3.472  -0.717  0.5281  0.7810  0.3558
  131MOL0     H17640   1.224   3.648  -0.710 -0.9257 -1.4820  1.3937
  131MOL0     H17641   1.358   3.649  -0.885 -0.4196  0.2841  1.2508
  131MOL0     H17642   1.215   3.574  -0.941  2.3018 -1.5090 -3.8135
  131MOL0     H17643   1.344   3.391  -1.022 -2.7358 -2.9587  2.4458
  131MOL0     H17644   1.347   3.353  -0.855 -0.2053  2.0226  1.2139
  131MOL0     H17645   1.752   3.479  -0.878  0.0842 -1.9221  0.0189
  131MOL0     H17646   1.940   3.447  -1.052  0.9349 -2.6660 -1.5111
  131MOL0     H17647   1.796   3.103  -1.551  0.5723  2.1099  0.7834
  131MOL0     H17648   1.934   3.007  -1.727 -4.9190  1.3479  0.3556
  131MOL0     H17649   2.230   3.231  -1.963 -3.0705  0.5604  0.4028
  131MOL0     H17650   2.333   3.182  -1.829  1.3884  0.3291 -3.3850
  131MOL0     H17651   2.392   3.091  -2.053 -2.7549  1.6146 -0.4082
  131MOL0     H17652   2.387   2.994  -1.900 -1.0292 -1.5671  0.0010
  131MOL0     H17653   2.193   2.884  -1.975 -0.6639  0.9013  1.3354
  131MOL0     H17654   2.174   2.991  -2.120  0.4503  1.1592  1.7711
  131MOL0     H17655   2.426   2.836  -2.085  1.7935 -1.2227 -1.8999
  131MOL0     H17656   2.363   2.922  -2.229 -0.1656  0.0313  0.3131
  131MOL0     H17657   2.225   2.683  -2.102  0.4458  0.6775  1.4195
  131MOL0     H17658   2.339   2.684  -2.229  2.6690  2.5549  1.0729
  131MOL0     H17659   2.075   2.822  -2.252  0.1523 -1.4581  1.0300
  131MOL0     H17660   2.202   2.848  -2.368 -2.8547 -0.4626 -0.5975
  131MOL0     H17661   2.108   2.565  -2.288  0.8218  1.5384  2.5453
  131MOL0     H17662   2.216   2.599  -2.424 -0.4557 -0.0971 -1.4036
  131MOL0     H17663   1.980   2.517  -2.457 -0.6322 -0.3377 -4.9354
  131MOL0     H17664   1.934   2.675  -2.428 -1.8456 -2.2833  1.6451
  131MOL0     H17665   2.174   3.358  -1.734 -2.8446  2.0330 -0.4815
  131MOL0     H17666   2.062   3.435  -1.537  1.3912 -0.8596  1.1217
  131MOL0     H17667   1.627   3.332  -1.328  0.3291  0.8240 -0.2575
  131MOL0     H17668   1.465   3.350  -1.154 -0.5162 -1.4907  1.6349
  131MOL0     H17669   0.836   4.527  -0.010  0.7619  1.8246  0.6123
  131MOL0     H17670   0.683   4.670   0.128  0.7957  1.8184  2.2976
  131MOL0     H17671   0.402   4.672   0.464 -3.5368 -0.0251  1.3091
  131MOL0     H17672   0.215   4.753   0.588  1.2538 -1.8056  0.2455
  131MOL0     H17673   0.062   4.835   0.689 -0.6898 -0.8007  1.7046
  131MOL0     H17674  -0.003   4.988   0.746 -1.0878 -2.0698  1.3421
  131MOL0     H17675   0.191   4.791   0.879  2.6291  0.8402 -0.7434
  131MOL0     H17676   0.038   4.848   0.932  2.2490 -2.6436  1.8523
  131MOL0     H17677   0.128   5.083   0.975 -1.5087 -0.4468 -0.8781
  131MOL0     H17678   0.290   5.025   0.927  0.0840 -0.1414 -1.0162
  131MOL0     H17679   0.141   4.869   1.138 -1.7195  0.9636 -1.6398
  131MOL0     H17680   0.307   4.890   1.119  2.3706  1.2482 -4.1690
  131MOL0     H17681   0.137   5.246   1.312  2.0864  1.3479  1.2017
  131MOL0     H17682   0.400   5.139   0.601 -0.1477 -0.8000  1.8123
  131MOL0     H17683   0.633   5.122   0.365  3.0016  1.6000  0.3605
  131MOL0     H17684   0.587   5.187   0.518  2.3561 -0.1269 -0.0479
  131MOL0     H17685   0.710   5.054   0.511  0.7366  1.7031  1.0230
  132MOL0     O17686   4.488   1.046   0.082 -0.0285  0.4289 -0.0697
  132MOL0     C17687   4.427   1.099  -0.014  0.0229 -0.0951 -0.8764
  132MOL0     O17688   4.456   1.221  -0.069 -0.7022  0.1039 -0.1486
  132MOL0     C17689   4.571   1.289  -0.038 -0.2645  0.1208  0.9486
  132MOL0     C17690   4.574   1.432  -0.027  0.2880 -0.4108 -0.4227
  132MOL0     C17691   4.689   1.507  -0.026  0.8542 -0.2033  1.1191
  132MOL0     C17692   4.810   1.444  -0.019 -0.1064  0.1311  0.6742
  132MOL0     O17693   4.930   1.514  -0.001  0.2469 -0.6283  0.3785
  132MOL0     C17694   4.940   1.660   0.030  0.8268  0.4740 -0.4766
  132MOL0     C17695   5.081   1.699   0.077  0.7281  0.0724 -0.1356
  132MOL0     C17696   5.199   1.663  -0.030  1.0471  0.0516 -0.3853
  132MOL0     C17697   5.191   1.715  -0.173  0.1144 -0.5950 -0.5838
  132MOL0     C17698   5.327   1.714  -0.239 -0.1522 -0.7912  0.8668
  132MOL0     C17699   5.344   1.788  -0.377 -0.5286 -0.0615  0.2505
  132MOL0     C17700   5.476   1.732  -0.440 -0.4992 -0.2482  1.8372
  132MOL0     C17701   5.511   1.815  -0.568 -0.2104  0.0174  0.6086
  132MOL0     N17702   5.638   1.768  -0.625  0.0263  0.0868 -0.5648
  132MOL0     C17703   5.677   1.637  -0.646  0.0851  0.5374 -0.6331
  132MOL0     C17704   5.811   1.646  -0.668  0.9868  0.8228 -0.6638
  132MOL0     C17705   5.891   1.520  -0.688  0.9189  0.3065 -0.1801
  132MOL0     C17706   5.981   1.524  -0.807  0.5032 -0.6068  0.0242
  132MOL0     C17707   6.103   1.620  -0.795 -0.1888  0.1152 -0.5741
  132MOL0     C17708   6.207   1.602  -0.901 -0.1724  0.5650  0.3964
  132MOL0     O17709   6.182   1.662  -1.032  0.7593 -0.4373  0.4267
  132MOL0     C17710   6.257   1.772  -1.051  0.6231 -0.5975  0.1084
  132MOL0     C17711   6.374   1.762  -1.127 -0.0442  0.8684 -0.8050
  132MOL0     C17712   6.445   1.878  -1.158 -0.6499 -0.5414 -1.0057
  132MOL0     C17713   6.405   2.002  -1.111  0.8101  0.2194 -0.6241
  132MOL0     C17714   6.483   2.126  -1.132  1.3019 -0.1199  0.2728
  132MOL0     O17715   6.600   2.115  -1.196 -0.5065 -0.6937  0.2732
  132MOL0     C17716   6.635   2.221  -1.269  0.2455 -0.8510  0.2588
  132MOL0     C17717   6.579   2.243  -1.392 -1.3620 -0.7840  0.3533
  132MOL0     C17718   6.641   2.338  -1.481  0.4609  0.3407  0.6197
  132MOL0     C17719   6.744   2.423  -1.440  0.8641  0.5855 -0.3468
  132MOL0     O17720   6.781   2.514  -1.533 -1.2485  0.5457  0.6189
  132MOL0     C17721   6.881   2.615  -1.487  0.2322  0.0610 -0.5972
  132MOL0     C17722   6.867   2.747  -1.580 -0.1289 -0.1505 -0.4158
  132MOL0     C17723   6.874   2.710  -1.728  0.7225 -0.0615  0.7696
  132MOL0     C17724   7.022   2.695  -1.773 -0.1288  0.1899 -0.2404
  132MOL0     C17725   7.039   2.712  -1.922 -0.5294  0.3891  0.7920
  132MOL0     C17726   7.181   2.675  -1.976 -0.3204  0.5932 -0.0153
  132MOL0     C17727   7.267   2.803  -1.972  0.0106  0.2792 -0.2665
  132MOL0     C17728   7.367   2.797  -2.083  0.2515 -0.5964  0.3904
  132MOL0    Cl17729   7.284   2.802  -2.242  0.0670  0.2305  0.1093
  132MOL0     C17730   6.781   2.408  -1.303  0.3901  0.3802  0.2085
  132MOL0     C17731   6.731   2.305  -1.221 -0.1917 -0.7533 -0.1918
  132MOL0     O17732   6.429   2.229  -1.108  0.4680 -0.5963  0.2877
  132MOL0     C17733   6.282   2.008  -1.033  0.8749  1.0174  0.3673
  132MOL0     C17734   6.216   1.892  -1.005 -0.1797  1.9776  0.4106
  132MOL0     N17735   5.844   1.777  -0.660 -0.0383 -0.1716 -0.0138
  132MOL0     N17736   5.745   1.854  -0.635 -0.0909  0.2358  0.6280
  132MOL0     C17737   4.813   1.306  -0.013  0.4833  0.1892 -1.0183
  132MOL0     C17738   4.695   1.224  -0.021  0.4660 -0.0538  0.3514
  132MOL0     C17739   4.297   1.044  -0.072 -0.3864  0.3107 -0.1862
  132MOL0     C17740   4.176   1.073  -0.012 -0.0451  0.7875 -0.3566
  132MOL0     C17741   4.054   1.003  -0.044 -0.2404 -0.7923 -0.3766
  132MOL0     C17742   4.060   0.901  -0.146 -0.0219 -0.1997  0.1530
  132MOL0     O17743   3.956   0.821  -0.182  0.3446  0.1257 -1.0552
  132MOL0     C17744   3.867   0.774  -0.082  0.1377 -0.3313 -0.0689
  132MOL0     C17745   3.746   0.699  -0.135  0.1980 -0.0313 -0.3215
  132MOL0     C17746   3.783   0.573  -0.218  0.0998 -0.8799  0.5101
  132MOL0     C17747   3.768   0.592  -0.363  0.1513  0.2370 -0.1352
  132MOL0     C17748   3.784   0.461  -0.438  0.6095 -0.3867  0.2085
  132MOL0     C17749   3.796   0.359  -0.492 -0.1695 -0.2657 -0.0246
  132MOL0     C17750   4.177   0.886  -0.218  1.1027 -0.0526 -1.1013
  132MOL0     C17751   4.289   0.951  -0.184  0.1595 -0.4870 -0.2312
  132MOL0     C17752   4.414   0.948  -0.255 -0.4026 -0.0081 -0.4202
  132MOL0     H17753   4.481   1.487  -0.033  0.9119  0.5441 -2.0130
  132MOL0     H17754   4.680   1.615  -0.030 -1.1908 -0.3454 -1.6138
  132MOL0     H17755   4.910   1.720  -0.056 -3.1882 -0.5706  0.0099
  132MOL0     H17756   4.868   1.682   0.109 -1.8491 -0.4521 -2.5179
  132MOL0     H17757   5.093   1.657   0.177 -0.9126  2.1300  1.0099
  132MOL0     H17758   5.079   1.807   0.092  1.4620  0.1300 -0.4093
  132MOL0     H17759   5.201   1.554  -0.038 -4.8321 -0.3901 -0.4793
  132MOL0     H17760   5.287   1.705   0.019 -1.3704  1.3559  3.3467
  132MOL0     H17761   5.116   1.660  -0.231 -0.1367 -0.5657 -0.2926
  132MOL0     H17762   5.155   1.819  -0.170 -1.4304 -1.1258  1.2016
  132MOL0     H17763   5.408   1.744  -0.171 -0.5211  1.3745  0.4271
  132MOL0     H17764   5.348   1.609  -0.261  1.7146 -0.2478 -0.2211
  132MOL0     H17765   5.260   1.763  -0.443 -0.3178 -3.9807  1.1827
  132MOL0     H17766   5.350   1.896  -0.369  2.3036  0.1620 -2.6249
  132MOL0     H17767   5.455   1.631  -0.475 -0.4971  0.1550  0.6385
  132MOL0     H17768   5.562   1.735  -0.372  0.6317  0.1123  0.4355
  132MOL0     H17769   5.426   1.794  -0.634 -0.6942 -2.1722  1.8468
  132MOL0     H17770   5.524   1.922  -0.549  1.8501 -0.2874  1.1067
  132MOL0     H17771   5.614   1.549  -0.647 -0.4045  0.8620 -2.6581
  132MOL0     H17772   5.958   1.508  -0.603  1.8471  4.0527 -0.2056
  132MOL0     H17773   5.828   1.431  -0.699  1.6391 -0.1250 -0.9139
  132MOL0     H17774   6.011   1.419  -0.818 -0.7058 -0.9385 -0.2757
  132MOL0     H17775   5.920   1.552  -0.893 -0.0180 -2.3832 -0.2328
  132MOL0     H17776   6.160   1.596  -0.705 -1.2806  0.9702  0.3785
  132MOL0     H17777   6.078   1.726  -0.788  0.3084  0.2218 -0.4218
  132MOL0     H17778   6.224   1.495  -0.911  1.1627  0.8252 -0.4544
  132MOL0     H17779   6.305   1.639  -0.867  0.2659  0.6696 -0.9216
  132MOL0     H17780   6.397   1.657  -1.147 -1.9234 -0.4427  2.8873
  132MOL0     H17781   6.536   1.887  -1.216 -1.1862 -2.1235 -2.1594
  132MOL0     H17782   6.491   2.190  -1.427 -1.7819 -1.0908  1.7820
  132MOL0     H17783   6.593   2.350  -1.577 -1.8661  1.7707  1.8670
  132MOL0     H17784   6.846   2.649  -1.389 -3.1382 -0.4143 -1.5140
  132MOL0     H17785   6.981   2.575  -1.469 -0.1561 -0.6192  0.1261
  132MOL0     H17786   6.765   2.782  -1.563 -0.4068 -0.5034 -1.2647
  132MOL0     H17787   6.939   2.823  -1.551 -2.4606  1.9392  0.2281
  132MOL0     H17788   6.816   2.619  -1.747  3.5057 -1.8106  0.1402
  132MOL0     H17789   6.831   2.784  -1.796 -0.8169 -1.8044 -0.2398
  132MOL0     H17790   7.040   2.593  -1.737  1.3611  0.4288 -0.2731
  132MOL0     H17791   7.082   2.772  -1.724 -2.3230  1.9003 -0.0916
  132MOL0     H17792   6.999   2.807  -1.958  0.7189  0.6748  0.0842
  132MOL0     H17793   6.981   2.632  -1.968  2.7398 -1.5094 -0.3742
  132MOL0     H17794   7.223   2.595  -1.913 -1.7166  1.9040  2.7749
  132MOL0     H17795   7.178   2.637  -2.078 -1.6631 -2.9045  1.1467
  132MOL0     H17796   7.327   2.817  -1.882  0.5717  2.8545 -0.9488
  132MOL0     H17797   7.211   2.896  -1.989  3.3388  2.0913 -2.4950
  132MOL0     H17798   7.441   2.875  -2.064 -0.2742 -0.3884  1.6847
  132MOL0     H17799   7.427   2.706  -2.086  1.3796  0.1297 -2.7688
  132MOL0     H17800   6.855   2.476  -1.263 -0.3207  1.2514  0.0898
  132MOL0     H17801   6.783   2.293  -1.126  3.0723 -0.8474 -1.8497
  132MOL0     H17802   6.248   2.095  -0.978 -2.0675 -0.1839  0.6487
  132MOL0     H17803   6.131   1.894  -0.938 -0.7777  1.8631 -0.3350
  132MOL0     H17804   4.912   1.266   0.009  0.8785  1.0094 -1.2813
  132MOL0     H17805   4.717   1.118  -0.016 -1.5834 -0.6195 -1.1752
  132MOL0     H17806   4.181   1.130   0.080  2.6487 -3.7137  2.6719
  132MOL0     H17807   3.960   1.020   0.007 -2.3566 -3.3601 -3.0126
  132MOL0     H17808   3.823   0.857  -0.027 -0.3656 -2.3748  2.8063
  132MOL0     H17809   3.929   0.721  -0.009  1.7608  0.5848 -0.7141
  132MOL0     H17810   3.683   0.765  -0.195 -1.1043  0.9361  1.9760
  132MOL0     H17811   3.695   0.668  -0.043 -1.3708 -1.0871 -1.5050
  132MOL0     H17812   3.726   0.491  -0.174  1.0622 -1.1436  1.2990
  132MOL0     H17813   3.887   0.543  -0.204 -0.4311 -3.6550 -0.7856
  132MOL0     H17814   3.667   0.632  -0.373 -0.4889 -0.4016  2.8293
  132MOL0     H17815   3.843   0.662  -0.401 -1.5587  3.8866  2.5874
  132MOL0     H17816   3.814   0.273  -0.553 -0.0324  0.0360 -0.4154
  132MOL0     H17817   4.182   0.815  -0.300  3.9077  1.2349 -2.1492
  132MOL0     H17818   4.485   0.881  -0.204 -1.4166 -0.8426 -0.0623
  132MOL0     H17819   4.396   0.936  -0.362 -0.9503  0.4458 -0.3835
  132MOL0     H17820   4.467   1.043  -0.248  0.2638 -0.3011 -1.3299
  133MOL0     O17821  10.203  10.782   4.525  0.1295  0.1367  0.3147
  133MOL0     C17822  10.177  10.903   4.507 -0.5198  0.2750 -0.3503
  133MOL0     O17823  10.154  10.993   4.607 -0.6027  0.7148 -0.1430
  133MOL0     C17824  10.137  10.950   4.736  0.2862  0.1266  0.4132
  133MOL0     C17825  10.076  10.824   4.776  1.0573 -0.0090  0.0395
  133MOL0     C17826  10.049  10.789   4.911 -0.4050  0.0404  0.5857
  133MOL0     C17827  10.067  10.886   5.016 -1.4142  0.6105 -0.1961
  133MOL0     O17828  10.045  10.864   5.155  0.5297  0.0437 -0.0842
  133MOL0     C17829   9.968  10.746   5.191 -0.7652  0.0379 -0.1877
  133MOL0     C17830   9.931  10.749   5.331 -0.8121  0.6138 -0.2029
  133MOL0     C17831  10.046  10.698   5.422 -0.4999  0.3910  0.7766
  133MOL0     C17832   9.982  10.653   5.549 -0.3821 -0.7728 -1.3511
  133MOL0     C17833  10.087  10.567   5.621 -0.2167  0.7858 -0.6583
  133MOL0     C17834  10.041  10.508   5.760  0.1481 -0.1112  0.0494
  133MOL0     C17835  10.017  10.617   5.869 -0.1848 -0.3116  0.1613
  133MOL0     C17836  10.142  10.675   5.939 -0.8014 -0.0874  0.9114
  133MOL0     N17837  10.111  10.711   6.079 -0.0585 -0.3783  0.0735
  133MOL0     C17838  10.109  10.622   6.183 -1.0236  0.0384 -0.8401
  133MOL0     C17839  10.071  10.691   6.297  0.3462  0.0496  0.7354
  133MOL0     C17840  10.046  10.642   6.436 -0.5327  0.1846 -0.0796
  133MOL0     C17841  10.129  10.718   6.536 -0.4223 -0.4645  0.0551
  133MOL0     C17842  10.284  10.691   6.511  0.9202 -0.1814  0.3568
  133MOL0     C17843  10.379  10.731   6.616  0.4108  0.1025  1.1675
  133MOL0     O17844  10.371  10.630   6.715  0.8854  0.4757  0.2144
  133MOL0     C17845  10.420  10.644   6.840  0.7334 -0.6947  1.4111
  133MOL0     C17846  10.386  10.558   6.943 -0.4304  0.5676  0.0887
  133MOL0     C17847  10.448  10.563   7.069  0.1439 -1.0915  0.2968
  133MOL0     C17848  10.546  10.663   7.093  0.3013 -0.6207  0.0046
  133MOL0     C17849  10.590  10.668   7.237 -0.0170  0.1976 -0.0472
  133MOL0     O17850  10.520  10.601   7.337  0.1575 -0.1537  0.6588
  133MOL0     C17851  10.541  10.622   7.468 -0.5443 -0.4630 -0.4316
  133MOL0     C17852  10.543  10.743   7.528 -0.6612  0.0255  0.3522
  133MOL0     C17853  10.582  10.752   7.672 -0.3664  0.6587  0.3610
  133MOL0     C17854  10.613  10.639   7.744 -1.1103 -0.6933  0.7562
  133MOL0     O17855  10.675  10.656   7.868  0.8614 -0.3889 -0.4736
  133MOL0     C17856  10.781  10.576   7.913  0.3973  0.3421 -0.0507
  133MOL0     C17857  10.845  10.633   8.044 -0.5519  0.4677  0.6479
  133MOL0     C17858  10.941  10.752   8.023 -0.6488 -0.0318  0.1967
  133MOL0     C17859  10.983  10.812   8.164  0.8373  1.3038  0.3913
  133MOL0     C17860  11.087  10.919   8.152  0.8371 -0.1985 -0.5829
  133MOL0     C17861  11.216  10.873   8.088 -0.8004 -0.4576 -0.0583
  133MOL0     C17862  11.347  10.950   8.135 -1.1199 -0.3216  0.4906
  133MOL0     C17863  11.470  10.900   8.063 -0.6101 -0.7087 -0.4981
  133MOL0    Cl17864  11.518  10.747   8.135 -0.1124  0.1288 -0.1379
  133MOL0     C17865  10.608  10.516   7.689  1.1262 -0.2296 -0.4388
  133MOL0     C17866  10.576  10.507   7.547 -0.4451 -1.0643  0.3779
  133MOL0     O17867  10.691  10.727   7.265 -0.0079  0.0122 -0.1236
  133MOL0     C17868  10.585  10.753   6.987  0.3726  1.1956  0.5776
  133MOL0     C17869  10.519  10.738   6.860  0.1974 -0.5281  0.0838
  133MOL0     N17870  10.071  10.824   6.262  0.8694  0.1565  0.2390
  133MOL0     N17871  10.084  10.841   6.129  0.1105 -0.7063  0.7715
  133MOL0     C17872  10.120  11.012   4.972 -0.1107  0.2731  0.4442
  133MOL0     C17873  10.158  11.043   4.838  0.5563  0.2208  0.0987
  133MOL0     C17874  10.156  10.938   4.369  0.6463 -0.7914  0.5857
  133MOL0     C17875  10.153  11.076   4.339  0.1052 -0.3354 -0.0774
  133MOL0     C17876  10.144  11.122   4.206 -0.1441  0.0577  0.1561
  133MOL0     C17877  10.119  11.033   4.103 -0.6731 -0.2823 -0.4434
  133MOL0     O17878  10.111  11.084   3.974 -0.5615  0.5777  0.2946
  133MOL0     C17879  10.215  11.051   3.878  0.2462 -0.1601 -0.3957
  133MOL0     C17880  10.336  11.145   3.892 -0.7680 -0.3383  0.8799
  133MOL0     C17881  10.473  11.064   3.916  0.3751  0.0179  0.2481
  133MOL0     C17882  10.511  11.001   3.785  0.9541 -1.3045 -0.4966
  133MOL0     C17883  10.603  10.898   3.811 -0.1469 -0.6453 -0.0610
  133MOL0     C17884  10.693  10.819   3.822  0.1578  0.0128 -0.8551
  133MOL0     C17885  10.099  10.899   4.134 -0.1375 -0.0513  0.3406
  133MOL0     C17886  10.118  10.848   4.269  0.4229  0.6822 -0.3178
  133MOL0     C17887  10.116  10.694   4.274 -0.1060  0.2100 -0.2934
  133MOL0     H17888  10.037  10.758   4.699  0.3179  2.1310 -1.5123
  133MOL0     H17889  10.001  10.693   4.931 -0.7148  0.1236  0.2539
  133MOL0     H17890   9.873  10.752   5.138 -0.4684  0.5998 -0.6656
  133MOL0     H17891  10.014  10.652   5.160 -1.0070  0.2742 -1.2877
  133MOL0     H17892   9.843  10.685   5.345  1.5213 -3.2600 -1.5253
  133MOL0     H17893   9.898  10.851   5.352 -1.7793  0.2979 -0.1583
  133MOL0     H17894  10.123  10.774   5.431  1.1096 -1.1016  0.2291
  133MOL0     H17895  10.094  10.607   5.382 -1.0551 -0.1170  1.2431
  133MOL0     H17896   9.956  10.740   5.611 -0.4524 -0.5314 -1.7176
  133MOL0     H17897   9.893  10.593   5.529  0.7900 -2.4940 -1.6140
  133MOL0     H17898  10.138  10.493   5.558  4.5244  3.8964 -0.9866
  133MOL0     H17899  10.163  10.645   5.630 -1.9332  2.3727  0.6671
  133MOL0     H17900   9.950  10.449   5.746  0.4400 -0.4753 -0.3842
  133MOL0     H17901  10.114  10.435   5.799 -0.8036 -0.0017  2.1349
  133MOL0     H17902   9.942  10.585   5.942  0.6260 -0.6609  0.8631
  133MOL0     H17903   9.973  10.706   5.824 -1.4894  0.7207  3.1784
  133MOL0     H17904  10.219  10.597   5.937 -0.6156  0.0997  0.8061
  133MOL0     H17905  10.173  10.763   5.883  0.1534  0.8383  2.7934
  133MOL0     H17906  10.119  10.514   6.191 -1.3601  0.0554 -0.1092
  133MOL0     H17907   9.940  10.658   6.461 -0.3285  0.0431  0.8768
  133MOL0     H17908  10.058  10.533   6.438 -1.3040  0.1039  0.6684
  133MOL0     H17909  10.111  10.826   6.531 -0.9580 -0.4419  1.7429
  133MOL0     H17910  10.104  10.673   6.633 -0.7577  1.1377  0.7454
  133MOL0     H17911  10.302  10.744   6.417 -2.7894 -0.0512 -0.4183
  133MOL0     H17912  10.298  10.584   6.491 -1.2650 -0.5851  0.6999
  133MOL0     H17913  10.363  10.830   6.660  1.0338  0.1816  1.2236
  133MOL0     H17914  10.485  10.726   6.591  0.2591 -1.6111  0.7247
  133MOL0     H17915  10.319  10.479   6.910 -0.3388  1.0195 -1.2399
  133MOL0     H17916  10.419  10.498   7.150 -3.0474 -0.5257 -0.2448
  133MOL0     H17917  10.524  10.834   7.473  0.1345  0.6785  1.1167
  133MOL0     H17918  10.578  10.850   7.718 -0.4509  1.5138 -1.3511
  133MOL0     H17919  10.757  10.472   7.938 -2.4038  0.0558 -3.1488
  133MOL0     H17920  10.848  10.574   7.827 -1.6771  1.2436 -1.7975
  133MOL0     H17921  10.762  10.643   8.113 -2.1031  0.4014 -1.1323
  133MOL0     H17922  10.906  10.557   8.094 -3.7119 -1.3622  2.0086
  133MOL0     H17923  11.031  10.706   7.982 -1.5162 -2.2424  0.6663
  133MOL0     H17924  10.907  10.821   7.945 -3.0881 -0.4403  0.8249
  133MOL0     H17925  11.030  10.726   8.212 -0.8816 -0.9144 -1.6102
  133MOL0     H17926  10.889  10.841   8.212  0.6037  0.8673  0.2034
  133MOL0     H17927  11.111  10.960   8.250  1.2751  1.1164 -1.2150
  133MOL0     H17928  11.040  10.999   8.093 -1.9106 -1.9518 -0.9338
  133MOL0     H17929  11.222  10.766   8.111  0.3554 -1.6935 -4.9687
  133MOL0     H17930  11.202  10.877   7.979  1.2604  0.2629 -0.3482
  133MOL0     H17931  11.366  10.946   8.243  0.9733  0.7749  0.2201
  133MOL0     H17932  11.334  11.058   8.124 -1.8528 -0.3016  1.4334
  133MOL0     H17933  11.444  10.882   7.958 -1.6615 -0.1062 -0.3546
  133MOL0     H17934  11.547  10.974   8.086  0.3976 -2.4357  2.1153
  133MOL0     H17935  10.620  10.432   7.757 -2.8383  2.8619  4.9152
  133MOL0     H17936  10.574  10.408   7.502 -1.1623 -0.5503 -0.7374
  133MOL0     H17937  10.648  10.833   7.025 -2.8867  2.8628  3.0583
  133MOL0     H17938  10.534  10.813   6.783 -1.4731 -3.6755 -3.6274
  133MOL0     H17939  10.124  11.085   5.052 -1.8246 -1.2287  2.0025
  133MOL0     H17940  10.176  11.145   4.804 -1.3045 -0.0078 -1.8011
  133MOL0     H17941  10.156  11.152   4.417  3.3018  0.7478 -1.0801
  133MOL0     H17942  10.159  11.227   4.184  2.6362  0.2148  2.1583
  133MOL0     H17943  10.185  11.061   3.774 -2.8975  2.6401  0.6007
  133MOL0     H17944  10.248  10.947   3.884  0.0673 -0.2316 -0.6608
  133MOL0     H17945  10.326  11.208   3.981 -1.6182  0.3958  0.2815
  133MOL0     H17946  10.335  11.208   3.803 -0.6273 -2.0743 -0.3791
  133MOL0     H17947  10.453  10.980   3.983 -0.1811  1.7114  2.3159
  133MOL0     H17948  10.555  11.128   3.952 -0.9132  1.2397  1.1342
  133MOL0     H17949  10.423  10.946   3.751  0.9801 -2.5426  1.3293
  133MOL0     H17950  10.545  11.076   3.712  0.4011 -0.5475  0.0111
  133MOL0     H17951  10.772  10.747   3.832 -2.4126 -2.7203  3.6915
  133MOL0     H17952  10.064  10.837   4.052 -2.9737 -2.9020  3.3975
  133MOL0     H17953  10.071  10.649   4.186 -1.1062  1.0113 -0.2102
  133MOL0     H17954  10.212  10.644   4.291 -1.1389 -2.3038 -1.4986
  133MOL0     H17955  10.049  10.665   4.355 -2.1438 -0.6861 -2.2186
  134MOL0     O17956   7.757   2.884   8.644  0.8941 -0.4870  0.5416
  134MOL0     C17957   7.831   2.820   8.713  0.5236 -0.2740  0.0609
  134MOL0     O17958   7.960   2.793   8.671  0.3677 -0.7057  0.7931
  134MOL0     C17959   8.017   2.869   8.573  0.0998 -0.4271 -1.5057
  134MOL0     C17960   8.094   2.987   8.612 -0.3716  0.9988  0.0124
  134MOL0     C17961   8.154   3.065   8.517 -0.5654 -0.0872 -0.3795
  134MOL0     C17962   8.149   3.022   8.377 -0.0265 -0.7048 -0.4826
  134MOL0     O17963   8.222   3.076   8.280  0.6127  0.1091  0.4226
  134MOL0     C17964   8.324   3.173   8.304 -0.5716  0.6322  0.5528
  134MOL0     C17965   8.408   3.218   8.176 -0.0346  0.2409 -0.0763
  134MOL0     C17966   8.472   3.082   8.130 -0.4270  0.4981 -0.4686
  134MOL0     C17967   8.565   3.102   8.002 -0.1554  0.0230  0.7051
  134MOL0     C17968   8.603   2.965   7.939  0.3303 -0.5096  0.6436
  134MOL0     C17969   8.698   2.897   8.038 -0.4248 -0.0148 -0.1501
  134MOL0     C17970   8.752   2.764   7.984 -0.4049 -0.9903 -0.2480
  134MOL0     C17971   8.842   2.701   8.085 -0.5398  0.2309 -0.6868
  134MOL0     N17972   8.919   2.582   8.032 -0.2571 -0.3313 -0.3519
  134MOL0     C17973   8.883   2.501   7.925 -0.1878  0.5062 -0.5202
  134MOL0     C17974   8.999   2.427   7.901  0.2338  0.1250 -0.0910
  134MOL0     C17975   9.017   2.322   7.791 -0.2652 -0.3964  0.9843
  134MOL0     C17976   9.075   2.193   7.835 -0.3779  0.1337 -1.2931
  134MOL0     C17977   9.232   2.194   7.821 -0.1808  0.1556 -0.4774
  134MOL0     C17978   9.322   2.083   7.872  0.7678  0.1136  1.0806
  134MOL0     O17979   9.263   1.954   7.838 -0.1799  0.8217  0.0596
  134MOL0     C17980   9.316   1.839   7.881  0.3228  1.1513 -1.0327
  134MOL0     C17981   9.406   1.839   7.986 -0.0482  0.1890  0.4801
  134MOL0     C17982   9.448   1.723   8.054 -0.0564  0.0821 -0.1042
  134MOL0     C17983   9.398   1.592   8.018 -0.0312 -0.0978 -0.7388
  134MOL0     C17984   9.431   1.463   8.092  0.3355 -0.2410 -0.2774
  134MOL0     O17985   9.401   1.339   8.047 -1.0765 -0.1741  0.2342
  134MOL0     C17986   9.451   1.230   8.115 -0.3394  0.2597 -0.0966
  134MOL0     C17987   9.574   1.209   8.184 -1.1569  0.0507  0.3522
  134MOL0     C17988   9.615   1.082   8.231 -0.0494  0.2478  0.2116
  134MOL0     C17989   9.544   0.962   8.201  0.1399 -0.2682  0.0131
  134MOL0     O17990   9.573   0.838   8.255 -0.5177 -0.2715 -0.0617
  134MOL0     C17991   9.670   0.826   8.351 -0.8523  0.3704  0.4759
  134MOL0     C17992   9.668   0.687   8.416  0.0010 -0.0044  0.9953
  134MOL0     C17993   9.722   0.575   8.313  0.2537 -0.0912 -0.2771
  134MOL0     C17994   9.696   0.428   8.345  0.7234  0.2368  0.0511
  134MOL0     C17995   9.758   0.331   8.237  0.1571 -0.5903  0.9890
  134MOL0     C17996   9.906   0.291   8.254 -0.7759 -0.0894  0.2385
  134MOL0     C17997   9.964   0.221   8.140  0.7330  0.5881 -0.2217
  134MOL0     C17998  10.106   0.162   8.138  0.2974  0.5373 -0.2057
  134MOL0    Cl17999  10.109   0.009   8.218  0.0809  0.7926 -0.2638
  134MOL0     C18000   9.426   0.978   8.128 -0.4540 -0.5048  0.1623
  134MOL0     C18001   9.388   1.111   8.085  0.0657 -0.1390 -0.1922
  134MOL0     O18002   9.473   1.483   8.205  0.5246 -0.9038  1.1541
  134MOL0     C18003   9.325   1.588   7.897  0.5068 -0.2079  0.3560
  134MOL0     C18004   9.272   1.708   7.836 -0.6016  0.1910  0.0535
  134MOL0     N18005   9.090   2.462   7.996 -0.4087 -0.5242  0.5558
  134MOL0     N18006   9.052   2.552   8.071  0.9571  0.4897  0.2117
  134MOL0     C18007   8.057   2.916   8.346  0.6481 -0.5227 -0.6604
  134MOL0     C18008   7.996   2.841   8.439 -0.2083  0.0802 -0.2156
  134MOL0     C18009   7.775   2.736   8.832  0.1082  0.0550  0.4611
  134MOL0     C18010   7.853   2.621   8.873  0.1808 -1.2352 -0.3009
  134MOL0     C18011   7.800   2.541   8.976  0.0711 -0.0702  0.0092
  134MOL0     C18012   7.675   2.561   9.036  0.1698 -0.2596 -0.1195
  134MOL0     O18013   7.641   2.478   9.131 -0.5488 -0.5107 -0.1651
  134MOL0     C18014   7.513   2.426   9.130 -0.3267 -0.5498  0.2571
  134MOL0     C18015   7.521   2.307   9.223 -0.3772 -0.7492 -0.1410
  134MOL0     C18016   7.596   2.180   9.162  0.1960 -0.0778  0.0529
  134MOL0     C18017   7.610   2.077   9.274  0.2221 -0.5560 -0.0343
  134MOL0     C18018   7.484   2.005   9.287  0.4526 -0.4371 -0.1891
  134MOL0     C18019   7.378   1.950   9.304 -0.6789 -0.1354  0.2624
  134MOL0     C18020   7.604   2.675   8.994  0.8604 -0.0671 -0.1938
  134MOL0     C18021   7.650   2.766   8.898  0.4085  0.3881 -0.1921
  134MOL0     C18022   7.574   2.889   8.872 -0.0843 -0.3943 -0.0926
  134MOL0     H18023   8.097   3.023   8.715  0.7635  2.6791 -0.5702
  134MOL0     H18024   8.195   3.161   8.548  1.7584 -0.9170 -0.7063
  134MOL0     H18025   8.279   3.263   8.347  0.1171  0.8683  0.7945
  134MOL0     H18026   8.394   3.131   8.376 -1.9843 -0.8294  1.1453
  134MOL0     H18027   8.480   3.289   8.219  2.7555 -3.3140  1.6885
  134MOL0     H18028   8.343   3.266   8.103 -1.2021 -0.9624  0.1225
  134MOL0     H18029   8.402   2.998   8.126 -0.0869 -0.3522  4.6500
  134MOL0     H18030   8.541   3.063   8.212 -2.2627 -0.2406  0.9503
  134MOL0     H18031   8.510   3.163   7.930  2.7825  0.1466 -1.6303
  134MOL0     H18032   8.654   3.161   8.026  0.4418 -0.6480  0.1746
  134MOL0     H18033   8.515   2.901   7.926 -0.8949  0.5769  2.9540
  134MOL0     H18034   8.651   2.980   7.843 -0.4417  1.1698  0.4789
  134MOL0     H18035   8.784   2.959   8.063  0.9888 -2.0767  0.3456
  134MOL0     H18036   8.634   2.871   8.123 -0.3756 -3.9247 -1.1235
  134MOL0     H18037   8.792   2.780   7.883  0.7968  0.7706  0.4575
  134MOL0     H18038   8.670   2.694   7.966 -1.0835 -0.1021 -0.6958
  134MOL0     H18039   8.912   2.777   8.121  3.1115 -2.6779 -1.0062
  134MOL0     H18040   8.791   2.666   8.176  0.5879  1.8741  0.6434
  134MOL0     H18041   8.785   2.491   7.879 -0.5697 -2.2746  0.6720
  134MOL0     H18042   8.915   2.316   7.752 -0.8864 -1.8451  2.7133
  134MOL0     H18043   9.082   2.353   7.708 -0.5658 -0.0920  0.8592
  134MOL0     H18044   9.053   2.182   7.942 -2.0794  0.5163 -1.5680
  134MOL0     H18045   9.016   2.112   7.790  3.1112 -2.5079 -1.5351
  134MOL0     H18046   9.261   2.291   7.864 -1.6318  0.9924 -1.2828
  134MOL0     H18047   9.262   2.199   7.717 -2.2863  1.1769 -1.0965
  134MOL0     H18048   9.338   2.102   7.978  2.1697  0.9394  0.7426
  134MOL0     H18049   9.415   2.107   7.821  0.6147  0.7761  1.1012
  134MOL0     H18050   9.424   1.940   8.023 -2.2637  1.8899 -2.6220
  134MOL0     H18051   9.526   1.720   8.129  0.9641 -0.6666 -1.1626
  134MOL0     H18052   9.633   1.298   8.205  0.3178 -0.2192 -2.2333
  134MOL0     H18053   9.706   1.074   8.289 -1.5690  1.0552  2.9002
  134MOL0     H18054   9.765   0.844   8.300 -0.4834 -2.7352 -0.1030
  134MOL0     H18055   9.662   0.901   8.430  1.7394  2.6753 -1.2471
  134MOL0     H18056   9.731   0.700   8.505 -1.0655  2.7372  1.4508
  134MOL0     H18057   9.571   0.666   8.462  0.1290 -0.6603  0.9649
  134MOL0     H18058   9.698   0.599   8.209 -0.0977 -3.0442 -0.9683
  134MOL0     H18059   9.831   0.577   8.320  0.1895  1.0077  0.5595
  134MOL0     H18060   9.587   0.427   8.354  0.7662  1.2432  0.8877
  134MOL0     H18061   9.739   0.405   8.443  1.2447  1.2676  0.0846
  134MOL0     H18062   9.731   0.364   8.136 -0.4791 -3.4656  0.1518
  134MOL0     H18063   9.708   0.235   8.250 -1.4058 -0.2308 -1.6352
  134MOL0     H18064   9.972   0.377   8.264 -2.4256  1.2945 -0.3725
  134MOL0     H18065   9.915   0.214   8.331 -1.1283 -0.6460 -0.2685
  134MOL0     H18066   9.969   0.301   8.065  0.3455  0.2307 -0.6356
  134MOL0     H18067   9.903   0.133   8.119  2.4897 -1.0716  1.2479
  134MOL0     H18068  10.138   0.136   8.037 -0.8163 -0.3052 -0.3628
  134MOL0     H18069  10.177   0.230   8.188 -1.4101  2.1718  0.1338
  134MOL0     H18070   9.362   0.890   8.124  0.2721 -1.2146  2.3523
  134MOL0     H18071   9.302   1.120   8.020  0.3956 -1.7177 -0.9173
  134MOL0     H18072   9.294   1.492   7.856 -1.4246  1.3036 -1.9386
  134MOL0     H18073   9.204   1.697   7.752 -2.3247 -1.1615  1.5256
  134MOL0     H18074   8.051   2.881   8.243 -0.6815  1.7273 -1.4081
  134MOL0     H18075   7.937   2.751   8.427  0.3903 -0.5168  1.1280
  134MOL0     H18076   7.945   2.596   8.821  1.1896 -0.3724  1.0277
  134MOL0     H18077   7.872   2.464   9.002 -0.1657 -0.0173  0.8342
  134MOL0     H18078   7.490   2.380   9.033  2.7711 -0.2378 -0.7179
  134MOL0     H18079   7.433   2.494   9.161 -0.6650 -1.3800  1.2837
  134MOL0     H18080   7.417   2.287   9.251  0.4355  0.3268  4.5115
  134MOL0     H18081   7.578   2.347   9.308  0.4862  0.9919 -1.4794
  134MOL0     H18082   7.695   2.197   9.118  0.3347  1.2270  0.8000
  134MOL0     H18083   7.534   2.137   9.083  2.8194  0.3405 -2.3927
  134MOL0     H18084   7.686   2.003   9.247  2.9375  2.3471 -0.8885
  134MOL0     H18085   7.648   2.134   9.359  0.0696  1.7363 -1.4265
  134MOL0     H18086   7.299   1.881   9.323  2.8492 -4.8859 -0.3113
  134MOL0     H18087   7.503   2.685   9.032  1.0307 -1.3112  0.6432
  134MOL0     H18088   7.529   2.910   8.969  1.7792 -0.1639  0.7685
  134MOL0     H18089   7.650   2.965   8.853 -0.1631 -0.9872 -3.2827
  134MOL0     H18090   7.498   2.889   8.793 -1.6486  0.3412  1.3380
  135MOL0     O18091   8.412   0.502   9.429  0.0019  0.2730  0.1464
  135MOL0     C18092   8.505   0.549   9.497  0.4033 -0.3176 -0.5664
  135MOL0     O18093   8.523   0.680   9.510 -0.3064  0.0109  0.6331
  135MOL0     C18094   8.453   0.768   9.426 -0.3363  0.3719 -0.0218
  135MOL0     C18095   8.501   0.812   9.305 -0.3413  0.4202  0.3779
  135MOL0     C18096   8.428   0.906   9.226 -0.3388 -0.9278  0.3957
  135MOL0     C18097   8.296   0.940   9.256 -0.8043  0.9207 -1.4171
  135MOL0     O18098   8.209   1.027   9.202 -0.3396 -0.3975 -0.3167
  135MOL0     C18099   8.160   0.978   9.081  0.2247  1.6970 -0.3274
  135MOL0     C18100   8.035   0.888   9.103  0.3022 -0.1639  0.5199
  135MOL0     C18101   7.951   0.896   8.981 -0.4188  0.3600  0.9375
  135MOL0     C18102   7.829   0.806   8.990  0.0031  0.4284 -0.6948
  135MOL0     C18103   7.757   0.802   8.859  0.5613 -0.0651 -0.1791
  135MOL0     C18104   7.836   0.730   8.745 -0.4218 -0.1680 -1.0680
  135MOL0     C18105   7.754   0.732   8.617 -0.3246  0.4413 -0.5130
  135MOL0     C18106   7.727   0.875   8.561  0.6982 -0.1886  0.0101
  135MOL0     N18107   7.854   0.942   8.519 -0.1311 -0.2769 -0.0233
  135MOL0     C18108   7.937   1.005   8.598 -0.0845 -0.3907 -0.4513
  135MOL0     C18109   8.041   1.052   8.517  0.4303 -0.6312  0.6282
  135MOL0     C18110   8.173   1.117   8.551 -0.3551  0.5080 -1.3801
  135MOL0     C18111   8.284   1.017   8.582 -0.7445 -0.1150 -0.4603
  135MOL0     C18112   8.288   0.941   8.716  0.6103 -0.3957  0.0712
  135MOL0     C18113   8.390   0.835   8.727  0.6012  0.1779  0.1565
  135MOL0     O18114   8.370   0.754   8.846  0.6226 -0.2941 -0.2052
  135MOL0     C18115   8.465   0.681   8.906 -0.0376  0.6929 -0.5374
  135MOL0     C18116   8.439   0.608   9.021 -0.3513  0.7762  0.2964
  135MOL0     C18117   8.527   0.507   9.062 -0.3707 -0.2076  0.6248
  135MOL0     C18118   8.649   0.484   8.996 -0.4323  0.1080 -0.3873
  135MOL0     C18119   8.738   0.368   9.034 -0.0348 -0.8173  0.1566
  135MOL0     O18120   8.860   0.363   8.975 -0.4637  0.7226  0.3690
  135MOL0     C18121   8.954   0.268   9.007  0.0371 -0.0910 -0.2449
  135MOL0     C18122   9.085   0.319   9.025  0.4734 -0.4627  0.8015
  135MOL0     C18123   9.189   0.241   9.048 -0.4819 -0.2901  0.1674
  135MOL0     C18124   9.163   0.105   9.062  0.1757  0.6564  0.4968
  135MOL0     O18125   9.276   0.019   9.078 -0.5679  0.6540 -0.2293
  135MOL0     C18126   9.283  -0.105   9.002 -0.1401 -0.0285 -0.2483
  135MOL0     C18127   9.415  -0.099   8.918 -0.1125 -0.4206 -0.0053
  135MOL0     C18128   9.437   0.032   8.830  0.7074  0.1251 -0.6410
  135MOL0     C18129   9.554   0.010   8.745 -1.0952  0.1546  1.1412
  135MOL0     C18130   9.627   0.124   8.674  0.1231  0.4984  0.8276
  135MOL0     C18131   9.769   0.085   8.635 -0.3500 -0.4843 -0.1524
  135MOL0     C18132   9.783  -0.042   8.547  1.5520  0.6715 -0.1087
  135MOL0     C18133   9.930  -0.061   8.516  0.3163 -1.0604 -0.0271
  135MOL0    Cl18134   9.970  -0.228   8.450 -0.2753  0.3062 -0.2629
  135MOL0     C18135   9.039   0.049   9.052 -0.1958  0.4450 -0.0082
  135MOL0     C18136   8.928   0.126   9.005 -0.4903 -0.8147  0.2050
  135MOL0     O18137   8.693   0.288   9.121 -0.4922 -0.4578  0.9767
  135MOL0     C18138   8.681   0.570   8.893 -0.0872  0.6097 -0.4636
  135MOL0     C18139   8.589   0.665   8.849 -0.3050  0.0004  0.0391
  135MOL0     N18140   8.011   1.008   8.387 -0.2309  0.1126  0.6694
  135MOL0     N18141   7.895   0.941   8.393 -0.4451  0.3612  0.2047
  135MOL0     C18142   8.246   0.877   9.376  0.2039 -0.0827  0.3411
  135MOL0     C18143   8.323   0.800   9.461  0.2100  0.2084 -0.0725
  135MOL0     C18144   8.627   0.471   9.525  1.0756  0.5048  0.6411
  135MOL0     C18145   8.698   0.421   9.414 -0.8818 -0.3480 -1.0005
  135MOL0     C18146   8.818   0.346   9.430 -0.0975 -0.3181  0.6853
  135MOL0     C18147   8.863   0.316   9.560  0.5090  0.6131  0.4832
  135MOL0     O18148   8.971   0.239   9.586  0.2811  0.0240 -0.5785
  135MOL0     C18149   9.036   0.157   9.490  0.9681 -0.9162  0.6148
  135MOL0     C18150   9.078   0.023   9.552  0.5858  0.1647 -0.5308
  135MOL0     C18151   9.177  -0.052   9.478 -0.1598  0.3126  0.1093
  135MOL0     C18152   9.322   0.003   9.500  0.3261  0.1341 -0.3995
  135MOL0     C18153   9.412  -0.075   9.414 -0.0031 -0.2914  0.8082
  135MOL0     C18154   9.495  -0.140   9.350  0.6378  0.1813  0.0150
  135MOL0     C18155   8.792   0.362   9.673 -0.8151 -0.2664 -0.5301
  135MOL0     C18156   8.677   0.437   9.649  0.2043 -0.3707 -0.0414
  135MOL0     C18157   8.591   0.476   9.769  0.0764  0.2417  0.2097
  135MOL0     H18158   8.585   0.772   9.249 -1.0179  0.6891 -0.8713
  135MOL0     H18159   8.481   0.930   9.134  0.9940  2.5390  1.8927
  135MOL0     H18160   8.134   1.071   9.030  0.9520  1.0676 -1.8918
  135MOL0     H18161   8.234   0.918   9.027 -1.3892 -2.3613  1.5266
  135MOL0     H18162   7.997   0.947   9.187 -1.5732  0.5674 -0.7503
  135MOL0     H18163   8.056   0.784   9.127 -1.0483  0.0174  2.7617
  135MOL0     H18164   8.023   0.859   8.907 -1.1561 -1.0154  0.8740
  135MOL0     H18165   7.915   0.997   8.961 -2.8460 -0.2619  1.8634
  135MOL0     H18166   7.852   0.702   9.014  3.1386  0.2855 -3.5990
  135MOL0     H18167   7.756   0.848   9.061  2.5282  1.8570  1.2441
  135MOL0     H18168   7.662   0.747   8.864  1.8222 -2.3163  1.0488
  135MOL0     H18169   7.737   0.902   8.821  2.0670 -1.0237 -3.9833
  135MOL0     H18170   7.931   0.782   8.731 -0.0448 -0.9921 -1.6535
  135MOL0     H18171   7.850   0.626   8.778 -0.2699  0.4731  1.0560
  135MOL0     H18172   7.658   0.684   8.638  0.3441 -0.7524 -0.0935
  135MOL0     H18173   7.810   0.672   8.545  1.3393 -1.9437  2.5551
  135MOL0     H18174   7.659   0.848   8.481  0.6882  2.5385 -1.0128
  135MOL0     H18175   7.676   0.942   8.632 -0.0735 -2.4818  1.7369
  135MOL0     H18176   7.924   1.029   8.703 -2.5832  1.8829 -1.1657
  135MOL0     H18177   8.200   1.173   8.461 -0.9073 -0.8597 -2.4336
  135MOL0     H18178   8.172   1.180   8.641 -2.5826  1.3294 -1.9070
  135MOL0     H18179   8.293   0.948   8.498 -2.3368  0.4770 -1.1594
  135MOL0     H18180   8.365   1.090   8.575 -4.0356  4.1196  1.2772
  135MOL0     H18181   8.188   0.905   8.740  0.3699  0.2757  0.0850
  135MOL0     H18182   8.313   1.012   8.795  1.5516 -1.1526  0.4747
  135MOL0     H18183   8.487   0.884   8.735 -0.0764  1.2300  3.0239
  135MOL0     H18184   8.386   0.772   8.637 -0.2227 -0.4098  0.5875
  135MOL0     H18185   8.338   0.614   9.059 -0.5557 -2.7715  0.6657
  135MOL0     H18186   8.510   0.446   9.150 -0.2767  0.2818  0.9880
  135MOL0     H18187   9.095   0.426   9.010 -1.6480 -0.4620 -1.3837
  135MOL0     H18188   9.292   0.273   9.051 -0.6474  0.1921  1.4023
  135MOL0     H18189   9.299  -0.186   9.074  2.4437 -1.7110 -2.4942
  135MOL0     H18190   9.199  -0.131   8.937 -2.3635 -1.0288  2.8106
  135MOL0     H18191   9.507  -0.112   8.975  2.7385  2.8685 -3.3313
  135MOL0     H18192   9.421  -0.187   8.852 -0.0542  0.1774 -0.8113
  135MOL0     H18193   9.348   0.047   8.767  0.8236 -1.7369 -1.3024
  135MOL0     H18194   9.442   0.120   8.895 -0.4745 -1.1829  1.3097
  135MOL0     H18195   9.534  -0.056   8.660 -1.2263  3.3547 -1.5304
  135MOL0     H18196   9.630  -0.036   8.809  2.0497  0.5960 -1.9334
  135MOL0     H18197   9.630   0.201   8.753 -1.3479 -3.4658  5.2383
  135MOL0     H18198   9.567   0.155   8.588 -0.1535 -1.3093  0.3297
  135MOL0     H18199   9.809   0.175   8.587 -2.2532  0.7502  0.4669
  135MOL0     H18200   9.837   0.074   8.720  2.1959  1.2885 -1.8028
  135MOL0     H18201   9.731  -0.013   8.455  0.0195 -0.8931  0.2168
  135MOL0     H18202   9.742  -0.128   8.599  0.2876  0.3522 -1.5737
  135MOL0     H18203   9.973   0.013   8.447  0.8776 -0.6583  0.7359
  135MOL0     H18204   9.980  -0.056   8.612  1.2215 -2.4015 -0.4083
  135MOL0     H18205   9.023  -0.058   9.067 -2.0930  0.8243  0.9129
  135MOL0     H18206   8.828   0.085   8.996 -0.0591 -1.4595 -3.0127
  135MOL0     H18207   8.756   0.559   8.816 -0.9988  3.3126 -1.8694
  135MOL0     H18208   8.624   0.736   8.775  0.7644 -1.7335 -1.1890
  135MOL0     H18209   8.142   0.888   9.405  0.2329  0.9032  0.0898
  135MOL0     H18210   8.273   0.755   9.547 -0.5256  1.6613  0.2910
  135MOL0     H18211   8.647   0.434   9.319 -0.1472 -1.6036 -1.5864
  135MOL0     H18212   8.861   0.309   9.338  1.8903  2.1366  0.5122
  135MOL0     H18213   9.117   0.220   9.451 -0.1320 -1.3115 -2.6166
  135MOL0     H18214   8.980   0.128   9.401  0.6657  0.7626  0.2129
  135MOL0     H18215   8.986  -0.036   9.556  1.4271 -1.1000  1.3246
  135MOL0     H18216   9.125   0.040   9.649  0.7731 -2.5839 -0.0570
  135MOL0     H18217   9.156  -0.040   9.371 -2.2209 -0.3972  0.3865
  135MOL0     H18218   9.164  -0.152   9.520 -1.6481  1.7371  3.4177
  135MOL0     H18219   9.337   0.110   9.484  1.8342  0.2208  1.3701
  135MOL0     H18220   9.343  -0.013   9.606  0.2602  0.1854 -0.3791
  135MOL0     H18221   9.558  -0.205   9.293 -0.0674  0.6152 -1.2951
  135MOL0     H18222   8.824   0.343   9.775 -1.0738  1.5966 -0.0784
  135MOL0     H18223   8.641   0.443   9.861  1.2982  0.2045 -0.4472
  135MOL0     H18224   8.583   0.584   9.783 -5.3117  0.0847  0.4612
  135MOL0     H18225   8.485   0.449   9.759  0.0079  0.9141 -1.0318
  136MOL0     O18226   0.592   7.413   7.859  0.1200 -0.7416  0.1287
  136MOL0     C18227   0.492   7.487   7.854 -0.4890 -0.1708  0.1234
  136MOL0     O18228   0.379   7.486   7.935  0.3117  0.5544 -0.1583
  136MOL0     C18229   0.345   7.383   8.021  0.3137 -1.2679 -0.0915
  136MOL0     C18230   0.425   7.304   8.109  0.3465 -0.3528  0.3560
  136MOL0     C18231   0.376   7.205   8.191 -0.3078  0.7856 -0.3620
  136MOL0     C18232   0.240   7.185   8.197  0.0153 -0.5906  0.2070
  136MOL0     O18233   0.180   7.090   8.279  0.3715  0.0710  0.4093
  136MOL0     C18234   0.248   7.034   8.399 -0.0655  0.1671  0.3378
  136MOL0     C18235   0.328   6.907   8.378 -0.8682  0.2216  0.2324
  136MOL0     C18236   0.248   6.786   8.352 -0.1485  0.7304 -1.5277
  136MOL0     C18237   0.329   6.659   8.339 -0.4008 -0.2000 -0.2604
  136MOL0     C18238   0.244   6.531   8.346  0.4921 -0.1180  0.2693
  136MOL0     C18239   0.115   6.510   8.261  0.2994  0.2035  0.5325
  136MOL0     C18240   0.159   6.511   8.103  0.5195 -0.2905  0.4238
  136MOL0     C18241   0.030   6.524   8.012  0.2952 -0.2728  0.1537
  136MOL0     N18242  -0.070   6.421   8.038 -0.6979  0.2438  0.5475
  136MOL0     C18243  -0.053   6.288   8.004  0.7474  0.1968  0.5037
  136MOL0     C18244  -0.178   6.236   8.029 -0.5870  0.3447 -1.2810
  136MOL0     C18245  -0.207   6.085   8.030 -0.6635  0.0929 -0.5320
  136MOL0     C18246  -0.100   5.982   7.981 -0.4771 -0.5020 -1.0072
  136MOL0     C18247  -0.069   6.002   7.834 -0.0754  0.3082 -0.4211
  136MOL0     C18248   0.010   5.882   7.793 -0.0708  0.2574  0.7211
  136MOL0     O18249   0.134   5.889   7.854  0.3485  0.1374 -0.5488
  136MOL0     C18250   0.234   5.957   7.779  1.0871  0.1320  0.3458
  136MOL0     C18251   0.353   5.945   7.838  0.1681  0.1094 -0.2213
  136MOL0     C18252   0.468   5.978   7.775  0.0459 -0.0791  1.1434
  136MOL0     C18253   0.461   6.052   7.655 -0.9345  0.0676  0.6989
  136MOL0     C18254   0.580   6.108   7.591  0.2077 -0.1258  0.0144
  136MOL0     O18255   0.655   6.186   7.667  0.5049  0.1982  0.4122
  136MOL0     C18256   0.759   6.246   7.618 -0.9033 -0.6474  0.8463
  136MOL0     C18257   0.749   6.388   7.610  0.4123 -0.0531  0.4514
  136MOL0     C18258   0.848   6.469   7.561  0.1299  1.3434  0.6525
  136MOL0     C18259   0.971   6.414   7.515  0.9647 -0.7296 -0.4261
  136MOL0     O18260   1.061   6.512   7.481 -0.1622  0.2796  0.0980
  136MOL0     C18261   1.168   6.466   7.395 -0.4690 -0.4019 -0.3141
  136MOL0     C18262   1.152   6.551   7.269 -0.1670  0.5680  0.6060
  136MOL0     C18263   1.254   6.504   7.154  0.0946  0.0681 -0.3331
  136MOL0     C18264   1.277   6.617   7.044  0.0642 -0.1605 -0.1333
  136MOL0     C18265   1.168   6.632   6.942 -0.1581  0.1505  0.2366
  136MOL0     C18266   1.196   6.761   6.859  0.1296  0.2981 -0.6430
  136MOL0     C18267   1.128   6.765   6.724  0.0022 -0.1118  0.2535
  136MOL0     C18268   1.199   6.679   6.627 -0.2976 -0.2914 -0.0214
  136MOL0    Cl18269   1.174   6.729   6.455 -0.1667 -0.2438  0.3939
  136MOL0     C18270   0.976   6.271   7.518  0.1440 -0.9822 -0.3642
  136MOL0     C18271   0.878   6.188   7.575 -0.0779  0.0012  0.5516
  136MOL0     O18272   0.587   6.113   7.467  0.4203  0.4909 -0.7894
  136MOL0     C18273   0.336   6.082   7.595 -0.4387  0.2059 -0.0199
  136MOL0     C18274   0.223   6.031   7.654  0.5362  0.2645  0.8745
  136MOL0     N18275  -0.257   6.335   8.086  0.3862 -0.0173 -0.4483
  136MOL0     N18276  -0.194   6.444   8.081 -0.9511  0.2240 -0.8200
  136MOL0     C18277   0.159   7.265   8.120  1.0408 -0.1460 -0.0269
  136MOL0     C18278   0.207   7.362   8.030  0.2708  0.1616  0.7239
  136MOL0     C18279   0.486   7.577   7.731  0.1739 -0.3695  0.6530
  136MOL0     C18280   0.376   7.576   7.643 -0.2250  0.1370  0.3738
  136MOL0     C18281   0.373   7.645   7.522  0.1658 -0.4324 -0.0819
  136MOL0     C18282   0.490   7.708   7.470  0.1106 -0.5966 -0.2330
  136MOL0     O18283   0.507   7.790   7.354  0.5899  0.1048 -0.5437
  136MOL0     C18284   0.376   7.821   7.292 -1.1837  0.2997  0.8277
  136MOL0     C18285   0.395   7.905   7.171  0.5128 -0.1158 -0.2822
  136MOL0     C18286   0.484   8.033   7.194 -0.0212  0.5242  0.1628
  136MOL0     C18287   0.449   8.157   7.126 -0.2623 -1.1206  0.9508
  136MOL0     C18288   0.320   8.192   7.176  0.5900  0.4032  0.7940
  136MOL0     C18289   0.201   8.205   7.218  0.3556 -0.0547  0.2208
  136MOL0     C18290   0.597   7.720   7.565  0.3952 -0.2499  0.3376
  136MOL0     C18291   0.592   7.653   7.685 -0.2454 -0.8171 -0.1306
  136MOL0     C18292   0.711   7.695   7.774  0.0804 -0.1366 -0.7817
  136MOL0     H18293   0.532   7.317   8.126  0.7169 -2.0018 -0.4815
  136MOL0     H18294   0.460   7.159   8.242  0.6280  2.2733 -0.4894
  136MOL0     H18295   0.318   7.111   8.434  1.0548 -0.0708 -1.2512
  136MOL0     H18296   0.180   7.025   8.483  1.4450  0.9793  1.6985
  136MOL0     H18297   0.390   6.887   8.466 -1.2535 -0.9447  0.2485
  136MOL0     H18298   0.392   6.918   8.290 -4.1709  2.7568 -2.1014
  136MOL0     H18299   0.196   6.807   8.258  0.5891  2.7919 -1.5269
  136MOL0     H18300   0.184   6.762   8.437  1.8886  2.0791  0.4873
  136MOL0     H18301   0.386   6.664   8.245 -0.5976 -0.7106 -0.4118
  136MOL0     H18302   0.412   6.651   8.410 -1.8161 -2.0993  1.2726
  136MOL0     H18303   0.319   6.453   8.328  1.2863  0.2375  1.8712
  136MOL0     H18304   0.214   6.520   8.451 -0.2711  3.2666  0.5070
  136MOL0     H18305   0.075   6.414   8.295  3.1718 -1.1373  0.4547
  136MOL0     H18306   0.047   6.592   8.287  0.1900  0.3232 -0.1357
  136MOL0     H18307   0.215   6.419   8.084  0.4370 -0.1842 -0.3543
  136MOL0     H18308   0.222   6.600   8.095 -0.9995  0.9829  1.6861
  136MOL0     H18309  -0.012   6.623   8.029  0.2487 -0.6419  2.5965
  136MOL0     H18310   0.063   6.519   7.908 -2.0230 -1.7319 -0.5922
  136MOL0     H18311   0.035   6.243   7.959  1.8931  1.8973  0.9456
  136MOL0     H18312  -0.234   6.059   8.133  0.8127  0.0918 -0.1291
  136MOL0     H18313  -0.293   6.065   7.965 -1.8928 -0.2817  1.1515
  136MOL0     H18314  -0.008   5.989   8.041 -0.9160 -0.3710 -0.3419
  136MOL0     H18315  -0.136   5.879   7.994  1.5477 -1.4711 -2.3738
  136MOL0     H18316  -0.024   6.100   7.818 -1.7169  1.4750  1.5604
  136MOL0     H18317  -0.165   6.001   7.781 -0.2324 -1.0006 -0.1455
  136MOL0     H18318   0.026   5.862   7.687  1.3526 -2.8358  1.3822
  136MOL0     H18319  -0.047   5.793   7.822 -0.6929 -0.3037 -1.9560
  136MOL0     H18320   0.366   5.911   7.940  1.1935 -1.1855 -0.7498
  136MOL0     H18321   0.565   5.975   7.823  1.7609  3.5640 -1.5857
  136MOL0     H18322   0.663   6.447   7.640 -1.5841 -2.8895  0.6308
  136MOL0     H18323   0.842   6.578   7.560  1.3689  1.4422 -1.1548
  136MOL0     H18324   1.263   6.481   7.448  0.3915 -2.6389 -1.0721
  136MOL0     H18325   1.164   6.358   7.373  3.5897 -0.7296 -0.3476
  136MOL0     H18326   1.049   6.548   7.231 -0.2180 -2.1544  0.7318
  136MOL0     H18327   1.175   6.655   7.290 -3.1092  1.3428  0.4047
  136MOL0     H18328   1.355   6.496   7.196 -0.4250  0.5072  1.0559
  136MOL0     H18329   1.214   6.411   7.112  0.0349  0.6162 -1.5238
  136MOL0     H18330   1.369   6.593   6.990  1.2146  0.1089  1.6185
  136MOL0     H18331   1.290   6.715   7.090 -0.0948  0.2761 -1.0024
  136MOL0     H18332   1.068   6.637   6.986  0.6133  0.5841  2.0290
  136MOL0     H18333   1.168   6.553   6.867  1.1665 -0.9558  1.3459
  136MOL0     H18334   1.159   6.847   6.916  2.5570  0.7046  0.4828
  136MOL0     H18335   1.305   6.762   6.842  0.1893 -0.4761 -0.3246
  136MOL0     H18336   1.118   6.863   6.677 -1.8425  0.1373  1.0574
  136MOL0     H18337   1.027   6.723   6.733 -0.5432  1.2293  0.6084
  136MOL0     H18338   1.307   6.692   6.639  0.0058 -3.7162  2.1328
  136MOL0     H18339   1.175   6.573   6.634  2.9833 -1.3103 -1.9937
  136MOL0     H18340   1.067   6.226   7.481  2.8376  3.7251 -0.1983
  136MOL0     H18341   0.896   6.081   7.588 -1.3888 -0.1212  1.6068
  136MOL0     H18342   0.342   6.143   7.505 -0.1772 -1.8689 -1.4763
  136MOL0     H18343   0.125   6.053   7.612  0.8045 -0.0106  0.0769
  136MOL0     H18344   0.052   7.259   8.141  0.9119  1.7174  0.0566
  136MOL0     H18345   0.146   7.430   7.970  0.1935 -2.6210 -2.6616
  136MOL0     H18346   0.290   7.518   7.675  0.0535 -1.3847 -1.4504
  136MOL0     H18347   0.280   7.643   7.466 -0.3225  1.3236  0.5721
  136MOL0     H18348   0.325   7.880   7.368 -0.5365  0.7114  0.9548
  136MOL0     H18349   0.317   7.737   7.254 -3.3079  1.5892  1.1628
  136MOL0     H18350   0.298   7.924   7.125  1.6580 -0.3329 -3.0416
  136MOL0     H18351   0.444   7.845   7.093 -2.7174 -1.6139 -1.3295
  136MOL0     H18352   0.586   8.013   7.162  0.4329  2.1279  0.5486
  136MOL0     H18353   0.482   8.048   7.303 -3.1370 -0.5684  0.3663
  136MOL0     H18354   0.528   8.232   7.139 -2.7928  1.4296  2.6201
  136MOL0     H18355   0.444   8.136   7.018  0.5613 -1.0078  0.8856
  136MOL0     H18356   0.112   8.206   7.277  1.3144  0.7242  1.7091
  136MOL0     H18357   0.676   7.787   7.531 -0.3065  0.8281  0.7849
  136MOL0     H18358   0.743   7.611   7.836  2.0667  1.4546  0.4702
  136MOL0     H18359   0.791   7.728   7.707 -0.1441  3.2855  0.4434
  136MOL0     H18360   0.680   7.779   7.838 -1.3726 -1.3391  0.1727
  137MOL0     O18361   1.870   4.206  10.461 -0.1978  0.0267 -0.3601
  137MOL0     C18362   1.768   4.166  10.513 -0.0607 -0.6994  1.0309
  137MOL0     O18363   1.725   4.044  10.495 -0.0453  0.9109 -0.0231
  137MOL0     C18364   1.744   3.979  10.375 -0.2560 -0.1278  0.3020
  137MOL0     C18365   1.767   4.047  10.248  0.7788  0.2160 -0.2149
  137MOL0     C18366   1.743   3.971  10.129 -0.3030 -0.0399 -0.3878
  137MOL0     C18367   1.710   3.829  10.130  0.3389 -0.3369 -0.7794
  137MOL0     O18368   1.677   3.768  10.017 -0.3119 -0.4992 -0.4396
  137MOL0     C18369   1.760   3.659   9.977  0.3929  0.2485 -0.5420
  137MOL0     C18370   1.769   3.639   9.828 -1.0703  0.1675 -0.8092
  137MOL0     C18371   1.663   3.546   9.777  0.1269 -0.7378  0.2549
  137MOL0     C18372   1.681   3.529   9.629 -0.5822 -0.4332 -1.0497
  137MOL0     C18373   1.560   3.463   9.571 -0.9604 -0.6825 -0.2811
  137MOL0     C18374   1.585   3.380   9.436  0.7612 -0.7273 -0.2178
  137MOL0     C18375   1.455   3.301   9.412 -0.5925  0.1419 -0.3143
  137MOL0     C18376   1.436   3.176   9.507  0.1874  0.0983 -1.1443
  137MOL0     N18377   1.502   3.056   9.458  0.4162 -0.3302 -0.7297
  137MOL0     C18378   1.608   2.991   9.516  0.5194 -0.3038 -0.2827
  137MOL0     C18379   1.594   2.858   9.485 -0.2767 -0.7427 -0.8107
  137MOL0     C18380   1.682   2.758   9.552 -0.6909 -0.4318  0.3193
  137MOL0     C18381   1.761   2.681   9.437  0.1147  0.3529  1.2729
  137MOL0     C18382   1.809   2.549   9.492 -0.2990 -1.0259 -0.8669
  137MOL0     C18383   1.913   2.470   9.418  0.9576 -0.5098 -0.3242
  137MOL0     O18384   1.831   2.400   9.324 -0.7296 -1.1393  0.5131
  137MOL0     C18385   1.785   2.275   9.364 -0.5234  0.4804 -0.3260
  137MOL0     C18386   1.647   2.256   9.356 -0.3380 -0.4370  0.5062
  137MOL0     C18387   1.589   2.135   9.395  0.1248  0.4561 -0.7946
  137MOL0     C18388   1.670   2.032   9.443 -0.0369  0.7136 -0.6926
  137MOL0     C18389   1.620   1.904   9.494  0.5056 -0.4361 -0.0199
  137MOL0     O18390   1.708   1.812   9.549  0.6014  0.3206  0.6241
  137MOL0     C18391   1.660   1.733   9.646 -0.0117 -0.0931 -0.3031
  137MOL0     C18392   1.651   1.773   9.776  1.0566 -0.1003  0.2895
  137MOL0     C18393   1.603   1.685   9.875  0.4599  0.3267 -0.0488
  137MOL0     C18394   1.566   1.558   9.843  0.9618  1.1706  0.2723
  137MOL0     O18395   1.530   1.461   9.930  0.5532 -0.0004  0.4951
  137MOL0     C18396   1.560   1.468  10.067 -0.4039 -0.5222 -0.6005
  137MOL0     C18397   1.699   1.403  10.082  0.3561 -0.8037  0.3698
  137MOL0     C18398   1.707   1.253  10.040  0.3101  0.6771 -0.8524
  137MOL0     C18399   1.845   1.197  10.060  0.1461  0.1119 -0.1897
  137MOL0     C18400   1.863   1.078   9.961 -0.2389  0.4134 -0.0865
  137MOL0     C18401   1.975   0.977  10.007  0.7206 -0.4446 -0.4024
  137MOL0     C18402   1.957   0.857   9.925 -0.1721 -0.2362 -0.1609
  137MOL0     C18403   2.036   0.880   9.791 -1.4759 -0.3019 -0.2027
  137MOL0    Cl18404   2.213   0.849   9.783  0.5877  0.3296  0.5928
  137MOL0     C18405   1.588   1.515   9.712  0.1254 -0.5095 -0.3166
  137MOL0     C18406   1.634   1.596   9.612  0.1561  0.0741  1.1356
  137MOL0     O18407   1.496   1.896   9.494  0.0393 -0.3598 -0.7825
  137MOL0     C18408   1.809   2.046   9.442 -0.0800 -0.9188 -0.3176
  137MOL0     C18409   1.861   2.169   9.415  0.2030  0.5049 -0.9810
  137MOL0     N18410   1.479   2.845   9.408  0.5025 -0.0943 -0.0779
  137MOL0     N18411   1.428   2.964   9.396 -0.2566 -0.4668  0.9203
  137MOL0     C18412   1.718   3.766  10.260 -0.0466  0.3492  0.4043
  137MOL0     C18413   1.729   3.839  10.375  0.3743  0.1863 -1.4258
  137MOL0     C18414   1.684   4.251  10.601 -0.1143 -0.3880  0.1298
  137MOL0     C18415   1.568   4.190  10.643  0.2068 -1.1522 -0.4942
  137MOL0     C18416   1.496   4.241  10.754  0.7080 -0.4158  0.7060
  137MOL0     C18417   1.522   4.358  10.800 -1.2998  0.6044 -0.4006
  137MOL0     O18418   1.435   4.413  10.889  0.4099 -0.9159 -0.8940
  137MOL0     C18419   1.359   4.536  10.858  0.3627  1.3304 -0.6558
  137MOL0     C18420   1.310   4.609  10.982  0.1998  0.7012 -0.4527
  137MOL0     C18421   1.416   4.669  11.072  0.4552  0.0823  0.3347
  137MOL0     C18422   1.357   4.774  11.165  1.1347  0.8099 -0.3433
  137MOL0     C18423   1.280   4.705  11.276  0.9188 -0.2227  0.3571
  137MOL0     C18424   1.223   4.648  11.374 -0.3719 -0.3193 -0.0826
  137MOL0     C18425   1.634   4.428  10.755 -0.3779  0.0556  0.5751
  137MOL0     C18426   1.721   4.371  10.669  0.5277 -0.3711 -0.2117
  137MOL0     C18427   1.843   4.446  10.634  0.3164 -0.4677  0.5075
  137MOL0     H18428   1.784   4.154  10.242 -5.2319  1.9224  3.5322
  137MOL0     H18429   1.747   4.015  10.030 -3.2953  0.1245 -0.5261
  137MOL0     H18430   1.860   3.670  10.021 -0.2369  1.9172  0.5932
  137MOL0     H18431   1.721   3.575  10.035  2.5859  2.2744  4.4189
  137MOL0     H18432   1.871   3.605   9.806 -1.1743  0.5805 -2.0382
  137MOL0     H18433   1.767   3.739   9.783  0.5170  0.8158  0.4506
  137MOL0     H18434   1.574   3.607   9.794 -0.1515 -1.2610  0.6944
  137MOL0     H18435   1.659   3.449   9.826 -0.3675 -1.6930 -1.6024
  137MOL0     H18436   1.688   3.629   9.584  0.5306 -0.5928 -1.2558
  137MOL0     H18437   1.774   3.474   9.611 -0.7234 -0.0107 -3.2324
  137MOL0     H18438   1.522   3.395   9.649  3.9231 -0.6780  2.4922
  137MOL0     H18439   1.484   3.540   9.553 -0.7855 -0.5174 -0.3039
  137MOL0     H18440   1.602   3.456   9.359 -0.7759 -2.4528 -2.3827
  137MOL0     H18441   1.677   3.322   9.446  1.4290  0.0607 -1.3947
  137MOL0     H18442   1.446   3.280   9.305 -0.3853 -0.1640 -0.2729
  137MOL0     H18443   1.376   3.369   9.446  0.1222 -0.1127  2.0487
  137MOL0     H18444   1.473   3.196   9.608 -0.4887 -0.8445 -0.7008
  137MOL0     H18445   1.331   3.150   9.517  0.4039 -2.0990 -3.3610
  137MOL0     H18446   1.684   3.033   9.581 -1.3114  0.7525  1.2737
  137MOL0     H18447   1.746   2.792   9.634 -0.4894 -1.8073  0.7675
  137MOL0     H18448   1.613   2.691   9.603 -0.1598 -1.0816  0.2079
  137MOL0     H18449   1.707   2.661   9.343  1.7996 -4.1912  1.0305
  137MOL0     H18450   1.850   2.734   9.402  1.4043 -1.5478  1.5517
  137MOL0     H18451   1.718   2.492   9.510 -0.2393 -1.0565 -0.6543
  137MOL0     H18452   1.846   2.577   9.591  0.1804 -4.4428  0.0418
  137MOL0     H18453   1.973   2.416   9.492  0.5190  0.0723  0.4691
  137MOL0     H18454   1.984   2.523   9.353 -1.3282  1.8140 -1.1053
  137MOL0     H18455   1.582   2.337   9.323 -2.6266 -1.1260  2.9204
  137MOL0     H18456   1.482   2.118   9.388  0.5604 -3.6374  0.0330
  137MOL0     H18457   1.682   1.876   9.794 -0.6012  0.4147  0.3691
  137MOL0     H18458   1.593   1.719   9.977  1.2036  0.6730 -0.0795
  137MOL0     H18459   1.551   1.570  10.105  0.9723 -1.3123  2.1451
  137MOL0     H18460   1.487   1.420  10.132 -0.7063 -0.9678 -1.2571
  137MOL0     H18461   1.755   1.458  10.006 -0.0857  0.0563  0.6623
  137MOL0     H18462   1.731   1.412  10.186 -1.5384 -0.8511  0.9997
  137MOL0     H18463   1.627   1.215  10.105 -1.1547  0.4772 -2.6917
  137MOL0     H18464   1.667   1.233   9.940  0.0554 -1.8391 -0.3263
  137MOL0     H18465   1.855   1.165  10.165  1.8401  1.8741  0.2385
  137MOL0     H18466   1.925   1.268  10.040  2.2176 -1.9989  0.1501
  137MOL0     H18467   1.876   1.116   9.859  2.3376 -2.1732 -0.8440
  137MOL0     H18468   1.769   1.022   9.965  0.1008 -0.1862 -0.4036
  137MOL0     H18469   2.070   1.031   9.996 -0.3154  2.1264  1.9629
  137MOL0     H18470   1.964   0.948  10.111 -2.8135 -0.0351 -0.5629
  137MOL0     H18471   1.852   0.825   9.925 -0.6636  1.1126 -2.5956
  137MOL0     H18472   2.004   0.779   9.986 -1.3644 -1.5086 -0.7922
  137MOL0     H18473   2.004   0.798   9.726  1.4522 -1.3346 -0.4936
  137MOL0     H18474   2.019   0.974   9.737 -0.4332  0.1965  0.2968
  137MOL0     H18475   1.574   1.409   9.693  0.0476 -0.6002  0.2145
  137MOL0     H18476   1.648   1.550   9.515  2.5875 -1.8498  2.2831
  137MOL0     H18477   1.878   1.968   9.471 -2.1899 -2.5684  0.5666
  137MOL0     H18478   1.961   2.207   9.428 -0.6256  2.5454 -0.1328
  137MOL0     H18479   1.717   3.657  10.261 -4.2549  0.1415 -1.7219
  137MOL0     H18480   1.708   3.795  10.472 -1.5369  0.4666 -1.6608
  137MOL0     H18481   1.521   4.102  10.601  1.0110 -1.2432 -1.2243
  137MOL0     H18482   1.411   4.184  10.792  1.2483 -0.7172  1.4979
  137MOL0     H18483   1.267   4.514  10.804  0.0549 -0.9978  0.6772
  137MOL0     H18484   1.417   4.609  10.801 -1.1632  2.3127 -1.0302
  137MOL0     H18485   1.237   4.545  11.033 -0.3201 -1.3235 -3.4541
  137MOL0     H18486   1.250   4.693  10.944 -0.3620 -0.0992 -1.3898
  137MOL0     H18487   1.501   4.708  11.016 -0.6986 -1.7133 -3.0035
  137MOL0     H18488   1.460   4.588  11.130 -1.6987 -3.3715 -2.3706
  137MOL0     H18489   1.440   4.830  11.210 -0.5073  1.5977  1.9040
  137MOL0     H18490   1.290   4.839  11.108  0.5167  0.0515 -0.4997
  137MOL0     H18491   1.160   4.597  11.443 -4.6336  3.1705 -0.9076
  137MOL0     H18492   1.653   4.517  10.813  2.5455 -0.7740  1.0587
  137MOL0     H18493   1.927   4.392  10.678 -0.5830 -0.6722  2.0463
  137MOL0     H18494   1.845   4.458  10.525 -2.8948 -1.1211  0.2975
  137MOL0     H18495   1.844   4.547  10.678 -0.4360 -0.5416  0.7038
  138MOL0     O18496   1.466   9.996   7.294  0.6740 -0.0932 -0.0996
  138MOL0     C18497   1.380  10.017   7.206 -0.2988 -0.4683  0.8206
  138MOL0     O18498   1.381  10.129   7.119 -0.1016  0.1871 -0.2466
  138MOL0     C18499   1.470  10.227   7.143 -0.1447 -1.0197 -0.2885
  138MOL0     C18500   1.609  10.220   7.126 -0.3173 -0.0340  0.4657
  138MOL0     C18501   1.692  10.323   7.159 -0.1586 -0.8559 -0.4349
  138MOL0     C18502   1.647  10.444   7.195 -1.0970 -0.2818 -0.7646
  138MOL0     O18503   1.742  10.527   7.247 -0.7209 -0.4895 -0.8803
  138MOL0     C18504   1.715  10.625   7.355  0.3202  0.2909  0.2626
  138MOL0     C18505   1.831  10.705   7.383 -1.5058  0.6372 -0.0111
  138MOL0     C18506   1.845  10.829   7.288 -0.1801  0.4088  0.2881
  138MOL0     C18507   1.931  10.938   7.355  0.2518  0.1561 -0.2457
  138MOL0     C18508   1.944  11.057   7.272 -0.4541  0.4987  0.9925
  138MOL0     C18509   2.035  11.155   7.349  0.2686  0.6609  0.4572
  138MOL0     C18510   2.045  11.268   7.258  0.4316  0.0264 -0.2824
  138MOL0     C18511   2.083  11.400   7.325 -0.2822  1.4505  0.2645
  138MOL0     N18512   2.135  11.498   7.232 -0.2121 -0.7012 -0.3364
  138MOL0     C18513   2.060  11.549   7.131  0.7970 -0.9450  0.4710
  138MOL0     C18514   2.155  11.611   7.051  1.0690 -0.3205  0.4023
  138MOL0     C18515   2.131  11.676   6.914 -1.2888  0.1100  0.4200
  138MOL0     C18516   2.046  11.794   6.927  0.7061 -0.4744 -0.9910
  138MOL0     C18517   2.097  11.920   6.994  0.0235  0.0258  0.8976
  138MOL0     C18518   2.001  12.035   6.989 -1.1853 -0.3092 -0.2645
  138MOL0     O18519   1.973  12.087   6.867  0.0973 -0.7596 -0.6179
  138MOL0     C18520   1.852  12.138   6.863  0.7812 -0.2320 -0.4584
  138MOL0     C18521   1.757  12.091   6.782  0.2565  0.7527  0.8536
  138MOL0     C18522   1.641  12.156   6.771  0.3433  0.0719  0.8353
  138MOL0     C18523   1.622  12.280   6.836  0.9455  0.2666 -0.0028
  138MOL0     C18524   1.501  12.356   6.814  0.0424  1.0068  0.0787
  138MOL0     O18525   1.392  12.283   6.774  0.0357 -0.0660  0.1570
  138MOL0     C18526   1.271  12.343   6.764  1.3475  0.2743  0.2074
  138MOL0     C18527   1.163  12.275   6.821  0.2026 -0.1934  0.1591
  138MOL0     C18528   1.030  12.322   6.791  0.0489  0.2371 -0.3943
  138MOL0     C18529   1.009  12.434   6.715  0.2343  0.1391  0.4708
  138MOL0     O18530   0.880  12.466   6.692  0.0168  0.7705 -0.2564
  138MOL0     C18531   0.791  12.483   6.805  0.3919 -0.5416 -0.0115
  138MOL0     C18532   0.664  12.400   6.774  0.6549  0.1183 -0.4683
  138MOL0     C18533   0.560  12.485   6.696  0.4609  0.4148  0.5277
  138MOL0     C18534   0.449  12.388   6.647 -0.0634  0.4811 -1.0661
  138MOL0     C18535   0.355  12.447   6.543  0.9285  0.5974  0.2444
  138MOL0     C18536   0.271  12.573   6.586  1.4478 -0.1143 -0.7315
  138MOL0     C18537   0.189  12.554   6.719  0.9900 -0.2266  0.4160
  138MOL0     C18538   0.097  12.677   6.746  0.0138  0.7972  1.5931
  138MOL0    Cl18539  -0.072  12.678   6.662  0.7425 -0.3820  0.2365
  138MOL0     C18540   1.115  12.509   6.662  0.1969  0.3266 -1.0086
  138MOL0     C18541   1.243  12.462   6.689 -0.3627  0.9522  0.3458
  138MOL0     O18542   1.508  12.477   6.831 -0.1718  0.2797  0.1456
  138MOL0     C18543   1.724  12.330   6.910 -1.5346 -0.4142  0.6825
  138MOL0     C18544   1.838  12.259   6.934 -0.6145  0.2161 -0.1427
  138MOL0     N18545   2.275  11.602   7.111 -0.0826  0.0606 -0.2086
  138MOL0     N18546   2.266  11.528   7.216 -0.4164  0.1007 -0.3370
  138MOL0     C18547   1.507  10.466   7.206 -0.1846 -1.0815  0.2864
  138MOL0     C18548   1.425  10.354   7.179 -0.1310  0.2758  0.0064
  138MOL0     C18549   1.268   9.927   7.210 -0.3436  1.2207  0.2662
  138MOL0     C18550   1.271   9.832   7.311  0.5490  0.1989 -0.0193
  138MOL0     C18551   1.176   9.732   7.313  1.1070  0.4254 -0.8041
  138MOL0     C18552   1.069   9.722   7.221  0.4585  0.4603 -0.2582
  138MOL0     O18553   0.965   9.627   7.220  0.4457  0.0869 -0.3669
  138MOL0     C18554   0.914   9.583   7.346 -0.5095 -0.6591 -0.6192
  138MOL0     C18555   0.803   9.486   7.318 -0.0565 -0.8650  0.0326
  138MOL0     C18556   0.734   9.440   7.451 -0.8098  0.4015  0.5430
  138MOL0     C18557   0.607   9.377   7.418 -0.3160  0.0935  0.9411
  138MOL0     C18558   0.504   9.466   7.381  1.0608  1.2706  1.2631
  138MOL0     C18559   0.429   9.552   7.335  0.1319  0.5098 -0.5831
  138MOL0     C18560   1.070   9.819   7.111  0.0619  0.7294  0.0742
  138MOL0     C18561   1.170   9.917   7.103  0.5133 -1.1940  0.3105
  138MOL0     C18562   1.171  10.000   6.979  0.0021 -0.2328 -0.3008
  138MOL0     H18563   1.659  10.132   7.087  0.8021  0.5054  0.6556
  138MOL0     H18564   1.798  10.300   7.173 -0.9918 -4.5596  0.8551
  138MOL0     H18565   1.633  10.695   7.338 -0.9151 -1.5286 -1.7670
  138MOL0     H18566   1.678  10.572   7.443 -0.4257 -1.4511 -1.0463
  138MOL0     H18567   1.925  10.651   7.365 -1.7697  0.8119 -2.1634
  138MOL0     H18568   1.829  10.730   7.489 -0.9743  1.8356 -0.2643
  138MOL0     H18569   1.747  10.874   7.267 -0.2312  1.2081  2.0335
  138MOL0     H18570   1.887  10.793   7.194 -1.2254 -0.9781  0.3149
  138MOL0     H18571   1.878  10.951   7.450  0.7627 -5.6571  1.2644
  138MOL0     H18572   2.032  10.897   7.367 -0.1475 -0.4302  1.3313
  138MOL0     H18573   1.987  11.015   7.180 -0.0157 -2.7960  2.5630
  138MOL0     H18574   1.846  11.100   7.248  1.0413  1.9570 -3.7644
  138MOL0     H18575   1.991  11.173   7.447 -0.7698 -2.8743  0.7880
  138MOL0     H18576   2.132  11.104   7.352 -0.9883 -2.1430 -1.6165
  138MOL0     H18577   1.946  11.278   7.212 -0.3253 -3.0503  0.4687
  138MOL0     H18578   2.120  11.234   7.186  2.4268 -0.4440  1.8870
  138MOL0     H18579   1.997  11.439   7.381 -0.0845  1.4978  0.5396
  138MOL0     H18580   2.162  11.388   7.399  1.7605  1.5685 -1.8055
  138MOL0     H18581   1.953  11.540   7.114  0.7172 -0.4843  0.7019
  138MOL0     H18582   2.227  11.707   6.872 -0.5922 -1.6216  0.6726
  138MOL0     H18583   2.084  11.606   6.844  0.5328 -0.5309 -0.2240
  138MOL0     H18584   2.007  11.830   6.831 -0.0129 -0.8260 -0.8335
  138MOL0     H18585   1.960  11.764   6.987  1.1536  0.6408  0.2627
  138MOL0     H18586   2.184  11.953   6.937 -1.9446  0.1733 -2.2851
  138MOL0     H18587   2.116  11.900   7.100 -2.3473 -3.2669  0.8726
  138MOL0     H18588   2.069  12.111   7.028 -0.9503 -0.5853 -0.1372
  138MOL0     H18589   1.906  12.018   7.040 -1.5288  2.5521  0.2091
  138MOL0     H18590   1.774  11.996   6.731  2.4212  3.3702 -4.0377
  138MOL0     H18591   1.564  12.109   6.711  0.0230  3.6895 -1.9399
  138MOL0     H18592   1.196  12.188   6.876  2.2782  0.7692  0.5414
  138MOL0     H18593   0.941  12.269   6.825  0.7358 -1.0693 -0.5746
  138MOL0     H18594   0.845  12.452   6.896  2.5817  0.2689 -0.9501
  138MOL0     H18595   0.761  12.587   6.815 -0.5257 -0.6280 -1.6037
  138MOL0     H18596   0.699  12.316   6.714  2.1976  0.6807 -0.3990
  138MOL0     H18597   0.625  12.362   6.869  2.5991 -2.5571 -0.6323
  138MOL0     H18598   0.511  12.560   6.760  1.6790  2.5617 -0.9235
  138MOL0     H18599   0.601  12.531   6.606 -0.1373 -1.8779 -1.0002
  138MOL0     H18600   0.396  12.357   6.737  1.6322  1.2939  0.2720
  138MOL0     H18601   0.483  12.296   6.601 -1.8861 -0.8280  0.0712
  138MOL0     H18602   0.293  12.358   6.526  0.1152  0.7512  2.1276
  138MOL0     H18603   0.416  12.473   6.456  1.8261 -0.5167  0.5171
  138MOL0     H18604   0.348  12.651   6.587  1.4626 -0.1314 -0.4858
  138MOL0     H18605   0.195  12.601   6.512 -1.6844  1.6767  2.8120
  138MOL0     H18606   0.273  12.558   6.789  0.0604  0.9162  1.5370
  138MOL0     H18607   0.141  12.459   6.745 -1.8493  1.0827  0.3819
  138MOL0     H18608   0.076  12.680   6.853  2.2148 -0.7714  2.1466
  138MOL0     H18609   0.153  12.763   6.709 -0.9892 -0.5579 -4.1837
  138MOL0     H18610   1.108  12.602   6.606  0.3872  2.0517  1.6348
  138MOL0     H18611   1.316  12.525   6.638 -1.3863 -0.2578 -2.9173
  138MOL0     H18612   1.702  12.422   6.964 -2.0140  0.6571 -1.2128
  138MOL0     H18613   1.915  12.298   7.001 -1.4318 -1.4427  1.8556
  138MOL0     H18614   1.476  10.567   7.232  2.2931 -0.2132  0.1805
  138MOL0     H18615   1.317  10.363   7.187 -0.3300 -2.0590  0.4748
  138MOL0     H18616   1.340   9.833   7.395  1.2915  1.8183 -0.6115
  138MOL0     H18617   1.181   9.657   7.391  0.7796  1.6000  0.3683
  138MOL0     H18618   0.862   9.671   7.387  0.0663 -0.4158 -0.4126
  138MOL0     H18619   1.000   9.550   7.404  0.2974  1.0505 -0.7868
  138MOL0     H18620   0.843   9.399   7.264  1.4584  0.0568 -0.3833
  138MOL0     H18621   0.727   9.527   7.251 -0.9326 -1.6565  0.5145
  138MOL0     H18622   0.720   9.522   7.521  0.1585  0.8360  0.2332
  138MOL0     H18623   0.803   9.372   7.501  0.7604  0.3683 -1.5413
  138MOL0     H18624   0.630   9.311   7.335  0.6394 -0.3098  1.5055
  138MOL0     H18625   0.583   9.295   7.487  2.1708 -1.9195 -0.3849
  138MOL0     H18626   0.359   9.625   7.298 -0.0763  0.9126  0.5614
  138MOL0     H18627   0.990   9.803   7.040  2.4056 -3.9795 -2.0114
  138MOL0     H18628   1.163  10.106   7.004 -0.8298  0.4307 -2.9857
  138MOL0     H18629   1.261   9.974   6.922 -0.2228 -0.8480 -0.3879
  138MOL0     H18630   1.085   9.973   6.916  0.1007 -2.4391  0.4356
  139MOL0     O18631   1.722   8.636  10.618 -0.2126  0.1681  0.3365
  139MOL0     C18632   1.794   8.543  10.584  0.2870 -0.3126 -0.2798
  139MOL0     O18633   1.752   8.429  10.515 -0.7313  0.2582 -0.1321
  139MOL0     C18634   1.624   8.428  10.464 -0.3506 -0.3291 -0.0391
  139MOL0     C18635   1.575   8.526  10.373  0.3707 -0.8307 -0.0602
  139MOL0     C18636   1.447   8.497  10.317 -0.3313 -0.1758  0.4282
  139MOL0     C18637   1.363   8.393  10.372  0.0241 -0.2227 -0.0166
  139MOL0     O18638   1.230   8.369  10.322 -0.5529  0.0477 -0.1428
  139MOL0     C18639   1.188   8.447  10.216 -0.2169  0.3923  0.0365
  139MOL0     C18640   1.064   8.386  10.159  0.7262  0.9739  0.4497
  139MOL0     C18641   1.088   8.246  10.078  0.4038 -0.2744  1.0030
  139MOL0     C18642   0.961   8.191   9.990 -0.0534  0.5758  0.0936
  139MOL0     C18643   1.026   8.065   9.921  0.9488 -0.4203  0.7077
  139MOL0     C18644   0.929   7.994   9.834  0.7225 -0.3460  0.9093
  139MOL0     C18645   0.998   7.878   9.762  0.9313 -0.9114 -0.4363
  139MOL0     C18646   0.898   7.815   9.669  0.2187 -1.1069 -0.0736
  139MOL0     N18647   0.952   7.698   9.601 -0.6251 -0.1752 -0.4176
  139MOL0     C18648   1.029   7.703   9.492 -0.3431 -0.2049  1.6169
  139MOL0     C18649   1.052   7.571   9.458  0.4859 -0.0177 -0.2863
  139MOL0     C18650   1.141   7.525   9.345  0.9837 -0.1806 -0.8424
  139MOL0     C18651   1.057   7.423   9.259  0.1851  0.3672 -0.7009
  139MOL0     C18652   1.036   7.284   9.315  0.6724 -0.8780  0.3763
  139MOL0     C18653   0.991   7.198   9.196 -0.8255  0.4425 -0.1775
  139MOL0     O18654   1.082   7.186   9.082 -0.1456  0.4594 -0.5900
  139MOL0     C18655   1.028   7.137   8.958 -0.7045 -0.3906  0.5552
  139MOL0     C18656   1.130   7.115   8.858 -0.1469 -0.8296  0.5459
  139MOL0     C18657   1.096   7.062   8.737  0.0737  0.0453  0.8967
  139MOL0     C18658   0.961   7.037   8.704  0.0904 -0.7011 -0.1354
  139MOL0     C18659   0.916   6.996   8.576 -0.1960 -0.7964  0.2233
  139MOL0     O18660   0.792   7.040   8.541  0.3258  0.2452 -0.0731
  139MOL0     C18661   0.748   6.994   8.418 -0.1369 -0.2207  0.0781
  139MOL0     C18662   0.699   6.868   8.385  0.5417 -0.3325 -0.4478
  139MOL0     C18663   0.661   6.835   8.254 -0.1875  0.8133 -0.9090
  139MOL0     C18664   0.684   6.917   8.142 -0.0394 -0.0529  0.0569
  139MOL0     O18665   0.647   6.898   8.012 -0.3290  0.7196 -0.0321
  139MOL0     C18666   0.546   6.796   7.996 -0.3782 -0.1212  0.0681
  139MOL0     C18667   0.509   6.779   7.849 -0.0446  0.2899  0.9664
  139MOL0     C18668   0.416   6.665   7.825 -0.3971  0.2827 -0.4568
  139MOL0     C18669   0.423   6.625   7.677  0.8100  0.1351 -0.0966
  139MOL0     C18670   0.347   6.494   7.653 -0.3101  0.3140  0.3888
  139MOL0     C18671   0.301   6.483   7.511  0.0317 -0.5386  0.0572
  139MOL0     C18672   0.408   6.481   7.407 -0.0711 -1.1735  0.6949
  139MOL0     C18673   0.336   6.450   7.276 -0.4456 -0.1833 -0.7132
  139MOL0    Cl18674   0.306   6.278   7.282  0.4368  0.5677  0.2056
  139MOL0     C18675   0.744   7.039   8.169  0.2867 -0.8498 -0.5099
  139MOL0     C18676   0.771   7.074   8.303 -0.5477  0.7188 -0.0188
  139MOL0     O18677   0.998   6.929   8.501  0.5011  0.1550 -0.2197
  139MOL0     C18678   0.861   7.054   8.805  0.1552 -0.3781 -0.7375
  139MOL0     C18679   0.899   7.097   8.935  0.9954 -0.6720 -0.4459
  139MOL0     N18680   0.970   7.498   9.538 -0.0206  0.0798  0.7637
  139MOL0     N18681   0.915   7.567   9.631  0.1445  0.5474  1.1174
  139MOL0     C18682   1.418   8.301  10.467  0.2678 -1.2443  0.0806
  139MOL0     C18683   1.547   8.327  10.514  0.0732  0.4824  0.5514
  139MOL0     C18684   1.937   8.551  10.641  1.0145 -0.0719 -0.7998
  139MOL0     C18685   1.972   8.656  10.724  1.1838 -0.0075  0.2909
  139MOL0     C18686   2.105   8.679  10.752  0.8305 -0.0961 -0.6536
  139MOL0     C18687   2.201   8.582  10.722  0.5443 -0.3433 -0.5436
  139MOL0     O18688   2.333   8.581  10.768 -0.4262 -0.8573 -0.4529
  139MOL0     C18689   2.378   8.689  10.858  0.5412  0.0502  0.2374
  139MOL0     C18690   2.524   8.670  10.907 -0.5032  0.5700 -0.0949
  139MOL0     C18691   2.632   8.692  10.790 -1.3449  0.0972 -0.7786
  139MOL0     C18692   2.596   8.787  10.678 -0.6453 -0.2739  0.1028
  139MOL0     C18693   2.715   8.820  10.606  0.7469  0.3142  0.3639
  139MOL0     C18694   2.825   8.821  10.546 -0.2668 -0.1649  0.3137
  139MOL0     C18695   2.164   8.478  10.649 -1.1458 -0.2662 -0.2687
  139MOL0     C18696   2.037   8.460  10.601  0.2176  0.7441 -0.0290
  139MOL0     C18697   2.028   8.354  10.496 -0.5094 -0.4465 -0.7801
  139MOL0     H18698   1.631   8.612  10.338 -1.7852  1.5644  1.9173
  139MOL0     H18699   1.406   8.559  10.238 -0.3452  0.2298  0.7521
  139MOL0     H18700   1.168   8.553  10.235  1.1514  0.9827 -1.6263
  139MOL0     H18701   1.256   8.455  10.130 -0.8311  1.9670 -0.3413
  139MOL0     H18702   1.011   8.450  10.088 -0.3347 -0.9756 -0.6006
  139MOL0     H18703   1.003   8.371  10.248 -0.2790  0.3867 -0.3199
  139MOL0     H18704   1.120   8.170  10.150  2.1411 -0.2268  0.3079
  139MOL0     H18705   1.168   8.250  10.004 -1.3412 -0.4725 -0.9787
  139MOL0     H18706   0.881   8.158  10.056 -0.3239  1.1313  0.0448
  139MOL0     H18707   0.926   8.269   9.922 -1.5310  1.2646  1.5706
  139MOL0     H18708   1.103   8.103   9.853  0.5738  0.1966  0.6120
  139MOL0     H18709   1.070   8.003   9.999 -0.5218 -3.7786 -0.9632
  139MOL0     H18710   0.851   7.958   9.902  1.0642 -1.0590  0.9279
  139MOL0     H18711   0.884   8.054   9.754  5.8769 -1.4377 -3.4240
  139MOL0     H18712   1.040   7.819   9.844  1.4205  1.6860  1.2752
  139MOL0     H18713   1.091   7.903   9.712  1.1477 -1.1490 -0.1590
  139MOL0     H18714   0.816   7.774   9.728  0.7424  2.0484  3.2385
  139MOL0     H18715   0.847   7.895   9.614  1.5238 -1.6885 -2.2345
  139MOL0     H18716   1.069   7.786   9.435 -1.2615 -1.7869 -1.5670
  139MOL0     H18717   1.161   7.610   9.279 -1.1963  2.5208  1.6268
  139MOL0     H18718   1.229   7.482   9.393  0.8751 -1.1953 -1.5480
  139MOL0     H18719   0.958   7.456   9.226  1.0700  0.6638 -3.3211
  139MOL0     H18720   1.116   7.415   9.167  0.4768  1.9238 -0.6834
  139MOL0     H18721   0.951   7.277   9.383 -1.3149  0.8566 -1.7292
  139MOL0     H18722   1.128   7.247   9.361  1.9030  2.0410  0.4501
  139MOL0     H18723   0.892   7.230   9.161 -0.8799 -1.1495 -1.5771
  139MOL0     H18724   0.965   7.102   9.241 -0.3112  0.9697  1.3130
  139MOL0     H18725   1.236   7.129   8.874 -0.3834  0.3626  1.1330
  139MOL0     H18726   1.165   7.060   8.653  0.1212  1.3571  0.8792
  139MOL0     H18727   0.674   6.791   8.457 -1.0461  2.0974  1.7813
  139MOL0     H18728   0.610   6.741   8.237  1.1713 -0.1437  0.0517
  139MOL0     H18729   0.565   6.696   8.037  0.4130 -0.2249 -0.5282
  139MOL0     H18730   0.461   6.836   8.052  2.2735  0.3185  4.1722
  139MOL0     H18731   0.470   6.873   7.806  1.7578  1.0636  0.9577
  139MOL0     H18732   0.599   6.768   7.789 -2.2091 -2.2033 -2.1684
  139MOL0     H18733   0.437   6.577   7.887  0.4044 -0.1423 -1.2984
  139MOL0     H18734   0.316   6.709   7.828  0.6446  2.9119 -1.1585
  139MOL0     H18735   0.524   6.619   7.635 -0.2709 -2.5250 -2.6280
  139MOL0     H18736   0.377   6.711   7.627 -2.7560 -1.4303  0.2044
  139MOL0     H18737   0.259   6.494   7.717 -0.5080 -1.9420  0.2008
  139MOL0     H18738   0.408   6.406   7.672  0.0522  0.3972 -0.3278
  139MOL0     H18739   0.250   6.386   7.507 -1.3507  0.1535 -0.0013
  139MOL0     H18740   0.215   6.547   7.487  0.8060 -0.1134 -1.6964
  139MOL0     H18741   0.480   6.402   7.431  0.8831 -0.3748  0.5192
  139MOL0     H18742   0.462   6.576   7.405 -1.0040 -0.6368 -0.1614
  139MOL0     H18743   0.253   6.520   7.262  0.2193  0.8948  0.4788
  139MOL0     H18744   0.404   6.470   7.193  0.0506 -2.2478 -0.8681
  139MOL0     H18745   0.743   7.111   8.088  1.6523  0.0828  0.2529
  139MOL0     H18746   0.808   7.175   8.317 -0.9467  0.7301  1.0503
  139MOL0     H18747   0.756   7.034   8.783 -0.1452 -1.2806  1.3526
  139MOL0     H18748   0.822   7.093   9.011 -0.7925  1.9325 -1.9433
  139MOL0     H18749   1.365   8.212  10.497 -0.0735 -0.3201  2.4405
  139MOL0     H18750   1.591   8.261  10.587  1.7634 -0.2101 -0.9993
  139MOL0     H18751   1.895   8.722  10.761  1.1346 -0.4794  1.0434
  139MOL0     H18752   2.135   8.778  10.785 -0.8101  0.6031 -1.1715
  139MOL0     H18753   2.309   8.697  10.942  2.6172  0.5646  1.9876
  139MOL0     H18754   2.377   8.781  10.799  0.3475 -0.0300  0.1160
  139MOL0     H18755   2.530   8.569  10.947  1.3653  0.0964 -1.4199
  139MOL0     H18756   2.549   8.733  10.993  1.7132 -1.9383  1.2229
  139MOL0     H18757   2.665   8.592  10.759  2.7782  0.6344  1.2464
  139MOL0     H18758   2.716   8.735  10.844 -0.9977 -1.3708 -0.1057
  139MOL0     H18759   2.524   8.737  10.613 -1.7105  0.4734  0.6699
  139MOL0     H18760   2.558   8.884  10.713  1.3590  0.3974  0.5537
  139MOL0     H18761   2.918   8.814  10.495  0.5349  0.6170  1.6105
  139MOL0     H18762   2.249   8.414  10.627  0.0518  1.2060 -0.1530
  139MOL0     H18763   2.126   8.316  10.465  0.2299  1.2467 -0.6005
  139MOL0     H18764   1.970   8.266  10.526 -1.6022  0.0244 -1.4320
  139MOL0     H18765   1.977   8.392  10.407 -2.7022 -2.4244 -0.4705
  140MOL0     O18766   8.204   4.880  10.778  0.5864  0.4733 -1.0922
  140MOL0     C18767   8.309   4.827  10.806 -0.4383 -0.6003  0.1555
  140MOL0     O18768   8.339   4.758  10.925 -0.4123  0.4256 -0.1616
  140MOL0     C18769   8.228   4.743  11.002 -0.4666  0.1089 -0.2702
  140MOL0     C18770   8.139   4.641  10.980 -0.9955  0.2329 -0.3097
  140MOL0     C18771   8.033   4.632  11.064 -0.0224  0.1552 -0.3434
  140MOL0     C18772   8.007   4.719  11.180 -1.4155  0.1196 -0.0509
  140MOL0     O18773   7.889   4.700  11.247  0.0476  0.6736 -0.1442
  140MOL0     C18774   7.827   4.812  11.316  0.7415 -0.1028  0.0613
  140MOL0     C18775   7.691   4.767  11.365  0.0031  0.5984  0.7247
  140MOL0     C18776   7.704   4.643  11.460  0.1419  0.0224 -0.0669
  140MOL0     C18777   7.790   4.666  11.583 -0.5211  0.3715  0.0560
  140MOL0     C18778   7.844   4.524  11.624  0.4045 -0.2629  1.2448
  140MOL0     C18779   7.920   4.528  11.758  0.2703 -0.5964  1.4767
  140MOL0     C18780   7.829   4.593  11.869 -0.2343  0.0514 -0.2915
  140MOL0     C18781   7.861   4.549  12.010 -0.1136 -0.1468 -1.1361
  140MOL0     N18782   7.968   4.629  12.070  0.4865  0.5125 -0.0140
  140MOL0     C18783   8.109   4.610  12.052  0.1292 -0.2188 -0.0685
  140MOL0     C18784   8.164   4.725  12.097 -0.3282  0.7602 -0.3917
  140MOL0     C18785   8.309   4.751  12.075  0.3124 -0.0498  0.8019
  140MOL0     C18786   8.340   4.753  11.927 -0.0256 -0.4105 -0.5680
  140MOL0     C18787   8.484   4.810  11.903 -0.0686  0.2732 -1.2339
  140MOL0     C18788   8.484   4.963  11.874  0.0968  0.4452  0.3633
  140MOL0     O18789   8.598   5.049  11.903  0.1917 -0.3689 -0.0079
  140MOL0     C18790   8.689   5.059  11.803  1.6795  0.3412  0.8563
  140MOL0     C18791   8.683   5.167  11.715 -0.8956 -0.2070  0.2220
  140MOL0     C18792   8.765   5.171  11.603 -0.0318  0.6337  0.5685
  140MOL0     C18793   8.852   5.070  11.573  0.9620  0.7723 -0.7522
  140MOL0     C18794   8.939   5.086  11.457 -0.5664 -0.1629  0.0168
  140MOL0     O18795   8.937   5.196  11.376 -0.2207 -0.2935 -0.1874
  140MOL0     C18796   9.038   5.216  11.278 -0.7902 -0.1748 -0.3188
  140MOL0     C18797   9.171   5.178  11.301  0.6197 -0.5851 -0.9290
  140MOL0     C18798   9.270   5.206  11.208  0.8313 -0.0100 -0.8334
  140MOL0     C18799   9.237   5.281  11.099 -0.0093 -0.3093  1.0406
  140MOL0     O18800   9.338   5.297  11.003  0.2942  0.3607  0.2931
  140MOL0     C18801   9.314   5.213  10.885 -0.1271 -0.2251 -0.4070
  140MOL0     C18802   9.322   5.282  10.753 -0.2498 -0.4118 -0.2468
  140MOL0     C18803   9.465   5.323  10.732  0.2055  0.0861  0.8610
  140MOL0     C18804   9.473   5.410  10.613  0.1437 -0.2542 -0.1574
  140MOL0     C18805   9.467   5.556  10.650  0.5141  0.3343 -0.3964
  140MOL0     C18806   9.476   5.638  10.526  0.0624 -0.6282 -0.3266
  140MOL0     C18807   9.478   5.785  10.563 -0.5961  0.3185 -0.5633
  140MOL0     C18808   9.465   5.869  10.445 -0.4487 -0.1474  0.3088
  140MOL0    Cl18809   9.297   5.839  10.372 -0.3000 -0.0269  0.1225
  140MOL0     C18810   9.101   5.320  11.068 -0.3151  0.6844  0.3536
  140MOL0     C18811   9.003   5.280  11.158  0.4933  0.1693 -0.6282
  140MOL0     O18812   9.004   4.986  11.433 -0.9462  0.3096  0.1919
  140MOL0     C18813   8.854   4.957  11.654 -1.1526  0.2128  0.5564
  140MOL0     C18814   8.766   4.950  11.754 -0.0262 -0.1386  0.0538
  140MOL0     N18815   8.056   4.802  12.150  0.8040  0.1908  0.2805
  140MOL0     N18816   7.943   4.745  12.141 -0.2560 -0.9180  0.7438
  140MOL0     C18817   8.094   4.836  11.190 -0.0187  0.0799  1.4377
  140MOL0     C18818   8.196   4.844  11.098  0.2333  0.3520 -0.5295
  140MOL0     C18819   8.413   4.830  10.701  0.3604  0.4936  0.2527
  140MOL0     C18820   8.402   4.927  10.606  1.0214 -0.2282 -1.1454
  140MOL0     C18821   8.495   4.952  10.514 -0.4388 -0.0864 -0.8075
  140MOL0     C18822   8.614   4.880  10.506  0.6011  0.0344 -0.2346
  140MOL0     O18823   8.717   4.929  10.423  0.3308 -0.8096 -0.0424
  140MOL0     C18824   8.849   4.873  10.417  0.8162 -0.0399 -0.0824
  140MOL0     C18825   8.934   4.917  10.539  0.4325  0.2914  0.7457
  140MOL0     C18826   9.085   4.891  10.510  0.3752 -0.0977 -0.0053
  140MOL0     C18827   9.166   4.930  10.627  0.9616  0.1723  0.4293
  140MOL0     C18828   9.303   4.904  10.612 -0.9784  0.4565 -0.6958
  140MOL0     C18829   9.423   4.882  10.629 -0.2104  0.3381  1.1444
  140MOL0     C18830   8.625   4.768  10.591 -0.0181 -0.6150  0.2808
  140MOL0     C18831   8.531   4.741  10.692  0.0968  0.2785  0.5062
  140MOL0     C18832   8.560   4.632  10.791  0.5205  0.1421 -0.6450
  140MOL0     H18833   8.154   4.573  10.897 -3.2459  2.4551 -2.7319
  140MOL0     H18834   7.956   4.556  11.051 -0.4104 -0.2881  3.5012
  140MOL0     H18835   7.893   4.850  11.395  1.2156  1.8107 -1.1957
  140MOL0     H18836   7.819   4.884  11.234 -0.8579 -0.3167  0.0003
  140MOL0     H18837   7.637   4.754  11.271  0.6784  0.9208  0.2901
  140MOL0     H18838   7.632   4.836  11.426 -0.3170  0.6665  0.3412
  140MOL0     H18839   7.745   4.563  11.398 -3.1070  0.6182 -3.3281
  140MOL0     H18840   7.603   4.615  11.491 -1.0793  1.7245 -2.3127
  140MOL0     H18841   7.882   4.724  11.570  1.3478 -1.7730  2.5579
  140MOL0     H18842   7.731   4.716  11.660 -0.1134  1.1351 -0.1116
  140MOL0     H18843   7.759   4.455  11.630 -0.4218  0.4569 -1.1370
  140MOL0     H18844   7.910   4.486  11.545 -0.8504 -1.4248  0.7178
  140MOL0     H18845   7.933   4.424  11.788  2.4692 -1.0232 -0.6961
  140MOL0     H18846   8.019   4.574  11.762  0.1039 -0.1954  1.0140
  140MOL0     H18847   7.721   4.579  11.861 -0.1188  0.0863 -2.4600
  140MOL0     H18848   7.843   4.701  11.858  1.4487  0.0241  1.0707
  140MOL0     H18849   7.772   4.576  12.068  0.1607  1.5606 -1.4386
  140MOL0     H18850   7.868   4.441  12.026  0.2557  0.2109  1.5386
  140MOL0     H18851   8.158   4.535  11.990 -0.2590 -1.8647  1.5465
  140MOL0     H18852   8.342   4.839  12.131  2.4438 -0.9739  1.1136
  140MOL0     H18853   8.364   4.664  12.111  0.4588 -0.4318 -0.3166
  140MOL0     H18854   8.335   4.650  11.889 -0.8339 -0.0375 -1.5191
  140MOL0     H18855   8.275   4.823  11.874  1.1368  0.9615 -0.2510
  140MOL0     H18856   8.531   4.757  11.820  0.5855  0.3957 -0.9472
  140MOL0     H18857   8.526   4.793  12.003 -0.3924  0.9044 -0.9897
  140MOL0     H18858   8.395   4.997  11.928 -2.1306  0.9114 -3.2951
  140MOL0     H18859   8.457   4.976  11.769 -1.6216  2.2403  0.9706
  140MOL0     H18860   8.613   5.249  11.726  1.0943  1.6658 -0.2304
  140MOL0     H18861   8.743   5.261  11.545  0.4324  1.3243  1.4399
  140MOL0     H18862   9.194   5.135  11.398 -0.5191  1.8654  0.5315
  140MOL0     H18863   9.368   5.167  11.232 -0.0179 -0.2024  2.9891
  140MOL0     H18864   9.383   5.129  10.890  1.0995  0.8271  1.8574
  140MOL0     H18865   9.223   5.152  10.883 -0.9502  0.9808 -1.9838
  140MOL0     H18866   9.282   5.215  10.676 -3.1508  2.8688 -1.9044
  140MOL0     H18867   9.264   5.374  10.744  1.9733  0.9846 -1.0286
  140MOL0     H18868   9.498   5.377  10.821 -0.3041 -2.5344  2.7598
  140MOL0     H18869   9.527   5.234  10.716  0.4148  0.0909  1.5857
  140MOL0     H18870   9.382   5.398  10.553  0.1892 -1.0005 -0.0863
  140MOL0     H18871   9.562   5.394  10.551 -0.7850 -0.7466 -1.4157
  140MOL0     H18872   9.559   5.570  10.708 -0.2027 -0.1016  0.8973
  140MOL0     H18873   9.381   5.576  10.715  1.1532  0.1886  0.5262
  140MOL0     H18874   9.575   5.622  10.481  1.0552  0.7874  1.2746
  140MOL0     H18875   9.386   5.620  10.466  1.2261 -0.4236 -2.2229
  140MOL0     H18876   9.574   5.798  10.613  0.4855 -2.6846 -1.5763
  140MOL0     H18877   9.400   5.823  10.628 -0.0499 -0.7023  0.7318
  140MOL0     H18878   9.467   5.973  10.478 -0.6590 -0.2696  0.7112
  140MOL0     H18879   9.545   5.843  10.376 -1.3366  0.2190 -0.8922
  140MOL0     H18880   9.077   5.362  10.971 -1.0982  1.4579  0.8675
  140MOL0     H18881   8.899   5.307  11.143  0.8139  1.7638 -0.1627
  140MOL0     H18882   8.926   4.876  11.648 -1.3802 -0.0471  1.3311
  140MOL0     H18883   8.763   4.863  11.819 -2.9619  0.3205  0.6715
  140MOL0     H18884   8.071   4.923  11.251 -1.8506  0.9287 -0.3340
  140MOL0     H18885   8.255   4.935  11.100 -0.4200  0.7780  0.6256
  140MOL0     H18886   8.317   4.993  10.589  1.2270  0.1622 -0.6729
  140MOL0     H18887   8.494   5.033  10.441  0.4066 -0.8767 -1.7304
  140MOL0     H18888   8.907   4.899  10.328  0.8360 -0.5164 -0.2097
  140MOL0     H18889   8.824   4.768  10.397 -2.9847  0.6245  0.4184
  140MOL0     H18890   8.904   4.852  10.622 -2.4763 -0.0266 -0.4465
  140MOL0     H18891   8.926   5.022  10.569  2.2809  0.7585 -0.2387
  140MOL0     H18892   9.118   4.945  10.421  1.1169  1.5882  1.2321
  140MOL0     H18893   9.093   4.782  10.499 -4.2987 -0.7341  0.8057
  140MOL0     H18894   9.149   5.038  10.641 -4.3019 -0.6010  2.2894
  140MOL0     H18895   9.135   4.881  10.720 -1.7259 -1.0394 -0.9950
  140MOL0     H18896   9.525   4.851  10.633 -0.5933 -1.0053  0.9372
  140MOL0     H18897   8.705   4.694  10.588 -0.8503 -1.6006  1.3781
  140MOL0     H18898   8.587   4.679  10.886  3.6385  2.3236 -2.4400
  140MOL0     H18899   8.470   4.570  10.789 -1.5562  2.9220 -0.4662
  140MOL0     H18900   8.639   4.568  10.752  1.0021 -0.2485  0.8849
  141MOL0     O18901   3.366   7.181   2.806 -0.5190  0.0313  0.0899
  141MOL0     C18902   3.485   7.194   2.777 -0.2495 -0.3169  1.0204
  141MOL0     O18903   3.580   7.234   2.864  0.4607  0.0734  0.2793
  141MOL0     C18904   3.553   7.225   2.993  1.0635 -0.8239  0.9514
  141MOL0     C18905   3.581   7.338   3.073  0.3369  0.4256 -0.2600
  141MOL0     C18906   3.568   7.331   3.213 -0.9918 -0.3214  0.8151
  141MOL0     C18907   3.525   7.214   3.277 -0.7850  0.0548  0.7179
  141MOL0     O18908   3.539   7.209   3.419 -0.3554  0.1594  0.5720
  141MOL0     C18909   3.477   7.105   3.494 -0.7119  0.6966  0.0567
  141MOL0     C18910   3.495   7.115   3.641 -0.5700  0.6284  1.2757
  141MOL0     C18911   3.431   7.239   3.694 -0.2886  0.4091 -0.6822
  141MOL0     C18912   3.452   7.259   3.840 -0.2542 -0.0105 -0.0222
  141MOL0     C18913   3.384   7.386   3.897 -0.4230  0.0254  0.6656
  141MOL0     C18914   3.442   7.427   4.033 -0.7291  0.2577 -0.2130
  141MOL0     C18915   3.387   7.562   4.081  0.1438 -0.5201  0.6397
  141MOL0     C18916   3.233   7.579   4.085 -0.2688 -0.6749 -0.0747
  141MOL0     N18917   3.168   7.480   4.171  0.2017  0.4812 -0.2777
  141MOL0     C18918   3.074   7.388   4.139  0.3032 -0.3673  0.4595
  141MOL0     C18919   3.038   7.325   4.247  0.0471  0.1745 -0.4401
  141MOL0     C18920   2.954   7.202   4.265 -0.1445  1.2658 -0.6256
  141MOL0     C18921   3.030   7.064   4.290 -0.1954  0.3754 -0.2696
  141MOL0     C18922   3.074   6.988   4.164  0.0517 -0.4511 -0.5212
  141MOL0     C18923   3.201   7.064   4.109 -0.6403 -0.1972  0.0474
  141MOL0     O18924   3.276   6.963   4.030 -0.1749 -0.0980 -0.3161
  141MOL0     C18925   3.231   6.941   3.899  0.2619  1.3599 -0.0949
  141MOL0     C18926   3.127   7.012   3.836 -0.5307  0.3683  0.9420
  141MOL0     C18927   3.108   6.998   3.700 -1.0549  0.0939 -0.4997
  141MOL0     C18928   3.179   6.898   3.627  0.0943 -0.1275 -0.3263
  141MOL0     C18929   3.162   6.888   3.481 -0.6117 -0.2403 -0.2703
  141MOL0     O18930   3.043   6.950   3.434 -0.4385  0.9871  0.4043
  141MOL0     C18931   3.027   6.941   3.292 -0.5469  0.1943  0.3074
  141MOL0     C18932   3.074   7.041   3.208 -0.0349 -0.4010  0.4102
  141MOL0     C18933   3.050   7.020   3.071  0.0567 -0.0807  0.2921
  141MOL0     C18934   2.973   6.911   3.022  0.3515 -0.2831  1.0015
  141MOL0     O18935   2.953   6.908   2.889 -0.0056 -0.4190  0.3366
  141MOL0     C18936   2.953   6.773   2.831  0.7900  0.1040 -0.2140
  141MOL0     C18937   3.080   6.698   2.860 -0.0812  0.0331 -0.3189
  141MOL0     C18938   3.211   6.774   2.838 -0.0349  0.0709 -0.5853
  141MOL0     C18939   3.302   6.764   2.959  0.0706  0.1900 -0.0988
  141MOL0     C18940   3.385   6.637   2.932 -0.5516  0.2647  0.5249
  141MOL0     C18941   3.509   6.645   3.015 -0.5632  0.2913 -0.1568
  141MOL0     C18942   3.570   6.500   3.018 -0.9464  0.3057 -0.4435
  141MOL0     C18943   3.678   6.482   3.126  0.8449 -0.2019  0.3109
  141MOL0    Cl18944   3.744   6.314   3.125 -0.0231  0.2578 -0.0052
  141MOL0     C18945   2.926   6.819   3.116  0.0509  0.1170 -0.1171
  141MOL0     C18946   2.954   6.833   3.247  0.8393  0.9924  0.7576
  141MOL0     O18947   3.249   6.838   3.410  0.1678  0.1064  0.0794
  141MOL0     C18948   3.275   6.822   3.696  0.1232 -0.0613 -0.1539
  141MOL0     C18949   3.303   6.851   3.830  1.0745 -0.9379  0.5469
  141MOL0     N18950   3.119   7.367   4.350  0.0722 -0.1461 -0.4768
  141MOL0     N18951   3.191   7.468   4.305 -0.6484 -0.0925 -0.0093
  141MOL0     C18952   3.486   7.102   3.202 -0.1776 -0.8648 -0.9541
  141MOL0     C18953   3.505   7.110   3.061 -0.8504 -0.2178  0.2012
  141MOL0     C18954   3.536   7.179   2.638 -0.7208 -0.0150  0.2651
  141MOL0     C18955   3.652   7.104   2.614 -0.0560  0.0299  0.8992
  141MOL0     C18956   3.707   7.098   2.484 -0.2556  0.6216 -0.6241
  141MOL0     C18957   3.639   7.155   2.373  0.2207  0.6040 -0.0196
  141MOL0     O18958   3.687   7.120   2.250 -1.0743  0.5207  0.7132
  141MOL0     C18959   3.620   7.162   2.133  0.4994  0.2185  0.3249
  141MOL0     C18960   3.685   7.124   2.005 -0.7573 -0.1187 -0.1302
  141MOL0     C18961   3.831   7.156   1.999 -0.2345  0.7353  0.5510
  141MOL0     C18962   3.892   7.138   1.865 -0.0716  0.2842  0.8329
  141MOL0     C18963   3.849   7.242   1.770  0.9437 -0.2145  0.3826
  141MOL0     C18964   3.803   7.332   1.701  0.0644 -0.1317 -0.9497
  141MOL0     C18965   3.537   7.244   2.405 -0.0153 -0.4294 -0.1753
  141MOL0     C18966   3.479   7.254   2.529 -0.3724 -0.0608 -0.1428
  141MOL0     C18967   3.362   7.343   2.552  0.2444 -0.1296 -0.8434
  141MOL0     H18968   3.607   7.434   3.030  0.5483  0.9569  0.9936
  141MOL0     H18969   3.596   7.419   3.271  1.0788 -0.2208 -0.2641
  141MOL0     H18970   3.372   7.089   3.465 -1.3927  0.9066  2.2694
  141MOL0     H18971   3.529   7.012   3.466 -0.2429  1.2709 -1.0742
  141MOL0     H18972   3.602   7.121   3.661 -0.4176  0.1277  0.6273
  141MOL0     H18973   3.448   7.025   3.682 -3.1430  1.2649 -0.0682
  141MOL0     H18974   3.326   7.231   3.667 -0.9053  1.7922  1.0392
  141MOL0     H18975   3.483   7.327   3.654  2.0574 -0.6545 -0.1302
  141MOL0     H18976   3.418   7.173   3.897  1.0643 -1.3445 -1.1478
  141MOL0     H18977   3.560   7.258   3.855  0.1276 -5.7040 -0.7695
  141MOL0     H18978   3.390   7.470   3.827 -0.5157  0.7712  1.5405
  141MOL0     H18979   3.277   7.366   3.899 -0.5168  0.4242 -0.0778
  141MOL0     H18980   3.419   7.350   4.108 -0.5224 -0.8318 -1.2301
  141MOL0     H18981   3.550   7.435   4.016 -0.6797 -0.6854 -0.4403
  141MOL0     H18982   3.426   7.648   4.026  2.0020 -1.5833  0.2159
  141MOL0     H18983   3.423   7.589   4.180  5.1594  0.6594 -1.2264
  141MOL0     H18984   3.204   7.671   4.136 -0.1416 -0.3907 -0.5104
  141MOL0     H18985   3.203   7.577   3.980 -0.4822 -1.2848 -0.0062
  141MOL0     H18986   3.037   7.358   4.041 -0.3407 -1.4976  1.0197
  141MOL0     H18987   2.903   7.222   4.360 -1.9741 -0.0227 -1.2795
  141MOL0     H18988   2.881   7.200   4.184 -0.5513  0.6866 -0.2534
  141MOL0     H18989   3.123   7.081   4.345 -0.0594 -1.8249  0.2596
  141MOL0     H18990   2.967   6.994   4.344  2.0069 -2.3743 -1.0470
  141MOL0     H18991   2.994   6.996   4.090 -0.3394  1.4939  0.0741
  141MOL0     H18992   3.098   6.883   4.185  0.4714  0.3386  3.9386
  141MOL0     H18993   3.261   7.088   4.198 -0.3128  1.0535 -0.4967
  141MOL0     H18994   3.189   7.162   4.063  4.4869  0.2629 -0.8374
  141MOL0     H18995   3.078   7.083   3.902  1.0227  3.0942 -0.6342
  141MOL0     H18996   3.031   7.063   3.658  0.7322  1.8118 -1.2933
  141MOL0     H18997   3.134   7.127   3.237  2.6668 -1.6532 -1.1084
  141MOL0     H18998   3.077   7.094   2.996  0.9550  1.0197  1.6315
  141MOL0     H18999   2.868   6.710   2.858 -0.5559  1.6726 -0.6267
  141MOL0     H19000   2.951   6.781   2.722  0.5586 -1.2628 -0.3284
  141MOL0     H19001   3.072   6.660   2.962  0.1375 -2.9669 -1.3196
  141MOL0     H19002   3.078   6.607   2.799 -1.8468 -0.2212  0.0713
  141MOL0     H19003   3.242   6.736   2.740 -0.0042  0.9978 -0.9461
  141MOL0     H19004   3.193   6.882   2.837  2.2706  0.5252 -1.3927
  141MOL0     H19005   3.262   6.777   3.059  0.4779  1.3464 -0.0830
  141MOL0     H19006   3.369   6.850   2.952 -0.5631  0.5846 -1.8770
  141MOL0     H19007   3.407   6.625   2.825  0.6998  0.9547  0.6779
  141MOL0     H19008   3.326   6.551   2.963 -1.3610  1.2779  1.9233
  141MOL0     H19009   3.593   6.707   2.983  0.0476  0.6723  1.9911
  141MOL0     H19010   3.475   6.660   3.118 -1.1471  1.2657 -0.4843
  141MOL0     H19011   3.602   6.470   2.918 -3.0229 -1.0326 -0.7597
  141MOL0     H19012   3.491   6.428   3.042 -0.2483  0.1635  1.6267
  141MOL0     H19013   3.762   6.546   3.099  0.0068 -0.2461 -2.6931
  141MOL0     H19014   3.650   6.525   3.222  0.7482  2.7126 -0.9398
  141MOL0     H19015   2.855   6.739   3.096 -1.1436  1.1771 -0.2396
  141MOL0     H19016   2.893   6.788   3.325 -2.1716  3.9268  0.3138
  141MOL0     H19017   3.342   6.761   3.635  0.7085  1.4645 -1.0785
  141MOL0     H19018   3.384   6.799   3.881  0.4708 -2.1910  0.2701
  141MOL0     H19019   3.443   7.012   3.245 -0.4771 -2.0817 -3.5613
  141MOL0     H19020   3.475   7.018   3.013  1.1736 -0.7451 -0.1546
  141MOL0     H19021   3.708   7.060   2.695  0.1461  0.7621  1.1591
  141MOL0     H19022   3.792   7.034   2.463 -2.3693 -3.3997  1.7428
  141MOL0     H19023   3.614   7.272   2.130 -2.3120  0.1801  2.0379
  141MOL0     H19024   3.519   7.121   2.139  1.5490 -2.4545  0.8747
  141MOL0     H19025   3.629   7.183   1.932 -2.0987 -0.6552  0.4400
  141MOL0     H19026   3.674   7.016   1.988 -0.3451  0.0893 -1.9252
  141MOL0     H19027   3.880   7.083   2.064  3.9717  1.3562 -1.5891
  141MOL0     H19028   3.847   7.258   2.034  0.1282  0.3661  1.4987
  141MOL0     H19029   3.999   7.147   1.884  0.6447 -0.5481 -2.2533
  141MOL0     H19030   3.880   7.035   1.829  2.6184 -0.7666  2.6334
  141MOL0     H19031   3.774   7.421   1.648  1.5020  1.3576  0.6293
  141MOL0     H19032   3.489   7.287   2.317  0.7495 -3.4702 -2.2209
  141MOL0     H19033   3.361   7.373   2.658 -2.4078 -1.3992 -0.4320
  141MOL0     H19034   3.367   7.440   2.503 -0.9837  0.5383  0.2783
  141MOL0     H19035   3.265   7.296   2.534 -0.5664  0.5616  1.3695
  142MOL0     O19036   7.423   8.031  10.333 -0.4385 -0.1172  0.5087
  142MOL0     C19037   7.483   7.976  10.429 -0.6986 -0.6554  0.6881
  142MOL0     O19038   7.587   7.883  10.422 -0.3417  0.2193  0.3814
  142MOL0     C19039   7.636   7.854  10.300  0.7004 -0.2692  1.0233
  142MOL0     C19040   7.599   7.740  10.230 -0.2033 -0.2341  1.1420
  142MOL0     C19041   7.628   7.726  10.093  0.1578 -0.1117 -0.8236
  142MOL0     C19042   7.709   7.822  10.032 -1.3962 -0.8228  0.6931
  142MOL0     O19043   7.756   7.812   9.902 -0.3221 -0.5565 -0.2566
  142MOL0     C19044   7.662   7.768   9.803  0.2459  0.4359  0.4022
  142MOL0     C19045   7.554   7.860   9.771  0.3018 -0.6684 -0.6564
  142MOL0     C19046   7.597   7.990   9.703 -1.0393  0.1506  0.4053
  142MOL0     C19047   7.475   8.084   9.671 -0.0280 -0.3856  0.1313
  142MOL0     C19048   7.514   8.226   9.629 -0.0841  0.6203  0.1258
  142MOL0     C19049   7.410   8.291   9.541 -0.2880 -0.3211  0.5691
  142MOL0     C19050   7.428   8.435   9.510 -0.8954 -0.4323 -0.3022
  142MOL0     C19051   7.301   8.505   9.445  0.8887 -0.1501 -0.8721
  142MOL0     N19052   7.296   8.492   9.306 -0.6706  0.6566  0.3868
  142MOL0     C19053   7.236   8.384   9.240  0.5835 -0.7004  0.5219
  142MOL0     C19054   7.235   8.432   9.105 -0.5918  0.6253  0.0779
  142MOL0     C19055   7.216   8.331   8.997 -0.0830  0.3291  1.1150
  142MOL0     C19056   7.144   8.403   8.886  0.2989 -0.1423 -0.6792
  142MOL0     C19057   7.141   8.322   8.765  0.5114  0.8899 -0.0808
  142MOL0     C19058   7.073   8.395   8.651 -0.6004 -0.2317  0.2014
  142MOL0     O19059   7.041   8.321   8.536 -0.0010  0.1081  0.0158
  142MOL0     C19060   6.917   8.254   8.531  1.0418 -0.3060 -0.2140
  142MOL0     C19061   6.912   8.114   8.522  0.7201  0.1920 -0.6619
  142MOL0     C19062   6.785   8.056   8.502  0.4710 -0.1568 -0.3944
  142MOL0     C19063   6.669   8.138   8.488  0.7440 -0.3603 -0.3793
  142MOL0     C19064   6.531   8.078   8.458 -0.6538  0.1746 -0.0884
  142MOL0     O19065   6.428   8.154   8.506  0.5941  0.2925 -0.0139
  142MOL0     C19066   6.296   8.106   8.506  0.9330  0.4031 -0.2168
  142MOL0     C19067   6.261   7.978   8.563 -0.0505 -0.1440  0.4148
  142MOL0     C19068   6.131   7.928   8.561  0.0072  0.3152  0.0683
  142MOL0     C19069   6.025   8.021   8.533  0.4168 -0.0321  0.2064
  142MOL0     O19070   5.895   7.977   8.493 -0.0387  0.5702  0.3017
  142MOL0     C19071   5.869   7.841   8.485  0.9537 -0.3944  0.4270
  142MOL0     C19072   5.729   7.820   8.419 -0.2929 -0.8060 -0.7362
  142MOL0     C19073   5.704   7.667   8.427  0.8902  0.1353  0.3321
  142MOL0     C19074   5.576   7.626   8.352  0.8477 -0.4955 -0.2090
  142MOL0     C19075   5.590   7.602   8.207 -0.4190  0.3606  0.5244
  142MOL0     C19076   5.459   7.600   8.131 -0.1530 -0.4681  0.1805
  142MOL0     C19077   5.460   7.566   7.980  0.2125  0.0772  0.3974
  142MOL0     C19078   5.579   7.637   7.893  0.1957 -0.0927 -0.0827
  142MOL0    Cl19079   5.566   7.825   7.934  0.1358  0.3701  0.3084
  142MOL0     C19080   6.059   8.160   8.502  0.5446  0.5868  0.9064
  142MOL0     C19081   6.196   8.198   8.478  0.3614  0.0287 -0.5655
  142MOL0     O19082   6.522   7.976   8.392 -0.2225  0.0003  0.0620
  142MOL0     C19083   6.680   8.276   8.505  0.5369 -0.2081 -0.1963
  142MOL0     C19084   6.809   8.333   8.528 -0.8281 -0.6973  0.5517
  142MOL0     N19085   7.294   8.555   9.096 -0.2639 -0.4014 -0.2981
  142MOL0     N19086   7.321   8.595   9.219  0.3611  0.6138 -0.1915
  142MOL0     C19087   7.760   7.927  10.108  0.0410 -0.0337 -0.0250
  142MOL0     C19088   7.716   7.945  10.243 -0.8682  0.4041  0.7988
  142MOL0     C19089   7.441   8.018  10.562 -0.8337  0.3154  0.6679
  142MOL0     C19090   7.429   8.161  10.597  0.2836 -0.8363 -0.9505
  142MOL0     C19091   7.396   8.200  10.727 -0.3252  0.0136  0.1486
  142MOL0     C19092   7.379   8.101  10.827  0.0833 -0.7034 -0.8317
  142MOL0     O19093   7.353   8.117  10.962  0.2934 -0.1046 -0.2826
  142MOL0     C19094   7.318   8.246  11.016  0.0131 -0.3274  0.4276
  142MOL0     C19095   7.317   8.230  11.163  0.7567 -1.0276 -0.2052
  142MOL0     C19096   7.181   8.182  11.215  0.5642 -1.3134 -0.5335
  142MOL0     C19097   7.180   8.180  11.373 -0.0716  0.3517 -0.9291
  142MOL0     C19098   7.048   8.126  11.423 -0.5391 -1.1219 -0.4487
  142MOL0     C19099   6.936   8.097  11.467  0.0868 -0.0001  0.6811
  142MOL0     C19100   7.385   7.971  10.791  0.4283 -0.8051  0.4252
  142MOL0     C19101   7.405   7.927  10.665 -0.6252  0.1457  0.5821
  142MOL0     C19102   7.396   7.774  10.639 -0.4196 -0.3439 -0.4372
  142MOL0     H19103   7.531   7.668  10.274 -2.3811  1.2938  0.4660
  142MOL0     H19104   7.577   7.641  10.048  3.1039 -2.1083 -0.6687
  142MOL0     H19105   7.712   7.750   9.707  2.0097  0.8042  1.2003
  142MOL0     H19106   7.616   7.673   9.833  1.7333 -0.4446  0.0113
  142MOL0     H19107   7.515   7.886   9.870  2.6967  2.1836 -0.3191
  142MOL0     H19108   7.485   7.811   9.701  1.4452 -0.1763 -2.1976
  142MOL0     H19109   7.669   7.980   9.622 -1.8914  2.2427 -0.6878
  142MOL0     H19110   7.659   8.047   9.774  1.7170 -0.7640 -1.0916
  142MOL0     H19111   7.401   8.023   9.618 -4.7713  0.6290  4.6817
  142MOL0     H19112   7.428   8.093   9.770  2.2364 -0.6900  1.3019
  142MOL0     H19113   7.533   8.291   9.715 -1.0068  0.2842  0.6079
  142MOL0     H19114   7.604   8.228   9.569 -1.4493  0.4769 -2.0313
  142MOL0     H19115   7.430   8.237   9.448  2.0586  0.5082  0.5248
  142MOL0     H19116   7.305   8.281   9.572 -0.4365  1.5609  0.7774
  142MOL0     H19117   7.514   8.446   9.442 -2.1389  4.6599 -1.4471
  142MOL0     H19118   7.454   8.500   9.593  1.0319 -0.3700 -0.8929
  142MOL0     H19119   7.204   8.479   9.485  0.8546 -0.1777 -0.9709
  142MOL0     H19120   7.302   8.613   9.465 -0.9116  0.4394 -3.3767
  142MOL0     H19121   7.209   8.285   9.274 -2.8756  0.5006  1.6300
  142MOL0     H19122   7.312   8.293   8.960 -0.1686 -0.3578  1.5746
  142MOL0     H19123   7.174   8.238   9.037  2.0958 -1.0846  0.2938
  142MOL0     H19124   7.044   8.416   8.929  1.0251  1.8235  0.5887
  142MOL0     H19125   7.182   8.505   8.873 -2.3445  1.0331  0.0800
  142MOL0     H19126   7.087   8.234   8.802  0.5162  0.6106 -0.7242
  142MOL0     H19127   7.244   8.299   8.735 -0.7533 -2.7799 -2.1890
  142MOL0     H19128   7.155   8.459   8.615  1.3804 -1.5121  2.2093
  142MOL0     H19129   6.994   8.460   8.691  1.2627  0.4322  3.1211
  142MOL0     H19130   7.006   8.059   8.516  0.9116  0.4319 -0.0113
  142MOL0     H19131   6.780   7.947   8.500  1.0765 -0.1694 -1.6293
  142MOL0     H19132   6.343   7.914   8.595  1.0218  1.5701  1.1942
  142MOL0     H19133   6.105   7.825   8.585  2.0713 -0.0161  1.0416
  142MOL0     H19134   5.948   7.801   8.421  1.5564  3.2450 -1.3857
  142MOL0     H19135   5.878   7.783   8.577  0.2437 -0.1347  0.6670
  142MOL0     H19136   5.659   7.885   8.472  1.9425  0.0688  1.3458
  142MOL0     H19137   5.723   7.851   8.315 -0.6069 -0.9954 -0.7769
  142MOL0     H19138   5.788   7.606   8.391  1.2218 -0.7241  2.4051
  142MOL0     H19139   5.697   7.630   8.530 -0.9438 -3.2257 -0.8619
  142MOL0     H19140   5.506   7.708   8.365 -1.6576 -2.6921  1.0050
  142MOL0     H19141   5.527   7.542   8.401  1.0382 -0.1706  0.5663
  142MOL0     H19142   5.642   7.507   8.193  2.5512  1.6471  2.0577
  142MOL0     H19143   5.668   7.665   8.165 -0.2205  0.2436  0.7148
  142MOL0     H19144   5.391   7.527   8.176  0.5467 -0.6572  0.9531
  142MOL0     H19145   5.427   7.704   8.146 -0.4013 -0.8899  3.1908
  142MOL0     H19146   5.366   7.584   7.928  0.5855 -2.3099 -1.2605
  142MOL0     H19147   5.470   7.457   7.972 -0.5222  0.1040 -1.4222
  142MOL0     H19148   5.673   7.587   7.919 -0.6187 -0.7387  1.8018
  142MOL0     H19149   5.572   7.612   7.786  3.4512 -1.9546  0.0137
  142MOL0     H19150   5.979   8.233   8.504  0.0651  0.0617  1.8561
  142MOL0     H19151   6.219   8.301   8.453 -1.9386  0.0062 -3.3281
  142MOL0     H19152   6.601   8.350   8.498 -0.9037 -1.5018  1.3496
  142MOL0     H19153   6.812   8.441   8.544 -2.5029 -0.1051 -2.3490
  142MOL0     H19154   7.840   7.989  10.068 -0.9764  0.4800 -1.3066
  142MOL0     H19155   7.751   8.031  10.299 -1.7796 -0.1292  2.2409
  142MOL0     H19156   7.472   8.239  10.536 -0.0110  0.7155  0.7542
  142MOL0     H19157   7.377   8.299  10.768 -2.3751 -1.9182  4.6190
  142MOL0     H19158   7.224   8.288  10.980 -0.2155  1.2217  2.6015
  142MOL0     H19159   7.396   8.318  10.991 -0.2002 -1.1722 -3.1712
  142MOL0     H19160   7.335   8.332  11.198  0.2410 -0.0269 -2.7162
  142MOL0     H19161   7.393   8.164  11.207 -0.0700 -1.0517  1.2444
  142MOL0     H19162   7.158   8.080  11.184 -0.8589 -1.3110  0.3788
  142MOL0     H19163   7.100   8.243  11.173  0.8293  1.1005  2.0720
  142MOL0     H19164   7.256   8.113  11.413 -1.5139  0.3963  2.2312
  142MOL0     H19165   7.191   8.284  11.406 -2.0285  0.6549 -1.1049
  142MOL0     H19166   6.834   8.073  11.492 -0.4039 -0.0932 -1.2399
  142MOL0     H19167   7.375   7.904  10.876  0.1240  0.7701  1.6766
  142MOL0     H19168   7.366   7.755  10.536 -0.0825 -0.3008 -0.5424
  142MOL0     H19169   7.498   7.735  10.642  0.2949  1.3238 -1.5336
  142MOL0     H19170   7.327   7.720  10.706  1.4640  0.6233  2.4980
  143MOL0     O19171   4.326   2.524   4.115  0.4148  0.4146  0.0259
  143MOL0     C19172   4.344   2.641   4.087  0.1880 -0.0912 -0.5641
  143MOL0     O19173   4.465   2.706   4.082 -0.7371  0.2907 -0.1985
  143MOL0     C19174   4.576   2.622   4.085  0.0662 -0.0100 -1.4853
  143MOL0     C19175   4.609   2.545   4.193  0.3935 -0.0518 -0.2600
  143MOL0     C19176   4.724   2.462   4.194  0.7279  0.3451 -0.9045
  143MOL0     C19177   4.810   2.447   4.085  0.8155 -0.8060 -0.3469
  143MOL0     O19178   4.917   2.372   4.110  0.2316 -0.3122 -0.5576
  143MOL0     C19179   4.930   2.291   3.996 -0.6191 -0.2052  0.6737
  143MOL0     C19180   5.041   2.183   4.013 -0.5211 -0.6037  0.0464
  143MOL0     C19181   4.981   2.076   4.099  0.4602  0.3092  0.1908
  143MOL0     C19182   5.087   1.990   4.159 -0.9988 -0.6519  0.0787
  143MOL0     C19183   5.024   1.869   4.230  0.6464 -1.4829  0.4357
  143MOL0     C19184   5.111   1.778   4.323 -0.5942 -0.5901 -0.0351
  143MOL0     C19185   5.038   1.663   4.394 -0.5350  0.5312  0.0665
  143MOL0     C19186   5.126   1.561   4.466 -0.8473 -0.1316 -0.8508
  143MOL0     N19187   5.211   1.484   4.374 -0.5450 -0.1433 -0.4061
  143MOL0     C19188   5.349   1.473   4.375 -0.2308 -0.4455 -0.0247
  143MOL0     C19189   5.369   1.375   4.289  0.2099 -0.8101  0.3281
  143MOL0     C19190   5.512   1.345   4.226  1.0330  0.2654 -0.3978
  143MOL0     C19191   5.512   1.411   4.085  0.7389  0.3736 -0.2629
  143MOL0     C19192   5.496   1.560   4.095 -0.0852  1.0192  0.0525
  143MOL0     C19193   5.524   1.622   3.957  0.3054  0.3245  0.0400
  143MOL0     O19194   5.516   1.769   3.967  0.3428  0.0345  0.1644
  143MOL0     C19195   5.456   1.844   3.870 -0.2058  0.3487 -1.0488
  143MOL0     C19196   5.334   1.820   3.802 -0.3256 -0.1888 -0.3891
  143MOL0     C19197   5.257   1.927   3.744 -0.4537  1.5140 -0.1685
  143MOL0     C19198   5.314   2.053   3.747 -0.3657 -1.0294 -0.5287
  143MOL0     C19199   5.241   2.169   3.678  0.5432  0.2734 -0.5491
  143MOL0     O19200   5.265   2.299   3.735 -0.4806 -0.4640  0.3037
  143MOL0     C19201   5.193   2.403   3.691  0.5297 -0.1386  0.4740
  143MOL0     C19202   5.191   2.440   3.558 -0.1996 -0.4087 -0.1751
  143MOL0     C19203   5.136   2.558   3.507 -0.5310  0.0976  0.6991
  143MOL0     C19204   5.102   2.649   3.602  0.1265  0.5462  0.7334
  143MOL0     O19205   5.052   2.764   3.559  0.0684 -0.4815 -0.0614
  143MOL0     C19206   5.136   2.854   3.496  1.0104  0.4134  0.3720
  143MOL0     C19207   5.067   2.988   3.515 -0.6293 -0.9285 -1.0488
  143MOL0     C19208   5.095   3.036   3.660 -0.0630 -0.3421  1.3294
  143MOL0     C19209   5.058   3.187   3.689  0.1340 -0.5665 -0.5396
  143MOL0     C19210   5.080   3.200   3.838 -0.4552 -0.1885  0.2392
  143MOL0     C19211   5.004   3.319   3.900 -0.3978  0.6167  0.7233
  143MOL0     C19212   5.062   3.444   3.861  0.6439  0.0132 -0.8943
  143MOL0     C19213   4.974   3.558   3.910 -0.2774  0.4983 -0.1175
  143MOL0    Cl19214   4.828   3.572   3.812  0.5749  0.1497 -0.0225
  143MOL0     C19215   5.102   2.623   3.737  0.9852  0.3601 -0.5126
  143MOL0     C19216   5.145   2.501   3.778  1.3078  0.0347 -0.7310
  143MOL0     O19217   5.160   2.147   3.594  1.0983 -0.0741 -0.6979
  143MOL0     C19218   5.437   2.086   3.811  0.3361 -0.7075  0.9022
  143MOL0     C19219   5.503   1.974   3.871 -0.5715 -0.0969 -0.2349
  143MOL0     N19220   5.248   1.325   4.241  0.3256  0.1558 -0.0631
  143MOL0     N19221   5.160   1.395   4.290 -0.2955  0.9891  0.5701
  143MOL0     C19222   4.769   2.530   3.968  0.4914 -0.1251  0.5095
  143MOL0     C19223   4.651   2.608   3.969  0.6225  1.0228 -0.5149
  143MOL0     C19224   4.225   2.739   4.077  0.5815 -1.8105 -1.0488
  143MOL0     C19225   4.232   2.878   4.114 -0.5529  0.7679  0.1593
  143MOL0     C19226   4.120   2.955   4.110  0.1170  0.0719 -0.0181
  143MOL0     C19227   3.998   2.918   4.059 -0.1034  0.5073  0.8296
  143MOL0     O19228   3.898   3.008   4.027  0.2795 -0.7589  0.5274
  143MOL0     C19229   3.789   2.982   4.117  0.2263  0.4482 -0.1989
  143MOL0     C19230   3.655   3.041   4.062 -0.8888  0.1912  0.2557
  143MOL0     C19231   3.616   2.948   3.950  0.4693 -0.4002  0.0293
  143MOL0     C19232   3.477   3.001   3.900 -0.3101  0.7734  0.3793
  143MOL0     C19233   3.406   2.913   3.803 -0.1284 -0.4863  0.4213
  143MOL0     C19234   3.347   2.827   3.746  0.0885 -0.1749  0.3051
  143MOL0     C19235   4.002   2.792   3.989 -0.4854 -0.3178 -0.1370
  143MOL0     C19236   4.100   2.697   4.007 -1.0437 -0.7272  0.1797
  143MOL0     C19237   4.079   2.565   3.934 -0.5245 -0.4680  0.3857
  143MOL0     H19238   4.547   2.552   4.283 -1.1341  1.1663 -1.3543
  143MOL0     H19239   4.753   2.405   4.282  1.1517  1.7205 -0.1104
  143MOL0     H19240   4.833   2.244   3.978 -1.2911  0.6983  1.7917
  143MOL0     H19241   4.961   2.348   3.908  0.1609  0.9422  1.6609
  143MOL0     H19242   5.136   2.218   4.056 -0.6587 -1.0926  0.7797
  143MOL0     H19243   5.072   2.142   3.917  2.0153  2.1696 -0.4811
  143MOL0     H19244   4.921   2.007   4.040  2.1592 -0.4350 -0.7358
  143MOL0     H19245   4.922   2.130   4.174  1.9792  2.4248 -0.0428
  143MOL0     H19246   5.159   1.965   4.081 -0.3622  1.2181  0.0399
  143MOL0     H19247   5.137   2.054   4.232 -0.4990 -0.5806 -0.3216
  143MOL0     H19248   4.934   1.900   4.284 -0.4966 -2.6609 -0.7386
  143MOL0     H19249   4.995   1.815   4.140 -1.4207  3.4815 -2.2590
  143MOL0     H19250   5.195   1.732   4.270  0.0738  1.5168 -0.9317
  143MOL0     H19251   5.162   1.844   4.394  3.0830 -0.7464 -2.2294
  143MOL0     H19252   4.978   1.616   4.316  0.0673 -2.4723  1.2684
  143MOL0     H19253   4.973   1.715   4.464 -0.7616 -0.8767  0.9304
  143MOL0     H19254   5.185   1.602   4.548  0.6172 -2.8279 -0.4354
  143MOL0     H19255   5.062   1.492   4.523 -0.3962 -0.2314 -0.4514
  143MOL0     H19256   5.427   1.516   4.437  0.4262 -1.8459  0.1606
  143MOL0     H19257   5.589   1.386   4.292  0.3294 -0.4300  0.9009
  143MOL0     H19258   5.520   1.236   4.217  0.2343  0.0628  1.0671
  143MOL0     H19259   5.606   1.379   4.042 -1.2835 -1.0968 -4.0131
  143MOL0     H19260   5.448   1.371   4.006  1.4378 -1.0247 -0.1465
  143MOL0     H19261   5.568   1.602   4.167  0.6175 -0.4538  0.2493
  143MOL0     H19262   5.391   1.575   4.122 -0.9749 -0.3016 -2.3778
  143MOL0     H19263   5.451   1.591   3.882 -0.2371 -1.0596  1.1117
  143MOL0     H19264   5.620   1.587   3.916  1.1089  3.7230 -1.3024
  143MOL0     H19265   5.296   1.719   3.792  0.2531 -0.3764 -0.7382
  143MOL0     H19266   5.162   1.907   3.694  1.2351 -0.5926 -2.8539
  143MOL0     H19267   5.232   2.381   3.477  2.6280  1.7270 -0.4519
  143MOL0     H19268   5.133   2.583   3.401  0.1864  2.0237  1.0924
  143MOL0     H19269   5.238   2.849   3.534  1.0026 -0.0907  0.3350
  143MOL0     H19270   5.134   2.850   3.386 -2.4112  1.5350  0.2739
  143MOL0     H19271   5.099   3.063   3.443 -2.1675  0.1240 -0.6944
  143MOL0     H19272   4.958   2.980   3.508 -1.2805  2.2626  2.2363
  143MOL0     H19273   5.039   2.976   3.733 -0.4586 -2.2739 -0.4483
  143MOL0     H19274   5.202   3.021   3.678  0.1464 -3.9028 -1.5598
  143MOL0     H19275   4.951   3.199   3.667 -0.1320  2.3067  1.6510
  143MOL0     H19276   5.118   3.256   3.628 -3.3313  0.5112 -3.0723
  143MOL0     H19277   5.187   3.215   3.854 -0.4106  0.4330 -0.5422
  143MOL0     H19278   5.047   3.125   3.910 -0.2203  0.5189  1.1004
  143MOL0     H19279   4.901   3.312   3.866 -0.9753 -1.8059  2.6517
  143MOL0     H19280   4.998   3.313   4.009  1.6568  0.7565  0.8913
  143MOL0     H19281   5.060   3.444   3.752 -2.5570  0.5165 -0.9283
  143MOL0     H19282   5.165   3.455   3.894  0.1975 -0.4106  0.7638
  143MOL0     H19283   4.958   3.531   4.015  3.0814 -3.0958 -0.2702
  143MOL0     H19284   5.013   3.660   3.897 -2.7611  1.6582  1.0083
  143MOL0     H19285   5.081   2.713   3.793 -0.2675 -0.0549 -0.2706
  143MOL0     H19286   5.153   2.497   3.886 -1.4467 -0.1701 -0.4777
  143MOL0     H19287   5.492   2.178   3.825 -1.3882  0.1308  2.5633
  143MOL0     H19288   5.597   1.991   3.921 -0.3802  1.0152 -0.9296
  143MOL0     H19289   4.832   2.543   3.881 -0.5665  0.5641 -0.1709
  143MOL0     H19290   4.624   2.659   3.878 -0.9235 -1.0143 -1.2769
  143MOL0     H19291   4.324   2.925   4.147 -0.8156  2.1968 -1.0380
  143MOL0     H19292   4.130   3.053   4.153 -1.3226 -0.8024  2.4856
  143MOL0     H19293   3.808   3.031   4.213  0.6897  0.3082 -0.2186
  143MOL0     H19294   3.777   2.877   4.145  3.1716 -0.0774 -0.6137
  143MOL0     H19295   3.666   3.144   4.026  1.3515 -0.9966 -2.9643
  143MOL0     H19296   3.578   3.047   4.139 -1.6799  0.1678 -0.5133
  143MOL0     H19297   3.613   2.846   3.988  1.2162  0.3368  2.2314
  143MOL0     H19298   3.687   2.945   3.866  0.5986  2.4875 -0.0554
  143MOL0     H19299   3.408   3.004   3.984 -0.0352  1.2798  0.5950
  143MOL0     H19300   3.481   3.105   3.864 -1.3657  0.1637 -1.6548
  143MOL0     H19301   3.289   2.752   3.697  0.8063 -0.8378  0.4539
  143MOL0     H19302   3.919   2.770   3.923 -0.2525 -1.1555 -0.1530
  143MOL0     H19303   4.174   2.541   3.885 -0.2388  2.8212 -0.8940
  143MOL0     H19304   4.066   2.499   4.021  2.3844  0.6607  1.8099
  143MOL0     H19305   4.001   2.577   3.858  0.0005  4.7370  0.3313
  144MOL0     O19306   8.661  11.303   4.426 -0.3155  0.0392  0.5997
  144MOL0     C19307   8.775  11.273   4.396 -0.5028 -0.5356  0.2388
  144MOL0     O19308   8.850  11.311   4.283  0.6578 -0.6414 -1.0308
  144MOL0     C19309   8.779  11.351   4.166 -0.0437 -0.1257 -0.3399
  144MOL0     C19310   8.739  11.265   4.060 -0.7089 -0.2723  0.2201
  144MOL0     C19311   8.702  11.324   3.936 -0.6050  0.2336 -0.4678
  144MOL0     C19312   8.699  11.464   3.927 -0.2157  0.0474  0.8272
  144MOL0     O19313   8.660  11.512   3.802  0.1017  0.2844  0.6273
  144MOL0     C19314   8.652  11.652   3.775  0.3577 -0.6085  0.2753
  144MOL0     C19315   8.597  11.697   3.646  0.2236 -0.3973  0.6429
  144MOL0     C19316   8.692  11.664   3.524  0.8274  0.5771 -0.0656
  144MOL0     C19317   8.615  11.635   3.392 -0.3765  0.6573 -0.5173
  144MOL0     C19318   8.566  11.486   3.385  0.8473 -0.4976  1.0544
  144MOL0     C19319   8.511  11.463   3.241  0.6144  0.2992 -1.0220
  144MOL0     C19320   8.510  11.310   3.216 -0.3417 -0.2294 -0.5443
  144MOL0     C19321   8.518  11.283   3.063 -0.4101  0.1496 -0.2471
  144MOL0     N19322   8.408  11.346   2.986  0.6331  0.0379  0.0550
  144MOL0     C19323   8.278  11.307   3.001 -0.2725 -0.6103  0.7156
  144MOL0     C19324   8.213  11.402   2.914 -0.1215  0.7348  0.6493
  144MOL0     C19325   8.074  11.392   2.869  0.2461  0.0950 -0.4290
  144MOL0     C19326   7.978  11.478   2.960  0.5562  0.0162 -0.5030
  144MOL0     C19327   7.821  11.461   2.930  0.9456 -0.2875  0.7511
  144MOL0     C19328   7.739  11.562   3.016  0.5781  0.0395 -0.2125
  144MOL0     O19329   7.786  11.695   2.995 -0.2005  0.2333  0.3279
  144MOL0     C19330   7.718  11.793   2.931  0.0373 -0.0920 -0.5653
  144MOL0     C19331   7.728  11.925   2.979 -0.2035  0.7666 -0.6188
  144MOL0     C19332   7.658  12.027   2.927 -0.3228  0.2647  0.1271
  144MOL0     C19333   7.575  12.018   2.814 -0.0885 -0.3746 -0.5234
  144MOL0     C19334   7.510  12.136   2.761  0.7293  0.4503  0.2039
  144MOL0     O19335   7.432  12.120   2.654 -0.6725  1.3398  0.9231
  144MOL0     C19336   7.401  12.228   2.579 -0.0470 -0.2867 -0.7006
  144MOL0     C19337   7.493  12.310   2.514 -0.5111  0.0505 -1.1004
  144MOL0     C19338   7.443  12.422   2.443 -1.1617 -0.6720 -0.9648
  144MOL0     C19339   7.308  12.459   2.444 -1.0926  0.0885  0.5116
  144MOL0     O19340   7.264  12.572   2.376  0.2346 -0.4550 -0.2562
  144MOL0     C19341   7.124  12.604   2.348 -0.2662 -0.2039  1.0367
  144MOL0     C19342   7.114  12.737   2.268 -0.5510  0.6553 -0.0432
  144MOL0     C19343   7.195  12.852   2.335 -1.3508  0.9290  1.1304
  144MOL0     C19344   7.322  12.878   2.249 -0.5267 -1.1587 -0.2808
  144MOL0     C19345   7.432  12.945   2.343  1.1356  0.7814  0.9965
  144MOL0     C19346   7.517  12.859   2.433 -0.5187  0.3957 -1.3897
  144MOL0     C19347   7.636  12.924   2.500 -0.1871 -0.2500 -0.6787
  144MOL0     C19348   7.708  12.812   2.575 -0.2040 -0.1634  0.4613
  144MOL0    Cl19349   7.811  12.730   2.462  0.0587 -0.0199  0.3621
  144MOL0     C19350   7.218  12.377   2.510 -0.3448 -0.2664 -0.3116
  144MOL0     C19351   7.265  12.263   2.579 -0.0832 -0.0331 -0.1806
  144MOL0     O19352   7.548  12.241   2.805 -0.6644 -0.6699 -0.2394
  144MOL0     C19353   7.547  11.893   2.764  0.3103  0.1782 -1.0874
  144MOL0     C19354   7.625  11.784   2.818  0.3281  0.0223 -0.4649
  144MOL0     N19355   8.309  11.485   2.860  0.0323 -0.3129 -0.7157
  144MOL0     N19356   8.422  11.457   2.911  0.1116  0.1265 -0.8918
  144MOL0     C19357   8.714  11.544   4.035  0.1507 -0.2548  0.7095
  144MOL0     C19358   8.758  11.488   4.158  0.0034  0.2093  0.6105
  144MOL0     C19359   8.847  11.195   4.495 -1.1715 -0.4280 -0.1053
  144MOL0     C19360   8.829  11.232   4.624  0.5015 -0.1833 -0.4444
  144MOL0     C19361   8.915  11.174   4.721 -0.0684 -1.1371 -0.5330
  144MOL0     C19362   9.003  11.076   4.676  0.3453  0.1767 -0.7553
  144MOL0     O19363   9.108  11.024   4.756 -0.7671  0.5542  0.5655
  144MOL0     C19364   9.104  11.027   4.892  0.2951 -0.5662 -0.9103
  144MOL0     C19365   9.217  10.939   4.940  0.2156  0.1832  0.4663
  144MOL0     C19366   9.357  10.985   4.899  0.0354 -1.0690 -0.4887
  144MOL0     C19367   9.451  10.869   4.878 -0.0496  0.0948 -0.4657
  144MOL0     C19368   9.600  10.893   4.878  0.2217 -0.7513 -0.8295
  144MOL0     C19369   9.717  10.922   4.860 -0.5516  0.0890  0.3320
  144MOL0     C19370   9.016  11.041   4.546  0.3550 -0.9786 -0.2553
  144MOL0     C19371   8.928  11.087   4.457 -0.8683 -0.1343  0.0682
  144MOL0     C19372   8.935  11.041   4.312  0.5243 -0.2360  0.0878
  144MOL0     H19373   8.748  11.157   4.071  0.4593 -0.1990  0.1329
  144MOL0     H19374   8.675  11.252   3.859 -2.3223  0.9093 -0.5448
  144MOL0     H19375   8.577  11.696   3.842 -0.1808  0.6914 -1.1128
  144MOL0     H19376   8.749  11.699   3.790  0.7984 -1.4142  0.0184
  144MOL0     H19377   8.594  11.806   3.638  3.6160 -0.3231 -2.7383
  144MOL0     H19378   8.497  11.657   3.625 -0.3035  0.0542  2.1959
  144MOL0     H19379   8.742  11.573   3.558 -1.9669 -0.4049  1.8924
  144MOL0     H19380   8.751  11.754   3.504  1.2256  0.0881 -1.1345
  144MOL0     H19381   8.528  11.699   3.375 -0.4757  1.0570  1.2373
  144MOL0     H19382   8.686  11.651   3.311  2.7814 -0.8414  1.7466
  144MOL0     H19383   8.657  11.434   3.416  0.1607 -2.0797  0.4993
  144MOL0     H19384   8.492  11.462   3.462  1.0632 -1.5265  0.9526
  144MOL0     H19385   8.417  11.518   3.229 -0.8303 -1.1681  2.0826
  144MOL0     H19386   8.581  11.518   3.178  0.4920  3.0409  1.0192
  144MOL0     H19387   8.423  11.261   3.262  1.2356 -1.0652  1.7162
  144MOL0     H19388   8.602  11.274   3.263  0.7980  0.1442 -2.3804
  144MOL0     H19389   8.611  11.318   3.019 -0.3029 -1.3945 -1.3459
  144MOL0     H19390   8.521  11.174   3.052 -0.7921  0.1080  0.0560
  144MOL0     H19391   8.243  11.220   3.055 -1.7436  0.6009  1.8028
  144MOL0     H19392   8.075  11.424   2.765  1.6777 -1.1935 -0.8348
  144MOL0     H19393   8.037  11.289   2.873 -1.2618  0.5723 -1.3147
  144MOL0     H19394   7.991  11.462   3.067  0.4766  1.3284 -0.2794
  144MOL0     H19395   8.005  11.583   2.949  1.2529  0.1020  1.5392
  144MOL0     H19396   7.793  11.359   2.960  2.6486 -0.8130  0.6662
  144MOL0     H19397   7.785  11.475   2.828  0.2091  0.8365  1.1469
  144MOL0     H19398   7.761  11.531   3.118  1.2437  1.9388  0.2548
  144MOL0     H19399   7.631  11.557   3.000  0.6481 -1.4657 -0.3669
  144MOL0     H19400   7.800  11.950   3.056 -1.2462  0.6025  0.4336
  144MOL0     H19401   7.690  12.128   2.952 -0.5112  0.5415 -0.7228
  144MOL0     H19402   7.598  12.284   2.525  0.3051  3.0857 -0.8359
  144MOL0     H19403   7.506  12.486   2.383 -1.1903  1.4699  1.1845
  144MOL0     H19404   7.085  12.533   2.274  0.5658  0.7889 -0.4205
  144MOL0     H19405   7.061  12.608   2.437 -0.6747  0.1735  0.7330
  144MOL0     H19406   7.149  12.732   2.164  1.0494  1.8380  0.3949
  144MOL0     H19407   7.008  12.762   2.254 -0.3310  1.5234 -0.2639
  144MOL0     H19408   7.126  12.936   2.331 -0.1641  2.0790  3.1599
  144MOL0     H19409   7.221  12.826   2.438  0.2102  1.0949  0.7966
  144MOL0     H19410   7.306  12.951   2.169 -3.9746  0.3982  1.6096
  144MOL0     H19411   7.360  12.791   2.194 -1.1542  0.6602 -3.8259
  144MOL0     H19412   7.375  13.021   2.397 -0.6426  0.3709 -0.2212
  144MOL0     H19413   7.503  12.997   2.278  1.5546 -0.2765  0.5739
  144MOL0     H19414   7.456  12.802   2.503 -2.7229  1.7701 -2.0833
  144MOL0     H19415   7.556  12.776   2.373 -2.1186 -1.9706  0.6587
  144MOL0     H19416   7.602  13.007   2.563  2.4224 -0.3632  1.0011
  144MOL0     H19417   7.714  12.969   2.438  1.4220 -0.5600  1.0471
  144MOL0     H19418   7.769  12.842   2.660  3.0227 -4.0933 -0.1787
  144MOL0     H19419   7.641  12.743   2.625  0.3626  0.4690  2.1611
  144MOL0     H19420   7.111  12.393   2.511 -0.6986 -2.2053  1.7900
  144MOL0     H19421   7.191  12.201   2.628 -0.0498  0.5490  0.6219
  144MOL0     H19422   7.487  11.885   2.674 -0.3455  0.3672 -0.6711
  144MOL0     H19423   7.613  11.683   2.779  0.4044 -0.4030  0.5886
  144MOL0     H19424   8.705  11.652   4.031  0.9368 -0.0487  3.3109
  144MOL0     H19425   8.780  11.540   4.251  0.8263 -1.3740  1.3323
  144MOL0     H19426   8.742  11.295   4.635  1.1794  0.7369 -0.1989
  144MOL0     H19427   8.899  11.204   4.824 -0.4271 -0.0151 -0.9005
  144MOL0     H19428   9.004  10.994   4.921  0.7177 -0.3557  0.9282
  144MOL0     H19429   9.114  11.123   4.944  0.2171  0.4612 -2.7188
  144MOL0     H19430   9.188  10.842   4.897 -0.9214  0.2145  1.1303
  144MOL0     H19431   9.212  10.932   5.049  2.2126  2.1441  0.7563
  144MOL0     H19432   9.394  11.052   4.978 -1.7725 -0.4765 -0.0866
  144MOL0     H19433   9.349  11.029   4.799 -3.7133  2.5008  1.0516
  144MOL0     H19434   9.429  10.795   4.956  2.4103 -1.2674 -0.9653
  144MOL0     H19435   9.428  10.818   4.784 -1.3896 -0.2237  0.0096
  144MOL0     H19436   9.813  10.960   4.833  0.3634 -1.1749  1.6651
  144MOL0     H19437   9.096  10.974   4.515  0.5475 -0.5094 -0.7972
  144MOL0     H19438   8.993  10.948   4.308 -3.2227 -2.7571 -0.2951
  144MOL0     H19439   8.835  11.015   4.277 -0.2489  0.2432  1.8457
  144MOL0     H19440   8.981  11.112   4.242  1.4914  0.9361  1.8240
  145MOL0     O19441   3.149   0.764   9.111 -0.5297 -0.4597 -0.4850
  145MOL0     C19442   3.174   0.850   9.030 -0.7400  0.3192 -0.2079
  145MOL0     O19443   3.302   0.899   9.002  0.1205 -0.0031  0.0923
  145MOL0     C19444   3.392   0.880   9.095 -0.1782  1.1877 -0.1015
  145MOL0     C19445   3.478   0.765   9.082  0.3629 -0.0089  0.1462
  145MOL0     C19446   3.573   0.737   9.177 -0.2569 -0.1571 -0.9335
  145MOL0     C19447   3.594   0.811   9.291 -0.0522 -0.6465  0.5914
  145MOL0     O19448   3.696   0.785   9.377  0.2525  0.0237 -0.0166
  145MOL0     C19449   3.822   0.813   9.310  0.5150 -0.0603 -0.8324
  145MOL0     C19450   3.852   0.965   9.296 -0.3469  0.4428 -0.3992
  145MOL0     C19451   3.926   1.047   9.403 -1.0801 -0.2090 -0.5939
  145MOL0     C19452   4.077   1.037   9.395  0.4083  0.4379  0.0927
  145MOL0     C19453   4.136   0.901   9.434  0.3782 -0.3266  0.5263
  145MOL0     C19454   4.257   0.905   9.527 -0.1826 -0.0849 -0.1754
  145MOL0     C19455   4.372   0.981   9.450  0.2769 -0.7840 -0.2511
  145MOL0     C19456   4.488   1.017   9.551  0.4171  0.0264  0.0707
  145MOL0     N19457   4.555   0.892   9.600 -0.2458  0.0999  0.4873
  145MOL0     C19458   4.555   0.854   9.731  1.1642 -0.5113 -0.1472
  145MOL0     C19459   4.629   0.741   9.735  0.7500  0.5246 -0.2763
  145MOL0     C19460   4.647   0.646   9.851  0.7874 -0.1505  0.4545
  145MOL0     C19461   4.782   0.574   9.845  0.7110  0.3853 -0.0835
  145MOL0     C19462   4.796   0.462   9.945  0.4751  0.9165  0.0880
  145MOL0     C19463   4.931   0.401   9.964  0.7330  0.7895  0.0423
  145MOL0     O19464   4.914   0.258   9.995 -0.7715  0.0057  0.6281
  145MOL0     C19465   5.031   0.195  10.029  0.0991  0.0176 -0.3888
  145MOL0     C19466   5.033   0.058  10.028 -0.1413 -0.6244  0.4251
  145MOL0     C19467   5.155  -0.009  10.066  0.1305  0.8108  0.4308
  145MOL0     C19468   5.270   0.067  10.118  0.4458 -0.2675 -0.6831
  145MOL0     C19469   5.381  -0.000  10.196  0.0443  0.4534 -0.4477
  145MOL0     O19470   5.489   0.069  10.221 -0.1006 -0.3872 -0.1047
  145MOL0     C19471   5.574   0.004  10.305  1.5325  0.3383 -0.2385
  145MOL0     C19472   5.692  -0.039  10.248  0.5287  0.2088  0.8636
  145MOL0     C19473   5.786  -0.116  10.323  0.4255 -0.4060 -1.0607
  145MOL0     C19474   5.765  -0.135  10.459  0.5816  0.5281  0.4413
  145MOL0     O19475   5.855  -0.212  10.517  0.7203 -0.8183 -0.6411
  145MOL0     C19476   5.870  -0.196  10.654  0.7178  0.6318  0.5060
  145MOL0     C19477   5.996  -0.274  10.686  1.4571 -0.8005 -0.1096
  145MOL0     C19478   6.001  -0.416  10.659 -0.7489  0.3988 -0.1329
  145MOL0     C19479   5.868  -0.484  10.682 -0.2932 -0.6613  0.1771
  145MOL0     C19480   5.889  -0.627  10.667  0.3847 -0.7618  0.5883
  145MOL0     C19481   5.777  -0.713  10.718 -0.9113 -0.5094  0.2131
  145MOL0     C19482   5.813  -0.859  10.754 -0.3422 -0.1765  0.2373
  145MOL0     C19483   5.698  -0.926  10.818  0.2404  0.7560 -0.3220
  145MOL0    Cl19484   5.545  -0.945  10.724  0.0044  0.4179 -0.1654
  145MOL0     C19485   5.648  -0.090  10.516  0.2039  0.9015  0.2942
  145MOL0     C19486   5.556  -0.012  10.438  0.1321  0.5079 -0.1877
  145MOL0     O19487   5.362  -0.121  10.217 -0.3628  0.4378  0.0469
  145MOL0     C19488   5.261   0.203  10.115 -0.5406 -0.3708 -0.2663
  145MOL0     C19489   5.150   0.262  10.065 -0.5488  0.2433  0.3350
  145MOL0     N19490   4.671   0.710   9.614  0.2201 -0.0664 -1.2908
  145MOL0     N19491   4.637   0.800   9.540  0.0763 -0.5993 -0.2316
  145MOL0     C19492   3.506   0.921   9.317  0.5536  0.0197 -1.0028
  145MOL0     C19493   3.413   0.960   9.215 -0.0008 -0.1897 -0.8071
  145MOL0     C19494   3.053   0.908   8.955  0.4294 -0.6248  1.0518
  145MOL0     C19495   3.082   1.009   8.866 -0.3448  0.6944 -0.0366
  145MOL0     C19496   2.982   1.056   8.783  0.4945  0.1976  0.2568
  145MOL0     C19497   2.853   1.026   8.800 -0.2252  0.4296  0.5421
  145MOL0     O19498   2.740   1.077   8.733 -0.1451 -0.7436  1.0576
  145MOL0     C19499   2.751   1.211   8.679  0.4734 -0.5073 -0.1481
  145MOL0     C19500   2.720   1.308   8.793 -0.5106 -1.1161  0.5584
  145MOL0     C19501   2.693   1.449   8.720 -0.3784  0.6586 -0.4691
  145MOL0     C19502   2.622   1.539   8.812 -0.7681 -0.5091 -0.2195
  145MOL0     C19503   2.483   1.498   8.818  0.3360  0.4215 -0.2959
  145MOL0     C19504   2.366   1.464   8.817  0.6326  0.3635 -0.2276
  145MOL0     C19505   2.820   0.929   8.890 -0.4979 -0.1021  0.1270
  145MOL0     C19506   2.910   0.866   8.968 -1.5148 -0.1728  0.7583
  145MOL0     C19507   2.856   0.772   9.078 -0.0724 -0.2548  0.2172
  145MOL0     H19508   3.464   0.708   8.991  0.9892  3.5344 -2.3969
  145MOL0     H19509   3.641   0.653   9.169  1.0214  0.6135  1.1654
  145MOL0     H19510   3.892   0.754   9.369  0.0006 -0.5728 -0.7217
  145MOL0     H19511   3.845   0.787   9.206 -0.9542  2.6173 -1.9328
  145MOL0     H19512   3.754   1.014   9.298 -2.3841 -3.2454 -0.3271
  145MOL0     H19513   3.904   0.983   9.201 -1.6568  2.6454 -0.7881
  145MOL0     H19514   3.891   1.003   9.497 -2.1005 -0.3862 -1.0461
  145MOL0     H19515   3.897   1.150   9.383 -1.8682 -1.0146 -4.4855
  145MOL0     H19516   4.115   1.068   9.298 -0.8991  0.3714 -0.4547
  145MOL0     H19517   4.121   1.107   9.467 -0.1430  0.9871 -0.1011
  145MOL0     H19518   4.060   0.842   9.486 -3.8036  3.0514 -1.0283
  145MOL0     H19519   4.166   0.842   9.347 -2.3241  0.5729 -1.1747
  145MOL0     H19520   4.223   0.944   9.624  0.8610 -1.0895  0.6264
  145MOL0     H19521   4.301   0.806   9.536  0.0877  0.1105  0.7322
  145MOL0     H19522   4.316   1.067   9.413 -0.1419 -1.9732 -2.5787
  145MOL0     H19523   4.406   0.922   9.364 -1.6987 -1.3625 -0.6903
  145MOL0     H19524   4.564   1.069   9.493  1.3360 -1.9903 -0.6336
  145MOL0     H19525   4.465   1.080   9.637  2.8180 -1.6271  2.0918
  145MOL0     H19526   4.512   0.913   9.811  0.6219 -1.3537  0.1954
  145MOL0     H19527   4.653   0.707   9.942  2.1483 -0.1667  0.3983
  145MOL0     H19528   4.559   0.582   9.869  1.5067 -2.6849 -3.7069
  145MOL0     H19529   4.786   0.539   9.742  0.7408 -0.3416  0.1629
  145MOL0     H19530   4.866   0.644   9.857 -0.7493  2.0071  1.1590
  145MOL0     H19531   4.738   0.380   9.902  1.2053  0.5869 -0.2794
  145MOL0     H19532   4.752   0.481  10.044  1.4081 -2.4476  1.2826
  145MOL0     H19533   4.974   0.446  10.053 -0.8385  0.7653  0.8505
  145MOL0     H19534   4.990   0.423   9.874  1.8437 -0.3590  0.4627
  145MOL0     H19535   4.949  -0.001   9.994  0.4076 -0.2401 -1.7615
  145MOL0     H19536   5.159  -0.117  10.069 -0.8238  0.6647 -1.5778
  145MOL0     H19537   5.707  -0.009  10.145  1.4841  0.7618  1.1415
  145MOL0     H19538   5.857  -0.174  10.266 -0.6436 -2.4862 -0.3757
  145MOL0     H19539   5.888  -0.091  10.681 -1.0264  1.4746 -1.3996
  145MOL0     H19540   5.787  -0.238  10.710  1.7125  0.1811  1.7015
  145MOL0     H19541   6.075  -0.214  10.638 -1.6161  2.9506 -1.0177
  145MOL0     H19542   6.023  -0.266  10.792  1.7501  0.1384 -0.2465
  145MOL0     H19543   6.034  -0.431  10.556 -1.0986  0.6571 -0.2818
  145MOL0     H19544   6.072  -0.464  10.727 -0.7836  0.4169 -0.0845
  145MOL0     H19545   5.797  -0.458  10.603 -1.1441 -0.8678  0.8573
  145MOL0     H19546   5.830  -0.464  10.783  0.6461 -0.5916  0.5347
  145MOL0     H19547   5.980  -0.659  10.720  0.6690 -1.0550 -0.0647
  145MOL0     H19548   5.911  -0.651  10.562 -0.7079 -0.0340  0.1784
  145MOL0     H19549   5.740  -0.660  10.807  1.5188 -2.7436  2.7378
  145MOL0     H19550   5.694  -0.730  10.649 -0.7396 -2.8885  0.5126
  145MOL0     H19551   5.903  -0.860  10.816 -1.8678 -1.1663  2.6038
  145MOL0     H19552   5.838  -0.906  10.659 -2.4600 -3.0377  0.9407
  145MOL0     H19553   5.725  -1.031  10.829  1.0415  0.4773 -3.8018
  145MOL0     H19554   5.680  -0.894  10.921 -4.1797 -2.0408  0.0491
  145MOL0     H19555   5.622  -0.106  10.620  3.1065  2.5036  1.3722
  145MOL0     H19556   5.474   0.028  10.497  0.6544 -0.2902  1.1233
  145MOL0     H19557   5.343   0.267  10.147  0.8690 -0.9610 -2.4439
  145MOL0     H19558   5.165   0.370  10.060 -3.5155  0.6869 -2.4911
  145MOL0     H19559   3.508   0.971   9.413 -0.9620  0.8726 -1.3735
  145MOL0     H19560   3.351   1.045   9.241  0.1716 -0.6384  1.2742
  145MOL0     H19561   3.179   1.057   8.858  0.3472 -0.4416  1.1122
  145MOL0     H19562   3.008   1.123   8.702 -3.2212  1.5871  0.0086
  145MOL0     H19563   2.683   1.206   8.594  0.6272 -2.5339 -0.2151
  145MOL0     H19564   2.850   1.244   8.644  0.3311 -0.2805 -0.3339
  145MOL0     H19565   2.798   1.323   8.868 -2.2684  0.1960  2.2350
  145MOL0     H19566   2.628   1.267   8.835 -2.5043  2.1152 -0.3065
  145MOL0     H19567   2.623   1.427   8.639 -2.6886  1.4845  1.1896
  145MOL0     H19568   2.785   1.494   8.683  2.3330 -3.8074  0.0728
  145MOL0     H19569   2.656   1.549   8.916 -1.6496 -2.7116  0.3401
  145MOL0     H19570   2.626   1.639   8.768 -1.1399 -0.6774 -0.6386
  145MOL0     H19571   2.265   1.435   8.794 -0.4151  2.4523  1.3794
  145MOL0     H19572   2.715   0.915   8.913 -0.0457 -1.1945  1.6230
  145MOL0     H19573   2.749   0.761   9.055 -0.3706  3.9328 -1.2266
  145MOL0     H19574   2.912   0.678   9.080 -0.1947 -0.3268  2.0277
  145MOL0     H19575   2.853   0.819   9.177  0.6510  2.4407 -0.9725
  146MOL0     O19576   6.053   0.110   6.464 -0.1695 -0.7765  0.0794
  146MOL0     C19577   6.063   0.220   6.523  0.3158  0.2829 -0.5383
  146MOL0     O19578   5.998   0.326   6.500  0.3287  0.8417 -0.4404
  146MOL0     C19579   5.919   0.328   6.389 -0.3549  0.0433  0.0180
  146MOL0     C19580   5.790   0.384   6.414  0.3674  1.2753  0.4445
  146MOL0     C19581   5.703   0.403   6.305 -1.2335  0.5812  0.2525
  146MOL0     C19582   5.737   0.352   6.176 -0.5136 -1.3828 -0.3941
  146MOL0     O19583   5.641   0.392   6.087 -0.1436 -0.6223  0.1509
  146MOL0     C19584   5.685   0.407   5.946 -1.1631 -0.0869  0.2017
  146MOL0     C19585   5.571   0.375   5.863  0.7822  0.2398 -0.2375
  146MOL0     C19586   5.445   0.465   5.880 -0.3661  0.5218 -0.8919
  146MOL0     C19587   5.341   0.451   5.770 -0.0883 -0.3300  0.2416
  146MOL0     C19588   5.203   0.498   5.803  0.1216  0.5424 -0.0635
  146MOL0     C19589   5.113   0.382   5.863 -0.0713  1.0520 -0.2451
  146MOL0     C19590   4.962   0.416   5.844 -0.0858 -0.0770  0.6494
  146MOL0     C19591   4.876   0.347   5.950  0.5530 -0.6234  0.6668
  146MOL0     N19592   4.873   0.198   5.949  0.1407 -0.4092 -0.7982
  146MOL0     C19593   4.903   0.118   6.055  0.8709 -0.2496  0.0055
  146MOL0     C19594   4.927  -0.006   6.001 -0.0496  0.1168  1.0679
  146MOL0     C19595   4.991  -0.132   6.066 -1.1078  0.0382  0.5720
  146MOL0     C19596   4.887  -0.234   6.079  0.0861  0.5858  0.6122
  146MOL0     C19597   4.952  -0.369   6.116 -0.3634  0.8284 -0.1575
  146MOL0     C19598   4.851  -0.479   6.130  0.7897 -0.5606  0.4680
  146MOL0     O19599   4.782  -0.499   6.015  0.0560  0.6730  0.3861
  146MOL0     C19600   4.682  -0.589   5.994 -0.1213 -0.7939  0.2360
  146MOL0     C19601   4.653  -0.689   6.086  0.0973  0.2273  0.6425
  146MOL0     C19602   4.561  -0.794   6.061  0.9720 -1.1861  1.2934
  146MOL0     C19603   4.486  -0.792   5.940  0.3476  0.6288  0.4676
  146MOL0     C19604   4.381  -0.888   5.920 -0.6215 -0.4510  1.1595
  146MOL0     O19605   4.357  -0.931   5.785 -0.1620 -0.1933  0.3914
  146MOL0     C19606   4.232  -0.975   5.750  0.0524 -0.0992  0.7225
  146MOL0     C19607   4.112  -0.949   5.821  0.3575 -1.0751  0.6730
  146MOL0     C19608   3.989  -1.007   5.787 -0.4854 -0.2714  0.2408
  146MOL0     C19609   3.983  -1.105   5.678 -0.4686  0.0312 -0.0799
  146MOL0     O19610   3.863  -1.174   5.657  0.4054 -0.2614 -0.2093
  146MOL0     C19611   3.854  -1.250   5.537 -0.2356 -0.1684 -0.3233
  146MOL0     C19612   3.745  -1.355   5.559  0.3662  0.1462 -0.3135
  146MOL0     C19613   3.780  -1.452   5.675 -0.0701  0.7370 -0.9076
  146MOL0     C19614   3.705  -1.580   5.662  1.0261  0.2044 -0.6560
  146MOL0     C19615   3.744  -1.691   5.766 -0.2039 -0.6693 -0.3214
  146MOL0     C19616   3.691  -1.832   5.741  0.2690 -0.1252 -0.1829
  146MOL0     C19617   3.560  -1.827   5.666 -0.7750  0.0706 -0.8239
  146MOL0     C19618   3.509  -1.974   5.644 -0.7018  0.4853 -0.5007
  146MOL0    Cl19619   3.339  -1.989   5.594  0.2615  0.0262 -0.1859
  146MOL0     C19620   4.109  -1.112   5.598  0.9170  0.3463  1.1433
  146MOL0     C19621   4.227  -1.053   5.636  0.3471  0.9184  0.0465
  146MOL0     O19622   4.333  -0.938   6.016  1.2923  0.1091  0.2615
  146MOL0     C19623   4.513  -0.698   5.841 -0.2363  0.2203 -0.6876
  146MOL0     C19624   4.609  -0.597   5.868 -1.1282  0.6386 -0.3720
  146MOL0     N19625   4.900  -0.001   5.866 -0.3917  0.1478  0.0566
  146MOL0     N19626   4.874   0.121   5.841 -0.0028  0.3654 -0.4139
  146MOL0     C19627   5.871   0.303   6.153  0.4120  0.3684 -0.9180
  146MOL0     C19628   5.948   0.276   6.263 -0.3511  0.4261  0.3592
  146MOL0     C19629   6.173   0.212   6.627 -0.1074  0.2928 -0.5175
  146MOL0     C19630   6.245   0.085   6.642  0.0295 -0.4074  0.0972
  146MOL0     C19631   6.337   0.065   6.749  0.0325  0.0821 -0.9424
  146MOL0     C19632   6.368   0.162   6.843  0.0647  0.1637  0.2153
  146MOL0     O19633   6.465   0.162   6.943 -0.6023  0.1188 -0.2999
  146MOL0     C19634   6.531   0.037   6.962  0.1297 -0.0780  0.4272
  146MOL0     C19635   6.646   0.053   7.071 -0.0770 -0.8857 -0.1622
  146MOL0     C19636   6.602   0.084   7.216 -0.4101  0.6645 -0.4487
  146MOL0     C19637   6.722   0.059   7.313 -0.3851 -0.3772  0.5570
  146MOL0     C19638   6.672   0.063   7.453  0.1558 -0.8569  0.7719
  146MOL0     C19639   6.624   0.061   7.565  0.0699  0.6566  0.2851
  146MOL0     C19640   6.307   0.288   6.821  0.1588  0.6021 -0.8383
  146MOL0     C19641   6.208   0.315   6.723  0.6742  0.8767  0.2164
  146MOL0     C19642   6.140   0.454   6.732  0.5023 -0.7537  0.0400
  146MOL0     H19643   5.766   0.430   6.509  0.0095 -1.6868  1.9163
  146MOL0     H19644   5.618   0.460   6.341 -0.2487  0.6575  2.6368
  146MOL0     H19645   5.719   0.510   5.931  1.9368 -1.1971 -1.3882
  146MOL0     H19646   5.771   0.346   5.918 -2.3192 -1.6030 -0.2214
  146MOL0     H19647   5.551   0.270   5.884 -0.5389  0.4909 -0.1503
  146MOL0     H19648   5.591   0.395   5.757 -0.1079  4.8653  0.2627
  146MOL0     H19649   5.471   0.570   5.891 -2.7825  0.9827  1.3178
  146MOL0     H19650   5.392   0.440   5.972 -1.9112  1.4550 -1.4946
  146MOL0     H19651   5.379   0.493   5.676 -0.2685 -1.1879 -0.2304
  146MOL0     H19652   5.337   0.345   5.743 -0.4455 -0.4364  0.7036
  146MOL0     H19653   5.216   0.577   5.876  1.9211  1.3667 -1.2062
  146MOL0     H19654   5.171   0.532   5.704 -1.6586 -0.6508  0.0464
  146MOL0     H19655   5.125   0.293   5.802 -1.3877  1.1996 -0.7628
  146MOL0     H19656   5.128   0.354   5.968 -2.4885 -2.1711 -0.6253
  146MOL0     H19657   4.926   0.395   5.743  2.8753 -0.4083 -0.4496
  146MOL0     H19658   4.947   0.521   5.870 -2.2115 -0.2779  0.3617
  146MOL0     H19659   4.917   0.371   6.049 -1.0101 -0.1612  1.2225
  146MOL0     H19660   4.780   0.398   5.940  0.7520 -0.7607 -3.9515
  146MOL0     H19661   4.934   0.148   6.155  0.9626 -2.6319  0.7606
  146MOL0     H19662   5.071  -0.178   6.007 -2.1989 -2.0351  0.6321
  146MOL0     H19663   5.045  -0.099   6.155 -0.3602  1.2572 -0.2855
  146MOL0     H19664   4.822  -0.213   6.165 -1.9962 -4.0225  0.4408
  146MOL0     H19665   4.834  -0.246   5.984 -0.6841 -1.7605  1.2636
  146MOL0     H19666   4.984  -0.362   6.220  2.6453  3.0424 -1.0558
  146MOL0     H19667   5.032  -0.406   6.051  0.8608 -1.9385  2.6906
  146MOL0     H19668   4.778  -0.439   6.202 -1.4893 -2.7752 -0.4365
  146MOL0     H19669   4.891  -0.569   6.176  1.4958  0.7943  2.6809
  146MOL0     H19670   4.695  -0.677   6.186  2.7244 -1.8314 -0.0938
  146MOL0     H19671   4.542  -0.872   6.134 -1.3060 -0.2713  1.7315
  146MOL0     H19672   4.118  -0.899   5.917  1.1897 -1.0260  0.5986
  146MOL0     H19673   3.907  -0.981   5.854 -2.0838 -2.2453 -0.8418
  146MOL0     H19674   3.830  -1.184   5.453  0.4143 -0.1084 -0.4728
  146MOL0     H19675   3.942  -1.309   5.510 -1.1642 -2.4423  1.3498
  146MOL0     H19676   3.653  -1.299   5.582 -0.5574 -0.4027 -2.3817
  146MOL0     H19677   3.729  -1.395   5.458 -0.1343  1.8712 -0.9574
  146MOL0     H19678   3.887  -1.473   5.672  0.2093  2.1914 -2.5228
  146MOL0     H19679   3.759  -1.414   5.776  1.6778 -1.6936  0.4805
  146MOL0     H19680   3.726  -1.614   5.560 -0.0257 -1.8039 -0.2483
  146MOL0     H19681   3.598  -1.560   5.674  1.0435  0.5842 -1.1065
  146MOL0     H19682   3.710  -1.646   5.859 -0.1428  1.4307 -1.2490
  146MOL0     H19683   3.851  -1.701   5.787  0.2314  1.5431 -1.2195
  146MOL0     H19684   3.772  -1.885   5.690  1.0431  1.0719 -0.2429
  146MOL0     H19685   3.689  -1.877   5.841 -2.3910  0.2254 -0.0033
  146MOL0     H19686   3.589  -1.782   5.571 -0.6155 -1.2178 -1.4134
  146MOL0     H19687   3.485  -1.771   5.723 -2.5169 -3.4994  0.7185
  146MOL0     H19688   3.576  -2.022   5.572 -1.2805  2.5998 -2.5613
  146MOL0     H19689   3.531  -2.020   5.740  0.9464  2.1361 -0.0554
  146MOL0     H19690   4.110  -1.172   5.508  2.1246  2.5187 -0.3949
  146MOL0     H19691   4.316  -1.089   5.585 -0.2712 -0.0924 -0.3344
  146MOL0     H19692   4.465  -0.695   5.744  0.0378  2.7485 -0.7938
  146MOL0     H19693   4.603  -0.517   5.796 -1.4641  0.5859 -0.4033
  146MOL0     H19694   5.906   0.262   6.058  1.2302 -0.1038 -0.4218
  146MOL0     H19695   6.040   0.220   6.248  1.0276  2.5741  0.4242
  146MOL0     H19696   6.231   0.002   6.573  2.7372  0.3702 -1.5169
  146MOL0     H19697   6.375  -0.035   6.766  2.7762  1.4042  1.5473
  146MOL0     H19698   6.578   0.006   6.868  0.5788 -1.8733  1.2169
  146MOL0     H19699   6.464  -0.044   6.992  3.7695 -2.6594  2.3079
  146MOL0     H19700   6.708   0.132   7.027 -0.4823 -0.5858 -0.2013
  146MOL0     H19701   6.700  -0.042   7.077  2.5285  0.3699 -2.0063
  146MOL0     H19702   6.514   0.027   7.250 -0.0817  0.8369  0.7327
  146MOL0     H19703   6.571   0.188   7.227 -0.4333  0.3689  4.9215
  146MOL0     H19704   6.777  -0.032   7.286 -0.7644  0.3317 -3.2813
  146MOL0     H19705   6.788   0.145   7.293 -1.1218  0.8179  2.9153
  146MOL0     H19706   6.583   0.027   7.658  0.7765  1.8407  1.0726
  146MOL0     H19707   6.329   0.376   6.881 -4.0467  1.0328  0.4290
  146MOL0     H19708   6.033   0.451   6.755  0.2338  3.3862  0.2398
  146MOL0     H19709   6.183   0.536   6.792 -1.2863 -0.6768  1.3138
  146MOL0     H19710   6.147   0.493   6.630  2.9773  2.8304  1.3505
  147MOL0     O19711   8.982  10.742   3.832 -0.2229 -0.3428 -0.1736
  147MOL0     C19712   8.904  10.767   3.738 -0.1234 -0.1594  0.2053
  147MOL0     O19713   8.872  10.889   3.694 -0.2437  0.5666  0.2626
  147MOL0     C19714   8.939  10.999   3.745  0.2709  0.1421  0.6989
  147MOL0     C19715   9.000  11.093   3.661  0.1835 -0.3731  0.4983
  147MOL0     C19716   9.055  11.213   3.708  0.8102 -0.0878 -0.1787
  147MOL0     C19717   9.041  11.244   3.841  0.1644  0.0232  0.6520
  147MOL0     O19718   9.098  11.357   3.899  0.5164  0.8173 -0.0354
  147MOL0     C19719   9.048  11.482   3.847 -0.1747 -0.6425  0.0139
  147MOL0     C19720   9.166  11.573   3.802 -0.4774 -0.1429  0.3739
  147MOL0     C19721   9.118  11.693   3.736  0.6714 -0.0420 -0.0744
  147MOL0     C19722   9.122  11.689   3.584  0.1722  0.2486 -0.6115
  147MOL0     C19723   9.111  11.819   3.512 -0.2512  0.2169 -0.0187
  147MOL0     C19724   9.081  11.792   3.362  0.0899 -0.4399 -0.5385
  147MOL0     C19725   9.105  11.932   3.281  0.7111 -0.0636 -0.2363
  147MOL0     C19726   9.106  11.922   3.125  0.1751 -0.4330 -0.2691
  147MOL0     N19727   9.223  11.852   3.077 -0.2210 -0.6948 -0.6355
  147MOL0     C19728   9.348  11.897   3.064 -0.1374  0.5097  0.9841
  147MOL0     C19729   9.427  11.806   3.016  0.0916 -0.6075 -0.1904
  147MOL0     C19730   9.579  11.812   2.981 -0.7146 -0.9623  0.6563
  147MOL0     C19731   9.596  11.862   2.837  0.5990 -0.5910 -0.5785
  147MOL0     C19732   9.740  11.851   2.791 -0.8833  0.4784 -0.1074
  147MOL0     C19733   9.785  11.709   2.790  0.5398 -0.2425 -0.1641
  147MOL0     O19734   9.905  11.688   2.707  0.5784 -0.1828 -0.4982
  147MOL0     C19735  10.025  11.664   2.773  0.7553  0.0217 -0.0993
  147MOL0     C19736  10.109  11.769   2.801  0.3342 -1.1279  0.1661
  147MOL0     C19737  10.228  11.745   2.865 -0.4216  0.3498 -0.6639
  147MOL0     C19738  10.267  11.615   2.906 -0.8795  0.1629  0.8070
  147MOL0     C19739  10.386  11.588   2.983  0.1327 -0.3445  0.0172
  147MOL0     O19740  10.485  11.681   2.963 -0.1076  0.2662  0.2681
  147MOL0     C19741  10.606  11.667   3.025  0.5734  0.1031  0.4018
  147MOL0     C19742  10.615  11.623   3.153  0.0031  0.5670  0.0473
  147MOL0     C19743  10.744  11.633   3.208  0.2120  0.7261 -0.3174
  147MOL0     C19744  10.854  11.682   3.144  0.9115 -0.1440 -0.8891
  147MOL0     O19745  10.974  11.667   3.212  0.4218 -0.2988 -0.0056
  147MOL0     C19746  11.048  11.557   3.165 -0.1998 -0.4436 -0.1292
  147MOL0     C19747  11.164  11.560   3.250 -1.0146 -0.4725  0.1088
  147MOL0     C19748  11.287  11.478   3.200 -0.4638 -0.9313  0.1440
  147MOL0     C19749  11.253  11.326   3.206 -0.5438  0.4186  0.7781
  147MOL0     C19750  11.380  11.247   3.171  0.5832 -1.6688  0.1280
  147MOL0     C19751  11.352  11.095   3.143 -0.0853  0.1427  0.1203
  147MOL0     C19752  11.491  11.011   3.135  1.1546  0.5378 -0.3284
  147MOL0     C19753  11.478  10.882   3.053 -0.0106  0.9440  1.1066
  147MOL0    Cl19754  11.351  10.758   3.108 -0.0656  0.4841 -0.2202
  147MOL0     C19755  10.848  11.729   3.009 -0.4839  1.0661 -1.7555
  147MOL0     C19756  10.721  11.723   2.951  0.2720 -0.1588  0.1724
  147MOL0     O19757  10.407  11.474   3.038  0.6172  0.3977  1.1938
  147MOL0     C19758  10.192  11.503   2.852 -0.9396 -0.3592  0.3010
  147MOL0     C19759  10.071  11.531   2.781 -0.0258 -0.2374  0.2069
  147MOL0     N19760   9.344  11.698   2.988  0.8315 -0.3383  0.0710
  147MOL0     N19761   9.219  11.732   3.029 -0.0972  0.1887  0.6579
  147MOL0     C19762   8.981  11.157   3.934  0.1824 -0.4108  0.0570
  147MOL0     C19763   8.921  11.039   3.887 -0.7029  0.1135 -0.5460
  147MOL0     C19764   8.840  10.659   3.672  0.7772  0.6696  0.7236
  147MOL0     C19765   8.861  10.646   3.536  0.6796 -0.3143  0.3998
  147MOL0     C19766   8.795  10.545   3.459  0.2184  0.1998 -1.0558
  147MOL0     C19767   8.708  10.460   3.525 -0.1368  0.3893  1.2876
  147MOL0     O19768   8.626  10.379   3.449 -0.7734  0.4917  0.0174
  147MOL0     C19769   8.486  10.423   3.440  0.5513  0.3185 -0.3055
  147MOL0     C19770   8.472  10.556   3.366  0.1852 -0.3814  0.2964
  147MOL0     C19771   8.525  10.551   3.222 -0.4897 -0.2932  0.0998
  147MOL0     C19772   8.566  10.696   3.185 -0.2263  0.3017 -0.7023
  147MOL0     C19773   8.692  10.681   3.103 -0.6741 -0.5193 -0.5285
  147MOL0     C19774   8.805  10.669   3.051  0.2094 -0.2902 -0.8234
  147MOL0     C19775   8.689  10.472   3.664  0.7226 -0.5803 -0.2349
  147MOL0     C19776   8.756  10.566   3.728  0.0502  0.3091 -0.4005
  147MOL0     C19777   8.741  10.561   3.875  0.9581  0.8838 -1.9017
  147MOL0     H19778   9.014  11.078   3.555  0.1756  1.9716  0.1101
  147MOL0     H19779   9.101  11.278   3.634 -0.5449  0.4774 -0.5460
  147MOL0     H19780   8.984  11.456   3.762  1.1752 -1.4275 -0.7961
  147MOL0     H19781   8.976  11.536   3.910 -0.4759 -1.0488  0.0245
  147MOL0     H19782   9.233  11.527   3.730 -1.1435  2.2567 -1.9644
  147MOL0     H19783   9.218  11.602   3.894 -0.1652 -0.3858  0.2726
  147MOL0     H19784   9.175  11.784   3.759  1.8011 -0.8081  0.2473
  147MOL0     H19785   9.013  11.703   3.766 -0.4603 -1.9973 -2.9580
  147MOL0     H19786   9.217  11.658   3.540  1.8719  2.9944  0.8808
  147MOL0     H19787   9.040  11.622   3.557  0.9948  0.0018 -2.7334
  147MOL0     H19788   9.026  11.879   3.545 -1.6085 -0.4466 -2.0805
  147MOL0     H19789   9.203  11.875   3.529 -2.1033  3.5614 -0.1261
  147MOL0     H19790   9.138  11.708   3.320 -1.1117 -1.8473  0.5110
  147MOL0     H19791   8.976  11.766   3.346 -0.1021  0.3496 -0.5686
  147MOL0     H19792   9.201  11.979   3.305 -0.5010  1.7077  1.4555
  147MOL0     H19793   9.027  11.998   3.320  0.7390 -0.8623  1.2747
  147MOL0     H19794   9.025  11.873   3.070 -0.0399 -0.4768  0.0909
  147MOL0     H19795   9.104  12.026   3.091  0.3313 -0.7484 -1.3007
  147MOL0     H19796   9.389  11.996   3.083  0.0945  0.7704 -0.7504
  147MOL0     H19797   9.619  11.882   3.055 -0.3892  1.8301 -1.9698
  147MOL0     H19798   9.601  11.706   2.999 -0.6893 -0.9879  0.4760
  147MOL0     H19799   9.529  11.808   2.769  1.5607 -1.0569 -1.1798
  147MOL0     H19800   9.566  11.967   2.842  1.0015 -0.5328  1.3346
  147MOL0     H19801   9.807  11.910   2.854  2.6197 -1.9412 -1.2562
  147MOL0     H19802   9.751  11.890   2.689 -3.0193  2.6071  0.4003
  147MOL0     H19803   9.702  11.644   2.760  1.6002 -1.5043 -0.5008
  147MOL0     H19804   9.803  11.680   2.894 -1.6210  1.1699  0.6688
  147MOL0     H19805  10.062  11.866   2.784 -0.1763 -1.4863 -0.5282
  147MOL0     H19806  10.306  11.816   2.890 -1.3367  0.2606  2.8724
  147MOL0     H19807  10.528  11.581   3.203  1.5587 -2.6132  0.3300
  147MOL0     H19808  10.769  11.603   3.310  5.7808  2.1765 -0.9372
  147MOL0     H19809  10.979  11.472   3.175 -0.1542 -0.4650  0.0069
  147MOL0     H19810  11.083  11.571   3.063  0.6235  0.3635  0.2429
  147MOL0     H19811  11.193  11.665   3.264  0.0993 -1.0820  2.7707
  147MOL0     H19812  11.134  11.521   3.347 -2.0618  0.6702  0.2817
  147MOL0     H19813  11.318  11.495   3.096 -1.7187 -4.1132 -0.8441
  147MOL0     H19814  11.367  11.495   3.272 -3.2514  3.3536  2.7334
  147MOL0     H19815  11.165  11.302   3.146 -0.5950  0.3765  0.8697
  147MOL0     H19816  11.213  11.294   3.303  0.5861 -0.2028  1.0671
  147MOL0     H19817  11.450  11.250   3.255 -0.2271 -2.8596  0.8775
  147MOL0     H19818  11.435  11.295   3.089 -0.1765 -2.2187 -0.7311
  147MOL0     H19819  11.294  11.049   3.224  2.5349 -0.2166  1.8897
  147MOL0     H19820  11.295  11.080   3.051 -2.9187 -0.4516  1.8449
  147MOL0     H19821  11.531  11.003   3.236 -2.1935  2.3648  1.2979
  147MOL0     H19822  11.565  11.074   3.086  0.2281  0.3745 -2.0507
  147MOL0     H19823  11.460  10.898   2.946 -1.6372  0.8989  1.3576
  147MOL0     H19824  11.576  10.834   3.054 -0.2645  0.2090 -1.5201
  147MOL0     H19825  10.934  11.758   2.950  1.7213 -1.2225  0.0912
  147MOL0     H19826  10.702  11.761   2.852 -1.1426  0.0207  0.4870
  147MOL0     H19827  10.225  11.402   2.876 -1.5955 -1.8442 -4.0700
  147MOL0     H19828   9.999  11.451   2.766 -0.4793  0.1758  0.1732
  147MOL0     H19829   8.976  11.185   4.038 -1.7754 -0.2441 -0.0492
  147MOL0     H19830   8.875  10.961   3.946  1.1606 -2.2212 -2.0145
  147MOL0     H19831   8.928  10.717   3.490 -1.0227  1.6495  0.8362
  147MOL0     H19832   8.803  10.549   3.350  3.4697 -1.7401 -1.0170
  147MOL0     H19833   8.448  10.441   3.541  2.6740  0.5879  0.4866
  147MOL0     H19834   8.423  10.360   3.377  0.6917 -1.3905  1.2048
  147MOL0     H19835   8.517  10.636   3.424 -0.9968  1.4234 -1.1733
  147MOL0     H19836   8.368  10.584   3.349  0.5840  1.0213  0.1117
  147MOL0     H19837   8.458  10.513   3.145 -2.1022 -1.6268  2.0517
  147MOL0     H19838   8.613  10.485   3.219  0.9580  1.5826 -1.3603
  147MOL0     H19839   8.488  10.758   3.139  0.1213  1.0711 -0.2871
  147MOL0     H19840   8.614  10.748   3.269  0.5236  0.3691 -1.1703
  147MOL0     H19841   8.897  10.642   3.003  0.4750 -1.0926  0.0939
  147MOL0     H19842   8.626  10.404   3.721 -0.3828 -0.9615 -1.8474
  147MOL0     H19843   8.683  10.648   3.907  1.0396  1.1951 -2.5895
  147MOL0     H19844   8.677  10.483   3.918  0.5096  2.9972  1.7027
  147MOL0     H19845   8.839  10.558   3.924  1.9632 -2.2250 -3.7713
  148MOL0     O19846   1.563   7.281   9.256  0.3143  0.2108  1.0764
  148MOL0     C19847   1.601   7.182   9.189 -0.4681  0.0647  0.2421
  148MOL0     O19848   1.616   7.187   9.055 -0.5594  0.3362 -0.7705
  148MOL0     C19849   1.569   7.298   8.992  0.3267  0.4521  0.8287
  148MOL0     C19850   1.663   7.396   8.936  0.0151 -0.0366  0.5266
  148MOL0     C19851   1.622   7.506   8.863 -0.4021  0.3455 -0.4792
  148MOL0     C19852   1.481   7.526   8.842  0.9602 -1.1617 -0.1469
  148MOL0     O19853   1.447   7.641   8.774  0.1746 -0.2527 -0.1952
  148MOL0     C19854   1.307   7.673   8.772  0.6512  0.5067  0.6349
  148MOL0     C19855   1.281   7.796   8.689 -0.4028 -0.3689  0.3448
  148MOL0     C19856   1.331   7.787   8.539  0.3539 -0.5707  0.2916
  148MOL0     C19857   1.302   7.920   8.465 -0.5803 -0.3188  0.3096
  148MOL0     C19858   1.336   7.929   8.310  0.4808  0.5988  0.2193
  148MOL0     C19859   1.478   7.897   8.286  0.2912  0.1719  0.0589
  148MOL0     C19860   1.543   7.982   8.176 -0.4286  0.6224 -0.8082
  148MOL0     C19861   1.483   7.971   8.035  0.4566 -1.2484 -0.3939
  148MOL0     N19862   1.485   7.825   7.995  0.4575 -0.3891  0.7156
  148MOL0     C19863   1.598   7.748   7.977 -0.2703 -1.2240 -0.6810
  148MOL0     C19864   1.550   7.627   7.972 -0.8736  0.0865 -0.5249
  148MOL0     C19865   1.637   7.496   7.946 -0.0875 -0.8757 -0.2549
  148MOL0     C19866   1.558   7.358   7.938 -0.0165  0.4936  0.7724
  148MOL0     C19867   1.497   7.316   7.801 -0.4560  0.3281  0.2579
  148MOL0     C19868   1.490   7.151   7.770 -0.6445 -0.8773  0.4816
  148MOL0     O19869   1.557   7.141   7.642  0.1143  0.3001  0.7727
  148MOL0     C19870   1.578   7.019   7.588  0.3180 -0.1173 -0.6143
  148MOL0     C19871   1.693   7.000   7.508 -0.5603 -0.3745 -0.8456
  148MOL0     C19872   1.724   6.871   7.459 -0.4880 -0.6584 -0.6062
  148MOL0     C19873   1.653   6.760   7.505 -0.3723  0.0735 -1.0382
  148MOL0     C19874   1.690   6.627   7.456 -0.0169  0.0371 -0.0470
  148MOL0     O19875   1.815   6.618   7.398 -0.2373 -0.2858 -0.5438
  148MOL0     C19876   1.845   6.515   7.321 -1.0854 -0.3705 -0.1234
  148MOL0     C19877   1.966   6.450   7.339 -0.7459  0.3809 -0.1441
  148MOL0     C19878   2.004   6.352   7.240 -0.2050 -0.1959 -0.4205
  148MOL0     C19879   1.917   6.333   7.130  0.0360  0.8024  0.2825
  148MOL0     O19880   1.977   6.259   7.024  0.7147  0.4416  0.6540
  148MOL0     C19881   1.888   6.222   6.916  0.1011  0.1182 -0.1548
  148MOL0     C19882   1.960   6.111   6.837  0.4410  0.3834 -0.0497
  148MOL0     C19883   1.852   6.030   6.771  0.0728  1.3377 -0.6987
  148MOL0     C19884   1.911   5.901   6.706 -0.9883 -0.6085  0.6624
  148MOL0     C19885   1.820   5.802   6.655  1.2219  0.6074 -0.3764
  148MOL0     C19886   1.881   5.680   6.595  1.2110 -0.5875 -0.1040
  148MOL0     C19887   1.785   5.604   6.514 -0.0433 -0.3242  0.2113
  148MOL0     C19888   1.838   5.461   6.479 -0.1228  0.1889 -0.0878
  148MOL0    Cl19889   1.991   5.482   6.397  0.3968  0.8494  0.2792
  148MOL0     C19890   1.797   6.397   7.113 -0.6478  0.5544  0.7353
  148MOL0     C19891   1.768   6.492   7.207 -0.3415  0.2684 -1.2108
  148MOL0     O19892   1.606   6.532   7.453  0.1228 -0.1069 -0.7433
  148MOL0     C19893   1.537   6.773   7.584  0.1817  0.0262 -0.6410
  148MOL0     C19894   1.495   6.909   7.616  0.4948  0.2998 -0.0744
  148MOL0     N19895   1.407   7.620   7.989 -0.0008 -0.6463  0.5624
  148MOL0     N19896   1.376   7.745   7.995 -0.9308  0.9121 -0.1614
  148MOL0     C19897   1.391   7.428   8.885  0.3229  0.2644  0.1973
  148MOL0     C19898   1.432   7.322   8.967  0.2415 -1.0587  0.5430
  148MOL0     C19899   1.651   7.057   9.260  1.3345 -0.3104  0.0091
  148MOL0     C19900   1.702   6.957   9.178 -0.5472  0.2448 -0.0967
  148MOL0     C19901   1.757   6.839   9.239  0.1660  0.4003  0.3697
  148MOL0     C19902   1.761   6.812   9.378  0.1159  0.3041 -0.1298
  148MOL0     O19903   1.823   6.690   9.420 -0.0109  0.1533  0.0905
  148MOL0     C19904   1.781   6.628   9.542 -0.3383 -0.1540  0.2013
  148MOL0     C19905   1.805   6.482   9.528 -0.3781  0.1502  0.5400
  148MOL0     C19906   1.736   6.424   9.400  0.0699 -0.5960 -0.3929
  148MOL0     C19907   1.746   6.268   9.386 -0.8018  1.2504  0.8087
  148MOL0     C19908   1.697   6.186   9.496  0.5137 -0.4278 -0.6867
  148MOL0     C19909   1.684   6.113   9.592  0.8608  0.2381  1.2500
  148MOL0     C19910   1.702   6.906   9.454 -0.4608 -0.1117 -0.0505
  148MOL0     C19911   1.655   7.030   9.402  0.5102 -0.2629 -0.2096
  148MOL0     C19912   1.578   7.118   9.507 -0.1409  0.9118  1.2370
  148MOL0     H19913   1.763   7.366   8.965  0.3225  2.0432  1.8448
  148MOL0     H19914   1.697   7.580   8.836 -1.1746  1.2843 -0.1022
  148MOL0     H19915   1.251   7.586   8.737  3.6739 -1.2713 -0.2252
  148MOL0     H19916   1.282   7.696   8.876 -0.4562 -0.3950  0.5922
  148MOL0     H19917   1.331   7.883   8.733  3.1791 -2.3309  0.4930
  148MOL0     H19918   1.173   7.815   8.681 -0.2433  0.9695  1.0735
  148MOL0     H19919   1.274   7.712   8.485  1.1399  0.9729 -2.9519
  148MOL0     H19920   1.439   7.766   8.538  0.9136  1.8600  1.0055
  148MOL0     H19921   1.200   7.961   8.471  0.4369  2.3533  1.0052
  148MOL0     H19922   1.365   7.998   8.508 -0.6504  0.3912 -0.8432
  148MOL0     H19923   1.282   7.855   8.251  1.1186  1.9626 -2.2098
  148MOL0     H19924   1.294   8.025   8.278  2.2068  1.8875  1.5664
  148MOL0     H19925   1.547   7.911   8.369  0.9457 -0.4906 -0.3600
  148MOL0     H19926   1.483   7.790   8.264 -0.7752  0.3197 -1.0432
  148MOL0     H19927   1.647   7.948   8.171 -0.2124  0.9183  0.9581
  148MOL0     H19928   1.557   8.087   8.202 -0.7578  0.4158  0.2867
  148MOL0     H19929   1.381   8.013   8.030  0.7786 -0.5089 -1.0121
  148MOL0     H19930   1.538   8.039   7.970 -0.3515  0.6948  0.8340
  148MOL0     H19931   1.699   7.785   7.962  0.1946 -1.3129  1.7564
  148MOL0     H19932   1.684   7.523   7.851  0.5614  3.7420  1.1562
  148MOL0     H19933   1.711   7.490   8.026  0.4052  0.1875 -0.6193
  148MOL0     H19934   1.628   7.286   7.983  1.2074  0.8660 -0.4811
  148MOL0     H19935   1.469   7.361   8.002 -0.2211 -3.4864  0.9214
  148MOL0     H19936   1.564   7.370   7.733  0.1962 -1.5437 -0.6667
  148MOL0     H19937   1.396   7.356   7.791 -0.9660 -1.2683 -1.6781
  148MOL0     H19938   1.388   7.115   7.784 -1.6139  1.2930 -0.4637
  148MOL0     H19939   1.552   7.101   7.845 -0.2696 -3.8277 -1.6563
  148MOL0     H19940   1.742   7.093   7.480  2.9548 -0.8696  2.7446
  148MOL0     H19941   1.810   6.867   7.393  0.1727 -0.9443  0.2493
  148MOL0     H19942   2.042   6.478   7.411 -0.7507  0.3259 -0.1177
  148MOL0     H19943   2.095   6.293   7.240 -0.6600 -0.9258 -1.2615
  148MOL0     H19944   1.788   6.190   6.948  0.5033 -1.8345 -0.7195
  148MOL0     H19945   1.894   6.313   6.857 -1.0647 -0.3501 -1.0493
  148MOL0     H19946   2.025   6.142   6.754  1.8643  1.2813  1.3353
  148MOL0     H19947   2.018   6.054   6.911  1.7210  2.6756  0.8270
  148MOL0     H19948   1.770   6.003   6.839 -0.8634 -1.3011 -2.6862
  148MOL0     H19949   1.806   6.094   6.695  1.8663  2.0941 -1.1873
  148MOL0     H19950   1.980   5.841   6.767 -2.1934 -1.1639  1.5310
  148MOL0     H19951   1.967   5.942   6.622 -2.8609  0.2112 -0.2420
  148MOL0     H19952   1.758   5.842   6.574  2.3169  3.7403  0.1816
  148MOL0     H19953   1.749   5.785   6.736  1.2519 -1.1464 -0.6848
  148MOL0     H19954   1.959   5.716   6.527  2.3469 -2.9118 -0.1122
  148MOL0     H19955   1.924   5.611   6.668 -0.0983 -2.2681 -0.8388
  148MOL0     H19956   1.756   5.653   6.421  0.6856 -2.6993 -1.3704
  148MOL0     H19957   1.697   5.597   6.579  0.2600  0.4780  0.7118
  148MOL0     H19958   1.845   5.410   6.575  3.0210  1.6308  0.5985
  148MOL0     H19959   1.773   5.405   6.411 -1.8442  1.8245  0.1310
  148MOL0     H19960   1.732   6.401   7.026 -1.9637  1.7742  1.7246
  148MOL0     H19961   1.675   6.546   7.192  0.2238  1.1957 -1.5009
  148MOL0     H19962   1.470   6.692   7.610 -0.9845  0.9722 -0.5928
  148MOL0     H19963   1.397   6.918   7.662 -0.5582 -3.7933 -1.1146
  148MOL0     H19964   1.283   7.442   8.882  0.4139  0.8354 -0.7285
  148MOL0     H19965   1.360   7.259   9.019 -0.4221  0.3660  1.4419
  148MOL0     H19966   1.711   6.975   9.072  1.7411  0.9126  0.1603
  148MOL0     H19967   1.797   6.770   9.165 -1.0312  0.9963 -0.8880
  148MOL0     H19968   1.674   6.646   9.556 -0.2693  1.0882 -0.7087
  148MOL0     H19969   1.825   6.669   9.633 -1.3121  2.2060 -0.3246
  148MOL0     H19970   1.757   6.430   9.613 -1.1638  0.4709  0.3062
  148MOL0     H19971   1.908   6.447   9.525 -0.8958 -1.4834  0.4486
  148MOL0     H19972   1.771   6.470   9.307  0.5940 -1.3224 -0.5627
  148MOL0     H19973   1.630   6.444   9.414  0.0852  0.0877 -1.1459
  148MOL0     H19974   1.698   6.232   9.295  0.2014 -3.2446  1.8131
  148MOL0     H19975   1.852   6.247   9.369 -1.1680 -2.6769  2.1911
  148MOL0     H19976   1.668   6.029   9.657 -2.2727  0.1596  0.5697
  148MOL0     H19977   1.699   6.887   9.561  0.6484 -1.1610 -0.1785
  148MOL0     H19978   1.625   7.214   9.529  1.0583 -0.1008  3.4394
  148MOL0     H19979   1.476   7.139   9.476  0.0421  2.8898  1.8503
  148MOL0     H19980   1.566   7.058   9.598 -1.0964  0.4002  0.7928
  149MOL0     O19981   7.768   1.623   9.859  0.2490 -0.2439  0.5283
  149MOL0     C19982   7.686   1.540   9.826 -0.2151 -0.3636 -0.5833
  149MOL0     O19983   7.701   1.407   9.829  0.5023  0.2311 -0.7859
  149MOL0     C19984   7.819   1.344   9.823 -0.0575  0.8865 -0.5088
  149MOL0     C19985   7.837   1.212   9.880 -0.3868 -0.8355  0.8585
  149MOL0     C19986   7.960   1.144   9.867  0.4746 -1.0571 -0.0542
  149MOL0     C19987   8.067   1.202   9.804  0.5887 -0.0727 -0.2380
  149MOL0     O19988   8.170   1.121   9.808  0.2305  0.1630  0.0990
  149MOL0     C19989   8.274   1.162   9.727  0.5602 -0.1382  0.4242
  149MOL0     C19990   8.377   1.052   9.748 -0.4381 -0.9164  0.7220
  149MOL0     C19991   8.520   1.082   9.685  0.1342  0.7081 -0.3858
  149MOL0     C19992   8.629   0.991   9.747  0.5377 -0.4807  1.2631
  149MOL0     C19993   8.771   0.998   9.675  0.7372  0.1602  0.6584
  149MOL0     C19994   8.866   0.900   9.743 -0.1291 -0.4598  1.1158
  149MOL0     C19995   8.840   0.748   9.705  0.4511 -0.2966 -0.4239
  149MOL0     C19996   8.958   0.689   9.637 -0.5342  1.0524  0.5528
  149MOL0     N19997   9.080   0.670   9.723  0.6416 -0.0451 -0.0132
  149MOL0     C19998   9.093   0.588   9.827  0.4664 -0.2299 -0.3970
  149MOL0     C19999   9.222   0.619   9.872 -0.7745  0.9771 -0.1618
  149MOL0     C20000   9.305   0.551   9.981  0.6207 -0.3987  0.1265
  149MOL0     C20001   9.375   0.436   9.911  0.9479  0.8301  0.7181
  149MOL0     C20002   9.291   0.305   9.887 -0.4770 -0.2194  0.1906
  149MOL0     C20003   9.370   0.186   9.841  0.4174  0.7884  0.4386
  149MOL0     O20004   9.466   0.221   9.736 -0.1624 -0.0635 -0.4519
  149MOL0     C20005   9.557   0.122   9.695 -0.7050 -0.3791  0.0992
  149MOL0     C20006   9.559  -0.012   9.729  1.0136  0.2718 -0.1173
  149MOL0     C20007   9.635  -0.108   9.673 -0.7461 -0.7551  0.1030
  149MOL0     C20008   9.735  -0.065   9.583 -0.0171 -0.7222  0.3212
  149MOL0     C20009   9.819  -0.165   9.522  0.4860 -0.6807  0.4887
  149MOL0     O20010   9.807  -0.291   9.567  0.2757 -0.1579  0.0469
  149MOL0     C20011   9.887  -0.386   9.508  0.5666  0.3112  0.4154
  149MOL0     C20012  10.027  -0.407   9.547  0.0412  0.2140 -0.2687
  149MOL0     C20013  10.101  -0.494   9.478  0.4144  0.2118 -0.4021
  149MOL0     C20014  10.058  -0.569   9.359  0.4136  0.0479 -0.5205
  149MOL0     O20015  10.137  -0.633   9.267 -0.2814  0.1713  0.2703
  149MOL0     C20016  10.274  -0.650   9.314  0.0013 -0.5921 -0.2254
  149MOL0     C20017  10.362  -0.718   9.214 -0.3647 -0.1758  0.1209
  149MOL0     C20018  10.476  -0.796   9.284 -0.1527 -0.3297 -0.3230
  149MOL0     C20019  10.548  -0.893   9.195 -0.1015  0.0263 -0.1874
  149MOL0     C20020  10.635  -0.993   9.264  0.7671 -0.0274  0.1311
  149MOL0     C20021  10.688  -1.100   9.166  0.3820 -0.1298 -0.3808
  149MOL0     C20022  10.580  -1.206   9.132 -0.4237  0.2846  0.3249
  149MOL0     C20023  10.631  -1.319   9.043  0.7733 -0.2045 -0.0204
  149MOL0    Cl20024  10.614  -1.263   8.873  0.2805  0.4069  0.0427
  149MOL0     C20025   9.917  -0.561   9.330  0.5805 -0.4321 -0.1455
  149MOL0     C20026   9.839  -0.466   9.405  0.1008  0.1851  0.5390
  149MOL0     O20027   9.880  -0.138   9.419  0.4040 -0.0274  0.1911
  149MOL0     C20028   9.740   0.074   9.542 -0.1415  0.3554  0.1900
  149MOL0     C20029   9.650   0.164   9.599  0.1916 -0.4098 -0.5747
  149MOL0     N20030   9.277   0.723   9.798  0.1756 -0.3037  0.3988
  149MOL0     N20031   9.191   0.749   9.703 -0.4126  0.9803 -0.4092
  149MOL0     C20032   8.054   1.327   9.742  0.1518  0.2383  0.0547
  149MOL0     C20033   7.928   1.388   9.744  0.2239  0.3756 -0.1548
  149MOL0     C20034   7.552   1.574   9.759 -1.1932  0.4594 -0.2798
  149MOL0     C20035   7.441   1.519   9.825  0.2885 -0.4953 -0.1949
  149MOL0     C20036   7.315   1.557   9.765  0.0268  0.3151  0.1426
  149MOL0     C20037   7.302   1.644   9.652 -0.1754 -0.4313  0.1370
  149MOL0     O20038   7.183   1.648   9.583 -0.3749  0.0779 -0.2948
  149MOL0     C20039   7.128   1.778   9.577  0.1589 -0.0605 -0.0270
  149MOL0     C20040   7.002   1.781   9.660 -0.0121  0.0449 -0.9963
  149MOL0     C20041   7.022   1.746   9.807  1.2034 -0.3507 -0.4687
  149MOL0     C20042   7.123   1.829   9.880 -0.3182 -1.3203  0.3276
  149MOL0     C20043   7.087   1.968   9.874 -0.1455 -0.9390  0.4011
  149MOL0     C20044   7.037   2.079   9.866  0.8633 -0.5242  0.1071
  149MOL0     C20045   7.419   1.704   9.606 -0.3208 -0.1589 -0.3831
  149MOL0     C20046   7.546   1.674   9.661 -0.5660 -0.5289  1.1838
  149MOL0     C20047   7.667   1.745   9.607  0.1957  0.0796 -0.4100
  149MOL0     H20048   7.758   1.160   9.933 -1.6972  0.7713  0.5875
  149MOL0     H20049   7.965   1.049   9.918 -0.1355 -0.9369  0.2422
  149MOL0     H20050   8.249   1.148   9.621  2.3358 -0.7305  0.0564
  149MOL0     H20051   8.307   1.263   9.752 -2.4289  0.6807  1.4579
  149MOL0     H20052   8.337   0.964   9.696 -2.4678 -0.7293  1.9094
  149MOL0     H20053   8.376   1.018   9.852  1.5658  0.5673  1.2837
  149MOL0     H20054   8.538   1.185   9.715 -2.7861  0.4153  2.9972
  149MOL0     H20055   8.523   1.074   9.576  1.2636 -0.5408 -0.2799
  149MOL0     H20056   8.639   1.022   9.851 -1.1198  1.2607  0.9448
  149MOL0     H20057   8.592   0.889   9.761  1.5421 -0.9989  0.2675
  149MOL0     H20058   8.762   0.970   9.570  3.0637 -1.4682  0.8097
  149MOL0     H20059   8.803   1.102   9.686 -0.6408  0.5662  1.0684
  149MOL0     H20060   8.961   0.940   9.706 -1.5549  1.9140 -0.2051
  149MOL0     H20061   8.872   0.906   9.852  0.3734  2.2960  1.0064
  149MOL0     H20062   8.763   0.748   9.628  0.9238 -0.1330 -0.9078
  149MOL0     H20063   8.807   0.695   9.794  1.9606 -0.1937  0.2372
  149MOL0     H20064   8.923   0.597   9.591  2.5908  0.2646 -0.4879
  149MOL0     H20065   8.986   0.751   9.551  0.5698  1.2669  1.0539
  149MOL0     H20066   9.033   0.504   9.862  1.1319 -1.6243 -2.4359
  149MOL0     H20067   9.390   0.607  10.021  2.4302 -4.0866  1.9671
  149MOL0     H20068   9.241   0.513  10.060 -0.2432 -3.2451 -1.7813
  149MOL0     H20069   9.415   0.472   9.816  3.1855 -0.3475  1.1626
  149MOL0     H20070   9.467   0.417   9.967  0.1608  1.6892  2.4028
  149MOL0     H20071   9.207   0.316   9.819 -1.4621 -5.4077  0.1634
  149MOL0     H20072   9.253   0.281   9.987  1.4207  2.1616  1.5929
  149MOL0     H20073   9.297   0.112   9.808  0.1109  1.6394 -0.8499
  149MOL0     H20074   9.433   0.153   9.925  0.5441  1.4033  0.5943
  149MOL0     H20075   9.483  -0.041   9.801  0.3895 -1.1168 -1.2779
  149MOL0     H20076   9.630  -0.212   9.702 -0.2760 -1.0691 -0.8773
  149MOL0     H20077  10.079  -0.348   9.622  2.8913  1.7721 -3.2249
  149MOL0     H20078  10.201  -0.509   9.517 -0.2882 -1.7851  0.7751
  149MOL0     H20079  10.317  -0.551   9.331 -0.3125 -1.0766  4.8738
  149MOL0     H20080  10.280  -0.703   9.409  1.9777 -1.8326 -0.9825
  149MOL0     H20081  10.296  -0.788   9.161 -1.4639  1.2771 -0.4889
  149MOL0     H20082  10.401  -0.647   9.140  1.5365 -2.4831 -1.2442
  149MOL0     H20083  10.540  -0.717   9.324 -0.9960  0.2212 -0.0238
  149MOL0     H20084  10.433  -0.848   9.370  0.6768 -2.3802 -1.1006
  149MOL0     H20085  10.597  -0.833   9.118 -1.0007 -1.7369 -2.2229
  149MOL0     H20086  10.470  -0.937   9.132 -1.8789  0.7248  1.4504
  149MOL0     H20087  10.571  -1.036   9.342 -0.2803  0.2249 -0.5728
  149MOL0     H20088  10.727  -0.946   9.298  1.1292 -1.3696  1.0981
  149MOL0     H20089  10.734  -1.062   9.074 -0.1210 -1.4077 -1.1919
  149MOL0     H20090  10.771  -1.149   9.218  0.5830 -1.7503 -2.1166
  149MOL0     H20091  10.490  -1.160   9.090 -1.2035  0.0260  1.6538
  149MOL0     H20092  10.541  -1.242   9.228  1.9372  2.3101  2.1567
  149MOL0     H20093  10.727  -1.351   9.085  0.9175  2.6642  2.1780
  149MOL0     H20094  10.570  -1.409   9.050  3.5474 -2.1739  0.5209
  149MOL0     H20095   9.875  -0.620   9.249  0.3012  1.4958 -1.4847
  149MOL0     H20096   9.741  -0.434   9.368  0.3774  0.3266 -0.0957
  149MOL0     H20097   9.816   0.097   9.469  1.0052 -1.2110  0.8413
  149MOL0     H20098   9.627   0.267   9.576 -2.7285  0.0574  3.3455
  149MOL0     H20099   8.129   1.366   9.673  0.3847 -0.2362  0.0393
  149MOL0     H20100   7.906   1.481   9.692 -2.6540 -0.3923 -0.4901
  149MOL0     H20101   7.451   1.437   9.896  1.3311 -0.7764 -0.6568
  149MOL0     H20102   7.226   1.516   9.809 -2.1422  2.3213 -2.0540
  149MOL0     H20103   7.109   1.803   9.472  1.0635 -2.4856 -0.8369
  149MOL0     H20104   7.196   1.857   9.612 -3.3241  3.6824 -0.9204
  149MOL0     H20105   6.932   1.710   9.615 -1.2794  0.6484 -0.0208
  149MOL0     H20106   6.960   1.881   9.655 -0.7958 -0.2142  0.0532
  149MOL0     H20107   7.070   1.650   9.828  2.2396  0.3679  0.6166
  149MOL0     H20108   6.929   1.757   9.864  1.1875  2.3266 -0.8756
  149MOL0     H20109   7.128   1.790   9.982 -0.6194  2.5915  1.9977
  149MOL0     H20110   7.219   1.819   9.829  1.6737 -0.6744  3.6898
  149MOL0     H20111   6.983   2.171   9.863  1.9653  0.1618 -3.8197
  149MOL0     H20112   7.428   1.780   9.529  1.3968  0.9353  0.8351
  149MOL0     H20113   7.732   1.797   9.678  1.5887  1.5401 -2.6296
  149MOL0     H20114   7.730   1.666   9.564  3.1839  1.1464  1.6366
  149MOL0     H20115   7.649   1.819   9.529  1.7986  0.7185 -0.2244
  150MOL0     O20116   4.585   2.105  11.191 -0.1724 -0.0286  0.0937
  150MOL0     C20117   4.620   2.007  11.263  0.1719 -0.7253  0.6418
  150MOL0     O20118   4.717   1.916  11.233  0.9270  0.6712  0.4468
  150MOL0     C20119   4.793   1.946  11.125 -0.8308  1.2098 -0.4952
  150MOL0     C20120   4.753   1.893  11.005 -0.4498  0.7896  0.4183
  150MOL0     C20121   4.839   1.889  10.895 -0.2574  0.2367 -0.8013
  150MOL0     C20122   4.963   1.958  10.895 -0.0696  0.3120 -0.1808
  150MOL0     O20123   5.063   1.963  10.792  0.3484  0.3167 -0.6226
  150MOL0     C20124   5.026   1.913  10.659  0.0999 -0.2881 -0.9600
  150MOL0     C20125   5.132   1.967  10.565  0.4234  0.2332 -0.6473
  150MOL0     C20126   5.274   1.919  10.579 -0.4727  0.5841 -0.6988
  150MOL0     C20127   5.370   1.971  10.474  0.1338  0.3522  0.4203
  150MOL0     C20128   5.518   1.929  10.506  0.6841  0.0962  0.4849
  150MOL0     C20129   5.619   2.002  10.416 -0.8925  0.0780  0.2126
  150MOL0     C20130   5.762   1.996  10.478 -0.4752 -0.3645 -0.4550
  150MOL0     C20131   5.872   2.047  10.393 -0.1848 -0.4935 -0.2774
  150MOL0     N20132   5.879   1.949  10.276 -0.0244 -0.4897 -0.0970
  150MOL0     C20133   5.926   1.818  10.284 -0.3508  0.8963  0.4960
  150MOL0     C20134   5.937   1.773  10.157 -0.2625  0.1203  0.5313
  150MOL0     C20135   5.981   1.632  10.090 -0.4865 -0.1764 -0.2432
  150MOL0     C20136   6.124   1.642  10.030  0.8745 -0.2443 -0.2717
  150MOL0     C20137   6.118   1.717   9.892 -0.2175 -0.1546 -0.7320
  150MOL0     C20138   6.248   1.750   9.818  0.4241  0.0823  0.2050
  150MOL0     O20139   6.331   1.630   9.812 -0.0824 -0.8936 -0.3176
  150MOL0     C20140   6.304   1.528   9.727 -0.5773 -0.4082 -0.2865
  150MOL0     C20141   6.408   1.433   9.742  0.0024 -0.6263 -0.3843
  150MOL0     C20142   6.403   1.319   9.663 -1.2800  0.8144  0.9771
  150MOL0     C20143   6.324   1.295   9.559  0.7441 -0.7026  0.2498
  150MOL0     C20144   6.333   1.179   9.479 -0.7067 -0.5041  0.1519
  150MOL0     O20145   6.454   1.120   9.479  0.9016  0.6067  0.7321
  150MOL0     C20146   6.478   1.030   9.380 -0.0184  0.9211 -0.5336
  150MOL0     C20147   6.406   0.913   9.377 -0.1473  0.7628  0.6275
  150MOL0     C20148   6.438   0.817   9.278  0.3775  0.2898 -0.4319
  150MOL0     C20149   6.528   0.850   9.175  0.1092 -0.3507  0.4858
  150MOL0     O20150   6.550   0.759   9.068  0.0165  0.1703  0.1798
  150MOL0     C20151   6.574   0.800   8.936 -0.5998  0.4080 -0.1261
  150MOL0     C20152   6.526   0.695   8.830  0.5527  0.2500 -0.2433
  150MOL0     C20153   6.577   0.562   8.884  0.0852  1.2718 -0.1485
  150MOL0     C20154   6.736   0.530   8.868 -1.0103  0.0597  0.7089
  150MOL0     C20155   6.782   0.398   8.920  0.1289  1.0834 -0.4298
  150MOL0     C20156   6.735   0.286   8.823  0.4441 -0.0799  0.9277
  150MOL0     C20157   6.770   0.148   8.872 -0.6552 -0.4120 -0.4097
  150MOL0     C20158   6.695   0.111   8.995  1.1330 -0.3285  0.0409
  150MOL0    Cl20159   6.688  -0.072   9.009 -0.1172 -0.1465  0.1692
  150MOL0     C20160   6.595   0.972   9.176 -0.4143 -0.3156 -0.3529
  150MOL0     C20161   6.563   1.063   9.273 -0.1799 -0.4718  0.7751
  150MOL0     O20162   6.237   1.151   9.402 -0.4701 -0.2710  0.6841
  150MOL0     C20163   6.224   1.390   9.543 -0.3103  0.8095 -0.2003
  150MOL0     C20164   6.211   1.506   9.626  0.6891  1.2064  0.8966
  150MOL0     N20165   5.878   1.872  10.078  0.0189  0.0871 -0.2189
  150MOL0     N20166   5.846   1.975  10.148 -0.6362 -0.3194  0.1077
  150MOL0     C20167   4.992   2.039  11.008 -0.0238 -0.5302  0.9294
  150MOL0     C20168   4.912   2.021  11.125 -0.0679 -0.1683 -0.1522
  150MOL0     C20169   4.536   1.983  11.375  0.6924  0.8694  0.3071
  150MOL0     C20170   4.508   1.853  11.411  0.0512 -0.7152  0.7989
  150MOL0     C20171   4.446   1.815  11.520 -0.2958  0.5075  0.2175
  150MOL0     C20172   4.384   1.917  11.602  0.6104  0.2466 -0.9987
  150MOL0     O20173   4.300   1.897  11.710  0.1877 -1.1460  0.3511
  150MOL0     C20174   4.206   1.788  11.713 -0.0082 -0.4085  1.0151
  150MOL0     C20175   4.088   1.822  11.797  0.7315  0.5568 -0.3094
  150MOL0     C20176   3.993   1.690  11.809 -0.8271  0.0901  0.2321
  150MOL0     C20177   3.917   1.687  11.938  0.5351  0.0367  0.2914
  150MOL0     C20178   3.996   1.655  12.056 -0.6340 -0.4375  0.3277
  150MOL0     C20179   4.058   1.636  12.155  0.7191 -0.5368 -0.5742
  150MOL0     C20180   4.411   2.050  11.567  0.6424  0.7586 -0.7167
  150MOL0     C20181   4.486   2.090  11.458 -0.6133  0.4716  0.7282
  150MOL0     C20182   4.513   2.237  11.451 -0.1622 -0.2130 -0.6529
  150MOL0     H20183   4.663   1.833  11.004  0.7596 -1.1905 -1.8657
  150MOL0     H20184   4.808   1.840  10.803 -2.1891  0.0243 -0.0667
  150MOL0     H20185   4.998   1.807  10.662  2.5486 -0.9575  0.2353
  150MOL0     H20186   4.935   1.964  10.625  0.3127  2.3162  1.9418
  150MOL0     H20187   5.141   2.075  10.578  1.7015  0.8472 -4.8710
  150MOL0     H20188   5.086   1.947  10.467  0.7732  1.0498 -0.9892
  150MOL0     H20189   5.274   1.810  10.576  0.6256  0.5399  0.4590
  150MOL0     H20190   5.303   1.953  10.679 -1.6891  0.0310 -0.1352
  150MOL0     H20191   5.329   1.947  10.375 -2.7535 -0.1155  1.6177
  150MOL0     H20192   5.374   2.080  10.469  0.8550  0.3454  0.7969
  150MOL0     H20193   5.549   1.965  10.605 -0.4732 -0.9256  1.2362
  150MOL0     H20194   5.535   1.823  10.488 -0.6600 -0.5329  2.6277
  150MOL0     H20195   5.615   1.970  10.311 -0.9807  1.7391 -0.3160
  150MOL0     H20196   5.593   2.108  10.421  1.1328  0.6029  0.2763
  150MOL0     H20197   5.785   1.895  10.516  2.0807  0.5909  0.7600
  150MOL0     H20198   5.773   2.054  10.570  2.8715 -1.0135 -0.3207
  150MOL0     H20199   5.845   2.149  10.363 -0.9020 -1.3091 -2.6307
  150MOL0     H20200   5.966   2.047  10.450 -0.6290 -2.9970  0.5704
  150MOL0     H20201   5.954   1.772  10.378 -1.1339  0.3807  0.4906
  150MOL0     H20202   5.990   1.556  10.169  1.6191  0.2420 -0.0219
  150MOL0     H20203   5.910   1.594  10.016  1.1168  0.3099 -2.1029
  150MOL0     H20204   6.194   1.694  10.096  0.1704 -1.1746  1.2654
  150MOL0     H20205   6.162   1.539  10.026  0.1002 -0.5041 -1.3905
  150MOL0     H20206   6.086   1.819   9.910 -0.9788 -0.0148 -2.6123
  150MOL0     H20207   6.046   1.663   9.829  0.2811 -1.1513 -0.4832
  150MOL0     H20208   6.305   1.824   9.874 -1.4200  0.7120  1.3469
  150MOL0     H20209   6.233   1.779   9.714 -2.0109 -2.4316 -0.2840
  150MOL0     H20210   6.484   1.452   9.818  0.7343  1.4393 -1.5619
  150MOL0     H20211   6.465   1.241   9.704 -1.6467  1.2719  2.4367
  150MOL0     H20212   6.334   0.888   9.454 -1.4358  1.8596 -0.1961
  150MOL0     H20213   6.378   0.727   9.279 -1.0310  0.9834 -4.1745
  150MOL0     H20214   6.531   0.898   8.910  2.3893  3.0981  3.8140
  150MOL0     H20215   6.681   0.815   8.919 -0.6662  0.2987 -0.6622
  150MOL0     H20216   6.418   0.700   8.818  0.6695 -1.4019 -2.7269
  150MOL0     H20217   6.561   0.704   8.727 -2.3374 -2.0416 -1.5871
  150MOL0     H20218   6.556   0.544   8.990 -2.4800 -0.1718 -0.7956
  150MOL0     H20219   6.520   0.487   8.828  0.7794 -0.2362  1.0976
  150MOL0     H20220   6.788   0.605   8.929 -1.1421 -0.1879  1.1349
  150MOL0     H20221   6.774   0.543   8.766 -0.6296 -0.3377  0.7926
  150MOL0     H20222   6.734   0.376   9.016 -0.0504  1.2699 -0.4778
  150MOL0     H20223   6.890   0.392   8.934  0.2145 -0.9951 -1.5340
  150MOL0     H20224   6.629   0.289   8.794  1.0270  0.3276 -1.3557
  150MOL0     H20225   6.784   0.296   8.725  1.0604 -5.1031  0.4850
  150MOL0     H20226   6.877   0.127   8.885 -0.3632  1.0372 -0.3480
  150MOL0     H20227   6.728   0.073   8.804  1.1524 -1.0518 -0.8699
  150MOL0     H20228   6.748   0.152   9.082 -1.2806 -0.5474  1.7450
  150MOL0     H20229   6.594   0.153   8.997  1.0835 -0.3389 -1.4502
  150MOL0     H20230   6.658   0.998   9.092 -1.4253 -1.3466 -1.4706
  150MOL0     H20231   6.598   1.166   9.270 -0.2501 -0.4192  1.5054
  150MOL0     H20232   6.157   1.376   9.458 -0.2350  3.2380 -0.7506
  150MOL0     H20233   6.137   1.583   9.605 -0.3659  0.2112  0.9023
  150MOL0     H20234   5.081   2.100  11.001 -0.1211 -0.2414  2.0470
  150MOL0     H20235   4.953   2.082  11.205  1.1782  2.2126 -2.4560
  150MOL0     H20236   4.540   1.780  11.337 -1.2257  1.6046 -2.2617
  150MOL0     H20237   4.431   1.709  11.535  1.0804  0.3376  0.5324
  150MOL0     H20238   4.247   1.692  11.746 -0.9368 -1.1984 -0.0385
  150MOL0     H20239   4.164   1.771  11.613  2.2596 -2.7760  0.3621
  150MOL0     H20240   4.025   1.905  11.763 -3.0740 -0.7709  2.7708
  150MOL0     H20241   4.103   1.873  11.893 -2.6310  2.9279 -0.8597
  150MOL0     H20242   4.058   1.602  11.813 -1.3273 -0.2456  1.4122
  150MOL0     H20243   3.920   1.695  11.728  0.5608 -0.3077 -1.0851
  150MOL0     H20244   3.874   1.787  11.939  1.5130  0.4674  0.4298
  150MOL0     H20245   3.835   1.614  11.937 -1.0493  1.7190 -1.1772
  150MOL0     H20246   4.117   1.605  12.239 -0.6714 -2.6001 -0.2709
  150MOL0     H20247   4.372   2.121  11.639 -1.6214 -2.6048  1.6640
  150MOL0     H20248   4.618   2.264  11.444 -0.5172  1.4593 -0.0251
  150MOL0     H20249   4.479   2.277  11.355  1.2936  0.7193 -0.8004
  150MOL0     H20250   4.458   2.295  11.526  1.9342 -1.4666  2.0158
  151MOL0     O20251   5.783   9.608   1.957 -0.0491  0.2717  0.3080
  151MOL0     C20252   5.815   9.504   1.901 -0.7635 -0.0511 -0.8585
  151MOL0     O20253   5.743   9.430   1.811  0.0071  1.2328  0.1384
  151MOL0     C20254   5.628   9.470   1.769  0.5500  0.1246  0.4980
  151MOL0     C20255   5.512   9.428   1.830 -0.2559  0.1715  0.6264
  151MOL0     C20256   5.381   9.470   1.788  0.4281 -0.6613  0.3555
  151MOL0     C20257   5.376   9.549   1.676 -0.2267 -0.2133  0.0537
  151MOL0     O20258   5.264   9.603   1.624 -0.4113 -0.7387 -0.8401
  151MOL0     C20259   5.136   9.582   1.688  1.1123 -0.7233 -0.0368
  151MOL0     C20260   5.013   9.630   1.614 -0.1504  0.2029  0.0207
  151MOL0     C20261   4.907   9.709   1.697 -0.0940 -0.0498 -0.8527
  151MOL0     C20262   4.806   9.771   1.599 -0.4066 -0.3459 -0.0343
  151MOL0     C20263   4.706   9.861   1.679  0.1729  0.1950 -0.6678
  151MOL0     C20264   4.621   9.947   1.587 -0.4749  0.1211 -0.0841
  151MOL0     C20265   4.510   9.999   1.674  0.0725 -0.3311  0.7357
  151MOL0     C20266   4.554  10.097   1.781  0.1599  0.0568 -0.0991
  151MOL0     N20267   4.434  10.153   1.846 -0.4834 -0.5857 -0.3171
  151MOL0     C20268   4.338  10.072   1.925  0.0278 -0.5970  0.0989
  151MOL0     C20269   4.246  10.163   1.951  1.2117  0.7159 -0.4505
  151MOL0     C20270   4.120  10.114   2.002  0.4191 -0.3653  0.0316
  151MOL0     C20271   4.022  10.049   1.893 -0.4317 -0.1644  0.3019
  151MOL0     C20272   3.963  10.153   1.802  0.3313  0.7149 -0.5644
  151MOL0     C20273   3.878  10.103   1.684 -0.3637 -0.0193  0.7773
  151MOL0     O20274   3.745  10.085   1.734  0.3407  0.1074 -0.1659
  151MOL0     C20275   3.684   9.986   1.677 -0.2057  0.0752  0.8187
  151MOL0     C20276   3.706   9.944   1.545 -0.2867 -0.5092 -0.1160
  151MOL0     C20277   3.626   9.848   1.480  0.3425 -0.3803 -0.5129
  151MOL0     C20278   3.524   9.787   1.560 -0.0928  0.0563 -0.2758
  151MOL0     C20279   3.449   9.671   1.501  0.9028  0.1420 -1.1967
  151MOL0     O20280   3.334   9.654   1.557 -0.1371  0.3254  0.3487
  151MOL0     C20281   3.237   9.572   1.495  0.0300 -1.6416  0.5693
  151MOL0     C20282   3.258   9.440   1.490 -0.2884 -0.2414 -1.1228
  151MOL0     C20283   3.166   9.357   1.415  0.0464 -0.0363 -0.1752
  151MOL0     C20284   3.063   9.420   1.339  0.8604  0.5157 -0.1940
  151MOL0     O20285   2.980   9.341   1.262  0.1890 -0.2346 -0.1892
  151MOL0     C20286   2.850   9.327   1.322 -0.2724  0.2804 -0.1531
  151MOL0     C20287   2.740   9.278   1.226 -0.0420  0.2495 -0.1371
  151MOL0     C20288   2.767   9.163   1.137 -0.6575  0.2949 -0.0727
  151MOL0     C20289   2.738   9.028   1.202  0.0770  0.4430 -0.2737
  151MOL0     C20290   2.799   8.911   1.135  0.0141  0.5337  0.3416
  151MOL0     C20291   2.784   8.780   1.218  0.1555  0.0918 -0.0155
  151MOL0     C20292   2.643   8.729   1.214  0.2756  0.3124  0.0551
  151MOL0     C20293   2.633   8.575   1.237 -0.2475 -0.2631  0.2768
  151MOL0    Cl20294   2.734   8.535   1.377 -0.5683  0.1961  0.1870
  151MOL0     C20295   3.052   9.555   1.350 -0.6071 -0.5611  0.7140
  151MOL0     C20296   3.138   9.627   1.432  0.5132  0.0862 -0.1321
  151MOL0     O20297   3.491   9.610   1.402 -0.5242  0.3487 -0.1869
  151MOL0     C20298   3.507   9.825   1.694  0.1041  0.1509  0.5032
  151MOL0     C20299   3.588   9.926   1.748 -0.3519 -0.0193 -0.3854
  151MOL0     N20300   4.279  10.291   1.912  0.3544  0.2987  0.9414
  151MOL0     N20301   4.394  10.283   1.845  0.2948 -0.0275 -0.5624
  151MOL0     C20302   5.495   9.595   1.604  0.6329 -0.0028  0.3301
  151MOL0     C20303   5.621   9.559   1.664 -0.2395 -0.7509 -0.0307
  151MOL0     C20304   5.953   9.454   1.923 -0.9269 -0.2825 -0.2733
  151MOL0     C20305   5.953   9.319   1.947  1.0404  0.2391  0.7765
  151MOL0     C20306   6.074   9.251   1.953  1.0438  0.6741  0.2668
  151MOL0     C20307   6.197   9.316   1.942 -0.3892 -0.9728  0.5703
  151MOL0     O20308   6.323   9.269   1.922  0.8824  0.9222 -0.4460
  151MOL0     C20309   6.339   9.125   1.936  0.1757 -0.2149  0.1978
  151MOL0     C20310   6.337   9.070   1.793  0.6692 -0.3030  0.0774
  151MOL0     C20311   6.330   8.913   1.771 -0.0105 -0.0018 -0.4527
  151MOL0     C20312   6.260   8.867   1.643 -0.5817  0.0787 -0.1719
  151MOL0     C20313   6.297   8.729   1.595  0.1244  0.3258  0.6293
  151MOL0     C20314   6.336   8.628   1.547 -0.0247 -0.0073  0.5112
  151MOL0     C20315   6.193   9.452   1.913  0.8697 -0.2613 -0.2773
  151MOL0     C20316   6.074   9.525   1.904 -0.2532 -0.4178 -0.1697
  151MOL0     C20317   6.079   9.669   1.858  0.4533  0.1891 -0.8721
  151MOL0     H20318   5.518   9.367   1.920  2.9128 -0.9681 -0.2549
  151MOL0     H20319   5.294   9.444   1.847  0.0577 -0.3898 -0.0694
  151MOL0     H20320   5.111   9.483   1.726 -2.8809  0.0691 -0.1851
  151MOL0     H20321   5.149   9.654   1.769  0.1769 -1.3723  0.6957
  151MOL0     H20322   4.966   9.544   1.566  0.2389 -0.9136  1.5448
  151MOL0     H20323   5.054   9.701   1.541  1.8992  1.6385  2.3773
  151MOL0     H20324   4.950   9.797   1.746 -1.2066  1.4511 -2.4512
  151MOL0     H20325   4.860   9.647   1.774  0.6754 -0.5075 -0.7454
  151MOL0     H20326   4.866   9.828   1.527  0.7343 -0.3744  0.8665
  151MOL0     H20327   4.762   9.682   1.553  0.4794 -1.6485  1.5370
  151MOL0     H20328   4.641   9.794   1.737 -0.7775  1.3022 -0.4190
  151MOL0     H20329   4.763   9.928   1.744  0.2374 -1.3896  1.0034
  151MOL0     H20330   4.692  10.017   1.542 -3.0025  0.8600 -3.2225
  151MOL0     H20331   4.586   9.887   1.503  2.5378 -0.0513 -1.3325
  151MOL0     H20332   4.461   9.914   1.723  0.6627 -1.2398 -0.2154
  151MOL0     H20333   4.428  10.039   1.612  0.1306  1.0101  1.4871
  151MOL0     H20334   4.619  10.050   1.856 -1.4697  1.1148  2.0760
  151MOL0     H20335   4.604  10.177   1.726 -3.2856  1.2869 -1.6573
  151MOL0     H20336   4.334   9.966   1.946  0.8221 -0.5565  0.5139
  151MOL0     H20337   4.128  10.044   2.085 -0.5552  0.3380  0.7526
  151MOL0     H20338   4.086  10.203   2.057  2.4374  0.2574  0.3667
  151MOL0     H20339   4.088   9.983   1.836  1.1679  2.7987 -1.5122
  151MOL0     H20340   3.938  10.000   1.945 -1.6867 -0.6972 -2.0918
  151MOL0     H20341   4.047  10.205   1.756  3.4560 -2.2892  1.3346
  151MOL0     H20342   3.907  10.218   1.870 -1.3671  0.0375 -1.2576
  151MOL0     H20343   3.925  10.010   1.653  0.3594  0.3229  0.8329
  151MOL0     H20344   3.901  10.166   1.597  0.8065  2.4288  2.7388
  151MOL0     H20345   3.790   9.985   1.490 -0.1272  0.3452  0.7426
  151MOL0     H20346   3.645   9.814   1.379 -1.3962 -0.8534 -0.7081
  151MOL0     H20347   3.335   9.400   1.555  2.2581  2.1632 -2.4898
  151MOL0     H20348   3.177   9.249   1.408 -1.3536 -0.2538  0.5218
  151MOL0     H20349   2.855   9.248   1.398  0.2884 -0.9515 -1.4195
  151MOL0     H20350   2.814   9.422   1.363  1.5462  2.0568 -2.3857
  151MOL0     H20351   2.660   9.241   1.291  1.4544 -1.0854  1.0439
  151MOL0     H20352   2.708   9.367   1.172  0.7076  0.8542  0.3735
  151MOL0     H20353   2.708   9.175   1.045  1.3917 -0.9404 -1.6382
  151MOL0     H20354   2.868   9.169   1.097 -0.8513 -1.3482 -0.8942
  151MOL0     H20355   2.629   9.021   1.209  0.1687  0.5960  1.5838
  151MOL0     H20356   2.772   9.025   1.306  1.3964 -1.9224 -0.7011
  151MOL0     H20357   2.904   8.937   1.121 -0.2383  1.6533  0.4369
  151MOL0     H20358   2.757   8.889   1.036  1.0155  0.8025 -0.1558
  151MOL0     H20359   2.832   8.694   1.171 -0.1013  0.0195 -0.1480
  151MOL0     H20360   2.831   8.789   1.316  5.8999 -3.0721 -2.0365
  151MOL0     H20361   2.594   8.760   1.121 -0.1540  1.6037  0.6826
  151MOL0     H20362   2.593   8.780   1.296  1.4905  0.0995  0.9514
  151MOL0     H20363   2.532   8.542   1.258 -0.1832 -0.3657  0.4232
  151MOL0     H20364   2.673   8.513   1.156  1.5364 -1.5050  2.0094
  151MOL0     H20365   2.969   9.604   1.299  0.0312  3.3315  2.9852
  151MOL0     H20366   3.121   9.733   1.446  0.8516  0.4495 -2.1550
  151MOL0     H20367   3.446   9.767   1.762  1.1727 -2.4034 -0.5806
  151MOL0     H20368   3.588   9.950   1.854 -0.2388  0.2992 -0.4578
  151MOL0     H20369   5.487   9.661   1.518 -0.2815  0.2637  0.6102
  151MOL0     H20370   5.709   9.607   1.623 -0.0993  0.2278  1.3373
  151MOL0     H20371   5.861   9.262   1.949  1.0884  0.1413  0.3059
  151MOL0     H20372   6.058   9.144   1.960  1.5978  0.5590 -0.1197
  151MOL0     H20373   6.262   9.073   1.994  1.5351 -0.3018  1.9993
  151MOL0     H20374   6.431   9.102   1.990 -0.8833  0.2962  2.3365
  151MOL0     H20375   6.422   9.111   1.737  0.8270  1.2290  1.3755
  151MOL0     H20376   6.246   9.109   1.748 -0.5482 -0.7815  2.0105
  151MOL0     H20377   6.263   8.880   1.851 -0.0424 -1.1023 -0.9188
  151MOL0     H20378   6.428   8.868   1.789  0.0079  0.5189  0.8680
  151MOL0     H20379   6.151   8.876   1.644 -0.6598  1.1030 -4.0162
  151MOL0     H20380   6.289   8.938   1.566 -1.4531 -2.3370 -2.9167
  151MOL0     H20381   6.349   8.529   1.510 -3.9935 -0.3546 -0.3675
  151MOL0     H20382   6.288   9.495   1.884  2.0390 -2.3840  0.1393
  151MOL0     H20383   5.998   9.685   1.787  1.7513  1.8665 -2.0607
  151MOL0     H20384   6.107   9.743   1.933  3.0818  0.3279 -1.8691
  151MOL0     H20385   6.166   9.667   1.792  1.3886 -4.8104  0.0787
  152MOL0     O20386   8.368   1.579   9.600 -0.0122 -0.5864  0.3308
  152MOL0     C20387   8.418   1.476   9.564  0.1841  0.0960 -0.1217
  152MOL0     O20388   8.384   1.402   9.453 -0.3865 -0.4559  0.0439
  152MOL0     C20389   8.247   1.398   9.414 -0.3134 -0.8393  0.5337
  152MOL0     C20390   8.188   1.281   9.398  0.0005 -0.1193 -0.1074
  152MOL0     C20391   8.041   1.275   9.372  0.3449 -0.7424 -0.8765
  152MOL0     C20392   7.973   1.392   9.343 -1.0307  1.3453  0.8496
  152MOL0     O20393   7.834   1.395   9.320 -0.0768 -0.2360 -0.0469
  152MOL0     C20394   7.758   1.367   9.440  0.5733 -0.4833  0.1670
  152MOL0     C20395   7.633   1.292   9.410  0.6960  0.0206 -0.0192
  152MOL0     C20396   7.529   1.373   9.349 -0.3610 -0.2944  0.0482
  152MOL0     C20397   7.538   1.409   9.202  0.2894  0.0330 -0.4272
  152MOL0     C20398   7.559   1.564   9.188 -0.0837 -0.4266  0.2914
  152MOL0     C20399   7.571   1.599   9.035  0.0227 -0.1493  0.1820
  152MOL0     C20400   7.636   1.741   9.005  0.1717  0.2152 -0.3450
  152MOL0     C20401   7.787   1.750   9.025 -0.5205  0.2552 -0.6936
  152MOL0     N20402   7.853   1.644   8.955 -0.8317  0.5102 -0.1341
  152MOL0     C20403   7.905   1.530   9.013  0.0073  0.2288  0.5945
  152MOL0     C20404   7.973   1.465   8.913 -0.2485  0.2013  0.3776
  152MOL0     C20405   8.051   1.335   8.935  0.1645  0.0282  0.2620
  152MOL0     C20406   8.192   1.344   8.866  0.6871  0.0931 -0.4210
  152MOL0     C20407   8.291   1.439   8.943 -1.0025  0.1600  0.4488
  152MOL0     C20408   8.433   1.441   8.875  0.0350 -0.5736 -0.3351
  152MOL0     O20409   8.487   1.313   8.848 -0.0366  0.3306  0.0684
  152MOL0     C20410   8.582   1.282   8.940 -0.2987  0.6534 -0.1891
  152MOL0     C20411   8.719   1.314   8.929 -1.0161  0.9149  0.3935
  152MOL0     C20412   8.808   1.270   9.027  1.2554 -0.1447  0.0797
  152MOL0     C20413   8.760   1.197   9.141  0.1750 -0.0121  0.3419
  152MOL0     C20414   8.857   1.152   9.237 -0.1729 -0.1850 -0.6312
  152MOL0     O20415   8.984   1.191   9.218 -0.6391 -0.0310 -0.1304
  152MOL0     C20416   9.072   1.180   9.319 -0.7856  0.1047 -0.2229
  152MOL0     C20417   9.095   1.072   9.401  0.9623 -0.3829  0.2534
  152MOL0     C20418   9.198   1.052   9.483 -0.1996 -0.4486 -0.1322
  152MOL0     C20419   9.276   1.169   9.501  0.2431 -0.2643 -0.1752
  152MOL0     O20420   9.377   1.163   9.587 -0.5004 -0.2690 -0.0785
  152MOL0     C20421   9.440   1.037   9.608  0.0177 -0.2787 -1.0636
  152MOL0     C20422   9.577   1.048   9.675 -0.4574  0.6669  0.0641
  152MOL0     C20423   9.610   0.903   9.739  0.3051  0.2468  0.3670
  152MOL0     C20424   9.765   0.899   9.774  0.0702  1.0191 -0.2550
  152MOL0     C20425   9.819   0.754   9.800 -0.1096  0.1272 -0.9197
  152MOL0     C20426   9.760   0.683   9.924 -0.4053  0.5543 -0.1334
  152MOL0     C20427   9.794   0.522   9.915 -0.3467  0.1129  0.1601
  152MOL0     C20428   9.775   0.459  10.054  0.9451 -0.6931 -0.1983
  152MOL0    Cl20429   9.860   0.307  10.059  0.3749  0.1064 -0.2974
  152MOL0     C20430   9.258   1.281   9.422 -0.4423 -0.1843  0.8789
  152MOL0     C20431   9.148   1.295   9.331  1.0436  0.5232 -0.3214
  152MOL0     O20432   8.824   1.076   9.333 -0.0848  0.2321 -0.0659
  152MOL0     C20433   8.624   1.165   9.150  0.5236  0.8417 -0.1292
  152MOL0     C20434   8.532   1.207   9.050 -0.8375  0.7635  0.7655
  152MOL0     N20435   7.962   1.548   8.795 -0.2149 -0.2225  0.1948
  152MOL0     N20436   7.882   1.654   8.815  0.4492 -0.0768  0.3628
  152MOL0     C20437   8.037   1.519   9.343  0.1041 -0.2746  0.3410
  152MOL0     C20438   8.166   1.513   9.382  0.4836  0.5762 -0.0431
  152MOL0     C20439   8.553   1.455   9.623  0.0175 -0.2336 -0.9518
  152MOL0     C20440   8.642   1.415   9.530 -0.2878 -0.9085 -0.6497
  152MOL0     C20441   8.773   1.375   9.566  0.6587  0.0305  0.6070
  152MOL0     C20442   8.804   1.369   9.703  0.0956 -0.2669 -0.2984
  152MOL0     O20443   8.924   1.330   9.745 -0.2469  0.4621 -0.5341
  152MOL0     C20444   9.025   1.441   9.728  0.7277 -0.0335  0.4093
  152MOL0     C20445   9.129   1.413   9.828 -0.4953  0.5632  0.3674
  152MOL0     C20446   9.252   1.504   9.834  0.3387  0.3785 -0.6426
  152MOL0     C20447   9.216   1.656   9.877 -0.7741 -0.4029  0.5732
  152MOL0     C20448   9.321   1.753   9.844  0.7567  0.6426 -0.3670
  152MOL0     C20449   9.405   1.836   9.851 -1.0381  0.0241 -0.0292
  152MOL0     C20450   8.706   1.403   9.798  0.3525 -1.2415 -0.8662
  152MOL0     C20451   8.579   1.450   9.764  0.4220 -0.7939  0.3245
  152MOL0     C20452   8.487   1.503   9.866 -0.6334 -0.3578  0.1840
  152MOL0     H20453   8.247   1.195   9.427 -1.1492 -0.9160 -0.0324
  152MOL0     H20454   7.982   1.185   9.361 -1.5159  0.4364 -0.9368
  152MOL0     H20455   7.816   1.311   9.514 -0.4243 -1.3554  0.3150
  152MOL0     H20456   7.736   1.460   9.492  2.6674 -0.2710  0.7566
  152MOL0     H20457   7.582   1.263   9.503 -2.9125  1.9748 -1.1883
  152MOL0     H20458   7.645   1.196   9.357 -0.4608 -2.1222  3.2626
  152MOL0     H20459   7.530   1.466   9.407  0.2415 -1.0832  1.3628
  152MOL0     H20460   7.438   1.314   9.360 -2.5695  2.7236 -0.9606
  152MOL0     H20461   7.619   1.357   9.150 -0.7680 -1.6568 -0.4931
  152MOL0     H20462   7.449   1.384   9.143  1.7031  1.0142 -3.1412
  152MOL0     H20463   7.470   1.616   9.225 -0.0275  0.2106 -0.4309
  152MOL0     H20464   7.648   1.604   9.237  1.2279  0.3471 -2.4771
  152MOL0     H20465   7.642   1.526   8.996  1.7602  1.9507 -0.7644
  152MOL0     H20466   7.474   1.577   8.989  0.3660 -0.1022 -0.5801
  152MOL0     H20467   7.592   1.815   9.072 -1.8588 -1.4104  0.2542
  152MOL0     H20468   7.618   1.751   8.898  1.1819 -3.7689 -1.0600
  152MOL0     H20469   7.818   1.837   8.966 -0.4929  0.8472  0.1740
  152MOL0     H20470   7.821   1.748   9.129 -0.0192  0.6176 -0.8474
  152MOL0     H20471   7.912   1.507   9.118  3.0498 -1.5417  0.1272
  152MOL0     H20472   8.061   1.318   9.042  0.1471  1.2076  0.4685
  152MOL0     H20473   7.981   1.264   8.890 -0.4170 -0.0933  1.3231
  152MOL0     H20474   8.227   1.241   8.871 -0.6037 -0.4153 -1.3890
  152MOL0     H20475   8.187   1.356   8.758  2.0898  0.2155 -0.4874
  152MOL0     H20476   8.301   1.390   9.041 -1.3256  0.8224  0.8222
  152MOL0     H20477   8.243   1.533   8.969 -0.5662 -0.1899  2.7765
  152MOL0     H20478   8.500   1.521   8.908  1.2527 -1.1997 -1.2222
  152MOL0     H20479   8.403   1.477   8.776  1.7674  0.3053 -0.5646
  152MOL0     H20480   8.754   1.366   8.840 -0.6676 -0.5978 -0.3808
  152MOL0     H20481   8.910   1.306   9.016  0.7415  1.2250 -0.4423
  152MOL0     H20482   9.045   0.977   9.379  1.7072 -0.5681 -0.7147
  152MOL0     H20483   9.212   0.958   9.535  0.4780  0.3195  1.1287
  152MOL0     H20484   9.380   0.980   9.679  3.1291 -0.1195  1.8989
  152MOL0     H20485   9.451   0.980   9.515 -1.2077 -1.3686 -0.5736
  152MOL0     H20486   9.661   1.072   9.610  0.5466  2.8017  1.9930
  152MOL0     H20487   9.576   1.122   9.756  2.2463  0.9227 -0.0615
  152MOL0     H20488   9.543   0.872   9.819  1.1227 -0.9143  0.6224
  152MOL0     H20489   9.589   0.824   9.666  3.4807  0.0935 -0.5247
  152MOL0     H20490   9.782   0.962   9.862 -0.3711  1.5967 -0.5777
  152MOL0     H20491   9.816   0.955   9.694  0.0589  0.7160 -0.4758
  152MOL0     H20492   9.928   0.760   9.806 -0.0824 -0.4876 -0.6869
  152MOL0     H20493   9.777   0.692   9.720 -2.0226 -0.2519  0.2872
  152MOL0     H20494   9.795   0.733  10.015  0.3075 -0.0775 -0.0459
  152MOL0     H20495   9.650   0.685   9.919 -0.3305  2.1524 -2.4548
  152MOL0     H20496   9.892   0.498   9.874 -0.2602 -2.1004  1.5326
  152MOL0     H20497   9.730   0.479   9.838  1.6935 -0.2155 -1.4280
  152MOL0     H20498   9.803   0.522  10.138 -1.3140 -0.6434  0.5892
  152MOL0     H20499   9.667   0.445  10.067  1.5780 -4.6455  2.7905
  152MOL0     H20500   9.332   1.360   9.425  2.4249 -2.3238 -3.4091
  152MOL0     H20501   9.123   1.389   9.283 -3.0964 -0.2247 -0.0079
  152MOL0     H20502   8.593   1.113   9.240  2.3803  1.7213  1.0782
  152MOL0     H20503   8.429   1.179   9.067 -1.3146  0.4365 -2.1737
  152MOL0     H20504   7.977   1.607   9.320  2.8511  1.7416  0.4884
  152MOL0     H20505   8.204   1.614   9.385  0.5790  0.5310  0.3344
  152MOL0     H20506   8.616   1.401   9.426 -0.9297 -4.9253 -0.1000
  152MOL0     H20507   8.850   1.344   9.496  0.8625  0.8826  0.4488
  152MOL0     H20508   8.983   1.541   9.744  0.6574  0.5159 -2.5748
  152MOL0     H20509   9.074   1.439   9.630 -0.5949  1.8867 -0.3567
  152MOL0     H20510   9.157   1.308   9.815 -0.9499 -0.1115  3.8949
  152MOL0     H20511   9.094   1.421   9.931  2.2526 -2.6984  1.7565
  152MOL0     H20512   9.297   1.502   9.734 -0.3411  0.1302 -0.9464
  152MOL0     H20513   9.319   1.460   9.908 -1.4691  0.5836  1.2126
  152MOL0     H20514   9.143   1.696   9.806  0.1006 -0.6336 -0.4806
  152MOL0     H20515   9.196   1.661   9.984 -0.0632 -1.7231  0.7949
  152MOL0     H20516   9.474   1.916   9.869 -2.5138  0.9838  1.6546
  152MOL0     H20517   8.725   1.396   9.905 -4.0904 -2.8195  0.0328
  152MOL0     H20518   8.481   1.612   9.858 -0.5395 -0.1503  2.3359
  152MOL0     H20519   8.388   1.465   9.838  0.0352 -0.9988 -1.3986
  152MOL0     H20520   8.508   1.471   9.969  0.6073  0.6439  0.2667
  153MOL0     O20521   6.462   8.719  10.889 -0.2138  0.3674 -0.4099
  153MOL0     C20522   6.405   8.626  10.946 -0.0300 -0.1040 -0.1028
  153MOL0     O20523   6.332   8.634  11.071 -0.2843  0.3337 -0.4224
  153MOL0     C20524   6.316   8.753  11.131  0.0570 -0.0603  0.6385
  153MOL0     C20525   6.270   8.873  11.073 -0.3184 -0.1079  0.5880
  153MOL0     C20526   6.247   8.981  11.155  0.6502 -0.0106 -0.7177
  153MOL0     C20527   6.258   8.976  11.295  0.1374  0.2796  0.9861
  153MOL0     O20528   6.224   9.066  11.391 -0.9612  0.2992 -0.3157
  153MOL0     C20529   6.148   9.176  11.343 -0.7333  0.1683  0.7308
  153MOL0     C20530   6.101   9.267  11.467  0.0296  0.2043 -0.3407
  153MOL0     C20531   6.212   9.335  11.548  0.1359 -0.2041 -0.0120
  153MOL0     C20532   6.174   9.434  11.652 -0.0557 -0.0179 -0.4509
  153MOL0     C20533   6.092   9.558  11.602 -0.9030 -0.4338  0.1614
  153MOL0     C20534   6.091   9.679  11.692 -0.2633 -0.8173 -0.4831
  153MOL0     C20535   6.232   9.729  11.743  0.1491 -0.6423  1.0581
  153MOL0     C20536   6.238   9.870  11.814  0.8377 -0.0591  0.5332
  153MOL0     N20537   6.149   9.868  11.925 -0.2631  0.0077 -0.8691
  153MOL0     C20538   6.011   9.895  11.930  0.6082  0.5626 -0.5580
  153MOL0     C20539   5.987   9.891  12.070  0.1174  0.2291  0.8947
  153MOL0     C20540   5.851   9.917  12.137 -0.7720  1.4715 -0.0752
  153MOL0     C20541   5.854   9.990  12.275 -0.6694 -0.1809 -0.2015
  153MOL0     C20542   5.724   9.974  12.356  0.2857 -0.0188 -0.4555
  153MOL0     C20543   5.731   9.849  12.442  0.0535  0.0011 -0.2288
  153MOL0     O20544   5.593   9.825  12.471  0.7013  0.2881  0.3736
  153MOL0     C20545   5.519   9.906  12.548 -0.5542 -0.4472  0.8242
  153MOL0     C20546   5.389   9.885  12.548 -1.0934  0.5927 -0.0204
  153MOL0     C20547   5.307   9.938  12.646 -0.0045 -0.6118 -0.6722
  153MOL0     C20548   5.358  10.028  12.738  0.8831  0.5073  0.4736
  153MOL0     C20549   5.273  10.081  12.849  0.3097  0.0162 -0.7904
  153MOL0     O20550   5.149  10.032  12.865  0.6294 -1.3765 -0.0908
  153MOL0     C20551   5.090  10.059  12.990 -0.1099 -0.8156 -0.1328
  153MOL0     C20552   4.987  10.158  12.999  0.6647  0.6183  0.3809
  153MOL0     C20553   4.942  10.205  13.122  0.2899 -0.6664  0.4467
  153MOL0     C20554   4.987  10.146  13.243  0.0577  0.2599  0.2032
  153MOL0     O20555   4.954  10.184  13.379  0.8996  0.1858  1.1886
  153MOL0     C20556   4.849  10.281  13.395  0.2723  0.2383 -0.4266
  153MOL0     C20557   4.850  10.342  13.540  0.7799  0.4318 -1.0807
  153MOL0     C20558   4.806  10.233  13.641  0.2052 -0.1531  0.1651
  153MOL0     C20559   4.800  10.279  13.796 -0.2994 -0.0574  0.8988
  153MOL0     C20560   4.721  10.174  13.877 -0.7184 -0.1348 -1.3533
  153MOL0     C20561   4.754  10.200  14.023 -0.7518  0.6209  0.8000
  153MOL0     C20562   4.752  10.350  14.073  0.1091 -0.2385 -0.5720
  153MOL0     C20563   4.775  10.344  14.228 -0.1971  0.1125 -0.4513
  153MOL0    Cl20564   4.931  10.282  14.263  0.5542  0.3869  0.4016
  153MOL0     C20565   5.091  10.045  13.229  1.2442 -0.1549 -0.4904
  153MOL0     C20566   5.131  10.004  13.110 -0.0742 -0.0038  0.5315
  153MOL0     O20567   5.315  10.173  12.914 -0.3435  0.2790  0.1325
  153MOL0     C20568   5.491  10.069  12.723 -0.1805  0.6938  0.1449
  153MOL0     C20569   5.575  10.003  12.627 -0.5848  0.1371 -0.2097
  153MOL0     N20570   6.092   9.841  12.133  0.1964  0.5696 -0.1427
  153MOL0     N20571   6.189   9.827  12.048  0.0821  0.2544 -0.3372
  153MOL0     C20572   6.321   8.857  11.343 -0.2155 -0.9790 -1.4457
  153MOL0     C20573   6.349   8.754  11.261  1.0595  0.0311  0.3659
  153MOL0     C20574   6.397   8.483  10.883 -0.4380  0.2423  0.3155
  153MOL0     C20575   6.282   8.404  10.909  0.5118 -0.2285 -0.7800
  153MOL0     C20576   6.258   8.281  10.847  1.9393  1.4771  0.3742
  153MOL0     C20577   6.358   8.231  10.762 -0.0819  0.4105 -0.3853
  153MOL0     O20578   6.338   8.100  10.733 -0.4756  0.2307 -0.1921
  153MOL0     C20579   6.437   8.030  10.660  0.1484  0.1484 -0.5649
  153MOL0     C20580   6.407   8.051  10.506 -0.6335  0.7833  0.2414
  153MOL0     C20581   6.522   8.111  10.428  0.0841 -0.3476  0.3635
  153MOL0     C20582   6.586   8.002  10.347 -0.9389  0.2038  1.4604
  153MOL0     C20583   6.702   8.062  10.272  0.2325  1.1269  0.5435
  153MOL0     C20584   6.784   8.129  10.219  0.3514 -0.5812  0.4077
  153MOL0     C20585   6.468   8.307  10.733 -0.6206  0.0344  1.1867
  153MOL0     C20586   6.489   8.432  10.790 -0.0353 -0.4415 -0.2098
  153MOL0     C20587   6.618   8.495  10.760  1.1640  0.4989 -0.0266
  153MOL0     H20588   6.233   8.882  10.972 -0.0647 -3.5490  0.0622
  153MOL0     H20589   6.203   9.067  11.105 -0.1719 -0.9052 -1.5554
  153MOL0     H20590   6.203   9.239  11.273  1.8001 -1.4667  1.1154
  153MOL0     H20591   6.065   9.145  11.279 -0.2626 -0.6286  0.4935
  153MOL0     H20592   6.035   9.199  11.522 -0.1971 -1.4566 -2.5247
  153MOL0     H20593   6.030   9.341  11.428 -0.0683  1.2731  1.7420
  153MOL0     H20594   6.282   9.380  11.478  0.1564  3.6846  2.2230
  153MOL0     H20595   6.263   9.251  11.597  0.5466  0.1195  0.1219
  153MOL0     H20596   6.114   9.385  11.729 -0.2936  1.2879  0.2319
  153MOL0     H20597   6.273   9.466  11.687 -0.0839 -1.0650  0.6947
  153MOL0     H20598   6.149   9.592  11.515  1.8214 -2.4841  1.0081
  153MOL0     H20599   5.988   9.530  11.585 -2.0007  0.9714  3.6641
  153MOL0     H20600   6.053   9.760  11.629 -2.2877 -1.1729  0.1966
  153MOL0     H20601   6.022   9.651  11.772 -0.2125  1.1945  0.3343
  153MOL0     H20602   6.303   9.749  11.662  0.1199  1.2816  1.4426
  153MOL0     H20603   6.277   9.642  11.792  0.3227  0.0582  2.1974
  153MOL0     H20604   6.336   9.887  11.860  2.1344 -2.3247 -1.1959
  153MOL0     H20605   6.230   9.958  11.749  0.7878  0.1445  0.8120
  153MOL0     H20606   5.940   9.914  11.850 -0.0020 -2.7851 -0.9858
  153MOL0     H20607   5.784   9.972  12.070  2.3391  0.0383 -4.8693
  153MOL0     H20608   5.798   9.822  12.152 -1.9477  1.1608 -4.7173
  153MOL0     H20609   5.942   9.954  12.330 -1.3456 -3.2237 -0.9401
  153MOL0     H20610   5.860  10.097  12.252  2.8953  0.2234  1.7966
  153MOL0     H20611   5.633   9.983  12.296 -2.3953 -1.7833  2.9301
  153MOL0     H20612   5.721  10.057  12.427  3.0527  2.9624 -3.4742
  153MOL0     H20613   5.789   9.877  12.530 -1.7357  0.0939  0.9785
  153MOL0     H20614   5.784   9.768  12.392 -0.6071 -0.8428  0.4223
  153MOL0     H20615   5.349   9.808  12.482 -0.0691 -0.2029  0.2542
  153MOL0     H20616   5.203   9.908  12.647 -1.3450  3.4990 -0.6821
  153MOL0     H20617   4.956  10.202  12.905  2.1746 -0.7873 -0.8483
  153MOL0     H20618   4.874  10.290  13.121  0.3897 -0.5882  0.0061
  153MOL0     H20619   4.872  10.361  13.324  0.6051 -0.6710 -1.3737
  153MOL0     H20620   4.751  10.234  13.381 -1.0099  3.0291 -1.5301
  153MOL0     H20621   4.944  10.384  13.575  1.6640 -0.1145 -2.7077
  153MOL0     H20622   4.776  10.423  13.536  0.2049 -0.0882 -1.2072
  153MOL0     H20623   4.708  10.201  13.604  0.6943 -1.2478 -0.2251
  153MOL0     H20624   4.875  10.148  13.632 -2.1792 -2.0790 -1.2306
  153MOL0     H20625   4.742  10.371  13.806  0.2888  0.3305  0.8316
  153MOL0     H20626   4.906  10.283  13.823  0.4640  0.2498 -1.8554
  153MOL0     H20627   4.746  10.073  13.842  0.5874 -1.1050  1.9777
  153MOL0     H20628   4.616  10.189  13.852 -0.4493  0.9074 -1.9128
  153MOL0     H20629   4.681  10.151  14.089 -1.7131  0.4579 -0.3469
  153MOL0     H20630   4.856  10.164  14.031 -1.3166 -0.9159  1.5184
  153MOL0     H20631   4.656  10.400  14.061 -0.3718 -0.5265  1.6068
  153MOL0     H20632   4.834  10.415  14.039 -0.4260 -1.2747 -4.2797
  153MOL0     H20633   4.756  10.447  14.258  1.4285 -0.0816  1.4373
  153MOL0     H20634   4.700  10.280  14.277  0.8782  0.7835  2.2565
  153MOL0     H20635   5.138  10.004  13.318  1.2168  0.1256 -0.3469
  153MOL0     H20636   5.208   9.928  13.107  2.4532  2.3906  0.2491
  153MOL0     H20637   5.534  10.133  12.799 -3.7804 -0.5180  3.5179
  153MOL0     H20638   5.681  10.027  12.629 -0.4526 -0.4696  1.0811
  153MOL0     H20639   6.354   8.846  11.446  0.5008 -2.5039 -1.8105
  153MOL0     H20640   6.384   8.659  11.299 -2.7618 -0.3846  3.4917
  153MOL0     H20641   6.202   8.433  10.977  0.3194  0.9366 -1.4739
  153MOL0     H20642   6.181   8.213  10.882  3.4601 -1.2367 -1.2528
  153MOL0     H20643   6.432   7.921  10.667  0.8671 -0.0527 -2.6135
  153MOL0     H20644   6.536   8.057  10.700 -0.2199  1.0007 -0.1981
  153MOL0     H20645   6.319   8.114  10.490 -1.6167 -0.4622  0.5966
  153MOL0     H20646   6.381   7.952  10.466  2.2208  0.1781 -0.2982
  153MOL0     H20647   6.592   8.156  10.499 -0.6165  4.4364 -1.5586
  153MOL0     H20648   6.472   8.188  10.367  2.2097  2.3089  1.7438
  153MOL0     H20649   6.638   7.933  10.414  1.2711 -0.4837 -0.7866
  153MOL0     H20650   6.515   7.952  10.282  1.9986 -1.1372 -0.9840
  153MOL0     H20651   6.854   8.188  10.164  2.2785  0.3627  3.5996
  153MOL0     H20652   6.542   8.263  10.668 -0.6892 -2.0350  2.4228
  153MOL0     H20653   6.594   8.592  10.714  0.1437  0.5652  0.6213
  153MOL0     H20654   6.658   8.507  10.861 -1.2588 -1.6713  1.2964
  153MOL0     H20655   6.681   8.432  10.697  1.6732  2.2198 -1.3232
  154MOL0     O20656  10.639   6.004   4.103 -0.2210  0.9333  0.1407
  154MOL0     C20657  10.708   5.962   4.197  0.0966 -0.1512  0.5367
  154MOL0     O20658  10.829   6.014   4.234 -0.3019  0.6387 -0.4844
  154MOL0     C20659  10.885   6.126   4.170  0.0857  0.2294 -0.0305
  154MOL0     C20660  10.880   6.167   4.037 -0.1076 -0.5158 -0.1045
  154MOL0     C20661  10.951   6.285   3.989  0.1701 -0.0208  0.8895
  154MOL0     C20662  10.998   6.376   4.088  0.9503 -0.3628  0.8236
  154MOL0     O20663  11.042   6.499   4.056  0.1376 -0.4308  0.3894
  154MOL0     C20664  10.959   6.570   3.959  0.1738  0.8303 -1.4038
  154MOL0     C20665  10.947   6.717   3.995  0.1555 -0.9677  1.1491
  154MOL0     C20666  11.092   6.778   4.009  0.0114 -0.1754  0.7196
  154MOL0     C20667  11.104   6.926   3.957 -0.3971  0.2035  0.6745
  154MOL0     C20668  11.239   6.977   3.996  0.1136 -0.1279  0.7029
  154MOL0     C20669  11.337   6.937   3.886 -0.9125 -1.0935 -0.1407
  154MOL0     C20670  11.473   6.989   3.921 -0.2593 -0.6747  0.8900
  154MOL0     C20671  11.582   6.909   3.847 -0.2487 -0.6760 -0.3387
  154MOL0     N20672  11.714   6.952   3.868 -0.6038 -0.8487 -0.2240
  154MOL0     C20673  11.764   6.994   3.990  0.6806  0.5141 -0.0158
  154MOL0     C20674  11.887   7.030   3.977  0.8590 -0.5250  0.4923
  154MOL0     C20675  11.980   7.069   4.087  0.3510  0.5645 -0.0637
  154MOL0     C20676  12.113   7.133   4.049  0.1686 -0.1387  0.7759
  154MOL0     C20677  12.224   7.032   4.020  0.3580 -0.6828  0.0434
  154MOL0     C20678  12.350   7.086   3.959  0.2414 -0.4573  0.1906
  154MOL0     O20679  12.402   7.183   4.045 -0.0618  0.0747 -0.0781
  154MOL0     C20680  12.540   7.171   4.071  0.3440  0.0202 -0.0933
  154MOL0     C20681  12.625   7.161   3.957  0.3032  0.6236  0.2456
  154MOL0     C20682  12.762   7.158   3.983 -0.2418  0.0740 -0.4831
  154MOL0     C20683  12.816   7.167   4.115  0.7209  0.3624  0.7279
  154MOL0     C20684  12.960   7.159   4.141 -0.5719  0.3856 -0.6462
  154MOL0     O20685  13.038   7.117   4.036 -0.0930  0.3018  0.1760
  154MOL0     C20686  13.170   7.078   4.066  0.3018  0.2161 -0.4491
  154MOL0     C20687  13.264   7.157   4.130 -0.3753 -0.0765  0.5773
  154MOL0     C20688  13.397   7.121   4.152  0.1798  0.5426 -0.0246
  154MOL0     C20689  13.445   6.997   4.120  0.4292 -0.0718 -0.4153
  154MOL0     O20690  13.586   6.978   4.124 -0.0060 -0.3147  1.1171
  154MOL0     C20691  13.638   6.874   4.039 -0.5438  0.6040  0.0054
  154MOL0     C20692  13.768   6.810   4.105  0.2549 -0.2698 -0.3327
  154MOL0     C20693  13.802   6.681   4.026 -0.3489  0.0818 -0.7738
  154MOL0     C20694  13.804   6.566   4.123 -0.4607 -0.2457  0.3467
  154MOL0     C20695  13.870   6.441   4.047  0.5230 -0.7661  0.1629
  154MOL0     C20696  13.912   6.324   4.137 -0.3178  0.3651 -0.0252
  154MOL0     C20697  13.792   6.260   4.213  0.7153 -0.9413  0.6798
  154MOL0     C20698  13.670   6.233   4.115  0.4264 -0.7530 -0.1561
  154MOL0    Cl20699  13.539   6.133   4.193  0.2005 -0.1772  0.1747
  154MOL0     C20700  13.346   6.911   4.071  0.1145 -0.2565  0.2811
  154MOL0     C20701  13.210   6.952   4.041 -0.3151 -0.7675 -0.8348
  154MOL0     O20702  12.999   7.182   4.257  0.7813 -0.7172  0.2936
  154MOL0     C20703  12.718   7.183   4.215 -1.1354 -0.3709 -1.2948
  154MOL0     C20704  12.589   7.193   4.194 -0.0237  0.2940 -1.1857
  154MOL0     N20705  11.919   7.009   3.841  0.6721  0.3822 -0.0809
  154MOL0     N20706  11.812   6.972   3.773 -0.2086  0.2136  0.4138
  154MOL0     C20707  11.017   6.322   4.219  0.4525 -0.6596 -1.2390
  154MOL0     C20708  10.957   6.199   4.251 -0.7613 -0.2259 -0.5489
  154MOL0     C20709  10.670   5.836   4.276 -0.3026  1.0778 -0.1561
  154MOL0     C20710  10.534   5.797   4.278  0.5996  0.4516  0.0736
  154MOL0     C20711  10.494   5.681   4.348 -0.0360 -0.7453 -0.5642
  154MOL0     C20712  10.581   5.614   4.434  0.7584 -0.2080  0.7123
  154MOL0     O20713  10.517   5.506   4.503 -0.0301  0.1247 -0.5142
  154MOL0     C20714  10.592   5.457   4.620 -0.8043  0.6073  0.1195
  154MOL0     C20715  10.707   5.359   4.606  0.0658 -0.1157 -0.3880
  154MOL0     C20716  10.786   5.327   4.731  0.2156 -0.4127 -0.7370
  154MOL0     C20717  10.702   5.312   4.860  0.3312 -0.2257  0.0560
  154MOL0     C20718  10.628   5.192   4.860 -0.1703  0.2964 -1.1979
  154MOL0     C20719  10.572   5.085   4.849 -0.4705 -0.3453  0.1261
  154MOL0     C20720  10.713   5.655   4.437 -0.6481 -0.5755 -1.3767
  154MOL0     C20721  10.765   5.765   4.363 -0.4440 -0.4277 -0.4263
  154MOL0     C20722  10.920   5.787   4.364  0.2497  0.5311  0.3912
  154MOL0     H20723  10.841   6.093   3.968  1.9673 -0.8753 -0.9614
  154MOL0     H20724  10.945   6.313   3.884  2.4700 -1.8737  0.1904
  154MOL0     H20725  11.009   6.564   3.862 -2.0298  2.2484 -2.6849
  154MOL0     H20726  10.861   6.522   3.962  1.2754 -1.5855  1.4633
  154MOL0     H20727  10.910   6.735   4.096 -1.6471  1.4837  0.1239
  154MOL0     H20728  10.886   6.778   3.929  1.9808 -0.2040  0.0838
  154MOL0     H20729  11.156   6.719   3.943  0.0072  0.6100  0.0020
  154MOL0     H20730  11.122   6.774   4.114 -2.6795  1.4414  1.6438
  154MOL0     H20731  11.071   6.943   3.854  2.3697 -1.6957 -0.6417
  154MOL0     H20732  11.035   6.984   4.019  0.3293 -0.8751  2.5589
  154MOL0     H20733  11.228   7.085   3.983 -2.1522 -0.4247 -0.2213
  154MOL0     H20734  11.279   6.953   4.095  1.3942  3.1126  1.1032
  154MOL0     H20735  11.337   6.828   3.881 -0.4461 -1.0382 -2.8227
  154MOL0     H20736  11.295   6.973   3.791 -1.3360  0.2507  0.5276
  154MOL0     H20737  11.475   6.971   4.029 -1.2811  1.3450  1.2856
  154MOL0     H20738  11.474   7.098   3.914 -0.6318 -0.7454 -0.6266
  154MOL0     H20739  11.567   6.805   3.879 -0.7771  0.0075  1.7512
  154MOL0     H20740  11.565   6.925   3.740  1.7783  0.6072 -0.5170
  154MOL0     H20741  11.703   6.992   4.080  0.0610 -0.2699 -0.4391
  154MOL0     H20742  11.921   7.135   4.151  0.1822  0.7398 -0.3946
  154MOL0     H20743  11.981   6.987   4.159 -3.8901  0.7916  0.4765
  154MOL0     H20744  12.104   7.206   3.967 -1.9975  0.0409  1.1177
  154MOL0     H20745  12.154   7.190   4.132  1.5456 -0.5327  0.3992
  154MOL0     H20746  12.189   6.959   3.947 -0.2971  0.1722 -0.5305
  154MOL0     H20747  12.242   6.988   4.118 -1.6469  2.5911  2.0961
  154MOL0     H20748  12.332   7.117   3.856 -3.1318  0.4415  0.9254
  154MOL0     H20749  12.421   7.003   3.950  1.2451  0.3750  0.2248
  154MOL0     H20750  12.587   7.146   3.857  2.4933 -0.9455 -0.4283
  154MOL0     H20751  12.829   7.160   3.897  2.1626 -2.6010  1.1132
  154MOL0     H20752  13.239   7.258   4.161  1.9581  1.2312 -1.4456
  154MOL0     H20753  13.470   7.195   4.182  1.8900 -0.6288 -1.0822
  154MOL0     H20754  13.570   6.788   4.027  2.8141 -1.9902 -2.4257
  154MOL0     H20755  13.661   6.915   3.940 -0.1236 -2.9377 -1.5306
  154MOL0     H20756  13.838   6.891   4.086 -2.1704  1.7873 -1.0846
  154MOL0     H20757  13.749   6.796   4.212 -0.3999  1.0266 -0.2611
  154MOL0     H20758  13.732   6.666   3.943 -2.6809  2.7521  0.5194
  154MOL0     H20759  13.908   6.680   3.999  0.9049 -2.3239  3.2837
  154MOL0     H20760  13.700   6.538   4.145 -1.0302 -0.2101 -2.0902
  154MOL0     H20761  13.869   6.574   4.211  1.4692 -1.8710 -0.8392
  154MOL0     H20762  13.961   6.469   3.993  2.5242 -0.1519  3.5929
  154MOL0     H20763  13.791   6.408   3.978  0.3424 -1.8462  0.8695
  154MOL0     H20764  13.944   6.244   4.069 -2.3892 -1.6570  1.1891
  154MOL0     H20765  13.995   6.351   4.202 -0.6882  0.8421  0.2567
  154MOL0     H20766  13.768   6.328   4.295  0.0975 -0.8025  0.3904
  154MOL0     H20767  13.823   6.163   4.252 -0.6569 -0.8843  1.9913
  154MOL0     H20768  13.630   6.331   4.088 -1.4467 -1.4130  0.0911
  154MOL0     H20769  13.712   6.183   4.027 -2.3400  0.6216 -2.4344
  154MOL0     H20770  13.378   6.811   4.043 -1.6030 -1.1167  1.2726
  154MOL0     H20771  13.137   6.885   3.997 -0.4811  0.9739 -3.4281
  154MOL0     H20772  12.742   7.200   4.320 -2.5001 -1.5806 -0.7453
  154MOL0     H20773  12.520   7.204   4.276  1.9162  0.3253  0.5180
  154MOL0     H20774  11.064   6.385   4.293 -2.6645  1.0632 -0.5362
  154MOL0     H20775  10.956   6.159   4.352 -2.7880  2.2963  0.5520
  154MOL0     H20776  10.459   5.845   4.216  0.1572 -1.0623 -0.6290
  154MOL0     H20777  10.393   5.643   4.340 -0.4092 -1.8709  5.1939
  154MOL0     H20778  10.520   5.411   4.687 -1.7673 -1.0355 -1.9149
  154MOL0     H20779  10.627   5.547   4.672  0.3531 -1.2386  2.7383
  154MOL0     H20780  10.779   5.398   4.534  0.7904  1.9796  1.3529
  154MOL0     H20781  10.668   5.263   4.572 -0.2837 -0.6411  1.3695
  154MOL0     H20782  10.853   5.408   4.760  0.4427 -1.0902  0.7439
  154MOL0     H20783  10.850   5.239   4.717 -2.4778 -2.6843  0.2948
  154MOL0     H20784  10.774   5.298   4.942  2.1810  1.8660 -1.1120
  154MOL0     H20785  10.631   5.393   4.885 -1.0817 -1.4448  0.1299
  154MOL0     H20786  10.532   4.988   4.868  0.8818 -0.1945  5.3655
  154MOL0     H20787  10.782   5.599   4.500 -0.1415  2.4786  1.0680
  154MOL0     H20788  10.942   5.886   4.407 -1.0919  1.7234 -1.5422
  154MOL0     H20789  10.969   5.720   4.436 -0.0685  0.0891  0.2019
  154MOL0     H20790  10.958   5.773   4.263  1.9364 -0.2467  1.0913
  155MOL0     O20791   8.615   7.549   0.739  0.4456 -0.3860  0.4603
  155MOL0     C20792   8.659   7.452   0.796 -0.7590 -0.4761  0.6255
  155MOL0     O20793   8.728   7.461   0.920 -0.7864  0.5257  0.1486
  155MOL0     C20794   8.777   7.592   0.948 -0.8212 -0.2909 -0.1779
  155MOL0     C20795   8.693   7.681   1.024  0.5120  0.7353 -0.8350
  155MOL0     C20796   8.731   7.820   1.039 -0.1071  0.6785  0.2396
  155MOL0     C20797   8.853   7.869   0.994 -0.0158  0.0248 -0.6153
  155MOL0     O20798   8.889   8.008   1.006  0.2531  0.5735 -0.1963
  155MOL0     C20799   8.807   8.102   1.074  0.3728  0.1095  0.2878
  155MOL0     C20800   8.865   8.234   1.044 -0.6313  0.1146  0.1865
  155MOL0     C20801   8.988   8.239   1.125 -0.0411 -0.1196 -0.1718
  155MOL0     C20802   9.070   8.373   1.106 -0.2478  0.1475 -1.4803
  155MOL0     C20803   9.194   8.372   1.200  0.3783  0.0521  0.6829
  155MOL0     C20804   9.283   8.499   1.174 -0.6806 -0.2747 -0.6287
  155MOL0     C20805   9.226   8.644   1.203  0.0117 -0.4910  0.4526
  155MOL0     C20806   9.218   8.690   1.347  0.2959 -0.5369 -0.7131
  155MOL0     N20807   9.138   8.600   1.435  0.2975 -0.3885 -0.3996
  155MOL0     C20808   9.006   8.572   1.417 -0.5822  0.1828  0.5254
  155MOL0     C20809   8.960   8.536   1.539 -0.5704  0.3349  0.6416
  155MOL0     C20810   8.813   8.511   1.572 -0.2144  1.0359 -0.3859
  155MOL0     C20811   8.733   8.631   1.619  0.2324  0.6077 -0.0202
  155MOL0     C20812   8.758   8.687   1.761 -0.8415  0.2378  0.1395
  155MOL0     C20813   8.797   8.575   1.857  0.6762  0.7310  0.4119
  155MOL0     O20814   8.691   8.473   1.860  0.6297  0.6254 -0.6374
  155MOL0     C20815   8.583   8.480   1.949  0.3277  1.0624 -0.4611
  155MOL0     C20816   8.518   8.355   1.978  0.1257 -0.9760  0.1623
  155MOL0     C20817   8.440   8.337   2.091 -0.0918 -0.3537  0.6170
  155MOL0     C20818   8.400   8.453   2.166 -0.5110 -1.0013 -0.5521
  155MOL0     C20819   8.317   8.442   2.292  1.0078 -0.2498  0.4007
  155MOL0     O20820   8.273   8.316   2.329 -0.1586 -0.4715 -0.4466
  155MOL0     C20821   8.198   8.282   2.437 -0.2407 -0.1415  0.5711
  155MOL0     C20822   8.240   8.181   2.526 -0.1066  0.4931  0.6251
  155MOL0     C20823   8.160   8.150   2.637  0.1921  0.6232 -0.4344
  155MOL0     C20824   8.042   8.224   2.660  0.2540  0.5364 -0.1386
  155MOL0     O20825   7.973   8.219   2.778  1.0499  0.0924  0.5361
  155MOL0     C20826   7.930   8.091   2.831  0.2790  0.0919 -0.3656
  155MOL0     C20827   7.874   8.129   2.971  0.0340 -0.6670  0.4521
  155MOL0     C20828   7.992   8.146   3.072 -0.6527 -0.1748 -0.8398
  155MOL0     C20829   7.925   8.186   3.206 -0.2509  0.3140 -0.1818
  155MOL0     C20830   8.023   8.179   3.323 -0.4123 -0.4519  0.4968
  155MOL0     C20831   8.157   8.254   3.304 -0.5549 -0.1413 -1.4687
  155MOL0     C20832   8.245   8.238   3.428 -0.2427 -1.1118  0.1273
  155MOL0     C20833   8.380   8.316   3.402  0.9668  0.2757  0.0802
  155MOL0    Cl20834   8.374   8.493   3.414 -0.0333  0.2163  0.2335
  155MOL0     C20835   8.006   8.328   2.571  0.2329  1.4466  0.0121
  155MOL0     C20836   8.077   8.349   2.458 -0.0902 -0.2099 -0.1208
  155MOL0     O20837   8.285   8.546   2.348 -0.0222 -0.0944 -0.9186
  155MOL0     C20838   8.457   8.569   2.126  0.7787  0.5364  0.5336
  155MOL0     C20839   8.549   8.588   2.025  0.0630 -0.4119 -0.5507
  155MOL0     N20840   9.064   8.539   1.631  0.2946 -0.1634 -0.6622
  155MOL0     N20841   9.168   8.581   1.563  1.0054 -0.2077 -0.5612
  155MOL0     C20842   8.935   7.789   0.924 -0.3880 -0.4708  0.9768
  155MOL0     C20843   8.900   7.650   0.910  0.1843  0.0455  0.8574
  155MOL0     C20844   8.649   7.327   0.725 -0.5022  1.0382 -0.6092
  155MOL0     C20845   8.726   7.219   0.773  0.1322 -0.2078 -0.3094
  155MOL0     C20846   8.723   7.092   0.718  0.1671 -0.5201  0.1298
  155MOL0     C20847   8.625   7.055   0.625 -0.0828 -0.7562  0.0093
  155MOL0     O20848   8.602   6.936   0.570  0.7600  0.0129 -0.1169
  155MOL0     C20849   8.719   6.848   0.569  0.2141  0.7515 -0.6100
  155MOL0     C20850   8.684   6.717   0.493  0.1662  0.5426  0.0861
  155MOL0     C20851   8.675   6.763   0.351  0.0564 -0.5425  0.9007
  155MOL0     C20852   8.579   6.671   0.264  0.0865 -0.8502  0.0793
  155MOL0     C20853   8.599   6.707   0.124 -0.2618 -0.1769 -0.0235
  155MOL0     C20854   8.637   6.735   0.009  0.3394 -0.1641 -0.0452
  155MOL0     C20855   8.547   7.160   0.574  0.9886 -0.5271 -0.5881
  155MOL0     C20856   8.552   7.288   0.623 -0.2364  0.4267 -0.1537
  155MOL0     C20857   8.450   7.381   0.575 -0.1538 -0.4007 -0.7004
  155MOL0     H20858   8.594   7.650   1.057 -0.2337  3.4021 -0.2984
  155MOL0     H20859   8.665   7.885   1.096  1.6376  1.1583  1.7938
  155MOL0     H20860   8.706   8.101   1.031 -0.5890 -2.2994  2.3290
  155MOL0     H20861   8.794   8.077   1.180 -2.4184  2.6897  0.6837
  155MOL0     H20862   8.796   8.311   1.080 -0.4084  0.5285 -0.2613
  155MOL0     H20863   8.886   8.236   0.936 -0.0736 -2.1270  0.2012
  155MOL0     H20864   9.058   8.160   1.098  0.4213 -0.2198  1.2405
  155MOL0     H20865   8.950   8.224   1.226 -2.1448  2.5940 -0.4436
  155MOL0     H20866   9.101   8.367   1.002  0.7796 -2.1433 -1.1192
  155MOL0     H20867   9.015   8.467   1.110  2.8125  2.0191  0.7165
  155MOL0     H20868   9.153   8.370   1.302 -0.0049 -2.5169  0.5501
  155MOL0     H20869   9.252   8.281   1.185 -1.5122 -1.0813 -0.0521
  155MOL0     H20870   9.374   8.493   1.235  1.0384  0.9960 -2.9354
  155MOL0     H20871   9.331   8.492   1.076 -0.9036  1.4511 -0.8936
  155MOL0     H20872   9.131   8.667   1.154  1.3645  2.1836 -1.1670
  155MOL0     H20873   9.300   8.704   1.150  0.0360 -0.4413  0.5424
  155MOL0     H20874   9.316   8.700   1.393 -1.3100  0.1474  2.9305
  155MOL0     H20875   9.175   8.789   1.328  0.2039 -0.8417 -2.2709
  155MOL0     H20876   8.939   8.590   1.334 -0.8956 -1.8170  0.3033
  155MOL0     H20877   8.771   8.472   1.479 -0.3330 -1.3139  0.5842
  155MOL0     H20878   8.807   8.428   1.643 -2.2315  0.7771 -0.8041
  155MOL0     H20879   8.753   8.710   1.546 -0.1685  0.4224 -0.3378
  155MOL0     H20880   8.628   8.600   1.629  0.0314  1.4991  0.8387
  155MOL0     H20881   8.659   8.727   1.784 -0.0005  3.4315 -1.3210
  155MOL0     H20882   8.831   8.768   1.761  0.2162 -0.6892 -0.4071
  155MOL0     H20883   8.809   8.610   1.960 -2.3836  1.4055  0.6447
  155MOL0     H20884   8.892   8.527   1.832  0.2542  0.9964 -2.0024
  155MOL0     H20885   8.551   8.263   1.930  2.4540 -0.0465 -0.1213
  155MOL0     H20886   8.416   8.237   2.126  0.4355 -1.4458 -1.9189
  155MOL0     H20887   8.330   8.132   2.493 -0.9200  0.7627 -2.3131
  155MOL0     H20888   8.181   8.062   2.696 -0.2396  1.1104  0.4552
  155MOL0     H20889   7.849   8.051   2.770 -0.0677 -3.4517  2.1220
  155MOL0     H20890   8.012   8.021   2.847 -1.2296 -1.2494  2.1443
  155MOL0     H20891   7.823   8.226   2.970  0.6477 -0.0005  5.5128
  155MOL0     H20892   7.801   8.062   3.018 -4.7915  4.0607  0.6996
  155MOL0     H20893   8.057   8.060   3.089  1.5663  1.6478  0.6088
  155MOL0     H20894   8.054   8.230   3.040 -0.0560  0.8029  2.5053
  155MOL0     H20895   7.845   8.114   3.227  0.4120 -0.7194 -1.1077
  155MOL0     H20896   7.882   8.286   3.195 -1.3726 -0.0278  0.8314
  155MOL0     H20897   8.054   8.076   3.337  4.2896  0.4884 -1.0034
  155MOL0     H20898   7.973   8.221   3.411  1.6112  0.4749  1.2639
  155MOL0     H20899   8.210   8.215   3.217  0.9926 -0.6649 -0.3486
  155MOL0     H20900   8.139   8.362   3.293 -2.5426 -0.5971 -3.2369
  155MOL0     H20901   8.274   8.133   3.444 -2.9468 -2.0076 -0.4274
  155MOL0     H20902   8.189   8.284   3.510 -0.1332  0.2866 -0.5455
  155MOL0     H20903   8.455   8.266   3.463 -0.9163 -2.1834  0.5525
  155MOL0     H20904   8.408   8.295   3.298 -0.4662 -0.5112 -0.1763
  155MOL0     H20905   7.919   8.385   2.602 -0.0637  0.3076  1.3799
  155MOL0     H20906   8.038   8.432   2.400 -0.6242 -0.8945 -0.7675
  155MOL0     H20907   8.428   8.656   2.185 -1.3847  2.2434 -2.7431
  155MOL0     H20908   8.607   8.679   2.018  1.3672 -0.8334  2.9690
  155MOL0     H20909   9.020   7.829   0.869 -1.1572  1.6482  1.2332
  155MOL0     H20910   8.971   7.592   0.852  1.3864  2.3005 -0.0358
  155MOL0     H20911   8.793   7.235   0.857  0.9429  2.8767 -1.4150
  155MOL0     H20912   8.786   7.014   0.761  2.5565  0.0886 -1.9757
  155MOL0     H20913   8.741   6.814   0.671 -3.1515 -0.5127 -0.1859
  155MOL0     H20914   8.805   6.887   0.514  0.5600  0.2286 -0.4427
  155MOL0     H20915   8.585   6.696   0.534  0.4513  1.0962  1.0702
  155MOL0     H20916   8.763   6.643   0.508 -0.3420 -0.4904 -1.8847
  155MOL0     H20917   8.777   6.777   0.313 -0.9820 -0.7893 -2.2261
  155MOL0     H20918   8.636   6.864   0.341 -1.4217 -1.2440 -0.7332
  155MOL0     H20919   8.596   6.563   0.274 -1.3911 -1.1175 -0.0297
  155MOL0     H20920   8.473   6.682   0.289 -0.9550  2.4087 -4.5053
  155MOL0     H20921   8.676   6.748  -0.089  2.7274 -2.0484  0.5645
  155MOL0     H20922   8.467   7.137   0.504 -1.5564  1.8173  1.3152
  155MOL0     H20923   8.373   7.337   0.511 -0.8895 -1.5793  0.8940
  155MOL0     H20924   8.388   7.428   0.652 -0.5239 -0.8824 -0.6975
  155MOL0     H20925   8.496   7.461   0.517 -0.1404 -1.0442 -1.5840
  156MOL0     O20926   6.086   5.830   2.352 -0.4776  0.3429  0.1479
  156MOL0     C20927   6.145   5.873   2.450 -0.0986 -1.0734 -1.2756
  156MOL0     O20928   6.276   5.861   2.462 -0.1445  0.3008  0.2486
  156MOL0     C20929   6.343   5.748   2.406  1.1408 -0.3080 -0.1882
  156MOL0     C20930   6.479   5.763   2.393 -0.3738  0.2190  0.2576
  156MOL0     C20931   6.571   5.658   2.357  0.7647 -0.9579 -0.0281
  156MOL0     C20932   6.528   5.529   2.324  0.3399  0.0475 -0.6017
  156MOL0     O20933   6.616   5.437   2.287 -0.5228  0.4206  0.5906
  156MOL0     C20934   6.569   5.315   2.244  0.3083 -1.4794  0.1024
  156MOL0     C20935   6.686   5.227   2.222  0.0487 -0.2397 -0.8073
  156MOL0     C20936   6.632   5.090   2.182  0.3570  0.3160 -0.1255
  156MOL0     C20937   6.740   4.997   2.118  0.5707 -0.7212  0.2870
  156MOL0     C20938   6.683   4.854   2.094  1.0714  0.0988  1.0596
  156MOL0     C20939   6.558   4.844   2.007 -0.2407 -0.0501 -0.3238
  156MOL0     C20940   6.523   4.703   1.990 -1.2765  0.2499 -0.7519
  156MOL0     C20941   6.401   4.684   1.906  1.0041 -0.2332 -0.1100
  156MOL0     N20942   6.401   4.740   1.774  0.3933  0.3962 -0.0201
  156MOL0     C20943   6.419   4.677   1.653  0.9995  0.1182  0.3379
  156MOL0     C20944   6.370   4.769   1.569  0.6178 -0.7009  0.0863
  156MOL0     C20945   6.348   4.750   1.421 -0.4557 -0.1528  0.0118
  156MOL0     C20946   6.246   4.643   1.381  0.1967  0.0285 -0.0898
  156MOL0     C20947   6.245   4.600   1.232 -0.3146  0.3571  0.3675
  156MOL0     C20948   6.377   4.534   1.187  0.2712  0.2974 -0.0190
  156MOL0     O20949   6.367   4.477   1.056  0.1297 -0.0647 -0.2882
  156MOL0     C20950   6.455   4.375   1.030  0.1298 -0.5345 -1.1468
  156MOL0     C20951   6.597   4.388   1.046 -0.6987  0.5271 -0.7511
  156MOL0     C20952   6.679   4.277   1.024 -1.1243  0.0631 -0.1470
  156MOL0     C20953   6.620   4.161   0.963 -0.6702 -1.1391 -0.3448
  156MOL0     C20954   6.712   4.057   0.919 -0.1122  0.1627 -0.1657
  156MOL0     O20955   6.848   4.074   0.932 -0.0808  0.5186 -0.9506
  156MOL0     C20956   6.903   3.946   0.948 -0.5562 -1.0273 -0.3005
  156MOL0     C20957   6.916   3.875   1.067  0.2579 -0.2766 -0.5614
  156MOL0     C20958   6.993   3.757   1.078  0.1025 -0.2049  0.7834
  156MOL0     C20959   7.056   3.703   0.962  0.6789 -0.0419  0.2565
  156MOL0     O20960   7.130   3.583   0.955  0.3960  0.2088 -0.5314
  156MOL0     C20961   7.152   3.515   1.082 -0.4320 -0.4287  0.2419
  156MOL0     C20962   7.247   3.402   1.066 -0.4901  0.4861  0.4036
  156MOL0     C20963   7.255   3.301   1.182 -0.0779  0.3006 -0.3981
  156MOL0     C20964   7.284   3.154   1.131  0.4961  0.0752 -0.0104
  156MOL0     C20965   7.369   3.143   0.998 -0.8927  0.2828  1.3134
  156MOL0     C20966   7.433   3.008   0.967  0.2430  0.4265 -0.5065
  156MOL0     C20967   7.333   2.888   0.967 -0.1799 -0.4668  0.1049
  156MOL0     C20968   7.383   2.776   0.869  0.0555  0.0176  0.1321
  156MOL0    Cl20969   7.289   2.632   0.903 -0.1412  0.1519 -0.0961
  156MOL0     C20970   7.034   3.768   0.836 -0.0333 -0.7286 -0.8661
  156MOL0     C20971   6.960   3.890   0.834  0.0092 -0.2923  1.0990
  156MOL0     O20972   6.651   3.948   0.909 -0.2914  0.4429 -0.0080
  156MOL0     C20973   6.479   4.153   0.941  0.1267 -0.3467 -0.6367
  156MOL0     C20974   6.402   4.260   0.968 -0.4880 -0.1808 -0.0303
  156MOL0     N20975   6.323   4.884   1.634  0.9841  0.4194  0.2757
  156MOL0     N20976   6.350   4.867   1.750 -0.6056  0.3852  0.6511
  156MOL0     C20977   6.387   5.515   2.333  0.5896  0.8998 -0.5731
  156MOL0     C20978   6.298   5.613   2.381 -0.3965 -1.1946  1.7532
  156MOL0     C20979   6.083   5.958   2.548  0.6797 -0.1981  0.1189
  156MOL0     C20980   6.139   5.964   2.676  0.7394 -0.1484 -0.2176
  156MOL0     C20981   6.086   6.046   2.771  0.2762  0.1050 -0.0825
  156MOL0     C20982   5.980   6.127   2.740  1.5257  0.5067 -0.1861
  156MOL0     O20983   5.945   6.235   2.830 -0.6037  0.2436 -0.5906
  156MOL0     C20984   5.821   6.301   2.818  0.4228 -0.0953 -0.1926
  156MOL0     C20985   5.852   6.440   2.747 -0.1264  0.7396  0.3238
  156MOL0     C20986   5.963   6.519   2.808  0.0834 -0.6271  1.3384
  156MOL0     C20987   5.966   6.638   2.717  0.4756 -0.4588  0.0264
  156MOL0     C20988   5.855   6.732   2.736 -0.2332 -0.4918 -0.1594
  156MOL0     C20989   5.779   6.831   2.760 -0.5401 -0.2145 -0.4764
  156MOL0     C20990   5.922   6.118   2.612 -0.0676  0.4892  0.2569
  156MOL0     C20991   5.965   6.027   2.515  0.1888  0.2057 -0.0515
  156MOL0     C20992   5.889   6.021   2.372  0.0689 -0.6852  0.7861
  156MOL0     H20993   6.508   5.866   2.413  2.0365 -0.6609  1.5813
  156MOL0     H20994   6.675   5.689   2.362  1.7495 -4.0602  2.1588
  156MOL0     H20995   6.510   5.275   2.327 -0.3466  1.3222  1.0783
  156MOL0     H20996   6.522   5.340   2.148  2.3928  1.3691 -0.2814
  156MOL0     H20997   6.745   5.224   2.314 -0.0477 -3.8398 -0.7354
  156MOL0     H20998   6.753   5.268   2.146  2.4735 -0.7518  0.9688
  156MOL0     H20999   6.546   5.100   2.116 -0.9597 -1.4866  1.2285
  156MOL0     H21000   6.595   5.031   2.266  1.0001 -2.9149 -1.9650
  156MOL0     H21001   6.782   5.041   2.027  2.5758  1.7296  2.2557
  156MOL0     H21002   6.822   5.001   2.190 -0.9704 -1.1429  2.1357
  156MOL0     H21003   6.755   4.795   2.036  1.3774 -1.0822  2.5655
  156MOL0     H21004   6.667   4.809   2.192  1.3544  0.3722  1.2353
  156MOL0     H21005   6.474   4.902   2.048  0.2742  0.4097  0.0921
  156MOL0     H21006   6.584   4.886   1.910 -0.2881 -2.2190 -1.3402
  156MOL0     H21007   6.498   4.675   2.093  0.9326  1.7234  0.2643
  156MOL0     H21008   6.604   4.636   1.959 -1.2336 -0.8315  1.4342
  156MOL0     H21009   6.391   4.576   1.896  3.7453 -0.3878 -2.5676
  156MOL0     H21010   6.320   4.733   1.961 -0.2239  1.1769 -2.9940
  156MOL0     H21011   6.456   4.578   1.630  0.5813  0.3341 -1.3826
  156MOL0     H21012   6.324   4.847   1.376 -1.6246 -0.7989 -0.8052
  156MOL0     H21013   6.445   4.716   1.383 -0.8105 -0.6125 -0.5002
  156MOL0     H21014   6.262   4.555   1.444  0.0590  1.1201  1.5106
  156MOL0     H21015   6.147   4.683   1.407  1.0632  1.6776  0.8478
  156MOL0     H21016   6.241   4.687   1.167 -2.9945 -2.3660 -3.5936
  156MOL0     H21017   6.160   4.535   1.208 -0.7670  0.2430  2.1459
  156MOL0     H21018   6.391   4.451   1.257  2.0664 -0.4747 -1.2332
  156MOL0     H21019   6.460   4.604   1.201  1.3446 -0.4741 -2.1721
  156MOL0     H21020   6.637   4.478   1.092 -0.8577 -0.3699  1.2225
  156MOL0     H21021   6.781   4.289   1.059 -0.0281  2.5459 -3.6252
  156MOL0     H21022   6.887   3.926   1.158 -1.3755 -1.3086 -0.4524
  156MOL0     H21023   7.017   3.711   1.173 -1.1309 -2.5651  0.0301
  156MOL0     H21024   7.199   3.588   1.149  1.9150  0.4794 -2.2155
  156MOL0     H21025   7.061   3.482   1.133  0.2155 -1.4195  0.7938
  156MOL0     H21026   7.215   3.345   0.979  1.4223 -0.3876  0.2194
  156MOL0     H21027   7.340   3.456   1.048 -1.5011  1.4277 -2.3924
  156MOL0     H21028   7.334   3.333   1.251  1.7684  0.9183 -2.6537
  156MOL0     H21029   7.160   3.300   1.235  0.6722 -3.3155  1.1392
  156MOL0     H21030   7.184   3.116   1.108 -0.0436  1.5479 -0.2295
  156MOL0     H21031   7.329   3.095   1.211 -0.1319  0.2019  0.4423
  156MOL0     H21032   7.455   3.211   1.003 -1.9503  1.5768  3.1119
  156MOL0     H21033   7.305   3.165   0.912 -2.1471  2.3369  2.6769
  156MOL0     H21034   7.501   3.028   0.884  1.1063  2.0306  0.5383
  156MOL0     H21035   7.507   2.994   1.046  1.7588  4.4636 -0.9742
  156MOL0     H21036   7.235   2.905   0.921 -0.3582 -1.9188 -0.1275
  156MOL0     H21037   7.325   2.846   1.068 -1.8052  0.8958  0.5848
  156MOL0     H21038   7.384   2.798   0.762 -1.6932  0.2949  0.1507
  156MOL0     H21039   7.486   2.755   0.901 -0.2579  0.0711  1.2378
  156MOL0     H21040   7.066   3.720   0.744  1.0366 -0.5423 -0.5996
  156MOL0     H21041   6.949   3.936   0.737  2.9168  1.3039  1.4325
  156MOL0     H21042   6.435   4.064   0.897  0.4425 -0.1716 -1.3145
  156MOL0     H21043   6.297   4.256   0.940 -0.7634  0.1914  0.9132
  156MOL0     H21044   6.333   5.425   2.305 -3.8797  3.0239  0.3675
  156MOL0     H21045   6.194   5.584   2.381 -0.9555  0.1961 -2.1233
  156MOL0     H21046   6.229   5.914   2.709  0.5102  0.4119  1.3697
  156MOL0     H21047   6.133   6.047   2.868  3.1831  0.6099 -1.4010
  156MOL0     H21048   5.792   6.318   2.922  1.7572 -3.0028  0.7451
  156MOL0     H21049   5.739   6.249   2.768 -0.9340  2.4147 -0.7538
  156MOL0     H21050   5.758   6.495   2.742 -0.5735  0.4651  3.5734
  156MOL0     H21051   5.876   6.410   2.644 -0.5668 -0.6437  0.6025
  156MOL0     H21052   6.060   6.470   2.811  0.9936  1.0299  0.4727
  156MOL0     H21053   5.933   6.546   2.910  0.4736 -0.0398  1.3054
  156MOL0     H21054   6.064   6.684   2.730  1.4566 -2.2286 -0.7768
  156MOL0     H21055   5.962   6.615   2.611 -4.4955  1.2905 -0.4391
  156MOL0     H21056   5.713   6.910   2.791  0.7504  0.6628  0.1690
  156MOL0     H21057   5.840   6.180   2.579  1.0725  1.0544 -1.7151
  156MOL0     H21058   5.785   6.055   2.385 -0.8823 -2.6134 -1.1874
  156MOL0     H21059   5.930   6.075   2.287 -3.4072 -0.4502 -0.9453
  156MOL0     H21060   5.873   5.918   2.339  5.3904 -2.4349  2.6977
  157MOL0     O21061   6.328   6.014   6.587  0.8920 -0.2262 -0.5795
  157MOL0     C21062   6.384   5.903   6.564  0.9116 -0.1801 -0.1671
  157MOL0     O21063   6.509   5.868   6.613 -0.4738 -0.6766 -0.7763
  157MOL0     C21064   6.594   5.977   6.642 -0.0821  0.0820  0.1888
  157MOL0     C21065   6.600   6.092   6.564 -0.5722 -0.0504 -0.2545
  157MOL0     C21066   6.676   6.204   6.599 -0.7739 -0.6202  0.0048
  157MOL0     C21067   6.744   6.192   6.723  0.3290 -0.6389  0.6463
  157MOL0     O21068   6.810   6.308   6.762 -0.5219  0.3820  0.8986
  157MOL0     C21069   6.801   6.351   6.901 -0.6066 -0.3487  0.8041
  157MOL0     C21070   6.863   6.480   6.920  0.3787 -0.0128 -0.7391
  157MOL0     C21071   7.012   6.491   6.872  0.5869  0.3387  0.6538
  157MOL0     C21072   7.115   6.397   6.925  0.4811  0.0134  0.0161
  157MOL0     C21073   7.128   6.427   7.075 -0.4316  0.5881  0.0741
  157MOL0     C21074   7.201   6.561   7.115  0.5401  0.7909  0.3950
  157MOL0     C21075   7.353   6.561   7.072 -0.1051  0.2341  1.3391
  157MOL0     C21076   7.436   6.689   7.105  0.9723 -0.3770  0.6735
  157MOL0     N21077   7.373   6.822   7.088 -0.6342 -0.0862  0.4146
  157MOL0     C21078   7.361   6.889   6.961 -0.1100 -0.9890  0.9669
  157MOL0     C21079   7.279   6.991   6.994 -0.0036 -0.8410 -0.7631
  157MOL0     C21080   7.221   7.091   6.897  0.2340  0.5659 -0.9400
  157MOL0     C21081   7.144   7.011   6.792  0.9489 -0.0104  0.7451
  157MOL0     C21082   7.024   6.926   6.843 -0.1097  0.2596 -0.4090
  157MOL0     C21083   6.902   6.922   6.754  0.5867 -0.2023  0.7042
  157MOL0     O21084   6.935   6.911   6.609  0.4109  0.2883  0.8184
  157MOL0     C21085   6.881   6.803   6.542 -1.2893 -0.1862  0.4103
  157MOL0     C21086   6.758   6.813   6.489  0.4406 -0.3995  0.0819
  157MOL0     C21087   6.708   6.711   6.405 -1.1904 -0.5956  0.9489
  157MOL0     C21088   6.776   6.593   6.367  1.1210 -0.3536  0.2948
  157MOL0     C21089   6.723   6.473   6.293 -0.8794  1.2831  0.4545
  157MOL0     O21090   6.587   6.457   6.285 -0.6359 -1.2948 -0.2179
  157MOL0     C21091   6.514   6.353   6.227 -1.1421  0.7796 -0.7792
  157MOL0     C21092   6.386   6.378   6.181  0.1119  0.6608  0.1918
  157MOL0     C21093   6.310   6.271   6.140  0.3767  0.1668  0.2070
  157MOL0     C21094   6.353   6.133   6.142  0.1274  0.1423 -0.5864
  157MOL0     O21095   6.281   6.017   6.111  0.3960 -0.4478  0.4880
  157MOL0     C21096   6.215   6.019   5.985  0.0472  0.4807  0.3014
  157MOL0     C21097   6.118   5.895   5.975 -0.3654  0.1777 -0.1958
  157MOL0     C21098   6.068   5.884   5.825  0.7027  0.0462  0.0730
  157MOL0     C21099   5.983   5.999   5.770 -0.6000  0.1423 -0.1716
  157MOL0     C21100   5.921   5.968   5.630  1.0085  0.4613  0.0792
  157MOL0     C21101   5.901   6.099   5.548 -0.2762  0.8403  0.1897
  157MOL0     C21102   5.803   6.197   5.613  0.0688 -0.0656  0.5119
  157MOL0     C21103   5.772   6.302   5.503  1.0514  0.8966 -0.0148
  157MOL0    Cl21104   5.634   6.393   5.576 -0.3987  0.0288  0.1488
  157MOL0     C21105   6.482   6.108   6.191 -0.3571  0.1235  0.4819
  157MOL0     C21106   6.561   6.217   6.229 -0.3617 -0.0614 -0.0510
  157MOL0     O21107   6.807   6.394   6.242  0.3477  0.0634  0.3739
  157MOL0     C21108   6.905   6.586   6.424 -0.2093  0.3845 -0.3817
  157MOL0     C21109   6.959   6.690   6.501 -0.2372  0.0830  0.8334
  157MOL0     N21110   7.237   6.986   7.115  0.4048  0.3045  0.1190
  157MOL0     N21111   7.286   6.882   7.174 -1.0399  0.3233 -0.1425
  157MOL0     C21112   6.740   6.076   6.805 -0.2646  0.7267  0.3929
  157MOL0     C21113   6.671   5.968   6.756 -0.0506 -1.5763  1.0432
  157MOL0     C21114   6.294   5.807   6.486  0.4428  0.4319 -0.0433
  157MOL0     C21115   6.223   5.860   6.381  0.0272 -0.0098  0.3733
  157MOL0     C21116   6.116   5.789   6.315 -0.2618  0.1009 -0.1101
  157MOL0     C21117   6.085   5.660   6.362 -0.5314 -0.8564  0.6471
  157MOL0     O21118   5.966   5.606   6.314  0.4942 -0.6933  0.1688
  157MOL0     C21119   5.908   5.492   6.374 -0.1387 -0.0919 -0.2647
  157MOL0     C21120   5.761   5.484   6.331  0.0652  0.5155  1.0817
  157MOL0     C21121   5.702   5.371   6.414  0.4597  0.2218  0.3644
  157MOL0     C21122   5.555   5.346   6.385  0.2208 -0.3309 -0.3654
  157MOL0     C21123   5.502   5.273   6.501  0.0670  0.6289  0.2811
  157MOL0     C21124   5.453   5.200   6.579 -0.1729 -0.1510  0.1863
  157MOL0     C21125   6.161   5.610   6.471 -0.1044 -0.2956  1.4477
  157MOL0     C21126   6.265   5.674   6.526  0.1571 -0.2292 -0.3588
  157MOL0     C21127   6.356   5.608   6.629 -0.2302  0.5804  0.2779
  157MOL0     H21128   6.543   6.088   6.471 -0.2052 -0.3455 -0.4685
  157MOL0     H21129   6.685   6.297   6.545  1.7498  0.1851  1.6229
  157MOL0     H21130   6.694   6.354   6.925 -0.0104  4.5451  4.2487
  157MOL0     H21131   6.844   6.275   6.967 -2.9825  0.2740  3.2132
  157MOL0     H21132   6.851   6.506   7.026 -0.6950  0.4187 -0.9555
  157MOL0     H21133   6.802   6.558   6.873 -2.8054 -3.5404 -3.1073
  157MOL0     H21134   7.049   6.592   6.890 -2.5581  1.7544 -0.1678
  157MOL0     H21135   7.004   6.478   6.764  1.8547 -0.1484  0.6083
  157MOL0     H21136   7.095   6.290   6.917 -0.6417  0.2028  0.1637
  157MOL0     H21137   7.201   6.426   6.864  0.4177 -0.5264 -0.3377
  157MOL0     H21138   7.032   6.429   7.127 -0.3604  3.6006  0.2784
  157MOL0     H21139   7.183   6.342   7.116  1.6032  0.8901 -1.8178
  157MOL0     H21140   7.150   6.652   7.083  0.6789  0.6597 -0.2120
  157MOL0     H21141   7.204   6.552   7.224 -0.2240 -1.8205  0.2500
  157MOL0     H21142   7.349   6.570   6.963  1.0337  0.0602  1.2739
  157MOL0     H21143   7.403   6.469   7.103 -0.2164 -0.1174  0.5086
  157MOL0     H21144   7.468   6.683   7.209  4.8064 -3.9574 -0.4528
  157MOL0     H21145   7.531   6.698   7.052 -0.7801 -0.1743 -2.7574
  157MOL0     H21146   7.420   6.870   6.872 -0.8620  1.9068 -0.2858
  157MOL0     H21147   7.152   7.156   6.951  0.9609  0.8647 -0.3621
  157MOL0     H21148   7.291   7.160   6.850 -1.0387  2.7619  0.2554
  157MOL0     H21149   7.115   7.079   6.712 -0.2083 -0.1784  1.0149
  157MOL0     H21150   7.209   6.935   6.747  0.7354  0.7627 -0.9437
  157MOL0     H21151   6.982   6.969   6.935 -0.2466  0.9879 -0.8080
  157MOL0     H21152   7.057   6.822   6.857  1.6904  0.6914 -1.2183
  157MOL0     H21153   6.843   7.014   6.759  0.3509 -0.3536  0.6972
  157MOL0     H21154   6.834   6.838   6.774 -0.4362  0.0181 -1.4883
  157MOL0     H21155   6.699   6.904   6.493  1.1339  0.1498 -1.3809
  157MOL0     H21156   6.608   6.732   6.367  0.4625  1.4986 -2.8642
  157MOL0     H21157   6.349   6.479   6.167  0.0034  0.9183  2.0422
  157MOL0     H21158   6.219   6.294   6.086  0.9649 -0.7999 -1.2842
  157MOL0     H21159   6.158   6.112   5.980  2.5496  2.1560  0.9371
  157MOL0     H21160   6.286   6.025   5.902  2.6444  1.6653  2.4471
  157MOL0     H21161   6.163   5.803   6.013  1.8668  1.5461  0.6835
  157MOL0     H21162   6.021   5.910   6.024 -0.8425  1.3874 -1.4379
  157MOL0     H21163   6.146   5.859   5.753  0.2488 -0.7349 -0.1568
  157MOL0     H21164   5.999   5.799   5.824  0.0764  0.4907  1.7076
  157MOL0     H21165   6.057   6.077   5.750  2.1510 -2.7619 -2.2053
  157MOL0     H21166   5.904   6.021   5.843 -1.6912 -2.1136 -0.5973
  157MOL0     H21167   5.825   5.919   5.646  0.8178  0.4345 -1.0416
  157MOL0     H21168   5.993   5.902   5.581  4.2735  2.7415  1.4574
  157MOL0     H21169   5.995   6.153   5.538  2.2829 -3.4563 -1.9862
  157MOL0     H21170   5.876   6.060   5.449  1.1266 -0.8239  0.4485
  157MOL0     H21171   5.849   6.234   5.705 -0.0348 -1.8469  1.3135
  157MOL0     H21172   5.713   6.139   5.636 -0.4963  1.8061  3.6570
  157MOL0     H21173   5.858   6.363   5.474  0.8937  1.3896  0.5306
  157MOL0     H21174   5.731   6.243   5.420 -0.5733  1.5248  0.3008
  157MOL0     H21175   6.516   6.005   6.197 -0.3587  0.1603  1.2465
  157MOL0     H21176   6.658   6.188   6.267 -0.3217 -0.1401 -0.2175
  157MOL0     H21177   6.971   6.501   6.406 -2.0749 -1.2228  0.0537
  157MOL0     H21178   7.062   6.668   6.526 -0.0180  0.2153  0.0736
  157MOL0     H21179   6.775   6.069   6.908 -1.9539  0.6853  0.9987
  157MOL0     H21180   6.673   5.876   6.815  2.9197 -2.2343  0.0589
  157MOL0     H21181   6.242   5.959   6.340 -0.1564 -0.7360 -1.6240
  157MOL0     H21182   6.077   5.838   6.227  0.4986  2.3727  0.7481
  157MOL0     H21183   5.907   5.500   6.483 -0.9478 -3.1751  0.0410
  157MOL0     H21184   5.964   5.402   6.349 -0.1793 -0.5919  1.3412
  157MOL0     H21185   5.745   5.448   6.230 -0.5135 -0.7393  1.5996
  157MOL0     H21186   5.707   5.577   6.351 -3.2527 -0.7452 -1.1584
  157MOL0     H21187   5.699   5.400   6.519 -1.5568 -1.2644  0.7690
  157MOL0     H21188   5.756   5.277   6.402 -3.9340 -2.4416 -0.9927
  157MOL0     H21189   5.514   5.446   6.374  2.5027  0.7532  0.3865
  157MOL0     H21190   5.540   5.287   6.294 -0.5213 -0.5602 -0.1069
  157MOL0     H21191   5.398   5.128   6.638 -0.7275  0.6140  0.6315
  157MOL0     H21192   6.141   5.509   6.505  2.9455 -1.2293  0.7330
  157MOL0     H21193   6.320   5.629   6.730  1.3456  1.5943  0.6684
  157MOL0     H21194   6.357   5.500   6.615  1.4359  0.9203 -3.3554
  157MOL0     H21195   6.459   5.631   6.601  0.6460 -2.5090  0.6788
  158MOL0     O21196  10.793   9.891   7.641 -0.2248 -0.2327 -0.6549
  158MOL0     C21197  10.722   9.962   7.567 -0.8704  0.4780 -0.0779
  158MOL0     O21198  10.739  10.096   7.549 -0.1104  0.0189  0.3978
  158MOL0     C21199  10.825  10.162   7.637  0.8399 -1.1529 -0.3533
  158MOL0     C21200  10.918  10.253   7.582 -0.2432  1.5504  0.0276
  158MOL0     C21201  11.019  10.289   7.671 -0.2140  1.0044 -0.2251
  158MOL0     C21202  11.016  10.273   7.807 -0.3766 -0.8708 -0.6601
  158MOL0     O21203  11.117  10.340   7.873 -0.1867  0.0501  0.1433
  158MOL0     C21204  11.131  10.326   8.017 -0.0703 -0.2771 -0.5577
  158MOL0     C21205  11.211  10.455   8.067 -0.3290  0.2349  0.1556
  158MOL0     C21206  11.366  10.439   8.057  0.2047  0.9493  0.5470
  158MOL0     C21207  11.417  10.485   7.919 -0.1687 -0.4555  0.5295
  158MOL0     C21208  11.563  10.466   7.890 -0.6294 -0.3652  0.6717
  158MOL0     C21209  11.617  10.320   7.900  0.4289  0.3266  1.2561
  158MOL0     C21210  11.546  10.221   7.800  0.2428  0.3658 -0.5537
  158MOL0     C21211  11.574  10.239   7.653 -0.5418  0.2914  0.0962
  158MOL0     N21212  11.494  10.159   7.566 -0.2258 -0.1402 -0.1492
  158MOL0     C21213  11.355  10.149   7.556 -0.4491  0.1007 -0.2229
  158MOL0     C21214  11.335  10.068   7.453  0.0081 -0.6905  0.3860
  158MOL0     C21215  11.213  10.038   7.380  0.8294 -0.0624 -0.2339
  158MOL0     C21216  11.148   9.912   7.433  0.4483 -0.9307  0.0247
  158MOL0     C21217  11.027   9.867   7.355  0.1288  0.0738 -0.6464
  158MOL0     C21218  11.046   9.798   7.216 -0.3226  0.1572 -0.3257
  158MOL0     O21219  10.913   9.771   7.164  0.2053  0.1307 -0.1795
  158MOL0     C21220  10.839   9.661   7.194  0.1104 -0.0269 -0.8613
  158MOL0     C21221  10.717   9.649   7.123 -0.6863  0.3678  0.8741
  158MOL0     C21222  10.626   9.544   7.143 -0.4321 -0.7808  1.2320
  158MOL0     C21223  10.667   9.437   7.230  0.3235  0.3938 -0.4594
  158MOL0     C21224  10.567   9.329   7.266 -0.7321 -0.5427  0.6357
  158MOL0     O21225  10.450   9.326   7.201  0.1274 -0.6896  0.4075
  158MOL0     C21226  10.345   9.249   7.237  0.3646  0.9094 -0.4672
  158MOL0     C21227  10.300   9.212   7.369  0.0524  0.0249 -0.5176
  158MOL0     C21228  10.188   9.128   7.379 -0.1278  0.4445  0.0822
  158MOL0     C21229  10.122   9.057   7.274  0.7352 -0.7368 -0.1654
  158MOL0     O21230  10.029   8.966   7.284  0.2361 -0.0666  0.6359
  158MOL0     C21231  10.000   8.897   7.405 -0.0187  0.0425  0.8900
  158MOL0     C21232   9.945   8.764   7.369  0.0305 -0.1276 -0.9037
  158MOL0     C21233  10.046   8.663   7.305  0.2281  1.0047  0.5072
  158MOL0     C21234  10.027   8.672   7.153 -0.1232  0.1561  0.5030
  158MOL0     C21235  10.118   8.572   7.075  0.1900  0.0929 -0.4228
  158MOL0     C21236  10.108   8.590   6.921  0.2521 -0.7020 -0.6793
  158MOL0     C21237  10.209   8.506   6.844  0.1163  0.6500 -0.0485
  158MOL0     C21238  10.350   8.539   6.887  0.1939 -0.0450  0.5008
  158MOL0    Cl21239  10.468   8.502   6.769  0.3603  0.1423 -0.0845
  158MOL0     C21240  10.160   9.103   7.148 -0.7319 -0.8016  0.8932
  158MOL0     C21241  10.268   9.198   7.126  0.8019 -0.1897  0.0128
  158MOL0     O21242  10.611   9.248   7.342  0.2371  0.2720  0.1031
  158MOL0     C21243  10.798   9.433   7.280  0.5396 -0.5716 -0.6983
  158MOL0     C21244  10.880   9.545   7.267  0.2234 -0.1830  1.4947
  158MOL0     N21245  11.460  10.026   7.407 -0.5633  0.2413  0.0791
  158MOL0     N21246  11.554  10.079   7.473 -0.3945 -0.0810 -0.7220
  158MOL0     C21247  10.916  10.191   7.874  0.1146  0.5549  1.2496
  158MOL0     C21248  10.822  10.137   7.779  0.9043  0.0418  0.1682
  158MOL0     C21249  10.605   9.889   7.499  1.1923  0.4120 -0.3979
  158MOL0     C21250  10.514   9.966   7.432 -0.0940 -0.6601  0.4965
  158MOL0     C21251  10.394   9.919   7.379  0.0373  0.3953  0.9555
  158MOL0     C21252  10.364   9.783   7.377 -0.0819 -0.5035 -0.6140
  158MOL0     O21253  10.244   9.725   7.328 -0.1998 -0.5229  0.2600
  158MOL0     C21254  10.148   9.807   7.265  0.0567 -0.0748 -0.0940
  158MOL0     C21255  10.037   9.702   7.223 -0.6351  0.1668  0.5579
  158MOL0     C21256   9.984   9.610   7.332  0.5155  0.3530  0.6865
  158MOL0     C21257   9.897   9.683   7.433 -0.1868  0.0975 -1.4089
  158MOL0     C21258   9.771   9.735   7.378 -0.8062 -0.2023 -0.1988
  158MOL0     C21259   9.670   9.783   7.328  0.0398  1.5775  0.1487
  158MOL0     C21260  10.448   9.696   7.441 -0.3570  0.1676 -0.0887
  158MOL0     C21261  10.573   9.744   7.500 -1.3114 -0.4970  1.1496
  158MOL0     C21262  10.665   9.632   7.556 -0.2422 -0.3852 -0.0759
  158MOL0     H21263  10.920  10.284   7.478  0.1652  0.4482 -0.3055
  158MOL0     H21264  11.093  10.358   7.631 -0.9532  0.7500 -2.1343
  158MOL0     H21265  11.028  10.332   8.052  0.4335 -1.2724  1.2639
  158MOL0     H21266  11.174  10.227   8.034  0.2088 -0.2651 -1.1835
  158MOL0     H21267  11.187  10.466   8.173  1.0693  2.3648  0.3029
  158MOL0     H21268  11.179  10.547   8.017  2.8845  2.1365  1.3370
  158MOL0     H21269  11.406  10.338   8.072 -0.2195  0.1380 -2.9164
  158MOL0     H21270  11.407  10.502   8.137  0.7392  0.6624  0.5099
  158MOL0     H21271  11.366  10.442   7.831 -0.4303 -0.2256  0.5652
  158MOL0     H21272  11.407  10.593   7.910  1.6491 -0.4442 -3.2698
  158MOL0     H21273  11.576  10.515   7.793 -0.6426  0.3031  1.0006
  158MOL0     H21274  11.606  10.523   7.972 -1.5870 -1.0519  1.6828
  158MOL0     H21275  11.725  10.311   7.888  0.8192  2.7892  2.3938
  158MOL0     H21276  11.595  10.274   7.997 -2.9635 -1.8273 -0.3470
  158MOL0     H21277  11.439  10.216   7.821  0.0402 -0.5274 -1.7055
  158MOL0     H21278  11.576  10.119   7.827 -0.0996  0.0760 -1.2405
  158MOL0     H21279  11.547  10.343   7.633  0.0516 -0.0238 -2.7639
  158MOL0     H21280  11.681  10.241   7.631 -0.7291 -1.1304 -1.0725
  158MOL0     H21281  11.292  10.203   7.626  0.9394  0.9853  0.3923
  158MOL0     H21282  11.141  10.118   7.398 -0.0934 -1.2355  1.6775
  158MOL0     H21283  11.219  10.026   7.272  1.9313  2.9954 -0.6072
  158MOL0     H21284  11.220   9.830   7.434 -0.5334 -1.8804 -1.9885
  158MOL0     H21285  11.112   9.937   7.534 -0.5945  0.3274 -0.6299
  158MOL0     H21286  10.956   9.951   7.355  0.8339  0.7339  1.1797
  158MOL0     H21287  10.988   9.789   7.420  1.9789  0.2499  0.7654
  158MOL0     H21288  11.123   9.720   7.212  0.0225  0.5066 -0.6418
  158MOL0     H21289  11.084   9.874   7.147 -3.1524  1.0941 -0.9544
  158MOL0     H21290  10.702   9.733   7.057  3.0843 -0.2849 -1.0875
  158MOL0     H21291  10.533   9.553   7.088 -2.2286 -3.8933  3.4293
  158MOL0     H21292  10.338   9.252   7.462  0.4400 -3.6651  1.1052
  158MOL0     H21293  10.152   9.112   7.480  0.1908  1.4838  0.3734
  158MOL0     H21294  10.090   8.883   7.466  2.3346 -0.3734 -2.4077
  158MOL0     H21295   9.922   8.950   7.461  0.3553  0.6477  0.8482
  158MOL0     H21296   9.906   8.731   7.466  1.9088 -0.8285 -0.3385
  158MOL0     H21297   9.850   8.775   7.316 -0.6094  1.9736  0.5452
  158MOL0     H21298  10.150   8.686   7.329  1.0591  0.5914 -2.3931
  158MOL0     H21299  10.026   8.567   7.354 -1.1730  1.2514  0.4483
  158MOL0     H21300  10.064   8.772   7.127 -1.3830  0.9066  1.4591
  158MOL0     H21301   9.928   8.652   7.113  1.4497 -1.9228 -2.7591
  158MOL0     H21302  10.073   8.477   7.105 -2.2099  0.6873 -1.9172
  158MOL0     H21303  10.223   8.579   7.106 -0.1532 -0.0691  0.8266
  158MOL0     H21304  10.007   8.555   6.900  0.2475 -0.3586 -1.2163
  158MOL0     H21305  10.119   8.696   6.901 -1.5367 -0.1053  1.1361
  158MOL0     H21306  10.187   8.511   6.737  0.2080 -0.5280 -0.1365
  158MOL0     H21307  10.199   8.399   6.868  1.4144  0.9383  1.9687
  158MOL0     H21308  10.346   8.646   6.909 -3.1152 -0.4775  2.7839
  158MOL0     H21309  10.379   8.473   6.969  1.2829 -1.1361 -0.7284
  158MOL0     H21310  10.099   9.060   7.069 -2.3701  0.6053  1.3280
  158MOL0     H21311  10.299   9.225   7.026  0.6206 -0.1288 -0.0255
  158MOL0     H21312  10.822   9.344   7.338 -1.9333 -2.2263 -2.0201
  158MOL0     H21313  10.981   9.546   7.306  2.5462 -4.2962 -3.2813
  158MOL0     H21314  10.897  10.176   7.980 -1.8267  1.9003  1.1396
  158MOL0     H21315  10.733  10.088   7.818 -0.3818  0.1076 -2.4588
  158MOL0     H21316  10.525  10.071   7.453  4.0731 -1.0783  1.3535
  158MOL0     H21317  10.320   9.978   7.326 -1.5623 -2.8514 -0.7149
  158MOL0     H21318  10.188   9.857   7.176 -0.3537  0.4785  0.0336
  158MOL0     H21319  10.107   9.885   7.329 -2.3125 -0.9200 -0.4508
  158MOL0     H21320  10.085   9.635   7.151  0.7730  0.8538  0.8301
  158MOL0     H21321   9.949   9.751   7.179 -1.7711 -1.1592  1.2852
  158MOL0     H21322  10.060   9.561   7.392  2.9745  2.0811 -0.8224
  158MOL0     H21323   9.926   9.531   7.285 -0.0151  1.1156  0.0255
  158MOL0     H21324   9.871   9.609   7.510  3.2282  0.1391 -0.0467
  158MOL0     H21325   9.947   9.762   7.489  1.9686 -1.6719 -0.6737
  158MOL0     H21326   9.576   9.825   7.297  0.9291  2.5853 -1.3308
  158MOL0     H21327  10.424   9.590   7.433 -2.8016  0.8072 -2.7183
  158MOL0     H21328  10.659   9.540   7.498 -1.6354  1.5978 -3.3671
  158MOL0     H21329  10.770   9.663   7.554  0.0932 -1.1667  2.2800
  158MOL0     H21330  10.625   9.607   7.655 -0.6402  0.1616 -0.0949
  159MOL0     O21331   2.489   1.978   5.135 -0.5960 -0.2519  0.3027
  159MOL0     C21332   2.430   2.056   5.208  0.3018  0.2797 -0.3470
  159MOL0     O21333   2.484   2.111   5.316 -0.0018 -0.2451  0.0144
  159MOL0     C21334   2.613   2.088   5.357  0.8899 -0.0945  0.7971
  159MOL0     C21335   2.646   1.977   5.437 -0.2672  0.0570  0.6590
  159MOL0     C21336   2.780   1.950   5.471 -0.6580 -0.1607  0.4273
  159MOL0     C21337   2.877   2.047   5.451 -0.1656 -0.4706  0.3866
  159MOL0     O21338   3.012   2.056   5.485 -0.9890  0.3588 -0.4966
  159MOL0     C21339   3.065   1.949   5.563  1.0722 -0.0851  0.1239
  159MOL0     C21340   3.125   1.843   5.475  1.4394 -0.7407  0.3498
  159MOL0     C21341   3.035   1.761   5.399  0.2994  0.0783  0.2324
  159MOL0     C21342   3.104   1.665   5.306 -0.5807  1.2575 -0.1813
  159MOL0     C21343   3.004   1.559   5.268  0.4994  0.2747  0.3898
  159MOL0     C21344   3.070   1.478   5.154 -0.2795 -0.3541  0.6425
  159MOL0     C21345   2.975   1.378   5.089 -0.5924 -0.5616 -0.0658
  159MOL0     C21346   3.059   1.307   4.980 -0.4412  0.1672 -0.4496
  159MOL0     N21347   2.989   1.197   4.914  0.4904  0.5513  0.1095
  159MOL0     C21348   2.959   1.079   4.975  0.2356 -0.9198 -1.4278
  159MOL0     C21349   2.911   1.012   4.870  0.1818  0.1214 -0.4904
  159MOL0     C21350   2.854   0.875   4.885 -0.7306  0.0482  0.5128
  159MOL0     C21351   2.703   0.871   4.867 -1.1985 -0.1630  0.1140
  159MOL0     C21352   2.656   0.725   4.870 -0.2753  0.4506  0.1591
  159MOL0     C21353   2.697   0.639   4.751 -0.4959  0.7395  0.5440
  159MOL0     O21354   2.833   0.584   4.767  0.2831  0.4190 -0.6261
  159MOL0     C21355   2.868   0.478   4.859  0.5502 -0.2193 -0.3793
  159MOL0     C21356   2.786   0.409   4.951 -0.0854  0.6504  0.0770
  159MOL0     C21357   2.851   0.337   5.051 -1.0583  0.8953  0.0138
  159MOL0     C21358   2.992   0.319   5.050  0.3029  0.5779  0.8114
  159MOL0     C21359   3.061   0.228   5.154  0.9395 -0.1012 -0.4057
  159MOL0     O21360   3.194   0.232   5.160  0.6611  0.0597 -0.4772
  159MOL0     C21361   3.267   0.149   5.243 -0.4240 -0.1618 -0.1230
  159MOL0     C21362   3.229   0.084   5.361  0.7527  0.1944 -0.3997
  159MOL0     C21363   3.314  -0.003   5.429 -0.6119  0.2504  0.3315
  159MOL0     C21364   3.456  -0.021   5.390  0.3708  0.4609  0.3555
  159MOL0     O21365   3.525  -0.106   5.465  0.0794  0.8083  0.6485
  159MOL0     C21366   3.671  -0.104   5.436  0.2161 -0.0281 -0.3407
  159MOL0     C21367   3.740  -0.178   5.554  0.0279 -0.4258 -0.5245
  159MOL0     C21368   3.741  -0.334   5.529 -0.8547 -0.0368  1.0459
  159MOL0     C21369   3.834  -0.423   5.611 -0.4807 -0.7779  0.4395
  159MOL0     C21370   3.788  -0.565   5.623 -0.0671 -0.3277  0.2491
  159MOL0     C21371   3.904  -0.668   5.600 -0.4759 -0.4667 -0.0459
  159MOL0     C21372   3.955  -0.644   5.456 -0.2828 -0.1118 -0.2622
  159MOL0     C21373   4.007  -0.773   5.404  0.0305 -0.2471 -0.4142
  159MOL0    Cl21374   4.106  -0.729   5.252 -0.6414 -0.3652 -0.2285
  159MOL0     C21375   3.493   0.050   5.271  0.0358  1.0512 -0.5569
  159MOL0     C21376   3.398   0.121   5.196  0.0987  0.7577  1.0744
  159MOL0     O21377   2.994   0.161   5.223  0.0210  0.1560 -0.7542
  159MOL0     C21378   3.066   0.381   4.954 -1.6017  0.5388  0.3251
  159MOL0     C21379   3.012   0.465   4.859 -0.5067  0.2350 -0.6404
  159MOL0     N21380   2.915   1.082   4.753  0.0502 -0.1874  0.0017
  159MOL0     N21381   2.955   1.200   4.776  0.5323  1.2445 -0.4134
  159MOL0     C21382   2.838   2.168   5.398 -0.1336  0.9816 -1.1496
  159MOL0     C21383   2.711   2.185   5.343 -0.3207  0.6475 -0.0587
  159MOL0     C21384   2.289   2.095   5.165 -0.0614 -0.2369  0.0419
  159MOL0     C21385   2.233   2.208   5.244 -0.5913  0.6268  0.0556
  159MOL0     C21386   2.111   2.259   5.216 -0.1888 -0.4272 -0.9936
  159MOL0     C21387   2.022   2.182   5.138  1.3703 -1.1903 -0.0585
  159MOL0     O21388   1.885   2.211   5.126  0.0687  0.2011 -0.4519
  159MOL0     C21389   1.839   2.345   5.106 -0.4889 -0.4645 -0.8164
  159MOL0     C21390   1.730   2.344   4.997  0.9924  0.6839 -0.3500
  159MOL0     C21391   1.613   2.256   5.051 -0.2209  0.2796  0.8425
  159MOL0     C21392   1.493   2.247   4.948 -0.7671 -0.6087  0.1393
  159MOL0     C21393   1.380   2.165   5.004  0.3188  0.1675  0.9727
  159MOL0     C21394   1.287   2.109   5.059  0.1864 -0.2967  0.1299
  159MOL0     C21395   2.075   2.079   5.065  0.7041 -0.0648 -0.4389
  159MOL0     C21396   2.204   2.027   5.071  1.8093 -0.7360 -0.6519
  159MOL0     C21397   2.239   1.903   4.993 -0.1045  0.1218 -0.1460
  159MOL0     H21398   2.559   1.916   5.456  1.5242 -1.8817  3.5251
  159MOL0     H21399   2.796   1.858   5.528 -2.4404 -0.3730  0.6607
  159MOL0     H21400   3.146   1.986   5.626  0.3661 -0.4763  1.2958
  159MOL0     H21401   2.990   1.915   5.634  0.9658  3.2178  1.7832
  159MOL0     H21402   3.180   1.771   5.537  0.2678 -0.5386  1.6799
  159MOL0     H21403   3.205   1.884   5.412  2.9787 -0.5188  2.3414
  159MOL0     H21404   2.980   1.831   5.335 -0.5871 -2.3220 -1.7893
  159MOL0     H21405   2.952   1.726   5.461 -0.0423  2.8151  1.4802
  159MOL0     H21406   3.149   1.724   5.225  1.4844  2.2090  1.5491
  159MOL0     H21407   3.185   1.619   5.364 -1.1136  0.9507  0.3288
  159MOL0     H21408   2.983   1.499   5.356  1.7793 -1.4878 -0.4379
  159MOL0     H21409   2.913   1.609   5.235  1.7970  1.8386 -1.0236
  159MOL0     H21410   3.096   1.542   5.069  0.9323 -3.4598 -1.5296
  159MOL0     H21411   3.164   1.428   5.182  0.2911 -0.1021 -0.7419
  159MOL0     H21412   2.880   1.421   5.054 -1.2652 -2.2623 -0.4448
  159MOL0     H21413   2.944   1.307   5.167  0.7976 -3.4745 -1.9559
  159MOL0     H21414   3.087   1.385   4.909  1.3565 -2.6355 -3.1041
  159MOL0     H21415   3.154   1.266   5.015 -1.2552 -0.3445  1.2787
  159MOL0     H21416   2.985   1.040   5.073 -0.6498  1.2822 -0.2588
  159MOL0     H21417   2.901   0.806   4.815 -1.1897 -0.9187  1.1449
  159MOL0     H21418   2.880   0.845   4.987 -2.3821 -1.2105  0.6102
  159MOL0     H21419   2.644   0.933   4.936 -0.8307  1.0866 -0.6597
  159MOL0     H21420   2.683   0.906   4.765  0.1449 -1.2247 -0.5513
  159MOL0     H21421   2.547   0.718   4.880  0.0688 -2.6868  3.4691
  159MOL0     H21422   2.700   0.671   4.954  1.2037 -0.1776 -0.9759
  159MOL0     H21423   2.702   0.705   4.664  4.5417  0.6486  0.4819
  159MOL0     H21424   2.637   0.551   4.726  3.0370 -1.1714 -2.0909
  159MOL0     H21425   2.678   0.423   4.951 -0.1832 -0.0370 -0.4247
  159MOL0     H21426   2.797   0.275   5.121 -0.9130  2.7076  1.8303
  159MOL0     H21427   3.129   0.076   5.401  1.4980 -2.8951  1.2201
  159MOL0     H21428   3.278  -0.065   5.510 -0.7241  0.3779  0.3795
  159MOL0     H21429   3.696  -0.148   5.339 -3.8551  0.7801 -1.9622
  159MOL0     H21430   3.706  -0.001   5.427  0.5456 -0.1655 -0.6418
  159MOL0     H21431   3.846  -0.152   5.555 -0.3471  1.2200 -0.4403
  159MOL0     H21432   3.699  -0.158   5.653  2.7448  5.6300 -0.1693
  159MOL0     H21433   3.639  -0.352   5.562 -1.0177  0.4683  0.8331
  159MOL0     H21434   3.760  -0.370   5.427  1.6409 -3.1242  2.4309
  159MOL0     H21435   3.831  -0.382   5.712 -1.5374 -2.3600  1.0902
  159MOL0     H21436   3.938  -0.409   5.579 -1.5351  2.8086 -2.0301
  159MOL0     H21437   3.717  -0.590   5.544 -0.0871 -2.1667  0.8006
  159MOL0     H21438   3.748  -0.583   5.723 -1.3301  1.6807  0.1473
  159MOL0     H21439   3.988  -0.651   5.667  1.1238 -0.9692 -1.8236
  159MOL0     H21440   3.875  -0.773   5.614 -0.6895 -0.4353 -0.2405
  159MOL0     H21441   4.041  -0.577   5.462  0.1426 -0.4791 -1.7742
  159MOL0     H21442   3.878  -0.608   5.388  0.0318 -0.8901 -1.0590
  159MOL0     H21443   4.080  -0.830   5.463  0.5677 -0.5388 -1.3416
  159MOL0     H21444   3.921  -0.834   5.376  0.0220  0.8202 -3.0274
  159MOL0     H21445   3.593   0.043   5.232 -0.7988 -1.7004 -2.5085
  159MOL0     H21446   3.418   0.147   5.093 -2.7728 -2.0168 -0.3541
  159MOL0     H21447   3.174   0.377   4.964 -1.8109 -3.0089  3.2776
  159MOL0     H21448   3.092   0.508   4.801  2.2900 -3.4644  0.1149
  159MOL0     H21449   2.904   2.254   5.390  0.1968  0.7030 -1.4063
  159MOL0     H21450   2.689   2.278   5.292  0.7540 -0.5499 -2.9189
  159MOL0     H21451   2.280   2.251   5.332 -1.4307 -0.1430  0.9047
  159MOL0     H21452   2.072   2.342   5.273  0.7292 -0.1038 -0.8156
  159MOL0     H21453   1.923   2.408   5.076  0.0804  0.0068  1.5424
  159MOL0     H21454   1.796   2.380   5.200 -0.7195 -0.3470 -0.9651
  159MOL0     H21455   1.767   2.291   4.909  1.5656  1.9060 -0.8617
  159MOL0     H21456   1.702   2.444   4.963  0.5301 -0.5398 -3.9161
  159MOL0     H21457   1.581   2.290   5.150 -0.1784  1.6091  0.4166
  159MOL0     H21458   1.645   2.152   5.062 -0.5972  0.1992  1.1651
  159MOL0     H21459   1.465   2.350   4.926  1.3868 -0.1112 -0.5602
  159MOL0     H21460   1.525   2.192   4.859 -0.7801 -0.3379 -0.0336
  159MOL0     H21461   1.190   2.078   5.091 -0.3882  2.2526  1.0617
  159MOL0     H21462   2.010   2.023   4.999 -1.1581  0.8730  0.5111
  159MOL0     H21463   2.145   1.860   4.956 -0.5495 -2.0567  3.0807
  159MOL0     H21464   2.306   1.933   4.912 -0.4540  5.2795  1.1131
  159MOL0     H21465   2.293   1.832   5.057 -2.8394 -0.7318  1.4160
  160MOL0     O21466   7.042   8.422   9.735  0.0255 -0.9831 -0.9091
  160MOL0     C21467   7.038   8.541   9.754 -0.6212 -0.8290  0.5037
  160MOL0     O21468   6.925   8.620   9.741  0.1406  0.1829 -0.6228
  160MOL0     C21469   6.804   8.563   9.796  0.2187 -0.2815  0.6309
  160MOL0     C21470   6.797   8.450   9.874  0.7124 -0.6851 -1.2878
  160MOL0     C21471   6.668   8.407   9.917  0.5184  0.4072 -0.4218
  160MOL0     C21472   6.551   8.482   9.898 -0.3620 -0.0987 -0.0629
  160MOL0     O21473   6.418   8.458   9.941 -0.8356  0.3571  0.8068
  160MOL0     C21474   6.414   8.364  10.049 -0.0523  0.0095 -0.6920
  160MOL0     C21475   6.280   8.363  10.106 -0.5722 -0.5099  0.9613
  160MOL0     C21476   6.158   8.361  10.011  0.6512  0.7089 -0.3835
  160MOL0     C21477   6.040   8.449  10.062  0.4280  0.8538 -0.1965
  160MOL0     C21478   5.969   8.402  10.189  0.1389  0.3082  0.7934
  160MOL0     C21479   5.847   8.478  10.232  0.7027  0.6169 -0.9587
  160MOL0     C21480   5.741   8.488  10.125  0.5045  0.4361  0.9177
  160MOL0     C21481   5.600   8.479  10.200 -0.2576 -0.3000  0.5639
  160MOL0     N21482   5.556   8.365  10.273 -1.0273  0.3857 -0.1032
  160MOL0     C21483   5.436   8.361  10.349 -0.0910 -0.5069 -0.2907
  160MOL0     C21484   5.438   8.240  10.407  0.8324 -0.0422 -0.2691
  160MOL0     C21485   5.338   8.184  10.499  0.1135  0.0846  0.3316
  160MOL0     C21486   5.247   8.097  10.428  0.2166 -0.5364  0.7785
  160MOL0     C21487   5.151   8.031  10.530 -0.4555 -0.7151 -0.3733
  160MOL0     C21488   5.047   7.941  10.471  0.2391  0.8534  0.7059
  160MOL0     O21489   5.112   7.814  10.433 -0.2641  0.0628 -0.9558
  160MOL0     C21490   5.034   7.715  10.378 -0.7824  0.0097 -1.3504
  160MOL0     C21491   4.897   7.718  10.348 -0.3052 -1.3418 -0.0783
  160MOL0     C21492   4.823   7.616  10.305  0.9386  0.3641  0.2266
  160MOL0     C21493   4.882   7.500  10.273 -0.0235  0.9950  0.4199
  160MOL0     C21494   4.793   7.390  10.221  0.4282 -0.3550 -0.4088
  160MOL0     O21495   4.661   7.407  10.255  1.0051  0.0205  0.4581
  160MOL0     C21496   4.579   7.295  10.225 -0.5745 -0.0264 -0.5921
  160MOL0     C21497   4.494   7.304  10.118 -0.0164  0.2153 -0.5028
  160MOL0     C21498   4.411   7.193  10.085  0.1473 -0.6405  0.0022
  160MOL0     C21499   4.404   7.081  10.163 -0.0995 -0.0312 -0.0452
  160MOL0     O21500   4.309   6.987  10.131 -0.2549  0.2059  0.2110
  160MOL0     C21501   4.178   7.044  10.140  0.6490 -0.6904  1.1758
  160MOL0     C21502   4.062   6.939  10.159 -0.1280 -0.1723 -0.3043
  160MOL0     C21503   3.920   7.008  10.151  0.8937  0.2677  0.7323
  160MOL0     C21504   3.822   6.918  10.083  0.1128 -0.0350 -0.0693
  160MOL0     C21505   3.689   6.960  10.130  0.6185 -0.0104  0.5461
  160MOL0     C21506   3.603   7.033  10.021 -0.3817 -0.3844  0.7589
  160MOL0     C21507   3.481   7.098  10.076  0.3563 -1.1678  0.7211
  160MOL0     C21508   3.381   7.150   9.971  0.5515  0.0778 -0.1283
  160MOL0    Cl21509   3.248   7.250  10.041  0.1545  0.0568  0.2498
  160MOL0     C21510   4.497   7.064  10.263  0.3875  0.3588 -0.3413
  160MOL0     C21511   4.580   7.175  10.295  0.5274  0.0488 -0.0897
  160MOL0     O21512   4.839   7.305  10.148  0.3962 -0.7992  0.0194
  160MOL0     C21513   5.027   7.488  10.289  0.3527 -0.0198 -0.7677
  160MOL0     C21514   5.103   7.594  10.349  0.7707 -0.6633  0.2630
  160MOL0     N21515   5.544   8.169  10.359  0.8282 -0.1966 -0.3280
  160MOL0     N21516   5.621   8.240  10.282  0.2140 -0.8325  0.2096
  160MOL0     C21517   6.567   8.593   9.815  0.0215  0.6468 -0.1925
  160MOL0     C21518   6.694   8.631   9.761  0.5242  0.2833  0.6756
  160MOL0     C21519   7.166   8.631   9.753 -0.7954  0.0300 -0.3431
  160MOL0     C21520   7.154   8.762   9.704 -0.2787 -0.5607  0.4350
  160MOL0     C21521   7.264   8.847   9.695  0.7993  1.2433 -0.1828
  160MOL0     C21522   7.382   8.802   9.742 -0.7808 -0.2017 -0.2013
  160MOL0     O21523   7.486   8.886   9.735 -0.0622 -0.0243  0.3227
  160MOL0     C21524   7.620   8.861   9.781 -0.2220 -0.1534  0.3805
  160MOL0     C21525   7.715   8.975   9.742 -0.5551  0.0132  0.1950
  160MOL0     C21526   7.681   9.105   9.807 -0.0445 -0.5137  1.2378
  160MOL0     C21527   7.795   9.207   9.790 -0.4680  0.6980  0.9535
  160MOL0     C21528   7.825   9.232   9.650  0.5904 -0.4114  0.5831
  160MOL0     C21529   7.839   9.284   9.541  0.4753  0.2910 -0.5791
  160MOL0     C21530   7.399   8.676   9.800 -0.6214 -0.7849  0.1019
  160MOL0     C21531   7.294   8.591   9.809  0.6477  0.7937 -0.0312
  160MOL0     C21532   7.304   8.457   9.890 -0.0831 -0.2818 -0.6775
  160MOL0     H21533   6.877   8.381   9.900  0.4902 -0.5609 -0.2104
  160MOL0     H21534   6.652   8.312   9.967 -3.7182  0.3792 -1.4074
  160MOL0     H21535   6.429   8.260  10.021 -1.6840 -0.2947 -0.5625
  160MOL0     H21536   6.488   8.403  10.119 -0.4809 -1.0346  0.3746
  160MOL0     H21537   6.282   8.461  10.155 -3.9076  1.0298 -1.5601
  160MOL0     H21538   6.265   8.278  10.173 -3.2514 -1.3148 -0.4787
  160MOL0     H21539   6.120   8.259   9.997  0.3483  0.8465 -0.5799
  160MOL0     H21540   6.178   8.394   9.908  0.3456 -2.8573 -1.7149
  160MOL0     H21541   6.068   8.555  10.051  0.0412  0.8097 -1.8704
  160MOL0     H21542   5.966   8.436   9.983 -1.2714 -1.0706  1.5786
  160MOL0     H21543   5.935   8.300  10.170  0.8354  0.8286 -4.9696
  160MOL0     H21544   6.043   8.408  10.270  3.5643  3.2398 -2.1796
  160MOL0     H21545   5.800   8.433  10.320  1.0748  2.5651  0.3006
  160MOL0     H21546   5.866   8.583  10.256 -1.1095  1.3205 -2.3594
  160MOL0     H21547   5.747   8.402  10.058  4.1308  0.9093  0.4425
  160MOL0     H21548   5.740   8.577  10.062  2.0040  0.0061  0.2382
  160MOL0     H21549   5.594   8.565  10.268 -1.6608  1.4170 -1.5927
  160MOL0     H21550   5.526   8.513  10.127  2.5072 -0.2726 -2.4708
  160MOL0     H21551   5.374   8.447  10.371  0.7819 -0.0065  0.3090
  160MOL0     H21552   5.387   8.126  10.578  1.4104  1.2186  0.3959
  160MOL0     H21553   5.284   8.264  10.549 -0.1488 -1.2967  2.3851
  160MOL0     H21554   5.191   8.165  10.363  2.5140  0.9438  0.1893
  160MOL0     H21555   5.292   8.023  10.362  0.1528  0.0636  0.0475
  160MOL0     H21556   5.104   8.108  10.592  2.7629 -0.8652  2.5666
  160MOL0     H21557   5.210   7.973  10.601 -0.9933 -0.1071  0.5908
  160MOL0     H21558   5.015   7.990  10.379  1.7275  2.4073  0.9398
  160MOL0     H21559   4.968   7.922  10.544  1.5060  0.2909  1.9897
  160MOL0     H21560   4.849   7.811  10.379 -0.8472 -0.8737 -2.1377
  160MOL0     H21561   4.719   7.646  10.297  0.6673  1.5859  5.3821
  160MOL0     H21562   4.501   7.386  10.047  0.0919  0.3794 -0.3018
  160MOL0     H21563   4.343   7.193  10.000 -1.8121 -2.2711  1.4566
  160MOL0     H21564   4.177   7.119  10.220 -1.1405 -0.6988  1.2113
  160MOL0     H21565   4.153   7.096  10.047 -0.6662 -2.5333  0.4471
  160MOL0     H21566   4.080   6.866  10.079  0.6443 -0.8039  0.4194
  160MOL0     H21567   4.067   6.881  10.251 -0.9877  1.9226  1.1344
  160MOL0     H21568   3.883   7.039  10.250 -1.1390 -1.5015  0.5859
  160MOL0     H21569   3.927   7.097  10.088  2.7983 -1.9645 -2.5154
  160MOL0     H21570   3.837   6.812  10.107 -3.8716 -1.3689 -2.4018
  160MOL0     H21571   3.831   6.924   9.974  0.0008 -0.7638 -0.1247
  160MOL0     H21572   3.668   7.010  10.225 -1.8452  1.0737 -0.4635
  160MOL0     H21573   3.626   6.871  10.142 -2.8004  2.3613  1.6565
  160MOL0     H21574   3.661   7.104   9.960  0.1959 -1.8139 -0.4145
  160MOL0     H21575   3.569   6.966   9.941  0.8343  1.1928 -1.2040
  160MOL0     H21576   3.509   7.190  10.128 -2.8593 -0.0685  0.7090
  160MOL0     H21577   3.438   7.034  10.153  0.2199 -1.2648  0.5669
  160MOL0     H21578   3.436   7.212   9.900 -0.5302  0.6969 -0.4435
  160MOL0     H21579   3.341   7.064   9.916  0.0345  0.1605  0.1144
  160MOL0     H21580   4.507   6.979  10.330 -3.5038 -1.4495 -1.7344
  160MOL0     H21581   4.647   7.165  10.379  3.0600  0.5932 -1.9123
  160MOL0     H21582   5.065   7.393  10.253  1.7135  1.7753 -4.5317
  160MOL0     H21583   5.211   7.580  10.339  0.3655 -2.3276 -2.9557
  160MOL0     H21584   6.472   8.644   9.801 -1.0519 -0.7362  1.6829
  160MOL0     H21585   6.700   8.699   9.677 -2.3347  0.0145  0.1421
  160MOL0     H21586   7.056   8.801   9.679 -0.5796 -1.1902  0.5980
  160MOL0     H21587   7.260   8.950   9.660  2.7966  1.9167  1.4292
  160MOL0     H21588   7.655   8.774   9.724  2.6438  1.4609 -0.5580
  160MOL0     H21589   7.620   8.850   9.890 -2.5954 -0.1280  0.4350
  160MOL0     H21590   7.724   8.978   9.633  0.3308  0.1861  0.2645
  160MOL0     H21591   7.807   8.936   9.784 -1.7325 -0.1893  2.7515
  160MOL0     H21592   7.646   9.098   9.911 -0.3336  2.1047  1.3810
  160MOL0     H21593   7.592   9.140   9.755 -1.1623 -1.6998  2.2643
  160MOL0     H21594   7.784   9.299   9.848 -3.0536  0.9160  0.2289
  160MOL0     H21595   7.884   9.153   9.823 -0.9393  0.1376  1.3306
  160MOL0     H21596   7.853   9.304   9.436 -1.1720  1.6896 -0.5672
  160MOL0     H21597   7.498   8.648   9.836  0.7066  0.1312 -2.5166
  160MOL0     H21598   7.259   8.464   9.990  1.7100 -0.7938  0.2103
  160MOL0     H21599   7.262   8.370   9.840 -0.1985 -0.3594 -0.4479
  160MOL0     H21600   7.411   8.439   9.906  0.3457  2.1040 -0.5359
  161MOL0     O21601   9.634   0.528   6.778  0.0551 -0.5900 -0.0660
  161MOL0     C21602   9.665   0.488   6.893  0.9325  0.7248  0.0168
  161MOL0     O21603   9.764   0.398   6.913  0.0040  0.0374  0.5300
  161MOL0     C21604   9.767   0.302   6.812  0.4696 -0.7019  0.4867
  161MOL0     C21605   9.900   0.255   6.772 -1.0586 -0.1707  0.1303
  161MOL0     C21606   9.912   0.143   6.698 -0.1943  0.7514 -0.4381
  161MOL0     C21607   9.802   0.063   6.661  0.0620  0.8699 -0.7512
  161MOL0     O21608   9.815  -0.056   6.601 -0.6514  0.8634 -0.0796
  161MOL0     C21609   9.946  -0.122   6.607  1.0605  0.0812 -0.6170
  161MOL0     C21610  10.010  -0.105   6.469 -0.5736 -0.1010  0.6726
  161MOL0     C21611   9.922  -0.147   6.350 -0.7767 -0.8438  0.7830
  161MOL0     C21612   9.839  -0.270   6.370 -0.3039  0.5387  0.4254
  161MOL0     C21613   9.735  -0.304   6.258  0.0425  0.5286 -0.8631
  161MOL0     C21614   9.800  -0.353   6.124 -0.1200 -0.2283 -1.1636
  161MOL0     C21615   9.710  -0.408   6.023 -0.0859  0.3397  0.0053
  161MOL0     C21616   9.691  -0.553   6.053  0.1657  0.1175  0.5182
  161MOL0     N21617   9.597  -0.598   5.955 -0.0448 -0.7191 -0.6921
  161MOL0     C21618   9.644  -0.653   5.840 -0.7722  0.7346  1.3850
  161MOL0     C21619   9.535  -0.674   5.763  0.0784 -0.6124  0.8121
  161MOL0     C21620   9.540  -0.734   5.629 -0.5807  0.0987 -0.2838
  161MOL0     C21621   9.470  -0.677   5.508  0.1050 -0.0996 -0.5307
  161MOL0     C21622   9.524  -0.763   5.392  0.3957 -1.0546 -0.5986
  161MOL0     C21623   9.431  -0.752   5.266  0.4368  0.0963 -0.1444
  161MOL0     O21624   9.380  -0.619   5.244  0.3371  0.5616  1.1274
  161MOL0     C21625   9.476  -0.528   5.224  0.6292  0.1565  0.2397
  161MOL0     C21626   9.603  -0.550   5.166  0.7495  0.8428 -0.1904
  161MOL0     C21627   9.689  -0.437   5.166 -0.1190  0.4704 -0.6105
  161MOL0     C21628   9.667  -0.318   5.238 -1.0682 -0.9940 -0.0977
  161MOL0     C21629   9.761  -0.202   5.228 -0.8826  0.1200  0.7496
  161MOL0     O21630   9.827  -0.181   5.104 -0.8000  0.0271  0.5192
  161MOL0     C21631   9.941  -0.105   5.109 -0.2984 -0.9153  0.1545
  161MOL0     C21632   9.969  -0.046   4.985  0.0267 -0.7729  0.4240
  161MOL0     C21633  10.084   0.031   4.978 -0.5068  1.0416  0.3413
  161MOL0     C21634  10.173   0.046   5.084  0.0609 -0.9193 -0.5589
  161MOL0     O21635  10.291   0.123   5.073 -0.4132  0.0110 -0.3711
  161MOL0     C21636  10.291   0.261   5.063 -0.8449  1.1096  0.1312
  161MOL0     C21637  10.258   0.313   4.917 -0.3079 -0.2464 -0.1041
  161MOL0     C21638  10.272   0.459   4.886  0.2548  0.1278 -0.2089
  161MOL0     C21639  10.161   0.544   4.959 -0.1831  0.9317  0.1463
  161MOL0     C21640  10.183   0.688   4.942  0.3610  0.0216 -0.2500
  161MOL0     C21641  10.043   0.741   5.011 -1.1653  0.4491 -0.4110
  161MOL0     C21642  10.037   0.898   4.978 -0.4485  0.1165  0.7135
  161MOL0     C21643   9.896   0.951   5.015  0.1091 -0.0493  0.5204
  161MOL0    Cl21644   9.784   0.940   4.875  0.5347  0.2029 -0.3594
  161MOL0     C21645  10.150  -0.025   5.202 -0.0550  0.5370  0.1715
  161MOL0     C21646  10.035  -0.101   5.213 -0.1105 -0.4167  0.0148
  161MOL0     O21647   9.741  -0.119   5.312 -0.3909  0.0848  0.3558
  161MOL0     C21648   9.541  -0.309   5.308 -0.2447  0.1634  0.2243
  161MOL0     C21649   9.447  -0.403   5.284  0.0335  0.2461 -0.0745
  161MOL0     N21650   9.428  -0.643   5.835  1.1290  0.6815 -0.3292
  161MOL0     N21651   9.459  -0.587   5.949 -0.6353  0.1960 -0.1005
  161MOL0     C21652   9.681   0.119   6.678 -0.0876 -0.3083 -0.1794
  161MOL0     C21653   9.656   0.233   6.748  0.3924 -0.1500  0.4186
  161MOL0     C21654   9.625   0.555   7.017  0.6822 -0.8063 -0.1130
  161MOL0     C21655   9.517   0.645   7.004  0.1732 -0.6411  0.5988
  161MOL0     C21656   9.478   0.716   7.118  0.8395  0.4547  0.8328
  161MOL0     C21657   9.535   0.701   7.237 -0.2883 -0.7740  0.8030
  161MOL0     O21658   9.478   0.790   7.320 -0.6550  0.6845 -0.5636
  161MOL0     C21659   9.497   0.804   7.462  0.1704 -0.1792  0.2855
  161MOL0     C21660   9.380   0.748   7.540  0.5948 -0.4918  0.1953
  161MOL0     C21661   9.268   0.847   7.555  0.3282 -0.8367  0.2400
  161MOL0     C21662   9.174   0.888   7.438 -0.4392 -0.1259 -0.0617
  161MOL0     C21663   9.041   0.828   7.448  0.9664  0.7224 -0.6881
  161MOL0     C21664   8.937   0.771   7.446  0.3420  0.1901 -0.6381
  161MOL0     C21665   9.637   0.611   7.260 -0.2673  1.2985  0.4578
  161MOL0     C21666   9.672   0.527   7.153  0.3988  0.6033 -0.2118
  161MOL0     C21667   9.779   0.429   7.184  0.2082 -0.0047  0.7656
  161MOL0     H21668   9.983   0.305   6.821  1.5550 -3.4765 -0.5776
  161MOL0     H21669  10.016   0.126   6.671  0.5059 -1.2753  2.9614
  161MOL0     H21670  10.006  -0.094   6.694 -1.6950 -0.5687  1.6550
  161MOL0     H21671   9.937  -0.231   6.606  2.8869 -0.0934 -0.3537
  161MOL0     H21672  10.093  -0.176   6.473 -0.8698 -0.3976  1.9471
  161MOL0     H21673  10.032   0.001   6.452  0.8716 -0.5000 -0.1639
  161MOL0     H21674   9.978  -0.151   6.256 -0.7665  0.1278  0.7382
  161MOL0     H21675   9.850  -0.068   6.325 -2.3176 -2.1993  0.7122
  161MOL0     H21676   9.897  -0.358   6.400 -2.0919 -0.3018  1.5574
  161MOL0     H21677   9.766  -0.255   6.450 -3.6121 -0.7018 -2.1531
  161MOL0     H21678   9.670  -0.387   6.288 -0.2148 -0.0174 -2.7390
  161MOL0     H21679   9.666  -0.221   6.241  0.2673  1.2994  1.6635
  161MOL0     H21680   9.861  -0.270   6.087  1.5945 -1.0343 -0.2423
  161MOL0     H21681   9.877  -0.425   6.151 -2.6257 -1.6044  3.2517
  161MOL0     H21682   9.749  -0.391   5.922  1.0778 -0.1865  0.3486
  161MOL0     H21683   9.615  -0.354   6.028  0.5199  1.3626  0.8366
  161MOL0     H21684   9.781  -0.616   6.050 -0.3858 -0.7150  0.9580
  161MOL0     H21685   9.655  -0.559   6.156  2.0500  0.9001  1.2667
  161MOL0     H21686   9.749  -0.680   5.833 -0.6388  0.8302  2.6630
  161MOL0     H21687   9.644  -0.757   5.602 -0.6436  1.1609 -1.5565
  161MOL0     H21688   9.481  -0.823   5.651 -2.9819  1.6308 -0.1962
  161MOL0     H21689   9.362  -0.691   5.522  0.0235 -1.2996 -2.0554
  161MOL0     H21690   9.504  -0.578   5.477 -1.3781  1.0321  1.2616
  161MOL0     H21691   9.542  -0.868   5.416  1.2498 -1.1352 -1.5435
  161MOL0     H21692   9.620  -0.717   5.366  0.6194 -0.7457  0.6959
  161MOL0     H21693   9.343  -0.816   5.254  1.0394 -0.6402 -0.7840
  161MOL0     H21694   9.498  -0.787   5.186 -0.7147  0.2936 -1.2273
  161MOL0     H21695   9.636  -0.649   5.134 -3.9135 -0.4873 -1.5921
  161MOL0     H21696   9.789  -0.450   5.124 -0.9571 -0.3223 -2.5021
  161MOL0     H21697   9.904  -0.050   4.898  1.4613  2.3208 -0.9866
  161MOL0     H21698  10.116   0.059   4.879 -1.6575 -2.2219 -1.0916
  161MOL0     H21699  10.227   0.293   5.145 -2.7046  1.6450 -1.4315
  161MOL0     H21700  10.391   0.299   5.083 -0.4205  1.6780 -2.6163
  161MOL0     H21701  10.331   0.267   4.849  1.2893  1.9486  0.0336
  161MOL0     H21702  10.158   0.272   4.896  0.4577 -0.7989 -3.1102
  161MOL0     H21703  10.371   0.493   4.919  0.3429 -0.4526  0.1610
  161MOL0     H21704  10.263   0.464   4.778 -1.8204 -1.7769 -0.2001
  161MOL0     H21705  10.159   0.520   5.066  1.3787  2.8236  0.6469
  161MOL0     H21706  10.065   0.520   4.912 -0.4073  2.1924 -0.0669
  161MOL0     H21707  10.191   0.707   4.835  0.5093 -3.1423 -0.9061
  161MOL0     H21708  10.277   0.720   4.988  1.5494 -1.7280 -1.3287
  161MOL0     H21709   9.952   0.689   4.981 -0.0234 -1.3372 -0.9399
  161MOL0     H21710  10.059   0.718   5.116  1.6671 -1.0288 -1.0551
  161MOL0     H21711  10.063   0.918   4.874  1.4951 -1.8623  0.7307
  161MOL0     H21712  10.111   0.942   5.046  1.5462  3.6257 -3.2813
  161MOL0     H21713   9.851   0.904   5.103 -4.9217  0.1706 -1.5939
  161MOL0     H21714   9.901   1.058   5.035 -3.3488  0.5969 -1.2441
  161MOL0     H21715  10.226  -0.035   5.279  1.2147 -0.3874 -1.1441
  161MOL0     H21716  10.021  -0.153   5.307  0.2389 -2.5190 -1.0086
  161MOL0     H21717   9.508  -0.218   5.356  0.6898  0.2923  0.6380
  161MOL0     H21718   9.352  -0.396   5.335  0.5889  0.7797  0.9284
  161MOL0     H21719   9.594   0.066   6.640 -0.0617 -0.2203 -0.3640
  161MOL0     H21720   9.558   0.277   6.768  0.2338 -1.6626  3.4715
  161MOL0     H21721   9.485   0.659   6.901  0.4427 -0.1628  0.5754
  161MOL0     H21722   9.405   0.794   7.101  0.8717  0.7606  2.0267
  161MOL0     H21723   9.511   0.905   7.502  0.7600  0.0253 -0.4083
  161MOL0     H21724   9.591   0.755   7.488 -0.2885 -0.2821  1.8534
  161MOL0     H21725   9.425   0.720   7.635  3.0264  1.5468 -0.2440
  161MOL0     H21726   9.347   0.656   7.490 -0.1729 -0.9125  1.4422
  161MOL0     H21727   9.304   0.944   7.592  0.6291  0.2701 -2.6530
  161MOL0     H21728   9.199   0.803   7.627 -0.8691 -0.7956 -0.8429
  161MOL0     H21729   9.165   0.996   7.429  0.2017 -0.0298  0.3626
  161MOL0     H21730   9.212   0.853   7.342 -1.2211  1.4584 -0.9695
  161MOL0     H21731   8.849   0.712   7.456  1.8782 -2.4997 -1.9643
  161MOL0     H21732   9.658   0.587   7.364 -2.8360 -1.0895  0.5375
  161MOL0     H21733   9.833   0.451   7.276  0.3860 -1.1710  0.9511
  161MOL0     H21734   9.733   0.330   7.187 -1.7434  0.6316 -2.8360
  161MOL0     H21735   9.854   0.439   7.105  0.8549  0.4447  1.4158
  162MOL0     O21736   9.662  10.909   9.750 -0.8784 -0.9108 -0.2952
  162MOL0     C21737   9.701  10.816   9.675  0.3406 -0.5662  0.1257
  162MOL0     O21738   9.630  10.773   9.569  0.5376  0.0737  0.2862
  162MOL0     C21739   9.504  10.823   9.558 -0.3586  0.3071  0.3256
  162MOL0     C21740   9.407  10.748   9.618 -0.6857 -0.2221 -0.2614
  162MOL0     C21741   9.274  10.791   9.598 -0.1018  0.8070  0.3418
  162MOL0     C21742   9.244  10.909   9.532 -0.9998  0.1745  0.6822
  162MOL0     O21743   9.120  10.967   9.528  0.0704  0.4736 -0.2035
  162MOL0     C21744   8.999  10.886   9.520  0.4460 -0.1153 -0.2589
  162MOL0     C21745   8.872  10.975   9.537  0.2704  0.6803  0.1803
  162MOL0     C21746   8.876  11.089   9.633  0.3597 -0.3905  0.0373
  162MOL0     C21747   8.738  11.140   9.657 -0.6972  0.0450 -1.0959
  162MOL0     C21748   8.723  11.236   9.772 -0.0060  0.3094 -0.1235
  162MOL0     C21749   8.573  11.241   9.805  0.4246  0.1416  0.0382
  162MOL0     C21750   8.541  11.352   9.913 -0.6431 -0.1570  0.2507
  162MOL0     C21751   8.584  11.497   9.878  0.5222 -0.2679 -0.3160
  162MOL0     N21752   8.494  11.550   9.781  0.0101 -0.0307  0.5085
  162MOL0     C21753   8.529  11.570   9.651 -0.7973 -0.3517  0.1039
  162MOL0     C21754   8.412  11.559   9.581 -1.2810  0.2019  0.3730
  162MOL0     C21755   8.399  11.584   9.437 -0.9210 -0.0847  0.3346
  162MOL0     C21756   8.519  11.535   9.350  0.5155  0.0653  0.9489
  162MOL0     C21757   8.538  11.373   9.363  0.0234  0.2238  0.0760
  162MOL0     C21758   8.617  11.302   9.247 -0.5616 -0.8753  0.5352
  162MOL0     O21759   8.740  11.271   9.309 -0.3115  0.3574 -0.3573
  162MOL0     C21760   8.838  11.211   9.237 -0.0884 -0.3368  0.1965
  162MOL0     C21761   8.819  11.147   9.118 -0.6668 -0.3366 -0.6580
  162MOL0     C21762   8.926  11.081   9.056  0.4136  1.0871 -0.8245
  162MOL0     C21763   9.048  11.072   9.110 -0.0553  0.8166 -0.5124
  162MOL0     C21764   9.156  10.992   9.058  0.2986 -0.6412 -0.3116
  162MOL0     O21765   9.286  10.996   9.116 -0.0079  0.3382 -0.1413
  162MOL0     C21766   9.379  10.894   9.100  0.2846  1.1816  0.7673
  162MOL0     C21767   9.501  10.929   9.134 -0.0313 -0.2102 -0.1788
  162MOL0     C21768   9.602  10.844   9.107  0.7600 -0.3434 -0.0308
  162MOL0     C21769   9.585  10.722   9.047  0.3655 -0.0886  0.8844
  162MOL0     O21770   9.704  10.651   9.009  0.4219  0.3438 -0.0183
  162MOL0     C21771   9.680  10.527   8.945 -0.7589  1.2232  0.1773
  162MOL0     C21772   9.810  10.462   8.902 -0.3842 -0.6330 -0.4170
  162MOL0     C21773   9.903  10.436   9.022 -0.4356 -0.2844 -0.3579
  162MOL0     C21774  10.053  10.397   8.976  0.1029 -1.0341 -0.1088
  162MOL0     C21775  10.118  10.318   9.089 -0.2306 -0.1117 -0.4202
  162MOL0     C21776  10.128  10.396   9.223 -0.2401  0.7929  0.5516
  162MOL0     C21777  10.218  10.320   9.323 -0.6146 -0.2005  1.1724
  162MOL0     C21778  10.128  10.217   9.397 -0.0159 -0.3212  0.8577
  162MOL0    Cl21779  10.208  10.151   9.539  0.0956 -0.1643  0.2375
  162MOL0     C21780   9.451  10.687   9.008  0.3036  0.5685  0.5046
  162MOL0     C21781   9.343  10.764   9.049 -0.6277  0.8268 -0.1114
  162MOL0     O21782   9.123  10.919   8.965  0.7620  0.6080 -0.1717
  162MOL0     C21783   9.069  11.136   9.236 -0.1576 -0.2439 -0.2007
  162MOL0     C21784   8.965  11.193   9.299 -0.3037 -0.2107  0.3267
  162MOL0     N21785   8.307  11.560   9.667  0.4306 -0.7097 -0.4243
  162MOL0     N21786   8.359  11.555   9.779  0.2092  0.2258 -0.4300
  162MOL0     C21787   9.347  10.982   9.481 -0.3755 -0.4942 -0.0610
  162MOL0     C21788   9.479  10.937   9.484  0.7953  0.1233  0.3047
  162MOL0     C21789   9.834  10.762   9.714  0.0417  1.4471  0.6890
  162MOL0     C21790   9.904  10.812   9.832  0.7678 -1.2256  1.4496
  162MOL0     C21791  10.032  10.781   9.859  0.5813 -0.7937  0.1270
  162MOL0     C21792  10.103  10.687   9.786  0.7830  0.4578  0.4784
  162MOL0     O21793  10.223  10.662   9.834  0.2807  0.2251  0.2002
  162MOL0     C21794  10.305  10.579   9.747  0.1801 -0.2230  0.1718
  162MOL0     C21795  10.448  10.569   9.807  0.6682 -0.3691 -0.2622
  162MOL0     C21796  10.547  10.513   9.701  0.0147  0.1727 -0.3448
  162MOL0     C21797  10.690  10.569   9.711 -0.4032  0.4070  0.5091
  162MOL0     C21798  10.709  10.704   9.677  0.8054  0.8556  0.2275
  162MOL0     C21799  10.729  10.814   9.627 -0.1360 -0.2365 -0.8384
  162MOL0     C21800  10.034  10.629   9.674  0.0304  0.0092  0.3492
  162MOL0     C21801   9.905  10.663   9.637  0.9442  1.1179 -0.4660
  162MOL0     C21802   9.832  10.580   9.537  0.4126  0.2184 -0.2375
  162MOL0     H21803   9.434  10.654   9.665 -3.4047  0.2743  2.6425
  162MOL0     H21804   9.194  10.722   9.625 -2.2829  1.7559 -3.1389
  162MOL0     H21805   8.983  10.829   9.429 -1.1423  1.1157 -0.7880
  162MOL0     H21806   8.988  10.824   9.610  0.0459  2.0791  1.2892
  162MOL0     H21807   8.802  10.903   9.581  2.7271  0.1412  3.6427
  162MOL0     H21808   8.828  11.005   9.441  1.0778  0.5305 -0.2435
  162MOL0     H21809   8.951  11.155   9.589 -2.3040  2.3981 -0.7170
  162MOL0     H21810   8.918  11.053   9.727  1.6196  1.3816  0.2090
  162MOL0     H21811   8.684  11.172   9.567 -1.5025  0.6225 -0.4215
  162MOL0     H21812   8.686  11.053   9.697  1.8304  0.0235  2.6404
  162MOL0     H21813   8.773  11.198   9.861 -0.1474  2.2701  0.8629
  162MOL0     H21814   8.759  11.337   9.751 -0.1095  0.6099  1.0457
  162MOL0     H21815   8.520  11.265   9.712 -0.4280  0.2408  0.5488
  162MOL0     H21816   8.548  11.139   9.834  1.3083 -0.3742 -0.9328
  162MOL0     H21817   8.597  11.329  10.004  2.4298 -0.0864 -1.4865
  162MOL0     H21818   8.434  11.346   9.936 -0.7216 -1.2768 -0.3288
  162MOL0     H21819   8.585  11.557   9.969 -0.2567 -2.2587  1.0501
  162MOL0     H21820   8.690  11.501   9.848  1.0988 -2.6353  1.1443
  162MOL0     H21821   8.630  11.589   9.616 -0.5990  0.1443  0.9239
  162MOL0     H21822   8.310  11.535   9.395  0.4610 -1.6971 -0.8625
  162MOL0     H21823   8.378  11.690   9.425  3.8226  1.1961  1.4140
  162MOL0     H21824   8.484  11.568   9.252 -0.9688  1.0379  1.7615
  162MOL0     H21825   8.617  11.578   9.373  0.5400  1.8872 -2.0761
  162MOL0     H21826   8.446  11.314   9.367  1.6257 -2.3836  0.6282
  162MOL0     H21827   8.583  11.372   9.462 -0.0090  2.9384  0.1814
  162MOL0     H21828   8.620  11.378   9.168 -2.5896 -1.5002 -0.2182
  162MOL0     H21829   8.575  11.209   9.207 -1.1471 -0.7730  0.9019
  162MOL0     H21830   8.721  11.134   9.072 -0.7232  0.7208 -0.8626
  162MOL0     H21831   8.897  11.006   8.982  1.9976 -0.6399  0.2476
  162MOL0     H21832   9.513  11.025   9.183 -1.0421  1.3051 -2.6887
  162MOL0     H21833   9.703  10.868   9.139  1.2964 -0.0756 -1.7873
  162MOL0     H21834   9.613  10.466   9.006  0.8263 -0.6418  0.1680
  162MOL0     H21835   9.624  10.554   8.855  2.9318  2.8653 -1.8611
  162MOL0     H21836   9.793  10.367   8.850 -4.2616  0.6618 -1.8664
  162MOL0     H21837   9.858  10.524   8.825 -0.6396 -0.0825 -0.1427
  162MOL0     H21838   9.903  10.531   9.077 -4.4145 -0.1281 -0.4054
  162MOL0     H21839   9.858  10.360   9.086 -1.3397 -1.5579 -2.3892
  162MOL0     H21840  10.107  10.491   8.960 -1.3288  0.2051  1.8097
  162MOL0     H21841  10.045  10.328   8.892  0.2194  0.0833 -1.0616
  162MOL0     H21842  10.221  10.290   9.065 -0.7714 -1.9647 -0.7356
  162MOL0     H21843  10.070  10.221   9.104  1.4133 -0.9309 -0.2219
  162MOL0     H21844  10.173  10.495   9.205  1.7369  0.6837  3.9800
  162MOL0     H21845  10.027  10.418   9.259 -0.4670 -2.8279  2.5123
  162MOL0     H21846  10.259  10.391   9.396 -1.3126  0.1350  1.2557
  162MOL0     H21847  10.301  10.270   9.273 -2.0808  0.3748 -2.1666
  162MOL0     H21848  10.023  10.244   9.410  0.5734  0.8708  3.9503
  162MOL0     H21849  10.127  10.134   9.326  1.8885  1.7253 -1.7797
  162MOL0     H21850   9.420  10.594   8.962  1.3934  0.1453  0.5870
  162MOL0     H21851   9.240  10.732   9.040 -0.2591 -0.2809 -0.5576
  162MOL0     H21852   9.156  11.117   9.297 -1.1751 -1.2956  0.9838
  162MOL0     H21853   8.968  11.232   9.400 -0.1951  1.2169 -0.2124
  162MOL0     H21854   9.331  11.074   9.426  3.7268  1.1695  1.1602
  162MOL0     H21855   9.550  10.994   9.423 -1.1385 -0.0760 -2.3209
  162MOL0     H21856   9.841  10.879   9.889  1.3499  0.8939 -0.2802
  162MOL0     H21857  10.074  10.826   9.949 -0.0541  0.4620 -0.1776
  162MOL0     H21858  10.317  10.621   9.646  1.3494  1.1669  0.8524
  162MOL0     H21859  10.258  10.481   9.734  0.7809 -0.7456  1.6855
  162MOL0     H21860  10.450  10.513   9.901  0.3400  0.0791  0.0134
  162MOL0     H21861  10.475  10.667   9.847 -1.6821 -1.0330  3.3905
  162MOL0     H21862  10.514  10.513   9.597 -2.5737 -1.0082  0.4040
  162MOL0     H21863  10.564  10.408   9.727  0.9215  0.7139  1.4390
  162MOL0     H21864  10.714  10.545   9.815 -5.0091 -2.3498  1.2011
  162MOL0     H21865  10.747  10.502   9.645 -0.5624  0.4653  0.3106
  162MOL0     H21866  10.735  10.911   9.581 -2.5476 -0.0189 -0.8189
  162MOL0     H21867  10.089  10.566   9.604  1.7904  2.4886 -0.6566
  162MOL0     H21868   9.805  10.639   9.450 -0.8854 -0.8855 -0.6120
  162MOL0     H21869   9.895  10.494   9.511  0.5887 -0.3480  1.8594
  162MOL0     H21870   9.733  10.544   9.566 -1.3143  0.8561 -4.6694
  163MOL0     O21871   4.370   9.463   2.442  0.5720  0.8827 -0.0696
  163MOL0     C21872   4.355   9.361   2.373  0.0371  0.9264 -0.5736
  163MOL0     O21873   4.459   9.278   2.341  0.1534 -0.1079 -0.5359
  163MOL0     C21874   4.581   9.300   2.406  0.1918  0.3903  0.0017
  163MOL0     C21875   4.687   9.359   2.335  0.4838 -0.7796  0.0001
  163MOL0     C21876   4.802   9.394   2.409 -0.0056 -0.1010  0.2212
  163MOL0     C21877   4.817   9.351   2.548 -0.9474  0.5131  0.1510
  163MOL0     O21878   4.934   9.380   2.616 -0.5440 -0.0119  0.1952
  163MOL0     C21879   5.050   9.431   2.561 -0.0008  0.8146 -0.5028
  163MOL0     C21880   5.160   9.463   2.659  0.1911  0.0237  0.0968
  163MOL0     C21881   5.296   9.493   2.600  0.1904 -1.2202  0.7306
  163MOL0     C21882   5.398   9.475   2.715 -0.0092  0.4879  0.8809
  163MOL0     C21883   5.534   9.539   2.683 -0.5711  1.1276 -1.0216
  163MOL0     C21884   5.636   9.517   2.791 -0.0088  0.5243  0.5717
  163MOL0     C21885   5.771   9.573   2.747 -0.5288  0.4039  0.0872
  163MOL0     C21886   5.882   9.591   2.858 -0.1117 -0.5189 -0.2432
  163MOL0     N21887   6.013   9.556   2.798 -0.5890 -0.0162  0.4100
  163MOL0     C21888   6.069   9.428   2.762 -0.4969  0.8564 -0.4686
  163MOL0     C21889   6.196   9.455   2.716 -0.3171 -0.3857  1.0302
  163MOL0     C21890   6.304   9.363   2.669 -0.5623  0.1486 -0.7694
  163MOL0     C21891   6.319   9.253   2.772 -0.2463 -0.0582  0.2785
  163MOL0     C21892   6.472   9.201   2.790  0.7472 -0.4702  0.2200
  163MOL0     C21893   6.542   9.140   2.670  0.1459 -0.0731 -0.6545
  163MOL0     O21894   6.472   9.021   2.618  0.5555 -0.8684 -0.6833
  163MOL0     C21895   6.482   8.899   2.677  0.9354 -0.4270  0.3302
  163MOL0     C21896   6.411   8.802   2.619 -0.1296 -1.0678 -0.1553
  163MOL0     C21897   6.413   8.677   2.675 -0.6094  0.5482 -0.0976
  163MOL0     C21898   6.501   8.639   2.777 -0.1714  0.7766  0.3816
  163MOL0     C21899   6.509   8.486   2.797 -1.0358  0.6954 -0.1036
  163MOL0     O21900   6.447   8.407   2.699  0.2435 -0.1538  0.5997
  163MOL0     C21901   6.471   8.271   2.683  0.6866 -1.0058 -0.4163
  163MOL0     C21902   6.353   8.193   2.692 -1.0963 -0.0087  0.1894
  163MOL0     C21903   6.359   8.057   2.710  0.1386 -1.1606 -0.1124
  163MOL0     C21904   6.475   7.988   2.716  0.1069 -0.0308  0.0979
  163MOL0     O21905   6.470   7.849   2.754 -0.2519 -0.0219  0.4995
  163MOL0     C21906   6.555   7.764   2.670  0.3442  0.1374 -0.8224
  163MOL0     C21907   6.508   7.623   2.705  0.2147 -0.3409 -0.2684
  163MOL0     C21908   6.348   7.619   2.713 -0.4319  0.4892  0.3798
  163MOL0     C21909   6.316   7.468   2.711  0.0422 -0.0375 -0.3419
  163MOL0     C21910   6.159   7.470   2.705 -0.1998  0.0609 -1.4023
  163MOL0     C21911   6.103   7.328   2.676  1.3896  0.3000 -0.0996
  163MOL0     C21912   5.952   7.331   2.631  0.2101  0.0360  0.3383
  163MOL0     C21913   5.880   7.188   2.633 -0.8736 -1.1968  0.3796
  163MOL0    Cl21914   5.857   7.154   2.807  0.2303  0.2524 -0.3304
  163MOL0     C21915   6.591   8.063   2.693 -0.2186 -0.3506  0.4818
  163MOL0     C21916   6.591   8.203   2.673  0.2797 -0.5389 -0.6770
  163MOL0     O21917   6.581   8.445   2.888  0.4360 -0.0736  0.5273
  163MOL0     C21918   6.575   8.738   2.841  0.1732 -0.4624  0.5323
  163MOL0     C21919   6.563   8.871   2.793  0.4536  0.5535 -0.3054
  163MOL0     N21920   6.211   9.594   2.715  0.5479  0.4020  0.2670
  163MOL0     N21921   6.103   9.654   2.760 -0.9668 -0.4294 -0.0457
  163MOL0     C21922   4.704   9.293   2.617 -1.4705 -0.3232  0.8099
  163MOL0     C21923   4.595   9.259   2.547 -0.0594  0.3813  1.3040
  163MOL0     C21924   4.217   9.324   2.315  0.2054 -0.5259 -0.3887
  163MOL0     C21925   4.219   9.253   2.194  0.1718 -0.4686  0.9353
  163MOL0     C21926   4.100   9.233   2.137 -0.2116 -0.3497 -0.3748
  163MOL0     C21927   3.974   9.257   2.199  0.3133  0.8483 -0.6992
  163MOL0     O21928   3.859   9.214   2.143 -0.4933 -0.8123  0.5654
  163MOL0     C21929   3.859   9.132   2.024  0.6246  0.0429  0.0440
  163MOL0     C21930   3.924   8.993   2.071  0.1796  0.1256 -0.3025
  163MOL0     C21931   3.877   8.886   1.972  0.3084  0.7533  0.1289
  163MOL0     C21932   3.989   8.800   1.910 -0.1569 -0.4866 -0.2130
  163MOL0     C21933   4.099   8.865   1.843 -0.3813 -0.0779  0.5739
  163MOL0     C21934   4.208   8.890   1.795 -0.0718  0.1035  0.8130
  163MOL0     C21935   3.973   9.329   2.321  0.1343  0.5723 -0.5999
  163MOL0     C21936   4.098   9.362   2.379  0.1548 -0.5567  0.0374
  163MOL0     C21937   4.105   9.427   2.521 -0.5172 -0.2734 -0.0537
  163MOL0     H21938   4.673   9.397   2.234 -0.9046 -2.4189 -0.4830
  163MOL0     H21939   4.888   9.433   2.355 -0.6051 -0.0431 -0.7133
  163MOL0     H21940   5.099   9.365   2.488  0.9322  0.5066  0.3841
  163MOL0     H21941   5.032   9.525   2.508  3.3238  3.9152  3.2626
  163MOL0     H21942   5.178   9.377   2.725  1.9413  1.0513  1.0377
  163MOL0     H21943   5.141   9.542   2.732  1.6285 -2.8656  3.9881
  163MOL0     H21944   5.279   9.594   2.563  0.2829 -2.8407 -4.7235
  163MOL0     H21945   5.307   9.430   2.510 -0.2317  2.2706 -1.9709
  163MOL0     H21946   5.350   9.515   2.804 -1.1817 -1.3686  1.1400
  163MOL0     H21947   5.411   9.370   2.741 -0.9111 -0.0711 -0.7643
  163MOL0     H21948   5.580   9.508   2.588 -0.6589 -1.1806 -0.3830
  163MOL0     H21949   5.515   9.646   2.677 -3.5778  0.7265 -0.0454
  163MOL0     H21950   5.615   9.545   2.894  0.6192  0.6234  0.6780
  163MOL0     H21951   5.648   9.408   2.790 -0.5260  0.4665 -0.0906
  163MOL0     H21952   5.758   9.673   2.704  1.0575  1.4820  1.9367
  163MOL0     H21953   5.810   9.515   2.663  1.2929  0.4755  0.8473
  163MOL0     H21954   5.874   9.692   2.899 -1.1138 -0.8427  0.4083
  163MOL0     H21955   5.857   9.524   2.941  1.0607 -4.2370 -2.6228
  163MOL0     H21956   6.030   9.328   2.776  0.1885  0.2794 -2.3501
  163MOL0     H21957   6.294   9.340   2.562  2.6294  1.4552 -1.4489
  163MOL0     H21958   6.403   9.409   2.669  1.4960 -3.7220  2.2492
  163MOL0     H21959   6.291   9.284   2.873  1.1521  0.0048  0.6655
  163MOL0     H21960   6.259   9.174   2.726 -0.8258  1.5197 -1.8576
  163MOL0     H21961   6.475   9.123   2.866  0.4016  0.0702  0.7961
  163MOL0     H21962   6.537   9.282   2.824  1.0498 -1.9247  3.4409
  163MOL0     H21963   6.641   9.113   2.707  0.0889  1.7582  0.9489
  163MOL0     H21964   6.565   9.221   2.600  2.2011  0.1597  0.2285
  163MOL0     H21965   6.349   8.816   2.531 -0.1842 -0.9452 -0.0968
  163MOL0     H21966   6.365   8.599   2.618  2.5835  0.2227 -2.6817
  163MOL0     H21967   6.257   8.243   2.689  0.2312  2.6752 -1.6593
  163MOL0     H21968   6.265   8.003   2.720 -0.4757 -0.5020 -1.8026
  163MOL0     H21969   6.539   7.777   2.562 -1.6149  0.0386 -0.5702
  163MOL0     H21970   6.660   7.778   2.695  1.0282  0.0777 -3.3600
  163MOL0     H21971   6.554   7.558   2.630  0.7463 -1.6757  1.1615
  163MOL0     H21972   6.551   7.594   2.802  0.0074  0.3542  0.0368
  163MOL0     H21973   6.314   7.656   2.811  0.4220 -0.0388  0.8894
  163MOL0     H21974   6.303   7.682   2.636  1.5192  1.9251  0.3604
  163MOL0     H21975   6.348   7.424   2.806 -3.0736 -0.4125  0.6309
  163MOL0     H21976   6.355   7.411   2.627  0.0368 -3.8781  2.0114
  163MOL0     H21977   6.132   7.545   2.631  1.7329  0.9058 -1.3207
  163MOL0     H21978   6.110   7.498   2.799  1.1912  2.0283 -1.1896
  163MOL0     H21979   6.164   7.276   2.602 -3.2041 -0.3484 -3.9737
  163MOL0     H21980   6.112   7.269   2.767 -0.3903 -0.0156 -0.0778
  163MOL0     H21981   5.934   7.372   2.531 -1.2565 -0.0608  0.5370
  163MOL0     H21982   5.900   7.409   2.688 -1.2970 -0.4519 -0.3150
  163MOL0     H21983   5.788   7.189   2.574 -0.7155  1.7405  0.0216
  163MOL0     H21984   5.959   7.124   2.593 -0.4037 -1.4046  1.5770
  163MOL0     H21985   6.690   8.019   2.697 -0.4846 -1.2220 -1.2435
  163MOL0     H21986   6.679   8.264   2.656 -2.6209  4.6285  0.6957
  163MOL0     H21987   6.641   8.704   2.920  0.0469 -1.0316  0.3907
  163MOL0     H21988   6.636   8.934   2.843  2.1164 -2.0471  0.7665
  163MOL0     H21989   4.716   9.268   2.722  0.6178  1.8758  1.1972
  163MOL0     H21990   4.511   9.199   2.582  0.4892 -0.8836  0.5243
  163MOL0     H21991   4.315   9.219   2.157  0.7566  0.1810  1.8385
  163MOL0     H21992   4.113   9.191   2.038  0.0518  1.2228 -1.0368
  163MOL0     H21993   3.913   9.165   1.934 -0.0776 -4.2359 -2.2681
  163MOL0     H21994   3.756   9.123   1.990  0.5936 -1.9183  0.5449
  163MOL0     H21995   3.889   8.970   2.172 -1.7357 -0.4203 -1.0338
  163MOL0     H21996   4.033   8.993   2.077  0.1711  0.1210 -0.1571
  163MOL0     H21997   3.808   8.920   1.894 -2.3201 -1.3788  1.3447
  163MOL0     H21998   3.816   8.820   2.035 -0.4849 -0.6395 -1.9802
  163MOL0     H21999   4.033   8.755   2.000  2.9210  1.6217 -0.4797
  163MOL0     H22000   3.941   8.733   1.839  0.6791 -0.4705 -0.8074
  163MOL0     H22001   4.309   8.900   1.760 -0.7697  0.1512 -1.3346
  163MOL0     H22002   3.881   9.348   2.376  0.4502 -1.6174  0.8515
  163MOL0     H22003   4.163   9.517   2.541  1.3276 -1.4574  0.2045
  163MOL0     H22004   4.006   9.454   2.558  0.3002  1.7356  0.8302
  163MOL0     H22005   4.133   9.339   2.581 -0.8617  0.3439  1.0317
  164MOL0     O22006   3.654   8.826   1.214 -0.0064 -0.6899  0.0271
  164MOL0     C22007   3.662   8.948   1.196  0.6905  0.1622 -0.5275
  164MOL0     O22008   3.768   9.021   1.234 -0.1094  0.2807 -0.7208
  164MOL0     C22009   3.875   8.953   1.294 -0.8607  0.3051  0.1123
  164MOL0     C22010   3.999   8.950   1.224 -0.4050 -0.3231  0.1535
  164MOL0     C22011   4.108   8.875   1.278 -0.6311  0.0299 -0.0056
  164MOL0     C22012   4.101   8.821   1.407 -0.3056  0.5500 -0.0962
  164MOL0     O22013   4.201   8.745   1.468 -0.0789 -0.9747  0.3118
  164MOL0     C22014   4.331   8.723   1.411  0.6872 -0.7856  0.2804
  164MOL0     C22015   4.420   8.640   1.496  1.0066  0.0659  0.0992
  164MOL0     C22016   4.360   8.522   1.566 -0.1224 -0.3609 -0.4538
  164MOL0     C22017   4.328   8.403   1.481 -0.1731  0.4721  0.0928
  164MOL0     C22018   4.265   8.289   1.561  0.1399 -0.3383 -0.2640
  164MOL0     C22019   4.264   8.154   1.489 -0.2542 -0.0403 -0.1096
  164MOL0     C22020   4.175   8.151   1.366 -0.2221 -0.3971  0.6832
  164MOL0     C22021   4.197   8.007   1.298 -0.0180 -0.3474 -0.3703
  164MOL0     N22022   4.134   8.024   1.167 -0.4998  0.2738  0.1928
  164MOL0     C22023   4.003   8.045   1.132 -0.5248 -0.3305 -0.9480
  164MOL0     C22024   4.008   8.079   1.000 -0.0297 -0.7834 -0.4049
  164MOL0     C22025   3.903   8.124   0.907 -0.4283  0.1638 -0.9355
  164MOL0     C22026   3.845   8.254   0.948  0.3456  0.2253 -0.4724
  164MOL0     C22027   3.939   8.366   0.897 -0.0656  0.2855 -0.4308
  164MOL0     C22028   3.920   8.405   0.749 -0.0523 -0.7275 -0.3290
  164MOL0     O22029   3.997   8.520   0.714 -0.0848 -0.0807 -1.1609
  164MOL0     C22030   4.128   8.514   0.666  0.4450 -0.9358  0.2937
  164MOL0     C22031   4.213   8.414   0.691 -0.5627  1.1452  0.1583
  164MOL0     C22032   4.345   8.426   0.648  0.5580 -0.2586 -0.4283
  164MOL0     C22033   4.396   8.535   0.578 -0.2353 -0.6515  0.3731
  164MOL0     C22034   4.537   8.536   0.519 -0.2093  0.6314 -0.4653
  164MOL0     O22035   4.570   8.661   0.497 -0.1992 -0.1341 -0.0933
  164MOL0     C22036   4.704   8.678   0.458 -0.9538 -0.9716 -0.1045
  164MOL0     C22037   4.736   8.691   0.324  0.1017 -0.5056  0.3177
  164MOL0     C22038   4.861   8.729   0.280 -0.2770 -0.0242  0.7044
  164MOL0     C22039   4.972   8.725   0.358  0.2189 -0.6715 -0.5358
  164MOL0     O22040   5.098   8.748   0.328 -0.2025 -0.1328  0.5083
  164MOL0     C22041   5.132   8.776   0.188  0.2643 -1.0939 -0.0244
  164MOL0     C22042   5.289   8.800   0.173 -0.3131  0.5608 -0.5412
  164MOL0     C22043   5.288   8.882   0.045  0.3743 -1.0601  0.3097
  164MOL0     C22044   5.428   8.943   0.030 -0.2960  0.3444  0.0006
  164MOL0     C22045   5.446   9.020  -0.106  0.7697 -0.2441 -0.8860
  164MOL0     C22046   5.585   9.040  -0.147 -0.6297 -0.1175  0.6996
  164MOL0     C22047   5.663   9.142  -0.066 -0.4955  0.1709  1.1943
  164MOL0     C22048   5.594   9.273  -0.035 -0.0896  0.1017 -0.1141
  164MOL0    Cl22049   5.504   9.328  -0.178 -0.0265 -0.3257 -0.0665
  164MOL0     C22050   4.946   8.698   0.493 -0.3246  0.4890 -0.2750
  164MOL0     C22051   4.812   8.674   0.544 -0.4498  0.2495  0.3132
  164MOL0     O22052   4.607   8.435   0.509 -0.1198  1.1656  0.4904
  164MOL0     C22053   4.304   8.645   0.562  0.7476 -0.5026  0.3272
  164MOL0     C22054   4.168   8.628   0.605 -0.2307  0.4606 -0.7478
  164MOL0     N22055   4.133   8.065   0.951  0.0884 -0.1322 -0.1971
  164MOL0     N22056   4.209   8.031   1.050  0.0761  0.6606  0.1643
  164MOL0     C22057   3.978   8.815   1.473  0.1407  0.3126 -0.0279
  164MOL0     C22058   3.867   8.880   1.414  0.1380 -0.1201  1.0072
  164MOL0     C22059   3.554   9.019   1.115  0.4534 -0.1818  0.5244
  164MOL0     C22060   3.430   8.949   1.083 -0.3069  0.1996 -0.3404
  164MOL0     C22061   3.324   8.997   1.001 -0.5777 -0.1149  0.3085
  164MOL0     C22062   3.335   9.122   0.947 -0.0322 -0.1574 -0.2322
  164MOL0     O22063   3.236   9.180   0.878 -0.7274  0.7037  0.0847
  164MOL0     C22064   3.096   9.158   0.907  0.1103 -0.2518  0.3136
  164MOL0     C22065   3.028   9.253   0.806  0.5612  0.6762  0.1866
  164MOL0     C22066   2.875   9.229   0.792  0.2004  0.4340 -0.5688
  164MOL0     C22067   2.827   9.070   0.767 -0.0870 -0.9484  0.1216
  164MOL0     C22068   2.899   9.010   0.654 -0.2719 -0.3245 -0.9605
  164MOL0     C22069   2.958   8.969   0.548  0.6606  0.4504 -0.7401
  164MOL0     C22070   3.454   9.194   0.978 -0.5856  0.3686  0.4036
  164MOL0     C22071   3.562   9.146   1.061  0.4443 -0.3094  0.1974
  164MOL0     C22072   3.674   9.243   1.083  0.0243  0.3008  0.5412
  164MOL0     H22073   3.999   9.014   1.136  1.7054  0.4006  0.6077
  164MOL0     H22074   4.205   8.870   1.230 -1.0124  1.7890 -1.0305
  164MOL0     H22075   4.317   8.667   1.317 -0.5911 -3.6779  2.0555
  164MOL0     H22076   4.392   8.811   1.388  1.6541 -1.3820  0.5019
  164MOL0     H22077   4.455   8.707   1.575  1.6247  1.1689 -1.0817
  164MOL0     H22078   4.511   8.608   1.445  0.9404 -1.0574  0.6454
  164MOL0     H22079   4.268   8.552   1.617  1.6430  0.9325  2.1959
  164MOL0     H22080   4.427   8.493   1.647  0.9854 -0.1757 -1.2716
  164MOL0     H22081   4.265   8.422   1.393 -1.2815 -3.1514 -0.0352
  164MOL0     H22082   4.422   8.376   1.431 -1.2372 -0.4559 -1.4833
  164MOL0     H22083   4.315   8.274   1.657  1.6604  0.9884 -0.8071
  164MOL0     H22084   4.163   8.328   1.571  0.8471  1.4709  0.3580
  164MOL0     H22085   4.370   8.133   1.467  0.1312  1.1267  0.5418
  164MOL0     H22086   4.229   8.077   1.558  0.9186  0.5371  1.1909
  164MOL0     H22087   4.209   8.232   1.301 -1.3566 -1.1499 -0.9237
  164MOL0     H22088   4.070   8.177   1.379 -0.3862 -0.0948 -0.9995
  164MOL0     H22089   4.305   7.994   1.285  0.4151  1.4338  1.1138
  164MOL0     H22090   4.152   7.930   1.362 -0.9716  2.1964  2.2715
  164MOL0     H22091   3.908   8.052   1.184 -1.1073  1.7786 -2.1707
  164MOL0     H22092   3.930   8.115   0.802 -2.5987 -1.0175 -1.4522
  164MOL0     H22093   3.825   8.049   0.918  0.5979 -1.0924 -1.9372
  164MOL0     H22094   3.752   8.271   0.893  1.5253  1.4262 -2.2222
  164MOL0     H22095   3.841   8.262   1.057 -0.4911  0.3058 -0.5045
  164MOL0     H22096   4.047   8.349   0.906  0.0068  0.1625 -1.4095
  164MOL0     H22097   3.910   8.462   0.942 -0.2658 -0.4108  0.9721
  164MOL0     H22098   3.813   8.422   0.734  0.4567  2.1731 -1.2526
  164MOL0     H22099   3.935   8.321   0.680 -0.0990 -0.6671 -0.4129
  164MOL0     H22100   4.188   8.324   0.747  1.0143  1.5153  1.5573
  164MOL0     H22101   4.416   8.347   0.671  0.5324 -0.6002 -1.4367
  164MOL0     H22102   4.648   8.688   0.261 -1.1221 -2.8560  1.9583
  164MOL0     H22103   4.875   8.751   0.175  1.4517 -0.9648  0.7017
  164MOL0     H22104   5.102   8.695   0.122  2.2432 -1.9945  0.1247
  164MOL0     H22105   5.076   8.868   0.169 -1.5342 -2.3257 -0.9407
  164MOL0     H22106   5.345   8.842   0.257  0.5279  0.7859 -1.2061
  164MOL0     H22107   5.332   8.701   0.158  0.7050  0.6927  1.1796
  164MOL0     H22108   5.261   8.824  -0.043 -1.4269  0.0351  0.0807
  164MOL0     H22109   5.223   8.970   0.051  0.7180 -0.7487 -0.4558
  164MOL0     H22110   5.502   8.862   0.032  0.8026  1.2678 -1.2997
  164MOL0     H22111   5.448   9.015   0.110  1.8099  2.3433 -2.1389
  164MOL0     H22112   5.395   9.116  -0.089  1.0885 -0.3444  0.7708
  164MOL0     H22113   5.402   8.965  -0.189  0.0311  1.2996 -1.5642
  164MOL0     H22114   5.639   8.945  -0.155  1.2711  0.9752 -0.2151
  164MOL0     H22115   5.594   9.092  -0.243 -0.2518 -2.9561 -0.8934
  164MOL0     H22116   5.748   9.174  -0.126 -0.2658 -2.5003 -0.0960
  164MOL0     H22117   5.705   9.096   0.024  1.0366  0.7943  0.8161
  164MOL0     H22118   5.516   9.258   0.041  0.4934 -0.3073  0.4079
  164MOL0     H22119   5.654   9.352   0.010  1.7914 -1.6308  0.5478
  164MOL0     H22120   5.033   8.678   0.555 -1.2933  0.5275  1.1398
  164MOL0     H22121   4.805   8.667   0.653 -0.3599  3.2779  0.5899
  164MOL0     H22122   4.319   8.745   0.524 -2.1922  0.5685  1.6412
  164MOL0     H22123   4.106   8.716   0.617 -1.8782 -0.3491 -2.7119
  164MOL0     H22124   3.963   8.749   1.558  1.2959  0.9688  0.7057
  164MOL0     H22125   3.774   8.847   1.459  1.3843 -3.2219  1.5946
  164MOL0     H22126   3.404   8.859   1.138 -1.9166 -0.3503 -1.9116
  164MOL0     H22127   3.232   8.940   0.984 -0.5377  0.3152 -1.5685
  164MOL0     H22128   3.069   9.200   1.004 -0.1328  0.9792 -0.2686
  164MOL0     H22129   3.073   9.051   0.900  0.9207 -0.4164 -0.0370
  164MOL0     H22130   3.070   9.229   0.708 -2.7560  2.6587 -1.9020
  164MOL0     H22131   3.050   9.360   0.812 -0.6549  1.0880 -1.8796
  164MOL0     H22132   2.832   9.286   0.709  1.7685  1.0581 -0.9841
  164MOL0     H22133   2.834   9.255   0.890  4.0196 -2.5835  2.1365
  164MOL0     H22134   2.842   9.014   0.860  0.4967 -0.3008  0.4265
  164MOL0     H22135   2.723   9.058   0.734 -0.8636  0.9404  1.6791
  164MOL0     H22136   3.007   8.946   0.455 -2.4093 -2.7926 -1.8187
  164MOL0     H22137   3.465   9.299   0.950  1.5291  0.2565  0.6326
  164MOL0     H22138   3.647   9.334   1.028 -1.3543 -0.8562 -0.8000
  164MOL0     H22139   3.677   9.284   1.184 -2.6679  0.3776  0.6535
  164MOL0     H22140   3.770   9.211   1.040 -0.4182 -0.9842  0.4737
  165MOL0     O22141   5.717   0.654   2.766 -0.5794 -0.4178 -0.5062
  165MOL0     C22142   5.812   0.660   2.692 -0.0556  0.0104 -0.1287
  165MOL0     O22143   5.826   0.770   2.609 -0.3033 -0.4586  0.3608
  165MOL0     C22144   5.710   0.837   2.580 -1.4601  0.0623 -1.1022
  165MOL0     C22145   5.688   0.972   2.605  0.5097  0.6113  0.1200
  165MOL0     C22146   5.559   1.018   2.573  0.1223  0.1857  0.0468
  165MOL0     C22147   5.456   0.933   2.516 -0.2702  0.6682 -0.1878
  165MOL0     O22148   5.330   0.976   2.478  0.9005  0.2660 -0.1112
  165MOL0     C22149   5.263   1.089   2.531 -0.0370 -0.3243  0.4336
  165MOL0     C22150   5.125   1.096   2.470  0.5069  0.5307 -1.0606
  165MOL0     C22151   5.126   1.116   2.314  0.5635 -0.4497 -0.7632
  165MOL0     C22152   4.987   1.131   2.258  0.5219 -0.0146 -0.9839
  165MOL0     C22153   4.984   1.209   2.132 -0.5354  0.1556  0.5374
  165MOL0     C22154   5.041   1.120   2.018 -0.0737 -0.2093  0.4849
  165MOL0     C22155   5.113   1.215   1.923 -0.5221 -0.2376  0.3176
  165MOL0     C22156   5.164   1.147   1.800  0.6383 -0.2325  0.4603
  165MOL0     N22157   5.049   1.122   1.713  0.3591 -0.0056  0.4019
  165MOL0     C22158   4.991   1.211   1.617 -0.1090  0.5354 -1.0294
  165MOL0     C22159   4.871   1.160   1.576  0.1139  1.0961  1.5236
  165MOL0     C22160   4.759   1.230   1.500 -0.1878 -0.2425  0.6416
  165MOL0     C22161   4.665   1.315   1.593  0.2517  0.7088 -0.5122
  165MOL0     C22162   4.575   1.404   1.516 -0.3938  0.4021 -0.8269
  165MOL0     C22163   4.484   1.486   1.612  0.0972  0.2223  0.1028
  165MOL0     O22164   4.557   1.575   1.695  0.2082 -0.0632  0.2977
  165MOL0     C22165   4.515   1.685   1.746 -0.6221  0.8474 -0.1495
  165MOL0     C22166   4.602   1.792   1.770  0.2388 -1.3903  0.3262
  165MOL0     C22167   4.563   1.917   1.823 -0.1924  0.3104  0.5610
  165MOL0     C22168   4.431   1.941   1.849 -0.4901 -0.7430 -0.1729
  165MOL0     C22169   4.386   2.070   1.903  0.6929 -0.2380 -1.1577
  165MOL0     O22170   4.479   2.135   1.978  0.2457  0.1907 -0.7580
  165MOL0     C22171   4.466   2.264   2.001  0.0971 -0.2466  0.2798
  165MOL0     C22172   4.445   2.312   2.128 -0.2246 -0.0936 -0.4140
  165MOL0     C22173   4.442   2.447   2.156 -0.3985 -0.0446  0.1702
  165MOL0     C22174   4.473   2.542   2.051 -0.4179  0.1258 -1.2891
  165MOL0     O22175   4.475   2.680   2.069  0.7924 -0.7106 -0.7928
  165MOL0     C22176   4.524   2.747   2.189 -0.2424  0.2426  0.6080
  165MOL0     C22177   4.654   2.689   2.249 -0.4641 -0.7295 -0.5531
  165MOL0     C22178   4.774   2.670   2.148 -0.7933 -0.6249 -0.3013
  165MOL0     C22179   4.896   2.594   2.205 -0.0969  0.3391 -0.1562
  165MOL0     C22180   4.998   2.569   2.098 -0.0131 -0.2901  0.5961
  165MOL0     C22181   4.928   2.474   2.005 -0.2388 -0.0836 -0.1013
  165MOL0     C22182   5.021   2.403   1.905 -0.3452 -0.9333  0.2679
  165MOL0     C22183   4.938   2.337   1.798  0.7573  0.1190  0.1856
  165MOL0    Cl22184   4.822   2.223   1.857 -0.4451 -0.2176 -0.4756
  165MOL0     C22185   4.486   2.496   1.922  0.1507  0.7847  0.4751
  165MOL0     C22186   4.483   2.350   1.891  0.3643  0.8020  0.5783
  165MOL0     O22187   4.266   2.109   1.890  0.3623  1.1988 -0.7810
  165MOL0     C22188   4.336   1.837   1.821  0.1658  0.1280  0.8438
  165MOL0     C22189   4.381   1.709   1.770  0.1696 -0.0466 -0.4104
  165MOL0     N22190   4.861   1.037   1.641 -0.7032  0.0113  0.1855
  165MOL0     N22191   4.970   1.007   1.698  0.5452 -0.3978  0.6764
  165MOL0     C22192   5.485   0.803   2.489  0.3232 -0.3855 -0.6587
  165MOL0     C22193   5.613   0.757   2.509 -0.4086 -0.0578 -0.1230
  165MOL0     C22194   5.922   0.573   2.703  0.2480 -0.2854 -0.4859
  165MOL0     C22195   5.989   0.531   2.583 -0.7229 -0.1849  0.1819
  165MOL0     C22196   6.091   0.443   2.595 -0.7098 -0.6200 -0.8306
  165MOL0     C22197   6.119   0.374   2.719 -0.5513  0.2480  0.5652
  165MOL0     O22198   6.201   0.261   2.724 -0.6169  0.2886 -0.3181
  165MOL0     C22199   6.301   0.236   2.618 -0.4586  0.2564  0.1813
  165MOL0     C22200   6.419   0.337   2.631 -1.8556  0.1156 -0.5301
  165MOL0     C22201   6.547   0.290   2.566  0.8480 -0.0713 -0.3550
  165MOL0     C22202   6.541   0.254   2.421 -0.9361  0.2216 -0.2551
  165MOL0     C22203   6.664   0.227   2.355  0.5626  1.0033  0.7116
  165MOL0     C22204   6.764   0.206   2.295 -0.6056 -0.5024 -0.1491
  165MOL0     C22205   6.074   0.420   2.835  0.1428  0.2802 -0.3057
  165MOL0     C22206   5.967   0.513   2.822 -1.0047 -0.4479  0.3816
  165MOL0     C22207   5.916   0.542   2.961  0.3157  1.0119  0.0364
  165MOL0     H22208   5.759   1.032   2.660  1.8870 -0.4283 -0.4405
  165MOL0     H22209   5.526   1.119   2.592  0.1669  0.5274 -1.5237
  165MOL0     H22210   5.263   1.084   2.640 -1.1215  0.6648  0.5003
  165MOL0     H22211   5.302   1.189   2.508 -3.1831  0.9323 -0.0416
  165MOL0     H22212   5.068   1.173   2.522  0.2331  2.2604 -3.7217
  165MOL0     H22213   5.068   1.005   2.487 -0.2832  0.8160 -2.0971
  165MOL0     H22214   5.183   1.030   2.278  3.6771 -0.5918  3.7594
  165MOL0     H22215   5.180   1.208   2.291  0.1226 -0.5448 -2.3444
  165MOL0     H22216   4.938   1.036   2.233 -2.9231  1.0344  1.1241
  165MOL0     H22217   4.937   1.186   2.337  2.6835 -0.3231  0.6972
  165MOL0     H22218   4.882   1.235   2.103 -1.0956 -1.3290  1.0669
  165MOL0     H22219   5.036   1.304   2.145  0.0498  0.5361 -3.3753
  165MOL0     H22220   5.108   1.040   2.050  0.7919  0.8328  1.2941
  165MOL0     H22221   4.959   1.068   1.966  1.9189 -2.3855 -0.6994
  165MOL0     H22222   5.192   1.272   1.974  0.7496  0.5009 -2.3171
  165MOL0     H22223   5.045   1.290   1.881 -0.4523  1.1853  2.5797
  165MOL0     H22224   5.235   1.200   1.736  3.0467 -1.4654  1.9734
  165MOL0     H22225   5.217   1.057   1.831  1.2585 -0.2609 -0.6600
  165MOL0     H22226   5.037   1.306   1.591 -0.2064  0.4855 -1.3954
  165MOL0     H22227   4.815   1.280   1.420  1.8250 -4.1630 -0.6630
  165MOL0     H22228   4.693   1.159   1.449  0.9661  0.3632 -1.8356
  165MOL0     H22229   4.616   1.251   1.667  0.5334 -0.2262 -1.1142
  165MOL0     H22230   4.730   1.377   1.656  2.2829 -0.3221 -1.4718
  165MOL0     H22231   4.513   1.342   1.451  0.9191  0.3568 -2.0666
  165MOL0     H22232   4.636   1.478   1.464  1.3054  0.5272  1.2027
  165MOL0     H22233   4.434   1.416   1.680 -0.0354  1.8044  1.6972
  165MOL0     H22234   4.397   1.525   1.558  0.3862 -0.0990 -0.6100
  165MOL0     H22235   4.706   1.768   1.750  1.1251  0.4682  2.3290
  165MOL0     H22236   4.643   1.989   1.836  1.2667 -1.3360  1.0475
  165MOL0     H22237   4.433   2.246   2.213  0.5050  2.2263  1.6394
  165MOL0     H22238   4.426   2.493   2.253 -1.9601 -1.9302  0.8633
  165MOL0     H22239   4.551   2.846   2.152 -3.9014  1.4957  0.9373
  165MOL0     H22240   4.436   2.756   2.253 -0.5564 -2.3789  0.6513
  165MOL0     H22241   4.679   2.764   2.324 -1.2572 -1.0897  0.0941
  165MOL0     H22242   4.643   2.598   2.309  2.1832  0.2998  1.7320
  165MOL0     H22243   4.722   2.628   2.061  2.0780 -3.4258 -0.8412
  165MOL0     H22244   4.801   2.771   2.119 -2.0470  0.7800  2.9726
  165MOL0     H22245   4.857   2.498   2.242 -1.8920  0.8375 -0.6201
  165MOL0     H22246   4.945   2.652   2.283 -0.7115  0.4130  0.1830
  165MOL0     H22247   5.097   2.536   2.129  1.2777  0.5387 -2.2802
  165MOL0     H22248   5.006   2.658   2.035  1.1722  0.6541  2.0299
  165MOL0     H22249   4.877   2.397   2.064 -3.3581  1.9594  0.0781
  165MOL0     H22250   4.854   2.523   1.941 -1.5839 -1.5417  0.2791
  165MOL0     H22251   5.065   2.319   1.959  1.8932 -0.8365 -1.2813
  165MOL0     H22252   5.090   2.475   1.859 -3.2482  4.6689  3.4894
  165MOL0     H22253   4.875   2.394   1.729 -1.8568 -2.7253  0.0460
  165MOL0     H22254   5.008   2.279   1.737  1.2979  1.2023 -0.2554
  165MOL0     H22255   4.501   2.570   1.844  0.0317  2.1722  1.7320
  165MOL0     H22256   4.499   2.303   1.795  0.2241 -1.9538  1.8216
  165MOL0     H22257   4.230   1.854   1.838 -1.1016 -3.3857 -2.2989
  165MOL0     H22258   4.301   1.642   1.738  0.6233  1.4498 -5.5297
  165MOL0     H22259   5.404   0.742   2.448  0.7578 -1.8531  0.5690
  165MOL0     H22260   5.641   0.657   2.478 -4.6003 -1.0079 -1.5376
  165MOL0     H22261   5.952   0.557   2.485  2.2650 -1.3937 -1.4061
  165MOL0     H22262   6.135   0.421   2.498  0.1321  2.8407 -1.3490
  165MOL0     H22263   6.242   0.236   2.526 -1.1747 -4.3955  0.3625
  165MOL0     H22264   6.339   0.134   2.631 -1.0646  0.2569  2.2649
  165MOL0     H22265   6.458   0.347   2.733  0.9201  2.3192 -1.6686
  165MOL0     H22266   6.405   0.440   2.598 -0.1625  0.9408  1.1233
  165MOL0     H22267   6.593   0.203   2.613 -0.7098 -2.3440 -2.7528
  165MOL0     H22268   6.627   0.365   2.572  0.2982  0.4751  0.3225
  165MOL0     H22269   6.489   0.158   2.416 -0.5293  0.0602 -2.3608
  165MOL0     H22270   6.481   0.328   2.366 -0.9671 -0.4143 -1.0974
  165MOL0     H22271   6.853   0.187   2.238  0.1313 -0.1364  0.8513
  165MOL0     H22272   6.101   0.367   2.926  1.2105  0.6040 -0.4259
  165MOL0     H22273   5.901   0.650   2.970  2.1644  1.3034  0.0885
  165MOL0     H22274   5.816   0.503   2.984  0.3940  0.7688 -0.0306
  165MOL0     H22275   5.991   0.519   3.038 -0.9307  1.1460  1.3504
  166MOL0     O22276   0.896   5.825   9.068 -0.4926  0.8013 -0.4204
  166MOL0     C22277   0.925   5.708   9.097  0.1350 -0.0027  0.1501
  166MOL0     O22278   0.845   5.620   9.148  0.7247 -0.2518 -0.5580
  166MOL0     C22279   0.720   5.670   9.195  0.2596  0.4636  0.1720
  166MOL0     C22280   0.699   5.678   9.332  0.8004  1.0639 -0.2981
  166MOL0     C22281   0.580   5.728   9.381  0.8101 -0.6080 -0.7827
  166MOL0     C22282   0.475   5.774   9.296  0.9596 -0.9436 -0.2707
  166MOL0     O22283   0.364   5.816   9.361  0.0005 -0.1529  0.2199
  166MOL0     C22284   0.256   5.879   9.296 -0.3914  0.4452 -0.6866
  166MOL0     C22285   0.143   5.908   9.391  0.4855  0.4128  0.0297
  166MOL0     C22286   0.176   6.012   9.500  0.0447 -0.0985  0.0065
  166MOL0     C22287   0.266   5.960   9.604  0.2871 -0.2630  0.3186
  166MOL0     C22288   0.259   6.039   9.733 -0.6817 -0.4940  1.1798
  166MOL0     C22289   0.348   5.977   9.847  1.0199 -0.4382  0.1323
  166MOL0     C22290   0.318   6.024   9.992 -0.0695 -0.0945  0.3254
  166MOL0     C22291   0.410   5.957  10.088  0.2987 -0.4614 -0.2993
  166MOL0     N22292   0.387   6.003  10.227  0.5685 -0.6926  0.5789
  166MOL0     C22293   0.449   6.110  10.289  0.1035  0.2313 -0.1474
  166MOL0     C22294   0.398   6.113  10.418  1.2948  0.1903 -0.7093
  166MOL0     C22295   0.408   6.211  10.534 -0.7743  0.6077  0.9119
  166MOL0     C22296   0.298   6.311  10.530  0.6479 -0.6593  1.1941
  166MOL0     C22297   0.338   6.448  10.565  0.6456  0.5369 -0.8476
  166MOL0     C22298   0.207   6.521  10.614 -0.4014 -0.3017 -0.3291
  166MOL0     O22299   0.269   6.649  10.650 -0.8198  0.0902  0.0997
  166MOL0     C22300   0.192   6.744  10.701 -0.0941 -0.5606  0.6360
  166MOL0     C22301   0.046   6.739  10.708  0.2575 -0.9097 -0.7427
  166MOL0     C22302  -0.030   6.856  10.738 -0.6955  0.0488  0.2021
  166MOL0     C22303   0.035   6.980  10.763  1.1156  0.1434  0.8720
  166MOL0     C22304  -0.052   7.094  10.803 -0.1152  0.0553  0.3778
  166MOL0     O22305  -0.173   7.056  10.852  0.2519 -0.6972 -0.4412
  166MOL0     C22306  -0.271   7.151  10.881 -0.4025 -0.7629  0.5302
  166MOL0     C22307  -0.321   7.127  11.003  0.0394 -0.4924  0.1424
  166MOL0     C22308  -0.430   7.197  11.051  0.4657 -0.0255  0.0367
  166MOL0     C22309  -0.480   7.306  10.974 -0.0159  0.4116 -0.1855
  166MOL0     O22310  -0.585   7.384  11.023  0.7897 -0.4317  0.3710
  166MOL0     C22311  -0.577   7.436  11.160 -0.8092 -0.6843 -0.8781
  166MOL0     C22312  -0.704   7.430  11.247  0.4106  0.0684 -1.0098
  166MOL0     C22313  -0.807   7.536  11.189  1.1949 -0.3063 -0.5220
  166MOL0     C22314  -0.941   7.536  11.260 -0.0896  0.0123 -0.5926
  166MOL0     C22315  -0.928   7.559  11.412  0.0854 -0.2110 -0.0920
  166MOL0     C22316  -1.070   7.589  11.456 -0.2393 -0.2680  0.1541
  166MOL0     C22317  -1.108   7.744  11.453 -0.7942  0.1393 -0.6947
  166MOL0     C22318  -1.189   7.772  11.578  0.0898  0.5327  0.0935
  166MOL0    Cl22319  -1.256   7.939  11.562 -0.4573 -0.2329 -0.1948
  166MOL0     C22320  -0.423   7.331  10.846  0.7906  0.0963 -0.0929
  166MOL0     C22321  -0.318   7.258  10.805  1.0861  0.1104  0.5243
  166MOL0     O22322  -0.007   7.209  10.790  0.6248  0.2774 -0.3045
  166MOL0     C22323   0.170   6.987  10.765  0.0546 -0.0246 -0.5892
  166MOL0     C22324   0.246   6.874  10.731 -0.0036  0.2863  0.2146
  166MOL0     N22325   0.314   6.006  10.430  0.2351  0.2046  0.4795
  166MOL0     N22326   0.323   5.933  10.323  0.0865  0.0910  0.0184
  166MOL0     C22327   0.488   5.753   9.155  0.0047  0.6162  0.0335
  166MOL0     C22328   0.609   5.696   9.105 -0.6187  0.4017 -0.2193
  166MOL0     C22329   1.064   5.658   9.068 -1.3450  0.0701 -0.4910
  166MOL0     C22330   1.132   5.562   9.150 -0.1444 -0.5010  0.4707
  166MOL0     C22331   1.252   5.500   9.125  0.5947 -0.6117  0.9358
  166MOL0     C22332   1.312   5.539   9.002 -0.3954  0.6474 -0.3815
  166MOL0     O22333   1.427   5.487   8.967  1.0742 -0.1229  0.2967
  166MOL0     C22334   1.502   5.416   9.072  0.6086  1.0907 -1.1544
  166MOL0     C22335   1.651   5.404   9.040 -0.7402  0.7126  0.7027
  166MOL0     C22336   1.701   5.339   8.904 -0.2406  0.2203 -0.3515
  166MOL0     C22337   1.614   5.221   8.862  0.2192 -0.1178 -0.5215
  166MOL0     C22338   1.635   5.098   8.938 -0.0231 -0.5952 -0.4059
  166MOL0     C22339   1.649   4.995   9.003  0.1917 -0.9065  0.6513
  166MOL0     C22340   1.261   5.641   8.924  1.1893  0.4117  0.0272
  166MOL0     C22341   1.132   5.699   8.959  0.4353 -1.0454  1.0167
  166MOL0     C22342   1.075   5.798   8.846 -0.1095 -0.4414  0.0567
  166MOL0     H22343   0.766   5.631   9.403 -2.4936 -2.3719  0.9133
  166MOL0     H22344   0.574   5.739   9.489  1.2873 -0.2869 -0.7868
  166MOL0     H22345   0.277   5.977   9.251 -3.4109  0.3848 -2.5238
  166MOL0     H22346   0.216   5.800   9.233  0.2284 -2.0753  1.8868
  166MOL0     H22347   0.103   5.815   9.430  1.2134  0.3950  0.7636
  166MOL0     H22348   0.064   5.951   9.329 -1.8632 -0.2560  2.4137
  166MOL0     H22349   0.095   6.061   9.553  1.0978 -1.2017  2.8400
  166MOL0     H22350   0.220   6.100   9.450 -3.1928  1.4931 -0.2679
  166MOL0     H22351   0.254   5.854   9.628  1.9094 -0.2011  1.6503
  166MOL0     H22352   0.364   5.967   9.555  0.4274 -1.1230  0.4503
  166MOL0     H22353   0.302   6.137   9.711 -0.1862 -1.3693 -2.5360
  166MOL0     H22354   0.158   6.065   9.765 -0.3931  1.1203  0.8915
  166MOL0     H22355   0.337   5.869   9.835 -2.4062 -0.6029  3.0942
  166MOL0     H22356   0.454   5.996   9.828  1.0538 -1.4902 -0.8478
  166MOL0     H22357   0.215   6.017  10.029  0.7161 -2.4414  2.4144
  166MOL0     H22358   0.352   6.127   9.983  0.5472 -0.4162 -1.5982
  166MOL0     H22359   0.385   5.850  10.086  0.5600 -0.5424 -3.2274
  166MOL0     H22360   0.512   5.966  10.048 -0.4031 -3.1371 -3.0887
  166MOL0     H22361   0.533   6.168  10.253  2.1904 -0.4175  3.2184
  166MOL0     H22362   0.400   6.170  10.635 -1.1231  2.6726  1.7581
  166MOL0     H22363   0.508   6.255  10.528 -0.5961  0.2300  1.0629
  166MOL0     H22364   0.245   6.314  10.435 -0.4369 -0.6279  1.7888
  166MOL0     H22365   0.218   6.289  10.602  2.3334 -1.2059  2.9926
  166MOL0     H22366   0.391   6.490  10.479  0.5272 -3.0989 -2.9489
  166MOL0     H22367   0.411   6.435  10.645 -2.0608 -0.2948  1.6303
  166MOL0     H22368   0.163   6.484  10.707  2.0669 -0.8177  0.6944
  166MOL0     H22369   0.127   6.526  10.539  0.4271  0.3192 -1.1840
  166MOL0     H22370  -0.008   6.647  10.688  0.2221 -0.8557 -0.9017
  166MOL0     H22371  -0.138   6.842  10.746 -1.0921  2.7727  0.8520
  166MOL0     H22372  -0.262   7.066  11.071 -0.9937 -0.7002  0.8826
  166MOL0     H22373  -0.456   7.168  11.152  0.6449 -0.6595 -0.0901
  166MOL0     H22374  -0.499   7.392  11.222  0.1641  1.0449 -0.8116
  166MOL0     H22375  -0.552   7.543  11.157  0.9311 -1.0723 -2.8273
  166MOL0     H22376  -0.752   7.331  11.247  2.9299 -1.2793  1.5984
  166MOL0     H22377  -0.675   7.448  11.350  0.1894 -0.0060 -0.9331
  166MOL0     H22378  -0.762   7.633  11.214 -0.1953 -0.1359  1.6093
  166MOL0     H22379  -0.844   7.531  11.086 -0.9486  0.6560  0.1451
  166MOL0     H22380  -0.988   7.438  11.254  0.2877 -0.8051  4.6737
  166MOL0     H22381  -0.999   7.616  11.214 -2.5641 -1.6652 -0.5783
  166MOL0     H22382  -0.857   7.640  11.430 -1.3301  1.2006 -0.6253
  166MOL0     H22383  -0.893   7.469  11.463  0.7191 -0.0805 -0.2840
  166MOL0     H22384  -1.138   7.529  11.395 -0.3757  0.3822 -0.3500
  166MOL0     H22385  -1.074   7.561  11.562 -0.9704 -2.8450 -0.4780
  166MOL0     H22386  -1.171   7.754  11.364 -1.0321 -0.7733 -0.6457
  166MOL0     H22387  -1.026   7.816  11.450 -0.3416 -0.3731 -0.6345
  166MOL0     H22388  -1.273   7.703  11.579 -1.4262  2.2407 -1.7345
  166MOL0     H22389  -1.137   7.740  11.669 -0.0377 -1.1948 -0.4077
  166MOL0     H22390  -0.461   7.410  10.783  1.1108  0.3455  0.0233
  166MOL0     H22391  -0.264   7.284  10.715  0.2761 -2.0357 -0.6603
  166MOL0     H22392   0.217   7.085  10.770 -1.5206  0.9682 -3.3324
  166MOL0     H22393   0.354   6.880  10.725 -0.1392  2.3574 -5.0684
  166MOL0     H22394   0.416   5.790   9.083 -1.8360 -0.8988  0.9991
  166MOL0     H22395   0.627   5.686   8.998  0.9749 -1.6659  0.1683
  166MOL0     H22396   1.086   5.528   9.242 -0.5241  0.5805  0.6949
  166MOL0     H22397   1.296   5.423   9.188  0.2206 -0.1740  1.7578
  166MOL0     H22398   1.457   5.318   9.091  0.3085  1.4641  0.2142
  166MOL0     H22399   1.491   5.460   9.172  1.6625  2.9125 -1.7930
  166MOL0     H22400   1.688   5.342   9.122  1.0806  0.3759 -0.3330
  166MOL0     H22401   1.688   5.508   9.037  0.1356  0.3869 -1.3531
  166MOL0     H22402   1.804   5.305   8.917 -0.5750 -0.0402  2.1868
  166MOL0     H22403   1.692   5.411   8.822 -1.5190 -0.6079 -0.9809
  166MOL0     H22404   1.513   5.261   8.862 -1.6248 -4.2600 -0.1898
  166MOL0     H22405   1.643   5.194   8.760  2.2113 -1.0963  0.2484
  166MOL0     H22406   1.662   4.910   9.066  0.9179 -0.3178  1.3239
  166MOL0     H22407   1.312   5.654   8.830  0.0385 -0.6842 -0.7704
  166MOL0     H22408   0.968   5.782   8.827 -0.1357 -2.9836  1.8159
  166MOL0     H22409   1.097   5.901   8.874  0.4654 -0.3505 -0.7082
  166MOL0     H22410   1.126   5.792   8.749  2.0275 -2.7855  1.2168
  167MOL0     O22411   0.833   3.454   0.189 -0.3910  0.4660 -0.1828
  167MOL0     C22412   0.783   3.531   0.113 -0.4492 -0.4440 -0.8692
  167MOL0     O22413   0.714   3.645   0.144  0.2514 -0.0947 -0.0456
  167MOL0     C22414   0.683   3.673   0.274 -0.0943  0.8100 -0.1576
  167MOL0     C22415   0.631   3.575   0.368 -0.1619 -0.1117  0.2317
  167MOL0     C22416   0.585   3.622   0.482  0.2310  0.1144  0.2922
  167MOL0     C22417   0.619   3.749   0.534  0.6276 -0.4596 -0.2038
  167MOL0     O22418   0.574   3.787   0.659  0.0146  1.1959 -0.3899
  167MOL0     C22419   0.629   3.889   0.731 -0.5341  0.2454 -0.5678
  167MOL0     C22420   0.561   3.893   0.874 -0.5103 -0.1590  0.1833
  167MOL0     C22421   0.630   4.000   0.961  0.1331  0.3797 -0.2264
  167MOL0     C22422   0.560   3.995   1.098 -0.4047  0.0171 -0.2715
  167MOL0     C22423   0.617   3.893   1.204 -0.8419  0.0099 -0.1613
  167MOL0     C22424   0.763   3.925   1.250  0.4842 -0.0305  0.6444
  167MOL0     C22425   0.775   3.885   1.397  0.2852 -0.2847  0.1274
  167MOL0     C22426   0.912   3.902   1.461  0.9777  0.4865  0.0787
  167MOL0     N22427   0.936   3.824   1.587  0.1246 -0.6214  0.3291
  167MOL0     C22428   0.870   3.851   1.704 -0.6449  0.1818 -0.5766
  167MOL0     C22429   0.896   3.740   1.785  0.4113 -0.2221  0.1120
  167MOL0     C22430   0.823   3.696   1.908  0.1361  0.1337  0.6867
  167MOL0     C22431   0.683   3.644   1.879 -0.7259 -0.0406 -0.4868
  167MOL0     C22432   0.700   3.510   1.815  0.3404 -0.0690  0.4823
  167MOL0     C22433   0.580   3.441   1.758  0.3857  0.1990 -0.3202
  167MOL0     O22434   0.486   3.528   1.702  0.0041 -0.7631 -0.4595
  167MOL0     C22435   0.466   3.548   1.566 -0.2648 -0.6666  0.1998
  167MOL0     C22436   0.461   3.447   1.477 -0.2831 -0.4996  0.2949
  167MOL0     C22437   0.430   3.462   1.341  0.2247 -0.5762 -0.7667
  167MOL0     C22438   0.402   3.596   1.300  0.5870  0.9240 -0.0857
  167MOL0     C22439   0.357   3.622   1.163  0.0354  0.7865  0.7457
  167MOL0     O22440   0.367   3.515   1.089  0.0916 -0.4205  0.3315
  167MOL0     C22441   0.340   3.503   0.956  0.1538 -0.5052 -0.5787
  167MOL0     C22442   0.331   3.605   0.857 -0.8987  0.1762 -0.0558
  167MOL0     C22443   0.288   3.582   0.732 -0.3206  0.4176  0.0852
  167MOL0     C22444   0.274   3.451   0.690  0.1097  0.8940 -0.2236
  167MOL0     O22445   0.255   3.410   0.555  1.2024  0.1426  0.5907
  167MOL0     C22446   0.246   3.508   0.451 -0.4427  0.0212  0.1135
  167MOL0     C22447   0.103   3.568   0.433 -0.2088 -0.1661 -0.3020
  167MOL0     C22448   0.007   3.465   0.378  0.7783  0.2415  0.0700
  167MOL0     C22449   0.032   3.402   0.235  0.3819 -0.6784 -0.4167
  167MOL0     C22450  -0.072   3.294   0.211  0.0429 -0.4785  1.0009
  167MOL0     C22451  -0.076   3.232   0.072 -0.0321 -0.1794  0.2189
  167MOL0     C22452  -0.115   3.082   0.055 -0.5017 -1.0064 -0.2428
  167MOL0     C22453  -0.080   3.036  -0.083 -0.4133  0.0689  0.1556
  167MOL0    Cl22454   0.097   3.016  -0.129  0.1566  0.3780 -0.0213
  167MOL0     C22455   0.276   3.346   0.785 -0.9227  0.1110  0.0109
  167MOL0     C22456   0.328   3.367   0.918 -0.1191  0.8722 -0.2711
  167MOL0     O22457   0.295   3.726   1.138 -0.1077 -0.1679  0.4671
  167MOL0     C22458   0.408   3.707   1.396  0.9899  0.4600 -0.1265
  167MOL0     C22459   0.432   3.679   1.528  0.0306 -0.3212  0.8200
  167MOL0     N22460   0.987   3.664   1.722 -0.3264 -0.1772  0.5284
  167MOL0     N22461   1.013   3.712   1.605 -0.0137 -0.0119 -0.0908
  167MOL0     C22462   0.690   3.844   0.444  1.0030  0.6465 -0.6902
  167MOL0     C22463   0.713   3.801   0.317 -0.2067  0.0221 -0.7171
  167MOL0     C22464   0.790   3.495  -0.036 -0.1258  0.4651  0.1425
  167MOL0     C22465   0.720   3.577  -0.130  0.0507  0.5116  0.8076
  167MOL0     C22466   0.724   3.551  -0.271  0.2061 -0.0865 -0.6202
  167MOL0     C22467   0.792   3.444  -0.324 -1.1504  0.6570 -0.1109
  167MOL0     O22468   0.800   3.430  -0.461 -0.2537 -0.2356 -0.0540
  167MOL0     C22469   0.841   3.306  -0.516  0.4529  0.6302 -0.1193
  167MOL0     C22470   0.815   3.300  -0.660 -0.1900  0.4198 -0.7446
  167MOL0     C22471   0.882   3.186  -0.738 -1.0373 -0.4681 -0.2393
  167MOL0     C22472   0.854   3.196  -0.882  0.5564  0.0612 -0.5749
  167MOL0     C22473   0.926   3.311  -0.936  0.3058  0.3930 -0.6194
  167MOL0     C22474   0.982   3.407  -0.992  0.1391  0.5455 -0.8433
  167MOL0     C22475   0.864   3.361  -0.232 -0.2500  0.0674 -0.0310
  167MOL0     C22476   0.871   3.388  -0.089  0.4727 -0.6745  0.9933
  167MOL0     C22477   0.972   3.301  -0.014  0.2137 -0.0626  0.1788
  167MOL0     H22478   0.610   3.476   0.329  1.0946 -1.2067  2.1487
  167MOL0     H22479   0.526   3.559   0.548 -0.6125  1.3265  0.7485
  167MOL0     H22480   0.736   3.869   0.748 -0.3324  2.3247  1.1087
  167MOL0     H22481   0.627   3.986   0.681 -1.8552  1.1712  1.1388
  167MOL0     H22482   0.580   3.795   0.918 -1.2588 -0.3268  0.1296
  167MOL0     H22483   0.454   3.911   0.859 -0.3292 -1.0921 -3.0031
  167MOL0     H22484   0.623   4.100   0.918  0.2992  0.6139  0.2874
  167MOL0     H22485   0.735   3.975   0.974  0.3058 -1.6284 -4.0513
  167MOL0     H22486   0.580   4.093   1.141 -0.7743  0.4845 -1.1479
  167MOL0     H22487   0.452   3.980   1.090 -0.2053 -4.1079  1.9088
  167MOL0     H22488   0.558   3.910   1.294 -0.3155  1.8872 -0.1270
  167MOL0     H22489   0.613   3.789   1.169 -0.6802  0.3810 -1.3347
  167MOL0     H22490   0.840   3.873   1.193 -2.1247 -1.2672 -2.0640
  167MOL0     H22491   0.790   4.031   1.248 -0.2048  0.1859 -2.0852
  167MOL0     H22492   0.757   3.779   1.415 -0.9201 -0.1586 -0.2635
  167MOL0     H22493   0.698   3.938   1.455  1.3102  0.4985  0.8233
  167MOL0     H22494   0.980   3.854   1.390  0.7959 -0.2149  0.3725
  167MOL0     H22495   0.929   4.010   1.474 -1.7133  0.8355  1.5016
  167MOL0     H22496   0.808   3.938   1.722  3.1214  2.8240  1.1949
  167MOL0     H22497   0.886   3.616   1.948 -2.6987 -1.6514  1.8304
  167MOL0     H22498   0.830   3.781   1.977  1.7113  2.0060 -1.5499
  167MOL0     H22499   0.650   3.635   1.983  3.3007  0.7369  1.0855
  167MOL0     H22500   0.629   3.724   1.829 -0.2537  2.2677  2.3904
  167MOL0     H22501   0.745   3.445   1.890  0.8026  0.6814  0.8705
  167MOL0     H22502   0.769   3.518   1.730  2.9878 -1.2996  2.3743
  167MOL0     H22503   0.523   3.374   1.823  1.9246 -0.4565  0.3826
  167MOL0     H22504   0.618   3.369   1.685 -3.4444 -0.2911 -2.1181
  167MOL0     H22505   0.492   3.348   1.510 -0.1950  0.0303  1.9097
  167MOL0     H22506   0.441   3.383   1.268 -0.0985 -0.7722 -0.6029
  167MOL0     H22507   0.359   3.708   0.877 -0.9011  0.2678 -0.5069
  167MOL0     H22508   0.282   3.669   0.667 -0.7731  1.7151  1.7882
  167MOL0     H22509   0.321   3.587   0.460  0.0950 -0.3822 -0.6990
  167MOL0     H22510   0.290   3.461   0.362  3.6461 -1.2912  2.5386
  167MOL0     H22511   0.062   3.605   0.528 -0.1957  2.6755 -1.2882
  167MOL0     H22512   0.112   3.655   0.367  1.0774  0.6419  0.8767
  167MOL0     H22513  -0.005   3.378   0.442 -2.1816  0.6685  0.2128
  167MOL0     H22514  -0.091   3.513   0.389  0.3235 -0.8654  0.9939
  167MOL0     H22515   0.133   3.361   0.233 -0.0747 -3.0870  5.1898
  167MOL0     H22516   0.022   3.485   0.164 -3.1235 -0.7916 -0.2704
  167MOL0     H22517  -0.165   3.353   0.213  1.2741  1.6226 -0.3613
  167MOL0     H22518  -0.083   3.216   0.287  0.4383 -3.2411 -1.6132
  167MOL0     H22519  -0.135   3.298   0.006  1.9005 -0.3613 -1.8198
  167MOL0     H22520   0.029   3.241   0.044  0.2339 -3.7493 -0.3966
  167MOL0     H22521  -0.220   3.057   0.071 -0.9017  0.8966  0.4198
  167MOL0     H22522  -0.062   3.035   0.138 -0.2100 -0.6372 -0.2184
  167MOL0     H22523  -0.124   2.936  -0.077 -2.1863  0.8333  0.4385
  167MOL0     H22524  -0.131   3.099  -0.156  1.7126 -1.0702 -2.4601
  167MOL0     H22525   0.268   3.246   0.743 -1.0913  0.2048 -0.1755
  167MOL0     H22526   0.343   3.287   0.989  1.7859  1.9821  0.6383
  167MOL0     H22527   0.387   3.809   1.367 -2.1852 -0.4515 -1.6090
  167MOL0     H22528   0.435   3.755   1.605  2.8933  0.6286 -0.0814
  167MOL0     H22529   0.713   3.940   0.488  2.5954 -0.8037  1.9558
  167MOL0     H22530   0.744   3.870   0.239  1.9528 -1.4081 -1.2497
  167MOL0     H22531   0.663   3.667  -0.110 -0.3052  0.0161  2.1919
  167MOL0     H22532   0.671   3.616  -0.339  2.8081  0.4250 -2.2983
  167MOL0     H22533   0.779   3.232  -0.464 -0.1834  1.6616  0.6297
  167MOL0     H22534   0.946   3.281  -0.494  0.4978  3.2494  3.5171
  167MOL0     H22535   0.848   3.398  -0.697  0.4793  0.0765 -1.0731
  167MOL0     H22536   0.708   3.281  -0.672 -0.2503  0.6414 -0.5673
  167MOL0     H22537   0.846   3.093  -0.693 -2.0599  0.9054  1.9240
  167MOL0     H22538   0.990   3.195  -0.719 -1.4212  0.8539  1.5825
  167MOL0     H22539   0.892   3.102  -0.922 -0.6930 -1.6095  1.9284
  167MOL0     H22540   0.746   3.195  -0.897 -0.0024  1.5864  2.4738
  167MOL0     H22541   1.022   3.492  -1.043 -1.0246  1.1359 -0.7976
  167MOL0     H22542   0.917   3.275  -0.272 -1.6956 -0.8314 -0.0745
  167MOL0     H22543   1.043   3.371   0.030  0.2515  0.6383 -0.9513
  167MOL0     H22544   0.920   3.250   0.068 -1.5386  3.0468  1.2013
  167MOL0     H22545   1.027   3.236  -0.082 -1.0818 -1.6132  0.5417
  168MOL0     O22546   3.320   4.050   0.500 -0.0504 -0.1659 -0.6134
  168MOL0     C22547   3.400   4.008   0.592  0.4491 -0.3449  0.3584
  168MOL0     O22548   3.357   3.941   0.709  0.3678  0.5581 -0.3315
  168MOL0     C22549   3.232   3.886   0.708 -0.3819  0.7145 -0.0993
  168MOL0     C22550   3.217   3.755   0.737  0.5027 -0.7360  1.2467
  168MOL0     C22551   3.094   3.704   0.746  0.5854  0.4901 -0.4082
  168MOL0     C22552   2.974   3.786   0.729 -0.1578  0.2727 -0.6163
  168MOL0     O22553   2.846   3.730   0.755 -0.9704 -0.0513  0.6472
  168MOL0     C22554   2.820   3.708   0.891  0.3146  0.6281 -0.3907
  168MOL0     C22555   2.764   3.557   0.894  0.1644 -0.0260 -0.9977
  168MOL0     C22556   2.622   3.547   0.913  1.1252 -0.4632  0.0512
  168MOL0     C22557   2.573   3.551   1.056 -0.2591  0.0501 -0.4128
  168MOL0     C22558   2.423   3.529   1.061 -0.1529  0.1768  0.2774
  168MOL0     C22559   2.366   3.468   1.180 -0.0638 -0.5657 -0.0701
  168MOL0     C22560   2.449   3.478   1.313  0.4537  0.7930 -0.8231
  168MOL0     C22561   2.350   3.441   1.434  0.8690 -0.7185 -0.3031
  168MOL0     N22562   2.234   3.532   1.452  0.3118  0.1735  0.6448
  168MOL0     C22563   2.226   3.633   1.534  0.5538  1.5005 -0.2987
  168MOL0     C22564   2.098   3.678   1.508 -0.2229 -0.5351 -0.7054
  168MOL0     C22565   2.027   3.784   1.577  0.5382  0.6206 -0.7533
  168MOL0     C22566   1.975   3.732   1.716  0.2134 -0.0540  0.4657
  168MOL0     C22567   1.877   3.621   1.703 -0.3248  1.0114  0.1071
  168MOL0     C22568   1.788   3.598   1.831 -0.6733 -0.4433 -0.2185
  168MOL0     O22569   1.712   3.719   1.863 -0.3226 -0.9783  0.5613
  168MOL0     C22570   1.640   3.727   1.973  0.5503 -0.7356  0.6991
  168MOL0     C22571   1.625   3.632   2.072  0.2955 -1.3013 -0.2520
  168MOL0     C22572   1.549   3.670   2.179  0.2543 -0.0274 -0.2405
  168MOL0     C22573   1.477   3.786   2.192  0.1433 -0.2573 -0.1018
  168MOL0     C22574   1.405   3.813   2.320  0.1030 -0.2247  0.2873
  168MOL0     O22575   1.339   3.929   2.321  0.0134  0.2917  0.1056
  168MOL0     C22576   1.266   3.990   2.417  0.7758  1.2233 -0.0495
  168MOL0     C22577   1.258   4.129   2.418  0.2931 -0.3459  0.4126
  168MOL0     C22578   1.186   4.193   2.517  0.0038  0.0894  0.9352
  168MOL0     C22579   1.124   4.119   2.618  0.2628  0.0854 -0.2513
  168MOL0     O22580   1.049   4.166   2.724  0.0948  0.2280  0.3321
  168MOL0     C22581   1.077   4.299   2.769  0.0755  0.2515  1.0384
  168MOL0     C22582   1.004   4.300   2.910  0.0052 -0.1703 -0.4234
  168MOL0     C22583   0.989   4.445   2.970  0.1683  0.1444  0.2683
  168MOL0     C22584   0.906   4.446   3.098 -0.0407 -0.9917  0.1816
  168MOL0     C22585   0.946   4.571   3.189 -0.7923  0.0063  0.3366
  168MOL0     C22586   0.888   4.704   3.143  0.3379 -0.5085 -0.3945
  168MOL0     C22587   0.935   4.832   3.212  0.3133  0.7624 -0.5980
  168MOL0     C22588   0.942   4.829   3.362  1.2436  0.0015 -1.7342
  168MOL0    Cl22589   0.776   4.834   3.425  0.3468 -0.1055  0.7148
  168MOL0     C22590   1.134   3.981   2.614  0.4108 -1.0982  0.6735
  168MOL0     C22591   1.203   3.914   2.515 -1.0059  0.5175  0.0569
  168MOL0     O22592   1.411   3.727   2.407  0.5063  0.9485  0.8255
  168MOL0     C22593   1.478   3.873   2.082 -0.3733 -0.8210  0.0597
  168MOL0     C22594   1.574   3.848   1.984  0.1714  0.5198 -0.3882
  168MOL0     N22595   2.026   3.592   1.421  0.7191 -0.3264 -0.6239
  168MOL0     N22596   2.112   3.509   1.390 -0.1798  0.5219  0.3952
  168MOL0     C22597   2.993   3.925   0.705  0.0438  0.6354  0.9191
  168MOL0     C22598   3.127   3.979   0.696  0.1047 -0.3808  0.4335
  168MOL0     C22599   3.548   4.016   0.587  0.2558  0.3350 -0.0875
  168MOL0     C22600   3.614   3.897   0.631 -0.5349 -0.5639  0.7264
  168MOL0     C22601   3.758   3.908   0.641  0.5246  1.2337  0.1958
  168MOL0     C22602   3.830   4.025   0.608 -1.0393 -0.6436  0.0108
  168MOL0     O22603   3.969   4.038   0.635  0.3774 -0.4424 -0.2206
  168MOL0     C22604   4.037   4.138   0.556 -0.9440  0.1448 -0.0145
  168MOL0     C22605   4.181   4.119   0.589 -0.3026  0.6098 -0.5059
  168MOL0     C22606   4.238   3.996   0.514 -1.1229  0.1317 -0.2380
  168MOL0     C22607   4.372   3.948   0.574 -0.7916  0.1536 -0.1653
  168MOL0     C22608   4.483   4.049   0.565 -0.2205 -0.2931  0.6170
  168MOL0     C22609   4.558   4.132   0.529 -1.2974  0.1695  0.6929
  168MOL0     C22610   3.754   4.135   0.555 -0.4422 -0.2659 -0.2605
  168MOL0     C22611   3.615   4.134   0.547 -0.8935  0.6406  0.0419
  168MOL0     C22612   3.544   4.260   0.501  0.0421 -0.9519 -0.4931
  168MOL0     H22613   3.301   3.688   0.754 -0.4511 -2.6057 -0.9161
  168MOL0     H22614   3.079   3.597   0.755  1.5088  0.3950 -0.0068
  168MOL0     H22615   2.911   3.725   0.949  1.6109  2.2080 -2.7513
  168MOL0     H22616   2.750   3.781   0.932  1.7383  0.3637  2.8274
  168MOL0     H22617   2.816   3.508   0.977 -0.1570 -0.3320 -0.9729
  168MOL0     H22618   2.785   3.518   0.794  0.8955 -2.5023  0.0345
  168MOL0     H22619   2.581   3.461   0.859  2.5584  1.7237 -5.1587
  168MOL0     H22620   2.580   3.638   0.869  3.0020 -0.0335 -0.9573
  168MOL0     H22621   2.624   3.478   1.119 -0.4464  0.2642 -0.0131
  168MOL0     H22622   2.600   3.645   1.105  2.4084 -0.4970 -0.6820
  168MOL0     H22623   2.365   3.622   1.051 -4.8217 -2.4431 -0.0244
  168MOL0     H22624   2.388   3.470   0.976  1.2905  4.7820 -4.0189
  168MOL0     H22625   2.263   3.501   1.196  0.1605  0.2962 -0.3555
  168MOL0     H22626   2.377   3.361   1.156 -0.3274 -0.6634  0.2438
  168MOL0     H22627   2.483   3.581   1.326  3.0658 -0.1281  0.1033
  168MOL0     H22628   2.537   3.414   1.317  0.0029 -0.2242 -3.8950
  168MOL0     H22629   2.312   3.339   1.419  1.3999 -1.0485  0.5298
  168MOL0     H22630   2.405   3.445   1.528  0.4601  3.2640 -0.0657
  168MOL0     H22631   2.310   3.656   1.599  1.2985  0.1683 -0.7556
  168MOL0     H22632   2.085   3.877   1.583 -0.0769  0.9993 -0.5956
  168MOL0     H22633   1.940   3.816   1.520 -1.4908  1.4124  2.5374
  168MOL0     H22634   2.066   3.719   1.774  0.8480  2.2771  0.0679
  168MOL0     H22635   1.917   3.808   1.768 -2.0816 -0.9711 -0.6013
  168MOL0     H22636   1.928   3.528   1.674 -0.4303  0.2387  2.2631
  168MOL0     H22637   1.808   3.640   1.620 -0.7637  1.1125  0.4940
  168MOL0     H22638   1.848   3.573   1.919  0.6694  1.5313 -0.5277
  168MOL0     H22639   1.719   3.513   1.829 -1.0253 -0.4040  3.3405
  168MOL0     H22640   1.686   3.543   2.085  0.8156 -0.9402 -0.1926
  168MOL0     H22641   1.542   3.601   2.263 -3.4451  0.4148  0.0006
  168MOL0     H22642   1.312   4.189   2.346  1.2725  0.6489  1.9267
  168MOL0     H22643   1.176   4.301   2.525 -2.1183 -0.1998  3.4569
  168MOL0     H22644   1.181   4.332   2.779 -0.5152  2.1708  1.4400
  168MOL0     H22645   1.034   4.375   2.703  1.5058  0.3256  0.1494
  168MOL0     H22646   0.910   4.245   2.907 -0.4212  0.5507 -0.3080
  168MOL0     H22647   1.067   4.236   2.973 -1.8709  1.1188  2.9749
  168MOL0     H22648   1.088   4.486   2.991 -0.7388  1.9643  1.2132
  168MOL0     H22649   0.949   4.511   2.893  0.6825  1.3044  0.9677
  168MOL0     H22650   0.932   4.361   3.161 -0.9354 -1.5748 -0.2127
  168MOL0     H22651   0.799   4.462   3.079 -0.4402  3.8299  4.3814
  168MOL0     H22652   1.055   4.577   3.187 -0.6977 -1.1473 -2.0248
  168MOL0     H22653   0.914   4.554   3.292 -0.9275 -1.8609  0.0257
  168MOL0     H22654   0.908   4.721   3.037  1.2777 -4.3151 -0.9511
  168MOL0     H22655   0.779   4.708   3.151  0.1812  3.2461 -2.1374
  168MOL0     H22656   0.879   4.916   3.171 -0.3432 -0.1174 -1.5566
  168MOL0     H22657   1.038   4.849   3.180  1.3348 -2.6324  0.3988
  168MOL0     H22658   0.992   4.739   3.399  1.3687  0.8219  0.2054
  168MOL0     H22659   0.999   4.913   3.402  2.5498 -2.1140  1.2400
  168MOL0     H22660   1.081   3.920   2.687  0.8301  0.1886  2.0974
  168MOL0     H22661   1.201   3.806   2.513  0.1137  0.3384  2.9957
  168MOL0     H22662   1.426   3.966   2.098 -0.2008 -0.6706 -0.2585
  168MOL0     H22663   1.592   3.933   1.920 -2.9405  0.3163 -1.7157
  168MOL0     H22664   2.904   3.981   0.678  0.6449  0.7222 -1.0142
  168MOL0     H22665   3.151   4.084   0.691 -0.7918 -0.1688  0.4484
  168MOL0     H22666   3.552   3.813   0.661 -0.5574 -1.3316 -1.3032
  168MOL0     H22667   3.824   3.827   0.670 -0.1936  0.9474  1.0462
  168MOL0     H22668   4.005   4.236   0.593  1.0607 -0.0113  2.4443
  168MOL0     H22669   4.016   4.136   0.449 -1.5897 -2.3399  0.0890
  168MOL0     H22670   4.223   4.133   0.689  2.4677 -0.4218 -1.4074
  168MOL0     H22671   4.218   4.203   0.529 -0.1466  2.5432  2.1431
  168MOL0     H22672   4.248   4.029   0.410  0.8417  0.7507  0.1177
  168MOL0     H22673   4.170   3.910   0.518 -0.5603 -0.3233 -0.2825
  168MOL0     H22674   4.358   3.926   0.681  2.9211  1.2584  0.7086
  168MOL0     H22675   4.409   3.861   0.520  0.3764  0.9472 -0.6879
  168MOL0     H22676   4.634   4.204   0.505 -2.1980  1.0697  0.4290
  168MOL0     H22677   3.797   4.232   0.530 -1.4456 -0.0559 -1.2319
  168MOL0     H22678   3.618   4.334   0.469 -0.6131  0.0916  0.3221
  168MOL0     H22679   3.488   4.237   0.411 -1.9852  1.6584 -0.0187
  168MOL0     H22680   3.493   4.312   0.583  3.1911  1.8024 -0.0393
  169MOL0     O22681  10.792   3.057   4.991  0.0741 -0.4118 -0.6042
  169MOL0     C22682  10.671   3.052   4.984 -0.0081  0.7959 -0.7675
  169MOL0     O22683  10.602   2.937   5.009  0.2301  0.5444  0.7506
  169MOL0     C22684  10.668   2.832   5.065  0.4721 -0.2042  0.6686
  169MOL0     C22685  10.687   2.719   4.985 -0.1278  0.9577  0.3763
  169MOL0     C22686  10.727   2.594   5.046  0.3581 -0.0821 -0.5821
  169MOL0     C22687  10.779   2.597   5.175  0.1313  0.1981 -1.1782
  169MOL0     O22688  10.838   2.474   5.207  0.5195 -1.1596  0.4575
  169MOL0     C22689  10.960   2.498   5.273 -0.2333 -0.3308 -0.6666
  169MOL0     C22690  11.008   2.354   5.318  0.5849 -0.7465 -0.1692
  169MOL0     C22691  11.048   2.265   5.202  0.3170 -0.1819 -0.7195
  169MOL0     C22692  11.087   2.124   5.253 -0.1405 -0.0717 -0.4942
  169MOL0     C22693  11.229   2.133   5.317  0.2985 -0.2879  0.1333
  169MOL0     C22694  11.330   2.063   5.233  0.0251  0.3909 -0.2947
  169MOL0     C22695  11.469   2.097   5.292  0.2207  0.3543  0.7707
  169MOL0     C22696  11.571   1.984   5.262 -0.6351 -0.4179 -0.4097
  169MOL0     N22697  11.713   2.002   5.306  0.0836  0.0832  0.5543
  169MOL0     C22698  11.791   1.902   5.360 -0.7993 -0.0093 -0.0780
  169MOL0     C22699  11.906   1.954   5.404 -0.6331 -1.0090 -0.0546
  169MOL0     C22700  12.016   1.880   5.481 -0.3204 -0.7600  0.0855
  169MOL0     C22701  12.144   1.863   5.390 -0.3326 -0.8516 -0.1183
  169MOL0     C22702  12.227   1.741   5.428  0.6786  0.8112  0.1416
  169MOL0     C22703  12.257   1.719   5.574  0.4350  0.2547  0.8662
  169MOL0     O22704  12.308   1.829   5.643 -0.3785  0.1326  0.2758
  169MOL0     C22705  12.446   1.836   5.659 -0.4714  0.0506  0.1644
  169MOL0     C22706  12.545   1.783   5.580  0.4994  0.3005 -0.4537
  169MOL0     C22707  12.681   1.786   5.620 -0.4351  0.3222  0.0609
  169MOL0     C22708  12.721   1.858   5.738 -1.2740  0.2535  0.4000
  169MOL0     C22709  12.863   1.882   5.765  0.3068 -0.6721  1.1711
  169MOL0     O22710  12.899   1.939   5.888 -0.0118  0.0197  0.3509
  169MOL0     C22711  13.035   1.951   5.922  0.0303  0.6582 -0.4280
  169MOL0     C22712  13.136   1.858   5.901 -0.9918 -0.3912 -0.2357
  169MOL0     C22713  13.266   1.885   5.956  0.5935  1.0840  0.2835
  169MOL0     C22714  13.287   2.006   6.020  0.5081  0.8692 -0.5587
  169MOL0     O22715  13.411   2.022   6.070 -0.1352 -0.4905  0.1816
  169MOL0     C22716  13.477   2.139   6.018  0.1101  0.2361  0.2267
  169MOL0     C22717  13.624   2.127   6.021 -0.6345  0.6262  0.3014
  169MOL0     C22718  13.682   2.098   6.156 -0.3054  0.1060 -0.0885
  169MOL0     C22719  13.836   2.079   6.153 -0.6833 -0.0439  0.0235
  169MOL0     C22720  13.902   2.074   6.294  1.2869 -0.3887  0.2907
  169MOL0     C22721  14.046   2.041   6.278 -0.3553 -0.6474 -0.1577
  169MOL0     C22722  14.112   2.013   6.418  0.5376  0.1665 -0.2874
  169MOL0     C22723  14.259   2.013   6.387 -0.5865 -0.0803  0.1610
  169MOL0    Cl22724  14.314   2.181   6.365  0.2694  0.1940  0.6122
  169MOL0     C22725  13.189   2.100   6.035 -0.1475 -0.8024 -0.1557
  169MOL0     C22726  13.064   2.065   5.993 -0.5428  0.6747  0.0752
  169MOL0     O22727  12.939   1.842   5.676 -0.0209  0.1793  0.3192
  169MOL0     C22728  12.617   1.923   5.808 -0.1790 -1.0748  0.9307
  169MOL0     C22729  12.483   1.904   5.773  0.1113  0.7612  0.3409
  169MOL0     N22730  11.907   2.084   5.371  0.3515 -0.3705 -0.2111
  169MOL0     N22731  11.792   2.120   5.311 -0.2503  0.2126 -1.0124
  169MOL0     C22732  10.774   2.714   5.248  0.7640  0.6719  0.0683
  169MOL0     C22733  10.715   2.834   5.197 -0.3101  1.8321 -0.3200
  169MOL0     C22734  10.589   3.160   4.953 -0.2287 -0.0005 -0.0064
  169MOL0     C22735  10.444   3.154   4.971  0.1385  1.5184 -0.0052
  169MOL0     C22736  10.364   3.264   4.929 -0.9910  0.3864  0.1636
  169MOL0     C22737  10.426   3.383   4.890 -0.2359 -0.4912 -0.7697
  169MOL0     O22738  10.343   3.487   4.869 -0.3762  0.1563  0.6576
  169MOL0     C22739  10.396   3.618   4.855 -0.1516  0.1544 -0.2737
  169MOL0     C22740  10.289   3.708   4.812 -0.0564 -0.1908  0.5992
  169MOL0     C22741  10.243   3.690   4.666  0.4291  0.1469  0.7874
  169MOL0     C22742  10.131   3.783   4.615  0.1154  0.0498  0.0769
  169MOL0     C22743  10.171   3.930   4.621 -1.2785  0.0215  0.1846
  169MOL0     C22744  10.199   4.047   4.628 -0.2046  0.1812  1.3889
  169MOL0     C22745  10.565   3.385   4.875  0.0446  0.0333  0.1686
  169MOL0     C22746  10.657   3.283   4.906  0.8523  0.2288  0.7018
  169MOL0     C22747  10.804   3.300   4.875 -0.6224  0.5095  0.4410
  169MOL0     H22748  10.667   2.710   4.879 -0.6677  0.1113  0.5446
  169MOL0     H22749  10.740   2.504   4.986  2.0049 -1.3918  1.6070
  169MOL0     H22750  11.039   2.540   5.211  0.4338 -1.1269 -0.3675
  169MOL0     H22751  10.940   2.555   5.364 -4.0624  0.6567 -1.9008
  169MOL0     H22752  10.933   2.317   5.388  1.4936  1.6185  2.2039
  169MOL0     H22753  11.095   2.381   5.378  1.0684 -0.6898 -0.8867
  169MOL0     H22754  11.117   2.325   5.142  1.0349 -0.6008 -0.3239
  169MOL0     H22755  10.963   2.250   5.134 -0.0398  0.5544 -0.4391
  169MOL0     H22756  11.016   2.082   5.324  0.6939  0.9164  0.9808
  169MOL0     H22757  11.075   2.050   5.173  0.6664 -3.3612  2.2044
  169MOL0     H22758  11.253   2.239   5.327 -2.4533  0.4955 -0.7383
  169MOL0     H22759  11.230   2.092   5.419  1.8926  0.5092  0.4727
  169MOL0     H22760  11.308   1.955   5.233  0.1126  0.3659  0.6835
  169MOL0     H22761  11.312   2.102   5.133 -3.2239 -1.9898 -0.8324
  169MOL0     H22762  11.475   2.106   5.401  0.8309  0.3923  0.7368
  169MOL0     H22763  11.506   2.196   5.260  0.9402  0.0438  0.6199
  169MOL0     H22764  11.541   1.888   5.303  1.6209  0.9297  5.3066
  169MOL0     H22765  11.572   1.971   5.153  2.5568 -0.0353 -0.5270
  169MOL0     H22766  11.754   1.800   5.372  1.1248 -1.0126 -1.9493
  169MOL0     H22767  12.033   1.931   5.576 -1.6786 -2.5212  1.3276
  169MOL0     H22768  11.986   1.776   5.497  1.5213 -1.0983  1.7545
  169MOL0     H22769  12.106   1.848   5.289 -1.3877  0.1846  0.1105
  169MOL0     H22770  12.206   1.953   5.388  1.7044 -2.1654  0.0952
  169MOL0     H22771  12.321   1.745   5.372  1.2314  1.8042  1.0894
  169MOL0     H22772  12.186   1.650   5.383  1.5608 -0.4970  1.9020
  169MOL0     H22773  12.323   1.632   5.584 -1.6683 -1.8758 -2.1691
  169MOL0     H22774  12.159   1.686   5.611 -0.3865  3.2319  1.6483
  169MOL0     H22775  12.520   1.739   5.484  2.3291  1.4435 -1.5023
  169MOL0     H22776  12.755   1.725   5.570  2.9736  4.0076  0.1868
  169MOL0     H22777  13.097   1.760   5.875  0.0068 -0.9207  0.1637
  169MOL0     H22778  13.334   1.802   5.937 -1.1357 -0.0065 -1.4809
  169MOL0     H22779  13.443   2.136   5.914 -1.1617 -2.8788  0.6374
  169MOL0     H22780  13.453   2.228   6.077  1.2323  0.2614  0.6637
  169MOL0     H22781  13.644   2.047   5.950 -2.6477  0.8905 -0.6141
  169MOL0     H22782  13.676   2.220   5.993  3.5399 -0.4364  3.4545
  169MOL0     H22783  13.660   2.179   6.226 -3.0004 -1.0944  0.5807
  169MOL0     H22784  13.651   2.006   6.207  0.2865  1.2321  2.4782
  169MOL0     H22785  13.864   2.165   6.091 -1.6697  1.3930  1.4517
  169MOL0     H22786  13.853   1.989   6.094  1.7323  1.2584 -1.4172
  169MOL0     H22787  13.846   1.997   6.346 -3.1381  1.8427 -0.7072
  169MOL0     H22788  13.884   2.168   6.348 -1.2511  0.6322 -2.0846
  169MOL0     H22789  14.040   1.940   6.235  0.0411 -0.6026 -0.3195
  169MOL0     H22790  14.098   2.120   6.224 -1.0699  0.2287  0.4155
  169MOL0     H22791  14.090   1.913   6.456  0.9410  0.0552 -0.3422
  169MOL0     H22792  14.069   2.084   6.488 -0.8214 -1.6906  0.8358
  169MOL0     H22793  14.306   1.972   6.476 -1.8709  2.1328  1.9591
  169MOL0     H22794  14.282   1.951   6.300 -0.8659  1.1902 -0.8618
  169MOL0     H22795  13.205   2.192   6.089 -2.4274  0.1367 -0.9652
  169MOL0     H22796  12.988   2.137   6.021 -2.2406  0.2869 -3.0687
  169MOL0     H22797  12.640   1.987   5.892  0.2142 -1.0163  0.7801
  169MOL0     H22798  12.408   1.947   5.839 -1.5898 -4.5182  2.3883
  169MOL0     H22799  10.828   2.727   5.342 -0.1009  0.8606  0.5494
  169MOL0     H22800  10.705   2.916   5.267 -1.3690  0.0355  1.7412
  169MOL0     H22801  10.404   3.062   5.010  0.1217  2.0086  1.1735
  169MOL0     H22802  10.256   3.269   4.940 -0.8076 -0.6636  3.6170
  169MOL0     H22803  10.489   3.632   4.800  1.1091  1.5850  2.0396
  169MOL0     H22804  10.433   3.644   4.955 -1.5205 -1.6999  0.7970
  169MOL0     H22805  10.321   3.813   4.806  0.0655 -0.3124 -1.4916
  169MOL0     H22806  10.205   3.693   4.881  1.8835 -2.0774  2.7566
  169MOL0     H22807  10.228   3.581   4.667  4.8944 -0.6819  0.8462
  169MOL0     H22808  10.332   3.696   4.602  0.0152 -1.4464 -0.0081
  169MOL0     H22809  10.115   3.757   4.510  0.7012 -2.8215  0.6326
  169MOL0     H22810  10.039   3.776   4.674  0.1954  0.0657  0.2033
  169MOL0     H22811  10.221   4.152   4.626 -1.2707  0.4526 -1.3012
  169MOL0     H22812  10.600   3.481   4.838 -1.6095  0.7217  0.2642
  169MOL0     H22813  10.834   3.224   4.802 -2.2112  0.7367 -0.5047
  169MOL0     H22814  10.819   3.398   4.828 -0.1491  1.0571  1.6959
  169MOL0     H22815  10.868   3.297   4.964  0.0845 -3.4468 -0.0357
  170MOL0     O22816   0.685   2.143   3.868  0.4396 -0.1575 -0.3957
  170MOL0     C22817   0.627   2.162   3.759 -0.7930  0.3890 -0.3513
  170MOL0     O22818   0.694   2.175   3.643 -0.6147  0.2082 -0.7012
  170MOL0     C22819   0.836   2.178   3.638 -0.5965  0.6692 -0.2627
  170MOL0     C22820   0.916   2.237   3.731  0.4019 -0.3461  0.9060
  170MOL0     C22821   1.049   2.249   3.714  0.1033 -0.7215 -0.2132
  170MOL0     C22822   1.117   2.202   3.603  0.2903 -0.6902  0.4245
  170MOL0     O22823   1.258   2.212   3.596  0.5635 -0.6948  0.4484
  170MOL0     C22824   1.331   2.134   3.687 -0.0475  1.2842  0.4070
  170MOL0     C22825   1.451   2.208   3.715  0.5975 -0.5014 -0.4292
  170MOL0     C22826   1.532   2.154   3.831 -0.0720 -0.4812 -0.4873
  170MOL0     C22827   1.627   2.268   3.875 -0.0506 -1.0109  0.5701
  170MOL0     C22828   1.775   2.224   3.888 -0.5322  0.4906  0.6247
  170MOL0     C22829   1.871   2.318   3.962 -0.3429 -0.0732  0.2973
  170MOL0     C22830   1.933   2.419   3.870  0.5219  0.6850  0.6555
  170MOL0     C22831   1.998   2.536   3.942  0.4316  0.5893 -0.3822
  170MOL0     N22832   2.086   2.498   4.052 -0.2496  0.4530 -0.0109
  170MOL0     C22833   2.209   2.430   4.038  0.9665  0.3437 -0.1614
  170MOL0     C22834   2.275   2.436   4.157 -0.1992  0.7420 -1.0089
  170MOL0     C22835   2.421   2.408   4.194  0.1263  0.1206 -0.9453
  170MOL0     C22836   2.439   2.341   4.335 -0.9149 -0.0483  0.4533
  170MOL0     C22837   2.583   2.329   4.384  0.2107  0.4822  0.8234
  170MOL0     C22838   2.598   2.307   4.535 -0.3905  0.0900  0.1981
  170MOL0     O22839   2.608   2.433   4.602  0.2057  0.1270  0.2209
  170MOL0     C22840   2.582   2.439   4.739  0.2354 -0.5527 -0.5411
  170MOL0     C22841   2.548   2.328   4.828  0.2509 -0.0099 -1.2340
  170MOL0     C22842   2.533   2.356   4.968  0.5385  0.2729 -0.0293
  170MOL0     C22843   2.533   2.482   5.026  0.5981 -0.6986 -0.0341
  170MOL0     C22844   2.512   2.505   5.167 -0.5980 -0.5066 -0.6700
  170MOL0     O22845   2.494   2.634   5.203  0.3789 -0.5173 -0.2951
  170MOL0     C22846   2.490   2.671   5.336 -0.0022  0.0319 -0.4172
  170MOL0     C22847   2.584   2.640   5.431  0.4159  0.3140  0.1589
  170MOL0     C22848   2.573   2.678   5.567 -1.2755 -1.2917  0.1520
  170MOL0     C22849   2.462   2.765   5.609  0.1543  0.8348  0.2194
  170MOL0     O22850   2.455   2.784   5.741  0.4554  0.5960  0.2437
  170MOL0     C22851   2.355   2.874   5.788  0.1311  0.0003  0.2208
  170MOL0     C22852   2.343   2.872   5.944 -0.0071  0.8832  0.0663
  170MOL0     C22853   2.281   3.004   6.002 -0.5228  0.5374 -0.3755
  170MOL0     C22854   2.371   3.126   6.002  0.3993  0.0211 -0.7951
  170MOL0     C22855   2.353   3.215   6.121 -0.0635  0.8256  0.0760
  170MOL0     C22856   2.449   3.335   6.089  0.5881  0.0138 -0.1100
  170MOL0     C22857   2.439   3.451   6.185  0.0158 -0.0469 -0.1450
  170MOL0     C22858   2.298   3.522   6.194 -0.6353  0.1908 -0.4880
  170MOL0    Cl22859   2.301   3.689   6.261 -0.0695  0.3985  0.3287
  170MOL0     C22860   2.379   2.809   5.510  0.4267 -0.5853 -0.1433
  170MOL0     C22861   2.403   2.769   5.378 -0.6705 -0.2705 -0.4085
  170MOL0     O22862   2.501   2.410   5.248  0.3500  0.0721 -0.0425
  170MOL0     C22863   2.556   2.589   4.931  0.2750  0.5215 -0.7113
  170MOL0     C22864   2.584   2.571   4.799  0.6560  0.3569 -0.2936
  170MOL0     N22865   2.191   2.492   4.245 -0.1941 -0.1537 -0.0158
  170MOL0     N22866   2.088   2.544   4.181 -0.4349 -0.5096 -0.1066
  170MOL0     C22867   1.043   2.145   3.502 -0.1530 -0.1643  0.1730
  170MOL0     C22868   0.901   2.129   3.525 -1.3949  0.0827  0.5350
  170MOL0     C22869   0.474   2.183   3.774 -1.0989  0.5531  0.0396
  170MOL0     C22870   0.427   2.207   3.901  0.5202 -0.2892 -0.1023
  170MOL0     C22871   0.291   2.245   3.921 -0.2928 -0.2499 -0.5585
  170MOL0     C22872   0.197   2.269   3.815 -0.0752 -0.5367  0.4799
  170MOL0     O22873   0.063   2.302   3.832 -0.8808  0.4923  0.1545
  170MOL0     C22874  -0.032   2.248   3.739  0.9427  0.5400 -0.1652
  170MOL0     C22875  -0.136   2.179   3.823  0.0004  0.4362 -0.7233
  170MOL0     C22876  -0.232   2.106   3.728  0.7731 -0.3765  0.7578
  170MOL0     C22877  -0.341   2.033   3.814 -0.9422  1.1570 -0.8613
  170MOL0     C22878  -0.431   1.955   3.736 -0.2103 -0.0548 -0.4589
  170MOL0     C22879  -0.520   1.919   3.658 -0.2836  0.0458  0.2513
  170MOL0     C22880   0.257   2.248   3.685  0.5231  0.4103  0.4179
  170MOL0     C22881   0.392   2.215   3.662 -0.8094  0.3574 -0.3240
  170MOL0     C22882   0.445   2.247   3.524  0.4449 -0.7372 -0.4239
  170MOL0     H22883   0.882   2.288   3.820  0.3639  2.6517 -0.6925
  170MOL0     H22884   1.109   2.304   3.785 -0.2669 -0.3131 -0.2140
  170MOL0     H22885   1.269   2.120   3.776 -0.5410 -0.9914 -0.2128
  170MOL0     H22886   1.358   2.034   3.649  4.3797  1.8288  1.5214
  170MOL0     H22887   1.411   2.307   3.738  1.1276 -0.3185 -0.2732
  170MOL0     H22888   1.514   2.217   3.626 -0.5434  0.0533 -1.2050
  170MOL0     H22889   1.575   2.057   3.802 -2.6846 -2.4939  1.7558
  170MOL0     H22890   1.470   2.115   3.912  1.0563 -5.5491 -1.6879
  170MOL0     H22891   1.614   2.362   3.822 -0.1577 -0.0667  2.1969
  170MOL0     H22892   1.595   2.294   3.977 -0.5501 -0.9558  0.4008
  170MOL0     H22893   1.781   2.135   3.951  1.3067  1.7990  2.4341
  170MOL0     H22894   1.815   2.198   3.789  1.2328  2.2201  0.8002
  170MOL0     H22895   1.815   2.364   4.044 -1.2763  0.7495 -0.7792
  170MOL0     H22896   1.946   2.260   4.016  1.4912  0.6028 -1.4347
  170MOL0     H22897   1.854   2.466   3.810 -0.5061  0.1813  1.5726
  170MOL0     H22898   2.003   2.365   3.807 -0.5374 -0.9345  0.8285
  170MOL0     H22899   2.049   2.581   3.856  1.2786 -2.8537 -1.8323
  170MOL0     H22900   1.923   2.607   3.977  0.5437 -0.3583  1.9648
  170MOL0     H22901   2.247   2.389   3.945  1.5330 -1.1517  0.7008
  170MOL0     H22902   2.474   2.339   4.127 -1.8101 -2.5642  0.1216
  170MOL0     H22903   2.472   2.505   4.205  4.6728 -2.0699 -0.5344
  170MOL0     H22904   2.395   2.417   4.400  2.3883 -0.3380  3.3584
  170MOL0     H22905   2.379   2.250   4.329  0.1471 -0.6489 -2.8829
  170MOL0     H22906   2.650   2.410   4.356  1.3600 -0.7560 -0.1800
  170MOL0     H22907   2.630   2.243   4.334 -1.3050  0.8937 -1.4226
  170MOL0     H22908   2.692   2.257   4.562  2.4697  4.5840 -0.2941
  170MOL0     H22909   2.520   2.248   4.583  0.2158 -0.0319  1.0649
  170MOL0     H22910   2.533   2.224   4.799 -0.3851 -0.2690 -0.0540
  170MOL0     H22911   2.505   2.269   5.027  0.8827 -0.3033 -0.6946
  170MOL0     H22912   2.658   2.571   5.394 -0.8286 -0.2802 -1.3261
  170MOL0     H22913   2.644   2.648   5.643 -2.8072  0.2880  2.3279
  170MOL0     H22914   2.401   2.970   5.763  4.9843 -1.5919  1.7661
  170MOL0     H22915   2.254   2.861   5.749  0.5433 -0.7884 -0.6182
  170MOL0     H22916   2.283   2.788   5.979  1.3295  0.2846  0.9992
  170MOL0     H22917   2.440   2.849   5.987 -0.5109  0.5473  1.0467
  170MOL0     H22918   2.192   3.024   5.943  0.4838  1.2534 -1.6921
  170MOL0     H22919   2.257   2.980   6.106  2.3211 -0.0502  0.2493
  170MOL0     H22920   2.356   3.174   5.905  1.2189 -0.3434 -1.1099
  170MOL0     H22921   2.475   3.093   5.999 -0.2523 -2.2126 -0.0443
  170MOL0     H22922   2.384   3.160   6.210  0.1940  0.0630 -0.4805
  170MOL0     H22923   2.251   3.253   6.133 -0.9129 -0.6603 -1.8921
  170MOL0     H22924   2.551   3.307   6.064 -0.7651 -2.5135 -3.6426
  170MOL0     H22925   2.411   3.384   5.998 -0.8984 -0.2852  0.3153
  170MOL0     H22926   2.508   3.532   6.159 -0.3332  1.5022  3.2727
  170MOL0     H22927   2.461   3.405   6.282 -0.2531 -3.5325 -1.5771
  170MOL0     H22928   2.246   3.528   6.098  1.6431 -0.5408 -1.8526
  170MOL0     H22929   2.246   3.463   6.269  0.7700  1.9982  2.0582
  170MOL0     H22930   2.291   2.865   5.539 -2.3139 -4.7452  0.5402
  170MOL0     H22931   2.348   2.812   5.295 -0.3387  1.5745  0.2722
  170MOL0     H22932   2.557   2.686   4.980 -0.0152  0.0137  0.3426
  170MOL0     H22933   2.606   2.661   4.743 -3.3225  3.0009  1.8715
  170MOL0     H22934   1.091   2.117   3.409 -0.4758  1.4842 -0.5175
  170MOL0     H22935   0.825   2.074   3.470 -0.6182 -1.5637  1.0658
  170MOL0     H22936   0.494   2.189   3.985 -1.2038 -1.9269  1.0312
  170MOL0     H22937   0.244   2.252   4.018 -2.2766 -1.3149 -1.3935
  170MOL0     H22938   0.007   2.180   3.662 -3.6096 -1.2911 -1.1530
  170MOL0     H22939  -0.095   2.327   3.696 -2.0452 -0.5885  1.8445
  170MOL0     H22940  -0.195   2.254   3.875 -0.9714  0.5250 -1.9102
  170MOL0     H22941  -0.093   2.105   3.891  0.0043  0.5061 -0.6495
  170MOL0     H22942  -0.185   2.038   3.657 -2.9565 -0.5409 -1.8605
  170MOL0     H22943  -0.276   2.188   3.670  1.3491 -0.6263 -0.0411
  170MOL0     H22944  -0.285   1.964   3.878  0.4533  3.8754  1.0721
  170MOL0     H22945  -0.398   2.103   3.876 -1.9580  0.5306 -1.0640
  170MOL0     H22946  -0.607   1.892   3.601 -0.5645 -1.3998  1.3066
  170MOL0     H22947   0.193   2.264   3.599  0.7832 -0.3087  0.0833
  170MOL0     H22948   0.365   2.242   3.449  1.1139  4.1596 -1.8251
  170MOL0     H22949   0.483   2.350   3.518 -2.4693  0.9774  4.4410
  170MOL0     H22950   0.511   2.178   3.471 -0.9810 -0.7981 -2.2356
  171MOL0     O22951   2.731   2.466   7.752 -0.3450 -0.5699  0.3778
  171MOL0     C22952   2.803   2.516   7.665  0.1500  0.5974 -0.2621
  171MOL0     O22953   2.907   2.599   7.686  0.4981  0.7394  1.0538
  171MOL0     C22954   2.926   2.640   7.821  0.5977 -0.6021  1.0993
  171MOL0     C22955   2.855   2.750   7.875  1.2134  0.1949 -0.0422
  171MOL0     C22956   2.873   2.785   8.013 -0.6430  0.7030 -0.5851
  171MOL0     C22957   2.962   2.712   8.092 -0.3159  0.0968 -0.2856
  171MOL0     O22958   2.998   2.746   8.220 -0.0751 -0.4300 -0.7337
  171MOL0     C22959   2.937   2.867   8.275 -0.4886 -0.5766 -0.3127
  171MOL0     C22960   3.012   2.919   8.394  0.2929 -0.1264  0.3280
  171MOL0     C22961   3.153   2.956   8.364  0.5275  0.2117  0.8358
  171MOL0     C22962   3.216   3.032   8.478  1.5172  0.1812 -0.1077
  171MOL0     C22963   3.153   3.172   8.502 -0.2900  0.1228 -0.6950
  171MOL0     C22964   3.255   3.268   8.567  0.3960  0.2004 -0.0478
  171MOL0     C22965   3.168   3.381   8.610  0.1970  0.4829 -0.4334
  171MOL0     C22966   3.265   3.492   8.662 -0.0237  0.4118  0.2540
  171MOL0     N22967   3.187   3.597   8.733 -0.3081 -0.9976  0.4925
  171MOL0     C22968   3.134   3.706   8.671 -0.4410 -0.2807  1.0214
  171MOL0     C22969   3.067   3.771   8.767 -0.0447 -0.4998  0.9500
  171MOL0     C22970   2.992   3.901   8.751 -0.3945  0.3461 -0.5992
  171MOL0     C22971   3.067   4.030   8.705 -0.6969  0.4307 -0.3778
  171MOL0     C22972   2.991   4.165   8.740  0.1551  0.6052 -0.1614
  171MOL0     C22973   3.056   4.287   8.674 -0.2639  0.6707  1.3945
  171MOL0     O22974   3.058   4.261   8.524 -0.5143  0.2644 -0.1410
  171MOL0     C22975   2.967   4.327   8.446  0.5421 -0.3339 -0.7339
  171MOL0     C22976   2.990   4.310   8.307 -0.3660 -1.3564 -0.3660
  171MOL0     C22977   2.916   4.385   8.221 -0.6269  0.1131 -0.0254
  171MOL0     C22978   2.823   4.482   8.263 -0.0171 -0.9362 -0.1291
  171MOL0     C22979   2.758   4.577   8.171  0.2116  0.2307 -1.1441
  171MOL0     O22980   2.783   4.556   8.029 -0.1392 -0.2620 -0.1064
  171MOL0     C22981   2.763   4.660   7.944 -0.6764  0.3563 -0.5298
  171MOL0     C22982   2.846   4.773   7.956  0.1166  0.0957  0.9161
  171MOL0     C22983   2.844   4.879   7.860 -0.2283  0.3462  0.4406
  171MOL0     C22984   2.748   4.863   7.752  0.3569 -0.8910  0.5108
  171MOL0     O22985   2.729   4.961   7.660  0.3917 -0.0439  0.5097
  171MOL0     C22986   2.833   5.062   7.642  0.3605 -0.8779  0.4754
  171MOL0     C22987   2.784   5.145   7.529 -0.0516 -0.5766 -0.5605
  171MOL0     C22988   2.867   5.277   7.511 -0.1452 -0.4135  0.0459
  171MOL0     C22989   2.813   5.361   7.403 -0.9610 -0.6018 -0.5003
  171MOL0     C22990   2.826   5.307   7.255 -0.6903 -0.9955  0.1008
  171MOL0     C22991   2.976   5.297   7.215  0.3159 -0.6534 -0.9527
  171MOL0     C22992   3.055   5.427   7.210  0.0503  0.4596  0.0666
  171MOL0     C22993   3.001   5.528   7.106  0.2456  0.7048 -0.1799
  171MOL0    Cl22994   3.051   5.691   7.151  0.2104  0.1140 -0.1041
  171MOL0     C22995   2.669   4.750   7.740  0.1215 -0.1104  0.2340
  171MOL0     C22996   2.680   4.645   7.828  0.8701 -0.6690 -0.6082
  171MOL0     O22997   2.690   4.670   8.223  0.1388  0.7242  0.1391
  171MOL0     C22998   2.787   4.484   8.394  0.9353 -0.5451  0.9655
  171MOL0     C22999   2.858   4.401   8.490 -0.4064 -0.1830  0.4427
  171MOL0     N23000   3.089   3.707   8.882 -0.2453 -0.2178 -0.1283
  171MOL0     N23001   3.163   3.603   8.867  0.2630 -0.5656 -0.3100
  171MOL0     C23002   3.022   2.598   8.036 -0.0011  0.7295 -0.1659
  171MOL0     C23003   3.013   2.564   7.903  1.1037 -0.5302 -0.6081
  171MOL0     C23004   2.767   2.456   7.528 -1.0875  0.1872 -0.7330
  171MOL0     C23005   2.706   2.328   7.516  0.6856 -0.2955  0.0782
  171MOL0     C23006   2.682   2.267   7.397  0.8604 -0.2969 -1.0059
  171MOL0     C23007   2.731   2.333   7.284  0.6057  0.4781  0.4186
  171MOL0     O23008   2.717   2.274   7.159 -0.4222 -0.4166 -0.3566
  171MOL0     C23009   2.838   2.227   7.101  0.0646 -0.9121  0.1439
  171MOL0     C23010   2.815   2.101   7.022  0.9629 -0.3728 -0.2072
  171MOL0     C23011   2.720   2.121   6.903 -0.0034 -0.3000  0.4389
  171MOL0     C23012   2.695   1.989   6.829  0.0276  0.5790 -1.0698
  171MOL0     C23013   2.809   1.926   6.763  0.4056 -0.3342  0.1029
  171MOL0     C23014   2.898   1.847   6.730  0.7219  0.1574  0.2404
  171MOL0     C23015   2.783   2.461   7.290  0.4565  0.1554  0.5701
  171MOL0     C23016   2.806   2.526   7.409 -0.7355 -0.1000 -0.3894
  171MOL0     C23017   2.894   2.657   7.405 -0.2268 -0.1999 -0.1578
  171MOL0     H23018   2.793   2.814   7.812 -1.9899 -2.2522  0.3353
  171MOL0     H23019   2.815   2.869   8.050  3.3008  3.5492 -0.2395
  171MOL0     H23020   2.945   2.954   8.209  2.5239 -0.7067 -0.2750
  171MOL0     H23021   2.838   2.844   8.314 -0.0386 -2.4065 -0.1740
  171MOL0     H23022   3.007   2.874   8.494  0.5840  2.1468  1.4378
  171MOL0     H23023   2.951   3.007   8.418 -2.7377 -1.5998 -1.4731
  171MOL0     H23024   3.149   3.004   8.266  0.4133 -0.3088  0.5788
  171MOL0     H23025   3.208   2.864   8.342 -0.3498  0.2067 -1.6939
  171MOL0     H23026   3.211   2.968   8.566 -3.8933 -0.4785 -0.5843
  171MOL0     H23027   3.321   3.048   8.452  1.7059 -1.8634 -0.7095
  171MOL0     H23028   3.117   3.218   8.410 -1.0024  3.5768  1.1546
  171MOL0     H23029   3.079   3.160   8.582 -0.7984 -0.1820 -1.2061
  171MOL0     H23030   3.310   3.218   8.648 -0.2138 -1.6783 -0.7437
  171MOL0     H23031   3.331   3.310   8.500  0.3605 -0.7776 -0.7215
  171MOL0     H23032   3.113   3.333   8.691 -1.0379  0.8615 -1.0311
  171MOL0     H23033   3.103   3.428   8.536 -0.2398  3.0819  1.4418
  171MOL0     H23034   3.335   3.461   8.740  1.8563  1.1607 -1.0581
  171MOL0     H23035   3.322   3.521   8.573 -2.1440  2.3570 -0.5805
  171MOL0     H23036   3.121   3.738   8.568 -2.8430 -1.7095  0.7936
  171MOL0     H23037   2.908   3.886   8.682 -1.2888 -2.2209  0.9102
  171MOL0     H23038   2.940   3.922   8.845 -1.3763  4.0124 -1.7886
  171MOL0     H23039   3.164   4.035   8.755 -0.2317 -1.1815 -1.0383
  171MOL0     H23040   3.066   4.021   8.596 -1.1406  1.4230 -0.4675
  171MOL0     H23041   2.998   4.179   8.848 -0.8187  0.0271 -0.0188
  171MOL0     H23042   2.889   4.163   8.702  0.8329  0.9279 -2.1366
  171MOL0     H23043   3.163   4.299   8.696  0.4908  1.9279 -2.2732
  171MOL0     H23044   3.003   4.379   8.701  1.0992  1.4605  1.4642
  171MOL0     H23045   3.077   4.253   8.276  0.6691 -1.8275  2.9781
  171MOL0     H23046   2.954   4.372   8.120  3.3743  1.2080  1.1425
  171MOL0     H23047   2.922   4.762   8.033 -2.2502 -0.3627  3.3087
  171MOL0     H23048   2.900   4.971   7.874 -2.0870  1.6632 -0.3835
  171MOL0     H23049   2.838   5.112   7.738 -1.5574 -1.3051  0.8421
  171MOL0     H23050   2.932   5.021   7.623  0.3109 -0.4608 -0.8020
  171MOL0     H23051   2.790   5.081   7.441  0.0213 -1.4802  0.0908
  171MOL0     H23052   2.680   5.178   7.541  0.5417  1.5847 -0.9405
  171MOL0     H23053   2.864   5.345   7.596  0.5407  1.4849 -1.3983
  171MOL0     H23054   2.972   5.260   7.487 -0.6118 -0.4844 -2.1249
  171MOL0     H23055   2.872   5.453   7.406 -1.4787 -0.2989  1.1485
  171MOL0     H23056   2.711   5.393   7.428 -0.6070 -1.1210  1.7466
  171MOL0     H23057   2.779   5.370   7.180  0.4773 -2.5809 -2.1004
  171MOL0     H23058   2.781   5.208   7.239 -1.7020 -0.8440  1.8581
  171MOL0     H23059   3.031   5.222   7.273 -1.1364 -1.4053 -0.4939
  171MOL0     H23060   2.983   5.259   7.113 -0.7846  1.4307 -1.8706
  171MOL0     H23061   3.159   5.412   7.178 -0.4206  0.8301 -1.7329
  171MOL0     H23062   3.070   5.461   7.313  1.3476 -1.8704  0.7177
  171MOL0     H23063   3.038   5.509   7.005  3.0001 -2.6191  1.2851
  171MOL0     H23064   2.892   5.523   7.095  0.2231  1.1641 -0.1734
  171MOL0     H23065   2.586   4.742   7.671 -1.3602 -0.5752  2.0018
  171MOL0     H23066   2.613   4.560   7.818  0.5464 -0.3307 -1.3596
  171MOL0     H23067   2.696   4.535   8.427  1.7033  1.3172  0.3461
  171MOL0     H23068   2.826   4.414   8.593 -0.1274  0.1559  0.4925
  171MOL0     H23069   3.089   2.534   8.093 -0.1785  0.4817 -0.2377
  171MOL0     H23070   3.076   2.483   7.868  2.4569 -0.9739  2.4943
  171MOL0     H23071   2.678   2.281   7.610 -1.3854  2.7795  1.1762
  171MOL0     H23072   2.645   2.165   7.402  1.8135 -0.6021  0.6985
  171MOL0     H23073   2.907   2.205   7.183 -2.1740 -1.4688  1.9950
  171MOL0     H23074   2.886   2.306   7.043 -0.6195  0.5193  1.4395
  171MOL0     H23075   2.783   2.025   7.094  2.0430 -1.0490 -0.4250
  171MOL0     H23076   2.909   2.069   6.978  2.2769 -0.1316  2.2539
  171MOL0     H23077   2.749   2.203   6.836  0.8455  4.1588  5.5648
  171MOL0     H23078   2.631   2.161   6.951 -1.3339 -2.1182 -0.4283
  171MOL0     H23079   2.656   1.920   6.904  3.4887 -0.3907  0.0033
  171MOL0     H23080   2.618   2.002   6.752 -1.9747  0.9546  0.9035
  171MOL0     H23081   2.964   1.763   6.732  0.6688 -0.4851 -5.8229
  171MOL0     H23082   2.803   2.500   7.191 -0.7445 -0.8434 -0.1120
  171MOL0     H23083   2.997   2.639   7.438 -0.2550  0.9719  0.6358
  171MOL0     H23084   2.890   2.686   7.300  0.1498 -1.8951 -0.6812
  171MOL0     H23085   2.866   2.729   7.482  3.1325  2.0394 -0.8078
  172MOL0     O23086   2.422   7.579   7.048  0.3489 -0.0601  0.4704
  172MOL0     C23087   2.521   7.511   7.017 -0.3203 -0.6488 -0.2261
  172MOL0     O23088   2.652   7.547   7.035 -0.2886  0.4562 -1.0546
  172MOL0     C23089   2.701   7.669   7.059  0.1556  0.8666  0.9473
  172MOL0     C23090   2.633   7.793   7.041 -0.0111 -0.5418 -0.3853
  172MOL0     C23091   2.693   7.915   7.064  0.0149  0.8126  0.4729
  172MOL0     C23092   2.829   7.913   7.092 -0.3240 -0.9493  0.0247
  172MOL0     O23093   2.886   8.039   7.082 -0.8413 -0.3187 -0.5081
  172MOL0     C23094   3.020   8.046   7.025  0.3025 -0.1964 -0.4058
  172MOL0     C23095   3.111   8.123   7.119 -0.2111  0.0733  0.0795
  172MOL0     C23096   3.259   8.127   7.069  0.1098  0.8820 -0.0681
  172MOL0     C23097   3.290   8.268   7.026  0.2029  1.0487  0.1007
  172MOL0     C23098   3.425   8.267   6.952  0.4924 -0.2904  0.4343
  172MOL0     C23099   3.429   8.203   6.807  1.1895 -0.3268  0.1815
  172MOL0     C23100   3.307   8.229   6.714 -0.3101  0.3197 -0.4519
  172MOL0     C23101   3.319   8.162   6.569 -0.2035 -0.2372 -0.1337
  172MOL0     N23102   3.302   8.019   6.598 -0.5096 -0.9720 -0.1989
  172MOL0     C23103   3.196   7.949   6.642  0.5383 -0.2901  0.1663
  172MOL0     C23104   3.244   7.838   6.705 -0.1945 -0.3910  0.4840
  172MOL0     C23105   3.154   7.734   6.758  1.0776 -0.6249  1.2622
  172MOL0     C23106   3.069   7.675   6.643  0.3204 -0.4045 -0.2826
  172MOL0     C23107   2.964   7.596   6.703  0.3968  0.4107  0.0413
  172MOL0     C23108   2.868   7.540   6.596  0.0787  0.1278 -1.1680
  172MOL0     O23109   2.945   7.432   6.539  0.1693 -0.5649  0.6073
  172MOL0     C23110   2.956   7.417   6.407 -0.8449  0.1537 -0.5634
  172MOL0     C23111   2.984   7.527   6.320 -0.8274  0.4009  0.1192
  172MOL0     C23112   2.986   7.505   6.182  0.5211 -0.2374  0.0552
  172MOL0     C23113   2.960   7.386   6.122 -0.0148  0.8739  0.0498
  172MOL0     C23114   2.918   7.382   5.975  0.1419  0.1675 -0.2750
  172MOL0     O23115   2.938   7.494   5.898  0.4569  1.1038 -0.1543
  172MOL0     C23116   2.889   7.516   5.774 -0.0890  0.0492  1.0212
  172MOL0     C23117   2.778   7.451   5.727 -0.8885  0.5047 -0.0644
  172MOL0     C23118   2.752   7.452   5.591 -1.1611 -0.3167 -0.6822
  172MOL0     C23119   2.829   7.526   5.506  0.2618 -0.5697 -0.3555
  172MOL0     O23120   2.813   7.531   5.371 -0.1288 -0.5925 -0.1332
  172MOL0     C23121   2.709   7.452   5.303 -0.0673 -0.2215 -0.9102
  172MOL0     C23122   2.704   7.489   5.160  0.2713 -0.6318  0.0903
  172MOL0     C23123   2.645   7.633   5.148  0.4705  0.4077 -0.0030
  172MOL0     C23124   2.633   7.685   4.997  0.5527 -0.3698 -0.6811
  172MOL0     C23125   2.643   7.840   5.006 -0.2424  0.2057  0.2684
  172MOL0     C23126   2.694   7.896   4.867 -0.5675 -0.6263 -0.4317
  172MOL0     C23127   2.763   8.030   4.882  0.1754  0.5860 -0.1244
  172MOL0     C23128   2.901   8.033   4.950  0.8672 -0.3986  0.4038
  172MOL0    Cl23129   3.009   7.972   4.829  0.3935 -0.1968  0.0259
  172MOL0     C23130   2.948   7.584   5.547 -0.5829  0.4512  0.2558
  172MOL0     C23131   2.973   7.586   5.684  0.1795  0.8860 -0.1544
  172MOL0     O23132   2.858   7.270   5.936  0.2549 -0.2380 -0.6860
  172MOL0     C23133   2.945   7.270   6.204  0.4810  0.2136 -0.0004
  172MOL0     C23134   2.941   7.292   6.347 -0.0344  0.8379 -0.0959
  172MOL0     N23135   3.378   7.837   6.711  0.2535  0.2966  0.3912
  172MOL0     N23136   3.410   7.939   6.643 -0.9208 -0.7408  1.0274
  172MOL0     C23137   2.902   7.797   7.113 -0.1382 -0.3002 -0.7101
  172MOL0     C23138   2.839   7.674   7.096 -0.4474  0.4615 -0.2027
  172MOL0     C23139   2.487   7.377   6.952 -0.8130  0.2199 -0.2779
  172MOL0     C23140   2.348   7.343   6.936 -0.9838  0.3240  0.3808
  172MOL0     C23141   2.312   7.212   6.900  0.7869  0.2634  0.6685
  172MOL0     C23142   2.415   7.132   6.841  0.2524 -0.0528 -0.2003
  172MOL0     O23143   2.378   6.997   6.807  0.7593 -0.6776 -0.2422
  172MOL0     C23144   2.461   6.918   6.734 -0.4515 -0.4965 -0.2869
  172MOL0     C23145   2.470   6.964   6.591 -0.7097  0.3628 -0.3396
  172MOL0     C23146   2.338   6.977   6.517  0.3517  0.5004 -0.0536
  172MOL0     C23147   2.253   6.843   6.511  0.0639 -0.1451 -0.9379
  172MOL0     C23148   2.145   6.846   6.416  0.0641 -0.7437  0.4908
  172MOL0     C23149   2.067   6.819   6.330 -0.2239  0.6851 -0.4536
  172MOL0     C23150   2.540   7.170   6.849  0.1394  0.5347  0.1402
  172MOL0     C23151   2.580   7.294   6.900  0.0733  0.8532  1.0531
  172MOL0     C23152   2.737   7.317   6.887  0.6607  0.2955  0.2736
  172MOL0     H23153   2.526   7.796   7.018 -0.6212 -4.6968  1.0743
  172MOL0     H23154   2.637   8.005   7.044  0.2014  0.5407 -1.5139
  172MOL0     H23155   3.069   7.951   7.002  0.9288  0.1052 -0.3322
  172MOL0     H23156   3.022   8.099   6.929  1.6389  0.4920 -0.0258
  172MOL0     H23157   3.104   8.086   7.222 -3.3987  0.8950  0.2799
  172MOL0     H23158   3.079   8.228   7.117  2.5040  1.0061  0.7443
  172MOL0     H23159   3.270   8.047   6.994 -1.4348 -0.5951  1.1941
  172MOL0     H23160   3.328   8.101   7.150  0.5166  3.4064  0.4582
  172MOL0     H23161   3.216   8.312   6.958 -2.9121 -2.4328  0.9277
  172MOL0     H23162   3.313   8.331   7.112 -2.6313  2.6998 -0.2101
  172MOL0     H23163   3.461   8.370   6.945 -1.0017  0.4141  2.4917
  172MOL0     H23164   3.505   8.224   7.013  1.3561 -1.2103 -1.2724
  172MOL0     H23165   3.520   8.224   6.751  1.1300 -1.4946 -0.3891
  172MOL0     H23166   3.439   8.096   6.827 -0.3470 -0.5620 -0.1264
  172MOL0     H23167   3.308   8.338   6.705 -2.0993  0.4897  0.8821
  172MOL0     H23168   3.206   8.210   6.751 -2.4900  2.7851 -4.3511
  172MOL0     H23169   3.244   8.190   6.495 -0.7973 -1.6500 -0.0996
  172MOL0     H23170   3.416   8.169   6.519 -0.7769  1.9019 -1.0557
  172MOL0     H23171   3.097   7.977   6.608  0.3153  3.1549  3.0965
  172MOL0     H23172   3.222   7.656   6.791  1.3656 -1.3905 -0.9413
  172MOL0     H23173   3.091   7.765   6.842  1.3617  2.2833  0.5237
  172MOL0     H23174   3.033   7.758   6.583  1.2179  1.8813  2.1142
  172MOL0     H23175   3.140   7.623   6.578  2.4588  0.6665  1.0525
  172MOL0     H23176   2.910   7.664   6.769 -1.9163  0.7989 -2.1164
  172MOL0     H23177   2.994   7.515   6.770 -1.0927  0.2450  0.5474
  172MOL0     H23178   2.835   7.606   6.515 -1.8774 -0.1955 -0.6796
  172MOL0     H23179   2.774   7.513   6.645  0.0998  5.0994  2.4138
  172MOL0     H23180   2.991   7.627   6.361 -0.9104  0.8147 -0.8608
  172MOL0     H23181   2.998   7.589   6.115 -0.6121 -0.9520 -1.0857
  172MOL0     H23182   2.717   7.396   5.797 -0.8290  2.7210  1.8480
  172MOL0     H23183   2.660   7.399   5.567 -1.3766 -0.1785 -0.1696
  172MOL0     H23184   2.734   7.346   5.308  1.0876  0.0721 -0.2838
  172MOL0     H23185   2.609   7.469   5.345  0.3008  1.9119 -0.8032
  172MOL0     H23186   2.793   7.472   5.100  0.7554  1.5213  0.1177
  172MOL0     H23187   2.630   7.430   5.106  0.2588  0.3740 -1.0364
  172MOL0     H23188   2.550   7.633   5.204  1.4064 -3.7193  1.9837
  172MOL0     H23189   2.714   7.699   5.201  1.2752 -0.8900  0.6160
  172MOL0     H23190   2.535   7.648   4.965 -0.6251  2.1435 -0.1989
  172MOL0     H23191   2.709   7.628   4.943 -0.5659 -3.0870  0.4081
  172MOL0     H23192   2.714   7.870   5.083  2.8858 -1.4640 -1.7434
  172MOL0     H23193   2.542   7.878   5.022 -0.2635  0.2514  0.0375
  172MOL0     H23194   2.762   7.819   4.832 -0.5141 -0.5076 -0.5925
  172MOL0     H23195   2.616   7.917   4.793 -0.5423  2.0713  0.1997
  172MOL0     H23196   2.704   8.101   4.941 -3.5749 -2.0781 -0.3452
  172MOL0     H23197   2.770   8.069   4.780  0.5888  1.7879  0.3331
  172MOL0     H23198   2.922   8.135   4.984 -2.7422  0.1398  1.4586
  172MOL0     H23199   2.907   7.972   5.041 -0.7266  0.6644  1.2752
  172MOL0     H23200   3.009   7.635   5.473  1.5592  2.3665  3.0988
  172MOL0     H23201   3.066   7.636   5.708  0.2224  1.8265 -2.0745
  172MOL0     H23202   2.924   7.171   6.165  1.3147 -0.5270  1.3466
  172MOL0     H23203   2.933   7.210   6.417  0.5456 -0.3606 -1.3805
  172MOL0     H23204   3.009   7.790   7.130  0.1426  3.6022  0.0873
  172MOL0     H23205   2.900   7.585   7.101  3.0857  2.6609 -1.1249
  172MOL0     H23206   2.277   7.398   6.996 -0.7250  0.2603  0.7448
  172MOL0     H23207   2.213   7.167   6.903  0.5922  0.2365 -2.5213
  172MOL0     H23208   2.420   6.817   6.727 -0.0709 -0.5329 -3.6079
  172MOL0     H23209   2.565   6.929   6.767 -0.3862 -0.1008 -0.6093
  172MOL0     H23210   2.532   6.896   6.531  0.1994  0.8617  0.0065
  172MOL0     H23211   2.538   7.048   6.578 -0.1841 -0.1882 -1.2371
  172MOL0     H23212   2.363   7.014   6.417  2.6572  2.9308  1.2637
  172MOL0     H23213   2.274   7.050   6.568  0.3098  0.6791 -0.3622
  172MOL0     H23214   2.316   6.754   6.496 -2.7056 -1.9425 -2.7807
  172MOL0     H23215   2.200   6.829   6.606 -2.1382  2.4586 -1.6608
  172MOL0     H23216   1.984   6.800   6.266 -0.7574 -1.7187  0.8099
  172MOL0     H23217   2.619   7.098   6.831 -1.1187 -0.6677 -0.6883
  172MOL0     H23218   2.779   7.342   6.985 -1.7042 -2.9211  2.3317
  172MOL0     H23219   2.786   7.229   6.844  1.1775  1.1262 -0.8778
  172MOL0     H23220   2.744   7.407   6.826  0.7595  0.9924  1.2895
  173MOL0     O23221   4.172   2.549   9.211 -0.1034 -0.4456  0.2852
  173MOL0     C23222   4.233   2.564   9.110  0.0294 -1.1217  0.4038
  173MOL0     O23223   4.216   2.669   9.030 -0.0723 -0.2840 -0.2639
  173MOL0     C23224   4.095   2.721   9.013  0.2791  0.2932 -0.2546
  173MOL0     C23225   4.075   2.847   9.071  0.6321 -1.1103  0.5765
  173MOL0     C23226   3.949   2.905   9.062  1.2639 -0.1299 -0.0900
  173MOL0     C23227   3.843   2.820   9.006  0.3215 -1.0391 -0.6214
  173MOL0     O23228   3.712   2.871   9.003  0.1525 -0.2994 -0.0946
  173MOL0     C23229   3.657   2.933   9.117 -0.2250  0.6706 -0.5795
  173MOL0     C23230   3.618   2.822   9.224 -0.2116 -0.3950 -0.1809
  173MOL0     C23231   3.586   2.894   9.346 -1.1641  0.2417 -0.3849
  173MOL0     C23232   3.487   3.007   9.325  0.3005  0.6441  0.1607
  173MOL0     C23233   3.407   3.045   9.458 -0.3702 -0.7481 -0.2777
  173MOL0     C23234   3.285   3.131   9.414  0.4477 -0.5517 -0.7045
  173MOL0     C23235   3.192   3.166   9.536 -0.8847 -0.3107 -0.1557
  173MOL0     C23236   3.261   3.244   9.653 -0.2544  0.1354  0.0793
  173MOL0     N23237   3.324   3.368   9.599 -0.2738  0.7842  0.5541
  173MOL0     C23238   3.253   3.476   9.551 -0.3997 -0.3302 -0.3874
  173MOL0     C23239   3.348   3.564   9.523 -0.4996 -0.3229  0.4590
  173MOL0     C23240   3.323   3.704   9.455  0.0138  0.1012  0.1871
  173MOL0     C23241   3.344   3.701   9.304  0.7098 -0.2448 -0.1589
  173MOL0     C23242   3.381   3.844   9.259 -0.0848 -0.2208  0.5394
  173MOL0     C23243   3.353   3.860   9.108 -0.1104 -1.7195  0.1130
  173MOL0     O23244   3.382   3.995   9.067  0.0345  0.1478 -0.0399
  173MOL0     C23245   3.388   4.019   8.935 -0.3896  0.3448  0.0052
  173MOL0     C23246   3.391   4.157   8.902 -0.0887  0.2868 -0.0947
  173MOL0     C23247   3.421   4.196   8.776  0.1105 -0.6400 -0.4003
  173MOL0     C23248   3.446   4.094   8.679  0.2156 -0.7651 -0.9195
  173MOL0     C23249   3.504   4.122   8.544 -0.1958  0.0807  0.8345
  173MOL0     O23250   3.553   4.021   8.469 -0.3913  0.5280  0.2814
  173MOL0     C23251   3.608   4.053   8.349  0.4125  0.3490  0.5277
  173MOL0     C23252   3.545   4.115   8.243 -0.3266 -0.4967  0.5079
  173MOL0     C23253   3.611   4.155   8.132 -0.0573  0.2341 -0.0802
  173MOL0     C23254   3.743   4.110   8.115 -0.0843 -0.0834  0.6568
  173MOL0     O23255   3.797   4.151   7.989 -0.4858  0.6887  0.1243
  173MOL0     C23256   3.923   4.100   7.949 -0.1746 -0.5363  0.2254
  173MOL0     C23257   4.023   4.196   7.894 -0.0248 -0.4305 -0.4319
  173MOL0     C23258   3.952   4.304   7.824 -0.0321  0.6896  0.3993
  173MOL0     C23259   4.053   4.401   7.767 -0.1238 -0.0993  0.2222
  173MOL0     C23260   3.988   4.539   7.755  0.3121 -0.9114  0.1652
  173MOL0     C23261   4.091   4.625   7.664 -0.1913 -0.2792  0.4560
  173MOL0     C23262   4.025   4.757   7.616 -0.4737 -0.4903  0.0750
  173MOL0     C23263   4.119   4.881   7.617  0.6443  0.5756 -0.4446
  173MOL0    Cl23264   4.256   4.865   7.494 -0.3918  0.1710  0.1053
  173MOL0     C23265   3.804   4.028   8.214  0.7094  0.0664 -0.2752
  173MOL0     C23266   3.735   3.998   8.335 -0.2527 -0.0881 -0.3634
  173MOL0     O23267   3.491   4.237   8.499 -0.5097  0.3067 -0.2239
  173MOL0     C23268   3.436   3.959   8.712  0.4921 -0.0319  0.1600
  173MOL0     C23269   3.405   3.923   8.835  0.6062  0.4750 -0.1571
  173MOL0     N23270   3.474   3.518   9.553  0.4434  0.4897  0.5218
  173MOL0     N23271   3.459   3.399   9.607 -0.1954 -0.3426 -0.1045
  173MOL0     C23272   3.859   2.692   8.960 -0.5219 -0.0928  0.2547
  173MOL0     C23273   3.989   2.647   8.960 -0.3864  0.5824 -0.3599
  173MOL0     C23274   4.361   2.478   9.085 -0.6422 -0.2241 -0.2104
  173MOL0     C23275   4.448   2.511   8.978 -0.7168  0.4941 -0.0055
  173MOL0     C23276   4.576   2.445   8.967  0.2555  0.4189 -0.0968
  173MOL0     C23277   4.606   2.341   9.051  0.6404  0.3413 -0.4303
  173MOL0     O23278   4.729   2.280   9.020 -0.0334  0.2313  0.6703
  173MOL0     C23279   4.837   2.286   9.115 -0.9037  0.1530  0.3135
  173MOL0     C23280   4.948   2.192   9.061  0.3084  0.2942  0.4112
  173MOL0     C23281   4.934   2.047   9.113 -0.4407 -0.1685 -0.1260
  173MOL0     C23282   5.061   1.964   9.071  0.8631 -0.6664 -0.4402
  173MOL0     C23283   5.052   1.833   9.130 -0.2487  0.1535  0.4685
  173MOL0     C23284   5.052   1.729   9.196 -0.4837  0.2439  1.0869
  173MOL0     C23285   4.521   2.304   9.150  0.2947  0.2455 -0.8113
  173MOL0     C23286   4.397   2.359   9.161 -0.6511  0.1530 -0.6205
  173MOL0     C23287   4.305   2.292   9.257 -0.1489 -0.9168  0.2501
  173MOL0     H23288   4.164   2.895   9.109  0.2127  0.5079 -0.3742
  173MOL0     H23289   3.933   3.008   9.093 -0.7232 -0.5020  0.2349
  173MOL0     H23290   3.729   3.000   9.165 -1.3518 -0.1732  2.5421
  173MOL0     H23291   3.575   2.995   9.081  1.4601  2.1862 -2.0258
  173MOL0     H23292   3.693   2.744   9.242  1.2681  1.5580  3.1808
  173MOL0     H23293   3.531   2.776   9.177 -0.2023 -0.1018 -0.4954
  173MOL0     H23294   3.678   2.937   9.386 -0.2269 -0.8646 -1.2723
  173MOL0     H23295   3.547   2.821   9.417 -1.8431  0.5125 -0.4724
  173MOL0     H23296   3.538   3.093   9.280  2.2620 -0.7579 -0.4907
  173MOL0     H23297   3.418   2.985   9.243  1.0091  2.6266 -1.0335
  173MOL0     H23298   3.362   2.969   9.522 -0.7546 -0.0417  0.3123
  173MOL0     H23299   3.474   3.094   9.530 -0.3940  0.4287 -1.0247
  173MOL0     H23300   3.324   3.225   9.375 -2.7388  0.6075 -1.3990
  173MOL0     H23301   3.225   3.082   9.336  0.6641  0.1828 -1.3456
  173MOL0     H23302   3.150   3.073   9.576  0.7190 -1.5530 -1.2587
  173MOL0     H23303   3.106   3.218   9.493 -1.3948 -0.4048  0.7171
  173MOL0     H23304   3.197   3.256   9.741  1.4381  1.8053  1.1582
  173MOL0     H23305   3.349   3.189   9.686  0.7499  1.8204  0.3433
  173MOL0     H23306   3.144   3.480   9.543 -0.6883 -1.5189  2.1272
  173MOL0     H23307   3.227   3.751   9.480  0.6489  0.5782  1.8352
  173MOL0     H23308   3.399   3.763   9.505  0.9959 -1.6995  0.9340
  173MOL0     H23309   3.416   3.629   9.265 -1.5232 -1.2814 -2.6386
  173MOL0     H23310   3.249   3.675   9.257  0.3042  1.5345 -0.4165
  173MOL0     H23311   3.487   3.869   9.273  0.4202 -1.2176 -1.1884
  173MOL0     H23312   3.327   3.923   9.312  2.0054  1.6630  0.0112
  173MOL0     H23313   3.246   3.848   9.087 -1.2377  2.9274  1.8963
  173MOL0     H23314   3.418   3.788   9.059  2.1632  1.7478 -2.4351
  173MOL0     H23315   3.367   4.234   8.975 -0.2966  0.4492 -0.3363
  173MOL0     H23316   3.421   4.300   8.745  0.8068 -0.3852  0.4185
  173MOL0     H23317   3.438   4.128   8.260 -0.3363  1.4081 -0.7534
  173MOL0     H23318   3.571   4.223   8.058 -1.0765  1.7967  1.8264
  173MOL0     H23319   3.977   4.044   8.026 -1.4886 -2.0426  0.1001
  173MOL0     H23320   3.906   4.030   7.866 -1.1481  1.7489 -1.6332
  173MOL0     H23321   4.072   4.241   7.981 -2.4972 -1.1400  1.4286
  173MOL0     H23322   4.096   4.145   7.831 -0.4092 -1.2447 -0.2301
  173MOL0     H23323   3.886   4.266   7.745 -0.1048 -1.7356  1.5329
  173MOL0     H23324   3.882   4.360   7.886 -2.3986  1.2333 -2.4984
  173MOL0     H23325   4.086   4.363   7.670 -0.8965 -1.2082  0.3745
  173MOL0     H23326   4.144   4.409   7.827  0.1150  3.0140 -0.3825
  173MOL0     H23327   3.984   4.591   7.851  3.7252 -0.4301  0.1648
  173MOL0     H23328   3.885   4.537   7.720 -0.2274  5.5047  0.2229
  173MOL0     H23329   4.184   4.634   7.721  0.7424 -0.4482 -0.9920
  173MOL0     H23330   4.125   4.571   7.576 -0.0229 -0.1466  0.4390
  173MOL0     H23331   3.949   4.785   7.689 -0.2210 -1.2247  0.6264
  173MOL0     H23332   3.992   4.733   7.515 -2.0122 -0.8905  0.6588
  173MOL0     H23333   4.064   4.972   7.594  0.1367  0.1112 -1.1015
  173MOL0     H23334   4.160   4.885   7.719 -3.1903  2.3763  1.2188
  173MOL0     H23335   3.912   4.017   8.222  1.3831  5.5338  2.0604
  173MOL0     H23336   3.779   3.930   8.408 -3.4824 -1.3766  0.5569
  173MOL0     H23337   3.429   3.881   8.637 -1.4897 -0.3699  0.6203
  173MOL0     H23338   3.397   3.819   8.863 -3.6337  0.8583  0.6908
  173MOL0     H23339   3.781   2.621   8.936 -1.1143  0.2501  1.1182
  173MOL0     H23340   4.010   2.552   8.912 -1.7029  0.7073 -1.2282
  173MOL0     H23341   4.416   2.584   8.904  3.3368  0.6661 -1.8456
  173MOL0     H23342   4.639   2.466   8.882  1.6249 -2.4565  0.0799
  173MOL0     H23343   4.797   2.253   9.212  2.1260  1.9390  2.3309
  173MOL0     H23344   4.872   2.389   9.112 -0.8881  0.1249 -1.3899
  173MOL0     H23345   5.038   2.241   9.100  1.8294 -1.6416 -0.4769
  173MOL0     H23346   4.941   2.202   8.953  1.5167  0.5069  0.3368
  173MOL0     H23347   4.840   2.008   9.073  0.1537 -1.0200 -0.7352
  173MOL0     H23348   4.921   2.033   9.221 -1.6213 -0.4088 -0.2843
  173MOL0     H23349   5.064   1.943   8.964  1.9725  2.1264 -1.0250
  173MOL0     H23350   5.152   2.011   9.110  1.0416 -3.2572  2.7543
  173MOL0     H23351   5.040   1.634   9.244 -2.5153  0.3466  0.8424
  173MOL0     H23352   4.552   2.213   9.200 -2.7212  0.4052  1.6044
  173MOL0     H23353   4.320   2.346   9.352  0.3973 -2.2366  0.9401
  173MOL0     H23354   4.198   2.302   9.235 -0.3406 -2.8124  0.1621
  173MOL0     H23355   4.321   2.184   9.254 -1.3447 -1.1167  0.3124
  174MOL0     O23356   0.541   9.657  11.000  0.8916 -0.1752 -0.8180
  174MOL0     C23357   0.510   9.541  10.974  0.7141  0.0494 -0.7609
  174MOL0     O23358   0.586   9.463  10.887  0.5011  0.2099 -0.2649
  174MOL0     C23359   0.677   9.527  10.791  0.0453  0.0431  0.7202
  174MOL0     C23360   0.779   9.620  10.824  0.9193 -0.2698 -0.5582
  174MOL0     C23361   0.872   9.666  10.733  0.3612 -0.0132 -0.7168
  174MOL0     C23362   0.864   9.633  10.596  0.9547 -0.0359  0.0857
  174MOL0     O23363   0.968   9.689  10.522 -0.8776 -0.4779 -0.1596
  174MOL0     C23364   0.998   9.614  10.403  1.0235  0.0517  1.0966
  174MOL0     C23365   1.148   9.609  10.355 -0.4847 -0.7482 -0.3640
  174MOL0     C23366   1.205   9.757  10.343  0.4654  0.0981  0.4688
  174MOL0     C23367   1.339   9.738  10.275 -0.1558  0.1200 -0.3683
  174MOL0     C23368   1.412   9.864  10.248 -0.0704 -0.1211 -0.4026
  174MOL0     C23369   1.556   9.820  10.207  0.6441  0.5201  0.1253
  174MOL0     C23370   1.640   9.944  10.169  0.1564 -0.2786 -0.7077
  174MOL0     C23371   1.670   9.951  10.019 -0.6157 -0.6232  0.1452
  174MOL0     N23372   1.734   9.827   9.976  1.1972  0.3932  0.0155
  174MOL0     C23373   1.872   9.787   9.982  0.3876  0.2636  0.3285
  174MOL0     C23374   1.872   9.667   9.915  0.1024 -0.5799 -1.4533
  174MOL0     C23375   1.989   9.597   9.877  0.1634  1.2751 -0.3818
  174MOL0     C23376   2.076   9.684   9.783 -0.6843  0.7789  0.8848
  174MOL0     C23377   2.225   9.718   9.848 -0.0310 -1.1286  1.0877
  174MOL0     C23378   2.310   9.806   9.759  0.9509  0.6011  0.2973
  174MOL0     O23379   2.237   9.929   9.746 -0.1834 -0.0293 -0.0543
  174MOL0     C23380   2.272  10.042   9.813  0.0862 -0.2969 -0.7554
  174MOL0     C23381   2.403  10.067   9.869  0.8408  0.5958  0.1427
  174MOL0     C23382   2.423  10.182   9.941 -0.6072 -0.2712  0.4836
  174MOL0     C23383   2.310  10.272   9.957 -1.2036 -0.0956 -0.4751
  174MOL0     C23384   2.318  10.385  10.049 -0.2909  0.0603 -0.5307
  174MOL0     O23385   2.407  10.359  10.149 -0.5416 -0.3255 -0.5071
  174MOL0     C23386   2.469  10.470  10.218 -0.1618 -0.6184 -0.2406
  174MOL0     C23387   2.497  10.595  10.162  0.2703  0.4313 -0.4483
  174MOL0     C23388   2.565  10.695  10.237 -0.1091  0.3103 -0.2161
  174MOL0     C23389   2.606  10.670  10.368 -0.1299 -1.3268  0.4013
  174MOL0     O23390   2.669  10.774  10.441 -0.0121  0.2717  1.1929
  174MOL0     C23391   2.613  10.808  10.572 -0.0215  1.2139  0.5140
  174MOL0     C23392   2.576  10.958  10.571 -0.2969  0.2410 -0.5349
  174MOL0     C23393   2.502  10.992  10.700  0.4404 -1.0767  0.2488
  174MOL0     C23394   2.514  11.139  10.741  0.2127 -0.4260 -0.3166
  174MOL0     C23395   2.433  11.182  10.868 -0.4847 -0.6575  0.5368
  174MOL0     C23396   2.532  11.228  10.980  0.9586  0.3299  0.3858
  174MOL0     C23397   2.459  11.240  11.118 -0.0299  1.3644  0.1427
  174MOL0     C23398   2.574  11.271  11.221  0.2818 -0.9717  0.5342
  174MOL0    Cl23399   2.515  11.345  11.374  0.1550  0.2098 -0.3095
  174MOL0     C23400   2.583  10.547  10.426  0.3641 -0.2042 -1.0710
  174MOL0     C23401   2.503  10.450  10.359  0.0045  0.9687 -0.1645
  174MOL0     O23402   2.251  10.490  10.032 -0.4582 -0.4728  0.5960
  174MOL0     C23403   2.191  10.231   9.909 -0.2157 -0.0474  0.5583
  174MOL0     C23404   2.171  10.123   9.826  0.7165 -0.4129  0.3647
  174MOL0     N23405   1.739   9.633   9.868 -0.5748 -0.0557 -0.1024
  174MOL0     N23406   1.665   9.739   9.905  0.1804 -0.1574  0.4953
  174MOL0     C23407   0.771   9.541  10.558 -0.0300  0.0511 -0.4568
  174MOL0     C23408   0.682   9.487  10.648  0.8178 -0.8319  0.0810
  174MOL0     C23409   0.387   9.482  11.038  0.8959 -0.0843  0.3591
  174MOL0     C23410   0.351   9.356  10.998  0.3641  0.4883  0.0547
  174MOL0     C23411   0.238   9.286  11.049  0.1018 -0.2429 -0.3510
  174MOL0     C23412   0.158   9.343  11.150  0.3638 -0.2996 -0.1200
  174MOL0     O23413   0.045   9.287  11.210 -0.1189  0.3182  0.1497
  174MOL0     C23414  -0.007   9.152  11.185  0.4522 -0.5968 -0.7565
  174MOL0     C23415  -0.115   9.108  11.292 -0.3440 -0.5302  1.3523
  174MOL0     C23416  -0.243   9.195  11.281 -0.2943  0.8081 -0.1543
  174MOL0     C23417  -0.323   9.212  11.413  0.4762  0.4398 -0.8320
  174MOL0     C23418  -0.458   9.267  11.385  0.2833 -0.3172 -0.2602
  174MOL0     C23419  -0.557   9.318  11.334  1.2474 -0.1344 -0.0605
  174MOL0     C23420   0.193   9.474  11.185  0.5815  0.2576  0.4376
  174MOL0     C23421   0.301   9.548  11.127 -0.0445  0.0818  0.4083
  174MOL0     C23422   0.332   9.684  11.181  0.8622  0.8434  1.0543
  174MOL0     H23423   0.799   9.645  10.927 -0.4117 -0.1488 -0.3105
  174MOL0     H23424   0.955   9.730  10.758  1.9139 -1.1130 -2.7403
  174MOL0     H23425   0.957   9.513  10.395 -1.0591  0.9696 -0.8797
  174MOL0     H23426   0.959   9.675  10.321  3.5330  2.6864  1.6900
  174MOL0     H23427   1.152   9.554  10.260 -2.1156  0.0343 -0.9351
  174MOL0     H23428   1.210   9.574  10.438  0.0001  0.6417 -0.1071
  174MOL0     H23429   1.212   9.818  10.434  1.5675  0.2722  0.2816
  174MOL0     H23430   1.150   9.814  10.268  0.6787  1.4305  1.2977
  174MOL0     H23431   1.397   9.664  10.332  1.2352 -2.0338 -4.2234
  174MOL0     H23432   1.318   9.706  10.173  0.0769  1.5554 -0.8887
  174MOL0     H23433   1.357   9.911  10.166  1.4861  2.9050  0.1368
  174MOL0     H23434   1.417   9.931  10.335  1.1043  0.2889 -0.7620
  174MOL0     H23435   1.617   9.767  10.281  0.7443 -2.6718 -2.0446
  174MOL0     H23436   1.544   9.756  10.120 -0.8328  0.8050  0.1045
  174MOL0     H23437   1.735   9.941  10.224 -1.1042 -1.3458  1.5337
  174MOL0     H23438   1.594  10.039  10.197  1.6207  0.3431 -0.3164
  174MOL0     H23439   1.581   9.955   9.957  1.0365 -0.7382 -2.3691
  174MOL0     H23440   1.751  10.018   9.990  0.2859 -1.7114  0.0636
  174MOL0     H23441   1.958   9.834  10.029  0.3271 -0.3938  1.1187
  174MOL0     H23442   2.050   9.560   9.960  1.1397 -0.7239 -1.9174
  174MOL0     H23443   1.965   9.504   9.824 -3.6247  0.7245  1.9459
  174MOL0     H23444   2.096   9.616   9.699 -1.2360 -0.4665  1.7295
  174MOL0     H23445   2.023   9.769   9.739  1.5929  0.8341 -2.0261
  174MOL0     H23446   2.276   9.621   9.855  1.0795 -1.0750 -3.1836
  174MOL0     H23447   2.207   9.780   9.936 -0.6254  1.1120 -0.5319
  174MOL0     H23448   2.323   9.764   9.659  2.7061  0.4636  0.5627
  174MOL0     H23449   2.412   9.818   9.795  2.9624 -3.4320 -3.1678
  174MOL0     H23450   2.485   9.999   9.851  0.7755  0.9860 -1.8671
  174MOL0     H23451   2.515  10.217   9.988  0.4789 -1.8689 -0.3387
  174MOL0     H23452   2.465  10.615  10.060 -0.0570 -1.0480 -0.6524
  174MOL0     H23453   2.584  10.796  10.201 -0.0782  0.0436 -0.9553
  174MOL0     H23454   2.526  10.749  10.604  1.3223  0.4801  3.1011
  174MOL0     H23455   2.687  10.783  10.649  0.6459 -0.5684 -0.6677
  174MOL0     H23456   2.661  11.026  10.564  0.0518 -0.2791 -1.5393
  174MOL0     H23457   2.509  10.970  10.485  0.0587 -1.6349 -1.1179
  174MOL0     H23458   2.396  10.967  10.685 -0.8025  1.2764  3.8548
  174MOL0     H23459   2.513  10.938  10.794 -0.0066  0.2703  1.1068
  174MOL0     H23460   2.465  11.192  10.659  0.5946 -1.1430 -1.0309
  174MOL0     H23461   2.614  11.183  10.746 -0.6214  1.3808  1.1939
  174MOL0     H23462   2.380  11.096  10.909  0.1652 -1.4059 -0.1512
  174MOL0     H23463   2.362  11.257  10.832 -0.2768 -1.0736 -0.7935
  174MOL0     H23464   2.598  11.141  10.990 -0.7206 -0.7946  2.9832
  174MOL0     H23465   2.579  11.319  10.944 -2.0492  1.7863 -0.1619
  174MOL0     H23466   2.404  11.148  11.143  4.1051 -1.3475  0.1741
  174MOL0     H23467   2.394  11.328  11.112 -2.0628 -0.1262 -1.9845
  174MOL0     H23468   2.635  11.184  11.246  0.3275 -0.4555  2.4215
  174MOL0     H23469   2.643  11.341  11.172  0.0451 -2.7164 -2.5531
  174MOL0     H23470   2.614  10.533  10.529  0.5372 -0.1701 -1.1176
  174MOL0     H23471   2.472  10.352  10.395  3.0873 -0.8620 -2.0789
  174MOL0     H23472   2.105  10.294   9.931  0.1273  0.1620  1.3587
  174MOL0     H23473   2.067  10.101   9.803  0.9128 -1.2696  0.2437
  174MOL0     H23474   0.765   9.504  10.456 -0.2415 -0.0971 -0.3922
  174MOL0     H23475   0.611   9.416  10.607  0.2219 -1.7400  2.4936
  174MOL0     H23476   0.424   9.301  10.939 -1.8681 -2.6566 -0.0432
  174MOL0     H23477   0.203   9.195  11.001  1.0959  0.2389 -2.0750
  174MOL0     H23478   0.070   9.075  11.186  0.5433 -0.5278  0.8890
  174MOL0     H23479  -0.055   9.157  11.087  0.1506  0.2398 -0.5828
  174MOL0     H23480  -0.080   9.142  11.390 -0.6148  3.8439  0.1358
  174MOL0     H23481  -0.132   9.000  11.288  3.6678 -1.3624  2.3496
  174MOL0     H23482  -0.315   9.154  11.210  1.6112 -3.7886  0.2084
  174MOL0     H23483  -0.206   9.292  11.246  1.2827  0.5540  0.7163
  174MOL0     H23484  -0.337   9.111  11.453  0.7678  0.6730 -0.1337
  174MOL0     H23485  -0.271   9.266  11.492  0.3026 -1.7129  0.8574
  174MOL0     H23486  -0.645   9.378  11.318  1.7936  1.0527  1.1566
  174MOL0     H23487   0.137   9.522  11.265  0.1455 -2.6898  2.0217
  174MOL0     H23488   0.246   9.706  11.245 -1.4649  0.6560 -1.8083
  174MOL0     H23489   0.428   9.692  11.233  0.9600 -1.1729  1.2678
  174MOL0     H23490   0.323   9.752  11.096  1.0361  0.8878  1.0714
  175MOL0     O23491   0.725   9.612   3.247  0.0169 -0.1655  0.3811
  175MOL0     C23492   0.740   9.568   3.359 -0.0192 -0.7911 -0.3260
  175MOL0     O23493   0.858   9.586   3.436 -0.6513 -0.2548  0.7527
  175MOL0     C23494   0.954   9.663   3.372  0.8708  0.1834  0.0351
  175MOL0     C23495   1.034   9.613   3.272  0.2099 -0.2027  0.9190
  175MOL0     C23496   1.125   9.695   3.213 -0.2386 -0.7752  0.7933
  175MOL0     C23497   1.138   9.835   3.243  0.0964  0.2807 -0.1269
  175MOL0     O23498   1.230   9.920   3.176  0.5091 -0.1185  0.0906
  175MOL0     C23499   1.326   9.854   3.083 -0.3109  0.0891 -0.2004
  175MOL0     C23500   1.435   9.775   3.152  0.1068  0.0057  0.4115
  175MOL0     C23501   1.545   9.850   3.230 -0.9143  0.2947 -0.4597
  175MOL0     C23502   1.638   9.749   3.317  0.9745 -0.2419  0.0546
  175MOL0     C23503   1.683   9.622   3.226 -0.3446  1.1268 -0.9146
  175MOL0     C23504   1.760   9.645   3.098  0.9895 -0.1525  1.1151
  175MOL0     C23505   1.769   9.515   3.006 -0.6373 -0.8016 -0.1166
  175MOL0     C23506   1.867   9.412   3.063  0.2585  0.2283 -0.1270
  175MOL0     N23507   1.998   9.463   3.103  0.5802 -0.8285 -0.9258
  175MOL0     C23508   2.073   9.560   3.039  0.1891  0.3740 -0.2090
  175MOL0     C23509   2.196   9.561   3.106  0.3839  1.4673 -0.2923
  175MOL0     C23510   2.303   9.661   3.063 -0.0169  0.1861 -0.3732
  175MOL0     C23511   2.419   9.597   2.982  0.9871  0.5831 -0.4361
  175MOL0     C23512   2.502   9.505   3.076 -1.0623 -0.3205 -0.1800
  175MOL0     C23513   2.599   9.578   3.183 -0.1417 -0.2103 -0.6085
  175MOL0     O23514   2.720   9.493   3.199 -0.1698  0.7027  0.2228
  175MOL0     C23515   2.797   9.519   3.314  0.0785 -0.6378  0.4116
  175MOL0     C23516   2.892   9.623   3.310  0.0466 -1.1106 -0.0891
  175MOL0     C23517   2.966   9.659   3.422 -0.3781  0.8152  0.5230
  175MOL0     C23518   2.947   9.586   3.536 -0.1960 -0.5343  1.0811
  175MOL0     C23519   3.037   9.603   3.647  0.2657  0.7307  0.8719
  175MOL0     O23520   3.099   9.724   3.636 -0.1509 -0.5589  0.4265
  175MOL0     C23521   3.210   9.763   3.708  0.5661 -0.4215  0.2545
  175MOL0     C23522   3.268   9.697   3.813  0.3223 -0.2097 -0.1884
  175MOL0     C23523   3.387   9.738   3.866 -0.0587  0.4545 -0.6682
  175MOL0     C23524   3.448   9.866   3.834 -0.8255  0.5595  0.4665
  175MOL0     O23525   3.572   9.919   3.873 -0.5617  0.1356  0.3793
  175MOL0     C23526   3.627   9.875   3.997  1.3579 -0.0461  0.4142
  175MOL0     C23527   3.769   9.928   4.001  0.6838 -1.0272  0.3024
  175MOL0     C23528   3.849   9.885   4.119  0.0598 -0.5389  0.0578
  175MOL0     C23529   3.975   9.973   4.134 -0.0323 -0.2323  0.0861
  175MOL0     C23530   4.058   9.956   4.262  0.2106 -0.0446  0.3455
  175MOL0     C23531   3.981  10.000   4.386 -0.1151  1.6822  0.3985
  175MOL0     C23532   4.068   9.973   4.513 -0.2004  0.0036  0.5251
  175MOL0     C23533   3.980  10.002   4.631  0.2985  0.2369 -0.7280
  175MOL0    Cl23534   3.852   9.870   4.643 -0.1997  0.0067 -0.5059
  175MOL0     C23535   3.383   9.931   3.728 -0.9711 -0.8144 -0.6306
  175MOL0     C23536   3.270   9.877   3.666 -0.1212 -0.5396  0.3842
  175MOL0     O23537   3.061   9.510   3.716  0.4704  0.4729  0.2668
  175MOL0     C23538   2.856   9.474   3.539 -0.1078  0.3866 -0.6636
  175MOL0     C23539   2.772   9.448   3.434  0.0227  0.1415  0.0285
  175MOL0     N23540   2.170   9.467   3.211 -0.0000  0.5385  0.3304
  175MOL0     N23541   2.059   9.418   3.214 -0.6632 -0.7489 -0.2639
  175MOL0     C23542   1.050   9.884   3.343 -0.7647 -0.6380  0.0669
  175MOL0     C23543   0.962   9.799   3.410 -0.8681  0.1322  0.2862
  175MOL0     C23544   0.640   9.474   3.422 -0.2059  0.4742  0.2939
  175MOL0     C23545   0.683   9.423   3.547  0.4222  0.1463 -0.4248
  175MOL0     C23546   0.601   9.331   3.622 -0.0386  0.7280 -0.4722
  175MOL0     C23547   0.471   9.298   3.574  0.5496 -0.4379  0.6961
  175MOL0     O23548   0.405   9.203   3.641 -0.7604 -0.0044 -1.1544
  175MOL0     C23549   0.264   9.173   3.617  0.1830  0.0159 -0.3137
  175MOL0     C23550   0.234   9.055   3.539 -0.5323 -0.1040  0.1108
  175MOL0     C23551   0.313   8.926   3.573  0.8055 -0.3875 -0.5403
  175MOL0     C23552   0.252   8.816   3.502 -0.3203  0.3812 -0.1164
  175MOL0     C23553   0.144   8.742   3.573 -0.2647 -0.3302  0.2993
  175MOL0     C23554   0.056   8.677   3.626 -0.0539  0.7316 -1.6959
  175MOL0     C23555   0.436   9.351   3.446  0.6778  0.2773 -0.3747
  175MOL0     C23556   0.514   9.445   3.368  0.2761 -0.3523 -0.6803
  175MOL0     C23557   0.464   9.481   3.230 -0.4158 -0.7678 -1.2216
  175MOL0     H23558   1.014   9.513   3.235  3.2071  0.3242 -2.7741
  175MOL0     H23559   1.189   9.650   3.139  0.3310 -0.9720  1.3892
  175MOL0     H23560   1.278   9.795   3.004 -1.2138 -0.8012  0.9712
  175MOL0     H23561   1.375   9.939   3.034  1.8583 -0.0091  1.6049
  175MOL0     H23562   1.479   9.740   3.058 -2.7623  0.2103 -1.1430
  175MOL0     H23563   1.402   9.693   3.217  2.1532 -1.3848 -0.1938
  175MOL0     H23564   1.506   9.934   3.289 -0.8206  0.4005 -0.5453
  175MOL0     H23565   1.614   9.898   3.159  1.1038 -2.0762 -0.2518
  175MOL0     H23566   1.726   9.802   3.356  0.3006  1.8785 -1.1210
  175MOL0     H23567   1.599   9.706   3.409  3.8929 -0.2515  1.4018
  175MOL0     H23568   1.733   9.552   3.293 -1.1198 -0.2201 -1.7079
  175MOL0     H23569   1.589   9.571   3.201  0.9353 -1.0352 -1.5660
  175MOL0     H23570   1.698   9.719   3.048  0.1682 -0.6055  1.4535
  175MOL0     H23571   1.855   9.688   3.134  0.1529  0.6943  2.4020
  175MOL0     H23572   1.799   9.556   2.909  0.3135  1.1681  0.9426
  175MOL0     H23573   1.667   9.480   2.992 -0.4432 -0.7594 -1.9807
  175MOL0     H23574   1.823   9.371   3.155 -3.7330  1.6573 -1.1611
  175MOL0     H23575   1.878   9.338   2.983  2.0131  2.5714 -2.1951
  175MOL0     H23576   2.038   9.631   2.965 -3.1565 -2.2864 -1.4617
  175MOL0     H23577   2.260   9.746   3.009 -2.7453 -0.2447  0.9304
  175MOL0     H23578   2.339   9.718   3.149 -3.2578  1.3999  0.3205
  175MOL0     H23579   2.372   9.533   2.906 -0.7489 -0.1748  1.1881
  175MOL0     H23580   2.478   9.681   2.946 -1.7751  2.4002 -1.0178
  175MOL0     H23581   2.568   9.447   3.011 -1.1443  1.4044 -1.8991
  175MOL0     H23582   2.451   9.440   3.147  0.1673  0.4862  1.5340
  175MOL0     H23583   2.549   9.576   3.280  0.1215 -1.3224 -0.4755
  175MOL0     H23584   2.633   9.677   3.151  0.9899 -0.6619 -0.8821
  175MOL0     H23585   2.907   9.675   3.216 -0.1661 -0.4292  0.2499
  175MOL0     H23586   3.043   9.734   3.410  1.6454 -0.8911  1.9940
  175MOL0     H23587   3.219   9.611   3.858  0.1635 -1.0591 -1.8771
  175MOL0     H23588   3.424   9.673   3.945  1.0299  0.2719 -1.3096
  175MOL0     H23589   3.559   9.912   4.073  1.2411  1.5925 -0.4402
  175MOL0     H23590   3.620   9.766   3.994  1.4989 -0.0900  1.3541
  175MOL0     H23591   3.809   9.893   3.905  1.5251 -0.9637  0.6191
  175MOL0     H23592   3.772  10.036   3.983  1.6545 -1.0857  0.0397
  175MOL0     H23593   3.788   9.896   4.209 -1.3143  0.7248 -1.0008
  175MOL0     H23594   3.894   9.785   4.111  2.0927  0.3274 -0.0996
  175MOL0     H23595   3.943  10.077   4.121 -1.4307 -0.6742 -0.2520
  175MOL0     H23596   4.042   9.953   4.050  1.0913  2.9707  0.0993
  175MOL0     H23597   4.152  10.011   4.256  0.6040 -0.6098  1.3137
  175MOL0     H23598   4.083   9.851   4.276  2.7902  0.6559  1.5369
  175MOL0     H23599   3.959  10.107   4.384 -0.6404  1.5758  0.2271
  175MOL0     H23600   3.889   9.942   4.400  1.6547 -1.1814  1.1168
  175MOL0     H23601   4.162  10.028   4.517  0.3451 -0.9768  2.6029
  175MOL0     H23602   4.101   9.869   4.521  4.0452  1.0504 -0.7672
  175MOL0     H23603   4.043  10.016   4.719 -3.7465  1.7728  2.2424
  175MOL0     H23604   3.929  10.098   4.626 -1.4156 -0.6112 -0.3787
  175MOL0     H23605   3.429  10.025   3.701  0.7531 -1.5231 -0.3362
  175MOL0     H23606   3.230   9.927   3.578 -0.6274 -0.1391  0.8386
  175MOL0     H23607   2.847   9.412   3.627 -0.7994  1.1851 -0.1599
  175MOL0     H23608   2.696   9.371   3.430  1.5112 -1.5296  1.6921
  175MOL0     H23609   1.053   9.987   3.375 -0.3761 -1.0742  1.5611
  175MOL0     H23610   0.892   9.836   3.484  1.6274  3.1146  1.3603
  175MOL0     H23611   0.775   9.445   3.600  1.0261 -2.4456 -0.2867
  175MOL0     H23612   0.644   9.297   3.715 -0.7610  1.3551  0.1054
  175MOL0     H23613   0.211   9.260   3.578  0.7676  0.1359 -0.8458
  175MOL0     H23614   0.228   9.140   3.715  1.0347 -2.0446 -0.6330
  175MOL0     H23615   0.254   9.072   3.433 -0.3054  0.2417  0.2064
  175MOL0     H23616   0.127   9.036   3.550 -0.6400  1.1741  1.6269
  175MOL0     H23617   0.295   8.899   3.678 -2.6733 -1.1940 -1.1894
  175MOL0     H23618   0.419   8.944   3.557  1.2019 -0.1520  2.0143
  175MOL0     H23619   0.220   8.852   3.404 -0.9317  1.8937  0.5976
  175MOL0     H23620   0.336   8.747   3.490  0.3992  1.1817  0.2338
  175MOL0     H23621  -0.015   8.610   3.671  0.0744  3.2406  2.8758
  175MOL0     H23622   0.349   9.316   3.391 -0.8901  3.0952  0.1010
  175MOL0     H23623   0.435   9.587   3.231 -0.4641 -0.7795  0.1186
  175MOL0     H23624   0.538   9.459   3.153 -0.8273 -0.6723 -1.6530
  175MOL0     H23625   0.373   9.426   3.204  0.4109 -1.7442 -2.1272
  176MOL0     O23626  10.393   5.465   7.817  0.6072 -0.5788  0.0381
  176MOL0     C23627  10.471   5.530   7.893 -0.6811  0.6348  0.1134
  176MOL0     O23628  10.538   5.643   7.861 -0.1321  0.2654 -0.5706
  176MOL0     C23629  10.533   5.692   7.736  0.2530  0.1055 -0.9371
  176MOL0     C23630  10.573   5.626   7.617 -0.3132 -0.1481 -0.2588
  176MOL0     C23631  10.569   5.700   7.500 -0.4835  0.3686 -0.1114
  176MOL0     C23632  10.524   5.835   7.494 -0.1349  0.2700 -0.0488
  176MOL0     O23633  10.541   5.915   7.381  0.4883  0.6104 -0.0766
  176MOL0     C23634  10.671   5.896   7.319  0.4979 -0.6593  0.7144
  176MOL0     C23635  10.684   6.001   7.210  0.0266  0.0477  0.3523
  176MOL0     C23636  10.574   5.973   7.103  0.0170 -0.8127  0.1394
  176MOL0     C23637  10.576   6.086   7.001  0.1522 -0.4887  0.2573
  176MOL0     C23638  10.495   6.051   6.882 -0.3770  0.7887  0.1215
  176MOL0     C23639  10.453   6.182   6.809 -0.1673 -0.3232 -1.1111
  176MOL0     C23640  10.331   6.143   6.714  0.6052  0.7210 -0.5232
  176MOL0     C23641  10.280   6.265   6.634  0.4235 -1.0255 -0.2073
  176MOL0     N23642  10.182   6.344   6.714 -0.0236 -1.8299 -0.2248
  176MOL0     C23643  10.211   6.397   6.842 -0.0414  0.5231  0.0488
  176MOL0     C23644  10.105   6.474   6.869 -0.6513 -0.1702 -0.2047
  176MOL0     C23645  10.064   6.564   6.983 -0.1829 -0.1678  0.3727
  176MOL0     C23646   9.966   6.496   7.093 -0.2418  0.4704  0.1102
  176MOL0     C23647   9.896   6.600   7.183  0.0938  0.0453  0.5740
  176MOL0     C23648   9.982   6.634   7.310  0.5691  0.3868  0.2606
  176MOL0     O23649   9.893   6.722   7.384 -0.2194 -0.2495 -0.3822
  176MOL0     C23650   9.892   6.722   7.527 -0.4340 -0.5891 -0.0742
  176MOL0     C23651   9.997   6.680   7.612 -0.2840  0.5222 -0.9478
  176MOL0     C23652   9.986   6.716   7.752  0.5214 -0.4933  0.0094
  176MOL0     C23653   9.857   6.765   7.799  0.8005 -0.1285  0.1709
  176MOL0     C23654   9.840   6.817   7.935  0.0326 -0.2241 -0.2378
  176MOL0     O23655   9.719   6.863   7.963  0.7356  0.0944 -0.0286
  176MOL0     C23656   9.697   6.932   8.081 -0.0612 -0.1608 -0.7022
  176MOL0     C23657   9.698   6.855   8.199  0.4448 -0.6635 -0.2653
  176MOL0     C23658   9.670   6.918   8.321  0.2885  0.2632 -0.1021
  176MOL0     C23659   9.627   7.048   8.326 -0.6486 -1.0292 -0.3681
  176MOL0     O23660   9.594   7.105   8.446 -0.1293 -0.2796 -0.7649
  176MOL0     C23661   9.698   7.101   8.548 -0.1407  0.6982  0.1238
  176MOL0     C23662   9.637   7.169   8.662 -0.4859 -0.2412  0.2592
  176MOL0     C23663   9.750   7.194   8.762 -0.3614 -0.8755 -0.0773
  176MOL0     C23664   9.696   7.210   8.898  0.7799  0.1425  0.4153
  176MOL0     C23665   9.777   7.308   8.988 -1.3801  0.3362 -0.4108
  176MOL0     C23666   9.735   7.304   9.138  0.1653 -0.1644 -0.2409
  176MOL0     C23667   9.780   7.180   9.207  0.2316  0.7473 -0.1833
  176MOL0     C23668   9.730   7.175   9.356 -0.5341  0.3368  0.0881
  176MOL0    Cl23669   9.810   7.310   9.452  0.2826 -0.1428  0.4465
  176MOL0     C23670   9.629   7.124   8.211 -0.9116  0.5704 -0.1782
  176MOL0     C23671   9.660   7.070   8.090  0.5261 -0.0241  1.1963
  176MOL0     O23672   9.940   6.823   8.009 -0.2949  0.2511  0.4454
  176MOL0     C23673   9.755   6.796   7.711  0.3263  0.5119 -0.5778
  176MOL0     C23674   9.778   6.785   7.570  0.7191  0.4756 -0.6904
  176MOL0     N23675  10.023   6.463   6.756 -0.6644 -0.1416 -0.6085
  176MOL0     N23676  10.073   6.398   6.660  0.3220  0.3940  0.8068
  176MOL0     C23677  10.468   5.892   7.613  0.5184 -0.3937  0.3361
  176MOL0     C23678  10.470   5.818   7.736 -0.2572 -0.2159 -0.6489
  176MOL0     C23679  10.497   5.485   8.041  0.2344  0.2726  0.6421
  176MOL0     C23680  10.605   5.539   8.114  0.0007  0.0571 -0.3389
  176MOL0     C23681  10.619   5.506   8.252  0.3053 -0.3459  0.0815
  176MOL0     C23682  10.538   5.420   8.316 -0.5355 -0.7517 -0.5473
  176MOL0     O23683  10.571   5.385   8.447 -0.7163 -0.5951 -0.1987
  176MOL0     C23684  10.471   5.375   8.543  0.4009 -0.3341  0.7119
  176MOL0     C23685  10.527   5.382   8.677  0.1494  0.9903 -0.3775
  176MOL0     C23686  10.587   5.518   8.713 -1.6445  0.0662  0.0906
  176MOL0     C23687  10.480   5.611   8.753  0.4851  0.8835 -0.1183
  176MOL0     C23688  10.557   5.736   8.776  0.1277 -0.2425  1.1620
  176MOL0     C23689  10.615   5.847   8.800  0.4306  0.0255  0.1134
  176MOL0     C23690  10.427   5.365   8.247  0.4297  0.3778  0.2232
  176MOL0     C23691  10.416   5.390   8.108  0.0587  0.0149 -0.0914
  176MOL0     C23692  10.314   5.311   8.044 -0.1843 -0.8000  0.5148
  176MOL0     H23693  10.614   5.525   7.613 -0.1298 -0.0449 -1.3183
  176MOL0     H23694  10.597   5.659   7.403 -3.3750  0.7017 -1.1994
  176MOL0     H23695  10.762   5.900   7.379  1.2540 -0.5798 -0.4012
  176MOL0     H23696  10.673   5.798   7.270 -0.9640  0.2551 -1.3423
  176MOL0     H23697  10.780   6.011   7.158 -0.3834  1.4293 -0.1943
  176MOL0     H23698  10.692   6.098   7.260  4.0980 -0.2599  0.6693
  176MOL0     H23699  10.477   5.971   7.154 -0.4443 -0.8819 -0.7175
  176MOL0     H23700  10.597   5.879   7.052 -1.5336 -2.4800  2.3450
  176MOL0     H23701  10.534   6.175   7.051 -0.5552 -0.3746 -0.5228
  176MOL0     H23702  10.678   6.118   6.981 -0.6900  2.2541 -0.0554
  176MOL0     H23703  10.547   5.981   6.817 -0.3529 -0.8651  1.8394
  176MOL0     H23704  10.403   6.009   6.922 -0.2119 -0.4858 -0.7658
  176MOL0     H23705  10.426   6.259   6.881  1.2828  0.9359 -1.8426
  176MOL0     H23706  10.540   6.216   6.751 -0.2401  1.4702 -0.2328
  176MOL0     H23707  10.246   6.095   6.763 -0.1655  2.5396 -0.0271
  176MOL0     H23708  10.377   6.062   6.656  2.3731 -0.8038  2.7352
  176MOL0     H23709  10.362   6.331   6.605 -1.0013  0.0702 -2.0078
  176MOL0     H23710  10.226   6.223   6.549  2.6417 -1.6006 -1.3889
  176MOL0     H23711  10.292   6.387   6.914  2.6398 -1.3364 -2.9686
  176MOL0     H23712  10.150   6.597   7.042 -1.1881 -0.9341  2.3318
  176MOL0     H23713  10.008   6.655   6.960 -1.5165  0.5256  5.3548
  176MOL0     H23714   9.896   6.440   7.031  0.5664  0.8437 -1.1664
  176MOL0     H23715  10.027   6.423   7.146  2.0784 -0.3633 -3.4217
  176MOL0     H23716   9.804   6.557   7.224  0.6390 -2.4196 -0.5965
  176MOL0     H23717   9.874   6.689   7.122 -0.6363  0.7090  1.7643
  176MOL0     H23718  10.079   6.679   7.288  1.8213 -2.1583  0.1882
  176MOL0     H23719  10.001   6.538   7.359  2.2796  0.4624 -0.2233
  176MOL0     H23720  10.079   6.636   7.556 -1.5561  0.1062 -2.5638
  176MOL0     H23721  10.048   6.695   7.839 -1.5115 -0.8242  1.4422
  176MOL0     H23722   9.721   6.749   8.196 -1.4072 -1.1447  1.0737
  176MOL0     H23723   9.683   6.860   8.412  1.0679  0.6911  0.0628
  176MOL0     H23724   9.726   6.999   8.575  0.8328  1.1625  0.9283
  176MOL0     H23725   9.787   7.151   8.508  1.3704 -2.4849 -0.8527
  176MOL0     H23726   9.600   7.267   8.629  2.8726  0.7249 -1.1561
  176MOL0     H23727   9.556   7.106   8.699 -1.4806 -1.0279 -2.9505
  176MOL0     H23728   9.823   7.114   8.768  0.6658  0.1246  2.7847
  176MOL0     H23729   9.798   7.291   8.746 -2.2466  0.4201  1.4741
  176MOL0     H23730   9.694   7.109   8.939 -1.8707 -1.0174 -2.1941
  176MOL0     H23731   9.591   7.241   8.900  0.4126 -1.0003 -0.2067
  176MOL0     H23732   9.761   7.411   8.952 -1.1140 -0.3602 -2.7024
  176MOL0     H23733   9.883   7.283   8.983 -1.1914  1.2301 -1.2661
  176MOL0     H23734   9.785   7.384   9.193  0.8635  1.0308 -2.4989
  176MOL0     H23735   9.629   7.322   9.158 -0.7693 -3.6147 -1.2819
  176MOL0     H23736   9.888   7.170   9.196  0.3374 -1.0317  1.8651
  176MOL0     H23737   9.738   7.094   9.153  1.5780 -0.3946  0.5219
  176MOL0     H23738   9.622   7.191   9.345 -1.1492 -3.9079 -2.4039
  176MOL0     H23739   9.742   7.078   9.404 -2.3982  0.7933  1.5621
  176MOL0     H23740   9.595   7.226   8.218  3.4609  2.3730 -1.7631
  176MOL0     H23741   9.659   7.132   8.001  0.7996 -3.1672 -1.1953
  176MOL0     H23742   9.659   6.833   7.744  0.7102  0.6553  0.4193
  176MOL0     H23743   9.695   6.804   7.502 -0.5864 -2.0718  0.0591
  176MOL0     H23744  10.415   5.987   7.608  1.2576 -0.0359 -2.6015
  176MOL0     H23745  10.447   5.857   7.835  2.5658 -0.2615  0.1088
  176MOL0     H23746  10.680   5.610   8.078  0.7041  0.3437  1.5741
  176MOL0     H23747  10.710   5.553   8.287 -0.4824  1.6313 -0.3792
  176MOL0     H23748  10.421   5.278   8.534  0.4399 -0.2771 -0.1927
  176MOL0     H23749  10.401   5.459   8.539  0.8360  0.0478  1.0031
  176MOL0     H23750  10.606   5.307   8.685  0.6680  1.6743  1.4461
  176MOL0     H23751  10.458   5.344   8.753  1.3073 -3.0668 -1.0893
  176MOL0     H23752  10.652   5.550   8.632  0.6578 -2.0216  0.9963
  176MOL0     H23753  10.668   5.510   8.786 -0.8148 -3.7083 -1.0132
  176MOL0     H23754  10.393   5.619   8.688  0.8555  1.4606 -0.5549
  176MOL0     H23755  10.447   5.575   8.851  1.5735 -0.9403 -0.3811
  176MOL0     H23756  10.656   5.943   8.821  1.8364 -0.3597 -0.7429
  176MOL0     H23757  10.362   5.290   8.292  0.3822  0.2045 -0.1325
  176MOL0     H23758  10.359   5.272   7.953  2.8942 -0.4314  1.7485
  176MOL0     H23759  10.270   5.232   8.106 -1.8510 -2.4628 -2.5717
  176MOL0     H23760  10.235   5.384   8.022  0.5552  0.8280  2.8506
  177MOL0     O23761   8.596   3.075   1.090 -0.5272 -0.5842 -0.3000
  177MOL0     C23762   8.522   3.013   1.164  0.2332 -0.8985  0.0824
  177MOL0     O23763   8.414   2.940   1.131  0.2300 -0.2430 -0.9576
  177MOL0     C23764   8.352   2.934   1.017  0.0119  0.0639  0.2209
  177MOL0     C23765   8.407   2.970   0.896  0.3070  0.2677  0.1627
  177MOL0     C23766   8.337   2.976   0.780  0.5925  0.9496  0.6424
  177MOL0     C23767   8.208   2.940   0.776 -0.4517 -0.6716 -0.3116
  177MOL0     O23768   8.141   2.931   0.660 -0.3978  0.1753 -0.0963
  177MOL0     C23769   8.166   3.030   0.559  0.3442  0.0643  0.0238
  177MOL0     C23770   8.083   2.986   0.446 -0.0031 -0.6814  1.5800
  177MOL0     C23771   8.157   2.894   0.345 -0.2147  0.0592 -0.0582
  177MOL0     C23772   8.066   2.788   0.298  0.5104  0.3011 -0.2164
  177MOL0     C23773   8.130   2.683   0.204  0.1049 -1.1781 -0.3276
  177MOL0     C23774   8.274   2.655   0.196 -0.8563 -0.8166  0.4979
  177MOL0     C23775   8.317   2.563   0.085 -0.1471 -0.3987  1.3769
  177MOL0     C23776   8.251   2.426   0.102  0.3301  0.5922  0.2623
  177MOL0     N23777   8.320   2.317   0.031 -0.3929 -0.5839 -0.1697
  177MOL0     C23778   8.397   2.221   0.099  0.2850 -0.4933  0.7120
  177MOL0     C23779   8.445   2.153  -0.011  0.5088 -0.2064  0.6609
  177MOL0     C23780   8.533   2.033   0.008  0.5369 -0.6731 -0.8128
  177MOL0     C23781   8.443   1.932   0.074  0.3331  0.7894 -0.3372
  177MOL0     C23782   8.484   1.784   0.089  0.3189  0.3166 -0.1730
  177MOL0     C23783   8.623   1.767   0.149 -0.4504  0.1025 -0.5824
  177MOL0     O23784   8.644   1.869   0.240 -0.0647  0.7543 -0.8964
  177MOL0     C23785   8.748   1.867   0.326  0.1804 -0.4112 -0.2755
  177MOL0     C23786   8.755   1.987   0.399 -0.6706 -0.5378 -0.3497
  177MOL0     C23787   8.860   2.011   0.489 -0.4284  0.2373  0.5316
  177MOL0     C23788   8.955   1.904   0.520  0.3716 -0.4487  0.0645
  177MOL0     C23789   9.056   1.933   0.629  0.3787  0.1949 -1.1044
  177MOL0     O23790   9.089   2.063   0.654  0.3978  0.4755  0.6510
  177MOL0     C23791   9.183   2.070   0.742 -0.4754  1.0322 -0.2717
  177MOL0     C23792   9.321   2.062   0.713 -0.2266  0.2386  0.4940
  177MOL0     C23793   9.413   2.043   0.814  0.3548 -0.2693 -0.0015
  177MOL0     C23794   9.384   2.042   0.948  0.4922  0.6334 -0.1578
  177MOL0     O23795   9.485   2.034   1.036 -0.2281 -0.0909  0.0042
  177MOL0     C23796   9.477   2.080   1.171 -0.1299 -0.7105 -0.0979
  177MOL0     C23797   9.478   2.230   1.178  0.6927 -0.5877  0.2077
  177MOL0     C23798   9.607   2.293   1.115  0.0251  0.0006 -0.1038
  177MOL0     C23799   9.610   2.443   1.088 -0.3349 -0.1145 -0.3708
  177MOL0     C23800   9.730   2.525   1.145  0.5732 -0.0823 -0.4340
  177MOL0     C23801   9.712   2.535   1.296  0.6059  0.9124 -0.1453
  177MOL0     C23802   9.809   2.627   1.366  0.7329  0.0005  0.6044
  177MOL0     C23803   9.957   2.593   1.332 -0.1428  0.1560 -0.1681
  177MOL0    Cl23804  10.004   2.422   1.354  0.2611  0.5667  0.3378
  177MOL0     C23805   9.245   2.055   0.974 -0.4899  0.3146  0.4907
  177MOL0     C23806   9.150   2.061   0.875  0.3606  0.2956  0.3870
  177MOL0     O23807   9.100   1.832   0.698 -0.4546 -0.5480 -1.0168
  177MOL0     C23808   8.938   1.775   0.458  0.3965  0.3339 -0.1866
  177MOL0     C23809   8.839   1.767   0.361  0.6054 -0.5128  0.7908
  177MOL0     N23810   8.419   2.221  -0.128  0.1176 -1.0134  0.5270
  177MOL0     N23811   8.333   2.313  -0.101  0.3576 -0.1995  0.7593
  177MOL0     C23812   8.141   2.897   0.895 -0.4385  0.2780  0.4684
  177MOL0     C23813   8.226   2.870   1.007 -0.3850  0.6837 -0.2096
  177MOL0     C23814   8.547   3.009   1.317  0.1169 -0.0332  0.3681
  177MOL0     C23815   8.485   2.906   1.391  0.1685  0.1958  1.3136
  177MOL0     C23816   8.503   2.898   1.525  0.4813 -0.2674  0.1221
  177MOL0     C23817   8.573   2.998   1.593  0.4293  0.2747 -0.8534
  177MOL0     O23818   8.566   2.985   1.731  0.3643  0.8400  0.0755
  177MOL0     C23819   8.643   3.070   1.821  0.3841 -0.2319  0.7707
  177MOL0     C23820   8.645   3.001   1.962 -0.0090  0.1074 -0.1490
  177MOL0     C23821   8.731   3.090   2.062 -0.3021  0.5008  0.3065
  177MOL0     C23822   8.735   3.027   2.201  0.0508  0.2722  0.4885
  177MOL0     C23823   8.781   3.101   2.314  0.1375  0.8410 -0.8668
  177MOL0     C23824   8.829   3.160   2.407  0.3066 -0.0088  0.8658
  177MOL0     C23825   8.638   3.099   1.526 -0.6607  0.3830  0.3253
  177MOL0     C23826   8.632   3.103   1.384  0.6892  0.1619 -0.3479
  177MOL0     C23827   8.703   3.210   1.324 -0.6470 -0.3387 -0.3025
  177MOL0     H23828   8.512   2.997   0.887 -0.1125  1.1729 -3.2015
  177MOL0     H23829   8.394   3.006   0.693 -0.5011 -0.5640 -0.6558
  177MOL0     H23830   8.132   3.110   0.626  3.4133  1.4139  0.1120
  177MOL0     H23831   8.271   3.045   0.534  0.1874 -3.7498 -3.9736
  177MOL0     H23832   8.080   3.079   0.387  2.4447  0.3007  2.8779
  177MOL0     H23833   7.985   2.940   0.463 -0.3787 -1.3903 -1.7403
  177MOL0     H23834   8.235   2.836   0.396 -0.8578 -0.2954  0.5325
  177MOL0     H23835   8.204   2.950   0.263  0.7687 -3.1726 -1.8851
  177MOL0     H23836   8.042   2.725   0.384  3.7082 -1.8830 -0.7757
  177MOL0     H23837   7.982   2.846   0.257  1.9682  1.9081 -1.0536
  177MOL0     H23838   8.073   2.592   0.227 -1.7589 -0.6444 -2.4471
  177MOL0     H23839   8.103   2.703   0.099 -0.3502 -2.1668 -0.4114
  177MOL0     H23840   8.316   2.754   0.176 -0.7710 -0.5826  1.7215
  177MOL0     H23841   8.302   2.608   0.291  0.8293 -3.5195 -1.2312
  177MOL0     H23842   8.424   2.540   0.087 -0.5480 -2.9513 -0.7273
  177MOL0     H23843   8.297   2.601  -0.015 -0.6145 -0.3188  1.4991
  177MOL0     H23844   8.241   2.408   0.210  0.6628 -2.1262 -0.0709
  177MOL0     H23845   8.149   2.428   0.064  1.6806 -1.4864 -4.2599
  177MOL0     H23846   8.390   2.200   0.205 -0.1642 -2.1200  0.3929
  177MOL0     H23847   8.549   1.984  -0.089 -0.2898 -3.2259  0.2325
  177MOL0     H23848   8.620   2.050   0.072  0.5927 -0.1554 -1.0237
  177MOL0     H23849   8.443   1.979   0.173  1.6146 -0.8866  0.4954
  177MOL0     H23850   8.344   1.939   0.029 -0.4891  2.7477  1.5519
  177MOL0     H23851   8.488   1.734  -0.008 -0.9546  1.8605 -1.0713
  177MOL0     H23852   8.415   1.740   0.161  2.5811 -0.3710  1.7057
  177MOL0     H23853   8.706   1.764   0.079  0.1224  0.8615  0.0323
  177MOL0     H23854   8.616   1.668   0.194 -1.6732 -0.1771 -1.3315
  177MOL0     H23855   8.681   2.066   0.386  0.6517  1.0216  1.1389
  177MOL0     H23856   8.883   2.111   0.525  1.9157  0.3961 -1.1550
  177MOL0     H23857   9.350   2.037   0.611  0.5514 -2.2038  1.2337
  177MOL0     H23858   9.511   2.028   0.769  1.4170 -0.9493  2.3471
  177MOL0     H23859   9.397   2.041   1.235  0.9329 -0.6839  1.2826
  177MOL0     H23860   9.574   2.050   1.212  0.2300  0.1329 -0.3024
  177MOL0     H23861   9.393   2.258   1.115  2.2057 -2.5465 -2.9472
  177MOL0     H23862   9.476   2.255   1.284  0.6233 -1.2769  0.3777
  177MOL0     H23863   9.695   2.270   1.176 -0.4687  0.5172  0.8306
  177MOL0     H23864   9.618   2.253   1.014 -2.7360  0.9072 -0.8389
  177MOL0     H23865   9.515   2.480   1.127  0.5705 -0.2517  2.1690
  177MOL0     H23866   9.613   2.447   0.979  2.9929 -1.8623 -0.4751
  177MOL0     H23867   9.731   2.626   1.104 -3.1744  2.6793  5.0480
  177MOL0     H23868   9.823   2.475   1.116 -0.7003 -1.0109 -3.3186
  177MOL0     H23869   9.611   2.572   1.317  0.7225 -0.0886  2.6447
  177MOL0     H23870   9.718   2.436   1.344  0.5272  1.5799  1.3092
  177MOL0     H23871   9.785   2.620   1.472 -0.5124 -0.4050  0.3063
  177MOL0     H23872   9.784   2.730   1.341 -2.6350 -0.1185  2.9034
  177MOL0     H23873   9.978   2.638   1.235  1.4982  0.6819  0.3882
  177MOL0     H23874  10.006   2.650   1.412 -0.4416  0.2770 -0.0711
  177MOL0     H23875   9.224   2.039   1.079  2.2828 -1.9811  0.8279
  177MOL0     H23876   9.046   2.048   0.900  1.0001 -1.4876  2.3922
  177MOL0     H23877   9.005   1.694   0.484  0.3799  0.7011  1.0738
  177MOL0     H23878   8.820   1.668   0.320  0.1607  0.3335 -1.1418
  177MOL0     H23879   8.036   2.873   0.891  0.3912 -4.3482  0.4629
  177MOL0     H23880   8.183   2.809   1.087  0.7047 -1.5614 -1.2245
  177MOL0     H23881   8.414   2.837   1.347 -3.0912  4.2184 -0.5248
  177MOL0     H23882   8.451   2.812   1.568  1.4770 -1.7508 -1.4973
  177MOL0     H23883   8.581   3.160   1.822 -0.7718 -0.9789 -0.6653
  177MOL0     H23884   8.739   3.095   1.774 -0.7692 -1.4240 -2.5529
  177MOL0     H23885   8.670   2.894   1.965 -2.1184 -0.4529 -1.0687
  177MOL0     H23886   8.540   3.001   1.992 -0.0204 -0.7757 -0.1479
  177MOL0     H23887   8.678   3.184   2.073 -1.4987  0.6483 -4.3342
  177MOL0     H23888   8.834   3.105   2.026  0.5243  1.4169  2.8690
  177MOL0     H23889   8.636   2.992   2.229  0.7984 -0.3754  2.5734
  177MOL0     H23890   8.797   2.938   2.185 -1.5557 -0.9454  0.8113
  177MOL0     H23891   8.882   3.217   2.481  1.6303 -1.6343  1.2346
  177MOL0     H23892   8.681   3.180   1.584 -0.5259 -0.3199  1.2263
  177MOL0     H23893   8.629   3.280   1.284  1.7636  1.3580 -2.1097
  177MOL0     H23894   8.753   3.280   1.392 -1.6326  1.1788 -1.0767
  177MOL0     H23895   8.778   3.182   1.249  1.2251  2.1421  0.4873
  178MOL0     O23896   4.312   3.737   0.070  0.0411  0.5175  0.4307
  178MOL0     C23897   4.290   3.810   0.165 -0.6958  0.0157  0.0310
  178MOL0     O23898   4.382   3.853   0.252 -0.2767 -0.5130  0.5303
  178MOL0     C23899   4.496   3.777   0.272  1.4721 -0.1335  0.4347
  178MOL0     C23900   4.508   3.638   0.275 -0.0784 -0.3203 -0.5618
  178MOL0     C23901   4.630   3.560   0.306 -0.0057  0.6941 -0.4259
  178MOL0     C23902   4.741   3.637   0.327 -0.5064  1.7516 -1.1133
  178MOL0     O23903   4.856   3.589   0.373 -0.4009  0.2901 -0.7260
  178MOL0     C23904   4.883   3.448   0.369 -0.7511 -0.6645 -0.0575
  178MOL0     C23905   5.007   3.434   0.449 -0.2209 -0.2379  0.4193
  178MOL0     C23906   5.089   3.311   0.392 -0.4338  0.2222 -0.2476
  178MOL0     C23907   5.030   3.181   0.433  0.5275 -0.2998  0.0105
  178MOL0     C23908   5.077   3.060   0.340  0.4781 -0.4050 -0.1482
  178MOL0     C23909   5.078   2.921   0.413  0.2343  0.5228  0.0673
  178MOL0     C23910   5.197   2.904   0.510  0.4734 -0.2239  0.5428
  178MOL0     C23911   5.182   2.778   0.581  0.8582 -0.9332 -0.6336
  178MOL0     N23912   5.299   2.734   0.655 -0.1610 -0.6085 -1.1482
  178MOL0     C23913   5.339   2.598   0.686  0.3838 -0.8994 -0.0945
  178MOL0     C23914   5.457   2.607   0.750  0.2698  0.1479 -0.9991
  178MOL0     C23915   5.532   2.493   0.816  0.1152 -0.5327 -0.3533
  178MOL0     C23916   5.590   2.390   0.718 -0.4080 -0.8500 -0.1406
  178MOL0     C23917   5.716   2.441   0.651 -0.1312  0.4237  0.0817
  178MOL0     C23918   5.801   2.344   0.575 -0.6369 -0.9588 -0.1514
  178MOL0     O23919   5.725   2.299   0.470  0.0307 -0.2722  0.6386
  178MOL0     C23920   5.741   2.360   0.348  0.5682  0.0941  0.6666
  178MOL0     C23921   5.672   2.298   0.240  0.2134 -1.1939 -0.7869
  178MOL0     C23922   5.660   2.348   0.116  1.0297 -0.0452 -1.1128
  178MOL0     C23923   5.719   2.472   0.095  0.8355  0.4961  0.2473
  178MOL0     C23924   5.695   2.534  -0.029 -0.6017  0.7829  0.2520
  178MOL0     O23925   5.738   2.660  -0.042  0.2612 -0.2150  0.8363
  178MOL0     C23926   5.698   2.726  -0.158 -0.1574  0.5964  1.2902
  178MOL0     C23927   5.796   2.802  -0.222 -0.2278  0.3407  0.4410
  178MOL0     C23928   5.767   2.875  -0.343 -0.5421  0.2134  0.9348
  178MOL0     C23929   5.638   2.889  -0.398 -0.2129  0.2903 -0.0855
  178MOL0     O23930   5.615   2.977  -0.498  0.5779  0.2909  0.0841
  178MOL0     C23931   5.517   2.929  -0.594  0.1231 -0.3086 -0.5408
  178MOL0     C23932   5.593   2.899  -0.727  0.4588  0.1625  1.0738
  178MOL0     C23933   5.695   2.778  -0.727  0.5750 -0.2507  0.2388
  178MOL0     C23934   5.769   2.765  -0.851  0.0494 -0.2260 -0.3800
  178MOL0     C23935   5.917   2.755  -0.842  0.4125 -0.1781 -0.4590
  178MOL0     C23936   6.013   2.872  -0.797  0.3656  0.6017  0.1952
  178MOL0     C23937   5.979   2.995  -0.888  0.1308  0.7345  0.0965
  178MOL0     C23938   6.098   3.088  -0.903  0.1092 -0.9208  1.1304
  178MOL0    Cl23939   6.044   3.248  -0.957  0.3745 -0.4738  0.1305
  178MOL0     C23940   5.540   2.826  -0.320 -0.1399 -0.3202 -1.0358
  178MOL0     C23941   5.564   2.744  -0.201 -0.6280  0.2390 -0.1296
  178MOL0     O23942   5.650   2.464  -0.125  0.2840 -0.6614  0.4154
  178MOL0     C23943   5.791   2.543   0.199 -0.0617 -0.2327 -0.4042
  178MOL0     C23944   5.792   2.489   0.328 -0.4846  0.2982 -1.6582
  178MOL0     N23945   5.498   2.738   0.749 -0.0062 -0.0454  0.3374
  178MOL0     N23946   5.401   2.809   0.703 -0.1562 -0.5942  0.4887
  178MOL0     C23947   4.732   3.779   0.320 -0.8592  0.2631  0.1086
  178MOL0     C23948   4.615   3.843   0.297  0.9193 -0.7820 -0.0680
  178MOL0     C23949   4.162   3.864   0.172 -0.0878  0.5440 -0.5588
  178MOL0     C23950   4.086   3.823   0.283 -0.1703  0.7695  0.4540
  178MOL0     C23951   3.960   3.883   0.302 -0.4722  0.8304 -0.6629
  178MOL0     C23952   3.912   3.985   0.218  0.0985 -0.0290  0.0547
  178MOL0     O23953   3.788   4.045   0.245  0.6753 -0.3422  0.9003
  178MOL0     C23954   3.732   4.153   0.167  0.1839 -0.5643 -0.1576
  178MOL0     C23955   3.796   4.292   0.196  0.7644 -0.0816  1.2828
  178MOL0     C23956   3.725   4.416   0.151 -0.3179  0.1947  0.6620
  178MOL0     C23957   3.705   4.410  -0.002 -0.2381  0.2060 -0.8100
  178MOL0     C23958   3.579   4.488  -0.027 -0.9905  1.1026 -0.4501
  178MOL0     C23959   3.490   4.562  -0.058 -1.0378  0.0751 -0.3460
  178MOL0     C23960   3.996   4.036   0.120 -0.0224 -0.6837  0.5046
  178MOL0     C23961   4.111   3.963   0.090 -0.4649  0.5743  0.1423
  178MOL0     C23962   4.194   4.008  -0.029 -0.0001 -0.7752  0.3211
  178MOL0     H23963   4.415   3.592   0.245 -1.8527  2.5758  0.1306
  178MOL0     H23964   4.629   3.453   0.329  4.5472  0.5622  0.0192
  178MOL0     H23965   4.804   3.386   0.410  0.6986 -1.6515  1.3794
  178MOL0     H23966   4.894   3.425   0.262 -1.1688  1.8499 -0.6945
  178MOL0     H23967   4.971   3.421   0.551  1.4417  0.4081  1.1067
  178MOL0     H23968   5.062   3.527   0.439 -1.8468  1.4112  4.5163
  178MOL0     H23969   5.191   3.312   0.430  0.4268 -3.9865 -1.9093
  178MOL0     H23970   5.094   3.320   0.283  1.0016  2.8677 -0.0470
  178MOL0     H23971   5.058   3.162   0.537  4.4366  2.5995 -0.2907
  178MOL0     H23972   4.921   3.183   0.421  0.5039  1.0985  0.2915
  178MOL0     H23973   5.002   3.057   0.260 -3.0357  2.6058  2.6467
  178MOL0     H23974   5.179   3.072   0.302  0.3768  1.9655  0.1475
  178MOL0     H23975   4.985   2.891   0.463  0.2859 -2.7345 -1.4906
  178MOL0     H23976   5.084   2.844   0.335 -1.3507  0.4606 -0.0379
  178MOL0     H23977   5.223   2.984   0.580 -0.3548  0.2787  0.2808
  178MOL0     H23978   5.281   2.878   0.445  0.0005  1.2207 -0.6871
  178MOL0     H23979   5.089   2.779   0.640 -0.4040 -0.1283 -2.5553
  178MOL0     H23980   5.160   2.703   0.505 -1.4268 -0.6548 -0.3147
  178MOL0     H23981   5.292   2.501   0.668 -0.4311 -0.4281 -0.5787
  178MOL0     H23982   5.615   2.522   0.881  2.1517 -0.7877 -2.7119
  178MOL0     H23983   5.462   2.432   0.874 -0.8181  0.7726 -0.0623
  178MOL0     H23984   5.612   2.303   0.782  0.5812 -0.7038 -0.2772
  178MOL0     H23985   5.513   2.356   0.648  0.0481  1.1194 -1.7015
  178MOL0     H23986   5.778   2.486   0.729  0.1361  0.9370 -0.4294
  178MOL0     H23987   5.695   2.516   0.575 -0.1494 -3.2780 -3.9701
  178MOL0     H23988   5.842   2.268   0.642 -3.2384 -1.1806  1.3461
  178MOL0     H23989   5.888   2.407   0.557 -1.8487  1.2470  1.2002
  178MOL0     H23990   5.635   2.202   0.275 -0.8936 -0.9401 -1.2318
  178MOL0     H23991   5.611   2.291   0.038  0.4473  0.8697 -1.4364
  178MOL0     H23992   5.897   2.800  -0.181  0.7894 -1.7668 -1.8539
  178MOL0     H23993   5.846   2.939  -0.382 -0.8442  0.4654  0.7276
  178MOL0     H23994   5.471   2.832  -0.571  0.4245 -0.7795 -1.8159
  178MOL0     H23995   5.442   3.005  -0.616  2.2160  2.4062  1.0972
  178MOL0     H23996   5.527   2.868  -0.808  0.6012 -0.9575  1.3562
  178MOL0     H23997   5.648   2.989  -0.755 -0.0169 -0.1140 -0.8876
  178MOL0     H23998   5.762   2.779  -0.640  1.0941 -2.9350 -0.0496
  178MOL0     H23999   5.640   2.683  -0.722  0.9424 -1.0296 -5.0065
  178MOL0     H24000   5.750   2.845  -0.922  0.0597  1.0050  0.9643
  178MOL0     H24001   5.730   2.679  -0.907  1.8043 -0.5018 -1.2550
  178MOL0     H24002   5.950   2.727  -0.943 -1.4393  0.5561 -1.3119
  178MOL0     H24003   5.933   2.673  -0.772 -0.4737 -0.4633 -0.5740
  178MOL0     H24004   5.992   2.904  -0.694  3.5357  6.6126 -0.5638
  178MOL0     H24005   6.113   2.830  -0.815 -0.4422 -1.6071  0.5389
  178MOL0     H24006   5.897   3.045  -0.835 -1.6715 -3.9801  2.2936
  178MOL0     H24007   5.943   2.960  -0.986  2.4154 -1.8683  0.0717
  178MOL0     H24008   6.154   3.094  -0.809 -0.8022 -1.2177  1.7016
  178MOL0     H24009   6.170   3.058  -0.980  0.3740 -0.1310  1.0593
  178MOL0     H24010   5.436   2.854  -0.332 -0.0809  2.2778  2.7233
  178MOL0     H24011   5.492   2.697  -0.135 -0.5866 -0.2471 -0.4255
  178MOL0     H24012   5.819   2.646   0.178 -1.1924 -0.1140 -1.5056
  178MOL0     H24013   5.845   2.539   0.409 -0.3742 -0.7542 -1.0487
  178MOL0     H24014   4.821   3.836   0.343  0.6411 -1.5439 -0.9002
  178MOL0     H24015   4.616   3.951   0.301  0.5262 -0.8093  2.1042
  178MOL0     H24016   4.103   3.739   0.349 -0.2445 -1.1576 -1.8432
  178MOL0     H24017   3.902   3.842   0.385  3.7653 -0.1211  2.1655
  178MOL0     H24018   3.629   4.170   0.198  0.8216  2.9691  0.4641
  178MOL0     H24019   3.729   4.122   0.062 -0.2572  1.3010 -0.7437
  178MOL0     H24020   3.901   4.290   0.168  0.6830 -2.3075  1.0209
  178MOL0     H24021   3.817   4.302   0.303 -0.5474  0.0910  1.5510
  178MOL0     H24022   3.786   4.504   0.172  0.1505 -0.4288  2.0208
  178MOL0     H24023   3.636   4.429   0.213 -0.0343  5.1631  0.4256
  178MOL0     H24024   3.789   4.459  -0.052 -1.4521  1.1984 -1.9190
  178MOL0     H24025   3.693   4.307  -0.036  0.7593  0.0733 -0.8050
  178MOL0     H24026   3.424   4.641  -0.091 -0.2074  0.3944 -1.3063
  178MOL0     H24027   3.964   4.114   0.053  1.0982 -1.6874 -1.2865
  178MOL0     H24028   4.161   4.105  -0.068 -0.9565 -1.0043  0.5205
  178MOL0     H24029   4.298   4.028  -0.000 -0.7893  0.6239  2.5140
  178MOL0     H24030   4.194   3.934  -0.109 -0.9645 -0.6032  0.1532
  179MOL0     O24031   9.526   7.650  10.990  0.1645 -0.3365 -0.7783
  179MOL0     C24032   9.403   7.648  11.004 -0.1259 -0.4119  0.2660
  179MOL0     O24033   9.345   7.667  11.125 -0.3163 -0.2618  0.5984
  179MOL0     C24034   9.424   7.720  11.229  0.2747  0.3456  1.0249
  179MOL0     C24035   9.372   7.836  11.287 -0.1050  0.7701  0.0327
  179MOL0     C24036   9.422   7.880  11.409 -0.1597  0.0464 -0.4119
  179MOL0     C24037   9.520   7.805  11.474  0.4741  0.3893  0.3398
  179MOL0     O24038   9.566   7.850  11.599 -0.1367  0.4646 -0.3314
  179MOL0     C24039   9.713   7.836  11.626 -0.2659 -0.0583  0.0562
  179MOL0     C24040   9.738   7.888  11.764 -0.1933  0.3416  0.6305
  179MOL0     C24041   9.883   7.906  11.794 -0.3984  0.9614  0.0837
  179MOL0     C24042   9.903   7.998  11.908 -0.2483 -0.8439 -0.6675
  179MOL0     C24043  10.038   8.081  11.878  0.2172  0.4033  0.6534
  179MOL0     C24044  10.014   8.202  11.792  0.5236  0.6227  1.1788
  179MOL0     C24045  10.144   8.256  11.733  0.6734  0.3049 -0.4089
  179MOL0     C24046  10.242   8.302  11.839 -0.5793 -1.1053  0.2508
  179MOL0     N24047  10.362   8.213  11.849  0.2295  0.0677  0.2422
  179MOL0     C24048  10.490   8.251  11.827  0.7860 -0.1894 -0.3952
  179MOL0     C24049  10.563   8.144  11.856 -0.6748 -0.6444  0.3696
  179MOL0     C24050  10.710   8.150  11.828  0.4451 -0.2461  0.5404
  179MOL0     C24051  10.797   8.167  11.960  0.9779  0.5159 -0.8430
  179MOL0     C24052  10.915   8.258  11.917  0.3236 -0.2404 -1.1093
  179MOL0     C24053  11.040   8.256  12.008 -0.3731  0.2018  0.7220
  179MOL0     O24054  11.148   8.316  11.941  0.3949 -0.2357 -0.3124
  179MOL0     C24055  11.253   8.347  12.016 -0.6476 -0.6654  0.6036
  179MOL0     C24056  11.276   8.332  12.152  0.1530 -0.2718 -0.3273
  179MOL0     C24057  11.379   8.405  12.204  0.0369  0.8225 -0.4567
  179MOL0     C24058  11.464   8.475  12.115 -0.9669  0.8877  0.1937
  179MOL0     C24059  11.581   8.544  12.174 -0.5735  0.4950  1.1880
  179MOL0     O24060  11.657   8.623  12.082  0.4073 -0.4173  0.3186
  179MOL0     C24061  11.766   8.700  12.117  0.1079 -1.2737  0.2901
  179MOL0     C24062  11.825   8.711  12.241  0.2065  0.3794  0.6006
  179MOL0     C24063  11.935   8.795  12.251 -0.3676  1.4721  0.4732
  179MOL0     C24064  12.001   8.847  12.143 -1.1640  0.4385 -1.0143
  179MOL0     O24065  12.117   8.921  12.154 -0.2366 -0.0424 -0.7217
  179MOL0     C24066  12.176   8.953  12.278  0.0482 -0.6891 -0.0552
  179MOL0     C24067  12.313   8.995  12.249 -0.8293 -0.1231  0.0173
  179MOL0     C24068  12.401   9.031  12.380 -0.0336 -0.6379 -0.0707
  179MOL0     C24069  12.552   9.032  12.352  1.3722  0.4606  0.2970
  179MOL0     C24070  12.639   8.998  12.473  0.1653  0.0434  0.0052
  179MOL0     C24071  12.787   8.993  12.448 -0.1541 -0.4872 -0.2638
  179MOL0     C24072  12.836   9.117  12.386  0.4690  0.1254 -0.2409
  179MOL0     C24073  12.986   9.146  12.417  0.2637  0.1354 -0.6442
  179MOL0    Cl24074  13.023   9.155  12.604 -0.1759 -0.3589 -0.6957
  179MOL0     C24075  11.935   8.849  12.025 -1.0256  0.2447 -0.1619
  179MOL0     C24076  11.826   8.771  12.016  0.4009 -0.7895  1.1446
  179MOL0     O24077  11.598   8.528  12.293  0.0746  0.4865 -0.7490
  179MOL0     C24078  11.448   8.477  11.977 -0.6661  0.1485  1.4704
  179MOL0     C24079  11.342   8.413  11.929  0.2532  0.6244 -0.1727
  179MOL0     N24080  10.484   8.052  11.923 -1.0143  0.2993  0.2907
  179MOL0     N24081  10.368   8.099  11.930 -0.2433  0.5447  0.2235
  179MOL0     C24082   9.571   7.687  11.412  0.5459  0.7368 -0.7004
  179MOL0     C24083   9.522   7.645  11.294  0.6208  0.2076  0.4785
  179MOL0     C24084   9.306   7.606  10.898  0.3359  0.4318  0.3218
  179MOL0     C24085   9.186   7.551  10.947  0.1608  0.0839  0.0867
  179MOL0     C24086   9.104   7.461  10.856 -0.0013 -0.4332 -0.9831
  179MOL0     C24087   9.131   7.447  10.725 -0.1699  0.1275 -0.2996
  179MOL0     O24088   9.032   7.383  10.643 -0.8047 -0.7583 -0.3426
  179MOL0     C24089   9.069   7.337  10.505 -0.5735 -0.6557  0.0222
  179MOL0     C24090   9.155   7.211  10.524  0.5117 -0.8744  0.3550
  179MOL0     C24091   9.066   7.089  10.516  0.1116  0.9964  1.0770
  179MOL0     C24092   9.153   6.966  10.506 -0.0627 -0.2085  0.5678
  179MOL0     C24093   9.073   6.845  10.487 -0.1084  0.5175 -0.0750
  179MOL0     C24094   9.023   6.740  10.503 -0.8520 -1.3640 -0.7261
  179MOL0     C24095   9.244   7.510  10.677  0.7577 -0.3475 -0.5910
  179MOL0     C24096   9.326   7.596  10.759 -0.7329 -0.4196 -0.0151
  179MOL0     C24097   9.431   7.669  10.686  0.1271  0.8875 -0.0705
  179MOL0     H24098   9.292   7.896  11.246  0.2402  0.2731 -1.4186
  179MOL0     H24099   9.374   7.970  11.447 -0.3130 -0.1428 -0.1514
  179MOL0     H24100   9.756   7.736  11.624  3.2222  1.3253 -0.8667
  179MOL0     H24101   9.766   7.900  11.555  1.2030  0.6450  1.7285
  179MOL0     H24102   9.696   7.836  11.851  1.0038 -0.7882  0.5777
  179MOL0     H24103   9.691   7.986  11.752 -3.3126 -1.2966 -2.2597
  179MOL0     H24104   9.931   7.937  11.700  0.0926 -0.1177 -0.0342
  179MOL0     H24105   9.926   7.809  11.821  0.7138  1.9763  2.1903
  179MOL0     H24106   9.829   8.078  11.918  1.4194  0.5850  1.0523
  179MOL0     H24107   9.912   7.941  12.001 -1.4553  1.0977  0.7276
  179MOL0     H24108  10.078   8.120  11.972  2.5660 -0.9889  0.3199
  179MOL0     H24109  10.121   8.022  11.839 -1.2751 -2.2045  1.1776
  179MOL0     H24110   9.960   8.157  11.708  2.0326 -1.9299  1.4737
  179MOL0     H24111   9.938   8.263  11.842 -0.0730 -1.1517  2.5612
  179MOL0     H24112  10.121   8.346  11.675  0.9791  1.2253  0.8594
  179MOL0     H24113  10.179   8.178  11.665 -0.9753 -1.2542  0.4600
  179MOL0     H24114  10.265   8.408  11.827 -4.2982 -0.3110 -1.3660
  179MOL0     H24115  10.199   8.281  11.937  1.1996  0.7200  1.5057
  179MOL0     H24116  10.520   8.349  11.791 -6.4200  1.8815 -2.4139
  179MOL0     H24117  10.735   8.049  11.794 -1.1913 -1.2063  1.9867
  179MOL0     H24118  10.731   8.228  11.755 -1.7618 -2.0555 -2.2606
  179MOL0     H24119  10.744   8.215  12.043  0.2406  0.0002 -0.9987
  179MOL0     H24120  10.832   8.068  11.988 -2.6894 -0.3044  1.5882
  179MOL0     H24121  10.879   8.361  11.905  1.5780  0.3319 -0.2366
  179MOL0     H24122  10.947   8.227  11.817  1.7296 -2.7918  0.0323
  179MOL0     H24123  11.058   8.151  12.033 -2.3074 -0.7859 -1.6879
  179MOL0     H24124  11.027   8.317  12.098 -0.2245 -0.5857  1.2902
  179MOL0     H24125  11.212   8.284  12.226  1.4690  0.1918  1.1589
  179MOL0     H24126  11.393   8.393  12.311 -0.3025  6.4449  0.5346
  179MOL0     H24127  11.782   8.662  12.328 -0.9796  1.9930  0.9935
  179MOL0     H24128  11.971   8.790  12.353  0.9698  1.6333  0.0291
  179MOL0     H24129  12.130   9.040  12.327  3.1260  1.3258 -0.4590
  179MOL0     H24130  12.188   8.872  12.351  0.0712 -0.4842  0.1742
  179MOL0     H24131  12.359   8.919  12.185  0.2880  0.9522 -0.5029
  179MOL0     H24132  12.311   9.086  12.189 -1.9573  0.5922  1.1097
  179MOL0     H24133  12.367   9.129  12.414  1.3247 -0.2186  0.1646
  179MOL0     H24134  12.374   8.969  12.466 -0.4664  1.9699  1.8022
  179MOL0     H24135  12.588   9.133  12.330 -1.6302  1.6553  0.3872
  179MOL0     H24136  12.586   8.957  12.280 -0.7984 -1.1603  0.8587
  179MOL0     H24137  12.611   8.900  12.513 -1.3592 -0.0016 -1.1090
  179MOL0     H24138  12.614   9.079  12.542  0.2194  0.1548 -0.1052
  179MOL0     H24139  12.830   8.966  12.545 -2.6670  2.1750  1.7303
  179MOL0     H24140  12.810   8.909  12.382  0.0489 -0.6517  0.0142
  179MOL0     H24141  12.776   9.201  12.424  1.4216  0.9495 -0.5186
  179MOL0     H24142  12.841   9.105  12.277  2.8750 -0.4297 -0.1131
  179MOL0     H24143  13.037   9.065  12.364  0.9215  1.1133 -1.5459
  179MOL0     H24144  13.015   9.236  12.363 -0.3237 -0.5766 -2.2168
  179MOL0     H24145  11.979   8.901  11.940  2.4094 -0.5377  0.9715
  179MOL0     H24146  11.782   8.757  11.918  1.6201  0.5598  0.3572
  179MOL0     H24147  11.520   8.529  11.915  0.2572 -3.4344 -0.7795
  179MOL0     H24148  11.312   8.435  11.827  1.1618  2.7681 -0.0230
  179MOL0     H24149   9.625   7.607  11.462 -2.1020  0.1461  1.4679
  179MOL0     H24150   9.548   7.549  11.249  0.0731  1.4540 -2.7922
  179MOL0     H24151   9.141   7.560  11.046 -0.3636 -2.6196  0.1932
  179MOL0     H24152   9.008   7.419  10.883 -0.3733  0.1341 -1.3851
  179MOL0     H24153   9.122   7.408  10.441  0.6529 -1.1236  0.4834
  179MOL0     H24154   8.976   7.318  10.450 -0.7320 -3.3154  1.0509
  179MOL0     H24155   9.200   7.203  10.623  3.0188 -4.2573 -0.8565
  179MOL0     H24156   9.225   7.198  10.441  0.7756 -3.3139  0.8612
  179MOL0     H24157   9.023   7.099  10.416  2.4170  0.9402  0.0337
  179MOL0     H24158   8.989   7.084  10.594 -0.7249  1.5970  0.3134
  179MOL0     H24159   9.224   6.980  10.423 -2.4848  1.3960 -1.3891
  179MOL0     H24160   9.211   6.940  10.595 -0.3546 -4.7348 -0.3265
  179MOL0     H24161   8.965   6.653  10.525  0.8071 -2.1174  0.9818
  179MOL0     H24162   9.269   7.501  10.572  2.7127  0.0478 -0.1944
  179MOL0     H24163   9.504   7.589  10.671 -1.7693 -1.0558  0.5396
  179MOL0     H24164   9.396   7.704  10.588 -2.2347 -0.3127  0.2623
  179MOL0     H24165   9.464   7.757  10.741  1.4033  0.0867  0.4871
  180MOL0     O24166   0.351  10.912   7.169  0.1872  0.2404 -0.0361
  180MOL0     C24167   0.382  10.921   7.283 -0.2429 -0.4948 -0.3008
  180MOL0     O24168   0.500  10.978   7.332  0.7512  0.4358  0.6228
  180MOL0     C24169   0.607  10.987   7.245  0.4476 -0.1478  0.2533
  180MOL0     C24170   0.648  10.904   7.141  0.4423 -0.3019 -0.0609
  180MOL0     C24171   0.748  10.943   7.050  0.1768  0.3223 -0.2618
  180MOL0     C24172   0.821  11.064   7.059  0.0263  0.5656 -0.1266
  180MOL0     O24173   0.931  11.094   6.976 -0.5087  0.0942  0.4827
  180MOL0     C24174   0.943  11.025   6.845  0.3137  0.2960 -0.3717
  180MOL0     C24175   1.053  11.089   6.752 -0.3583 -0.1206 -0.3833
  180MOL0     C24176   1.073  10.995   6.636 -0.3647  0.0707 -0.7713
  180MOL0     C24177   1.168  10.870   6.680  1.2828  0.2816 -0.5967
  180MOL0     C24178   1.210  10.790   6.549  0.0265  0.1004 -0.7164
  180MOL0     C24179   1.227  10.636   6.562  0.3156  0.1382 -0.6660
  180MOL0     C24180   1.096  10.561   6.583  1.1844  0.8176 -0.0055
  180MOL0     C24181   1.115  10.416   6.553  0.1999 -0.1755  0.8343
  180MOL0     N24182   1.023  10.325   6.632  0.1368  0.3971 -0.1463
  180MOL0     C24183   0.981  10.317   6.763  0.0286  0.8782  0.7829
  180MOL0     C24184   0.903  10.207   6.771  0.6679 -0.7115 -0.1077
  180MOL0     C24185   0.833  10.150   6.888 -1.0832 -0.8436 -1.4809
  180MOL0     C24186   0.764  10.008   6.871 -1.3788 -1.0846  0.7617
  180MOL0     C24187   0.705   9.962   7.003 -0.2872  0.2546  0.1443
  180MOL0     C24188   0.584   9.868   6.973  0.2262 -0.0863  0.1946
  180MOL0     O24189   0.505   9.858   7.084 -0.0171 -0.0821 -0.2496
  180MOL0     C24190   0.380   9.804   7.069  0.0123  0.5663  0.6134
  180MOL0     C24191   0.351   9.692   6.995 -0.2186  0.3308  0.1681
  180MOL0     C24192   0.224   9.631   6.988 -0.5086 -0.3519  0.5514
  180MOL0     C24193   0.123   9.687   7.054 -0.1725 -0.1300  0.1300
  180MOL0     C24194  -0.011   9.640   7.042  0.3277  0.3064 -0.9889
  180MOL0     O24195  -0.033   9.504   7.031 -0.0320  0.0226  0.3207
  180MOL0     C24196  -0.153   9.454   6.988  0.6894 -0.2899  0.0328
  180MOL0     C24197  -0.224   9.503   6.869  0.0340 -0.1020 -0.1507
  180MOL0     C24198  -0.342   9.451   6.821  0.3633 -0.7748  0.5234
  180MOL0     C24199  -0.397   9.338   6.891 -0.1856 -0.4090  0.8076
  180MOL0     O24200  -0.513   9.293   6.836  0.5477 -0.5909  0.6174
  180MOL0     C24201  -0.618   9.315   6.933 -0.6002 -0.0357  0.0685
  180MOL0     C24202  -0.753   9.280   6.872 -0.4460 -0.2124 -0.4594
  180MOL0     C24203  -0.754   9.149   6.804  0.3656 -0.2661  1.1297
  180MOL0     C24204  -0.899   9.106   6.773  0.3780 -0.1036 -1.0417
  180MOL0     C24205  -0.911   8.997   6.665 -0.3375 -0.6308  0.2250
  180MOL0     C24206  -0.854   8.866   6.705  0.2016  0.0788 -0.2752
  180MOL0     C24207  -0.805   8.786   6.584 -0.5210  0.3753 -0.3094
  180MOL0     C24208  -0.924   8.742   6.509  0.9277  0.2338 -0.2546
  180MOL0    Cl24209  -0.861   8.685   6.351  0.4932  0.5795  0.2146
  180MOL0     C24210  -0.319   9.286   6.991 -0.3742  0.0976  0.2401
  180MOL0     C24211  -0.214   9.350   7.050  0.6327 -0.1339 -0.0309
  180MOL0     O24212  -0.105   9.722   7.058  0.2438 -0.1526  0.4293
  180MOL0     C24213   0.143   9.798   7.140  0.5847  0.6399  0.5648
  180MOL0     C24214   0.270   9.860   7.138 -0.9930 -0.2502 -0.9525
  180MOL0     N24215   0.915  10.142   6.646  0.7751 -0.6262  0.3800
  180MOL0     N24216   0.973  10.218   6.565  0.2517  0.5188  0.4984
  180MOL0     C24217   0.783  11.140   7.169  0.3414 -0.1604 -0.2117
  180MOL0     C24218   0.681  11.101   7.261  1.1092 -0.1851  0.1144
  180MOL0     C24219   0.281  10.877   7.386 -0.8024  0.4261 -0.1605
  180MOL0     C24220   0.156  10.832   7.340 -0.6202 -0.8617  0.5163
  180MOL0     C24221   0.064  10.770   7.418 -0.0833 -0.4149  0.3504
  180MOL0     C24222   0.083  10.760   7.561  0.1985  0.2550  0.3216
  180MOL0     O24223  -0.009  10.707   7.655 -0.5938  1.2241  0.3510
  180MOL0     C24224  -0.144  10.752   7.631  0.2081 -0.7456 -0.4242
  180MOL0     C24225  -0.230  10.644   7.568  0.7764 -0.1619 -0.8456
  180MOL0     C24226  -0.375  10.616   7.615  0.7206  0.2642 -0.9644
  180MOL0     C24227  -0.465  10.743   7.623  0.1263 -0.1954 -0.2360
  180MOL0     C24228  -0.499  10.802   7.499 -0.4420 -0.7838  0.4332
  180MOL0     C24229  -0.498  10.853   7.387 -0.3354 -0.4693 -0.6561
  180MOL0     C24230   0.202  10.817   7.608  0.9980 -0.1811 -0.1339
  180MOL0     C24231   0.304  10.864   7.522  0.0309 -0.8891 -0.5532
  180MOL0     C24232   0.425  10.916   7.591  0.7325  0.0679  0.1234
  180MOL0     H24233   0.587  10.818   7.114  1.7276 -0.8090 -1.4255
  180MOL0     H24234   0.766  10.871   6.971 -3.8862 -0.8148 -0.4246
  180MOL0     H24235   0.975  10.925   6.875  1.8464  1.3954  1.9932
  180MOL0     H24236   0.851  11.006   6.790  0.5790 -2.2390 -0.0783
  180MOL0     H24237   1.148  11.099   6.805 -1.8015 -2.9121  3.1872
  180MOL0     H24238   1.022  11.191   6.727  2.3881  0.3338 -2.3322
  180MOL0     H24239   1.117  11.059   6.559  1.7308  0.9088  1.0015
  180MOL0     H24240   0.983  10.949   6.596  0.0918 -2.0279  0.4530
  180MOL0     H24241   1.246  10.923   6.736 -2.1586  3.0801  2.0022
  180MOL0     H24242   1.121  10.804   6.753  3.7756  2.3720  3.2272
  180MOL0     H24243   1.135  10.805   6.470  1.4675 -1.9986 -2.6069
  180MOL0     H24244   1.301  10.841   6.514 -0.8975  1.3993 -1.3207
  180MOL0     H24245   1.268  10.606   6.464 -1.3596 -3.6313 -0.3815
  180MOL0     H24246   1.300  10.609   6.639 -0.2732 -0.4729 -0.3123
  180MOL0     H24247   1.014  10.614   6.532 -1.8368 -2.5642  0.9165
  180MOL0     H24248   1.083  10.577   6.690  1.2563 -0.0126  0.1299
  180MOL0     H24249   1.084  10.406   6.449 -1.6561  0.3511  1.3074
  180MOL0     H24250   1.221  10.395   6.570  0.3960  0.0012 -0.1575
  180MOL0     H24251   1.007  10.380   6.848  2.8169 -2.6177  2.7869
  180MOL0     H24252   0.903  10.134   6.970 -2.0209 -0.6079 -0.6216
  180MOL0     H24253   0.765  10.228   6.922  0.7547  0.6320 -1.0347
  180MOL0     H24254   0.688  10.015   6.793 -0.2912  2.0411 -0.1752
  180MOL0     H24255   0.845   9.944   6.834  1.4041  2.8258 -0.6621
  180MOL0     H24256   0.665  10.049   7.055  0.5134  0.8719 -0.2524
  180MOL0     H24257   0.782   9.901   7.051 -1.4243 -2.0034 -0.7159
  180MOL0     H24258   0.622   9.769   6.946 -3.1744 -1.2437 -0.7307
  180MOL0     H24259   0.525   9.908   6.890 -0.2544  2.6598  1.7414
  180MOL0     H24260   0.433   9.649   6.938  1.3704 -0.4445  2.8498
  180MOL0     H24261   0.202   9.549   6.921 -0.3373 -2.9097  3.4200
  180MOL0     H24262  -0.165   9.580   6.822  2.6366 -2.6042 -1.2373
  180MOL0     H24263  -0.390   9.503   6.738 -1.6580 -1.2722  1.3283
  180MOL0     H24264  -0.611   9.246   7.017 -1.9372  1.5983  1.6116
  180MOL0     H24265  -0.618   9.418   6.970 -2.9710 -0.3303  1.0081
  180MOL0     H24266  -0.829   9.280   6.950 -1.9403 -2.4238 -1.7738
  180MOL0     H24267  -0.775   9.354   6.794  2.1082  2.9135  1.5458
  180MOL0     H24268  -0.692   9.148   6.714  1.1865 -1.7748  1.6620
  180MOL0     H24269  -0.717   9.068   6.867  0.1590 -0.3874  1.0950
  180MOL0     H24270  -0.954   9.189   6.727 -1.8268  0.0641  1.6684
  180MOL0     H24271  -0.959   9.092   6.863 -1.9609  1.5399 -2.2363
  180MOL0     H24272  -0.852   9.023   6.577 -1.2822 -2.5965 -1.0538
  180MOL0     H24273  -1.015   8.990   6.632 -0.2994 -1.2740  0.2232
  180MOL0     H24274  -0.762   8.885   6.762  0.7499  0.3804 -1.2296
  180MOL0     H24275  -0.928   8.806   6.758 -0.6933  0.9499 -0.5101
  180MOL0     H24276  -0.763   8.696   6.629  0.8553 -0.3054 -2.7762
  180MOL0     H24277  -0.731   8.837   6.521 -2.1585  2.1869 -0.8717
  180MOL0     H24278  -0.982   8.666   6.562 -0.2133  2.4810  1.9396
  180MOL0     H24279  -1.004   8.815   6.489 -2.2165 -3.1238 -1.1873
  180MOL0     H24280  -0.354   9.197   7.041 -1.1903  0.7727  0.9119
  180MOL0     H24281  -0.176   9.293   7.135  0.8230 -0.2177 -0.1712
  180MOL0     H24282   0.066   9.832   7.208 -0.1183 -1.2695  0.8023
  180MOL0     H24283   0.288   9.953   7.191  3.6669 -1.6252  0.3002
  180MOL0     H24284   0.840  11.232   7.182 -1.4262  1.4851 -2.9568
  180MOL0     H24285   0.676  11.175   7.340 -1.7117  2.0586 -1.9461
  180MOL0     H24286   0.136  10.840   7.233 -0.6999 -0.6378  0.5476
  180MOL0     H24287  -0.021  10.740   7.356 -0.8891 -0.7328  1.5733
  180MOL0     H24288  -0.153  10.848   7.578 -2.4500  0.8734  2.5872
  180MOL0     H24289  -0.185  10.776   7.730  3.6893 -0.2983  1.0560
  180MOL0     H24290  -0.169  10.554   7.584  1.1165 -0.2995 -2.6940
  180MOL0     H24291  -0.242  10.654   7.460  0.0682  0.4060 -0.7226
  180MOL0     H24292  -0.369  10.574   7.716 -0.4855 -2.7255 -2.0285
  180MOL0     H24293  -0.422  10.534   7.560  2.0253 -0.1988 -1.4481
  180MOL0     H24294  -0.564  10.709   7.656 -0.7341  1.1709 -1.3150
  180MOL0     H24295  -0.409  10.805   7.694  0.4148 -1.6346  0.8497
  180MOL0     H24296  -0.494  10.900   7.291  1.7405  2.0442  0.5036
  180MOL0     H24297   0.223  10.812   7.715  0.8518 -3.3352 -0.1482
  180MOL0     H24298   0.430  11.022   7.567  0.3999 -0.5140 -2.9515
  180MOL0     H24299   0.420  10.911   7.700 -3.0023 -0.3156  0.0925
  180MOL0     H24300   0.505  10.854   7.550  0.8763 -0.3336  0.9926
  181MOL0     O24301   9.092   7.529   6.524 -0.2776 -0.0948  0.0071
  181MOL0     C24302   9.105   7.408   6.483 -0.4324 -0.1691  0.5946
  181MOL0     O24303   9.204   7.363   6.396 -0.0270 -0.2567  0.2371
  181MOL0     C24304   9.322   7.431   6.360  0.3419 -0.2354 -0.1541
  181MOL0     C24305   9.385   7.526   6.444  0.2060 -0.4083  0.4725
  181MOL0     C24306   9.511   7.585   6.401  0.1266 -0.1834  0.3434
  181MOL0     C24307   9.564   7.555   6.272  0.7369 -1.0112  0.0160
  181MOL0     O24308   9.682   7.606   6.244 -0.1987  0.8862  0.2697
  181MOL0     C24309   9.788   7.523   6.205  0.5340  0.0102  0.4176
  181MOL0     C24310   9.888   7.519   6.315  0.0975 -1.4977 -0.0576
  181MOL0     C24311   9.947   7.653   6.368 -0.5372 -0.1509  0.8885
  181MOL0     C24312  10.027   7.740   6.270 -0.0816  0.0289 -0.5991
  181MOL0     C24313  10.175   7.715   6.261 -0.3763  0.4290  0.5640
  181MOL0     C24314  10.239   7.837   6.195 -0.1225 -0.9975 -0.4084
  181MOL0     C24315  10.355   7.808   6.096 -0.0307  0.3740 -0.2002
  181MOL0     C24316  10.490   7.802   6.167  0.2929 -0.1387  0.8669
  181MOL0     N24317  10.532   7.934   6.211 -0.7195  0.2180 -0.2575
  181MOL0     C24318  10.522   8.051   6.140 -0.1132  0.4735  0.0611
  181MOL0     C24319  10.595   8.136   6.214 -0.5313 -0.7830  0.3925
  181MOL0     C24320  10.614   8.284   6.165 -0.3142 -0.4566  0.5032
  181MOL0     C24321  10.755   8.315   6.115  0.1122  0.0855  0.2971
  181MOL0     C24322  10.849   8.325   6.241 -0.1590  0.3152 -0.1172
  181MOL0     C24323  10.990   8.364   6.209 -0.0076  0.3478 -0.2789
  181MOL0     O24324  10.979   8.496   6.145  0.4398  0.3791  0.2846
  181MOL0     C24325  11.088   8.546   6.083  0.5571  0.0648  0.0189
  181MOL0     C24326  11.113   8.539   5.944  1.4486  0.2273  0.5160
  181MOL0     C24327  11.238   8.573   5.897 -0.3283  0.1268  0.7896
  181MOL0     C24328  11.335   8.629   5.978 -0.2128  0.3321  0.3763
  181MOL0     C24329  11.464   8.660   5.920  0.9712 -0.2328  0.2737
  181MOL0     O24330  11.484   8.668   5.779  0.5765  0.5479 -1.0502
  181MOL0     C24331  11.586   8.754   5.744  0.2986 -0.5169  0.1069
  181MOL0     C24332  11.696   8.702   5.681  0.4318  0.6062 -0.0936
  181MOL0     C24333  11.808   8.776   5.660 -0.5331  0.5643  0.4275
  181MOL0     C24334  11.817   8.905   5.680 -0.2242 -0.1800  0.1336
  181MOL0     O24335  11.937   8.968   5.670 -0.1959  0.0588  0.1566
  181MOL0     C24336  11.955   9.038   5.550  0.3582 -0.1684  0.4207
  181MOL0     C24337  12.096   9.072   5.526 -0.9867  0.2583  0.7269
  181MOL0     C24338  12.123   9.145   5.397 -0.8241 -0.3399 -0.6203
  181MOL0     C24339  12.267   9.102   5.357  0.3666 -0.7083 -0.0621
  181MOL0     C24340  12.291   9.160   5.217 -0.1529 -0.3017  0.1636
  181MOL0     C24341  12.442   9.158   5.195 -0.7030 -0.2572 -0.3659
  181MOL0     C24342  12.481   9.213   5.058  0.5983  0.6613 -0.1198
  181MOL0     C24343  12.633   9.182   5.033  0.5111 -0.0580  0.0806
  181MOL0    Cl24344  12.708   9.341   5.055 -0.0083  0.0036 -0.1393
  181MOL0     C24345  11.706   8.963   5.736 -0.2840  0.1599  0.0242
  181MOL0     C24346  11.584   8.896   5.766 -0.7901  0.6251 -0.1409
  181MOL0     O24347  11.543   8.698   6.006  0.2307  0.0473 -0.1536
  181MOL0     C24348  11.308   8.645   6.116  0.0688  0.4656  0.1491
  181MOL0     C24349  11.189   8.596   6.171  0.1150  0.4332  0.5407
  181MOL0     N24350  10.652   8.068   6.319 -0.3035 -0.3884 -0.3088
  181MOL0     N24351  10.624   7.949   6.307  0.0244 -0.0857  0.0095
  181MOL0     C24352   9.493   7.467   6.196  0.8195 -0.1670  0.4177
  181MOL0     C24353   9.377   7.393   6.238 -1.2267 -0.5522  0.7419
  181MOL0     C24354   8.992   7.319   6.526 -0.0601 -0.2997  0.0101
  181MOL0     C24355   9.000   7.191   6.488 -0.6246 -0.2038  0.2454
  181MOL0     C24356   8.912   7.092   6.536  0.8657  0.4692 -0.2439
  181MOL0     C24357   8.805   7.124   6.623 -0.3183 -0.4479  0.4220
  181MOL0     O24358   8.714   7.038   6.676  0.0889 -0.5653 -0.5288
  181MOL0     C24359   8.669   6.944   6.586 -0.0266 -0.3950 -0.1634
  181MOL0     C24360   8.558   6.854   6.654 -0.2852  0.1458 -0.3310
  181MOL0     C24361   8.468   6.796   6.543 -0.1787  0.3909  0.1678
  181MOL0     C24362   8.357   6.896   6.511  0.5088  0.3063  0.6488
  181MOL0     C24363   8.287   6.834   6.396  0.1700 -0.5743 -0.6676
  181MOL0     C24364   8.203   6.795   6.318 -0.2856  0.0583 -0.8858
  181MOL0     C24365   8.802   7.258   6.665 -0.9890  0.1952  0.4141
  181MOL0     C24366   8.887   7.352   6.622 -0.2085 -0.1637  0.8519
  181MOL0     C24367   8.860   7.480   6.688 -0.1702 -0.0045 -0.2189
  181MOL0     H24368   9.342   7.557   6.539  0.8997  0.8317  0.4094
  181MOL0     H24369   9.565   7.648   6.471 -1.1931  4.0845 -2.0748
  181MOL0     H24370   9.752   7.422   6.180  4.3509 -1.4263  0.0388
  181MOL0     H24371   9.846   7.546   6.115  3.6146 -0.3038  2.1944
  181MOL0     H24372   9.970   7.448   6.299  3.7482  2.0678  1.1752
  181MOL0     H24373   9.826   7.486   6.399  0.8021  0.7126  1.4344
  181MOL0     H24374  10.010   7.631   6.454  1.8018  0.4149 -0.5937
  181MOL0     H24375   9.866   7.705   6.420 -1.0519 -1.1212  1.0682
  181MOL0     H24376   9.968   7.746   6.179 -1.2305  1.4434  0.2047
  181MOL0     H24377  10.018   7.838   6.317 -1.6228 -0.8697  1.1591
  181MOL0     H24378  10.217   7.695   6.361 -2.4561  1.3083  1.6725
  181MOL0     H24379  10.188   7.630   6.194  2.8324  2.4369 -1.6260
  181MOL0     H24380  10.172   7.885   6.123  1.7231  0.6451 -1.1153
  181MOL0     H24381  10.266   7.902   6.279 -3.4122 -0.9196  0.7531
  181MOL0     H24382  10.366   7.885   6.020 -2.0549  1.5881  0.6511
  181MOL0     H24383  10.342   7.723   6.028 -0.3577  3.2143 -3.9950
  181MOL0     H24384  10.479   7.737   6.254 -4.0377 -0.6474  0.1800
  181MOL0     H24385  10.561   7.761   6.095  1.3189  0.9269  1.2366
  181MOL0     H24386  10.462   8.073   6.052 -3.3226 -0.1642  1.9092
  181MOL0     H24387  10.542   8.298   6.083  0.0106 -2.8075 -0.2683
  181MOL0     H24388  10.591   8.361   6.239  0.6656 -0.4175  0.7792
  181MOL0     H24389  10.789   8.240   6.042 -1.8538  0.3331 -0.9504
  181MOL0     H24390  10.739   8.406   6.057 -4.5712 -0.5598  0.2386
  181MOL0     H24391  10.841   8.239   6.308  0.0378  0.6978  0.4032
  181MOL0     H24392  10.811   8.401   6.309 -0.5161 -0.7420  0.9002
  181MOL0     H24393  11.034   8.291   6.140 -0.7264 -0.7354  0.3853
  181MOL0     H24394  11.050   8.366   6.300 -2.3336  2.1397  1.3173
  181MOL0     H24395  11.034   8.511   5.876  1.0743  0.5108  0.8271
  181MOL0     H24396  11.264   8.569   5.792 -0.3476  2.6628  0.6270
  181MOL0     H24397  11.714   8.600   5.647 -1.3496  0.7420 -1.6379
  181MOL0     H24398  11.894   8.719   5.626 -1.2007 -1.3060  1.6528
  181MOL0     H24399  11.926   8.980   5.462  2.1705  1.4546 -1.3605
  181MOL0     H24400  11.899   9.133   5.552  0.7802  0.0699  1.4078
  181MOL0     H24401  12.126   9.130   5.613  0.7980  0.5064 -0.0040
  181MOL0     H24402  12.144   8.974   5.524 -1.9132 -0.5159  5.2992
  181MOL0     H24403  12.057   9.117   5.315 -0.9290  6.0114 -3.2599
  181MOL0     H24404  12.121   9.253   5.414  1.5821 -0.6456  2.5836
  181MOL0     H24405  12.290   8.997   5.371 -0.1384 -0.8379 -0.1713
  181MOL0     H24406  12.332   9.156   5.426  0.1393  0.4272 -0.6894
  181MOL0     H24407  12.250   9.261   5.212  1.8364  0.5355 -0.4006
  181MOL0     H24408  12.244   9.094   5.143  1.7507 -3.1767  1.3169
  181MOL0     H24409  12.509   9.212   5.263  0.7056 -4.6433  2.2014
  181MOL0     H24410  12.474   9.054   5.208 -0.3419 -0.4854 -2.6766
  181MOL0     H24411  12.452   9.318   5.045  1.7797  0.7042 -3.1945
  181MOL0     H24412  12.427   9.151   4.986  0.4553 -0.0729  0.6085
  181MOL0     H24413  12.665   9.118   5.116 -1.9570 -0.9853  0.3849
  181MOL0     H24414  12.660   9.153   4.931 -0.3992  0.5556 -0.3493
  181MOL0     H24415  11.714   9.069   5.756  1.0882 -0.5093  4.1496
  181MOL0     H24416  11.501   8.953   5.806  0.6661  2.1216  0.8886
  181MOL0     H24417  11.373   8.709   6.175 -0.6697  1.4674 -0.1121
  181MOL0     H24418  11.172   8.609   6.277  2.8084  0.4882  1.0443
  181MOL0     H24419   9.536   7.429   6.104 -1.1952  0.0240 -0.6742
  181MOL0     H24420   9.339   7.315   6.173  0.0495  0.0520 -0.7825
  181MOL0     H24421   9.086   7.160   6.428 -0.4327  1.5217 -0.4180
  181MOL0     H24422   8.916   6.987   6.510 -0.2473 -0.1900  1.9919
  181MOL0     H24423   8.746   6.875   6.552 -0.4740 -1.8774  1.6550
  181MOL0     H24424   8.631   6.996   6.498  1.8294  0.1965 -0.6550
  181MOL0     H24425   8.497   6.911   6.724 -1.2857 -0.9880 -0.2489
  181MOL0     H24426   8.605   6.774   6.712 -1.2732 -0.6845 -0.6522
  181MOL0     H24427   8.414   6.704   6.571  0.0369  0.5601  1.1689
  181MOL0     H24428   8.525   6.786   6.450 -0.9868  1.3702 -0.4569
  181MOL0     H24429   8.289   6.901   6.597 -1.1702 -3.6129 -0.2439
  181MOL0     H24430   8.396   6.995   6.484  1.6326 -0.2331  0.2581
  181MOL0     H24431   8.130   6.763   6.246  0.4861  0.5872 -1.9437
  181MOL0     H24432   8.720   7.282   6.732 -0.8347  3.0895 -0.3042
  181MOL0     H24433   8.800   7.478   6.779  0.0647  1.0429 -0.0216
  181MOL0     H24434   8.954   7.519   6.729 -0.9536  0.6699  0.9796
  181MOL0     H24435   8.824   7.564   6.629  0.1306  0.1685 -0.1620
  182MOL0     O24436   2.605   9.505   6.289 -1.1586  0.1813  0.4199
  182MOL0     C24437   2.558   9.566   6.190 -0.1543 -0.3402  0.0096
  182MOL0     O24438   2.429   9.618   6.185  0.7092 -0.2264  0.4925
  182MOL0     C24439   2.340   9.553   6.256 -0.3344 -0.7368  0.3728
  182MOL0     C24440   2.229   9.489   6.203  0.7880 -0.7491  0.3721
  182MOL0     C24441   2.122   9.434   6.279  0.3737 -0.3014 -0.1685
  182MOL0     C24442   2.127   9.442   6.427  0.5266  0.1042  0.1615
  182MOL0     O24443   2.028   9.395   6.504  0.3220 -0.6881 -0.5451
  182MOL0     C24444   2.062   9.316   6.618 -0.1940 -0.1804  0.3581
  182MOL0     C24445   1.938   9.314   6.705 -0.1550  0.2816 -0.5276
  182MOL0     C24446   1.815   9.260   6.645  0.3114 -0.0440 -0.6120
  182MOL0     C24447   1.831   9.113   6.602 -0.0908 -0.0912 -0.3718
  182MOL0     C24448   1.711   9.045   6.550  0.2565  0.1634 -0.0627
  182MOL0     C24449   1.650   9.119   6.423 -0.7665  0.5553  0.0946
  182MOL0     C24450   1.528   9.046   6.368  0.4645 -0.1019 -0.9399
  182MOL0     C24451   1.477   9.089   6.238  0.0274 -0.4284  0.3001
  182MOL0     N24452   1.372   8.996   6.189  0.1637  1.0872 -0.1570
  182MOL0     C24453   1.398   8.870   6.124  0.1683  0.0679 -1.0534
  182MOL0     C24454   1.278   8.829   6.093 -0.0772  0.2290 -0.3848
  182MOL0     C24455   1.254   8.695   6.021 -0.2858  0.3728 -1.2268
  182MOL0     C24456   1.193   8.601   6.126 -0.3033 -1.3331  0.2110
  182MOL0     C24457   1.152   8.466   6.073  0.5947  0.9028  0.8919
  182MOL0     C24458   1.057   8.470   5.950 -0.5244  0.1063  0.0988
  182MOL0     O24459   1.057   8.327   5.912 -0.0385  0.1382 -0.0004
  182MOL0     C24460   0.948   8.253   5.944  1.3369 -0.6704 -0.8738
  182MOL0     C24461   0.992   8.143   6.011  0.6936 -0.3766 -0.2630
  182MOL0     C24462   0.902   8.062   6.084  0.7273  0.0920 -0.1233
  182MOL0     C24463   0.761   8.093   6.080  0.5071 -0.4433 -0.4437
  182MOL0     C24464   0.667   8.006   6.152  0.2234 -1.0261  0.1501
  182MOL0     O24465   0.538   8.047   6.162  0.5216  0.6813 -0.1099
  182MOL0     C24466   0.456   7.971   6.239  0.1392 -0.2438 -0.8162
  182MOL0     C24467   0.428   8.017   6.375 -0.5179  0.3872 -0.1141
  182MOL0     C24468   0.341   7.944   6.449  0.0248 -0.8163 -0.2794
  182MOL0     C24469   0.297   7.825   6.405  0.4972  0.9278  0.3993
  182MOL0     O24470   0.198   7.753   6.478 -0.7948  0.1274  0.2931
  182MOL0     C24471   0.201   7.606   6.465  0.0868 -0.3783  0.5142
  182MOL0     C24472   0.124   7.532   6.579 -0.3834 -0.5556 -0.1059
  182MOL0     C24473  -0.012   7.603   6.602 -0.2013 -0.1392 -0.0592
  182MOL0     C24474  -0.087   7.523   6.709 -0.7200 -0.0904  0.6382
  182MOL0     C24475  -0.215   7.595   6.744 -0.7302 -0.4179  0.2747
  182MOL0     C24476  -0.319   7.503   6.810 -0.3549  0.4071  0.7286
  182MOL0     C24477  -0.456   7.561   6.853 -0.2829 -0.8283 -0.1230
  182MOL0     C24478  -0.561   7.452   6.851  1.1868 -0.4679  0.2615
  182MOL0    Cl24479  -0.711   7.508   6.921 -0.5613 -0.1551 -0.3618
  182MOL0     C24480   0.325   7.784   6.274 -0.5576  0.7195  0.2997
  182MOL0     C24481   0.404   7.855   6.190 -1.4786 -0.4699  0.1474
  182MOL0     O24482   0.711   7.890   6.180  0.5658 -1.2285  0.2363
  182MOL0     C24483   0.718   8.206   6.011  0.4783  0.1335 -0.3471
  182MOL0     C24484   0.807   8.291   5.944 -0.0573 -0.5560 -1.1896
  182MOL0     N24485   1.184   8.922   6.128  0.3534 -0.3027  1.0780
  182MOL0     N24486   1.240   9.020   6.189  0.1114 -0.2129 -0.6930
  182MOL0     C24487   2.233   9.515   6.475 -0.0286 -0.1712 -0.4176
  182MOL0     C24488   2.338   9.572   6.394 -0.5220  0.8705  0.4352
  182MOL0     C24489   2.634   9.572   6.074 -0.7524  0.1311  0.1471
  182MOL0     C24490   2.591   9.515   5.948 -0.0901  0.5709 -0.0211
  182MOL0     C24491   2.687   9.512   5.836 -1.0453  0.7037  0.6615
  182MOL0     C24492   2.814   9.566   5.855 -0.0942  0.4480 -0.0487
  182MOL0     O24493   2.893   9.572   5.739 -0.8926 -0.3823 -0.2833
  182MOL0     C24494   3.031   9.604   5.748  0.2601  0.4453 -0.1688
  182MOL0     C24495   3.070   9.744   5.712 -0.4435 -0.0332  0.2404
  182MOL0     C24496   2.993   9.791   5.584  0.2478 -0.2490  1.0778
  182MOL0     C24497   3.072   9.885   5.491  0.0289  1.0457  0.1588
  182MOL0     C24498   3.050  10.019   5.560  0.3862  0.7441 -1.3763
  182MOL0     C24499   3.008  10.122   5.609  0.1780 -0.5528  1.9457
  182MOL0     C24500   2.855   9.617   5.974  0.2718  0.4445 -0.3903
  182MOL0     C24501   2.768   9.621   6.086 -0.9948  0.2445 -0.6328
  182MOL0     C24502   2.829   9.681   6.209  1.0307 -0.0631  0.0869
  182MOL0     H24503   2.232   9.481   6.095  3.8728  1.5720  0.1533
  182MOL0     H24504   2.039   9.385   6.228 -0.1155  0.5098 -0.1604
  182MOL0     H24505   2.083   9.212   6.591 -0.7196 -0.4949  1.1445
  182MOL0     H24506   2.145   9.358   6.676  0.6680 -2.5221  0.9172
  182MOL0     H24507   1.910   9.416   6.733 -0.4176  0.4076 -1.2268
  182MOL0     H24508   1.970   9.250   6.788 -1.6336 -3.2271 -2.4065
  182MOL0     H24509   1.795   9.329   6.562  3.0990 -0.1133 -1.4561
  182MOL0     H24510   1.739   9.259   6.723  0.2306 -4.4281 -0.5184
  182MOL0     H24511   1.911   9.098   6.529  0.7525 -1.0401  0.6964
  182MOL0     H24512   1.858   9.051   6.689  2.5399 -1.0421 -1.7618
  182MOL0     H24513   1.740   8.943   6.521  1.3894 -0.5621  3.2118
  182MOL0     H24514   1.639   9.030   6.631  1.6253 -2.1578  0.8506
  182MOL0     H24515   1.624   9.219   6.457  3.3338  0.8719  3.0087
  182MOL0     H24516   1.722   9.145   6.345 -2.3545  3.9233 -0.4095
  182MOL0     H24517   1.448   9.056   6.442  0.3003 -0.0258 -1.1249
  182MOL0     H24518   1.542   8.939   6.357 -0.5158 -0.3873  0.3671
  182MOL0     H24519   1.445   9.192   6.225 -2.4263 -1.4172 -2.3899
  182MOL0     H24520   1.563   9.080   6.171 -0.8149 -0.3960 -0.8001
  182MOL0     H24521   1.495   8.825   6.108  1.5001  2.0425  0.8529
  182MOL0     H24522   1.189   8.713   5.935 -1.2215  2.0562 -0.2255
  182MOL0     H24523   1.350   8.660   5.984  0.4062  1.7537 -0.8111
  182MOL0     H24524   1.243   8.582   6.221 -0.3258 -0.9155  0.3091
  182MOL0     H24525   1.099   8.648   6.156 -1.4014 -0.1191 -4.3685
  182MOL0     H24526   1.088   8.419   6.147 -2.4803 -0.2224 -2.1894
  182MOL0     H24527   1.236   8.403   6.040 -1.8917 -2.9865  1.3860
  182MOL0     H24528   1.094   8.527   5.865  2.5586  3.0018  3.1077
  182MOL0     H24529   0.956   8.508   5.970 -1.4877 -2.6144  0.8722
  182MOL0     H24530   1.097   8.117   6.011  0.6984 -0.4991  1.7226
  182MOL0     H24531   0.951   7.985   6.142  0.7985  0.4156  0.2528
  182MOL0     H24532   0.465   8.116   6.399 -2.4582  1.4600 -1.2372
  182MOL0     H24533   0.310   7.988   6.543  0.0142 -1.1557 -0.1206
  182MOL0     H24534   0.158   7.575   6.369  0.1751 -2.0440  0.9841
  182MOL0     H24535   0.303   7.567   6.463 -0.2365 -1.6014  3.6150
  182MOL0     H24536   0.130   7.426   6.550  2.4710 -0.8736  1.3198
  182MOL0     H24537   0.184   7.548   6.669  1.9494  1.1072 -1.8336
  182MOL0     H24538  -0.004   7.704   6.642 -2.4775  0.1461 -0.1579
  182MOL0     H24539  -0.071   7.599   6.510  0.1888  0.1780 -0.3251
  182MOL0     H24540  -0.021   7.511   6.795 -0.1956 -0.0714  0.2506
  182MOL0     H24541  -0.105   7.421   6.674  2.7748 -1.4406  2.3232
  182MOL0     H24542  -0.255   7.631   6.649 -2.1204  2.9082  1.9520
  182MOL0     H24543  -0.204   7.687   6.802 -2.0634  0.3383 -0.6019
  182MOL0     H24544  -0.325   7.430   6.729 -1.3088  1.9359 -0.6343
  182MOL0     H24545  -0.272   7.450   6.893  2.2783  0.6634 -0.4683
  182MOL0     H24546  -0.484   7.655   6.804 -1.9492 -0.7422  0.9121
  182MOL0     H24547  -0.450   7.604   6.954 -0.8000 -1.1560  0.0485
  182MOL0     H24548  -0.591   7.425   6.749 -2.0680  2.4362  0.2960
  182MOL0     H24549  -0.523   7.361   6.899  0.8915 -1.5671 -1.4955
  182MOL0     H24550   0.292   7.683   6.254  0.5980  0.0742  1.5316
  182MOL0     H24551   0.423   7.836   6.085  0.6763  1.9917  0.0141
  182MOL0     H24552   0.616   8.242   6.001  1.7870  4.1845 -1.2077
  182MOL0     H24553   0.768   8.375   5.888  0.0317  0.2809 -0.0348
  182MOL0     H24554   2.233   9.532   6.582  0.5684  0.3930 -0.4959
  182MOL0     H24555   2.427   9.619   6.435 -0.6818 -0.8335  3.0272
  182MOL0     H24556   2.485   9.495   5.936 -0.2726  1.9182 -0.8634
  182MOL0     H24557   2.665   9.471   5.737  0.4378 -1.6780  1.2452
  182MOL0     H24558   3.090   9.537   5.685  0.4346  1.2213 -0.8448
  182MOL0     H24559   3.077   9.586   5.846 -0.1038  2.1582  0.3535
  182MOL0     H24560   3.178   9.746   5.695 -0.1669  1.0631  1.8871
  182MOL0     H24561   3.033   9.812   5.790 -2.9047  0.1219 -0.9726
  182MOL0     H24562   2.892   9.832   5.598 -0.5638 -0.4791 -2.8329
  182MOL0     H24563   2.977   9.703   5.521  2.6610 -0.1012  0.1561
  182MOL0     H24564   3.176   9.854   5.479 -0.2649  0.4963 -1.0796
  182MOL0     H24565   3.031   9.885   5.389 -3.3887  0.7178  1.4040
  182MOL0     H24566   2.970  10.219   5.635  1.2291  1.2449 -2.3717
  182MOL0     H24567   2.956   9.656   5.982 -0.4132  2.3384 -0.5885
  182MOL0     H24568   2.912   9.751   6.191 -0.2925  1.3960 -0.6170
  182MOL0     H24569   2.754   9.734   6.269  1.7984  1.0643  0.0884
  182MOL0     H24570   2.867   9.599   6.271 -1.0366 -1.8622 -0.9239
  183MOL0     O24571   1.736   3.360   2.251  0.5575  0.0469  0.2131
  183MOL0     C24572   1.792   3.385   2.351  0.5790  0.2256 -0.8987
  183MOL0     O24573   1.890   3.473   2.367 -0.6170  0.2148 -0.4268
  183MOL0     C24574   1.905   3.576   2.276 -0.6646 -0.2088  0.2824
  183MOL0     C24575   2.001   3.560   2.179  0.4815 -0.1999 -0.3513
  183MOL0     C24576   2.060   3.668   2.123  1.0068 -0.5258  0.0017
  183MOL0     C24577   2.022   3.801   2.155  0.1406 -0.4590 -0.5672
  183MOL0     O24578   2.084   3.899   2.086 -0.3342 -0.0139 -0.2779
  183MOL0     C24579   2.039   4.038   2.087  1.2595 -0.8967 -0.6360
  183MOL0     C24580   2.132   4.147   2.017  0.0313 -0.9848 -0.2679
  183MOL0     C24581   2.062   4.276   1.981 -1.1864  0.6033  0.2213
  183MOL0     C24582   2.143   4.366   1.876  0.1483  0.9122 -0.1793
  183MOL0     C24583   2.057   4.485   1.839  0.3918 -0.1923 -1.3841
  183MOL0     C24584   2.141   4.584   1.750 -0.0108 -0.0607 -0.3248
  183MOL0     C24585   2.161   4.528   1.611  0.4328 -0.6525 -0.2262
  183MOL0     C24586   2.227   4.634   1.520  0.0845 -0.2618 -0.2426
  183MOL0     N24587   2.228   4.601   1.374 -0.0648  0.0747 -0.5065
  183MOL0     C24588   2.234   4.470   1.317 -0.1695 -0.6190  0.6096
  183MOL0     C24589   2.231   4.507   1.176 -0.4698 -0.2291  0.0483
  183MOL0     C24590   2.228   4.396   1.067  0.4145 -0.2598 -0.5077
  183MOL0     C24591   2.089   4.391   0.998 -0.2261  0.1211 -1.0637
  183MOL0     C24592   2.054   4.260   0.914  0.5776  0.2370 -0.2953
  183MOL0     C24593   2.110   4.259   0.765  0.2008 -0.1332 -0.4052
  183MOL0     O24594   2.027   4.332   0.663 -0.5642  0.4577 -0.1218
  183MOL0     C24595   2.034   4.464   0.630  0.3275 -0.6764  0.4224
  183MOL0     C24596   1.914   4.518   0.601 -0.2212 -0.1162  1.2338
  183MOL0     C24597   1.889   4.656   0.595 -0.1781  0.6543  0.7970
  183MOL0     C24598   2.009   4.743   0.615  0.6267 -0.9700 -0.1294
  183MOL0     C24599   2.010   4.898   0.614 -0.0883 -0.8687  0.7892
  183MOL0     O24600   2.128   4.965   0.658  0.2514 -0.1843  0.0322
  183MOL0     C24601   2.145   5.097   0.650 -0.5529  0.0218 -1.5115
  183MOL0     C24602   2.092   5.178   0.546 -0.0869  0.4307 -0.9846
  183MOL0     C24603   2.118   5.315   0.536  0.1436 -0.1738  0.5315
  183MOL0     C24604   2.192   5.376   0.637  0.0993  0.5293  0.6119
  183MOL0     O24605   2.203   5.511   0.653  0.1346  0.4383 -0.5446
  183MOL0     C24606   2.163   5.606   0.555  0.1908  0.3689 -0.1139
  183MOL0     C24607   2.253   5.603   0.441 -0.2620 -0.5564  1.6290
  183MOL0     C24608   2.195   5.693   0.331 -1.1871  0.6418  0.6492
  183MOL0     C24609   2.302   5.717   0.228  0.3518  0.4644  0.1574
  183MOL0     C24610   2.272   5.826   0.120  0.1704 -0.9167 -0.6197
  183MOL0     C24611   2.386   5.845   0.026  0.2602  0.3311  0.5459
  183MOL0     C24612   2.358   5.945  -0.085  0.4635  0.1989  0.1497
  183MOL0     C24613   2.488   5.954  -0.167  0.8888 -0.5415 -0.0548
  183MOL0    Cl24614   2.510   5.799  -0.257  0.0665  0.0827 -0.3207
  183MOL0     C24615   2.250   5.302   0.738 -0.5535 -0.4406 -0.6129
  183MOL0     C24616   2.221   5.161   0.742 -1.1802 -0.0494  0.5904
  183MOL0     O24617   1.910   4.943   0.565  1.4562 -0.1478 -0.4638
  183MOL0     C24618   2.127   4.681   0.655  0.4835  0.2724  0.1221
  183MOL0     C24619   2.139   4.541   0.661  0.1598  0.3725  0.1037
  183MOL0     N24620   2.228   4.647   1.175  0.2176  0.7649 -0.7036
  183MOL0     N24621   2.224   4.702   1.289 -0.6029 -0.3420 -0.4004
  183MOL0     C24622   1.920   3.816   2.246  0.1951  1.3150 -0.6692
  183MOL0     C24623   1.865   3.703   2.309 -0.3564 -0.5326  0.2719
  183MOL0     C24624   1.757   3.312   2.473 -0.4284  0.1719 -0.4074
  183MOL0     C24625   1.753   3.377   2.597  0.9309  1.1877 -0.4307
  183MOL0     C24626   1.704   3.309   2.717  0.0154 -1.1496 -0.3935
  183MOL0     C24627   1.682   3.168   2.715 -0.5548 -1.3727  0.3388
  183MOL0     O24628   1.645   3.081   2.811 -0.2998  0.6553  0.3514
  183MOL0     C24629   1.650   3.136   2.941 -0.8381 -0.6348  0.7677
  183MOL0     C24630   1.591   3.049   3.049  0.5735  0.1650  0.4196
  183MOL0     C24631   1.687   2.932   3.064 -0.1804  0.4825 -0.8194
  183MOL0     C24632   1.648   2.864   3.192 -0.2922 -0.3226 -0.2930
  183MOL0     C24633   1.687   2.722   3.210 -0.0596 -0.3918 -0.0917
  183MOL0     C24634   1.711   2.604   3.225 -0.3201  0.5360  0.5483
  183MOL0     C24635   1.682   3.108   2.593 -0.0381  0.8144 -0.1812
  183MOL0     C24636   1.714   3.175   2.475  0.3667 -0.6491 -0.6224
  183MOL0     C24637   1.697   3.100   2.347  0.5454  0.9958  0.5551
  183MOL0     H24638   2.043   3.460   2.168 -0.9069 -0.7594 -0.6906
  183MOL0     H24639   2.144   3.656   2.055  0.8654 -2.1420  0.0814
  183MOL0     H24640   1.942   4.036   2.038  2.4924  3.8533 -4.0553
  183MOL0     H24641   2.024   4.082   2.186 -2.2013 -1.9644 -0.5739
  183MOL0     H24642   2.174   4.092   1.932  0.5211 -2.2926  0.7836
  183MOL0     H24643   2.219   4.183   2.073  0.9894 -0.5291 -1.9560
  183MOL0     H24644   2.058   4.347   2.064 -1.3012  1.9508 -0.8994
  183MOL0     H24645   1.960   4.252   1.950 -0.7850  0.2465 -0.9045
  183MOL0     H24646   2.237   4.404   1.917 -1.2129 -1.1521  5.9702
  183MOL0     H24647   2.167   4.309   1.786  0.1020 -1.2873  1.1299
  183MOL0     H24648   1.967   4.452   1.788  1.0324 -0.1165 -2.5944
  183MOL0     H24649   2.035   4.543   1.929  0.0106 -1.3284 -0.7230
  183MOL0     H24650   2.092   4.682   1.749  2.8800  1.5111  0.6762
  183MOL0     H24651   2.233   4.604   1.806  0.3415  0.6922 -1.1408
  183MOL0     H24652   2.063   4.509   1.567  1.9113 -2.8252 -2.9568
  183MOL0     H24653   2.218   4.435   1.609  0.0365 -0.9227  0.7160
  183MOL0     H24654   2.168   4.723   1.543 -3.2172 -2.9468  3.0005
  183MOL0     H24655   2.332   4.636   1.550 -0.0720  1.4331  0.2636
  183MOL0     H24656   2.237   4.380   1.377  1.0073 -1.1276 -0.1784
  183MOL0     H24657   2.303   4.415   0.989  1.8729  1.3156  1.1872
  183MOL0     H24658   2.242   4.301   1.119 -0.5586  0.5189  1.2296
  183MOL0     H24659   2.016   4.393   1.079  1.9556 -2.0200  1.1519
  183MOL0     H24660   2.080   4.479   0.934  0.4093 -0.7095 -2.3469
  183MOL0     H24661   1.945   4.260   0.905 -0.3813 -3.9192  5.4754
  183MOL0     H24662   2.092   4.174   0.971  0.0568  0.9500  1.1655
  183MOL0     H24663   2.118   4.157   0.726  1.1311  0.1450 -0.9750
  183MOL0     H24664   2.212   4.297   0.778 -0.5624  1.5590  0.9977
  183MOL0     H24665   1.830   4.457   0.571 -0.3993  1.1217 -0.9267
  183MOL0     H24666   1.792   4.700   0.576  0.6364  0.9335 -3.7314
  183MOL0     H24667   2.029   5.140   0.466  2.0203  0.0874 -2.5849
  183MOL0     H24668   2.064   5.372   0.462  0.0998 -0.0287  0.6740
  183MOL0     H24669   2.064   5.578   0.518 -0.3945  0.4059  1.3459
  183MOL0     H24670   2.159   5.705   0.601  3.1585  1.4515 -1.8915
  183MOL0     H24671   2.345   5.643   0.486  0.3795 -1.6853  1.3627
  183MOL0     H24672   2.275   5.507   0.393 -1.6099  0.2270 -0.7220
  183MOL0     H24673   2.105   5.643   0.292 -2.3657  0.2878  3.5279
  183MOL0     H24674   2.161   5.787   0.374 -1.5039  1.2641 -0.8928
  183MOL0     H24675   2.314   5.622   0.175  0.3489  0.8638 -0.5730
  183MOL0     H24676   2.393   5.751   0.279  0.3397 -0.7297  1.0126
  183MOL0     H24677   2.263   5.922   0.172  1.1284  1.1424 -3.9514
  183MOL0     H24678   2.178   5.805   0.067 -1.5534  0.1607  1.8027
  183MOL0     H24679   2.471   5.896   0.074  1.7028 -0.3026 -1.2074
  183MOL0     H24680   2.408   5.747  -0.016  0.7382  0.8084 -0.3497
  183MOL0     H24681   2.335   6.043  -0.041 -0.8771  0.5050 -1.1580
  183MOL0     H24682   2.271   5.911  -0.142 -0.5103  1.4841  0.7995
  183MOL0     H24683   2.494   6.041  -0.233 -0.2465 -0.6453 -0.3164
  183MOL0     H24684   2.574   5.966  -0.100  1.6677 -1.8934 -0.7743
  183MOL0     H24685   2.314   5.354   0.810 -1.1316  0.1902 -0.5442
  183MOL0     H24686   2.259   5.096   0.820  0.3065 -4.2243 -3.2246
  183MOL0     H24687   2.223   4.724   0.681  1.8457 -0.5587 -2.9721
  183MOL0     H24688   2.220   4.510   0.726 -0.8553 -2.1325  0.2957
  183MOL0     H24689   1.883   3.911   2.285 -1.7244  0.3089  0.0626
  183MOL0     H24690   1.799   3.708   2.395 -2.8865 -3.1681 -1.3264
  183MOL0     H24691   1.785   3.481   2.597  0.7266  1.3034  1.6620
  183MOL0     H24692   1.693   3.357   2.814  2.5826 -2.4636  0.6348
  183MOL0     H24693   1.592   3.229   2.939  0.6246  0.3125  1.1662
  183MOL0     H24694   1.755   3.165   2.946 -1.2084  1.8471 -2.6427
  183MOL0     H24695   1.487   3.026   3.022  0.2756 -1.2099  2.4835
  183MOL0     H24696   1.588   3.114   3.137  0.0490  1.3013 -0.4119
  183MOL0     H24697   1.789   2.965   3.086 -0.8902  1.2223  1.6749
  183MOL0     H24698   1.673   2.860   2.982 -3.1725 -1.6208  1.3107
  183MOL0     H24699   1.694   2.914   3.278 -1.6179 -1.7558  1.3298
  183MOL0     H24700   1.540   2.859   3.209 -0.0664 -0.4795  1.2745
  183MOL0     H24701   1.736   2.503   3.252  0.8861 -0.5200 -3.8140
  183MOL0     H24702   1.661   3.002   2.591 -1.4376  1.0778 -1.9954
  183MOL0     H24703   1.788   3.097   2.287 -0.4611  0.5428 -1.0180
  183MOL0     H24704   1.678   2.993   2.357  1.5563  0.9646  2.7529
  183MOL0     H24705   1.606   3.134   2.295  0.2981 -1.1265 -0.5104
  184MOL0     O24706   3.610  10.484   9.169 -0.4769 -0.5118  0.0843
  184MOL0     C24707   3.514  10.470   9.242 -0.5286 -0.6487  0.2350
  184MOL0     O24708   3.448  10.577   9.302 -0.6890  0.0009  0.1633
  184MOL0     C24709   3.478  10.705   9.260  0.3401  0.3109 -0.3924
  184MOL0     C24710   3.619  10.751   9.266 -0.5218 -0.0274  0.4145
  184MOL0     C24711   3.656  10.886   9.243  0.0985 -0.3345  0.0555
  184MOL0     C24712   3.563  10.979   9.219  0.7180  0.0718  0.4090
  184MOL0     O24713   3.614  11.105   9.215 -0.8458 -0.4702 -0.7357
  184MOL0     C24714   3.520  11.213   9.215 -0.5570  0.4441 -0.1989
  184MOL0     C24715   3.587  11.355   9.204 -0.3142 -0.1950  0.3200
  184MOL0     C24716   3.647  11.402   9.339  0.6713 -0.0666 -0.5846
  184MOL0     C24717   3.786  11.460   9.313 -0.5357 -0.3338  1.0490
  184MOL0     C24718   3.861  11.488   9.442  0.0311  0.1487 -0.0255
  184MOL0     C24719   3.995  11.558   9.416  0.7267  1.2013 -0.5375
  184MOL0     C24720   4.085  11.472   9.328  0.0837  0.0664 -0.9857
  184MOL0     C24721   4.226  11.508   9.342 -0.4887  0.7146 -0.4522
  184MOL0     N24722   4.289  11.435   9.453  0.4816  0.3926 -0.7384
  184MOL0     C24723   4.300  11.481   9.586 -0.2842  0.0913 -0.1900
  184MOL0     C24724   4.365  11.384   9.644  0.0085  0.5151  0.7321
  184MOL0     C24725   4.394  11.378   9.792 -0.4173  0.6588  0.4537
  184MOL0     C24726   4.448  11.513   9.852  0.0195  0.3040 -0.1830
  184MOL0     C24727   4.475  11.507   9.999  0.2743  0.0165  0.3952
  184MOL0     C24728   4.523  11.644  10.059  0.6042  1.0076  0.2162
  184MOL0     O24729   4.525  11.645  10.200  0.7845 -0.0991  0.5279
  184MOL0     C24730   4.623  11.588  10.273  0.2122  0.5734 -0.1939
  184MOL0     C24731   4.603  11.596  10.410 -0.5602 -0.3459  0.2687
  184MOL0     C24732   4.699  11.549  10.499 -0.4473 -0.9200  0.2637
  184MOL0     C24733   4.803  11.483  10.448 -0.6973  0.6779  0.1307
  184MOL0     C24734   4.904  11.423  10.535 -0.1361  0.9319  0.6032
  184MOL0     O24735   5.030  11.385  10.485 -0.0618 -0.2689  0.4662
  184MOL0     C24736   5.118  11.327  10.570  0.8554  0.0199 -0.2863
  184MOL0     C24737   5.221  11.258  10.505  0.1565 -0.4269  0.6959
  184MOL0     C24738   5.341  11.215  10.577 -0.1869 -0.1718 -0.5848
  184MOL0     C24739   5.337  11.221  10.717 -0.4942  0.9826  0.5359
  184MOL0     O24740   5.447  11.177  10.792 -0.4102  0.4151  0.6413
  184MOL0     C24741   5.509  11.053  10.753 -0.0536 -0.6350 -0.5558
  184MOL0     C24742   5.417  10.930  10.741 -1.0027  1.5894 -0.4632
  184MOL0     C24743   5.357  10.890  10.879 -0.0943  0.5309  1.0550
  184MOL0     C24744   5.422  10.772  10.939  0.1535  0.7557  0.4693
  184MOL0     C24745   5.357  10.738  11.078 -1.0236  0.3772  0.6012
  184MOL0     C24746   5.392  10.831  11.184  0.8499  0.0275  0.5745
  184MOL0     C24747   5.336  10.770  11.320  0.1366  0.3884 -0.3266
  184MOL0     C24748   5.298  10.868  11.424  0.9842 -0.2483  0.4253
  184MOL0    Cl24749   5.437  10.984  11.447  0.0739  0.4699 -0.1978
  184MOL0     C24750   5.227  11.270  10.778 -0.1022 -0.3072  0.2881
  184MOL0     C24751   5.116  11.319  10.711  0.0241  0.2282  0.1668
  184MOL0     O24752   4.866  11.389  10.651  0.3847 -0.0169  0.1012
  184MOL0     C24753   4.822  11.473  10.314 -1.0301 -0.0992  0.6611
  184MOL0     C24754   4.736  11.520  10.220  0.3563  0.4667 -0.3007
  184MOL0     N24755   4.404  11.288   9.557  0.7627 -0.5509 -1.0314
  184MOL0     N24756   4.357  11.322   9.445  0.0768  0.3843 -0.0015
  184MOL0     C24757   3.425  10.940   9.222  0.2393 -1.2883 -0.0804
  184MOL0     C24758   3.380  10.813   9.251 -0.4902 -0.1936 -0.6329
  184MOL0     C24759   3.475  10.336   9.288 -0.1345 -0.7593 -0.2109
  184MOL0     C24760   3.567  10.244   9.329 -1.1963  0.6926  0.2486
  184MOL0     C24761   3.543  10.115   9.385  0.5448 -0.0133  0.0973
  184MOL0     C24762   3.404  10.077   9.405 -0.1146 -0.7000 -0.4749
  184MOL0     O24763   3.357   9.965   9.456  0.4395 -0.9726  0.2034
  184MOL0     C24764   3.450   9.857   9.478  0.1331 -0.3465 -0.2594
  184MOL0     C24765   3.499   9.788   9.347 -0.3307  0.5135 -0.1141
  184MOL0     C24766   3.623   9.699   9.385 -0.4132 -0.5500  0.7976
  184MOL0     C24767   3.713   9.666   9.261 -0.6275  1.1653 -0.0272
  184MOL0     C24768   3.832   9.581   9.280  0.2110 -0.4130  1.0079
  184MOL0     C24769   3.934   9.520   9.311 -0.5692 -0.0883 -0.2337
  184MOL0     C24770   3.312  10.171   9.377  0.2513  0.7430 -0.5125
  184MOL0     C24771   3.336  10.295   9.308 -0.2299 -0.5024 -0.0820
  184MOL0     C24772   3.219  10.391   9.280 -0.9132  0.7758  0.3744
  184MOL0     H24773   3.694  10.673   9.276 -0.5713  0.1300  2.5100
  184MOL0     H24774   3.764  10.897   9.251 -0.0471  2.1577 -0.6038
  184MOL0     H24775   3.457  11.197   9.127  0.4842 -0.2518 -0.8408
  184MOL0     H24776   3.461  11.207   9.307 -1.7320 -0.7253 -0.9927
  184MOL0     H24777   3.521  11.433   9.164 -1.5204 -2.2270 -1.9417
  184MOL0     H24778   3.656  11.343   9.120 -0.7609 -0.7994  0.0335
  184MOL0     H24779   3.661  11.323   9.413 -0.5548 -0.4111 -0.6958
  184MOL0     H24780   3.594  11.486   9.385  2.5658  1.2287 -0.6366
  184MOL0     H24781   3.850  11.395   9.252  1.8637 -0.8207  3.8441
  184MOL0     H24782   3.769  11.551   9.254 -2.5422 -0.1090  1.8865
  184MOL0     H24783   3.802  11.544   9.516  2.0286  3.4590 -0.7478
  184MOL0     H24784   3.881  11.386   9.475  1.6558  0.9293  1.6065
  184MOL0     H24785   3.960  11.653   9.373 -1.2120  1.0449  0.5958
  184MOL0     H24786   4.038  11.574   9.515  0.2621 -0.8963  0.0383
  184MOL0     H24787   4.060  11.494   9.224  0.6540  2.3533 -0.7017
  184MOL0     H24788   4.062  11.366   9.342 -0.9374  0.3407 -0.5221
  184MOL0     H24789   4.285  11.465   9.261  0.1452 -1.4882  1.0889
  184MOL0     H24790   4.229  11.617   9.350 -0.4280  0.6482  0.5006
  184MOL0     H24791   4.255  11.571   9.626 -1.1198 -0.5044  0.2756
  184MOL0     H24792   4.301  11.348   9.841 -1.5564  0.1549 -1.8415
  184MOL0     H24793   4.476  11.310   9.817  2.8847  2.7904 -3.3636
  184MOL0     H24794   4.533  11.551   9.795  0.2646  1.7672  1.0991
  184MOL0     H24795   4.371  11.590   9.838 -0.0636  0.5331  1.4119
  184MOL0     H24796   4.562  11.442  10.007 -0.7901 -1.5188 -0.0478
  184MOL0     H24797   4.382  11.473  10.046 -0.0088 -0.3635 -0.4235
  184MOL0     H24798   4.451  11.711  10.009  0.5786 -0.2181 -1.4624
  184MOL0     H24799   4.623  11.667  10.022  1.0699 -1.8484 -0.4948
  184MOL0     H24800   4.511  11.647  10.438 -0.0219  1.7580 -1.4605
  184MOL0     H24801   4.678  11.562  10.605 -2.8803  0.9027 -0.3565
  184MOL0     H24802   5.227  11.250  10.397  1.7751 -1.0242  0.8129
  184MOL0     H24803   5.424  11.174  10.521 -0.3019 -2.3098  0.6741
  184MOL0     H24804   5.572  11.066  10.664 -0.7468  0.2476 -0.9402
  184MOL0     H24805   5.584  11.040  10.832 -0.1848 -0.6292 -0.4302
  184MOL0     H24806   5.334  10.951  10.673 -2.0766  0.7113  0.5452
  184MOL0     H24807   5.476  10.852  10.693  0.4105  1.6299  1.1298
  184MOL0     H24808   5.370  10.979  10.941  2.1985  3.3778 -3.0275
  184MOL0     H24809   5.248  10.882  10.866  0.1194 -0.0147 -0.6135
  184MOL0     H24810   5.531  10.783  10.949  0.1007  0.5391  1.3869
  184MOL0     H24811   5.412  10.688  10.870  1.2959  2.4058 -1.8296
  184MOL0     H24812   5.387  10.639  11.114 -3.4135 -0.5308  0.2774
  184MOL0     H24813   5.248  10.742  11.073 -1.0113 -0.2380 -2.7036
  184MOL0     H24814   5.501  10.846  11.189  1.0099  0.0723 -1.9703
  184MOL0     H24815   5.344  10.929  11.181 -2.2272 -1.3213  1.9065
  184MOL0     H24816   5.415  10.706  11.361 -0.0765  0.0656 -0.4085
  184MOL0     H24817   5.250  10.706  11.299  0.6032 -0.6576  0.7965
  184MOL0     H24818   5.214  10.928  11.388  1.8116  1.1487  0.7672
  184MOL0     H24819   5.267  10.808  11.510  1.7581  0.1902  1.0165
  184MOL0     H24820   5.246  11.285  10.884 -0.9712  1.7458  0.2150
  184MOL0     H24821   5.044  11.362  10.779 -0.3511 -1.8994  1.1877
  184MOL0     H24822   4.903  11.424  10.261  0.5807  1.5244  1.5122
  184MOL0     H24823   4.757  11.509  10.114  0.4397  1.9394 -0.4534
  184MOL0     H24824   3.344  11.012   9.226 -0.8462 -2.4733 -0.0381
  184MOL0     H24825   3.273  10.797   9.262 -0.9524  2.8636  0.1175
  184MOL0     H24826   3.670  10.273   9.314 -0.0198 -1.7301  2.7279
  184MOL0     H24827   3.628  10.052   9.411 -1.5295 -1.2410  5.0386
  184MOL0     H24828   3.381   9.787   9.528 -3.9827  1.0265 -3.4885
  184MOL0     H24829   3.528   9.887   9.549 -0.3571  0.5589 -0.0909
  184MOL0     H24830   3.533   9.862   9.274  1.8296 -2.3524 -2.2152
  184MOL0     H24831   3.422   9.722   9.307 -2.7926  0.5805  3.9941
  184MOL0     H24832   3.591   9.603   9.428 -0.2409 -0.6647  0.6724
  184MOL0     H24833   3.687   9.760   9.449  1.1294  1.3327 -2.2999
  184MOL0     H24834   3.643   9.615   9.195 -1.3411  3.1641 -0.9143
  184MOL0     H24835   3.741   9.760   9.213 -2.6882  1.1666 -1.3247
  184MOL0     H24836   4.028   9.471   9.328 -0.0628  0.8811 -0.1250
  184MOL0     H24837   3.214  10.139   9.410  2.1323 -1.9086  3.1711
  184MOL0     H24838   3.131  10.349   9.330  0.5194  0.4797  2.7713
  184MOL0     H24839   3.230  10.490   9.325  0.2673 -0.0792  2.0580
  184MOL0     H24840   3.195  10.401   9.173 -1.3083  0.4479  0.4284
  185MOL0     O24841   6.386   3.602  10.629  0.2454  0.0964  0.2558
  185MOL0     C24842   6.269   3.565  10.647 -0.8515  0.2848 -0.8790
  185MOL0     O24843   6.225   3.448  10.713 -0.2664 -0.0649  0.9911
  185MOL0     C24844   6.324   3.389  10.790 -0.0703 -0.3248  0.1067
  185MOL0     C24845   6.359   3.422  10.921  0.5587 -0.0651  0.1169
  185MOL0     C24846   6.464   3.358  10.991 -0.1277  0.7784 -0.0501
  185MOL0     C24847   6.553   3.272  10.920  0.5823 -0.2396  0.3911
  185MOL0     O24848   6.657   3.207  10.985  1.2071  0.3037 -0.6070
  185MOL0     C24849   6.739   3.300  11.064  0.2230 -1.1395 -0.1928
  185MOL0     C24850   6.880   3.259  11.043  0.3788  0.5150 -0.6053
  185MOL0     C24851   6.984   3.297  11.154 -0.7776  0.4297  0.8535
  185MOL0     C24852   7.123   3.262  11.105  0.3298 -0.0485 -0.0230
  185MOL0     C24853   7.231   3.292  11.210  0.7086 -1.3073 -0.8355
  185MOL0     C24854   7.217   3.229  11.352  0.4578 -0.1117 -0.9912
  185MOL0     C24855   7.353   3.207  11.419 -0.2663 -0.7851  0.3970
  185MOL0     C24856   7.342   3.191  11.574  0.9946 -0.4050  0.7994
  185MOL0     N24857   7.252   3.083  11.601 -0.3806 -0.2226  0.0662
  185MOL0     C24858   7.257   2.954  11.542  0.6962  0.3349 -0.0156
  185MOL0     C24859   7.145   2.894  11.598 -0.0001  1.4965 -0.2856
  185MOL0     C24860   7.089   2.752  11.589 -0.4808  0.9085  0.0989
  185MOL0     C24861   7.201   2.649  11.598 -0.8675 -0.3620  0.6252
  185MOL0     C24862   7.150   2.512  11.636  0.9752 -0.6183  0.2418
  185MOL0     C24863   7.253   2.418  11.702  0.8083 -0.5796  0.1543
  185MOL0     O24864   7.176   2.321  11.776 -0.3268 -0.4111 -0.5206
  185MOL0     C24865   7.142   2.197  11.725 -0.3112 -0.9843 -0.6696
  185MOL0     C24866   7.231   2.120  11.648 -0.7646 -0.5373 -0.3458
  185MOL0     C24867   7.196   1.993  11.597  0.6653 -0.3884  0.8779
  185MOL0     C24868   7.072   1.936  11.635 -0.6765 -0.2347 -0.1493
  185MOL0     C24869   7.043   1.795  11.587 -0.2233  1.0044  1.2578
  185MOL0     O24870   7.091   1.740  11.468 -0.4260 -0.2492  0.4796
  185MOL0     C24871   7.056   1.615  11.436 -0.4639  0.2214  0.8581
  185MOL0     C24872   6.930   1.598  11.373  0.4127  0.1666  0.0936
  185MOL0     C24873   6.889   1.470  11.351 -0.8573 -0.4944  0.1980
  185MOL0     C24874   6.972   1.363  11.377 -0.1423  0.4377  0.2450
  185MOL0     O24875   6.919   1.245  11.335 -0.0683 -0.3631  0.3555
  185MOL0     C24876   6.989   1.128  11.364  0.0869 -0.0882 -0.4599
  185MOL0     C24877   6.918   1.008  11.310 -0.2989  0.4957 -1.0338
  185MOL0     C24878   6.793   0.963  11.390 -0.6405 -0.2081 -0.8493
  185MOL0     C24879   6.719   0.849  11.323 -0.0003 -0.4702  0.6898
  185MOL0     C24880   6.803   0.725  11.332 -0.5063  0.7448  0.1926
  185MOL0     C24881   6.758   0.611  11.242 -0.0678  0.4333 -0.2737
  185MOL0     C24882   6.837   0.480  11.273 -0.3059 -0.9192  0.1077
  185MOL0     C24883   6.823   0.380  11.166 -0.6414  0.0280  0.2140
  185MOL0    Cl24884   6.655   0.310  11.135 -0.1612 -0.5682  0.7196
  185MOL0     C24885   7.102   1.380  11.421 -0.5418 -0.7692  0.2169
  185MOL0     C24886   7.141   1.512  11.459  0.0404  0.5765  0.9197
  185MOL0     O24887   6.989   1.724  11.671  0.4703  0.0275 -0.1777
  185MOL0     C24888   6.988   2.011  11.715  0.6134 -0.5957 -0.1451
  185MOL0     C24889   7.023   2.134  11.772  0.1786  0.3129 -0.3572
  185MOL0     N24890   7.089   2.989  11.691 -0.1991  0.4309 -0.5427
  185MOL0     N24891   7.138   3.101  11.669  0.1980 -0.4041  0.2607
  185MOL0     C24892   6.513   3.232  10.788  0.1154 -1.2144 -0.1693
  185MOL0     C24893   6.410   3.297  10.721 -0.8190 -0.3692 -0.6397
  185MOL0     C24894   6.164   3.663  10.612 -0.3286  0.1978 -0.1642
  185MOL0     C24895   6.027   3.612  10.607  0.1152  0.3274 -0.0246
  185MOL0     C24896   5.921   3.699  10.575 -0.0414  0.0786  0.6877
  185MOL0     C24897   5.933   3.832  10.553  0.1861  0.1425 -0.0135
  185MOL0     O24898   5.815   3.905  10.524 -0.6060 -0.4408 -0.4843
  185MOL0     C24899   5.842   4.049  10.496  0.4985  0.1304  0.1404
  185MOL0     C24900   5.718   4.135  10.464  0.3488  0.7992  0.1247
  185MOL0     C24901   5.631   4.082  10.346 -0.7041  0.1590  0.4257
  185MOL0     C24902   5.502   4.167  10.331 -0.1585 -0.0769  0.1184
  185MOL0     C24903   5.399   4.090  10.257 -0.3887 -0.6603 -0.1546
  185MOL0     C24904   5.321   4.035  10.186 -0.0433  0.9048 -0.0598
  185MOL0     C24905   6.062   3.884  10.555  0.4607 -0.2276  0.4157
  185MOL0     C24906   6.174   3.801  10.586 -0.7771 -0.3350  0.6224
  185MOL0     C24907   6.295   3.882  10.602 -1.0292 -0.8935 -0.4683
  185MOL0     H24908   6.293   3.497  10.965  0.0593  0.2854 -1.1837
  185MOL0     H24909   6.479   3.379  11.097 -2.1971  0.6462  0.2996
  185MOL0     H24910   6.726   3.407  11.047 -0.1209 -1.2638 -0.7412
  185MOL0     H24911   6.710   3.289  11.169  1.6177  2.4949  0.7040
  185MOL0     H24912   6.915   3.296  10.947  0.3505  0.8338 -0.4939
  185MOL0     H24913   6.868   3.152  11.023 -1.0442  0.6912 -0.7779
  185MOL0     H24914   6.956   3.240  11.243 -2.0764 -1.0911 -0.4625
  185MOL0     H24915   6.970   3.401  11.184 -1.9777 -0.4060  3.5021
  185MOL0     H24916   7.115   3.153  11.095 -0.8558 -0.2254  2.0954
  185MOL0     H24917   7.161   3.320  11.021  2.7610  1.0663  1.7270
  185MOL0     H24918   7.331   3.264  11.174  1.1431  1.0253 -1.6272
  185MOL0     H24919   7.235   3.399  11.236 -2.5733 -0.2658 -3.9203
  185MOL0     H24920   7.147   3.284  11.416 -1.0330 -2.5216 -0.4134
  185MOL0     H24921   7.164   3.135  11.331  1.0197 -0.3165 -1.5097
  185MOL0     H24922   7.408   3.301  11.407 -0.7242 -0.6625 -0.8912
  185MOL0     H24923   7.411   3.125  11.374  0.5527  0.9714 -1.9603
  185MOL0     H24924   7.434   3.166  11.627  0.2290 -0.0752  2.3521
  185MOL0     H24925   7.305   3.287  11.612  2.4447  0.4375  0.1371
  185MOL0     H24926   7.321   2.910  11.466  0.4566 -0.2070  0.0898
  185MOL0     H24927   7.024   2.731  11.674 -2.0548 -1.9001 -1.6502
  185MOL0     H24928   7.028   2.732  11.500 -2.1123  1.4143  1.0679
  185MOL0     H24929   7.272   2.644  11.515 -0.9345  1.9956  0.3644
  185MOL0     H24930   7.269   2.693  11.672 -0.9875  2.9034 -1.0301
  185MOL0     H24931   7.116   2.458  11.547 -2.2650  3.6486 -1.4818
  185MOL0     H24932   7.059   2.511  11.696  0.9795  0.8747  0.3155
  185MOL0     H24933   7.305   2.482  11.775  1.5094 -1.4474  0.4318
  185MOL0     H24934   7.336   2.387  11.639  1.0970  1.2122 -0.4167
  185MOL0     H24935   7.332   2.158  11.636 -1.3506  1.0681 -0.4845
  185MOL0     H24936   7.267   1.939  11.535  1.0529  0.5873  0.4544
  185MOL0     H24937   6.888   1.692  11.338  2.7135  0.3978 -2.3423
  185MOL0     H24938   6.793   1.447  11.305 -0.3990 -2.3163  0.0927
  185MOL0     H24939   7.088   1.124  11.319 -0.0595 -0.7696 -0.7205
  185MOL0     H24940   6.994   1.110  11.471  0.7831 -2.6528 -0.8609
  185MOL0     H24941   6.897   1.012  11.202 -4.7378  0.8284 -0.3361
  185MOL0     H24942   6.984   0.921  11.306  0.2918  0.6205  2.6436
  185MOL0     H24943   6.818   0.936  11.493  2.5261 -1.5291 -1.8371
  185MOL0     H24944   6.729   1.049  11.409  0.7188  0.6667 -0.1112
  185MOL0     H24945   6.706   0.877  11.218  0.4703 -2.6108  0.0136
  185MOL0     H24946   6.629   0.829  11.381  1.5239  0.7128  3.6384
  185MOL0     H24947   6.794   0.704  11.439  0.9383 -0.4526  0.1039
  185MOL0     H24948   6.907   0.745  11.308 -0.6928  0.6716 -0.7338
  185MOL0     H24949   6.653   0.589  11.265  0.2643 -0.6297  0.2825
  185MOL0     H24950   6.776   0.647  11.140  1.9332 -1.1803 -0.5455
  185MOL0     H24951   6.792   0.435  11.362 -0.3748 -1.5735 -0.2521
  185MOL0     H24952   6.943   0.495  11.296  0.0996 -1.7367 -1.1560
  185MOL0     H24953   6.862   0.428  11.076 -0.5858 -0.6555 -0.1320
  185MOL0     H24954   6.898   0.304  11.190  2.8151  2.1777 -2.8169
  185MOL0     H24955   7.178   1.305  11.440  2.6615  1.8939 -0.9553
  185MOL0     H24956   7.241   1.522  11.502  0.8810 -1.7778 -0.2848
  185MOL0     H24957   6.892   1.971  11.745  0.6807 -1.3041 -0.8396
  185MOL0     H24958   6.951   2.175  11.843  2.0017  2.1319  0.5689
  185MOL0     H24959   6.573   3.153  10.745 -0.6772 -0.8872 -1.9712
  185MOL0     H24960   6.380   3.277  10.619  0.1526  0.5507 -1.1429
  185MOL0     H24961   6.005   3.506  10.621  0.2534  0.4164  0.9546
  185MOL0     H24962   5.834   3.634  10.575  1.5115 -2.0932  1.7813
  185MOL0     H24963   5.909   4.057  10.409  1.1170  0.5902  0.6481
  185MOL0     H24964   5.891   4.090  10.584 -1.5142  1.2975  0.7862
  185MOL0     H24965   5.751   4.233  10.428  0.0052  0.8706  0.0031
  185MOL0     H24966   5.652   4.150  10.551 -2.7814 -0.7130 -1.8116
  185MOL0     H24967   5.607   3.978  10.369  2.1025 -0.9008 -0.9818
  185MOL0     H24968   5.696   4.085  10.259  0.5992  3.3310  1.3530
  185MOL0     H24969   5.464   4.215  10.422  0.6926  0.9796 -0.0506
  185MOL0     H24970   5.540   4.249  10.268 -0.2337 -1.3652 -1.6671
  185MOL0     H24971   5.256   3.989  10.115 -0.1702  0.8923  0.0650
  185MOL0     H24972   6.084   3.984  10.520  2.1935 -1.1770 -1.4609
  185MOL0     H24973   6.275   3.988  10.619  2.0927 -0.5496  2.1089
  185MOL0     H24974   6.357   3.858  10.689  1.1397  2.6210 -0.8217
  185MOL0     H24975   6.352   3.869  10.509 -1.6102 -0.9959 -0.8138
  186MOL0     O24976   9.785  10.054   7.979  0.1886 -0.1171  1.3195
  186MOL0     C24977   9.767  10.151   8.054 -0.5965 -0.0366 -0.7989
  186MOL0     O24978   9.802  10.157   8.186 -0.5114  0.1026  0.1793
  186MOL0     C24979   9.873  10.053   8.224 -0.1917  1.3305 -0.2989
  186MOL0     C24980   9.815   9.929   8.261 -0.3256  0.5634  0.1354
  186MOL0     C24981   9.898   9.820   8.291 -0.7507  0.2734  0.4325
  186MOL0     C24982  10.041   9.835   8.287 -0.7632  0.1368  0.4804
  186MOL0     O24983  10.139   9.734   8.315  0.4543  0.1539  0.9099
  186MOL0     C24984  10.083   9.611   8.369 -0.2254 -0.5278 -0.5034
  186MOL0     C24985  10.185   9.502   8.384 -0.2270 -0.5477 -0.2246
  186MOL0     C24986  10.251   9.465   8.255  0.0551 -0.1689  0.4621
  186MOL0     C24987  10.387   9.404   8.295 -0.4359  0.3982 -0.3952
  186MOL0     C24988  10.449   9.310   8.190 -0.2150 -0.3478  0.7062
  186MOL0     C24989  10.466   9.370   8.052 -0.4186 -0.8937 -0.9927
  186MOL0     C24990  10.514   9.254   7.951 -0.2531 -0.3101 -0.6345
  186MOL0     C24991  10.534   9.322   7.814 -0.1747  0.8578 -0.2303
  186MOL0     N24992  10.414   9.385   7.763 -0.3262 -0.2824  1.2725
  186MOL0     C24993  10.377   9.520   7.790 -0.0404 -0.1831  0.2497
  186MOL0     C24994  10.251   9.516   7.745 -0.1042 -0.2573 -0.1350
  186MOL0     C24995  10.164   9.644   7.734  0.4116  0.7929  0.2062
  186MOL0     C24996  10.154   9.698   7.875  0.6768  0.8901  0.3853
  186MOL0     C24997  10.095   9.599   7.980 -0.8900  0.2491  0.6606
  186MOL0     C24998   9.943   9.609   7.983  0.3384  0.4571 -0.3718
  186MOL0     O24999   9.877   9.551   7.861 -0.0754  0.8381  0.4856
  186MOL0     C25000   9.764   9.610   7.809  0.0322  0.5044 -0.1041
  186MOL0     C25001   9.696   9.726   7.852  0.4379 -0.0206 -0.4059
  186MOL0     C25002   9.582   9.773   7.777  0.1223  0.6065 -0.0032
  186MOL0     C25003   9.530   9.697   7.669 -0.2525  0.2458  0.3448
  186MOL0     C25004   9.405   9.745   7.603  0.0969  0.2186  0.8388
  186MOL0     O25005   9.365   9.877   7.621  0.1242 -0.0751 -0.0703
  186MOL0     C25006   9.251   9.912   7.554 -0.1132  0.0318 -0.1477
  186MOL0     C25007   9.131   9.939   7.625 -0.6631 -0.1953  0.5567
  186MOL0     C25008   9.016   9.995   7.560  0.0298  1.1175 -0.2235
  186MOL0     C25009   9.014  10.013   7.420  0.4046 -0.5276  0.3607
  186MOL0     O25010   8.893  10.060   7.359  0.5674 -0.7240 -0.5157
  186MOL0     C25011   8.889  10.074   7.213 -0.2767 -0.3205 -0.6460
  186MOL0     C25012   8.761  10.141   7.172  0.5322  0.3401 -0.4049
  186MOL0     C25013   8.790  10.208   7.035 -0.0774 -0.0292  0.7776
  186MOL0     C25014   8.664  10.264   6.963  0.1581  0.1680  0.7020
  186MOL0     C25015   8.595  10.374   7.042  0.8819  0.2461 -0.9818
  186MOL0     C25016   8.466  10.442   6.993  0.5123 -0.5940 -0.3563
  186MOL0     C25017   8.477  10.519   6.867 -0.5889  0.1504  0.8733
  186MOL0     C25018   8.333  10.556   6.819  0.3270  0.1999 -0.1159
  186MOL0    Cl25019   8.318  10.674   6.687 -0.2466 -0.0050 -0.0327
  186MOL0     C25020   9.132   9.978   7.355 -0.0732  0.2062  0.0133
  186MOL0     C25021   9.247   9.936   7.421  0.5658 -0.5595  0.8618
  186MOL0     O25022   9.349   9.660   7.532  0.3844 -0.0736  0.2025
  186MOL0     C25023   9.596   9.574   7.641 -0.3028 -0.3358 -0.4702
  186MOL0     C25024   9.709   9.534   7.711  0.2069  0.2432 -0.2152
  186MOL0     N25025  10.205   9.391   7.707 -0.6605  0.0256  0.5542
  186MOL0     N25026  10.306   9.311   7.715  0.4447 -0.7828 -0.4575
  186MOL0     C25027  10.097   9.962   8.262 -0.3081  0.5635 -0.5259
  186MOL0     C25028  10.006  10.072   8.240 -0.3817 -0.4233 -0.0873
  186MOL0     C25029   9.729  10.281   8.001 -0.7086  0.1297  0.6599
  186MOL0     C25030   9.754  10.398   8.082  0.1014 -0.1038 -0.1214
  186MOL0     C25031   9.708  10.529   8.049 -0.1428  0.7257  0.7179
  186MOL0     C25032   9.649  10.553   7.921  0.5843  0.7706 -0.0325
  186MOL0     O25033   9.634  10.670   7.856 -0.1233 -0.4284 -0.0143
  186MOL0     C25034   9.696  10.791   7.916  0.3111 -0.4483 -0.2189
  186MOL0     C25035   9.709  10.890   7.801 -0.1280 -0.3791 -0.0136
  186MOL0     C25036   9.815  10.847   7.693  0.3872  0.5339  0.0924
  186MOL0     C25037   9.818  10.925   7.571 -0.1758  0.5560  0.4041
  186MOL0     C25038   9.822  11.069   7.591 -0.4224  0.4860 -0.7239
  186MOL0     C25039   9.813  11.190   7.603  0.4110  0.7020 -0.2907
  186MOL0     C25040   9.616  10.439   7.845 -0.6242 -0.7523  0.8034
  186MOL0     C25041   9.655  10.306   7.883 -0.1039  0.6724 -0.0339
  186MOL0     C25042   9.593  10.192   7.796  0.3100 -0.8399  0.1604
  186MOL0     H25043   9.707   9.925   8.274 -0.3336  2.2215  0.8103
  186MOL0     H25044   9.849   9.726   8.315 -0.8529  0.1039 -0.4184
  186MOL0     H25045  10.043   9.643   8.466 -0.7813 -1.5165 -0.3875
  186MOL0     H25046   9.996   9.580   8.310  1.1509 -2.1764 -1.7635
  186MOL0     H25047  10.137   9.412   8.424 -0.4513 -0.4339 -0.2356
  186MOL0     H25048  10.262   9.541   8.450 -0.4802  1.1316 -0.8705
  186MOL0     H25049  10.273   9.558   8.201 -2.0701  0.4920  0.6415
  186MOL0     H25050  10.183   9.401   8.198 -1.0903 -1.5105  3.1921
  186MOL0     H25051  10.453   9.488   8.320  0.3122 -0.4287  0.4995
  186MOL0     H25052  10.380   9.349   8.389  0.2715  2.1828  0.7615
  186MOL0     H25053  10.548   9.284   8.228 -1.3173 -2.6156  2.2883
  186MOL0     H25054  10.382   9.224   8.182 -1.8572  0.9913 -1.0044
  186MOL0     H25055  10.366   9.405   8.022  0.0586 -1.1463 -3.0638
  186MOL0     H25056  10.537   9.452   8.066 -0.0626 -1.5339  1.3247
  186MOL0     H25057  10.431   9.183   7.942  0.3062 -0.9323 -0.9318
  186MOL0     H25058  10.599   9.197   7.990  0.4698 -0.1417 -1.9042
  186MOL0     H25059  10.605   9.405   7.815  0.8950 -0.0375  0.5969
  186MOL0     H25060  10.557   9.249   7.736  1.3395  1.2403 -0.1711
  186MOL0     H25061  10.432   9.602   7.834 -1.1103 -1.0818  3.5081
  186MOL0     H25062  10.205   9.716   7.663 -0.0954 -0.7179 -1.7211
  186MOL0     H25063  10.062   9.626   7.700 -1.1422  3.8155  2.8307
  186MOL0     H25064  10.255   9.728   7.907  0.7635 -0.4723  1.4819
  186MOL0     H25065  10.100   9.793   7.881  0.0074  0.7280 -1.9673
  186MOL0     H25066  10.136   9.627   8.077  3.2405 -3.8801  0.4456
  186MOL0     H25067  10.126   9.496   7.965  0.6536  0.8507 -0.5159
  186MOL0     H25068   9.903   9.708   8.007 -2.4288 -0.1783 -1.9322
  186MOL0     H25069   9.905   9.552   8.067  1.3159  0.0234 -0.2181
  186MOL0     H25070   9.718   9.784   7.941 -0.7867  0.2041 -0.2316
  186MOL0     H25071   9.534   9.867   7.803  1.5055  2.3321 -3.1221
  186MOL0     H25072   9.141   9.929   7.733  0.5682 -0.1707  0.4575
  186MOL0     H25073   8.936  10.010   7.632  2.8430 -0.8709  3.7082
  186MOL0     H25074   8.969  10.144   7.189  0.8300 -1.0124  0.8877
  186MOL0     H25075   8.895   9.982   7.154 -0.6027  0.9962 -2.8585
  186MOL0     H25076   8.687  10.060   7.166  1.5709 -0.7301  0.6811
  186MOL0     H25077   8.738  10.213   7.252 -1.7079 -0.5408 -0.1726
  186MOL0     H25078   8.866  10.287   7.038  0.9303 -0.9439  4.2539
  186MOL0     H25079   8.832  10.131   6.970  0.9036 -0.6244  2.0635
  186MOL0     H25080   8.594  10.184   6.937 -0.2551  0.0555  2.0553
  186MOL0     H25081   8.686  10.308   6.865 -1.6360 -1.2945 -0.4411
  186MOL0     H25082   8.673  10.437   7.085  1.4682 -1.7946  1.1329
  186MOL0     H25083   8.562  10.311   7.125 -0.1940  0.5552 -1.1628
  186MOL0     H25084   8.394  10.361   6.978 -2.9577  2.6283 -3.1100
  186MOL0     H25085   8.428  10.506   7.073  1.2231 -2.1644  1.2888
  186MOL0     H25086   8.536  10.475   6.786 -1.2235  0.0208  0.4664
  186MOL0     H25087   8.529  10.604   6.912 -0.5446 -0.7768  2.6319
  186MOL0     H25088   8.276  10.465   6.796  2.5541 -1.4708  0.6748
  186MOL0     H25089   8.289  10.612   6.903  1.8364  0.1445  0.7446
  186MOL0     H25090   9.150   9.979   7.248  5.0731 -2.2652  0.5174
  186MOL0     H25091   9.333   9.939   7.355  0.2102  1.0379  0.4203
  186MOL0     H25092   9.563   9.508   7.562  1.0604 -0.7301 -0.7263
  186MOL0     H25093   9.772   9.452   7.680  2.6777  1.1959  1.8813
  186MOL0     H25094  10.202   9.986   8.256  0.6027 -2.9580 -0.7644
  186MOL0     H25095  10.041  10.174   8.227  0.3110 -0.2978  2.3330
  186MOL0     H25096   9.811  10.393   8.174  2.4931  3.4338 -1.1911
  186MOL0     H25097   9.735  10.606   8.121  2.8688 -1.0511  1.6466
  186MOL0     H25098   9.796  10.770   7.953  0.5916 -0.5208 -0.9936
  186MOL0     H25099   9.638  10.832   7.999  2.1215  1.0267  0.3979
  186MOL0     H25100   9.734  10.990   7.839  2.4247  1.5591 -5.6456
  186MOL0     H25101   9.607  10.882   7.762 -0.0614 -3.6045  0.2286
  186MOL0     H25102   9.800  10.742   7.668 -0.3819  0.2978  1.4624
  186MOL0     H25103   9.912  10.877   7.733  1.4552  1.9065 -3.1454
  186MOL0     H25104   9.912  10.903   7.519  0.5091  2.3301  0.8069
  186MOL0     H25105   9.736  10.895   7.506  0.2605  3.7032 -1.8326
  186MOL0     H25106   9.792  11.292   7.629 -1.9779 -0.2775  2.2635
  186MOL0     H25107   9.545  10.450   7.763  1.1878  0.0191 -0.7287
  186MOL0     H25108   9.679  10.135   7.760  1.9060  2.1542 -1.1655
  186MOL0     H25109   9.523  10.134   7.857 -1.5744 -0.3969 -1.4891
  186MOL0     H25110   9.533  10.224   7.710  0.0589  0.0849  0.6605
  187MOL0     O25111  11.299   5.360   8.849 -0.2524 -0.5654 -0.8407
  187MOL0     C25112  11.223   5.331   8.759 -0.3979  0.4433  0.1229
  187MOL0     O25113  11.253   5.310   8.630 -0.1276 -0.6847  0.3185
  187MOL0     C25114  11.388   5.284   8.595  0.9122  0.3090  0.8251
  187MOL0     C25115  11.486   5.209   8.669  0.1339  0.1117  0.2474
  187MOL0     C25116  11.615   5.187   8.618 -0.2394  0.2302  0.2303
  187MOL0     C25117  11.656   5.239   8.494  0.0907  0.1726 -1.1028
  187MOL0     O25118  11.781   5.238   8.446  0.6882 -0.1858  0.4055
  187MOL0     C25119  11.874   5.293   8.534  0.7510 -0.6746 -0.1172
  187MOL0     C25120  12.005   5.210   8.526  0.1299  0.5501  0.5555
  187MOL0     C25121  11.988   5.083   8.612  0.1729  0.4766 -0.5547
  187MOL0     C25122  12.128   5.019   8.656 -0.0245  0.5320  0.1370
  187MOL0     C25123  12.115   4.904   8.763 -1.2033 -0.2412 -0.4624
  187MOL0     C25124  12.250   4.837   8.793 -0.0213  0.7309 -0.1040
  187MOL0     C25125  12.228   4.711   8.889  0.5909 -0.3908 -0.0497
  187MOL0     C25126  12.354   4.644   8.933  0.4755  0.7345  0.1059
  187MOL0     N25127  12.324   4.509   8.986  1.0765 -0.8459 -0.5196
  187MOL0     C25128  12.228   4.421   8.939 -0.3274 -0.1039  1.1122
  187MOL0     C25129  12.252   4.303   8.995  0.0027  0.2508 -0.3848
  187MOL0     C25130  12.153   4.194   8.970 -0.2980  0.1808 -0.4133
  187MOL0     C25131  12.086   4.129   9.091 -0.3010  0.5718  0.1595
  187MOL0     C25132  11.971   4.033   9.052  0.0221  0.5971 -0.1743
  187MOL0     C25133  11.938   3.940   9.180 -0.2051  0.8857 -0.0324
  187MOL0     O25134  12.047   3.857   9.212  0.3499  0.2079  0.4639
  187MOL0     C25135  12.028   3.728   9.184 -0.1356 -0.8313  0.5923
  187MOL0     C25136  11.947   3.670   9.079 -0.7868  0.5409  0.6413
  187MOL0     C25137  11.966   3.539   9.047  0.2604  0.0578  0.6705
  187MOL0     C25138  12.062   3.455   9.104 -0.2830  0.4549  0.5768
  187MOL0     C25139  12.086   3.325   9.045 -0.1555  0.5039  0.4753
  187MOL0     O25140  12.037   3.302   8.926 -0.1295 -0.4328 -0.0052
  187MOL0     C25141  12.082   3.184   8.865  0.3181 -0.4672  0.1548
  187MOL0     C25142  11.987   3.081   8.853 -1.2943 -0.0143  0.3181
  187MOL0     C25143  12.009   2.954   8.798 -0.5206  0.3467 -0.4444
  187MOL0     C25144  12.143   2.923   8.753  0.2804 -0.2317 -0.6800
  187MOL0     O25145  12.166   2.804   8.691 -0.1227 -0.2440 -0.0321
  187MOL0     C25146  12.281   2.794   8.604  0.6463  0.2679  0.6255
  187MOL0     C25147  12.246   2.682   8.501  0.0033 -0.1399  0.3908
  187MOL0     C25148  12.333   2.555   8.513 -1.0651 -0.5721  0.2223
  187MOL0     C25149  12.279   2.447   8.421  0.4158  0.6321  0.3917
  187MOL0     C25150  12.261   2.469   8.266  0.0930 -0.2457 -1.0204
  187MOL0     C25151  12.214   2.332   8.199 -0.3406  0.2489 -0.4836
  187MOL0     C25152  12.204   2.358   8.052 -0.1059  0.7542 -0.8933
  187MOL0     C25153  12.212   2.227   7.971  0.1724  0.7197  0.7277
  187MOL0    Cl25154  12.399   2.174   7.981 -0.2216  0.0129 -0.4510
  187MOL0     C25155  12.241   3.021   8.780 -0.3603 -0.1296 -0.7705
  187MOL0     C25156  12.209   3.150   8.827 -0.6664  0.7164  0.4661
  187MOL0     O25157  12.153   3.242   9.111  0.5508 -0.0503 -0.9958
  187MOL0     C25158  12.133   3.508   9.221 -0.5824  0.3630  0.4981
  187MOL0     C25159  12.119   3.647   9.249 -0.6296  0.1276 -0.4621
  187MOL0     N25160  12.352   4.316   9.087 -1.0291  0.2560 -0.2781
  187MOL0     N25161  12.396   4.442   9.087  0.6972  0.1385  0.4143
  187MOL0     C25162  11.556   5.312   8.423  0.7426 -0.1456 -0.0711
  187MOL0     C25163  11.425   5.334   8.470 -0.9253 -0.4690 -0.4205
  187MOL0     C25164  11.081   5.320   8.801  0.1813 -0.4984 -0.5337
  187MOL0     C25165  11.033   5.386   8.912 -0.7540  0.2699 -0.3737
  187MOL0     C25166  10.903   5.367   8.956 -0.6687  0.6091  0.0937
  187MOL0     C25167  10.808   5.291   8.890  0.7632 -0.9006  0.5570
  187MOL0     O25168  10.678   5.262   8.929 -0.0098 -0.5375  0.8115
  187MOL0     C25169  10.617   5.337   9.039 -0.1137 -0.8192 -0.6867
  187MOL0     C25170  10.656   5.277   9.167 -0.7292  0.6179  0.2401
  187MOL0     C25171  10.570   5.333   9.288 -0.7902  0.3447  0.1794
  187MOL0     C25172  10.608   5.484   9.324  0.0952 -0.2872  0.2893
  187MOL0     C25173  10.756   5.508   9.351  0.0333 -0.8063 -0.1499
  187MOL0     C25174  10.872   5.519   9.369 -0.0857  0.0965  0.0386
  187MOL0     C25175  10.857   5.210   8.795  0.8189  0.6648 -0.0954
  187MOL0     C25176  10.986   5.224   8.745 -1.3213  0.1062 -0.8873
  187MOL0     C25177  11.032   5.128   8.639  0.2467 -0.6483 -0.0911
  187MOL0     H25178  11.476   5.162   8.766  0.1099  1.1596  0.7602
  187MOL0     H25179  11.685   5.135   8.681  0.3943 -0.2372 -0.8329
  187MOL0     H25180  11.887   5.399   8.507  0.7732 -0.4322  0.8171
  187MOL0     H25181  11.844   5.298   8.639  2.7133 -0.9441  0.4879
  187MOL0     H25182  12.096   5.256   8.566  1.1563  1.3255 -2.4513
  187MOL0     H25183  12.022   5.192   8.420  2.4622 -2.0083  1.2599
  187MOL0     H25184  11.939   5.021   8.536 -0.4614  0.4082 -0.1012
  187MOL0     H25185  11.930   5.100   8.703  1.8430 -1.1088  0.8686
  187MOL0     H25186  12.180   4.977   8.569 -0.3203  1.3044 -0.4344
  187MOL0     H25187  12.187   5.101   8.697  2.1336 -0.8369 -0.1147
  187MOL0     H25188  12.070   4.921   8.861 -0.5944 -0.5644 -0.1202
  187MOL0     H25189  12.049   4.833   8.712 -0.1729 -0.7995 -1.0365
  187MOL0     H25190  12.292   4.810   8.695 -1.1514  0.7967 -0.6188
  187MOL0     H25191  12.313   4.908   8.848 -3.6668  1.6949  3.2408
  187MOL0     H25192  12.176   4.643   8.822 -1.5714 -1.1403  2.2184
  187MOL0     H25193  12.167   4.738   8.976  2.0768  1.3491  0.5210
  187MOL0     H25194  12.424   4.636   8.850  3.5394 -1.0733  2.6281
  187MOL0     H25195  12.402   4.706   9.010  0.3591  0.4149  0.4365
  187MOL0     H25196  12.165   4.448   8.854  0.0174  0.0613  0.9037
  187MOL0     H25197  12.070   4.231   8.909  0.1352 -0.5536 -1.4693
  187MOL0     H25198  12.197   4.114   8.910  2.4862  3.2873 -2.8583
  187MOL0     H25199  12.161   4.076   9.151 -0.0594 -1.5374 -1.8619
  187MOL0     H25200  12.053   4.215   9.149 -1.3885 -0.1289  0.6178
  187MOL0     H25201  11.997   3.966   8.970 -2.3669 -1.4560  0.6264
  187MOL0     H25202  11.885   4.094   9.022 -1.1905 -1.6237 -1.4979
  187MOL0     H25203  11.847   3.879   9.175  1.6245 -2.3132  1.7287
  187MOL0     H25204  11.908   3.994   9.270  0.0244 -1.6624  1.6826
  187MOL0     H25205  11.897   3.733   9.006  1.3527  1.1701 -0.3910
  187MOL0     H25206  11.919   3.493   8.961  1.7530 -4.0680  1.8643
  187MOL0     H25207  11.883   3.088   8.882 -1.3236  0.8136  0.0301
  187MOL0     H25208  11.928   2.882   8.797  0.7356 -1.1558 -3.2314
  187MOL0     H25209  12.281   2.889   8.550  0.4255 -0.9500 -1.6845
  187MOL0     H25210  12.378   2.781   8.653  2.2876  1.1212 -2.1455
  187MOL0     H25211  12.143   2.657   8.529  0.1639 -2.2700 -0.7279
  187MOL0     H25212  12.254   2.720   8.398 -0.2890  0.9723  0.7621
  187MOL0     H25213  12.438   2.570   8.487 -0.3650 -3.7276  0.7615
  187MOL0     H25214  12.330   2.518   8.616 -0.0687 -1.0964  0.0754
  187MOL0     H25215  12.183   2.406   8.454  0.2088 -0.6563 -1.6429
  187MOL0     H25216  12.337   2.356   8.441 -1.3184 -0.2509  1.6743
  187MOL0     H25217  12.355   2.508   8.227 -0.4792  1.7225 -0.5632
  187MOL0     H25218  12.181   2.539   8.239  0.1889 -0.0264 -0.7371
  187MOL0     H25219  12.291   2.259   8.224 -0.9097  0.8785  3.9544
  187MOL0     H25220  12.115   2.305   8.237  0.2413  1.1627  1.8308
  187MOL0     H25221  12.291   2.413   8.015  2.7682 -3.1338 -0.5353
  187MOL0     H25222  12.110   2.412   8.035  1.2244  2.8436 -1.9491
  187MOL0     H25223  12.142   2.154   8.014 -0.1366  0.0830 -0.8129
  187MOL0     H25224  12.188   2.237   7.865  1.1876 -0.4400  0.3672
  187MOL0     H25225  12.344   3.011   8.746  0.6898  2.8654  1.1273
  187MOL0     H25226  12.288   3.224   8.823  2.0247 -1.8938  1.5831
  187MOL0     H25227  12.201   3.444   9.276 -2.4032  0.5411  3.1524
  187MOL0     H25228  12.188   3.698   9.315 -0.6301  2.6984 -2.2869
  187MOL0     H25229  11.581   5.359   8.329 -1.1565  0.7870 -0.1558
  187MOL0     H25230  11.347   5.375   8.407 -0.2417 -0.6998 -1.4432
  187MOL0     H25231  11.092   5.451   8.975 -0.9932 -0.5479  0.7174
  187MOL0     H25232  10.877   5.416   9.048 -0.7015  0.1187  0.3492
  187MOL0     H25233  10.509   5.324   9.038  0.1382 -3.5747 -1.9241
  187MOL0     H25234  10.637   5.444   9.029 -0.8908 -0.7093 -1.1581
  187MOL0     H25235  10.760   5.294   9.194 -0.3094 -1.0230 -0.2230
  187MOL0     H25236  10.628   5.173   9.147 -1.5351  0.6898  0.9161
  187MOL0     H25237  10.574   5.270   9.378  1.1323  0.4773  0.2283
  187MOL0     H25238  10.464   5.324   9.263 -0.5621  1.0216 -1.0889
  187MOL0     H25239  10.577   5.556   9.246  0.8912 -0.0828  0.1571
  187MOL0     H25240  10.556   5.515   9.415 -1.1480 -0.0667 -0.4634
  187MOL0     H25241  10.973   5.553   9.372 -0.1752  0.3396  0.4999
  187MOL0     H25242  10.787   5.143   8.745 -0.1991  0.2909  1.7639
  187MOL0     H25243  10.953   5.058   8.611  0.5748  0.0327 -3.0916
  187MOL0     H25244  11.042   5.180   8.543 -5.4729 -1.1320 -1.2807
  187MOL0     H25245  11.122   5.070   8.663 -0.1186 -1.1713  0.0111
  188MOL0     O25246   6.001   8.670   8.700 -0.0207  0.7452  0.2551
  188MOL0     C25247   6.006   8.549   8.685  0.3112  0.3651 -0.2422
  188MOL0     O25248   6.125   8.481   8.675  0.8303 -0.1787  0.6325
  188MOL0     C25249   6.228   8.542   8.607 -0.3557 -0.3550  0.6634
  188MOL0     C25250   6.210   8.625   8.495 -0.3609 -0.3102 -0.0329
  188MOL0     C25251   6.314   8.681   8.438 -0.6372 -0.3052 -0.1922
  188MOL0     C25252   6.453   8.651   8.477 -0.3936 -0.7724  0.3527
  188MOL0     O25253   6.560   8.706   8.413  0.9909 -0.0544 -0.6980
  188MOL0     C25254   6.544   8.837   8.374  0.0072  0.5531  0.0094
  188MOL0     C25255   6.671   8.898   8.336  1.0054 -0.2577 -0.2465
  188MOL0     C25256   6.766   8.943   8.453  0.3729  0.2517  0.0790
  188MOL0     C25257   6.811   8.834   8.552  0.2491  0.0641  0.1045
  188MOL0     C25258   6.920   8.902   8.636  0.2911 -0.3888  0.3729
  188MOL0     C25259   6.960   8.825   8.758  0.2204 -0.2825  0.3329
  188MOL0     C25260   7.051   8.913   8.855  0.8497  0.7488 -0.6292
  188MOL0     C25261   7.175   8.959   8.789  0.6241  0.2512 -0.0089
  188MOL0     N25262   7.261   8.848   8.748  0.0847  0.3867 -0.5816
  188MOL0     C25263   7.335   8.767   8.827  0.5328  0.6035  0.2806
  188MOL0     C25264   7.425   8.722   8.748 -1.1799 -0.2701  0.8001
  188MOL0     C25265   7.551   8.653   8.797 -0.2605  0.3180 -0.1762
  188MOL0     C25266   7.612   8.533   8.727  0.0065 -0.2675  0.2127
  188MOL0     C25267   7.544   8.393   8.754  0.5448  0.7573  0.0410
  188MOL0     C25268   7.597   8.296   8.649  0.3717  0.5455 -0.1187
  188MOL0     O25269   7.531   8.176   8.667  0.5430  0.1322 -0.6423
  188MOL0     C25270   7.450   8.129   8.566  0.1240 -0.8838  0.2063
  188MOL0     C25271   7.400   8.004   8.581 -0.2025  0.7684 -0.1541
  188MOL0     C25272   7.308   7.940   8.502 -0.0155 -0.7457  0.2982
  188MOL0     C25273   7.267   8.015   8.386  0.3510  1.1887  0.3877
  188MOL0     C25274   7.168   7.958   8.293 -0.7377  0.3049  0.4974
  188MOL0     O25275   7.162   8.009   8.170 -0.3712  0.3192 -0.2394
  188MOL0     C25276   7.062   7.957   8.084 -0.3368 -0.2105  0.3431
  188MOL0     C25277   6.926   7.986   8.096  0.2908 -0.2267  0.2836
  188MOL0     C25278   6.836   7.942   7.994 -0.3263 -0.5552 -0.6513
  188MOL0     C25279   6.891   7.900   7.871  1.0112  0.1954 -0.1121
  188MOL0     O25280   6.814   7.856   7.765  0.4060 -0.2652  0.5812
  188MOL0     C25281   6.669   7.887   7.773  0.9397  0.1134  0.5634
  188MOL0     C25282   6.603   7.885   7.635  0.6452  0.4207 -0.0877
  188MOL0     C25283   6.628   7.757   7.557  0.1056 -0.4514 -0.7766
  188MOL0     C25284   6.542   7.733   7.439  0.2670  0.5838  0.2451
  188MOL0     C25285   6.607   7.623   7.353  1.1143 -0.3027  0.1576
  188MOL0     C25286   6.605   7.488   7.424 -0.2353  0.2588  0.6128
  188MOL0     C25287   6.671   7.375   7.331 -0.5665  0.4491  0.1514
  188MOL0     C25288   6.825   7.377   7.324  1.3301 -0.5205 -0.3667
  188MOL0    Cl25289   6.863   7.251   7.207  0.7028  0.3034  0.1249
  188MOL0     C25290   7.024   7.889   7.851  1.2505  1.4009  0.4288
  188MOL0     C25291   7.108   7.918   7.959  0.4569  1.0302  0.7014
  188MOL0     O25292   7.103   7.862   8.334  0.1719 -0.5546  0.2306
  188MOL0     C25293   7.313   8.150   8.369 -0.4014  0.1736  0.3914
  188MOL0     C25294   7.409   8.202   8.453  0.1513 -0.2110 -0.9608
  188MOL0     N25295   7.394   8.748   8.618 -0.3675  0.1403 -0.4176
  188MOL0     N25296   7.296   8.830   8.620 -0.5107 -0.3787 -0.1422
  188MOL0     C25297   6.467   8.565   8.584 -0.3836  0.4922  0.1203
  188MOL0     C25298   6.360   8.507   8.644 -0.2072  0.2056  0.2246
  188MOL0     C25299   5.888   8.457   8.700 -0.8667 -0.6049 -0.5008
  188MOL0     C25300   5.905   8.336   8.757 -0.3470  0.7760 -0.9223
  188MOL0     C25301   5.801   8.250   8.793  0.4530  1.0276 -0.3035
  188MOL0     C25302   5.673   8.288   8.779 -0.9438 -0.2139 -0.8171
  188MOL0     O25303   5.578   8.207   8.843 -0.8119 -0.0923 -0.4636
  188MOL0     C25304   5.442   8.226   8.813 -1.1617 -0.6898 -0.5114
  188MOL0     C25305   5.335   8.180   8.915 -1.1059 -0.8011 -0.3346
  188MOL0     C25306   5.296   8.290   9.012  0.7836 -0.2170  0.4140
  188MOL0     C25307   5.176   8.267   9.095 -0.3751 -0.2622  0.0945
  188MOL0     C25308   5.201   8.178   9.206 -0.1338 -0.4891  0.4389
  188MOL0     C25309   5.201   8.097   9.294 -0.2003 -0.2396  0.3151
  188MOL0     C25310   5.645   8.408   8.708 -0.7735 -0.5780 -0.6331
  188MOL0     C25311   5.757   8.486   8.668  0.8568 -0.7877  0.5539
  188MOL0     C25312   5.708   8.614   8.607  0.3709 -1.1119  0.1068
  188MOL0     H25313   6.110   8.652   8.461  0.0229  1.5014  0.1673
  188MOL0     H25314   6.300   8.752   8.357 -1.8073  0.4862  0.6625
  188MOL0     H25315   6.493   8.832   8.277  1.9305  2.2488 -1.1872
  188MOL0     H25316   6.478   8.896   8.438 -2.2543 -1.0057 -0.7667
  188MOL0     H25317   6.643   8.982   8.271  0.9336  1.6399  2.0935
  188MOL0     H25318   6.729   8.829   8.273 -1.9660 -0.9281 -2.4663
  188MOL0     H25319   6.708   9.017   8.510  1.9326  3.2671 -1.9417
  188MOL0     H25320   6.848   9.002   8.412  1.3094 -0.2256  1.2164
  188MOL0     H25321   6.726   8.805   8.614  1.1439 -0.7840  0.9736
  188MOL0     H25322   6.845   8.743   8.502 -2.3657 -0.9228 -0.0423
  188MOL0     H25323   7.010   8.906   8.575  2.3219 -1.0180  3.1592
  188MOL0     H25324   6.898   9.006   8.662 -2.6404 -0.1465 -2.3365
  188MOL0     H25325   6.865   8.808   8.810  0.3501 -2.0570  0.0388
  188MOL0     H25326   7.014   8.731   8.747  2.8513  1.0915  0.6236
  188MOL0     H25327   7.080   8.840   8.932 -2.0512  1.3738  1.2521
  188MOL0     H25328   7.015   9.002   8.907  3.4107  0.9564  0.9471
  188MOL0     H25329   7.167   9.025   8.702  1.5597  2.7200  1.6884
  188MOL0     H25330   7.240   9.020   8.852  0.1054  1.4248 -0.5825
  188MOL0     H25331   7.335   8.765   8.935  0.3136  1.9948  0.3216
  188MOL0     H25332   7.628   8.730   8.797 -0.7896  0.8662 -1.0917
  188MOL0     H25333   7.536   8.611   8.897 -1.2228  0.2099 -0.3579
  188MOL0     H25334   7.626   8.539   8.619  1.6715  0.3522  0.4347
  188MOL0     H25335   7.717   8.528   8.757  0.6900  3.9880 -0.8069
  188MOL0     H25336   7.437   8.399   8.734  0.4650 -1.6316 -0.5605
  188MOL0     H25337   7.568   8.350   8.852  3.0284 -1.0396 -1.2421
  188MOL0     H25338   7.702   8.276   8.674  0.3301  1.0935  0.5390
  188MOL0     H25339   7.593   8.340   8.549 -0.8972  2.2848  0.6485
  188MOL0     H25340   7.426   7.950   8.672 -0.2679  1.2828  0.1714
  188MOL0     H25341   7.260   7.844   8.516 -1.2248 -0.4437 -1.5025
  188MOL0     H25342   6.893   8.023   8.192 -0.8098  1.6026 -0.7367
  188MOL0     H25343   6.734   7.958   8.027  0.4752  0.7989  1.3506
  188MOL0     H25344   6.624   7.811   7.839 -0.3966  1.3115  1.1044
  188MOL0     H25345   6.659   7.989   7.812  0.6066 -0.3135  1.6548
  188MOL0     H25346   6.494   7.886   7.643  0.5924 -0.2129 -0.7045
  188MOL0     H25347   6.643   7.966   7.574  2.6340 -0.7186 -0.3687
  188MOL0     H25348   6.733   7.760   7.527  0.5352 -0.8947  0.5798
  188MOL0     H25349   6.602   7.676   7.626 -1.1054  0.8111  0.3044
  188MOL0     H25350   6.525   7.823   7.380 -0.8809  0.2720  0.0877
  188MOL0     H25351   6.444   7.706   7.479  0.0759  2.1497  0.9028
  188MOL0     H25352   6.712   7.646   7.333  0.9534 -0.2770 -0.6848
  188MOL0     H25353   6.542   7.615   7.266 -1.0178 -1.7812  1.7671
  188MOL0     H25354   6.657   7.492   7.521  0.7550  2.0926  0.0459
  188MOL0     H25355   6.501   7.458   7.444  0.6120 -3.1948  0.5576
  188MOL0     H25356   6.633   7.390   7.229  0.4516 -0.6922 -0.4252
  188MOL0     H25357   6.637   7.278   7.369  1.0291  0.7261  2.4811
  188MOL0     H25358   6.868   7.471   7.289  2.5670 -1.0159 -0.2110
  188MOL0     H25359   6.878   7.369   7.420  2.3080 -1.2329 -0.9505
  188MOL0     H25360   7.059   7.853   7.755 -1.6157 -2.2118  0.5282
  188MOL0     H25361   7.215   7.910   7.945  0.4455  2.7860 -0.8115
  188MOL0     H25362   7.275   8.198   8.280 -0.6991 -3.1648 -1.4393
  188MOL0     H25363   7.428   8.308   8.439 -2.4188  0.7512  1.8233
  188MOL0     H25364   6.568   8.551   8.622 -0.8026  0.2420  1.1823
  188MOL0     H25365   6.381   8.437   8.724  1.8138 -0.1017 -0.5154
  188MOL0     H25366   6.005   8.301   8.782  0.8071  3.3856 -1.5084
  188MOL0     H25367   5.820   8.155   8.842 -1.1459  1.9330  2.2647
  188MOL0     H25368   5.424   8.180   8.715  1.1304  0.4383 -1.5510
  188MOL0     H25369   5.415   8.331   8.798  1.1702  0.2926  1.3260
  188MOL0     H25370   5.394   8.098   8.958  0.4706 -1.2779 -3.1895
  188MOL0     H25371   5.253   8.131   8.862 -0.1746  0.0757 -2.7103
  188MOL0     H25372   5.277   8.386   8.963 -0.2427 -0.4076  0.4152
  188MOL0     H25373   5.374   8.294   9.089  1.5856  0.6807 -0.4135
  188MOL0     H25374   5.126   8.358   9.129  1.9678  0.2261  2.5788
  188MOL0     H25375   5.108   8.216   9.027  0.8746  1.9662 -3.0732
  188MOL0     H25376   5.203   8.039   9.384  1.4555 -0.2237  0.3193
  188MOL0     H25377   5.544   8.443   8.694 -0.7524 -0.8042 -1.4109
  188MOL0     H25378   5.680   8.694   8.677 -3.4351 -1.9730 -0.2411
  188MOL0     H25379   5.771   8.652   8.526 -1.0385 -1.7800 -1.3494
  188MOL0     H25380   5.613   8.595   8.557  0.4692 -0.6805 -0.2580
  189MOL0     O25381   0.148   1.682   0.834 -0.3452 -0.8070  0.8351
  189MOL0     C25382   0.049   1.652   0.890 -0.3207 -0.2544  0.0970
  189MOL0     O25383  -0.079   1.702   0.854  0.2372  1.0679 -0.1944
  189MOL0     C25384  -0.094   1.756   0.735 -0.2611 -0.1707  0.0650
  189MOL0     C25385  -0.203   1.706   0.667 -0.1802  0.3025  0.8411
  189MOL0     C25386  -0.239   1.750   0.540  0.2883  0.3350  0.2548
  189MOL0     C25387  -0.154   1.832   0.462 -0.6810 -0.9976  0.3065
  189MOL0     O25388  -0.172   1.859   0.335 -0.2963  0.1441 -0.2209
  189MOL0     C25389  -0.167   1.743   0.246  0.1170 -0.7443  0.4820
  189MOL0     C25390  -0.252   1.776   0.116  0.5559  0.5806  0.3092
  189MOL0     C25391  -0.397   1.819   0.152  0.3299 -0.0543  0.1761
  189MOL0     C25392  -0.472   1.854   0.016 -1.0943  0.0447  0.0155
  189MOL0     C25393  -0.561   1.970   0.030  0.2649  0.9338  0.2341
  189MOL0     C25394  -0.647   1.976  -0.093  0.1269 -0.3281 -0.3188
  189MOL0     C25395  -0.760   2.078  -0.090 -0.2883  0.6964  0.0751
  189MOL0     C25396  -0.815   2.117   0.039 -0.2572 -0.0832  0.5819
  189MOL0     N25397  -0.935   2.214   0.031  1.1050 -0.3222  0.5980
  189MOL0     C25398  -0.969   2.305  -0.079 -0.3376 -0.4604  0.3577
  189MOL0     C25399  -1.100   2.347  -0.062 -0.0310 -0.1509 -0.6405
  189MOL0     C25400  -1.191   2.420  -0.158 -0.1876 -0.5929 -0.5084
  189MOL0     C25401  -1.324   2.348  -0.197  0.9893 -0.7687 -0.5878
  189MOL0     C25402  -1.287   2.214  -0.258 -0.2797  0.0488  0.2631
  189MOL0     C25403  -1.417   2.128  -0.286  0.0966 -1.0611  0.3978
  189MOL0     O25404  -1.510   2.143  -0.174 -1.5101 -0.2667  0.1772
  189MOL0     C25405  -1.639   2.133  -0.206  0.1170  0.8564 -0.1912
  189MOL0     C25406  -1.731   2.116  -0.096 -0.2819  0.7580 -0.1418
  189MOL0     C25407  -1.872   2.115  -0.108 -0.4278 -0.4548 -0.0628
  189MOL0     C25408  -1.928   2.130  -0.238 -0.3094 -0.2558 -0.5441
  189MOL0     C25409  -2.072   2.127  -0.263  0.5523  0.4117 -0.3919
  189MOL0     O25410  -2.113   2.120  -0.401  0.2382  0.3758  0.2236
  189MOL0     C25411  -2.248   2.101  -0.411 -0.3640 -1.0761  0.0533
  189MOL0     C25412  -2.342   2.211  -0.426 -0.2494 -0.0907 -0.0778
  189MOL0     C25413  -2.479   2.189  -0.448  0.8234  0.4605 -0.6855
  189MOL0     C25414  -2.531   2.054  -0.442 -0.5673  0.0210 -0.2983
  189MOL0     O25415  -2.669   2.032  -0.434 -0.0340 -0.1664 -0.2859
  189MOL0     C25416  -2.719   1.901  -0.409  0.3092 -0.3798 -0.7064
  189MOL0     C25417  -2.870   1.899  -0.414 -0.9700 -0.0608 -0.8259
  189MOL0     C25418  -2.945   1.905  -0.546  0.0502 -0.2482  0.2340
  189MOL0     C25419  -2.859   1.896  -0.669  0.3731 -0.2558 -0.3353
  189MOL0     C25420  -2.944   1.920  -0.804  0.6177 -0.1003 -0.5069
  189MOL0     C25421  -2.852   1.887  -0.922 -0.0737  0.0130  0.2301
  189MOL0     C25422  -2.938   1.865  -1.048  0.1058 -0.4217 -0.6494
  189MOL0     C25423  -2.850   1.826  -1.165  0.0758 -0.4188 -1.2264
  189MOL0    Cl25424  -2.947   1.773  -1.301 -0.0624 -0.3080  0.2192
  189MOL0     C25425  -2.439   1.942  -0.424  0.0711 -0.3700 -0.1357
  189MOL0     C25426  -2.303   1.976  -0.401  0.0956 -0.0371  0.1830
  189MOL0     O25427  -2.141   2.138  -0.164 -0.4261 -0.0157  0.7669
  189MOL0     C25428  -1.845   2.146  -0.343 -1.0814  0.2547  0.2089
  189MOL0     C25429  -1.703   2.142  -0.328  0.3391 -0.6501  0.0525
  189MOL0     N25430  -1.141   2.285   0.061 -0.8731 -0.1756  0.2910
  189MOL0     N25431  -1.041   2.211   0.110  0.3417 -0.4285 -0.7418
  189MOL0     C25432  -0.045   1.889   0.537  0.8230  0.0875  0.7106
  189MOL0     C25433  -0.018   1.854   0.668  1.1076  0.5194  0.3695
  189MOL0     C25434   0.040   1.549   0.992  0.4504  0.4991  0.5260
  189MOL0     C25435  -0.069   1.538   1.072  0.4536  0.9898 -0.4091
  189MOL0     C25436  -0.085   1.448   1.177  1.0818  0.1195 -0.2485
  189MOL0     C25437   0.016   1.361   1.213 -0.2082  0.6164  0.4336
  189MOL0     O25438  -0.020   1.273   1.313 -0.1108  0.8188 -0.1272
  189MOL0     C25439   0.081   1.202   1.391 -0.3643  0.8380  0.2491
  189MOL0     C25440   0.188   1.290   1.454  1.0888 -0.1608  0.8784
  189MOL0     C25441   0.135   1.373   1.572  0.1129  0.5967 -0.0313
  189MOL0     C25442   0.231   1.489   1.603 -0.1259 -1.4579 -0.2644
  189MOL0     C25443   0.193   1.557   1.728 -0.7893 -0.4560  0.0551
  189MOL0     C25444   0.159   1.620   1.828  0.0666  0.9026 -0.7012
  189MOL0     C25445   0.131   1.366   1.134 -0.5933  0.9509  0.3404
  189MOL0     C25446   0.146   1.457   1.022  0.1006 -1.0787  0.8626
  189MOL0     C25447   0.270   1.434   0.934 -0.0032  0.3143  0.0172
  189MOL0     H25448  -0.275   1.647   0.722 -1.2227  0.5593 -0.2025
  189MOL0     H25449  -0.318   1.707   0.480  0.7270  0.7642 -0.6408
  189MOL0     H25450  -0.070   1.699   0.225 -0.3366 -1.8937  0.7399
  189MOL0     H25451  -0.216   1.657   0.292  0.0426 -0.4135  1.0344
  189MOL0     H25452  -0.255   1.681   0.062 -1.7667  0.0233  1.2877
  189MOL0     H25453  -0.197   1.852   0.061  0.9659  0.7082  0.8876
  189MOL0     H25454  -0.401   1.908   0.215  0.7312  0.6956 -0.8511
  189MOL0     H25455  -0.449   1.732   0.194 -0.0012 -0.2473 -0.6178
  189MOL0     H25456  -0.398   1.876  -0.061 -4.4330 -0.1466 -3.5768
  189MOL0     H25457  -0.533   1.774  -0.028 -1.2782 -0.6491  1.4365
  189MOL0     H25458  -0.622   1.930   0.112 -0.8301 -0.6275 -1.2673
  189MOL0     H25459  -0.520   2.066   0.062  2.2649 -0.2350  1.3126
  189MOL0     H25460  -0.586   1.998  -0.181  1.8345 -4.9627 -0.5400
  189MOL0     H25461  -0.695   1.880  -0.113 -0.4228  0.0177 -0.7150
  189MOL0     H25462  -0.847   2.047  -0.149  0.2128  0.4240 -0.5219
  189MOL0     H25463  -0.726   2.173  -0.132 -0.3305  1.1321  0.9880
  189MOL0     H25464  -0.849   2.029   0.095 -1.2115  0.0725  0.2774
  189MOL0     H25465  -0.728   2.150   0.096  1.8975 -2.2778 -1.2339
  189MOL0     H25466  -0.905   2.327  -0.164 -2.1983  0.4931 -0.8544
  189MOL0     H25467  -1.210   2.521  -0.120 -0.5106  0.2644 -2.7293
  189MOL0     H25468  -1.140   2.433  -0.254 -0.7813  1.9695 -0.5437
  189MOL0     H25469  -1.381   2.325  -0.106 -0.9677  1.1868 -1.2404
  189MOL0     H25470  -1.398   2.393  -0.264 -2.4457 -2.5756  1.6873
  189MOL0     H25471  -1.231   2.150  -0.189 -0.7270 -3.1531 -2.1110
  189MOL0     H25472  -1.250   2.228  -0.360 -1.5078 -2.8087 -0.6808
  189MOL0     H25473  -1.393   2.023  -0.303  1.9759 -0.1857 -3.6106
  189MOL0     H25474  -1.454   2.163  -0.383  2.7750 -1.7019 -0.9377
  189MOL0     H25475  -1.686   2.098   0.001 -0.2789  2.7872  0.2601
  189MOL0     H25476  -1.939   2.104  -0.023 -0.5191  1.4716  0.1624
  189MOL0     H25477  -2.300   2.308  -0.450  0.2508 -0.2620  0.0856
  189MOL0     H25478  -2.552   2.261  -0.484  0.8388  1.2744  0.8272
  189MOL0     H25479  -2.692   1.832  -0.489 -1.7629 -0.1577 -1.6688
  189MOL0     H25480  -2.682   1.865  -0.312 -0.6713  1.1630  0.2927
  189MOL0     H25481  -2.900   1.803  -0.371 -0.1536  0.1834  0.3503
  189MOL0     H25482  -2.905   1.974  -0.341  1.8886  0.9308 -0.3576
  189MOL0     H25483  -3.013   1.819  -0.547 -1.5862  0.9906 -0.5937
  189MOL0     H25484  -3.003   1.997  -0.554  0.5924  0.0456 -0.4778
  189MOL0     H25485  -2.823   1.792  -0.669 -2.0404 -1.1739  0.8297
  189MOL0     H25486  -2.774   1.964  -0.681 -1.2361  1.4515 -3.2259
  189MOL0     H25487  -2.988   2.020  -0.808 -2.5700 -1.3429  0.5366
  189MOL0     H25488  -3.025   1.847  -0.803 -1.6018  2.2012 -1.5402
  189MOL0     H25489  -2.799   1.981  -0.938 -2.5148  1.2569 -1.2230
  189MOL0     H25490  -2.784   1.802  -0.907  0.2695  0.6203  2.3536
  189MOL0     H25491  -3.000   1.950  -1.077 -0.6081 -1.3961 -2.1797
  189MOL0     H25492  -3.009   1.782  -1.035 -1.4820  0.5327 -2.6581
  189MOL0     H25493  -2.788   1.910  -1.200 -1.6534  2.3341  1.7340
  189MOL0     H25494  -2.784   1.749  -1.125 -0.5781  0.8278  2.6554
  189MOL0     H25495  -2.477   1.840  -0.422  0.8499 -0.6708  2.6994
  189MOL0     H25496  -2.245   1.887  -0.379  0.1356  0.0344  0.3735
  189MOL0     H25497  -1.874   2.166  -0.445 -0.1688  1.5851  0.1897
  189MOL0     H25498  -1.659   2.160  -0.426  0.3007  0.5846  0.2444
  189MOL0     H25499   0.010   1.963   0.479 -2.3073  2.9064  1.0745
  189MOL0     H25500   0.071   1.887   0.720 -1.0965  2.5010  3.1949
  189MOL0     H25501  -0.152   1.601   1.041 -1.2362 -1.3938 -0.9723
  189MOL0     H25502  -0.178   1.440   1.232  0.3752 -1.4860 -1.5906
  189MOL0     H25503   0.144   1.140   1.326  0.4086  1.4350  0.4166
  189MOL0     H25504   0.043   1.133   1.466  1.6284  0.0173  0.5624
  189MOL0     H25505   0.227   1.366   1.385  2.2246  1.6099  3.2842
  189MOL0     H25506   0.272   1.228   1.487  2.7497  1.6956  0.3666
  189MOL0     H25507   0.148   1.310   1.660 -0.2637 -0.6331 -0.8189
  189MOL0     H25508   0.029   1.398   1.560 -0.2843 -0.1480  1.7131
  189MOL0     H25509   0.326   1.446   1.635  0.3119  0.1036  0.6538
  189MOL0     H25510   0.238   1.563   1.523 -2.2917 -1.8496 -0.8909
  189MOL0     H25511   0.125   1.672   1.916 -1.0803 -0.2626 -0.4269
  189MOL0     H25512   0.215   1.301   1.155  0.6312  2.3242 -0.1340
  189MOL0     H25513   0.332   1.524   0.937 -0.0444  0.4728 -2.2236
  189MOL0     H25514   0.339   1.354   0.961  0.9121  0.8684 -0.5877
  189MOL0     H25515   0.232   1.426   0.832 -0.8778 -0.4005  0.3856
  190MOL0     O25516  10.308   5.714   5.925 -0.2022  0.0593 -0.4465
  190MOL0     C25517  10.209   5.723   5.997 -0.3030 -0.0980  0.1282
  190MOL0     O25518  10.200   5.675   6.127 -0.2111  0.2560 -0.8146
  190MOL0     C25519  10.306   5.601   6.182 -0.5539  0.2241  1.0377
  190MOL0     C25520  10.313   5.474   6.129  0.2591  0.4732 -1.2117
  190MOL0     C25521  10.411   5.388   6.185  0.8588  0.0362  0.0527
  190MOL0     C25522  10.497   5.439   6.281 -0.2996  1.3445 -0.8463
  190MOL0     O25523  10.594   5.360   6.338  0.7608 -0.7139  0.1623
  190MOL0     C25524  10.586   5.216   6.325  1.1542 -0.8484 -0.4154
  190MOL0     C25525  10.669   5.148   6.425  0.4964 -0.4588  0.9725
  190MOL0     C25526  10.681   4.999   6.397 -0.2166 -0.0221  0.6948
  190MOL0     C25527  10.808   4.947   6.459 -0.8598  0.5320 -0.8639
  190MOL0     C25528  10.821   4.798   6.477  0.2451  0.6429 -0.5356
  190MOL0     C25529  10.961   4.761   6.534 -0.1275 -0.3014 -0.8416
  190MOL0     C25530  11.077   4.799   6.436 -0.1802 -0.9403 -0.2000
  190MOL0     C25531  11.208   4.749   6.506  0.0894 -0.0383  0.5777
  190MOL0     N25532  11.325   4.790   6.428 -0.0225  0.0406  0.2914
  190MOL0     C25533  11.371   4.718   6.319 -0.5147 -0.0086 -0.2967
  190MOL0     C25534  11.475   4.786   6.272  0.1407  0.3519 -0.0528
  190MOL0     C25535  11.544   4.752   6.155 -0.6953  0.0854  1.0911
  190MOL0     C25536  11.614   4.615   6.142 -0.5643  0.4530  0.1953
  190MOL0     C25537  11.511   4.501   6.135  0.4424 -0.4205  0.7242
  190MOL0     C25538  11.575   4.368   6.079 -0.0472 -0.3132  1.4778
  190MOL0     O25539  11.706   4.362   6.133  0.1167  0.2999  0.0839
  190MOL0     C25540  11.765   4.238   6.118  0.2140 -0.4474  0.5856
  190MOL0     C25541  11.734   4.146   6.018  0.7484  0.4211 -0.2455
  190MOL0     C25542  11.808   4.030   5.988  0.7797 -0.9512 -0.2520
  190MOL0     C25543  11.922   4.007   6.068 -0.4942  0.1059 -1.2930
  190MOL0     C25544  11.990   3.886   6.031 -0.1648 -0.5412  0.2740
  190MOL0     O25545  11.985   3.850   5.899  0.4081  0.7005 -0.2923
  190MOL0     C25546  12.018   3.719   5.862  0.6423 -0.9869 -0.1207
  190MOL0     C25547  12.139   3.702   5.794 -0.4945  0.3377 -0.4009
  190MOL0     C25548  12.168   3.579   5.733 -0.3611 -0.9095  0.0894
  190MOL0     C25549  12.086   3.473   5.735  0.2063 -0.4443  0.1528
  190MOL0     O25550  12.137   3.359   5.675  0.4469  0.2431 -0.9005
  190MOL0     C25551  12.142   3.237   5.748 -1.1819 -0.0062  0.6073
  190MOL0     C25552  12.246   3.150   5.687 -0.9792 -0.0314  0.5410
  190MOL0     C25553  12.198   3.096   5.550  0.1981 -0.3073  0.1600
  190MOL0     C25554  12.273   3.159   5.424 -1.0095  0.1800  0.4487
  190MOL0     C25555  12.235   3.078   5.294  1.4443 -0.0758  0.1579
  190MOL0     C25556  12.251   3.163   5.169 -0.4035  0.7896  0.1415
  190MOL0     C25557  12.173   3.086   5.060  0.4323  0.3013  0.4257
  190MOL0     C25558  12.209   3.128   4.919 -1.1712 -0.1617 -0.4907
  190MOL0    Cl25559  12.134   3.011   4.801  0.2890 -0.1138  0.2218
  190MOL0     C25560  11.968   3.495   5.799  0.4631 -0.7260  1.0497
  190MOL0     C25561  11.930   3.608   5.867 -0.0369  0.1647 -1.0649
  190MOL0     O25562  12.039   3.816   6.123 -0.5844  0.1314  0.3436
  190MOL0     C25563  11.967   4.110   6.166  0.3129  0.1468 -0.6456
  190MOL0     C25564  11.893   4.225   6.187  0.1187 -0.2477  0.5734
  190MOL0     N25565  11.500   4.888   6.356  0.1982  0.2741  0.0436
  190MOL0     N25566  11.416   4.890   6.453  0.0454 -0.5657 -0.2670
  190MOL0     C25567  10.496   5.568   6.325  0.4782 -0.3287  0.2400
  190MOL0     C25568  10.388   5.650   6.286  0.3169 -0.4281  1.2999
  190MOL0     C25569  10.086   5.782   5.948 -0.1402  0.0947 -0.6798
  190MOL0     C25570   9.977   5.811   6.036  1.3221  0.5904 -1.0283
  190MOL0     C25571   9.846   5.864   5.999 -1.0810  0.0519  0.0287
  190MOL0     C25572   9.838   5.912   5.873  0.3253 -0.0745  0.2627
  190MOL0     O25573   9.733   5.990   5.823 -0.1279 -0.1285  0.0105
  190MOL0     C25574   9.617   6.022   5.898  0.0313 -0.2116 -0.2543
  190MOL0     C25575   9.510   5.910   5.911 -0.8382 -0.5162 -0.8129
  190MOL0     C25576   9.397   5.944   6.017 -0.6598  0.1115 -0.1681
  190MOL0     C25577   9.329   6.074   5.990  0.1233 -0.0469 -0.8503
  190MOL0     C25578   9.206   6.041   5.915  0.5363 -0.8221  0.6750
  190MOL0     C25579   9.104   6.020   5.850 -0.6550 -0.0703 -0.5813
  190MOL0     C25580   9.936   5.877   5.788  0.7941 -0.6732  0.8746
  190MOL0     C25581  10.054   5.816   5.820  0.0889 -0.4433  0.5109
  190MOL0     C25582  10.144   5.782   5.701 -0.0858  0.1068  0.6061
  190MOL0     H25583  10.242   5.438   6.056 -1.2442 -0.2572  0.5236
  190MOL0     H25584  10.419   5.283   6.160  1.6934 -1.0151  3.9796
  190MOL0     H25585  10.483   5.181   6.338  0.6194  0.8604  0.1589
  190MOL0     H25586  10.613   5.187   6.223  4.5348 -0.7086  0.3319
  190MOL0     H25587  10.619   5.167   6.520 -0.4671  0.2863  0.3391
  190MOL0     H25588  10.770   5.192   6.426  1.2408 -1.7614 -2.3735
  190MOL0     H25589  10.681   4.976   6.290  0.5433 -1.5973  1.0019
  190MOL0     H25590  10.595   4.948   6.441 -0.4443 -2.2240 -2.0248
  190MOL0     H25591  10.887   4.983   6.392  1.1717  1.8072  1.9915
  190MOL0     H25592  10.822   4.992   6.558 -2.5950  0.3116 -0.4805
  190MOL0     H25593  10.738   4.749   6.529  0.9059 -1.5055 -1.3976
  190MOL0     H25594  10.825   4.753   6.377 -0.1245  0.5062 -0.4920
  190MOL0     H25595  10.971   4.817   6.628 -1.2152  1.0929 -1.5156
  190MOL0     H25596  10.974   4.655   6.556 -3.2404 -0.4739  0.6907
  190MOL0     H25597  11.082   4.907   6.419  0.0522 -1.2060 -2.0472
  190MOL0     H25598  11.072   4.757   6.335  1.7398  0.9121 -1.1524
  190MOL0     H25599  11.203   4.798   6.603 -1.0530  2.2912 -0.5661
  190MOL0     H25600  11.208   4.642   6.529  1.3938  0.6531  4.5092
  190MOL0     H25601  11.331   4.624   6.282 -0.0864  0.3370 -1.6750
  190MOL0     H25602  11.470   4.757   6.074 -2.1619  1.7912  2.4625
  190MOL0     H25603  11.611   4.835   6.133 -1.0319  0.4773  1.5220
  190MOL0     H25604  11.679   4.613   6.054 -0.1512 -0.9319  0.5208
  190MOL0     H25605  11.683   4.596   6.225 -0.0494 -0.7229 -0.4781
  190MOL0     H25606  11.417   4.535   6.091  1.8904  2.4023 -0.4585
  190MOL0     H25607  11.484   4.466   6.235  2.5306 -0.0893  1.4636
  190MOL0     H25608  11.568   4.377   5.970 -1.1431 -0.8682  1.4881
  190MOL0     H25609  11.514   4.279   6.101  1.8178 -2.3039 -0.7431
  190MOL0     H25610  11.638   4.149   5.968  0.8269 -1.4191 -0.5889
  190MOL0     H25611  11.769   3.965   5.910  0.8252 -1.9548  0.5481
  190MOL0     H25612  12.209   3.785   5.789 -2.2076  1.8393 -0.4242
  190MOL0     H25613  12.258   3.565   5.675  1.7997  2.3809  2.2628
  190MOL0     H25614  12.167   3.275   5.848 -1.9276  1.2308  0.3464
  190MOL0     H25615  12.050   3.179   5.764 -0.7675 -0.8249  0.1001
  190MOL0     H25616  12.345   3.195   5.674 -0.0938 -2.2708 -1.1591
  190MOL0     H25617  12.257   3.063   5.752  0.4793 -0.1641  0.1550
  190MOL0     H25618  12.215   2.988   5.546  0.9984 -0.1408 -1.5593
  190MOL0     H25619  12.089   3.104   5.544  0.1479  0.1416  1.4373
  190MOL0     H25620  12.381   3.168   5.437 -1.0759 -0.5397  1.6161
  190MOL0     H25621  12.233   3.260   5.408 -2.3107 -0.3383  0.2546
  190MOL0     H25622  12.133   3.040   5.301  1.8111 -1.6871 -2.0524
  190MOL0     H25623  12.300   2.991   5.280 -1.1177 -1.8726 -1.3709
  190MOL0     H25624  12.204   3.262   5.182 -1.7528  0.4295 -1.6850
  190MOL0     H25625  12.356   3.168   5.141 -0.5533  0.5519 -0.4647
  190MOL0     H25626  12.065   3.095   5.075  0.3024 -0.3035 -0.1266
  190MOL0     H25627  12.197   2.980   5.073  0.2336  0.4265  2.0013
  190MOL0     H25628  12.186   3.234   4.902  2.3630  0.6958 -0.7073
  190MOL0     H25629  12.317   3.135   4.906 -0.7988  2.1157  2.5926
  190MOL0     H25630  11.919   3.399   5.783  2.8760 -1.8278 -0.2272
  190MOL0     H25631  11.834   3.621   5.915  0.9593 -0.1467  1.1308
  190MOL0     H25632  12.059   4.091   6.221  0.0380  0.6399 -0.0100
  190MOL0     H25633  11.945   4.292   6.255  2.3633 -0.6454 -0.6362
  190MOL0     H25634  10.565   5.601   6.402 -2.5055 -4.0610  5.0663
  190MOL0     H25635  10.374   5.748   6.331 -4.5417 -0.8068  1.1397
  190MOL0     H25636   9.997   5.795   6.141 -0.5427  0.1973 -0.7004
  190MOL0     H25637   9.775   5.892   6.076 -0.5664 -1.4399  1.1088
  190MOL0     H25638   9.578   6.106   5.841 -1.9622  0.7920  2.3666
  190MOL0     H25639   9.645   6.069   5.993 -0.7557  0.9291 -0.5698
  190MOL0     H25640   9.562   5.823   5.950 -2.2234 -0.1853  2.0162
  190MOL0     H25641   9.461   5.880   5.818 -1.1578 -0.4981 -0.6504
  190MOL0     H25642   9.436   5.950   6.119 -2.0634  3.4740  0.3213
  190MOL0     H25643   9.320   5.867   6.031 -0.9150  0.5507  1.0564
  190MOL0     H25644   9.292   6.131   6.076 -1.0179 -0.0121 -1.3490
  190MOL0     H25645   9.389   6.141   5.929 -0.3323  0.8284 -0.3552
  190MOL0     H25646   9.007   6.005   5.805  0.0272  0.0190 -2.1615
  190MOL0     H25647   9.910   5.904   5.686 -1.3333  1.8755  1.9842
  190MOL0     H25648  10.219   5.704   5.716 -1.0873 -1.1254 -0.4962
  190MOL0     H25649  10.092   5.754   5.609  3.4924  2.4164 -2.4326
  190MOL0     H25650  10.203   5.867   5.664  0.8113 -0.3965  0.8507
  191MOL0     O25651   6.699   5.289   2.957 -0.4021 -0.9093  0.6206
  191MOL0     C25652   6.596   5.245   2.994  1.1565 -0.1652 -0.0085
  191MOL0     O25653   6.576   5.122   3.060 -0.0073 -0.4871 -0.4166
  191MOL0     C25654   6.676   5.031   3.058 -0.4814 -0.0885  0.0901
  191MOL0     C25655   6.764   5.043   3.166  0.9641 -0.8525 -0.1162
  191MOL0     C25656   6.868   4.949   3.172 -0.3616  0.8526  0.2044
  191MOL0     C25657   6.871   4.834   3.077 -0.4781 -0.8353 -1.4611
  191MOL0     O25658   6.960   4.736   3.086 -0.4373 -0.3328  0.1514
  191MOL0     C25659   7.077   4.734   3.181  0.1883  0.2124  0.7989
  191MOL0     C25660   7.164   4.610   3.157  1.0378 -0.5021 -0.4645
  191MOL0     C25661   7.287   4.601   3.250  1.0367 -0.1004  0.0143
  191MOL0     C25662   7.354   4.465   3.238  0.2125 -0.2798 -0.2742
  191MOL0     C25663   7.486   4.452   3.310 -0.0527  0.3504 -0.8034
  191MOL0     C25664   7.583   4.547   3.261 -1.6206  0.7631  0.3816
  191MOL0     C25665   7.709   4.514   3.341  0.2183 -0.2308  0.4910
  191MOL0     C25666   7.837   4.599   3.334  0.9172  0.7238 -0.1959
  191MOL0     N25667   7.814   4.730   3.395  0.1233  0.0520 -0.2148
  191MOL0     C25668   7.761   4.846   3.341 -0.1472  0.1169 -0.5475
  191MOL0     C25669   7.774   4.939   3.439 -0.5374 -0.6832  0.2166
  191MOL0     C25670   7.746   5.084   3.422 -0.8738  0.2762 -0.7835
  191MOL0     C25671   7.822   5.151   3.301  1.0490 -0.5669 -0.6706
  191MOL0     C25672   7.806   5.300   3.298  0.5644  0.9827 -0.3095
  191MOL0     C25673   7.889   5.368   3.195 -0.1893 -0.3260 -0.2275
  191MOL0     O25674   8.026   5.376   3.233  0.5676  0.0126 -0.0415
  191MOL0     C25675   8.103   5.293   3.158 -0.3518 -1.1449  0.7793
  191MOL0     C25676   8.209   5.217   3.209 -1.2632 -0.5993 -0.5791
  191MOL0     C25677   8.300   5.141   3.126 -0.1728  0.3425  0.2068
  191MOL0     C25678   8.276   5.137   2.990  1.7233  0.1245  0.1975
  191MOL0     C25679   8.367   5.064   2.907 -0.0304  1.0750 -0.4895
  191MOL0     O25680   8.324   5.028   2.779 -0.1609 -0.2387  0.1249
  191MOL0     C25681   8.415   4.975   2.699 -0.5009 -0.2996 -0.9369
  191MOL0     C25682   8.391   4.844   2.653 -0.2939  0.4028  0.4225
  191MOL0     C25683   8.481   4.782   2.572 -0.5311 -0.6607  0.3665
  191MOL0     C25684   8.592   4.851   2.520  0.3438 -0.3809  0.1680
  191MOL0     O25685   8.691   4.786   2.447  0.8350 -0.8754 -0.6366
  191MOL0     C25686   8.682   4.637   2.429  0.1596 -1.5737  0.4044
  191MOL0     C25687   8.790   4.585   2.336 -0.8150  0.4270  0.5406
  191MOL0     C25688   8.923   4.658   2.376 -0.0803 -0.7320  0.0635
  191MOL0     C25689   9.024   4.621   2.270 -1.0472  0.2674  0.9760
  191MOL0     C25690   9.073   4.475   2.264  0.0035  1.7100 -0.1188
  191MOL0     C25691   9.172   4.455   2.143  0.4043 -0.4715 -0.2454
  191MOL0     C25692   9.227   4.312   2.138  0.6863 -0.3863 -0.5372
  191MOL0     C25693   9.357   4.315   2.065  0.3977  1.4635  0.5942
  191MOL0    Cl25694   9.324   4.360   1.888  0.5413 -0.1238  0.5078
  191MOL0     C25695   8.611   4.982   2.552  0.0664 -0.4312  0.5609
  191MOL0     C25696   8.519   5.041   2.640  0.2569 -0.3854  0.8926
  191MOL0     O25697   8.485   5.055   2.939  0.8295 -0.2706 -0.5885
  191MOL0     C25698   8.167   5.205   2.930 -0.2064  0.2577 -0.4847
  191MOL0     C25699   8.090   5.290   3.012  0.1316  0.7473 -0.1767
  191MOL0     N25700   7.829   4.878   3.550 -0.2510  0.1956 -0.6109
  191MOL0     N25701   7.840   4.759   3.522 -0.6412  0.2089 -0.1151
  191MOL0     C25702   6.773   4.815   2.986  0.6231  1.0453  0.1829
  191MOL0     C25703   6.675   4.918   2.967 -0.3606 -0.1379  0.5028
  191MOL0     C25704   6.475   5.336   2.983 -0.3618  0.0900  0.7835
  191MOL0     C25705   6.503   5.478   2.979 -0.3561 -1.0119 -0.5847
  191MOL0     C25706   6.396   5.572   2.983 -0.3137 -0.1854  0.3096
  191MOL0     C25707   6.258   5.524   2.980  0.3839 -0.1125 -0.4471
  191MOL0     O25708   6.166   5.629   2.993  0.2283  0.3756  0.7134
  191MOL0     C25709   6.028   5.604   3.027 -1.4780  0.5542  0.6702
  191MOL0     C25710   6.007   5.490   3.137 -1.6322 -0.0138  0.2317
  191MOL0     C25711   5.883   5.512   3.218  0.2186  0.1692  0.0332
  191MOL0     C25712   5.753   5.499   3.138  1.0270  0.0696  1.8210
  191MOL0     C25713   5.639   5.579   3.187  0.9134  0.1977  0.2428
  191MOL0     C25714   5.533   5.639   3.213  0.3526  0.1986  0.0555
  191MOL0     C25715   6.236   5.387   2.963 -0.2301  0.0820  0.0436
  191MOL0     C25716   6.340   5.291   2.963  0.1973 -0.0620 -0.9849
  191MOL0     C25717   6.298   5.144   2.939 -0.3746 -0.0770 -0.3739
  191MOL0     H25718   6.752   5.118   3.243 -2.6184  1.4635 -2.6329
  191MOL0     H25719   6.948   4.966   3.243  0.4474  2.9263 -1.1307
  191MOL0     H25720   7.133   4.828   3.179 -0.8660  0.8562  0.3963
  191MOL0     H25721   7.031   4.722   3.279  0.0139  0.7700  0.7940
  191MOL0     H25722   7.213   4.607   3.059  1.9396  1.7313 -0.1442
  191MOL0     H25723   7.101   4.522   3.173  0.6699 -0.5602 -2.0874
  191MOL0     H25724   7.247   4.595   3.352  3.4081  0.0759  1.0197
  191MOL0     H25725   7.351   4.688   3.238 -0.5112  1.0348 -0.3976
  191MOL0     H25726   7.281   4.392   3.274 -2.1412  1.3031 -1.5180
  191MOL0     H25727   7.365   4.438   3.132  0.8547 -2.4278  0.2954
  191MOL0     H25728   7.470   4.468   3.417 -1.4370 -0.4011 -0.8764
  191MOL0     H25729   7.527   4.353   3.290  3.2609  0.9137  2.1568
  191MOL0     H25730   7.609   4.526   3.157 -0.2459  1.1463  0.6257
  191MOL0     H25731   7.557   4.653   3.271 -1.6569  0.9227 -1.2306
  191MOL0     H25732   7.755   4.425   3.297 -1.3169 -0.0366 -1.6661
  191MOL0     H25733   7.679   4.492   3.444 -2.5956 -1.7938 -0.5465
  191MOL0     H25734   7.905   4.548   3.403 -1.9810 -1.0195  1.5695
  191MOL0     H25735   7.887   4.616   3.238  2.4885 -2.2430 -0.0311
  191MOL0     H25736   7.721   4.849   3.240  1.1313 -1.0590 -1.1312
  191MOL0     H25737   7.638   5.104   3.420 -0.7584  0.9102 -1.0850
  191MOL0     H25738   7.786   5.132   3.512  1.4853 -0.0503 -1.6054
  191MOL0     H25739   7.929   5.129   3.312  1.0219  0.2238  2.0840
  191MOL0     H25740   7.771   5.110   3.214  0.8549 -3.0550  0.5211
  191MOL0     H25741   7.840   5.333   3.397  1.7392 -1.9191  0.3438
  191MOL0     H25742   7.700   5.319   3.280 -0.6799 -4.4770 -0.3331
  191MOL0     H25743   7.858   5.472   3.182  0.2340 -0.5485 -4.2988
  191MOL0     H25744   7.873   5.316   3.100 -0.2205 -1.3530  0.3240
  191MOL0     H25745   8.238   5.213   3.314 -1.4472 -2.3971 -0.5667
  191MOL0     H25746   8.386   5.090   3.168 -0.2953 -1.0956 -1.1872
  191MOL0     H25747   8.304   4.789   2.689 -0.0872 -0.7775 -0.7903
  191MOL0     H25748   8.477   4.675   2.558 -0.9270 -0.7796  1.3538
  191MOL0     H25749   8.688   4.593   2.529 -1.4635 -1.5942  0.5178
  191MOL0     H25750   8.583   4.616   2.389  1.2000 -1.5249 -2.3824
  191MOL0     H25751   8.798   4.476   2.342  0.2692  0.2892 -2.1857
  191MOL0     H25752   8.765   4.611   2.233  1.1230  1.0923  0.1844
  191MOL0     H25753   8.923   4.767   2.379 -1.4535 -0.7364  1.9058
  191MOL0     H25754   8.953   4.622   2.476 -2.4696  1.4196  1.6714
  191MOL0     H25755   9.108   4.691   2.261 -0.8212 -0.1176 -0.0099
  191MOL0     H25756   8.974   4.647   2.176 -1.1136 -0.3369  0.8438
  191MOL0     H25757   8.991   4.403   2.249 -0.7889  2.3360  1.0918
  191MOL0     H25758   9.113   4.459   2.364 -1.8646  4.1614  1.1366
  191MOL0     H25759   9.127   4.483   2.048 -1.5023 -1.2175  0.3997
  191MOL0     H25760   9.255   4.521   2.172  0.8456 -2.5314  3.9578
  191MOL0     H25761   9.154   4.244   2.094 -2.1234  0.1629  2.8631
  191MOL0     H25762   9.260   4.295   2.241  2.1771  1.0353 -0.7333
  191MOL0     H25763   9.431   4.376   2.117  1.7478 -0.1443  0.6573
  191MOL0     H25764   9.383   4.208   2.065 -0.1257  1.2883 -1.7695
  191MOL0     H25765   8.693   5.035   2.504  0.2871 -0.6429  0.7031
  191MOL0     H25766   8.548   5.137   2.680 -2.2497  0.5408  0.6499
  191MOL0     H25767   8.140   5.195   2.825 -0.2360  0.3373 -0.4846
  191MOL0     H25768   8.021   5.354   2.958  0.8560  1.3347 -0.4154
  191MOL0     H25769   6.762   4.720   2.934 -2.6186  1.0068  0.7693
  191MOL0     H25770   6.599   4.897   2.892 -0.4991 -3.6035  1.4417
  191MOL0     H25771   6.601   5.525   2.980  0.5744 -2.8609 -0.0063
  191MOL0     H25772   6.429   5.675   2.988 -0.4449  0.0704 -2.6857
  191MOL0     H25773   5.960   5.581   2.945  0.4982  0.3735 -1.0029
  191MOL0     H25774   6.014   5.701   3.077  0.3787  1.3825 -0.3186
  191MOL0     H25775   6.085   5.482   3.213  1.4704 -4.8331 -2.9332
  191MOL0     H25776   6.003   5.393   3.087  0.6465 -0.3779  0.6614
  191MOL0     H25777   5.885   5.607   3.272  2.2264 -1.6179  3.4521
  191MOL0     H25778   5.887   5.433   3.294  2.4304 -0.5294 -0.7327
  191MOL0     H25779   5.762   5.533   3.034 -0.5426 -0.9029  1.3235
  191MOL0     H25780   5.728   5.392   3.140  3.4293 -0.6710 -1.1081
  191MOL0     H25781   5.448   5.687   3.256  0.1167 -1.5090  1.6536
  191MOL0     H25782   6.135   5.351   2.944 -0.6541  1.2000  0.1039
  191MOL0     H25783   6.207   5.145   2.877 -1.1134  2.8676  0.6005
  191MOL0     H25784   6.381   5.089   2.894 -0.3245 -1.4004  1.2340
  191MOL0     H25785   6.280   5.104   3.039 -1.9062  1.3923  0.0029
  192MOL0     O25786   3.078  11.196   0.825 -0.9914 -0.7048 -0.1645
  192MOL0     C25787   3.107  11.318   0.813  0.5208  0.1718  1.0370
  192MOL0     O25788   3.214  11.363   0.738 -0.7881  0.0453  0.0690
  192MOL0     C25789   3.298  11.275   0.665 -0.7431  0.7399 -0.3821
  192MOL0     C25790   3.254  11.160   0.598 -1.2446 -0.0511  0.0166
  192MOL0     C25791   3.338  11.091   0.507 -0.0699 -0.4717 -0.4780
  192MOL0     C25792   3.467  11.126   0.500 -1.1220 -1.0522 -0.8630
  192MOL0     O25793   3.535  11.047   0.413 -0.6354 -0.2532 -0.4199
  192MOL0     C25794   3.678  11.046   0.434 -0.2321  1.1531 -0.0256
  192MOL0     C25795   3.732  10.940   0.344  0.1667 -0.1497 -0.6762
  192MOL0     C25796   3.667  10.945   0.200  0.1173 -0.5399  0.5214
  192MOL0     C25797   3.730  10.825   0.120 -1.3728  0.1698 -0.1919
  192MOL0     C25798   3.644  10.799  -0.009  0.3029  0.0908 -0.4353
  192MOL0     C25799   3.712  10.693  -0.096 -0.5177  0.0472  0.0082
  192MOL0     C25800   3.698  10.549  -0.051  0.4104  0.0107 -0.1308
  192MOL0     C25801   3.725  10.448  -0.165 -0.7878  0.5172 -0.0031
  192MOL0     N25802   3.871  10.428  -0.191  0.0666 -0.6778  0.2277
  192MOL0     C25803   3.943  10.311  -0.164 -0.0894  0.7029  0.4014
  192MOL0     C25804   4.080  10.339  -0.186  0.0095 -0.5432  0.5270
  192MOL0     C25805   4.180  10.231  -0.180  1.0865 -0.8630  0.5244
  192MOL0     C25806   4.239  10.203  -0.037 -0.2155 -0.1745 -0.7189
  192MOL0     C25807   4.324  10.317   0.030  0.3001 -0.6195  1.1997
  192MOL0     C25808   4.375  10.296   0.171 -0.6772  0.0959  0.8990
  192MOL0     O25809   4.477  10.194   0.160 -0.3742  0.1989  0.0641
  192MOL0     C25810   4.498  10.109   0.276  0.5224  0.0195  0.6941
  192MOL0     C25811   4.483  10.150   0.412  0.0983 -0.3712  0.4181
  192MOL0     C25812   4.509  10.054   0.508 -0.6242 -0.6253  0.2161
  192MOL0     C25813   4.570   9.927   0.482  0.0300  0.4705  0.4472
  192MOL0     C25814   4.614   9.839   0.597  0.0309  0.1694  0.6926
  192MOL0     O25815   4.653   9.900   0.714 -0.6859  0.3741 -0.2592
  192MOL0     C25816   4.736   9.816   0.786 -0.1339 -0.7643  0.0543
  192MOL0     C25817   4.688   9.755   0.897  0.1313  0.5050 -0.2197
  192MOL0     C25818   4.775   9.690   0.980  0.0738  0.3725 -0.8255
  192MOL0     C25819   4.911   9.695   0.966  0.6188 -0.3926  0.1557
  192MOL0     O25820   5.007   9.622   1.030 -0.4174 -0.2854 -0.3093
  192MOL0     C25821   5.017   9.644   1.173 -0.5793 -0.2349 -0.2239
  192MOL0     C25822   5.104   9.533   1.235  0.4696  0.7090  0.2186
  192MOL0     C25823   5.256   9.536   1.190 -0.7355 -0.1257  0.6536
  192MOL0     C25824   5.327   9.404   1.238  1.0214  0.5351  0.7222
  192MOL0     C25825   5.473   9.419   1.205 -0.5460 -0.1542 -0.4128
  192MOL0     C25826   5.566   9.522   1.263 -0.2031 -0.9666 -0.6148
  192MOL0     C25827   5.682   9.542   1.173 -0.4472 -0.1434  0.5549
  192MOL0     C25828   5.789   9.616   1.241 -0.4096 -0.5556 -0.1085
  192MOL0    Cl25829   5.937   9.646   1.145  0.1722 -0.1043  0.0292
  192MOL0     C25830   4.959   9.756   0.850 -0.4159 -0.7251 -0.2337
  192MOL0     C25831   4.871   9.818   0.756 -0.5229 -0.2399 -0.4571
  192MOL0     O25832   4.609   9.721   0.574 -0.2277  0.9506 -0.0886
  192MOL0     C25833   4.582   9.892   0.345  0.7751  0.1222  0.3164
  192MOL0     C25834   4.545   9.982   0.241  0.0651  0.3537  1.2915
  192MOL0     N25835   4.079  10.468  -0.234  0.2252  1.1365  0.0876
  192MOL0     N25836   3.961  10.524  -0.240  0.0929  0.4153 -0.4335
  192MOL0     C25837   3.518  11.235   0.580 -0.3112  0.1109 -0.0578
  192MOL0     C25838   3.433  11.319   0.650  0.0070 -0.2716  0.5047
  192MOL0     C25839   3.031  11.415   0.883  0.8023  0.1337  0.6089
  192MOL0     C25840   3.049  11.549   0.856  0.9551  0.0248 -0.1832
  192MOL0     C25841   2.974  11.650   0.932  0.0881  0.1811 -0.3694
  192MOL0     C25842   2.881  11.612   1.035  0.3280 -0.1445  0.7820
  192MOL0     O25843   2.801  11.713   1.088 -0.4314  0.0248  0.3691
  192MOL0     C25844   2.706  11.670   1.186 -0.2352 -0.3258  0.0373
  192MOL0     C25845   2.639  11.793   1.235  0.8220 -0.0864 -0.2597
  192MOL0     C25846   2.580  11.891   1.123 -0.9636  0.2323 -0.1008
  192MOL0     C25847   2.555  12.024   1.192 -0.5887  0.0374  0.0245
  192MOL0     C25848   2.516  12.117   1.092 -1.1573 -0.7691  0.6373
  192MOL0     C25849   2.495  12.195   1.003 -0.5159  0.1687 -0.7125
  192MOL0     C25850   2.861  11.479   1.051  0.0037  0.6080 -0.9499
  192MOL0     C25851   2.929  11.379   0.974 -0.3878  0.2393  0.0905
  192MOL0     C25852   2.882  11.239   1.002  0.0239 -0.0748  0.2404
  192MOL0     H25853   3.157  11.110   0.602  0.2480 -3.3523 -1.2028
  192MOL0     H25854   3.301  11.013   0.441 -1.5686  1.0866 -1.5566
  192MOL0     H25855   3.718  11.144   0.406 -1.0858  1.2520 -0.9520
  192MOL0     H25856   3.695  11.030   0.541  0.6113  2.5148  0.0605
  192MOL0     H25857   3.716  10.848   0.401 -1.7372 -0.3004 -1.3742
  192MOL0     H25858   3.841  10.935   0.338  0.1745 -2.0607  0.3187
  192MOL0     H25859   3.703  11.042   0.163 -0.5465  0.0354  1.3469
  192MOL0     H25860   3.558  10.937   0.191  0.1271  1.2919 -4.1823
  192MOL0     H25861   3.828  10.846   0.075 -1.6705 -5.2446 -4.3029
  192MOL0     H25862   3.736  10.740   0.187  2.5036  1.0168  0.7710
  192MOL0     H25863   3.547  10.762   0.023  0.3100  1.1606  0.9350
  192MOL0     H25864   3.637  10.893  -0.065  0.5454  0.5444  0.2718
  192MOL0     H25865   3.669  10.693  -0.196  0.6961 -1.9389 -0.5573
  192MOL0     H25866   3.820  10.710  -0.101 -0.2823 -1.5440 -0.5302
  192MOL0     H25867   3.595  10.526  -0.024 -0.1849 -2.0029 -3.5211
  192MOL0     H25868   3.757  10.518   0.035  1.1680  0.1867 -0.5775
  192MOL0     H25869   3.680  10.360  -0.117 -1.9721  1.4390  0.6649
  192MOL0     H25870   3.680  10.462  -0.264 -2.0491 -4.0211 -0.3166
  192MOL0     H25871   3.898  10.214  -0.145  1.9802 -0.2300  0.8227
  192MOL0     H25872   4.135  10.134  -0.204  0.6429 -0.6375  0.4369
  192MOL0     H25873   4.250  10.251  -0.262 -2.1402 -0.3386 -2.3120
  192MOL0     H25874   4.164  10.172   0.037  1.4198  0.7153  1.4153
  192MOL0     H25875   4.303  10.114  -0.039 -3.7954 -2.9898 -3.0243
  192MOL0     H25876   4.281  10.416   0.020  0.3899 -0.4202  2.5766
  192MOL0     H25877   4.414  10.314  -0.032 -1.4747 -0.8289 -1.5086
  192MOL0     H25878   4.302  10.267   0.247  0.1049 -3.6141  0.4500
  192MOL0     H25879   4.420  10.394   0.193 -0.3708  0.3870 -0.8799
  192MOL0     H25880   4.449  10.249   0.442 -3.3082 -1.9728  2.3786
  192MOL0     H25881   4.487  10.088   0.609 -0.0360 -0.4272  0.2767
  192MOL0     H25882   4.583   9.759   0.922  0.5863  3.1324  1.8036
  192MOL0     H25883   4.725   9.650   1.068  0.3971  0.3212 -0.6644
  192MOL0     H25884   5.052   9.747   1.182  0.4223 -0.5574 -0.2351
  192MOL0     H25885   4.915   9.651   1.211 -0.6147  0.0494 -0.3728
  192MOL0     H25886   5.096   9.535   1.344 -1.1746  0.0543  0.1398
  192MOL0     H25887   5.058   9.436   1.215  0.4227 -0.0503  3.4985
  192MOL0     H25888   5.279   9.555   1.085  1.8142  0.1163  1.2015
  192MOL0     H25889   5.302   9.614   1.251 -0.5248 -1.3791  2.1457
  192MOL0     H25890   5.290   9.316   1.185 -0.0383  1.0190  0.6336
  192MOL0     H25891   5.322   9.380   1.344 -0.5956 -2.7924  0.0138
  192MOL0     H25892   5.475   9.439   1.097  0.0657  2.9539  0.0781
  192MOL0     H25893   5.525   9.324   1.220  0.2584  0.4591  0.7724
  192MOL0     H25894   5.524   9.623   1.269 -1.0354 -1.3322 -0.0884
  192MOL0     H25895   5.606   9.490   1.359  0.8627 -0.3213 -0.8189
  192MOL0     H25896   5.652   9.587   1.078  0.7793 -1.4244 -0.4656
  192MOL0     H25897   5.728   9.446   1.152  2.2941  0.9829  1.0156
  192MOL0     H25898   5.753   9.713   1.276  0.9256 -0.6537  1.7052
  192MOL0     H25899   5.820   9.564   1.332 -0.4161 -0.1558  0.1244
  192MOL0     H25900   5.066   9.762   0.829 -0.5092  0.4212 -0.4266
  192MOL0     H25901   4.909   9.880   0.676  2.7712 -0.8863  0.4722
  192MOL0     H25902   4.627   9.794   0.333 -0.6158 -0.5199  0.1234
  192MOL0     H25903   4.575   9.962   0.138 -2.2183  1.3885  0.3536
  192MOL0     H25904   3.623  11.260   0.583 -0.3856  0.3594  0.6713
  192MOL0     H25905   3.465  11.407   0.705 -3.1375 -0.0906  2.3353
  192MOL0     H25906   3.115  11.583   0.776  2.0308  0.5019  0.8827
  192MOL0     H25907   2.998  11.752   0.906  0.9400  0.0252 -0.2283
  192MOL0     H25908   2.753  11.611   1.266  0.6827 -4.2990 -3.1372
  192MOL0     H25909   2.629  11.610   1.139 -0.2563 -1.6389  1.6441
  192MOL0     H25910   2.709  11.848   1.298  1.5484  1.0367 -1.9721
  192MOL0     H25911   2.556  11.765   1.300 -0.4057  0.2315 -1.6121
  192MOL0     H25912   2.488  11.847   1.084 -0.6441 -0.7227  0.1939
  192MOL0     H25913   2.657  11.915   1.048 -0.6649  1.7662  0.6627
  192MOL0     H25914   2.472  12.009   1.263 -2.1919  0.2813 -1.7171
  192MOL0     H25915   2.648  12.057   1.237  0.4532 -3.3436  0.6388
  192MOL0     H25916   2.463  12.264   0.928  2.4187  1.4513 -0.9164
  192MOL0     H25917   2.788  11.450   1.126  2.4673 -3.2715  0.2506
  192MOL0     H25918   2.795  11.233   1.068  1.4918 -2.4596  2.1309
  192MOL0     H25919   2.855  11.207   0.901 -1.8658  3.5102 -0.5659
  192MOL0     H25920   2.955  11.171   1.046 -0.6058 -0.1093  1.2738
  193MOL0     O25921   6.795   7.228  10.932 -0.1591  0.3303  0.4474
  193MOL0     C25922   6.677   7.255  10.892  0.2266  0.0381 -0.0185
  193MOL0     O25923   6.636   7.319  10.777 -0.1899 -0.3315  0.1942
  193MOL0     C25924   6.736   7.354  10.694 -0.2872  0.6031 -0.6762
  193MOL0     C25925   6.846   7.422  10.735  0.1894  0.4481  0.1757
  193MOL0     C25926   6.957   7.451  10.659 -0.6984  0.2290 -0.8040
  193MOL0     C25927   6.947   7.426  10.519 -0.2513  0.4977  1.0835
  193MOL0     O25928   7.030   7.459  10.413  0.1000  0.4556  0.3398
  193MOL0     C25929   7.150   7.525  10.440  0.2024  0.3945 -0.4831
  193MOL0     C25930   7.238   7.549  10.315 -0.3114  0.6415  0.4421
  193MOL0     C25931   7.308   7.421  10.260 -0.3258  0.2201 -0.0429
  193MOL0     C25932   7.387   7.361  10.367 -0.4153 -0.1771 -0.1488
  193MOL0     C25933   7.486   7.250  10.320 -0.2604 -0.0177 -0.5600
  193MOL0     C25934   7.540   7.172  10.441  0.0225  1.0245  0.2675
  193MOL0     C25935   7.608   7.045  10.396 -0.3845  0.0018  0.8249
  193MOL0     C25936   7.665   6.961  10.498 -0.3522 -0.1838 -0.1294
  193MOL0     N25937   7.770   7.020  10.585  0.6658 -0.2254  0.0704
  193MOL0     C25938   7.853   7.122  10.549  0.2041 -0.3870  0.0572
  193MOL0     C25939   7.941   7.135  10.643 -0.2434  0.0697 -0.0948
  193MOL0     C25940   8.055   7.228  10.634 -0.0823 -1.0702  0.6708
  193MOL0     C25941   8.180   7.134  10.663  0.3393  0.9822 -0.5766
  193MOL0     C25942   8.308   7.198  10.626 -0.7759  0.3770 -0.4446
  193MOL0     C25943   8.437   7.109  10.638 -0.0361 -0.9026  0.5677
  193MOL0     O25944   8.475   7.084  10.768  0.3413 -1.1263  0.4981
  193MOL0     C25945   8.614   7.080  10.787  0.2436 -0.1759  0.8926
  193MOL0     C25946   8.684   6.975  10.742 -1.0729  1.0975  0.1097
  193MOL0     C25947   8.814   6.948  10.775  0.2327 -0.8996 -0.7800
  193MOL0     C25948   8.888   7.051  10.844  0.8238  0.0134  0.1079
  193MOL0     C25949   9.038   7.038  10.867 -0.0241  0.7930 -0.0938
  193MOL0     O25950   9.088   6.905  10.870 -0.4710  0.9122 -0.1244
  193MOL0     C25951   9.223   6.885  10.894  0.5383 -0.2136  0.1125
  193MOL0     C25952   9.295   6.793  10.814  1.0658 -0.0125  0.8121
  193MOL0     C25953   9.425   6.761  10.836  0.2089  0.8073  0.5028
  193MOL0     C25954   9.486   6.823  10.942 -0.6707  1.0949 -1.2971
  193MOL0     O25955   9.619   6.797  10.981  0.7564  0.5116  0.9270
  193MOL0     C25956   9.670   6.660  10.946  0.0365  0.7237  0.5883
  193MOL0     C25957   9.747   6.649  10.808  0.6524  0.6774 -0.1824
  193MOL0     C25958   9.873   6.552  10.826 -0.8871 -0.6857 -0.0543
  193MOL0     C25959   9.960   6.536  10.699 -0.2671  0.1043  1.4784
  193MOL0     C25960  10.060   6.419  10.723  1.1894 -0.8799 -0.5003
  193MOL0     C25961  10.163   6.394  10.609  0.4873  0.8553  0.4503
  193MOL0     C25962  10.309   6.400  10.651 -0.5587  1.3154  0.3249
  193MOL0     C25963  10.354   6.271  10.715  0.0794 -0.1433  0.0300
  193MOL0    Cl25964  10.283   6.262  10.877 -0.1648  0.3433 -0.0504
  193MOL0     C25965   9.421   6.902  11.028 -1.2868  0.3656 -0.5762
  193MOL0     C25966   9.291   6.951  10.994  0.7277 -0.3115 -0.7294
  193MOL0     O25967   9.102   7.142  10.887 -0.3925  0.2792  0.5523
  193MOL0     C25968   8.815   7.161  10.898 -0.6999 -0.4857 -0.8823
  193MOL0     C25969   8.684   7.176  10.864 -0.0000 -0.0975 -0.3095
  193MOL0     N25970   7.904   7.048  10.745  0.2532  0.3128 -0.1586
  193MOL0     N25971   7.808   6.969  10.707  0.0779 -0.4757  0.0829
  193MOL0     C25972   6.850   7.357  10.472 -0.2470 -1.3178  0.4362
  193MOL0     C25973   6.748   7.316  10.555  0.3273  0.1951  0.6818
  193MOL0     C25974   6.575   7.222  10.987  0.9932  0.5189  0.6837
  193MOL0     C25975   6.577   7.255  11.122  0.2658  0.4798 -0.3865
  193MOL0     C25976   6.467   7.251  11.203  0.3995  0.3340 -1.2159
  193MOL0     C25977   6.353   7.187  11.162  1.2649  0.7671 -0.3282
  193MOL0     O25978   6.243   7.194  11.242  0.2048  0.0897 -0.1714
  193MOL0     C25979   6.121   7.126  11.214 -1.1949  1.3569 -0.3829
  193MOL0     C25980   6.048   7.106  11.340  0.2093 -0.5577 -0.1860
  193MOL0     C25981   5.999   7.233  11.410 -0.7161  0.2129  0.1620
  193MOL0     C25982   5.895   7.311  11.326  0.3770 -0.1141 -0.3127
  193MOL0     C25983   5.785   7.222  11.294  0.6527  0.0005 -0.0894
  193MOL0     C25984   5.706   7.128  11.263  0.1886 -0.7150 -0.6273
  193MOL0     C25985   6.353   7.140  11.029  0.1675  0.8158  0.6303
  193MOL0     C25986   6.458   7.149  10.941  0.2499 -0.2607 -0.1593
  193MOL0     C25987   6.439   7.089  10.800  0.6278  0.1260  0.5926
  193MOL0     H25988   6.852   7.460  10.837 -1.9746  0.8680  0.1890
  193MOL0     H25989   7.035   7.511  10.705 -0.7909 -1.2670  1.4368
  193MOL0     H25990   7.109   7.614  10.487  1.2651  1.3574 -1.3212
  193MOL0     H25991   7.207   7.481  10.522 -2.9765 -0.5250  1.3950
  193MOL0     H25992   7.304   7.630  10.346  0.0561  0.7263 -0.5351
  193MOL0     H25993   7.177   7.580  10.230  0.2962 -1.1132 -0.6954
  193MOL0     H25994   7.358   7.438  10.165  0.9598  1.3588  0.7895
  193MOL0     H25995   7.231   7.345  10.246  1.9881 -2.9971  2.7651
  193MOL0     H25996   7.441   7.444  10.414  1.2860 -0.7789 -0.9251
  193MOL0     H25997   7.327   7.301  10.436  1.2458 -0.1891  1.3604
  193MOL0     H25998   7.433   7.178  10.258  2.4356 -2.2064 -0.4785
  193MOL0     H25999   7.561   7.303  10.261  2.0116 -2.3548  0.0659
  193MOL0     H26000   7.605   7.241  10.497  0.2603 -0.4342  1.8853
  193MOL0     H26001   7.457   7.146  10.507  1.1812 -1.5422  0.8346
  193MOL0     H26002   7.690   7.061  10.325  0.3202 -1.1057  1.3591
  193MOL0     H26003   7.535   6.978  10.350  1.6872 -2.9943  1.5643
  193MOL0     H26004   7.581   6.943  10.565  1.1580  1.4164  2.3493
  193MOL0     H26005   7.698   6.867  10.453  1.5770  0.6275 -0.5318
  193MOL0     H26006   7.853   7.184  10.460  0.3643 -1.0539 -0.4144
  193MOL0     H26007   8.058   7.263  10.530  2.1803  1.5005  1.4657
  193MOL0     H26008   8.054   7.313  10.702 -0.1747 -0.2629 -0.3123
  193MOL0     H26009   8.188   7.114  10.770  3.2475 -1.1329 -1.0476
  193MOL0     H26010   8.179   7.032  10.622  0.9734  0.6170  0.3007
  193MOL0     H26011   8.309   7.280  10.698 -1.1593 -0.4355  0.5198
  193MOL0     H26012   8.297   7.247  10.529  2.0149 -1.7293 -1.9843
  193MOL0     H26013   8.517   7.152  10.578 -0.2176 -3.2947 -1.5214
  193MOL0     H26014   8.427   7.007  10.601  1.7407 -0.9031  0.0002
  193MOL0     H26015   8.648   6.910  10.663  0.6846 -0.4124  0.4797
  193MOL0     H26016   8.867   6.857  10.745  0.1057 -1.1974 -0.1135
  193MOL0     H26017   9.235   6.726  10.753  0.1401 -1.3880  3.0865
  193MOL0     H26018   9.471   6.689  10.768 -1.9788  1.5915 -1.9638
  193MOL0     H26019   9.746   6.636  11.021 -0.2308 -3.1699 -0.1723
  193MOL0     H26020   9.594   6.582  10.956 -1.0809  1.6706 -0.2254
  193MOL0     H26021   9.683   6.603  10.732  0.5532  1.5241 -0.6220
  193MOL0     H26022   9.784   6.745  10.771  1.7811 -0.6791 -2.8837
  193MOL0     H26023   9.937   6.591  10.905 -1.3288  1.0770 -0.5349
  193MOL0     H26024   9.846   6.452  10.861  0.9000 -0.8996  0.8134
  193MOL0     H26025  10.007   6.632  10.679 -1.9833  0.8573  0.8272
  193MOL0     H26026   9.894   6.513  10.615  0.4127  1.0956  0.6432
  193MOL0     H26027   9.995   6.331  10.727  0.4151 -0.3146  2.9642
  193MOL0     H26028  10.101   6.438  10.823 -2.2055  1.3407  0.6708
  193MOL0     H26029  10.133   6.302  10.559 -1.2989  2.4628 -1.5996
  193MOL0     H26030  10.155   6.469  10.530  3.3861  0.1942 -0.5886
  193MOL0     H26031  10.340   6.476  10.724  2.6516  0.2932  0.1881
  193MOL0     H26032  10.364   6.419  10.558 -0.0690  0.9308  0.5288
  193MOL0     H26033  10.324   6.186  10.652 -1.8095 -1.4322  2.4641
  193MOL0     H26034  10.463   6.280  10.715  0.2216 -0.1810 -3.5166
  193MOL0     H26035   9.462   6.929  11.124 -1.1075 -0.2694 -0.4753
  193MOL0     H26036   9.241   7.013  11.068  1.1241  0.2969 -0.9731
  193MOL0     H26037   8.867   7.237  10.956  1.0418 -1.7081 -0.7489
  193MOL0     H26038   8.614   7.250  10.901 -2.9730 -2.5545 -0.5533
  193MOL0     H26039   6.852   7.332  10.367 -0.5587  3.6134 -1.0135
  193MOL0     H26040   6.670   7.257  10.507 -0.2824 -0.8091  2.7708
  193MOL0     H26041   6.667   7.297  11.164  1.5191 -3.5564  1.5057
  193MOL0     H26042   6.474   7.302  11.299 -0.1170  0.4100 -1.2171
  193MOL0     H26043   6.150   7.023  11.190 -1.1992  1.2026  0.2809
  193MOL0     H26044   6.055   7.169  11.138  2.1345  1.4388 -3.5123
  193MOL0     H26045   6.111   7.059  11.416 -0.0750 -1.6376 -0.6030
  193MOL0     H26046   5.967   7.035  11.327 -1.8233  0.8391  3.3405
  193MOL0     H26047   6.092   7.289  11.426  0.1302 -0.9489 -0.6008
  193MOL0     H26048   5.956   7.196  11.504 -3.1760 -1.6216 -1.5769
  193MOL0     H26049   5.863   7.393  11.390 -1.8120 -0.0501 -1.3704
  193MOL0     H26050   5.948   7.364  11.246  1.3526  1.4860  1.3330
  193MOL0     H26051   5.635   7.054  11.231 -0.9157  0.0731 -0.0628
  193MOL0     H26052   6.262   7.095  10.991  1.1910 -1.1514  0.4293
  193MOL0     H26053   6.421   7.167  10.724 -1.0256  0.8548  1.6615
  193MOL0     H26054   6.525   7.026  10.777 -1.0395 -2.2697  0.5371
  193MOL0     H26055   6.357   7.017  10.796  2.4640 -2.0401 -0.1160
  194MOL0     O26056   0.950   4.903   0.795 -0.0605 -0.2996 -0.5718
  194MOL0     C26057   0.940   4.805   0.868 -0.1408 -0.4728  1.0274
  194MOL0     O26058   1.016   4.686   0.852  1.4136  0.0789 -0.0840
  194MOL0     C26059   1.095   4.665   0.739 -0.5472 -0.3753  0.4250
  194MOL0     C26060   1.215   4.601   0.767  0.4505  0.5642  0.1047
  194MOL0     C26061   1.317   4.585   0.676  0.6449  0.8003 -0.4608
  194MOL0     C26062   1.304   4.639   0.545 -0.5940  0.9283 -0.8910
  194MOL0     O26063   1.403   4.620   0.450  0.3232  0.0265  0.2279
  194MOL0     C26064   1.418   4.487   0.398  0.2406 -0.3058 -0.3010
  194MOL0     C26065   1.551   4.489   0.322  0.3767  0.2937  0.0265
  194MOL0     C26066   1.551   4.358   0.234  0.6582  0.2426 -0.2210
  194MOL0     C26067   1.694   4.345   0.166  0.0158 -0.1055 -0.0541
  194MOL0     C26068   1.694   4.243   0.054 -0.4992 -0.3627 -0.1810
  194MOL0     C26069   1.660   4.097   0.110  0.0408 -0.1031 -0.1380
  194MOL0     C26070   1.675   3.993  -0.007  0.4253  0.1479 -0.0390
  194MOL0     C26071   1.633   3.855   0.032 -0.7083 -0.1895  1.5886
  194MOL0     N26072   1.627   3.788  -0.104  0.6869  0.5919  0.1489
  194MOL0     C26073   1.729   3.735  -0.173  0.4172 -0.1259 -0.0209
  194MOL0     C26074   1.681   3.658  -0.272 -0.5477 -1.3367  0.0090
  194MOL0     C26075   1.749   3.581  -0.388  0.5151  0.1032 -0.5734
  194MOL0     C26076   1.757   3.430  -0.383  0.5204  0.5370  0.5125
  194MOL0     C26077   1.874   3.384  -0.472  0.1810  0.1727 -0.5661
  194MOL0     C26078   1.857   3.240  -0.515  0.2004 -0.1952 -0.6452
  194MOL0     O26079   1.905   3.159  -0.404  0.1629 -0.4079 -0.1591
  194MOL0     C26080   1.984   3.056  -0.432  0.4685  0.1686 -0.6775
  194MOL0     C26081   1.963   2.985  -0.550 -0.2066 -0.4899 -0.6733
  194MOL0     C26082   2.040   2.865  -0.568  0.1121 -0.4549 -0.7072
  194MOL0     C26083   2.136   2.822  -0.473 -0.3993  0.1860  0.9395
  194MOL0     C26084   2.212   2.686  -0.481  0.1412 -0.4409 -0.5261
  194MOL0     O26085   2.200   2.624  -0.597 -0.5971  0.1579 -0.4107
  194MOL0     C26086   2.221   2.492  -0.623 -0.6026  0.6814  0.1708
  194MOL0     C26087   2.245   2.454  -0.755 -0.5561 -0.6231  0.0321
  194MOL0     C26088   2.252   2.325  -0.799  0.4116  0.1254 -0.9550
  194MOL0     C26089   2.235   2.220  -0.710 -0.2592  1.0810  0.2067
  194MOL0     O26090   2.244   2.093  -0.763  0.5964  0.1804  0.2235
  194MOL0     C26091   2.325   2.006  -0.683  1.8278 -0.3124 -0.4008
  194MOL0     C26092   2.234   1.917  -0.600 -0.0585  0.6755 -0.8576
  194MOL0     C26093   2.177   1.803  -0.683  0.7756 -0.1123  0.0882
  194MOL0     C26094   2.264   1.683  -0.666  0.7236 -0.0208 -0.3986
  194MOL0     C26095   2.204   1.573  -0.747  0.1617 -0.3813  0.2238
  194MOL0     C26096   2.283   1.449  -0.754 -0.2245  0.7258 -0.9134
  194MOL0     C26097   2.242   1.349  -0.864 -0.1120 -0.3491 -0.3475
  194MOL0     C26098   2.340   1.317  -0.980 -0.0087 -0.2015  0.0089
  194MOL0    Cl26099   2.440   1.179  -0.919 -0.0749  0.0960  0.2078
  194MOL0     C26100   2.210   2.252  -0.573 -0.3281  0.7186  0.5824
  194MOL0     C26101   2.208   2.383  -0.528 -0.2762 -0.7300  0.0350
  194MOL0     O26102   2.261   2.641  -0.383  0.1889 -0.3390 -0.4953
  194MOL0     C26103   2.160   2.900  -0.365 -0.1292 -0.1081 -0.6952
  194MOL0     C26104   2.092   3.019  -0.345  0.1927 -0.4730  0.0291
  194MOL0     N26105   1.541   3.657  -0.264  0.6985 -0.1706 -0.2792
  194MOL0     N26106   1.513   3.731  -0.158  0.2145 -0.4121  0.2256
  194MOL0     C26107   1.187   4.704   0.508  0.0377  0.0293 -0.3994
  194MOL0     C26108   1.087   4.719   0.608 -0.1378  0.0026  0.0515
  194MOL0     C26109   0.845   4.812   0.989  0.3867  0.5626 -0.2382
  194MOL0     C26110   0.853   4.712   1.087  0.1985 -0.9509  0.5754
  194MOL0     C26111   0.779   4.720   1.200 -0.4107  0.0781  0.1195
  194MOL0     C26112   0.687   4.821   1.215  0.1059 -0.1061 -0.6529
  194MOL0     O26113   0.604   4.841   1.327 -0.1963 -0.0080 -0.7797
  194MOL0     C26114   0.665   4.810   1.457 -0.5767  0.2972 -0.9644
  194MOL0     C26115   0.640   4.913   1.567 -0.1926  0.1449  0.2462
  194MOL0     C26116   0.557   5.031   1.524 -0.5144 -0.6483  0.0557
  194MOL0     C26117   0.419   5.008   1.560  0.1870 -1.3753 -0.7231
  194MOL0     C26118   0.392   5.036   1.705  0.8753  0.0929 -0.6038
  194MOL0     C26119   0.354   5.068   1.823 -0.4699  0.4572 -0.0086
  194MOL0     C26120   0.665   4.908   1.114 -0.8174 -0.3950  0.5642
  194MOL0     C26121   0.749   4.910   1.003  0.0221  0.5982 -0.6043
  194MOL0     C26122   0.726   5.019   0.900  0.8244 -0.2220 -0.1528
  194MOL0     H26123   1.221   4.571   0.872  0.9386  1.6953  0.4157
  194MOL0     H26124   1.401   4.530   0.714 -0.2731  0.9547  1.9698
  194MOL0     H26125   1.426   4.425   0.487 -0.5189  1.9690  1.4444
  194MOL0     H26126   1.335   4.464   0.331  1.3273 -0.6773 -1.5689
  194MOL0     H26127   1.624   4.484   0.403  0.7430 -3.2478 -0.3775
  194MOL0     H26128   1.563   4.590   0.282 -1.9138  2.3892  4.0192
  194MOL0     H26129   1.469   4.374   0.164 -0.4710  1.0143  1.2100
  194MOL0     H26130   1.543   4.267   0.294  0.4754 -0.6316 -1.5378
  194MOL0     H26131   1.719   4.449   0.144 -2.6033  0.6998  0.4456
  194MOL0     H26132   1.763   4.301   0.239 -1.0208  0.1153  1.0863
  194MOL0     H26133   1.613   4.254  -0.018 -1.3238 -2.3652  0.3727
  194MOL0     H26134   1.791   4.243   0.004 -0.9094  0.4509 -0.9935
  194MOL0     H26135   1.731   4.077   0.191  0.4804  2.2217  0.1157
  194MOL0     H26136   1.557   4.102   0.146 -0.3130 -3.5884 -0.3346
  194MOL0     H26137   1.781   3.978  -0.032 -0.2731 -3.1534 -1.4434
  194MOL0     H26138   1.633   4.037  -0.098  0.8053  0.3666 -0.1132
  194MOL0     H26139   1.712   3.813   0.095  4.7248  1.8867 -2.9435
  194MOL0     H26140   1.532   3.852   0.073 -2.7478  3.1993 -2.3821
  194MOL0     H26141   1.831   3.770  -0.156  0.3581 -0.8715  2.2161
  194MOL0     H26142   1.699   3.607  -0.482  0.2003 -2.4523 -1.1741
  194MOL0     H26143   1.849   3.624  -0.393  0.6560  0.0237  1.0437
  194MOL0     H26144   1.762   3.402  -0.277 -1.0762  0.0955  0.4990
  194MOL0     H26145   1.665   3.393  -0.429  2.4597 -2.7791 -1.1049
  194MOL0     H26146   1.975   3.403  -0.433  1.3943 -1.7338 -2.5295
  194MOL0     H26147   1.871   3.448  -0.560 -3.8779  0.1651 -0.6339
  194MOL0     H26148   1.911   3.218  -0.608  0.9256 -0.9953 -0.0492
  194MOL0     H26149   1.752   3.215  -0.533 -0.0212 -1.2993  1.8208
  194MOL0     H26150   1.878   3.010  -0.612 -1.5938 -0.5495  1.1240
  194MOL0     H26151   2.011   2.810  -0.657  0.7882 -4.0999  1.1591
  194MOL0     H26152   2.236   2.540  -0.821 -1.1363  0.6706  1.6983
  194MOL0     H26153   2.277   2.310  -0.903  1.3020  4.8837 -1.6670
  194MOL0     H26154   2.384   1.948  -0.754  2.9364 -0.8029  0.8727
  194MOL0     H26155   2.392   2.068  -0.622  0.3979  0.5049  0.3968
  194MOL0     H26156   2.308   1.879  -0.528 -0.8252  1.0362  0.1516
  194MOL0     H26157   2.155   1.968  -0.544  0.2255 -0.1298  0.3255
  194MOL0     H26158   2.086   1.774  -0.630  1.5412 -1.2448  0.8375
  194MOL0     H26159   2.167   1.830  -0.788  3.0055  3.0515  0.5373
  194MOL0     H26160   2.276   1.658  -0.560 -2.4255  0.8174  0.2589
  194MOL0     H26161   2.362   1.704  -0.708  0.7513  2.3688  0.7117
  194MOL0     H26162   2.184   1.609  -0.848 -1.3947 -0.8100  0.3620
  194MOL0     H26163   2.108   1.540  -0.706 -0.2928  2.7276  2.0118
  194MOL0     H26164   2.386   1.476  -0.776 -0.0806  1.3645  0.4857
  194MOL0     H26165   2.281   1.401  -0.655  5.8607  1.0518 -0.2776
  194MOL0     H26166   2.150   1.380  -0.913 -1.9085 -1.8133  1.8754
  194MOL0     H26167   2.218   1.256  -0.812  0.0740 -0.6423 -0.7777
  194MOL0     H26168   2.302   1.289  -1.078  3.8958  1.4356 -2.1838
  194MOL0     H26169   2.405   1.404  -0.991  1.2734 -1.0092  0.8622
  194MOL0     H26170   2.205   2.176  -0.495  1.9999 -2.6644 -2.2263
  194MOL0     H26171   2.196   2.405  -0.423  0.1701  0.1625 -0.0926
  194MOL0     H26172   2.221   2.874  -0.279 -1.0858  1.7196  0.5965
  194MOL0     H26173   2.119   3.064  -0.250  1.7424  1.1266 -1.0904
  194MOL0     H26174   1.177   4.740   0.406  1.5539  1.1711 -0.1661
  194MOL0     H26175   0.997   4.775   0.582 -0.8932 -1.9081 -1.7965
  194MOL0     H26176   0.919   4.628   1.074 -0.6356 -1.2397 -2.8011
  194MOL0     H26177   0.793   4.636   1.269 -0.7521  0.0085  0.1067
  194MOL0     H26178   0.773   4.802   1.449 -0.4727  2.1783 -1.9803
  194MOL0     H26179   0.645   4.709   1.494 -1.0854  1.0389  0.8952
  194MOL0     H26180   0.735   4.946   1.610 -0.6454  0.9108  0.6898
  194MOL0     H26181   0.595   4.856   1.649  1.9840 -1.0650  0.6878
  194MOL0     H26182   0.565   5.064   1.419 -1.0245  2.1361  0.8102
  194MOL0     H26183   0.599   5.121   1.569 -0.2868  0.0234 -1.4385
  194MOL0     H26184   0.345   5.057   1.497  1.5194  0.0717 -1.2224
  194MOL0     H26185   0.391   4.902   1.553 -2.1554 -1.2083  3.2388
  194MOL0     H26186   0.320   5.091   1.922  1.6559 -1.1984  1.1784
  194MOL0     H26187   0.591   4.985   1.135  0.9581  1.5781 -0.0442
  194MOL0     H26188   0.638   5.075   0.932  0.2002 -1.2246 -0.0618
  194MOL0     H26189   0.817   5.079   0.889 -0.1377  1.5737  1.1230
  194MOL0     H26190   0.697   4.967   0.809  1.4733 -3.5730  1.3969
  195MOL0     O26191   4.677   0.866   4.891 -0.8880 -0.4092 -0.2233
  195MOL0     C26192   4.677   0.951   4.802 -0.5152  0.5254  0.2398
  195MOL0     O26193   4.570   1.032   4.767 -0.0764 -0.7218 -0.0331
  195MOL0     C26194   4.447   1.004   4.831 -1.2980 -0.0745 -0.6122
  195MOL0     C26195   4.377   1.102   4.899  0.1123 -0.3928 -0.0114
  195MOL0     C26196   4.255   1.076   4.964 -0.4485  0.4101 -0.4640
  195MOL0     C26197   4.203   0.943   4.980  0.1374  0.0474 -0.6212
  195MOL0     O26198   4.091   0.916   5.062 -0.0652  0.0924 -0.3683
  195MOL0     C26199   4.062   1.005   5.160  0.6236 -0.7179 -0.6224
  195MOL0     C26200   3.942   0.953   5.261 -0.6623  1.2374  0.8034
  195MOL0     C26201   3.885   1.035   5.378  0.0226 -0.0309  0.8335
  195MOL0     C26202   3.876   0.961   5.516 -0.5712 -0.8772  0.0703
  195MOL0     C26203   3.841   1.063   5.623  0.5730  0.7222  0.3584
  195MOL0     C26204   3.695   1.116   5.619  0.5630  0.8705  0.3963
  195MOL0     C26205   3.664   1.193   5.743  0.1014 -0.1264 -0.5757
  195MOL0     C26206   3.759   1.315   5.768 -0.0210 -0.4785 -1.3607
  195MOL0     N26207   3.735   1.437   5.690 -0.1193  0.2979  0.7998
  195MOL0     C26208   3.817   1.543   5.684 -0.3571  0.0541  0.2757
  195MOL0     C26209   3.791   1.614   5.571  0.3815 -0.2099  0.1553
  195MOL0     C26210   3.861   1.742   5.514  1.2585  0.2742 -1.0859
  195MOL0     C26211   3.992   1.731   5.441  0.0218 -0.2032 -0.3373
  195MOL0     C26212   4.093   1.627   5.502  0.0842 -0.2671 -0.1726
  195MOL0     C26213   4.218   1.608   5.421 -0.5490  0.4925 -0.4422
  195MOL0     O26214   4.321   1.549   5.507  0.2074  0.1270  0.2892
  195MOL0     C26215   4.448   1.521   5.463 -0.3453 -0.8705  0.2356
  195MOL0     C26216   4.501   1.573   5.341  0.1979 -0.1891 -0.2760
  195MOL0     C26217   4.636   1.557   5.308  0.3507 -0.0454  0.2605
  195MOL0     C26218   4.723   1.486   5.398  0.2341  0.5559 -0.1529
  195MOL0     C26219   4.865   1.459   5.361 -0.2773  0.9183  1.0538
  195MOL0     O26220   4.952   1.420   5.457  0.9357  0.7150 -0.9262
  195MOL0     C26221   5.079   1.409   5.422 -0.6913  0.2421  0.6298
  195MOL0     C26222   5.173   1.478   5.486 -0.6313  0.2820 -0.2795
  195MOL0     C26223   5.304   1.478   5.438 -0.2745 -0.5188  0.7454
  195MOL0     C26224   5.344   1.402   5.326 -0.1864 -0.0865 -0.2099
  195MOL0     O26225   5.474   1.392   5.291 -0.2363 -0.6029 -0.4398
  195MOL0     C26226   5.515   1.279   5.208  0.4676  1.1961 -0.1166
  195MOL0     C26227   5.662   1.261   5.196 -0.3580 -0.0411  0.2169
  195MOL0     C26228   5.714   1.381   5.107 -0.4242  0.0329  0.8396
  195MOL0     C26229   5.859   1.357   5.051  0.1836 -0.1757 -0.0664
  195MOL0     C26230   5.960   1.332   5.160  0.0159  0.0610  0.6989
  195MOL0     C26231   6.100   1.328   5.091  0.2471 -0.2415  0.5106
  195MOL0     C26232   6.212   1.332   5.200 -0.3547 -0.2993 -0.9421
  195MOL0     C26233   6.227   1.196   5.250 -0.5865  0.6756 -0.1538
  195MOL0    Cl26234   6.230   1.074   5.126  0.9781 -0.4951  0.4932
  195MOL0     C26235   5.249   1.317   5.270  1.1978 -0.8997  0.1142
  195MOL0     C26236   5.118   1.322   5.319  0.5073  0.3750  0.7632
  195MOL0     O26237   4.897   1.480   5.245 -0.1903 -0.7847  0.0474
  195MOL0     C26238   4.674   1.435   5.520  0.4822  0.5478 -0.2330
  195MOL0     C26239   4.536   1.461   5.554  0.0769 -0.3853 -0.1256
  195MOL0     N26240   3.682   1.553   5.505 -0.4529  0.1091  0.6206
  195MOL0     N26241   3.658   1.447   5.580  0.0962 -0.7111 -0.1966
  195MOL0     C26242   4.262   0.847   4.903 -0.5776  0.7829  0.2766
  195MOL0     C26243   4.380   0.876   4.829  0.3380  0.9857 -0.5456
  195MOL0     C26244   4.801   0.993   4.733 -1.0128  0.8558  1.1330
  195MOL0     C26245   4.833   1.137   4.736  0.5005  1.3328  0.6395
  195MOL0     C26246   4.938   1.180   4.652 -0.7720 -0.2528  0.2286
  195MOL0     C26247   5.014   1.091   4.576  0.1796  0.6175  0.7696
  195MOL0     O26248   5.103   1.152   4.489 -0.8554  0.8072  0.5487
  195MOL0     C26249   5.237   1.181   4.549 -0.0233 -0.0394 -0.1602
  195MOL0     C26250   5.323   1.058   4.577 -0.2001 -0.1989  0.2694
  195MOL0     C26251   5.366   0.996   4.450  0.4552 -0.3453 -0.0135
  195MOL0     C26252   5.411   0.851   4.462 -0.1077  0.5262  0.2344
  195MOL0     C26253   5.483   0.830   4.340 -0.5820 -0.1409  0.0697
  195MOL0     C26254   5.537   0.805   4.228 -0.0696  0.3709  0.2048
  195MOL0     C26255   4.995   0.953   4.588  0.1837 -0.3652 -0.4635
  195MOL0     C26256   4.885   0.904   4.660  0.6808 -0.3281  1.2121
  195MOL0     C26257   4.872   0.756   4.668  0.3537 -1.0473  0.9252
  195MOL0     H26258   4.421   1.201   4.912  0.3123 -0.8306  4.1714
  195MOL0     H26259   4.207   1.160   5.013  3.1429  2.2404  0.2799
  195MOL0     H26260   4.152   1.030   5.217  1.1592  1.1112 -2.1497
  195MOL0     H26261   4.018   1.099   5.124 -1.1587  0.2823  3.5697
  195MOL0     H26262   3.995   0.861   5.286 -3.5114 -1.4251 -2.0098
  195MOL0     H26263   3.849   0.931   5.206 -0.4936  1.1999  0.5321
  195MOL0     H26264   3.789   1.074   5.345 -0.4365 -1.7763 -0.0018
  195MOL0     H26265   3.953   1.120   5.379  0.1898 -0.1551  0.4677
  195MOL0     H26266   3.813   0.872   5.518  0.6034 -1.7169  1.3310
  195MOL0     H26267   3.971   0.915   5.545 -2.2517 -3.4453  1.9630
  195MOL0     H26268   3.851   1.012   5.719 -4.3771  0.1634  0.8493
  195MOL0     H26269   3.911   1.148   5.620 -0.3843  1.6046 -3.3361
  195MOL0     H26270   3.679   1.188   5.538 -5.2990  0.6721  0.9525
  195MOL0     H26271   3.614   1.044   5.604 -1.0110  2.6084  0.1762
  195MOL0     H26272   3.679   1.124   5.827 -0.8296  3.8515  3.2656
  195MOL0     H26273   3.558   1.219   5.744 -0.1504 -0.8791 -2.5465
  195MOL0     H26274   3.754   1.348   5.873 -4.9003 -0.6814 -1.2779
  195MOL0     H26275   3.862   1.291   5.743 -0.4316 -1.8134 -1.8615
  195MOL0     H26276   3.893   1.564   5.758  0.3701  1.6270 -0.8596
  195MOL0     H26277   3.795   1.791   5.442 -1.0642 -1.6037 -0.3943
  195MOL0     H26278   3.886   1.811   5.595 -0.2712 -0.5512  0.1571
  195MOL0     H26279   3.977   1.703   5.336 -2.6541 -1.5096  0.3130
  195MOL0     H26280   4.040   1.829   5.443 -1.1420  0.3736  0.2269
  195MOL0     H26281   4.039   1.533   5.513  1.1868 -0.9606 -0.4773
  195MOL0     H26282   4.116   1.652   5.606 -0.3735  4.3616 -0.9573
  195MOL0     H26283   4.258   1.705   5.390 -0.9374  0.4071 -1.2568
  195MOL0     H26284   4.201   1.549   5.330 -0.8477 -0.0462 -0.0454
  195MOL0     H26285   4.436   1.635   5.281  2.4330  2.1913 -0.4029
  195MOL0     H26286   4.676   1.592   5.214  0.1832 -2.9233 -0.9810
  195MOL0     H26287   5.133   1.523   5.576 -3.9130 -0.7863 -1.0617
  195MOL0     H26288   5.384   1.538   5.480  0.1282 -0.4798 -0.0592
  195MOL0     H26289   5.484   1.186   5.257 -0.7414 -0.6343 -3.9642
  195MOL0     H26290   5.465   1.280   5.111  1.1995  1.1867 -0.4948
  195MOL0     H26291   5.713   1.265   5.292  0.9918  0.3165 -0.4915
  195MOL0     H26292   5.682   1.164   5.149  1.4594  0.4697 -0.1531
  195MOL0     H26293   5.636   1.395   5.030  0.4786 -2.0056 -0.5422
  195MOL0     H26294   5.716   1.474   5.165  0.4310 -1.0542  2.6193
  195MOL0     H26295   5.891   1.445   4.993 -1.7499  0.8247  0.3062
  195MOL0     H26296   5.855   1.272   4.982 -2.3795  0.8238 -1.2960
  195MOL0     H26297   5.943   1.235   5.207  2.4721 -0.1398  1.3269
  195MOL0     H26298   5.964   1.413   5.234  2.3564 -1.1130  1.9818
  195MOL0     H26299   6.096   1.256   5.009 -0.5981  1.1689 -0.7342
  195MOL0     H26300   6.111   1.418   5.030 -1.3063  0.1273  0.7436
  195MOL0     H26301   6.187   1.402   5.279  0.3456 -0.3366 -0.6839
  195MOL0     H26302   6.296   1.377   5.145 -0.1988  2.9347  1.6841
  195MOL0     H26303   6.317   1.184   5.312  0.6020  2.3344 -1.4934
  195MOL0     H26304   6.131   1.175   5.299 -0.2002  0.0166  0.3382
  195MOL0     H26305   5.267   1.242   5.193  1.5345 -1.3824  0.6566
  195MOL0     H26306   5.038   1.260   5.281  0.3998  1.5784 -1.1053
  195MOL0     H26307   4.732   1.374   5.588 -0.8089  0.7619  1.1054
  195MOL0     H26308   4.487   1.411   5.637  0.1609  0.6862  0.5839
  195MOL0     H26309   4.240   0.741   4.914  2.2960  0.2297  1.3393
  195MOL0     H26310   4.424   0.797   4.769 -0.0312 -0.3496  0.8711
  195MOL0     H26311   4.757   1.201   4.779 -1.8504 -0.8294 -0.0233
  195MOL0     H26312   4.954   1.286   4.637  1.4120 -0.9319 -3.2710
  195MOL0     H26313   5.208   1.203   4.652 -0.7508  2.1229 -0.7655
  195MOL0     H26314   5.296   1.264   4.511  1.3518 -1.8500 -2.2351
  195MOL0     H26315   5.254   0.994   4.633 -0.2582  0.6440  1.1915
  195MOL0     H26316   5.408   1.084   4.642 -0.7575  1.8256  0.2484
  195MOL0     H26317   5.455   1.054   4.423  3.0852 -2.6261  3.0388
  195MOL0     H26318   5.286   1.002   4.375  1.5480  0.1837 -1.1649
  195MOL0     H26319   5.471   0.843   4.553  2.2470  1.1205 -1.1611
  195MOL0     H26320   5.324   0.785   4.465  1.8424 -2.4739 -2.3736
  195MOL0     H26321   5.578   0.786   4.131  2.9289 -2.9571  1.8503
  195MOL0     H26322   5.061   0.885   4.535  0.1281 -2.4918  1.9661
  195MOL0     H26323   4.776   0.723   4.710 -0.2972 -1.4155 -0.7719
  195MOL0     H26324   4.872   0.716   4.567  1.7510 -2.1469  1.3325
  195MOL0     H26325   4.953   0.704   4.720  1.1923 -2.4908 -1.6616
  196MOL0     O26326   5.815   7.850   6.974  0.3961  0.1629  0.2882
  196MOL0     C26327   5.734   7.754   6.974  0.3481  0.1053 -0.4834
  196MOL0     O26328   5.661   7.709   7.076 -1.0331 -0.1305 -0.1859
  196MOL0     C26329   5.621   7.794   7.184  0.7922 -0.2248  0.3857
  196MOL0     C26330   5.583   7.737   7.304  0.2808 -0.7196 -0.5843
  196MOL0     C26331   5.579   7.817   7.426 -0.2809  0.9995  0.8708
  196MOL0     C26332   5.572   7.952   7.421 -0.5330 -1.0040  0.1018
  196MOL0     O26333   5.541   8.027   7.533  0.7338  0.5242 -0.5652
  196MOL0     C26334   5.585   8.160   7.543 -0.2840  0.0085 -0.1988
  196MOL0     C26335   5.594   8.195   7.686  0.7063 -0.6061  1.2774
  196MOL0     C26336   5.719   8.137   7.753  1.4169  0.3346  0.4349
  196MOL0     C26337   5.818   8.246   7.805 -0.2519 -0.2047  0.1088
  196MOL0     C26338   5.875   8.213   7.941  0.4130  0.3738  0.0551
  196MOL0     C26339   5.990   8.302   7.982  0.1198  0.5758  0.0263
  196MOL0     C26340   6.039   8.304   8.132  0.1444 -0.0468 -0.1773
  196MOL0     C26341   6.100   8.444   8.162  0.2654 -0.6875 -0.7829
  196MOL0     N26342   6.004   8.562   8.179 -0.1590 -0.3217  0.7603
  196MOL0     C26343   5.972   8.630   8.061  0.4137 -0.7853  0.2703
  196MOL0     C26344   5.857   8.694   8.092 -0.3086 -0.3723 -0.7655
  196MOL0     C26345   5.773   8.788   8.008  1.0283  0.2872 -0.3280
  196MOL0     C26346   5.841   8.919   7.965 -1.0319  0.2426 -0.5083
  196MOL0     C26347   5.761   8.985   7.841 -0.3726  0.6459 -0.1668
  196MOL0     C26348   5.832   8.968   7.712 -0.5678 -0.1201  0.1457
  196MOL0     O26349   5.820   8.837   7.652 -0.2946  0.4942  0.4707
  196MOL0     C26350   5.699   8.799   7.592 -1.3119  0.2973 -0.5044
  196MOL0     C26351   5.691   8.659   7.567 -0.0440 -0.3486  0.2093
  196MOL0     C26352   5.572   8.612   7.512  0.2209 -0.2957  0.8325
  196MOL0     C26353   5.462   8.688   7.478  0.7004  0.0395  0.1448
  196MOL0     C26354   5.348   8.628   7.407 -0.6368 -0.2823  0.2614
  196MOL0     O26355   5.248   8.706   7.365 -0.1380  1.0101 -0.4135
  196MOL0     C26356   5.158   8.644   7.281  0.1479 -0.8933  0.1089
  196MOL0     C26357   5.028   8.630   7.328  1.0946  0.3357 -0.7831
  196MOL0     C26358   4.931   8.570   7.245  0.0983  1.2229 -0.1773
  196MOL0     C26359   4.974   8.529   7.114  1.1380 -0.1458  0.5049
  196MOL0     O26360   4.882   8.497   7.022  0.2489  0.0535  0.7832
  196MOL0     C26361   4.885   8.354   6.980 -0.2116 -0.2222 -0.3201
  196MOL0     C26362   4.745   8.295   7.003  0.1093  0.1140 -0.7008
  196MOL0     C26363   4.739   8.163   7.090 -0.4645  0.3089 -0.3882
  196MOL0     C26364   4.770   8.033   7.006 -1.2213 -0.4132 -1.0394
  196MOL0     C26365   4.828   7.916   7.082 -0.1251  0.2646 -0.6941
  196MOL0     C26366   4.761   7.783   7.050  0.3630  0.4993  0.5025
  196MOL0     C26367   4.821   7.665   7.136 -0.0316 -0.1559 -0.3959
  196MOL0     C26368   4.752   7.649   7.280  0.0201  0.9838  0.2929
  196MOL0    Cl26369   4.825   7.491   7.340 -0.1122  0.2162 -0.0920
  196MOL0     C26370   5.105   8.535   7.069 -0.9956  0.3608 -0.3721
  196MOL0     C26371   5.202   8.596   7.151  0.3843 -0.4209 -1.4157
  196MOL0     O26372   5.354   8.506   7.388  0.6306  0.8415 -0.6327
  196MOL0     C26373   5.475   8.825   7.498 -1.1211  0.1806 -0.7787
  196MOL0     C26374   5.592   8.884   7.556  0.8740  0.1742  0.4325
  196MOL0     N26375   5.836   8.678   8.231  0.6070 -0.3463 -0.4295
  196MOL0     N26376   5.927   8.591   8.283 -0.5294  0.1512  0.0066
  196MOL0     C26377   5.601   8.009   7.292  0.1241 -0.7781 -0.0446
  196MOL0     C26378   5.625   7.936   7.177 -0.6521  1.2977 -0.4224
  196MOL0     C26379   5.711   7.687   6.844 -0.0987 -0.0716 -0.2006
  196MOL0     C26380   5.577   7.676   6.807 -0.0991 -0.2495 -0.6879
  196MOL0     C26381   5.545   7.615   6.692  0.2169  1.0775 -0.4448
  196MOL0     C26382   5.632   7.539   6.620 -0.6831 -0.1684  0.0738
  196MOL0     O26383   5.589   7.468   6.520  0.5393  0.9773  0.3170
  196MOL0     C26384   5.692   7.393   6.447  0.0921  0.8449  1.0849
  196MOL0     C26385   5.633   7.283   6.354 -0.2290  0.0863  0.3261
  196MOL0     C26386   5.748   7.213   6.280 -0.8515 -0.3577  0.5411
  196MOL0     C26387   5.847   7.129   6.370 -0.8186 -0.7872 -0.0769
  196MOL0     C26388   5.785   7.010   6.436 -0.9957  0.0531  0.9342
  196MOL0     C26389   5.732   6.919   6.493  0.0995 -0.7034 -0.2220
  196MOL0     C26390   5.763   7.553   6.655 -0.6252 -0.5087 -0.3266
  196MOL0     C26391   5.809   7.627   6.764  0.0305  0.8418  0.4336
  196MOL0     C26392   5.956   7.643   6.795 -0.3347  0.3559  0.4722
  196MOL0     H26393   5.578   7.628   7.312 -3.8556 -0.6348 -0.2284
  196MOL0     H26394   5.558   7.756   7.513  0.8076  0.1105  0.5457
  196MOL0     H26395   5.684   8.176   7.500 -0.4089 -0.4165 -0.6528
  196MOL0     H26396   5.506   8.226   7.506 -2.0616 -1.6780  0.4247
  196MOL0     H26397   5.504   8.153   7.732 -1.2157 -0.4845 -2.0120
  196MOL0     H26398   5.596   8.304   7.697  0.3341 -0.3176 -1.0220
  196MOL0     H26399   5.771   8.069   7.685 -0.1009  2.6675 -3.3954
  196MOL0     H26400   5.686   8.066   7.829 -1.4153 -1.7479 -2.4300
  196MOL0     H26401   5.898   8.274   7.736  0.6262 -1.0927  0.7233
  196MOL0     H26402   5.769   8.343   7.818  0.9176  0.2786  1.1712
  196MOL0     H26403   5.794   8.213   8.014 -3.3925 -1.1283 -3.7142
  196MOL0     H26404   5.909   8.109   7.945 -1.3553 -0.2216  1.0515
  196MOL0     H26405   6.073   8.271   7.918 -2.9061 -4.3556 -2.1195
  196MOL0     H26406   5.956   8.402   7.953  0.3635  0.5246 -0.4349
  196MOL0     H26407   6.117   8.228   8.144  0.9919  0.7898 -0.3497
  196MOL0     H26408   5.952   8.301   8.199  1.9429 -0.1384  2.2915
  196MOL0     H26409   6.149   8.445   8.260  1.4783  1.1499 -1.3459
  196MOL0     H26410   6.169   8.474   8.084 -0.2373  1.5698 -0.4273
  196MOL0     H26411   6.012   8.626   7.960 -2.7654 -1.7068 -1.1073
  196MOL0     H26412   5.755   8.737   7.913  1.6472  1.3515 -1.0252
  196MOL0     H26413   5.680   8.816   8.060  0.7169 -2.3048  0.6772
  196MOL0     H26414   5.848   8.983   8.053 -1.3106 -0.8362  0.3173
  196MOL0     H26415   5.941   8.885   7.936 -1.6335  0.2523 -2.8224
  196MOL0     H26416   5.764   9.090   7.869 -0.4176  1.5196 -3.0975
  196MOL0     H26417   5.659   8.950   7.823  0.7571 -2.8397 -0.5259
  196MOL0     H26418   5.940   8.966   7.733 -0.7248 -0.3171  0.9839
  196MOL0     H26419   5.790   9.040   7.642  0.3969 -0.2268 -0.5663
  196MOL0     H26420   5.780   8.599   7.586  0.1940  0.3045  1.2111
  196MOL0     H26421   5.566   8.507   7.485 -2.2846  0.2917 -1.3260
  196MOL0     H26422   5.010   8.661   7.430  1.8602 -1.8095  0.0606
  196MOL0     H26423   4.827   8.568   7.275  0.8423  0.1008  2.7244
  196MOL0     H26424   4.917   8.350   6.875  0.6268  1.0404 -0.1401
  196MOL0     H26425   4.959   8.295   7.034  0.1904  0.4514 -0.1326
  196MOL0     H26426   4.678   8.372   7.042  0.8067  0.9850 -1.1996
  196MOL0     H26427   4.703   8.273   6.905  2.6892 -0.7429 -1.7050
  196MOL0     H26428   4.814   8.181   7.168 -1.8615  2.2995  0.5809
  196MOL0     H26429   4.646   8.146   7.144  0.3002 -0.5284  0.7272
  196MOL0     H26430   4.842   8.059   6.927  0.1239 -2.1265 -0.4375
  196MOL0     H26431   4.679   8.013   6.949 -2.3131  0.3107  0.4023
  196MOL0     H26432   4.809   7.935   7.188  0.7910  1.4098 -0.7146
  196MOL0     H26433   4.936   7.909   7.064 -0.1738 -1.0442 -0.5737
  196MOL0     H26434   4.652   7.783   7.058  0.3425 -0.7844  0.4580
  196MOL0     H26435   4.795   7.770   6.946 -0.8310 -0.4811  0.2098
  196MOL0     H26436   4.929   7.680   7.136 -0.1306  0.6988 -1.7024
  196MOL0     H26437   4.794   7.566   7.098 -1.6280 -0.4576  1.3784
  196MOL0     H26438   4.776   7.730   7.349 -0.4337  0.2812  1.3033
  196MOL0     H26439   4.646   7.633   7.255  0.8187  1.5223 -4.3003
  196MOL0     H26440   5.135   8.511   6.968 -1.7908 -1.6953 -0.1756
  196MOL0     H26441   5.304   8.620   7.126  1.3643 -2.5535  0.2495
  196MOL0     H26442   5.382   8.880   7.496 -0.0697  2.0638 -2.8244
  196MOL0     H26443   5.591   8.990   7.581  1.0270 -0.4863  3.6796
  196MOL0     H26444   5.599   8.117   7.278  0.5274 -0.6836  0.6216
  196MOL0     H26445   5.664   7.988   7.090 -1.2380  0.5949 -1.1125
  196MOL0     H26446   5.507   7.729   6.870  1.0814  0.8019 -0.2235
  196MOL0     H26447   5.440   7.606   6.668  0.5265  1.3289 -1.9776
  196MOL0     H26448   5.761   7.341   6.514 -0.8577 -0.8907  0.8020
  196MOL0     H26449   5.756   7.469   6.401 -0.1835  1.7910  2.2401
  196MOL0     H26450   5.572   7.336   6.280 -0.5879  0.4264  0.8557
  196MOL0     H26451   5.573   7.213   6.413 -0.5651  0.0850 -0.0140
  196MOL0     H26452   5.806   7.285   6.221 -3.4941  1.1414 -0.4153
  196MOL0     H26453   5.702   7.152   6.202  0.1248  0.2667 -0.5613
  196MOL0     H26454   5.923   7.097   6.298 -1.7858  0.8924 -1.9147
  196MOL0     H26455   5.900   7.193   6.441  1.3041 -0.6832 -1.6426
  196MOL0     H26456   5.701   6.832   6.548 -1.6437 -0.6193 -0.9856
  196MOL0     H26457   5.846   7.511   6.599 -0.2485 -1.0189  0.5775
  196MOL0     H26458   6.007   7.546   6.800  1.2593  1.2403  2.7070
  196MOL0     H26459   6.014   7.698   6.720  2.0499 -1.6737  0.7038
  196MOL0     H26460   5.970   7.697   6.889 -1.6038 -2.0759  2.1755
  197MOL0     O26461  10.309   6.275   2.646  0.0556  0.2810  0.3677
  197MOL0     C26462  10.414   6.223   2.688 -0.2958 -0.1576 -0.2605
  197MOL0     O26463  10.450   6.093   2.671 -0.3402  0.5912  0.4657
  197MOL0     C26464  10.397   6.015   2.564 -0.2072  0.1214  0.7576
  197MOL0     C26465  10.286   6.051   2.479 -0.2962  0.9371 -0.4610
  197MOL0     C26466  10.259   5.967   2.369  0.1445 -0.3619 -0.1442
  197MOL0     C26467  10.319   5.850   2.349  0.9266  0.3409 -0.0751
  197MOL0     O26468  10.296   5.764   2.243  0.2421 -0.2315  0.1616
  197MOL0     C26469  10.164   5.733   2.195  0.3932 -1.5128 -0.4421
  197MOL0     C26470  10.148   5.603   2.124  0.5440  0.6503  0.4343
  197MOL0     C26471  10.131   5.490   2.223  0.2688 -0.2027  0.8357
  197MOL0     C26472  10.094   5.360   2.151 -0.3411  0.0677  1.5629
  197MOL0     C26473  10.050   5.240   2.233  0.3798 -0.3905  0.0806
  197MOL0     C26474  10.168   5.166   2.306 -0.1380  0.3987 -0.2534
  197MOL0     C26475  10.220   5.240   2.435 -0.2832  0.3996 -0.2012
  197MOL0     C26476  10.267   5.146   2.548 -1.2518 -1.1753 -0.6155
  197MOL0     N26477  10.149   5.113   2.633  0.4200  0.5720  0.5234
  197MOL0     C26478  10.156   5.106   2.769 -0.4903  0.2035 -0.6220
  197MOL0     C26479  10.028   5.094   2.809 -0.1801 -0.2385 -0.7822
  197MOL0     C26480   9.979   5.103   2.951  0.0562 -0.1524  0.6114
  197MOL0     C26481   9.871   5.213   2.947 -0.7206 -0.0612 -1.0827
  197MOL0     C26482   9.801   5.213   3.093  0.2898  0.1294  0.8540
  197MOL0     C26483   9.727   5.343   3.123  0.3893 -0.8058  0.3120
  197MOL0     O26484   9.808   5.466   3.114  0.6249  0.0320 -0.1881
  197MOL0     C26485   9.934   5.469   3.174  0.6046 -0.0402  0.6593
  197MOL0     C26486  10.026   5.546   3.102  0.1970 -0.7754 -0.1300
  197MOL0     C26487  10.153   5.559   3.149 -0.3810 -0.4123  0.3171
  197MOL0     C26488  10.194   5.504   3.268  0.6531 -0.2096 -0.9887
  197MOL0     C26489  10.337   5.527   3.314  0.1499  0.2087  0.0378
  197MOL0     O26490  10.404   5.615   3.237 -0.2712  0.0483  0.2621
  197MOL0     C26491  10.532   5.663   3.287  0.4737  0.0628 -0.2776
  197MOL0     C26492  10.655   5.605   3.258  0.0124 -0.1964 -0.0607
  197MOL0     C26493  10.773   5.666   3.311  0.2381  0.2857 -0.7540
  197MOL0     C26494  10.771   5.785   3.384  0.5828 -0.6028  0.2259
  197MOL0     O26495  10.894   5.841   3.423 -0.3586 -0.4490  0.0327
  197MOL0     C26496  10.892   5.963   3.496 -0.6253 -0.0752 -0.2118
  197MOL0     C26497  11.034   6.018   3.492 -0.1416 -0.0197 -0.1013
  197MOL0     C26498  11.049   6.148   3.572 -0.3698 -0.6093  0.1474
  197MOL0     C26499  11.194   6.186   3.581  0.0290  0.4485  0.7383
  197MOL0     C26500  11.230   6.308   3.660 -0.0771  0.3807 -0.3937
  197MOL0     C26501  11.243   6.284   3.812 -0.0783 -0.1585  0.2235
  197MOL0     C26502  11.298   6.412   3.876  0.4291 -0.7850 -0.0146
  197MOL0     C26503  11.374   6.364   3.995 -0.4286 -0.0870  0.1243
  197MOL0    Cl26504  11.387   6.505   4.113 -0.3748  0.3711  0.2679
  197MOL0     C26505  10.647   5.834   3.415 -0.9696  0.2963 -0.1962
  197MOL0     C26506  10.531   5.770   3.374  0.0054 -0.8985  0.1238
  197MOL0     O26507  10.372   5.485   3.419  0.6646 -0.4002 -0.2900
  197MOL0     C26508  10.091   5.442   3.350 -1.1844 -0.2392  0.5192
  197MOL0     C26509   9.966   5.420   3.295  0.8733  1.0043 -0.6287
  197MOL0     N26510   9.947   5.072   2.699  0.2520  0.1893 -0.2411
  197MOL0     N26511  10.023   5.073   2.597 -0.8338 -0.4862  0.7344
  197MOL0     C26512  10.425   5.818   2.435  0.1914  0.1765  0.4137
  197MOL0     C26513  10.461   5.897   2.542 -0.9547  0.0253  0.0325
  197MOL0     C26514  10.485   6.302   2.786 -0.5976  0.2130  0.5008
  197MOL0     C26515  10.416   6.405   2.845  0.1568  0.0858  0.5984
  197MOL0     C26516  10.459   6.461   2.960 -0.0760  0.7221 -0.6455
  197MOL0     C26517  10.591   6.440   3.011  0.4471 -0.0626  0.3613
  197MOL0     O26518  10.600   6.494   3.142  0.2380  0.5146 -0.4007
  197MOL0     C26519  10.707   6.447   3.221 -1.0385 -0.0635 -0.0031
  197MOL0     C26520  10.736   6.549   3.333  1.2629  0.2003 -0.2092
  197MOL0     C26521  10.855   6.514   3.423  0.3006  0.3790  0.1392
  197MOL0     C26522  11.001   6.530   3.364 -0.2406  0.0622  0.9369
  197MOL0     C26523  11.040   6.418   3.284 -0.7951  0.3849  0.4419
  197MOL0     C26524  11.094   6.320   3.223 -0.1010  0.5811 -0.5296
  197MOL0     C26525  10.679   6.355   2.934 -0.3675  0.1122 -0.2171
  197MOL0     C26526  10.626   6.286   2.826  0.5916  0.3658 -0.2132
  197MOL0     C26527  10.729   6.225   2.732 -0.1979  0.2519 -0.5703
  197MOL0     H26528  10.223   6.140   2.480 -0.5614  0.7490 -0.4818
  197MOL0     H26529  10.179   5.992   2.300  1.0610 -0.4087 -1.2513
  197MOL0     H26530  10.093   5.748   2.277 -0.2037 -0.4564 -1.1283
  197MOL0     H26531  10.149   5.819   2.130  3.9499  0.4188  1.0276
  197MOL0     H26532  10.228   5.571   2.057  0.0498 -3.2871  1.4935
  197MOL0     H26533  10.057   5.613   2.065 -0.8307  1.4859  2.5651
  197MOL0     H26534  10.047   5.519   2.286  1.1110  3.4836  0.4675
  197MOL0     H26535  10.225   5.485   2.280  2.5166  1.3974 -2.3821
  197MOL0     H26536  10.009   5.381   2.086  0.5344  0.2698  0.4353
  197MOL0     H26537  10.182   5.338   2.088  0.8764  0.5086  3.0419
  197MOL0     H26538   9.978   5.253   2.315  1.1760  1.2053  0.5630
  197MOL0     H26539  10.008   5.171   2.159  1.8498 -0.6290 -0.5711
  197MOL0     H26540  10.129   5.069   2.338 -0.6701  0.3420 -1.0713
  197MOL0     H26541  10.242   5.141   2.229  0.8982  1.3008  0.4158
  197MOL0     H26542  10.141   5.300   2.481 -2.4014 -1.2937 -1.3901
  197MOL0     H26543  10.307   5.300   2.407  0.6093 -1.2723 -1.1937
  197MOL0     H26544  10.320   5.058   2.508  2.5647  0.9620 -0.7378
  197MOL0     H26545  10.330   5.202   2.618  0.0501 -0.5107 -2.2400
  197MOL0     H26546  10.247   5.095   2.827 -0.4093 -2.7885 -1.1717
  197MOL0     H26547   9.934   5.006   2.975  1.9108 -1.6118 -1.4078
  197MOL0     H26548  10.063   5.128   3.016  2.9044  2.0910 -3.5346
  197MOL0     H26549   9.909   5.314   2.930 -2.0671  0.8181  0.7261
  197MOL0     H26550   9.803   5.181   2.867 -0.2226  2.3476 -2.5776
  197MOL0     H26551   9.889   5.206   3.157  0.9837  1.1520  0.0481
  197MOL0     H26552   9.742   5.121   3.094  1.0704 -0.6617 -3.4480
  197MOL0     H26553   9.690   5.336   3.225 -0.9597 -1.3764 -0.1997
  197MOL0     H26554   9.635   5.343   3.064 -0.0800 -2.8193  0.9732
  197MOL0     H26555   9.997   5.588   3.006  0.6846  2.2783  0.9511
  197MOL0     H26556  10.219   5.615   3.084  1.1239 -1.4786  0.8708
  197MOL0     H26557  10.646   5.514   3.200  0.2119  0.3609 -0.9871
  197MOL0     H26558  10.865   5.622   3.274  1.4899  1.2205  1.0968
  197MOL0     H26559  10.830   6.026   3.432 -2.6275 -0.6126  1.1002
  197MOL0     H26560  10.850   5.941   3.595  1.9452 -2.7999  0.3960
  197MOL0     H26561  11.092   5.940   3.541  1.2822 -0.2199 -1.9748
  197MOL0     H26562  11.079   6.024   3.392  1.7642  1.8279  0.8023
  197MOL0     H26563  10.987   6.227   3.529 -0.1809  0.3002  1.4915
  197MOL0     H26564  10.998   6.133   3.668 -1.1121  0.5976 -0.0425
  197MOL0     H26565  11.231   6.200   3.480 -1.2873 -1.9999 -0.1583
  197MOL0     H26566  11.251   6.106   3.628  0.6761 -0.8220 -2.0479
  197MOL0     H26567  11.151   6.382   3.644  1.0936  2.0337  1.0235
  197MOL0     H26568  11.330   6.337   3.624  0.3642 -0.2222  0.3241
  197MOL0     H26569  11.146   6.260   3.856 -0.6847 -0.0501 -0.9987
  197MOL0     H26570  11.312   6.201   3.830 -0.8780 -0.0808  5.0740
  197MOL0     H26571  11.221   6.481   3.911  2.0261  1.2366 -0.2293
  197MOL0     H26572  11.351   6.469   3.799 -0.6012 -1.9429 -1.6277
  197MOL0     H26573  11.315   6.287   4.045 -1.8835  0.6770 -0.3720
  197MOL0     H26574  11.472   6.329   3.963 -0.4719  1.1404 -1.4757
  197MOL0     H26575  10.623   5.920   3.477  0.1980 -0.8400  1.9812
  197MOL0     H26576  10.434   5.817   3.390  0.4596  0.0610  0.1095
  197MOL0     H26577  10.132   5.406   3.443  0.1927 -0.9034 -0.3073
  197MOL0     H26578   9.888   5.375   3.355  1.3669  1.4564  0.3618
  197MOL0     H26579  10.482   5.726   2.422 -0.5472 -0.6772  2.7122
  197MOL0     H26580  10.541   5.860   2.606  1.6661  0.9208 -2.5139
  197MOL0     H26581  10.326   6.448   2.801  0.7451  1.0032  0.2618
  197MOL0     H26582  10.380   6.516   3.009 -0.2209 -1.3809  1.7163
  197MOL0     H26583  10.799   6.434   3.164  0.9127  1.5140  2.5344
  197MOL0     H26584  10.675   6.353   3.266  0.4487 -1.1001 -1.0014
  197MOL0     H26585  10.645   6.555   3.394 -0.3660  4.0802 -2.6485
  197MOL0     H26586  10.751   6.648   3.289  1.4923 -0.6236 -2.0327
  197MOL0     H26587  10.842   6.407   3.444  0.1651  0.2982 -0.3409
  197MOL0     H26588  10.852   6.571   3.516  0.5273  3.0442 -1.3727
  197MOL0     H26589  11.000   6.617   3.298  2.4004 -0.4248  0.1433
  197MOL0     H26590  11.073   6.545   3.444 -0.1686 -1.4762  1.2026
  197MOL0     H26591  11.143   6.237   3.176 -0.5516 -0.8072  1.3298
  197MOL0     H26592  10.785   6.335   2.943 -0.0346  1.4504 -0.9074
  197MOL0     H26593  10.819   6.284   2.718 -1.6576  2.9067  0.5220
  197MOL0     H26594  10.744   6.120   2.757 -1.0450  0.7057  2.1688
  197MOL0     H26595  10.697   6.229   2.627 -2.4003  1.3553  0.0709
  198MOL0     O26596   3.645   4.714   5.090  0.0767  0.1427  0.7602
  198MOL0     C26597   3.732   4.759   5.012 -0.5768 -0.3477  0.5532
  198MOL0     O26598   3.871   4.740   5.026  0.1699 -0.5201 -0.2270
  198MOL0     C26599   3.903   4.645   5.110 -0.5722 -0.2246  0.8399
  198MOL0     C26600   3.888   4.517   5.071 -0.9465  0.5811  0.0338
  198MOL0     C26601   3.915   4.412   5.163  0.5575  0.3170  0.4136
  198MOL0     C26602   3.943   4.445   5.296  0.4708 -0.8227  0.1591
  198MOL0     O26603   3.933   4.351   5.404  0.0538 -0.3240 -0.8864
  198MOL0     C26604   3.902   4.220   5.363 -0.9132  0.1477 -0.4779
  198MOL0     C26605   3.895   4.139   5.490  0.4752 -0.7349  0.5551
  198MOL0     C26606   3.769   4.167   5.579  1.1033  0.6374 -0.6466
  198MOL0     C26607   3.640   4.114   5.521 -0.2989 -0.3020 -1.9118
  198MOL0     C26608   3.521   4.149   5.620 -0.0278 -0.7450  0.3643
  198MOL0     C26609   3.396   4.099   5.556  0.2328  0.2719 -0.2518
  198MOL0     C26610   3.267   4.181   5.588 -0.5230  0.1502  0.0633
  198MOL0     C26611   3.230   4.178   5.734 -0.1840  0.5413 -0.5095
  198MOL0     N26612   3.297   4.264   5.830 -0.6277  0.7313  0.3255
  198MOL0     C26613   3.309   4.406   5.834  0.9215  0.3555  0.3089
  198MOL0     C26614   3.368   4.432   5.957  0.2067  1.0018  0.3918
  198MOL0     C26615   3.429   4.569   5.998  0.1218 -0.0582 -0.4215
  198MOL0     C26616   3.539   4.599   5.897  0.0594 -0.5907  0.1945
  198MOL0     C26617   3.608   4.744   5.905  0.4242  0.4802 -0.2895
  198MOL0     C26618   3.508   4.858   5.916  1.1977 -0.0462 -0.9780
  198MOL0     O26619   3.571   4.985   5.875  0.2682  0.5455  0.7410
  198MOL0     C26620   3.655   5.054   5.957  1.1802 -0.8896 -0.6030
  198MOL0     C26621   3.672   5.024   6.098  0.0110  0.6300 -0.2229
  198MOL0     C26622   3.763   5.090   6.180 -0.9576  0.1315  0.3947
  198MOL0     C26623   3.843   5.190   6.125  0.2385 -0.3979 -0.0233
  198MOL0     C26624   3.939   5.264   6.217 -0.0581 -0.3658 -0.3755
  198MOL0     O26625   4.013   5.363   6.151  0.3994  0.1321  0.1214
  198MOL0     C26626   4.094   5.446   6.218 -0.1888 -0.1359 -0.2572
  198MOL0     C26627   4.197   5.512   6.143 -0.1051 -0.4122 -0.0114
  198MOL0     C26628   4.273   5.609   6.203 -0.0123  0.4892 -0.2504
  198MOL0     C26629   4.260   5.646   6.339 -0.1668  0.8107 -0.0964
  198MOL0     O26630   4.355   5.735   6.394  0.1420 -0.4488 -0.3163
  198MOL0     C26631   4.443   5.709   6.506 -1.1003  0.5703  1.3963
  198MOL0     C26632   4.579   5.647   6.460  0.4695  0.3971  0.3088
  198MOL0     C26633   4.565   5.502   6.394  1.0205 -0.0833  0.4209
  198MOL0     C26634   4.495   5.399   6.492 -0.7285  0.1401  0.3685
  198MOL0     C26635   4.435   5.271   6.427  0.4670  0.0350  0.5247
  198MOL0     C26636   4.352   5.170   6.512 -0.3296  0.8057  0.3718
  198MOL0     C26637   4.442   5.078   6.602 -0.4665 -0.7385 -0.3883
  198MOL0     C26638   4.484   5.154   6.733 -1.1350  0.9684  0.4571
  198MOL0    Cl26639   4.603   5.054   6.825 -0.3579 -0.3069 -0.4243
  198MOL0     C26640   4.161   5.585   6.415 -0.4937  0.2016 -0.2484
  198MOL0     C26641   4.087   5.479   6.358 -0.2923 -0.5929 -0.6861
  198MOL0     O26642   3.963   5.221   6.329 -0.2562  0.8079 -0.4504
  198MOL0     C26643   3.832   5.219   5.986  1.0748 -0.1862 -0.2507
  198MOL0     C26644   3.735   5.155   5.902 -0.8443  0.4853 -0.3549
  198MOL0     N26645   3.385   4.306   6.022 -0.0505  0.0383 -0.4604
  198MOL0     N26646   3.340   4.212   5.945  0.0846  0.5471 -0.1219
  198MOL0     C26647   3.958   4.581   5.332  0.2321 -0.2526  0.9222
  198MOL0     C26648   3.945   4.677   5.233 -0.1350 -0.8112  0.0732
  198MOL0     C26649   3.690   4.859   4.912 -0.4756  0.2192 -0.9764
  198MOL0     C26650   3.632   4.981   4.968  0.0133  0.5857 -0.1995
  198MOL0     C26651   3.581   5.080   4.880 -0.1329  0.0840  0.5114
  198MOL0     C26652   3.601   5.068   4.745  0.1812 -0.2807  0.0626
  198MOL0     O26653   3.546   5.166   4.666  0.6287  0.3367  0.5752
  198MOL0     C26654   3.630   5.265   4.610  1.3934  0.9896 -0.0394
  198MOL0     C26655   3.649   5.376   4.712  0.0561  0.7935 -0.2051
  198MOL0     C26656   3.509   5.431   4.763 -0.6327 -0.0957  0.8310
  198MOL0     C26657   3.529   5.546   4.857  0.0167 -0.0368 -0.6557
  198MOL0     C26658   3.597   5.506   4.978 -0.0086 -0.0287  0.0666
  198MOL0     C26659   3.647   5.489   5.090  0.0211 -0.1628  0.8930
  198MOL0     C26660   3.656   4.951   4.689 -0.3199  0.2148 -1.2845
  198MOL0     C26661   3.709   4.849   4.764  0.3313 -0.0663  0.5791
  198MOL0     C26662   3.784   4.740   4.700 -0.1330 -0.0329  0.0905
  198MOL0     H26663   3.851   4.520   4.969 -0.3755 -0.6340 -0.2197
  198MOL0     H26664   3.882   4.313   5.133  0.3989  1.1894 -2.7271
  198MOL0     H26665   3.809   4.220   5.305 -0.9081 -0.5012 -0.4865
  198MOL0     H26666   3.983   4.185   5.298 -0.5183 -1.1367  0.6690
  198MOL0     H26667   3.986   4.144   5.551  0.6420 -2.5698  0.5140
  198MOL0     H26668   3.879   4.037   5.453 -2.3347 -0.8592  1.8669
  198MOL0     H26669   3.773   4.276   5.588  1.9477  0.4508  2.8383
  198MOL0     H26670   3.771   4.140   5.685 -1.3595  1.2035 -0.4024
  198MOL0     H26671   3.624   4.173   5.429 -0.7362  2.0860 -0.3974
  198MOL0     H26672   3.655   4.009   5.495  2.4855 -1.3553  2.7551
  198MOL0     H26673   3.534   4.106   5.720  0.7818 -0.1257  0.5360
  198MOL0     H26674   3.508   4.256   5.637  1.1355 -0.3939 -0.7843
  198MOL0     H26675   3.405   4.069   5.452 -2.8405 -3.5438  0.3613
  198MOL0     H26676   3.385   3.998   5.597  1.2325 -0.1126 -0.8980
  198MOL0     H26677   3.184   4.137   5.532 -0.2290 -0.6924  0.2749
  198MOL0     H26678   3.280   4.284   5.555  1.3220  0.7133  2.3294
  198MOL0     H26679   3.125   4.208   5.735  0.4114  2.9086 -1.8007
  198MOL0     H26680   3.243   4.073   5.764  4.5198  0.7205 -1.1633
  198MOL0     H26681   3.298   4.478   5.753  4.7479 -0.9588 -1.6187
  198MOL0     H26682   3.347   4.642   5.998 -0.0994 -0.3009  0.3003
  198MOL0     H26683   3.468   4.564   6.100  3.2248 -3.3889 -1.5446
  198MOL0     H26684   3.607   4.516   5.921 -3.0373 -2.9729  1.5662
  198MOL0     H26685   3.496   4.584   5.798  0.8625 -1.1635 -0.0819
  198MOL0     H26686   3.661   4.768   5.813 -2.9106 -1.8907 -3.0614
  198MOL0     H26687   3.675   4.726   5.989 -1.0089  1.2940  1.0898
  198MOL0     H26688   3.475   4.856   6.021  2.0126  0.4565 -0.6993
  198MOL0     H26689   3.425   4.842   5.847 -0.8954  0.2573  1.3343
  198MOL0     H26690   3.615   4.947   6.149 -0.3968 -2.7038 -5.0644
  198MOL0     H26691   3.786   5.037   6.273  0.6675 -0.6502 -0.4107
  198MOL0     H26692   4.215   5.508   6.036  0.4637  3.7280 -0.2239
  198MOL0     H26693   4.342   5.648   6.130 -0.9404  0.6666 -1.0593
  198MOL0     H26694   4.462   5.810   6.545 -0.5641  1.3075 -0.6716
  198MOL0     H26695   4.410   5.659   6.598 -0.9941  3.5291  3.1976
  198MOL0     H26696   4.638   5.713   6.396  0.5752 -1.0456 -1.1566
  198MOL0     H26697   4.632   5.627   6.553  1.1360 -3.1556 -0.7066
  198MOL0     H26698   4.507   5.528   6.305 -1.8824 -0.1179  2.2077
  198MOL0     H26699   4.655   5.453   6.355  0.1094 -1.4624 -0.0145
  198MOL0     H26700   4.412   5.451   6.542 -1.6127  0.0240 -0.9114
  198MOL0     H26701   4.568   5.373   6.569 -1.7896  0.2057  1.4239
  198MOL0     H26702   4.517   5.215   6.381 -1.6435 -1.8128 -1.2767
  198MOL0     H26703   4.380   5.302   6.337  1.8066 -0.7702 -0.6180
  198MOL0     H26704   4.289   5.228   6.581  1.1895 -0.1780  2.7241
  198MOL0     H26705   4.295   5.107   6.443 -0.8566  1.9272 -0.2451
  198MOL0     H26706   4.527   5.031   6.551  1.8572 -1.0635  3.3836
  198MOL0     H26707   4.373   5.003   6.641  0.4493  0.2037  3.5511
  198MOL0     H26708   4.532   5.250   6.716 -0.1397  0.4461  0.2168
  198MOL0     H26709   4.391   5.165   6.789 -0.1375 -2.7205  3.2719
  198MOL0     H26710   4.153   5.612   6.520 -3.3952  0.2888 -0.4027
  198MOL0     H26711   4.011   5.436   6.423 -2.0439 -0.2960 -2.4323
  198MOL0     H26712   3.891   5.299   5.942  0.2375  0.3974 -0.3369
  198MOL0     H26713   3.732   5.188   5.799  2.2991 -0.0143 -0.7178
  198MOL0     H26714   3.977   4.613   5.434  1.7979  1.8677  0.0635
  198MOL0     H26715   3.955   4.783   5.254  2.5237 -1.0070  0.1915
  198MOL0     H26716   3.617   4.997   5.074 -1.4505 -1.2876 -0.0659
  198MOL0     H26717   3.515   5.161   4.911  0.9823  0.5472  1.7693
  198MOL0     H26718   3.578   5.320   4.531 -2.4609  3.1836  3.6077
  198MOL0     H26719   3.721   5.216   4.574  0.6047 -1.3689  1.0027
  198MOL0     H26720   3.702   5.464   4.672  0.4035 -0.7346 -3.4006
  198MOL0     H26721   3.705   5.323   4.790 -3.0211 -2.7395 -0.1393
  198MOL0     H26722   3.459   5.347   4.813 -2.7237  0.0398 -0.9000
  198MOL0     H26723   3.453   5.465   4.676 -0.7762  0.9326  1.3147
  198MOL0     H26724   3.579   5.624   4.799 -0.0282 -0.9076 -1.9002
  198MOL0     H26725   3.430   5.586   4.880 -0.6791 -2.0300 -0.0079
  198MOL0     H26726   3.675   5.468   5.192  0.4548 -0.4332  0.7203
  198MOL0     H26727   3.692   4.944   4.587 -0.4866 -3.7574 -1.2279
  198MOL0     H26728   3.871   4.718   4.762  0.7117  2.1198 -0.2595
  198MOL0     H26729   3.722   4.650   4.691 -1.1374  0.2203  3.0435
  198MOL0     H26730   3.821   4.766   4.601  0.8277  2.3087  0.9991
  199MOL0     O26731   0.125   2.086   2.168 -0.6896 -0.2107 -0.2161
  199MOL0     C26732   0.107   2.199   2.123  0.6842  0.5258 -0.9053
  199MOL0     O26733   0.197   2.300   2.110  0.5736  0.0315 -0.2882
  199MOL0     C26734   0.330   2.269   2.139 -0.1022 -0.0304  0.0406
  199MOL0     C26735   0.396   2.290   2.259 -0.1750  0.6392 -0.2961
  199MOL0     C26736   0.523   2.241   2.288  0.4725 -0.2393 -1.1207
  199MOL0     C26737   0.608   2.207   2.178  0.5260 -0.1653 -0.1677
  199MOL0     O26738   0.737   2.170   2.206 -0.1686  0.2191  0.5216
  199MOL0     C26739   0.850   2.238   2.139 -0.3373  0.5584 -0.6056
  199MOL0     C26740   0.972   2.250   2.236  0.0438 -0.4723 -0.2436
  199MOL0     C26741   1.076   2.336   2.173 -0.9845  0.6804  0.2105
  199MOL0     C26742   1.187   2.376   2.271 -0.8992 -0.0573  0.2798
  199MOL0     C26743   1.241   2.255   2.346  0.1173 -0.7998 -0.0314
  199MOL0     C26744   1.349   2.300   2.450  0.5803 -1.1541 -0.0830
  199MOL0     C26745   1.413   2.186   2.533 -0.4807  0.2089 -0.0187
  199MOL0     C26746   1.514   2.092   2.455 -0.3045  0.3422 -0.5649
  199MOL0     N26747   1.555   1.981   2.537 -0.2279 -0.4005 -0.0959
  199MOL0     C26748   1.634   1.998   2.649  0.5854  0.3377 -0.4034
  199MOL0     C26749   1.682   1.872   2.673 -0.0308  0.2014  0.3173
  199MOL0     C26750   1.796   1.847   2.765 -0.6591 -0.3737 -0.4220
  199MOL0     C26751   1.908   1.948   2.726  0.1650 -0.7225  0.0185
  199MOL0     C26752   1.981   1.911   2.608  0.2305  0.0039  0.3930
  199MOL0     C26753   2.112   1.995   2.581  0.4589 -0.3276 -0.0021
  199MOL0     O26754   2.094   2.140   2.615 -0.0640 -0.3520 -0.3719
  199MOL0     C26755   2.038   2.224   2.523 -0.3803 -0.2694  0.2889
  199MOL0     C26756   2.122   2.265   2.419 -0.5024 -0.1666 -0.1069
  199MOL0     C26757   2.086   2.336   2.307  0.2975  0.1121  0.3568
  199MOL0     C26758   1.944   2.374   2.295  0.5194  0.0203  0.4719
  199MOL0     C26759   1.896   2.464   2.187  0.0517  0.9884 -0.4590
  199MOL0     O26760   1.765   2.480   2.168  0.5727 -0.1636  0.4772
  199MOL0     C26761   1.704   2.577   2.086 -0.6519  1.1268  0.5225
  199MOL0     C26762   1.565   2.582   2.102 -0.0720  0.2675  0.4231
  199MOL0     C26763   1.487   2.669   2.035 -0.6032 -0.2623  0.2575
  199MOL0     C26764   1.548   2.736   1.921 -0.8571  0.6408  0.2358
  199MOL0     O26765   1.467   2.804   1.831  0.9264 -0.0554 -0.2383
  199MOL0     C26766   1.525   2.849   1.711  0.6747  0.2650  0.1109
  199MOL0     C26767   1.422   2.860   1.600  0.1674  0.0948 -0.2504
  199MOL0     C26768   1.349   2.728   1.571  0.9680 -0.8436  0.4084
  199MOL0     C26769   1.237   2.751   1.464  0.0480 -0.8983 -0.6832
  199MOL0     C26770   1.166   2.614   1.434  0.2253  0.0355  0.5881
  199MOL0     C26771   1.082   2.622   1.307  0.8114 -0.6984  0.1673
  199MOL0     C26772   0.999   2.502   1.292  0.4492 -0.4544  0.1531
  199MOL0     C26773   1.054   2.381   1.223 -0.4177  0.4236 -0.3215
  199MOL0    Cl26774   1.107   2.422   1.059  0.0627 -0.4875  0.1154
  199MOL0     C26775   1.692   2.737   1.916 -0.7922 -0.2153 -0.2233
  199MOL0     C26776   1.766   2.658   1.996  0.7144 -0.6455  0.2518
  199MOL0     O26777   1.986   2.515   2.122  0.2417 -0.1942 -0.4516
  199MOL0     C26778   1.853   2.335   2.402  0.0115 -1.2192  0.0987
  199MOL0     C26779   1.903   2.258   2.509 -0.3037  0.1223 -0.2242
  199MOL0     N26780   1.643   1.787   2.578  0.0536  0.9908  0.1745
  199MOL0     N26781   1.572   1.850   2.497 -0.1243 -0.4248  0.3830
  199MOL0     C26782   0.549   2.196   2.053  0.5812  1.1120  0.2806
  199MOL0     C26783   0.412   2.221   2.035 -0.6349  0.2044 -0.1510
  199MOL0     C26784  -0.029   2.239   2.106  0.1224  1.0431  1.1310
  199MOL0     C26785  -0.067   2.370   2.141  0.8199 -0.2573  0.3373
  199MOL0     C26786  -0.193   2.424   2.114 -0.3649 -0.9141  1.2765
  199MOL0     C26787  -0.290   2.341   2.047 -0.3365  0.1105 -0.4602
  199MOL0     O26788  -0.412   2.406   2.014  0.2113 -0.1774  0.4155
  199MOL0     C26789  -0.509   2.336   1.930  0.3460 -0.6596  0.2293
  199MOL0     C26790  -0.630   2.417   1.871 -0.2924 -0.1676 -0.4252
  199MOL0     C26791  -0.691   2.500   1.980  0.4656 -1.0982  0.5584
  199MOL0     C26792  -0.767   2.428   2.092  0.1451 -0.5113 -0.4641
  199MOL0     C26793  -0.901   2.394   2.061 -0.0960 -0.0143  0.3867
  199MOL0     C26794  -1.008   2.376   2.032  0.1011  1.2804  0.4198
  199MOL0     C26795  -0.249   2.216   2.007  0.4698  0.7305 -0.4174
  199MOL0     C26796  -0.128   2.156   2.041  0.3148 -0.5913 -0.7678
  199MOL0     C26797  -0.101   2.023   1.983 -0.3377  0.2663 -0.2379
  199MOL0     H26798   0.323   2.319   2.333 -0.8752 -0.4338 -0.5385
  199MOL0     H26799   0.552   2.226   2.391 -0.9715 -0.6363 -0.7564
  199MOL0     H26800   0.881   2.184   2.049 -0.8748  0.7100 -0.8832
  199MOL0     H26801   0.817   2.337   2.106  1.2364  0.4231 -2.8699
  199MOL0     H26802   1.013   2.151   2.257 -1.3338 -1.8962 -3.5663
  199MOL0     H26803   0.935   2.296   2.328 -1.9155 -0.9520 -0.7588
  199MOL0     H26804   1.049   2.436   2.138  1.9347  1.4818 -0.0424
  199MOL0     H26805   1.125   2.289   2.087 -1.0426  1.6939 -0.3980
  199MOL0     H26806   1.273   2.422   2.221  0.0504 -2.7188 -0.7409
  199MOL0     H26807   1.144   2.447   2.341 -0.0346  0.2647  0.4997
  199MOL0     H26808   1.165   2.187   2.385  0.1015 -1.0678 -0.5108
  199MOL0     H26809   1.306   2.195   2.281 -1.7337 -0.3490 -2.4698
  199MOL0     H26810   1.437   2.336   2.395  1.3074 -1.4683  0.8583
  199MOL0     H26811   1.313   2.377   2.518  1.6066  0.1984 -1.0011
  199MOL0     H26812   1.341   2.120   2.582  0.1082 -2.1436 -2.0811
  199MOL0     H26813   1.473   2.241   2.606 -2.8325  1.4174  1.0880
  199MOL0     H26814   1.465   2.045   2.370  1.7416 -1.6817 -0.7325
  199MOL0     H26815   1.597   2.157   2.425  0.2146  1.4059  2.7232
  199MOL0     H26816   1.648   2.083   2.716 -1.2222 -0.8111  1.5544
  199MOL0     H26817   1.778   1.864   2.872 -0.8375 -0.6349 -0.4103
  199MOL0     H26818   1.841   1.748   2.754 -0.1245  0.0389 -2.2504
  199MOL0     H26819   1.860   2.045   2.712 -0.7305 -1.1966 -0.3287
  199MOL0     H26820   1.983   1.956   2.805  0.1996 -0.4153 -0.0472
  199MOL0     H26821   1.917   1.937   2.523 -0.8167 -2.5814  0.3079
  199MOL0     H26822   2.017   1.809   2.589 -0.2562  0.1436 -1.5380
  199MOL0     H26823   2.149   1.995   2.477 -1.2592  0.0809 -0.6492
  199MOL0     H26824   2.187   1.962   2.653 -0.7984 -0.0863  1.4542
  199MOL0     H26825   2.225   2.234   2.430 -0.3280  0.2577 -0.4667
  199MOL0     H26826   2.159   2.361   2.231 -1.0238  0.3417 -0.8790
  199MOL0     H26827   1.517   2.529   2.184 -1.0546  0.6725  0.1307
  199MOL0     H26828   1.382   2.685   2.059 -0.7474 -3.3010  2.0888
  199MOL0     H26829   1.569   2.948   1.725 -0.5995  0.7338  0.9340
  199MOL0     H26830   1.598   2.776   1.673 -0.9875 -0.4657 -1.8590
  199MOL0     H26831   1.343   2.927   1.635  0.5272  0.0549  0.6723
  199MOL0     H26832   1.464   2.911   1.512 -0.0144  0.4267 -0.1447
  199MOL0     H26833   1.413   2.652   1.525  3.5288  1.0121  0.6623
  199MOL0     H26834   1.319   2.687   1.668 -0.4218  0.5593  0.6003
  199MOL0     H26835   1.296   2.792   1.381  1.7553  0.0898  0.9614
  199MOL0     H26836   1.163   2.824   1.498 -0.2578 -0.6983 -1.7355
  199MOL0     H26837   1.091   2.603   1.512 -3.3662  2.9815 -2.0503
  199MOL0     H26838   1.241   2.536   1.422 -0.3408 -0.3475 -0.5896
  199MOL0     H26839   1.023   2.713   1.314  1.9984  0.1334 -0.2739
  199MOL0     H26840   1.139   2.637   1.214  1.3031  4.5598  1.0241
  199MOL0     H26841   0.902   2.530   1.249 -1.0050 -1.4245  2.5904
  199MOL0     H26842   0.970   2.465   1.391 -3.8971  1.0313 -0.3442
  199MOL0     H26843   1.143   2.346   1.277 -0.0011 -0.9956 -1.8241
  199MOL0     H26844   0.981   2.299   1.214 -0.8826  0.8557 -0.5482
  199MOL0     H26845   1.751   2.801   1.851  1.6568 -1.8962  0.1932
  199MOL0     H26846   1.874   2.656   1.991  0.7924 -3.9437  0.9196
  199MOL0     H26847   1.749   2.366   2.393  0.0325 -1.8118 -3.1120
  199MOL0     H26848   1.826   2.224   2.578 -0.6547 -1.4768 -1.3443
  199MOL0     H26849   0.612   2.156   1.973  0.9858  1.7371  0.2819
  199MOL0     H26850   0.367   2.182   1.944  1.6890  1.2762 -1.8646
  199MOL0     H26851  -0.011   2.435   2.207 -0.6368  0.6186  0.7624
  199MOL0     H26852  -0.215   2.523   2.153  0.8181  0.0552 -0.3942
  199MOL0     H26853  -0.557   2.258   1.990 -1.5621 -0.2239 -0.6307
  199MOL0     H26854  -0.450   2.286   1.853  0.6916  0.0499  0.0237
  199MOL0     H26855  -0.702   2.342   1.837  0.5273 -0.9568 -0.4880
  199MOL0     H26856  -0.603   2.477   1.783 -0.4465  1.9249  0.9032
  199MOL0     H26857  -0.762   2.566   1.928 -0.3491 -1.0516  1.7016
  199MOL0     H26858  -0.617   2.569   2.020  0.4898 -0.6095 -0.2905
  199MOL0     H26859  -0.709   2.342   2.126 -0.9428 -0.7359  0.8953
  199MOL0     H26860  -0.764   2.493   2.180  1.4929  0.4855 -1.2010
  199MOL0     H26861  -1.105   2.364   1.986  1.3710  2.6915 -2.8957
  199MOL0     H26862  -0.316   2.157   1.945 -0.1596  2.5654 -1.5596
  199MOL0     H26863  -0.060   1.953   2.057  0.6395 -1.0482 -1.9300
  199MOL0     H26864  -0.195   1.989   1.939  1.7609 -1.6106 -3.8257
  199MOL0     H26865  -0.021   2.031   1.908 -0.0077 -0.3116  0.0397
  200MOL0     O26866   1.413  11.410   4.559  0.2247  0.2418 -0.2481
  200MOL0     C26867   1.486  11.314   4.590  0.2193  0.8158 -0.2840
  200MOL0     O26868   1.538  11.214   4.499  0.0609  0.7001 -0.7534
  200MOL0     C26869   1.545  11.241   4.362  1.2158 -0.2883  0.4722
  200MOL0     C26870   1.562  11.370   4.306 -0.1368  0.3582 -0.6777
  200MOL0     C26871   1.589  11.385   4.175  0.6214  0.0033 -0.4311
  200MOL0     C26872   1.580  11.277   4.089 -0.5251  0.3570  1.0757
  200MOL0     O26873   1.595  11.287   3.946  0.2460  0.1915 -0.0740
  200MOL0     C26874   1.731  11.305   3.916  0.2586  0.0560 -1.0696
  200MOL0     C26875   1.749  11.418   3.819 -0.0971  1.1255 -0.3379
  200MOL0     C26876   1.696  11.372   3.683  0.5960 -0.1218  1.0754
  200MOL0     C26877   1.752  11.479   3.577 -1.1637  0.0010 -0.2013
  200MOL0     C26878   1.705  11.446   3.433  0.3961 -0.5961 -0.3301
  200MOL0     C26879   1.750  11.305   3.373 -0.2867 -0.5729 -0.0051
  200MOL0     C26880   1.704  11.302   3.233 -0.1671  0.3758 -0.5327
  200MOL0     C26881   1.749  11.179   3.140 -0.4687 -0.4842 -0.7239
  200MOL0     N26882   1.894  11.196   3.107  0.0420 -0.5081 -0.5280
  200MOL0     C26883   1.955  11.288   3.023 -0.8009 -0.6028  0.8535
  200MOL0     C26884   2.086  11.246   3.022  0.9100 -0.3051  0.9720
  200MOL0     C26885   2.173  11.314   2.921  0.1190  0.4744  0.0284
  200MOL0     C26886   2.269  11.213   2.863  0.7098 -0.1061  0.3094
  200MOL0     C26887   2.248  11.168   2.715 -0.3818  0.2629 -0.5633
  200MOL0     C26888   2.376  11.089   2.668  1.1049  0.9114  0.6161
  200MOL0     O26889   2.491  11.173   2.691 -0.3923  0.4300 -0.3093
  200MOL0     C26890   2.614  11.126   2.645 -0.7687  0.1345  0.9584
  200MOL0     C26891   2.730  11.203   2.687  0.1826 -0.0836 -0.1566
  200MOL0     C26892   2.858  11.163   2.647  0.7889 -0.6211 -0.3179
  200MOL0     C26893   2.883  11.062   2.561  0.3333 -0.0640  0.7958
  200MOL0     C26894   3.022  11.035   2.516 -0.5934 -0.8289 -0.4695
  200MOL0     O26895   3.030  10.925   2.434  1.2713  0.4638 -0.6037
  200MOL0     C26896   3.149  10.856   2.427  0.0901 -0.4364  0.4818
  200MOL0     C26897   3.276  10.911   2.432 -0.4687  0.8321  0.8435
  200MOL0     C26898   3.387  10.829   2.411  0.6401 -0.2226 -0.6825
  200MOL0     C26899   3.373  10.686   2.416 -0.0830 -0.3343  0.4775
  200MOL0     O26900   3.480  10.597   2.422  0.4881 -0.3413  0.3209
  200MOL0     C26901   3.582  10.625   2.527 -0.1017 -0.3652 -0.1527
  200MOL0     C26902   3.545  10.549   2.649  0.5328  0.3913  0.0351
  200MOL0     C26903   3.642  10.586   2.761  0.7452  0.8956 -0.5770
  200MOL0     C26904   3.633  10.502   2.889 -0.3267 -0.0108  0.4349
  200MOL0     C26905   3.576  10.568   3.016 -0.4890  0.8613  0.4816
  200MOL0     C26906   3.640  10.503   3.144  1.0919  0.6273 -0.0477
  200MOL0     C26907   3.555  10.529   3.268 -0.2614 -0.2061 -0.6971
  200MOL0     C26908   3.640  10.507   3.396  0.0444  0.2749  0.1582
  200MOL0    Cl26909   3.709  10.341   3.403  0.4401 -0.3848  0.0894
  200MOL0     C26910   3.244  10.633   2.402  0.2122 -0.3856 -0.6588
  200MOL0     C26911   3.133  10.718   2.401  0.4709 -0.7061 -0.3505
  200MOL0     O26912   3.112  11.106   2.567  0.2994 -0.1351 -0.7359
  200MOL0     C26913   2.771  10.994   2.508  0.0989  0.1134  0.6576
  200MOL0     C26914   2.642  11.030   2.548 -0.4003  0.9479  0.7590
  200MOL0     N26915   2.101  11.138   3.110  0.7964 -0.3036 -0.0431
  200MOL0     N26916   1.985  11.115   3.161  0.3558 -0.2128 -0.3926
  200MOL0     C26917   1.534  11.153   4.141  0.4267  0.1119 -0.9384
  200MOL0     C26918   1.525  11.134   4.283 -1.3295  0.2708  0.2649
  200MOL0     C26919   1.518  11.303   4.727 -0.0882  0.2292  0.2843
  200MOL0     C26920   1.559  11.417   4.792  0.1920 -0.9025 -0.2460
  200MOL0     C26921   1.604  11.415   4.920 -0.2407 -0.0642 -0.9121
  200MOL0     C26922   1.608  11.297   5.002 -0.7264  0.1104  0.4672
  200MOL0     O26923   1.649  11.295   5.134  1.0361  0.2459  0.2236
  200MOL0     C26924   1.710  11.408   5.185  1.1379 -0.2910 -1.0404
  200MOL0     C26925   1.783  11.373   5.315  0.5080 -0.1216 -0.3671
  200MOL0     C26926   1.685  11.337   5.427  0.3129 -0.0258 -0.2817
  200MOL0     C26927   1.748  11.342   5.566 -0.6739  0.1687 -0.7290
  200MOL0     C26928   1.743  11.476   5.621 -0.6325 -0.4443  0.2045
  200MOL0     C26929   1.746  11.584   5.674 -0.4467 -0.5453  0.3811
  200MOL0     C26930   1.551  11.183   4.939 -0.4075  0.5591  0.0500
  200MOL0     C26931   1.508  11.184   4.806 -0.2080 -0.0787  0.1531
  200MOL0     C26932   1.456  11.052   4.761 -0.0523 -0.6799  0.0902
  200MOL0     H26933   1.567  11.448   4.382  1.0727  1.4397 -1.8153
  200MOL0     H26934   1.622  11.482   4.139  1.0924  0.9507  2.3212
  200MOL0     H26935   1.788  11.328   4.006 -1.3547 -0.1437  0.0574
  200MOL0     H26936   1.779  11.212   3.885 -0.0435 -0.2533 -0.6339
  200MOL0     H26937   1.858  11.433   3.820  0.2670 -1.1115  0.1241
  200MOL0     H26938   1.707  11.511   3.858  0.1322  2.2968 -2.7390
  200MOL0     H26939   1.588  11.354   3.679  0.8686 -1.7246  0.2944
  200MOL0     H26940   1.744  11.276   3.661 -2.1421 -1.4889  0.7163
  200MOL0     H26941   1.723  11.582   3.600  0.4359  0.6538 -0.8881
  200MOL0     H26942   1.862  11.476   3.580 -1.1692 -0.1206 -0.1136
  200MOL0     H26943   1.596  11.439   3.437  0.3172  0.8466  1.2543
  200MOL0     H26944   1.739  11.530   3.372 -1.5296  2.8276  2.8882
  200MOL0     H26945   1.859  11.301   3.378 -0.3716 -2.4136  3.8215
  200MOL0     H26946   1.705  11.233   3.442  1.0138  0.0855  1.5963
  200MOL0     H26947   1.735  11.386   3.170  2.0214 -0.4799 -0.7123
  200MOL0     H26948   1.596  11.315   3.237 -0.0010  2.0280 -0.7429
  200MOL0     H26949   1.726  11.081   3.184 -0.4746 -1.7496 -3.3645
  200MOL0     H26950   1.694  11.196   3.047 -0.1533  3.6474 -0.3290
  200MOL0     H26951   1.924  11.374   2.965  1.9405 -0.3151 -0.3354
  200MOL0     H26952   2.110  11.348   2.838 -1.3117 -1.1251  0.3958
  200MOL0     H26953   2.219  11.402   2.968 -1.5660  0.5201  1.7234
  200MOL0     H26954   2.367  11.263   2.864  0.2314  1.4188 -4.1650
  200MOL0     H26955   2.278  11.126   2.928 -1.0159 -1.6369 -1.3883
  200MOL0     H26956   2.227  11.246   2.642 -2.0703  2.1504  1.7756
  200MOL0     H26957   2.160  11.104   2.707 -0.9164  0.7539  1.0861
  200MOL0     H26958   2.357  11.056   2.565 -0.8292  2.0199  0.5515
  200MOL0     H26959   2.403  11.001   2.727 -0.3169 -1.2961 -1.7972
  200MOL0     H26960   2.715  11.284   2.758  0.1932  0.2248 -0.5010
  200MOL0     H26961   2.943  11.215   2.689  2.7320 -3.2831 -0.7269
  200MOL0     H26962   3.305  11.016   2.437  3.4787 -0.1244  2.2704
  200MOL0     H26963   3.487  10.871   2.410  0.7982 -0.5784 -2.1164
  200MOL0     H26964   3.681  10.600   2.488  0.3024  2.0198 -0.7880
  200MOL0     H26965   3.588  10.733   2.539 -2.6464 -0.2313  0.4537
  200MOL0     H26966   3.440  10.579   2.660  0.4646  1.0233 -1.9801
  200MOL0     H26967   3.551  10.442   2.631  0.1386  0.6911 -2.1515
  200MOL0     H26968   3.738  10.569   2.711 -0.9058  0.4068 -3.8563
  200MOL0     H26969   3.634  10.693   2.782  2.5612  1.2927 -1.6586
  200MOL0     H26970   3.736  10.467   2.904  0.4745  1.4282 -1.3435
  200MOL0     H26971   3.576  10.410   2.875  2.1040 -1.2811 -1.8195
  200MOL0     H26972   3.467  10.558   3.014 -0.2553 -3.0845 -1.1742
  200MOL0     H26973   3.618  10.669   3.014 -0.3817  0.8073 -1.0808
  200MOL0     H26974   3.658  10.396   3.135  3.0439  0.8999  0.0684
  200MOL0     H26975   3.742  10.543   3.153  0.5386  2.4266 -1.0980
  200MOL0     H26976   3.472  10.459   3.280 -0.6464  0.4937  0.9677
  200MOL0     H26977   3.510  10.628   3.262  0.3802  0.0064 -2.6863
  200MOL0     H26978   3.732  10.566   3.394  2.2172 -2.8840 -0.9672
  200MOL0     H26979   3.578  10.529   3.483 -2.7136 -2.2184 -0.9821
  200MOL0     H26980   3.243  10.525   2.389  0.2005 -0.6490  1.3006
  200MOL0     H26981   3.036  10.673   2.383 -0.6130  1.5158 -0.4764
  200MOL0     H26982   2.784  10.910   2.440  0.6612  0.1936  0.6565
  200MOL0     H26983   2.553  10.988   2.503 -2.6815  2.0430  3.9229
  200MOL0     H26984   1.513  11.080   4.064 -1.2366  1.6372 -2.0036
  200MOL0     H26985   1.504  11.035   4.322 -4.2321  0.9399  0.6348
  200MOL0     H26986   1.582  11.510   4.742  2.5919 -1.5172 -0.4284
  200MOL0     H26987   1.640  11.507   4.965  0.9509 -1.9713  2.3776
  200MOL0     H26988   1.646  11.495   5.201 -1.1914 -1.7377 -1.9979
  200MOL0     H26989   1.790  11.437   5.117 -0.8723  3.2513 -2.1461
  200MOL0     H26990   1.859  11.449   5.335 -1.0360  1.5848 -0.6094
  200MOL0     H26991   1.845  11.285   5.297 -1.0480 -1.2956 -0.2365
  200MOL0     H26992   1.650  11.236   5.405  0.2276 -0.0840  0.1203
  200MOL0     H26993   1.596  11.401   5.425 -0.4371 -0.8793  2.2202
  200MOL0     H26994   1.683  11.274   5.621  0.6176 -0.7904 -0.3223
  200MOL0     H26995   1.850  11.302   5.567 -1.1600 -1.1220  0.6839
  200MOL0     H26996   1.741  11.674   5.733  4.2387 -0.2401  0.7407
  200MOL0     H26997   1.546  11.092   4.998 -3.5114 -0.3461 -1.4108
  200MOL0     H26998   1.515  10.976   4.813 -0.8324  0.0249  2.1379
  200MOL0     H26999   1.352  11.041   4.792 -0.2614  1.2871  0.2134
  200MOL0     H27000   1.470  11.032   4.655  1.9308 -0.9781  0.3783
  201MOL0     O27001   1.466   1.695   4.206  0.1419 -0.1580  0.0981
  201MOL0     C27002   1.504   1.577   4.232 -0.3848 -0.1956  0.8354
  201MOL0     O27003   1.426   1.463   4.217  0.2281  0.4084 -0.0888
  201MOL0     C27004   1.294   1.467   4.190 -0.5822 -0.8210 -0.3505
  201MOL0     C27005   1.213   1.526   4.293 -0.4233  0.7113  0.1429
  201MOL0     C27006   1.072   1.530   4.272  0.3249 -0.3781  0.9950
  201MOL0     C27007   1.016   1.482   4.142  0.4798 -0.7678 -0.5451
  201MOL0     O27008   0.883   1.497   4.114 -0.1995 -0.6240 -0.0208
  201MOL0     C27009   0.797   1.429   4.208  0.7472 -0.3699  0.6294
  201MOL0     C27010   0.664   1.390   4.133  0.2386  0.3844  0.4218
  201MOL0     C27011   0.677   1.268   4.037 -0.7918 -0.0111  0.1208
  201MOL0     C27012   0.714   1.313   3.896  0.7038 -0.8144  0.0195
  201MOL0     C27013   0.710   1.212   3.781  0.2708 -0.0975  0.1870
  201MOL0     C27014   0.575   1.215   3.723 -0.5026 -0.8992 -0.3200
  201MOL0     C27015   0.566   1.131   3.597  0.8973  0.9404  0.6028
  201MOL0     C27016   0.420   1.086   3.557 -0.1343  0.6747 -0.2224
  201MOL0     N27017   0.327   1.204   3.544 -0.3945  0.5944  0.8024
  201MOL0     C27018   0.348   1.288   3.441  0.2976 -0.8730 -0.8051
  201MOL0     C27019   0.237   1.366   3.454 -0.2238  0.9449  0.2144
  201MOL0     C27020   0.202   1.470   3.351  0.0538  0.9290 -0.2067
  201MOL0     C27021   0.117   1.406   3.238 -0.4440  0.4180  0.3859
  201MOL0     C27022   0.122   1.505   3.130  0.1938 -0.1025  0.2725
  201MOL0     C27023   0.035   1.458   2.999  0.2650 -0.2578 -0.5302
  201MOL0     O27024  -0.098   1.494   3.022  0.7705  0.4630 -0.0213
  201MOL0     C27025  -0.190   1.433   2.941 -1.0005 -0.0396 -0.1632
  201MOL0     C27026  -0.240   1.307   2.980  0.8019 -0.4931  0.1740
  201MOL0     C27027  -0.354   1.259   2.913  0.3034 -0.3424  0.1476
  201MOL0     C27028  -0.413   1.345   2.816 -0.2977 -0.4844 -0.6473
  201MOL0     C27029  -0.527   1.295   2.740 -0.3795 -0.4871 -0.3890
  201MOL0     O27030  -0.598   1.199   2.807  0.0913  0.1946 -0.0215
  201MOL0     C27031  -0.683   1.125   2.735  0.5003  0.0087 -0.2112
  201MOL0     C27032  -0.829   1.149   2.753 -0.0649  0.3463 -0.0539
  201MOL0     C27033  -0.914   1.085   2.667  0.7358  0.0974  0.6647
  201MOL0     C27034  -0.871   0.997   2.573  0.1118  0.1617 -0.2424
  201MOL0     O27035  -0.971   0.942   2.494  0.1629  0.0878  0.2175
  201MOL0     C27036  -0.930   0.834   2.408  0.5022  0.0446  0.1274
  201MOL0     C27037  -1.029   0.830   2.279 -0.3297 -1.1119 -0.5928
  201MOL0     C27038  -1.122   0.717   2.305  0.3694 -0.5797  1.0588
  201MOL0     C27039  -1.203   0.680   2.181 -0.5931  1.1369 -0.3411
  201MOL0     C27040  -1.275   0.545   2.181  0.2858  0.1778 -0.1697
  201MOL0     C27041  -1.369   0.523   2.058 -0.0203  0.2896  0.1499
  201MOL0     C27042  -1.305   0.535   1.919  0.6761  0.6167 -0.4248
  201MOL0     C27043  -1.415   0.516   1.805  0.0619 -0.0460  1.1577
  201MOL0    Cl27044  -1.501   0.358   1.834  0.0704 -0.0095 -0.0762
  201MOL0     C27045  -0.731   0.977   2.557 -0.3830 -0.3496 -0.0662
  201MOL0     C27046  -0.637   1.038   2.635  0.4304  0.4690 -0.4755
  201MOL0     O27047  -0.551   1.343   2.632 -0.2905  0.0446 -0.4244
  201MOL0     C27048  -0.368   1.469   2.779 -0.1325  0.0075  1.1727
  201MOL0     C27049  -0.249   1.509   2.846 -0.0211  0.3375 -0.0570
  201MOL0     N27050   0.156   1.316   3.554 -0.7516  0.1374  0.2802
  201MOL0     N27051   0.205   1.211   3.608  0.5785 -1.5965 -0.2742
  201MOL0     C27052   1.096   1.435   4.044  0.2236 -0.9421 -0.3217
  201MOL0     C27053   1.237   1.433   4.066 -0.3237 -0.2728 -0.1454
  201MOL0     C27054   1.648   1.558   4.264 -0.4454 -0.4080  0.6712
  201MOL0     C27055   1.696   1.613   4.382  0.1729 -0.0791  0.6177
  201MOL0     C27056   1.824   1.577   4.423  0.4661  0.2364 -0.4302
  201MOL0     C27057   1.906   1.488   4.355  0.6555  0.0628 -0.1620
  201MOL0     O27058   2.027   1.434   4.386  0.7260  0.3082 -0.4493
  201MOL0     C27059   2.094   1.480   4.505 -0.5237 -0.0167 -0.1126
  201MOL0     C27060   2.223   1.404   4.517 -0.7409  0.3321 -0.7694
  201MOL0     C27061   2.285   1.421   4.652 -0.1533  0.3654 -0.3516
  201MOL0     C27062   2.353   1.560   4.670  0.6976  0.1668 -0.7048
  201MOL0     C27063   2.412   1.585   4.813 -0.3528 -0.4211  0.4882
  201MOL0     C27064   2.477   1.616   4.910 -0.3901  0.2248  0.9023
  201MOL0     C27065   1.853   1.440   4.237  1.1297  0.8639  0.1648
  201MOL0     C27066   1.725   1.475   4.185  0.6937 -0.2883  0.7828
  201MOL0     C27067   1.673   1.420   4.051 -1.4695  0.2233 -0.2117
  201MOL0     H27068   1.249   1.551   4.392  1.7422 -1.8734  0.1190
  201MOL0     H27069   1.005   1.566   4.349  0.4820  1.9962  0.1066
  201MOL0     H27070   0.842   1.344   4.262 -0.6726 -1.3809  0.2745
  201MOL0     H27071   0.752   1.499   4.279 -0.9363 -0.5352 -0.2200
  201MOL0     H27072   0.630   1.483   4.088  1.7015  2.2548  2.9441
  201MOL0     H27073   0.598   1.355   4.214  1.9016 -0.0121  1.6617
  201MOL0     H27074   0.583   1.213   4.037 -0.0501 -1.4267 -2.4631
  201MOL0     H27075   0.742   1.192   4.081 -2.8526 -0.6661  2.2481
  201MOL0     H27076   0.653   1.396   3.858 -0.6644 -1.7525  0.0913
  201MOL0     H27077   0.815   1.354   3.898  0.3355  0.0815  0.8633
  201MOL0     H27078   0.778   1.239   3.700  1.5679 -2.8905  0.2224
  201MOL0     H27079   0.752   1.117   3.816  0.0875  1.1921  4.6402
  201MOL0     H27080   0.513   1.165   3.799 -0.6171 -0.5176 -0.1604
  201MOL0     H27081   0.530   1.313   3.706 -1.3542 -1.2554 -0.1835
  201MOL0     H27082   0.635   1.046   3.604 -0.7913 -0.8016 -2.0769
  201MOL0     H27083   0.607   1.190   3.515 -1.6518 -0.1876 -1.6128
  201MOL0     H27084   0.434   1.045   3.457  0.3380  0.0539  0.0954
  201MOL0     H27085   0.377   1.010   3.623 -4.6115  2.2374 -0.9397
  201MOL0     H27086   0.428   1.302   3.370  0.1562  1.5724 -0.5831
  201MOL0     H27087   0.144   1.551   3.396 -0.4347  1.1144 -1.1630
  201MOL0     H27088   0.295   1.510   3.311 -1.3798  1.2271 -3.5762
  201MOL0     H27089   0.159   1.310   3.205 -4.0410 -1.2921  0.3270
  201MOL0     H27090   0.013   1.380   3.259 -0.3228 -1.4740 -0.9925
  201MOL0     H27091   0.222   1.504   3.085 -0.5702 -1.0737 -1.5317
  201MOL0     H27092   0.086   1.604   3.159 -2.4809 -0.9061 -0.0620
  201MOL0     H27093   0.045   1.353   2.969 -0.0810 -0.8135  1.1994
  201MOL0     H27094   0.066   1.512   2.910 -0.3259  0.2924 -0.4084
  201MOL0     H27095  -0.188   1.256   3.061 -1.4852 -1.2367  1.2583
  201MOL0     H27096  -0.378   1.155   2.930  4.1442 -1.0016  2.9649
  201MOL0     H27097  -0.865   1.211   2.834 -0.8585 -0.8622  0.5434
  201MOL0     H27098  -1.021   1.078   2.684  0.2605  2.3845 -0.9296
  201MOL0     H27099  -0.842   0.852   2.345  1.1863  2.5392  1.6839
  201MOL0     H27100  -0.925   0.734   2.452 -1.1162 -2.2392 -4.2399
  201MOL0     H27101  -1.093   0.919   2.271 -0.9235 -1.6574 -2.3642
  201MOL0     H27102  -0.973   0.813   2.187  0.4963  2.3937 -0.8843
  201MOL0     H27103  -1.061   0.630   2.329 -0.0573 -1.0582  0.4288
  201MOL0     H27104  -1.192   0.717   2.389 -1.0827 -0.2816 -0.0959
  201MOL0     H27105  -1.141   0.683   2.092 -3.1088  0.2722 -2.2320
  201MOL0     H27106  -1.283   0.751   2.156 -1.2304 -0.1733 -2.1679
  201MOL0     H27107  -1.327   0.522   2.275 -1.3452 -2.8340 -1.6645
  201MOL0     H27108  -1.190   0.476   2.181  2.3182  2.5231  0.9513
  201MOL0     H27109  -1.395   0.417   2.067  0.1401 -0.3416 -4.2931
  201MOL0     H27110  -1.456   0.589   2.062  2.1700  3.3530  0.8062
  201MOL0     H27111  -1.234   0.452   1.918  0.2571  0.2165 -2.2704
  201MOL0     H27112  -1.246   0.625   1.899  1.7067 -0.0637 -0.5066
  201MOL0     H27113  -1.488   0.596   1.795 -0.3060 -0.4962  0.0491
  201MOL0     H27114  -1.376   0.507   1.704 -0.1018  0.6983  1.0277
  201MOL0     H27115  -0.685   0.912   2.483  0.7475  1.3932 -0.9515
  201MOL0     H27116  -0.533   1.020   2.612  1.5293  0.5854  3.5557
  201MOL0     H27117  -0.411   1.525   2.697  0.1229 -1.2162  0.1758
  201MOL0     H27118  -0.198   1.599   2.813 -0.2687  0.7123  0.5680
  201MOL0     H27119   1.056   1.420   3.945 -2.2585 -0.1052  0.4837
  201MOL0     H27120   1.299   1.408   3.981 -3.1635  0.2346 -2.5193
  201MOL0     H27121   1.627   1.679   4.434  0.4666  1.0433 -0.3738
  201MOL0     H27122   1.865   1.626   4.512  0.5553 -0.3003 -0.1744
  201MOL0     H27123   2.039   1.460   4.597  1.8711  0.7110  1.5658
  201MOL0     H27124   2.115   1.587   4.500  0.1397 -0.1852 -4.1083
  201MOL0     H27125   2.299   1.439   4.446 -1.6751  2.8661 -0.6231
  201MOL0     H27126   2.212   1.299   4.489  0.0108  0.6734 -2.4521
  201MOL0     H27127   2.359   1.340   4.655 -1.4111 -0.8147  0.1622
  201MOL0     H27128   2.211   1.409   4.732  1.3818  0.3459  1.1333
  201MOL0     H27129   2.430   1.563   4.592  3.4416  0.1078  1.8200
  201MOL0     H27130   2.271   1.628   4.644  0.1609 -1.1282 -2.6625
  201MOL0     H27131   2.531   1.642   4.998 -0.7940  2.2016  0.6097
  201MOL0     H27132   1.904   1.361   4.183  1.5806  0.3906  1.2620
  201MOL0     H27133   1.745   1.391   3.974 -2.8910 -0.6558 -1.2727
  201MOL0     H27134   1.627   1.323   4.073 -1.5158  0.2310 -0.2757
  201MOL0     H27135   1.597   1.482   4.002 -1.5904 -1.2890 -2.0350
  202MOL0     O27136   3.239  10.894   4.010  0.1055  0.4181 -0.5906
  202MOL0     C27137   3.277  10.968   4.094 -0.2400  0.9288 -0.2728
  202MOL0     O27138   3.379  11.050   4.080 -0.2856  0.1986 -0.3880
  202MOL0     C27139   3.409  11.115   3.963  0.8019 -0.4440  0.1835
  202MOL0     C27140   3.535  11.185   3.960 -0.2462 -1.0837  0.2262
  202MOL0     C27141   3.577  11.250   3.845  0.6167 -0.1558  0.2941
  202MOL0     C27142   3.492  11.259   3.736 -0.4826  1.0707 -0.3333
  202MOL0     O27143   3.526  11.308   3.612  0.0055 -0.1297  0.0751
  202MOL0     C27144   3.639  11.395   3.604 -0.7900  0.2969  0.2262
  202MOL0     C27145   3.668  11.443   3.455 -0.5705  0.1159 -1.3380
  202MOL0     C27146   3.732  11.328   3.381 -0.0208  0.2028 -0.2427
  202MOL0     C27147   3.770  11.369   3.238 -0.2149 -0.2551  0.4423
  202MOL0     C27148   3.808  11.235   3.150 -0.8332  0.7063 -0.2448
  202MOL0     C27149   3.795  11.267   3.001 -0.2370 -0.3214  0.1435
  202MOL0     C27150   3.841  11.144   2.922  0.3230  0.2697  0.8489
  202MOL0     C27151   3.769  11.020   2.925  0.1997 -0.1929  0.3429
  202MOL0     N27152   3.641  11.030   2.861  0.8345 -0.2124  0.0472
  202MOL0     C27153   3.530  10.971   2.912  0.4964 -0.6416 -0.0539
  202MOL0     C27154   3.438  10.974   2.811 -0.8882 -0.2405 -0.0843
  202MOL0     C27155   3.300  10.920   2.809  0.1576  0.2582  0.0911
  202MOL0     C27156   3.292  10.780   2.882 -0.8963 -0.9784  0.6303
  202MOL0     C27157   3.144  10.745   2.909 -0.0975  0.0041 -0.4437
  202MOL0     C27158   3.124  10.594   2.947  0.5524 -0.3776  0.3626
  202MOL0     O27159   3.133  10.562   3.083 -0.2183 -0.1136  0.0619
  202MOL0     C27160   3.020  10.524   3.145 -0.3496  0.0829 -0.5332
  202MOL0     C27161   2.944  10.415   3.106  0.1409 -0.0411 -0.0052
  202MOL0     C27162   2.819  10.379   3.162  0.2816  0.0513 -0.7338
  202MOL0     C27163   2.772  10.448   3.276  0.3998  0.4844 -0.2218
  202MOL0     C27164   2.644  10.407   3.342 -1.2030  0.1953  0.0730
  202MOL0     O27165   2.591  10.485   3.439 -0.1284 -0.6764  0.7713
  202MOL0     C27166   2.490  10.422   3.514 -0.4949  0.4623 -0.9390
  202MOL0     C27167   2.510  10.302   3.592 -0.4578  0.8234 -0.0755
  202MOL0     C27168   2.400  10.237   3.657  0.4027 -0.2882  0.4785
  202MOL0     C27169   2.271  10.291   3.633  0.7550 -0.4503  0.8070
  202MOL0     O27170   2.151  10.235   3.686 -0.1236 -1.3351  0.4468
  202MOL0     C27171   2.131  10.104   3.722  0.1395  0.5121  0.1531
  202MOL0     C27172   1.995  10.052   3.668  0.2492 -0.4980 -0.2485
  202MOL0     C27173   1.880  10.124   3.741  0.8619 -0.3963  0.1527
  202MOL0     C27174   1.752  10.091   3.652  0.3792 -0.6517 -0.8874
  202MOL0     C27175   1.635  10.141   3.732 -0.1802  0.2451  0.0253
  202MOL0     C27176   1.507  10.110   3.658  0.9240 -1.0628  1.0552
  202MOL0     C27177   1.483   9.959   3.654 -0.8310 -0.0841  0.4185
  202MOL0     C27178   1.337   9.949   3.594 -0.3823  0.6595 -0.6240
  202MOL0    Cl27179   1.297   9.770   3.553  0.5591 -0.2962 -0.1976
  202MOL0     C27180   2.260  10.413   3.569 -0.3478 -0.3782  0.7815
  202MOL0     C27181   2.366  10.479   3.506  0.0446 -0.3795 -0.2600
  202MOL0     O27182   2.610  10.294   3.311 -0.4837 -0.0214 -0.1413
  202MOL0     C27183   2.844  10.560   3.312 -0.0031  0.4814  0.4112
  202MOL0     C27184   2.971  10.603   3.253  0.1255 -0.0009  1.0703
  202MOL0     N27185   3.497  11.033   2.695 -0.5508  0.3390 -0.6505
  202MOL0     N27186   3.616  11.059   2.730  1.1121  0.6079  0.2275
  202MOL0     C27187   3.368  11.197   3.744  0.4733 -0.2543  0.2641
  202MOL0     C27188   3.321  11.124   3.853 -0.0797 -0.5420 -0.8184
  202MOL0     C27189   3.231  10.944   4.234  1.4747 -0.3838 -0.3413
  202MOL0     C27190   3.332  10.956   4.332 -0.3605  0.5918  0.0527
  202MOL0     C27191   3.306  10.924   4.464 -0.8098  0.3131 -0.0185
  202MOL0     C27192   3.182  10.894   4.501  0.1585 -0.6352 -0.8730
  202MOL0     O27193   3.164  10.884   4.638  0.1931  0.2113 -0.0233
  202MOL0     C27194   3.045  10.822   4.694 -0.2890  0.2790 -0.7418
  202MOL0     C27195   3.068  10.741   4.822  0.4687 -1.0384  1.2675
  202MOL0     C27196   3.195  10.669   4.802 -1.1995 -0.3523 -0.0508
  202MOL0     C27197   3.226  10.571   4.915 -0.4592  0.2215 -0.4609
  202MOL0     C27198   3.197  10.620   5.051  0.4522 -0.2259 -0.7096
  202MOL0     C27199   3.191  10.675   5.162 -1.1624 -0.6615 -0.3767
  202MOL0     C27200   3.074  10.890   4.407 -0.4029  0.2241 -0.1936
  202MOL0     C27201   3.097  10.908   4.265  0.4057 -0.0681 -0.3259
  202MOL0     C27202   2.990  10.876   4.166  0.0191 -0.8247 -0.2670
  202MOL0     H27203   3.599  11.186   4.048 -0.5169 -1.1365  0.4270
  202MOL0     H27204   3.677  11.292   3.853  0.4111  0.0126  2.5932
  202MOL0     H27205   3.625  11.488   3.660  3.2628  1.1096  0.1833
  202MOL0     H27206   3.728  11.354   3.652  0.4259  2.2997 -0.1871
  202MOL0     H27207   3.742  11.524   3.452  0.1271 -0.5093 -1.4217
  202MOL0     H27208   3.575  11.475   3.407 -0.5072  1.1278 -0.8108
  202MOL0     H27209   3.665  11.243   3.389  0.9245 -0.4788  0.6735
  202MOL0     H27210   3.818  11.294   3.440 -1.1478  2.3001  2.8565
  202MOL0     H27211   3.689  11.424   3.189  0.4694 -0.8182 -1.4308
  202MOL0     H27212   3.846  11.447   3.237  0.4393 -0.7871 -2.3860
  202MOL0     H27213   3.912  11.208   3.171 -0.0715  2.9985 -0.8268
  202MOL0     H27214   3.750  11.144   3.170 -1.8819  2.0518  3.9612
  202MOL0     H27215   3.692  11.280   2.966  0.0146 -1.8188 -1.3004
  202MOL0     H27216   3.847  11.357   2.966 -2.0390  0.4558 -0.6877
  202MOL0     H27217   3.938  11.107   2.957  0.0149 -1.7589 -0.2984
  202MOL0     H27218   3.851  11.170   2.816 -2.7686 -2.7565 -0.3760
  202MOL0     H27219   3.824  10.940   2.876 -0.3257 -1.1692  1.3125
  202MOL0     H27220   3.756  10.982   3.027 -0.9088 -0.6368  0.0425
  202MOL0     H27221   3.523  10.919   3.007  2.0151 -0.4037  0.2168
  202MOL0     H27222   3.226  10.986   2.855 -0.2584  2.2783 -3.1280
  202MOL0     H27223   3.268  10.915   2.704  0.3029  0.1254  0.0545
  202MOL0     H27224   3.321  10.713   2.801  1.8251  0.0929  0.6256
  202MOL0     H27225   3.353  10.769   2.972  0.2671  0.3688  0.0411
  202MOL0     H27226   3.100  10.767   2.812  1.6961  2.4475 -0.7939
  202MOL0     H27227   3.099  10.809   2.986  2.2378 -0.6566  1.5791
  202MOL0     H27228   3.203  10.529   2.909  0.6882 -1.5525  2.4855
  202MOL0     H27229   3.026  10.564   2.909  1.1951  0.1147 -1.8071
  202MOL0     H27230   2.976  10.360   3.018 -1.5467  0.1405 -0.7622
  202MOL0     H27231   2.765  10.293   3.124 -2.4618  2.0000 -1.5897
  202MOL0     H27232   2.612  10.266   3.590  0.2217  2.6240 -0.1642
  202MOL0     H27233   2.408  10.135   3.693 -0.7938 -2.1395 -3.9025
  202MOL0     H27234   2.214  10.044   3.683  1.2036  0.5406  2.2525
  202MOL0     H27235   2.136  10.098   3.831  0.5661  0.0410  0.1079
  202MOL0     H27236   1.988  10.071   3.561  0.6849  1.6660  0.0679
  202MOL0     H27237   1.998   9.942   3.675  0.2691 -0.4009  2.1401
  202MOL0     H27238   1.870  10.078   3.839  1.2298 -3.1196 -0.9961
  202MOL0     H27239   1.898  10.231   3.749  2.0069 -0.5017 -0.7697
  202MOL0     H27240   1.739   9.983   3.649  1.6648 -0.8608  0.0541
  202MOL0     H27241   1.752  10.130   3.550 -0.7531  0.3680 -0.5242
  202MOL0     H27242   1.630  10.248   3.752  1.3381  0.0970  1.3039
  202MOL0     H27243   1.617  10.094   3.829 -2.2819  1.6991  0.4189
  202MOL0     H27244   1.417  10.163   3.692  1.1625  0.2864 -0.2773
  202MOL0     H27245   1.506  10.151   3.556 -0.3952  0.2651  1.5597
  202MOL0     H27246   1.502   9.902   3.745  1.1641 -1.5513 -0.8086
  202MOL0     H27247   1.556   9.911   3.587  1.0890  0.7815  1.7812
  202MOL0     H27248   1.266   9.989   3.667 -0.4020 -2.5532  1.2855
  202MOL0     H27249   1.336   9.999   3.497  0.3188 -0.8521 -1.4476
  202MOL0     H27250   2.163  10.459   3.555 -0.9343 -1.0826  2.4171
  202MOL0     H27251   2.343  10.573   3.456  0.8170  1.1625  2.1254
  202MOL0     H27252   2.803  10.620   3.393  1.8324  1.7206  0.4706
  202MOL0     H27253   3.007  10.695   3.297 -1.6674  0.6236  1.3343
  202MOL0     H27254   3.303  11.187   3.658  0.7578 -1.9041  0.2035
  202MOL0     H27255   3.224  11.081   3.830 -0.1380 -0.7744 -0.1625
  202MOL0     H27256   3.432  10.991   4.307 -0.9452  1.6104 -0.9713
  202MOL0     H27257   3.384  10.947   4.536 -0.5025 -0.9863  0.0920
  202MOL0     H27258   3.001  10.748   4.625  0.9978  0.3389 -1.6707
  202MOL0     H27259   2.976  10.903   4.719  2.3602  2.3323  0.2219
  202MOL0     H27260   2.985  10.670   4.833  0.8263 -1.4025  1.6239
  202MOL0     H27261   3.072  10.802   4.912  2.5894 -0.6295  0.9359
  202MOL0     H27262   3.284  10.731   4.791 -0.3168 -1.4158  0.8048
  202MOL0     H27263   3.189  10.613   4.708  1.8862  1.1653 -1.2764
  202MOL0     H27264   3.156  10.490   4.893 -0.1261  0.3023 -1.9123
  202MOL0     H27265   3.332  10.544   4.910 -0.8167 -1.8107  1.1941
  202MOL0     H27266   3.173  10.734   5.250 -0.4278  0.7930 -1.1565
  202MOL0     H27267   2.972  10.869   4.438 -0.4651 -0.3631 -0.7809
  202MOL0     H27268   2.983  10.964   4.102  3.0085  1.6026  2.4505
  202MOL0     H27269   3.023  10.792   4.103  0.2417  0.6296 -2.1956
  202MOL0     H27270   2.893  10.859   4.214 -1.1088  1.4298 -1.5832
  203MOL0     O27271   0.968   9.237   3.257  0.6674  0.6280  0.6403
  203MOL0     C27272   0.891   9.161   3.317  0.3128  0.0465 -0.0632
  203MOL0     O27273   0.908   9.144   3.457 -0.2739 -0.8106 -0.2107
  203MOL0     C27274   0.992   9.217   3.545 -0.3250  0.0455  0.0308
  203MOL0     C27275   1.001   9.171   3.675  0.1576  0.5287 -0.1159
  203MOL0     C27276   1.088   9.235   3.764  0.6709  0.5484 -0.1106
  203MOL0     C27277   1.153   9.350   3.722 -0.7192  0.5845 -0.2463
  203MOL0     O27278   1.227   9.412   3.828 -0.8342  0.2273  0.1257
  203MOL0     C27279   1.281   9.549   3.816  0.8996  0.3886 -0.9117
  203MOL0     C27280   1.346   9.581   3.955  0.5508  0.5337  0.3147
  203MOL0     C27281   1.373   9.729   3.964 -0.0551 -0.6055  0.1620
  203MOL0     C27282   1.249   9.812   4.000 -0.7193 -1.0699 -0.3048
  203MOL0     C27283   1.295   9.958   3.982  0.3758  0.1110 -0.2152
  203MOL0     C27284   1.237  10.058   4.098 -0.4837  0.4452  0.7576
  203MOL0     C27285   1.080  10.034   4.104  0.1302  0.1602  0.4383
  203MOL0     C27286   1.019  10.163   4.156 -0.5448 -0.2080 -0.4114
  203MOL0     N27287   0.890  10.130   4.196  0.0528  0.5756 -0.3748
  203MOL0     C27288   0.861  10.101   4.332 -0.3709  0.6769 -0.5024
  203MOL0     C27289   0.751  10.025   4.324 -0.0639 -0.0943 -0.3724
  203MOL0     C27290   0.671   9.980   4.447 -0.2748  0.5401 -0.9697
  203MOL0     C27291   0.560  10.078   4.468  0.3061  0.1891  0.8390
  203MOL0     C27292   0.613  10.222   4.503  0.5726 -0.3067 -0.0655
  203MOL0     C27293   0.508  10.321   4.529  0.2063  0.8775 -0.2471
  203MOL0     O27294   0.527  10.396   4.654  0.4290 -0.4466  0.3830
  203MOL0     C27295   0.478  10.348   4.763  0.6773 -0.0700  0.7957
  203MOL0     C27296   0.406  10.227   4.770  0.9664  0.4030  0.6776
  203MOL0     C27297   0.355  10.171   4.886 -0.3722  0.1951  0.1064
  203MOL0     C27298   0.387  10.231   5.006 -0.2475  0.5442  0.3593
  203MOL0     C27299   0.330  10.158   5.128  0.3028 -1.0984 -0.5951
  203MOL0     O27300   0.213  10.090   5.123  0.0872 -0.5355 -0.5740
  203MOL0     C27301   0.161  10.022   5.231 -0.2483  0.1523 -0.4366
  203MOL0     C27302   0.020  10.018   5.249 -1.2986 -0.4192  0.1228
  203MOL0     C27303  -0.037   9.972   5.362  0.2159 -0.1112  0.0531
  203MOL0     C27304   0.043   9.904   5.454  0.5564  0.4737 -0.8640
  203MOL0     O27305  -0.016   9.847   5.568  0.1283 -0.1712  0.1038
  203MOL0     C27306   0.016   9.712   5.597  0.6200 -1.0678 -0.4720
  203MOL0     C27307  -0.074   9.650   5.708 -0.0479 -0.7317  0.1677
  203MOL0     C27308  -0.209   9.607   5.642  0.5766  0.1749  0.7915
  203MOL0     C27309  -0.287   9.558   5.763  0.0109  0.3386 -1.3266
  203MOL0     C27310  -0.434   9.512   5.741  0.1621 -0.5504  0.2715
  203MOL0     C27311  -0.521   9.507   5.866 -0.8983 -0.2545 -0.4548
  203MOL0     C27312  -0.650   9.428   5.861  0.1195 -0.0654 -0.4355
  203MOL0     C27313  -0.630   9.279   5.890 -0.2493 -0.2447 -0.3262
  203MOL0    Cl27314  -0.781   9.205   5.947 -0.0125  0.1005  0.9117
  203MOL0     C27315   0.183   9.899   5.436  0.0714 -0.8968 -0.3018
  203MOL0     C27316   0.241   9.962   5.326 -0.3106  0.1429  0.1807
  203MOL0     O27317   0.387  10.195   5.232  0.5646  0.1736  0.2231
  203MOL0     C27318   0.463  10.350   5.012  0.6241 -0.0088  0.4702
  203MOL0     C27319   0.509  10.404   4.889 -0.1434  0.3479 -0.2168
  203MOL0     N27320   0.700  10.031   4.190 -0.5105  0.1306  0.0084
  203MOL0     N27321   0.781  10.099   4.115 -0.6155 -0.1306 -0.0328
  203MOL0     C27322   1.144   9.402   3.597 -0.3435  0.1592 -0.2142
  203MOL0     C27323   1.062   9.331   3.504  0.7019 -0.6982 -1.0071
  203MOL0     C27324   0.766   9.107   3.250  0.4571 -1.1637 -1.1214
  203MOL0     C27325   0.706   8.999   3.315 -0.4544  1.6520 -0.1644
  203MOL0     C27326   0.601   8.920   3.269 -0.7059  1.2006  0.0780
  203MOL0     C27327   0.534   8.965   3.160 -0.0476  0.3950  0.5013
  203MOL0     O27328   0.431   8.904   3.104 -0.5094 -0.4751 -0.2909
  203MOL0     C27329   0.401   8.769   3.133  0.5446 -0.6214 -0.1318
  203MOL0     C27330   0.292   8.725   3.029  0.9337  0.5004 -0.1871
  203MOL0     C27331   0.153   8.765   3.072  0.9674 -0.1718  0.2419
  203MOL0     C27332   0.042   8.678   3.020 -0.0323  0.5454  0.4745
  203MOL0     C27333   0.013   8.701   2.879  0.0517  0.3930  0.7658
  203MOL0     C27334   0.020   8.747   2.765  0.5404  0.3256  0.5493
  203MOL0     C27335   0.579   9.090   3.099 -0.1009 -0.6217 -0.2337
  203MOL0     C27336   0.691   9.160   3.140 -0.2699  0.7429 -0.4446
  203MOL0     C27337   0.725   9.290   3.085  0.6388 -0.1820  0.0600
  203MOL0     H27338   0.934   9.092   3.707  1.2949  0.2793  1.8178
  203MOL0     H27339   1.086   9.214   3.871 -2.0854  3.1536  0.4750
  203MOL0     H27340   1.357   9.543   3.738 -0.7764 -0.1280 -2.5724
  203MOL0     H27341   1.197   9.617   3.795  0.6411 -0.5488 -3.1328
  203MOL0     H27342   1.448   9.541   3.964  0.8267  1.2131  0.2945
  203MOL0     H27343   1.286   9.549   4.040  0.1366 -0.4131 -0.3192
  203MOL0     H27344   1.414   9.769   3.871 -3.8432  0.3780 -1.2517
  203MOL0     H27345   1.441   9.744   4.049 -1.0867  0.0913  0.8957
  203MOL0     H27346   1.163   9.777   3.942 -2.1077 -1.9378  2.1221
  203MOL0     H27347   1.229   9.804   4.107  4.3180  1.3047  1.1390
  203MOL0     H27348   1.403   9.979   3.980  0.1508  1.9681  2.4454
  203MOL0     H27349   1.255   9.996   3.887 -2.2675 -0.5270  0.5625
  203MOL0     H27350   1.268  10.030   4.199 -0.6426 -0.2700  0.6160
  203MOL0     H27351   1.269  10.159   4.073  2.5965 -1.0720 -2.1905
  203MOL0     H27352   1.054   9.947   4.163  0.5572  0.5748  1.2565
  203MOL0     H27353   1.031  10.005   4.011  1.0613 -1.9517  0.5501
  203MOL0     H27354   1.074  10.205   4.241  1.0396 -5.1739  1.3701
  203MOL0     H27355   1.013  10.230   4.070  3.5283 -0.3929 -1.0696
  203MOL0     H27356   0.915  10.119   4.425  0.0861 -1.7134 -0.2277
  203MOL0     H27357   0.633   9.877   4.444 -1.6253  0.9142  1.2456
  203MOL0     H27358   0.737   9.986   4.534  0.6363  1.7332 -1.7077
  203MOL0     H27359   0.496  10.085   4.380 -1.1095 -0.6408  1.7585
  203MOL0     H27360   0.498  10.042   4.551 -1.1509 -2.8485 -1.3583
  203MOL0     H27361   0.673  10.255   4.418  2.9773 -1.1504  1.2148
  203MOL0     H27362   0.683  10.212   4.587  1.2195 -2.9043 -0.8293
  203MOL0     H27363   0.415  10.263   4.521  0.7501 -0.5432  2.5798
  203MOL0     H27364   0.506  10.397   4.451 -1.3841 -0.3805 -1.5136
  203MOL0     H27365   0.359  10.171   4.689 -1.3836  2.7488  0.2832
  203MOL0     H27366   0.290  10.086   4.867  0.5621 -0.0229 -2.5732
  203MOL0     H27367  -0.038  10.055   5.165 -1.0630 -1.1472 -0.3697
  203MOL0     H27368  -0.143   9.978   5.387  0.3842  0.3002  0.6896
  203MOL0     H27369   0.016   9.648   5.508 -0.6326  0.4018 -1.5989
  203MOL0     H27370   0.118   9.713   5.637 -0.7449  0.0816  3.4575
  203MOL0     H27371  -0.017   9.560   5.733 -1.4947 -1.1936  2.0071
  203MOL0     H27372  -0.086   9.722   5.790  0.0043  2.5598 -2.4903
  203MOL0     H27373  -0.260   9.689   5.589  2.6159  0.7052 -0.4901
  203MOL0     H27374  -0.199   9.532   5.563 -0.2495  1.2869 -0.4184
  203MOL0     H27375  -0.304   9.636   5.838 -1.0748 -1.5781  0.5551
  203MOL0     H27376  -0.227   9.478   5.809 -2.3831 -0.2387  1.0973
  203MOL0     H27377  -0.438   9.419   5.684  0.8184 -0.3066 -0.1916
  203MOL0     H27378  -0.493   9.579   5.678 -3.6732  0.5056  4.4677
  203MOL0     H27379  -0.459   9.466   5.946 -0.7699  0.6064 -0.1056
  203MOL0     H27380  -0.537   9.610   5.898  1.2531  0.4098 -1.2961
  203MOL0     H27381  -0.706   9.432   5.768 -0.0229  0.9195 -0.3240
  203MOL0     H27382  -0.718   9.467   5.938  1.2259 -0.4072  0.7390
  203MOL0     H27383  -0.577   9.236   5.805  3.3134 -0.5946  1.8447
  203MOL0     H27384  -0.565   9.268   5.977 -2.5701 -1.2547  1.3867
  203MOL0     H27385   0.254   9.849   5.500 -1.3963 -0.9179  1.3867
  203MOL0     H27386   0.346   9.961   5.301 -0.2754 -1.3508  0.3094
  203MOL0     H27387   0.480  10.398   5.107 -0.9745  2.7041 -0.4910
  203MOL0     H27388   0.575  10.490   4.895  2.5010 -1.5421 -0.3601
  203MOL0     H27389   1.204   9.486   3.564 -0.5882  1.4262  2.2997
  203MOL0     H27390   1.062   9.375   3.405 -0.2776 -2.4915 -1.8606
  203MOL0     H27391   0.747   8.967   3.410 -1.6775 -1.7268 -0.6392
  203MOL0     H27392   0.567   8.833   3.325 -0.0037  0.6122 -0.3970
  203MOL0     H27393   0.385   8.745   3.238  0.1899 -1.0806 -0.2865
  203MOL0     H27394   0.488   8.715   3.093  0.5052  0.6602 -2.0853
  203MOL0     H27395   0.286   8.616   3.022  0.7829  0.3410  1.8350
  203MOL0     H27396   0.307   8.760   2.927  0.0175 -0.6384 -0.7342
  203MOL0     H27397   0.149   8.866   3.031  4.2307 -1.0437 -2.6542
  203MOL0     H27398   0.149   8.757   3.181 -0.5569  0.1181  0.2289
  203MOL0     H27399   0.066   8.573   3.039 -1.1345 -0.2580 -2.1811
  203MOL0     H27400  -0.056   8.706   3.061 -0.2429  1.0870 -0.3837
  203MOL0     H27401   0.020   8.791   2.667 -0.8897 -0.9967 -0.0784
  203MOL0     H27402   0.524   9.135   3.016 -2.4096  1.8939  2.4434
  203MOL0     H27403   0.664   9.317   2.999  0.2197  2.1181  1.0112
  203MOL0     H27404   0.710   9.356   3.171  0.8660 -1.0610  0.8000
  203MOL0     H27405   0.826   9.290   3.044 -0.7713 -4.1154 -4.1940
  204MOL0     O27406   0.578   0.704   6.200  0.6155  1.2783 -0.2004
  204MOL0     C27407   0.536   0.818   6.219 -0.8786 -0.6354 -0.3988
  204MOL0     O27408   0.619   0.929   6.228  0.0599  0.0940  0.0073
  204MOL0     C27409   0.753   0.914   6.226 -1.1840  0.7993 -0.4583
  204MOL0     C27410   0.830   0.923   6.354 -0.0514  0.1734 -0.0446
  204MOL0     C27411   0.969   0.936   6.331  0.2904  0.4397  0.1604
  204MOL0     C27412   1.043   0.935   6.212 -0.5985  0.1966 -0.3467
  204MOL0     O27413   1.180   0.910   6.217 -0.3729  0.0595 -1.0707
  204MOL0     C27414   1.246   0.979   6.112 -1.3949  0.3623 -0.1072
  204MOL0     C27415   1.237   1.130   6.110 -0.4611 -0.2249 -0.1267
  204MOL0     C27416   1.271   1.215   6.235 -1.0684  1.1893 -0.3695
  204MOL0     C27417   1.428   1.222   6.265 -0.2296  0.2080 -0.2630
  204MOL0     C27418   1.452   1.256   6.412  0.2510  0.2275  0.5609
  204MOL0     C27419   1.606   1.265   6.444  0.1821 -1.0555  0.7226
  204MOL0     C27420   1.616   1.331   6.588  0.1731 -0.2567 -0.2487
  204MOL0     C27421   1.758   1.357   6.622 -1.1013  0.3024  0.4868
  204MOL0     N27422   1.772   1.474   6.710 -0.1222 -0.1297 -0.7265
  204MOL0     C27423   1.823   1.482   6.838  0.7460 -0.2823  0.3483
  204MOL0     C27424   1.814   1.609   6.870 -0.4055 -0.5237 -0.3683
  204MOL0     C27425   1.862   1.662   7.004  1.1184  0.2894 -0.1643
  204MOL0     C27426   1.857   1.820   7.008 -0.0582 -1.1652  0.4069
  204MOL0     C27427   1.973   1.883   6.936 -0.0434 -0.2137 -0.5373
  204MOL0     C27428   2.020   2.024   6.976  0.4272 -0.7314 -0.3508
  204MOL0     O27429   1.907   2.117   6.978  0.1934  0.7607 -0.0762
  204MOL0     C27430   1.927   2.251   6.985 -0.1887  0.9657 -0.3540
  204MOL0     C27431   1.814   2.330   6.974  0.0814 -0.1001  0.4657
  204MOL0     C27432   1.814   2.466   7.002  0.0195  0.7500  0.6894
  204MOL0     C27433   1.936   2.532   7.030  0.0011  0.4360 -0.0426
  204MOL0     C27434   1.943   2.680   7.048 -0.5500 -0.0908  0.5997
  204MOL0     O27435   1.847   2.757   7.004 -0.3228 -0.1050 -0.1219
  204MOL0     C27436   1.858   2.890   6.989  0.1891 -0.4339 -0.6247
  204MOL0     C27437   1.974   2.957   6.962 -0.3554  0.7778  0.0014
  204MOL0     C27438   1.983   3.087   6.943 -0.6990  0.2587  0.7205
  204MOL0     C27439   1.875   3.176   6.947  0.4078 -1.0203  0.0163
  204MOL0     O27440   1.882   3.306   6.903 -0.5566  0.0562 -0.0379
  204MOL0     C27441   1.866   3.301   6.757 -0.3466  0.0500 -0.2263
  204MOL0     C27442   1.840   3.442   6.707 -0.0847 -0.1883 -0.1459
  204MOL0     C27443   1.883   3.462   6.561  0.2898  0.8551 -0.3513
  204MOL0     C27444   1.842   3.593   6.517  0.1160 -1.2017  0.8253
  204MOL0     C27445   1.828   3.606   6.364 -0.3977 -0.5690 -0.0514
  204MOL0     C27446   1.968   3.619   6.302 -0.5550 -0.2416 -0.0847
  204MOL0     C27447   1.960   3.644   6.145  0.4878  0.8167  0.5084
  204MOL0     C27448   1.889   3.539   6.058 -0.7573 -0.0037 -0.2142
  204MOL0    Cl27449   1.952   3.375   6.099 -0.1174  0.1747  0.1662
  204MOL0     C27450   1.749   3.115   6.973  0.1492  0.5130  0.3653
  204MOL0     C27451   1.741   2.968   6.991 -0.8775 -1.1291 -0.4586
  204MOL0     O27452   2.041   2.714   7.114 -0.1490 -0.5368  0.0790
  204MOL0     C27453   2.053   2.447   7.018  0.5465 -0.9414 -1.6412
  204MOL0     C27454   2.041   2.312   7.024  0.4767  0.0569  0.4821
  204MOL0     N27455   1.762   1.681   6.766 -0.3724 -0.1663 -0.3590
  204MOL0     N27456   1.732   1.598   6.674 -0.5926 -0.4802 -1.2109
  204MOL0     C27457   0.967   0.938   6.100 -0.6272  0.2582 -0.5138
  204MOL0     C27458   0.827   0.924   6.105  0.5593 -0.1994 -0.1396
  204MOL0     C27459   0.389   0.831   6.228  0.2186  0.1360 -0.6986
  204MOL0     C27460   0.313   0.719   6.277 -0.1548 -0.1172  0.7336
  204MOL0     C27461   0.177   0.738   6.304  0.3559  0.2330 -0.5683
  204MOL0     C27462   0.111   0.854   6.268  0.2995 -0.3864  0.5778
  204MOL0     O27463  -0.020   0.850   6.286  0.1778  0.0359  0.2032
  204MOL0     C27464  -0.054   0.937   6.403  0.3312  0.4111 -0.4137
  204MOL0     C27465  -0.168   1.035   6.368  0.2273 -0.3927 -0.3967
  204MOL0     C27466  -0.305   0.978   6.333  0.3329 -0.4814  0.7471
  204MOL0     C27467  -0.364   0.869   6.432  1.0164 -0.1606 -0.0028
  204MOL0     C27468  -0.393   0.937   6.557  0.0877 -0.1460  0.6006
  204MOL0     C27469  -0.420   1.000   6.656 -0.1553  0.7334  0.7793
  204MOL0     C27470   0.178   0.961   6.217  0.2980  0.4590  0.5455
  204MOL0     C27471   0.318   0.952   6.203 -0.1306 -1.3530 -0.3289
  204MOL0     C27472   0.386   1.080   6.161  0.0016 -0.4635  0.6150
  204MOL0     H27473   0.775   0.910   6.447 -2.2122 -0.8257 -1.3726
  204MOL0     H27474   1.040   0.937   6.412  1.1505 -1.2009 -0.5327
  204MOL0     H27475   1.352   0.953   6.116 -2.1081 -3.4355 -1.7046
  204MOL0     H27476   1.223   0.943   6.011  0.6596 -1.4501  0.0047
  204MOL0     H27477   1.134   1.158   6.088 -1.1594 -1.5540  1.2431
  204MOL0     H27478   1.305   1.153   6.028  0.1106 -0.7413  0.1885
  204MOL0     H27479   1.223   1.169   6.322  3.2259 -1.2973  1.0025
  204MOL0     H27480   1.228   1.316   6.233  1.3308  2.3281  1.0671
  204MOL0     H27481   1.464   1.120   6.248  1.8103  0.7629  0.4643
  204MOL0     H27482   1.483   1.284   6.194  2.0798 -2.1440 -0.6948
  204MOL0     H27483   1.402   1.353   6.425 -2.2845 -0.3084 -3.4041
  204MOL0     H27484   1.408   1.185   6.482  0.0704  1.9169  2.2703
  204MOL0     H27485   1.660   1.170   6.446  3.7688  0.7521 -0.2791
  204MOL0     H27486   1.659   1.323   6.368 -1.5290 -0.6578 -0.2156
  204MOL0     H27487   1.571   1.263   6.661  0.7195 -0.1206  0.2223
  204MOL0     H27488   1.562   1.427   6.586 -0.9318 -0.8051  1.1900
  204MOL0     H27489   1.804   1.284   6.689  1.9745  1.4851 -0.1709
  204MOL0     H27490   1.827   1.361   6.538  1.2866 -2.1150  2.1750
  204MOL0     H27491   1.856   1.398   6.897 -1.6473 -2.4231 -1.1321
  204MOL0     H27492   1.786   1.623   7.072 -0.0890  1.2169 -0.9388
  204MOL0     H27493   1.950   1.613   7.046 -0.6541 -1.4425  1.7604
  204MOL0     H27494   1.765   1.852   6.959  1.0436 -2.5702 -2.9302
  204MOL0     H27495   1.862   1.838   7.115 -0.3513 -1.3960  0.4628
  204MOL0     H27496   1.942   1.893   6.831 -0.3168  0.6625 -0.3761
  204MOL0     H27497   2.052   1.808   6.944  0.5430  0.1445 -2.3161
  204MOL0     H27498   2.098   2.052   6.905  2.0161 -0.7666  1.3307
  204MOL0     H27499   2.069   2.024   7.074 -0.4362 -3.3351  0.1611
  204MOL0     H27500   1.713   2.300   6.947 -0.1828  0.1353  1.1829
  204MOL0     H27501   1.717   2.514   6.994 -0.5423 -0.6390 -2.2373
  204MOL0     H27502   2.067   2.903   6.951 -0.3727  0.3150  1.8425
  204MOL0     H27503   2.083   3.122   6.923 -0.7718 -0.7186 -1.7104
  204MOL0     H27504   1.959   3.265   6.711  0.0445 -0.1360  0.6771
  204MOL0     H27505   1.782   3.237   6.727  0.6312 -1.3128 -0.1653
  204MOL0     H27506   1.739   3.474   6.730 -0.2467 -0.4409 -0.4951
  204MOL0     H27507   1.905   3.505   6.768  0.8055 -2.5291  1.4644
  204MOL0     H27508   1.991   3.444   6.554 -0.0879 -3.1198  1.1405
  204MOL0     H27509   1.830   3.389   6.500  1.3480 -1.1027  0.9448
  204MOL0     H27510   1.913   3.672   6.543 -0.6903  1.3106 -3.5759
  204MOL0     H27511   1.746   3.607   6.566 -0.1818 -2.7107  0.7128
  204MOL0     H27512   1.772   3.697   6.339  0.0510 -1.0884 -3.5321
  204MOL0     H27513   1.777   3.524   6.311 -0.7053  2.1944 -4.5995
  204MOL0     H27514   2.026   3.706   6.334  1.1512 -0.1665 -3.0251
  204MOL0     H27515   2.010   3.520   6.321 -4.2508 -1.7992  0.8050
  204MOL0     H27516   2.064   3.651   6.111  1.4489 -4.4539  1.5746
  204MOL0     H27517   1.897   3.732   6.128 -0.6511  0.0343  0.5458
  204MOL0     H27518   1.781   3.540   6.075 -0.9422  0.6062 -1.3541
  204MOL0     H27519   1.905   3.564   5.952  2.0637 -0.2003  0.0920
  204MOL0     H27520   1.654   3.166   6.984 -0.1178  0.6334 -1.8592
  204MOL0     H27521   1.647   2.922   7.021  0.5330 -2.1570  2.8132
  204MOL0     H27522   2.151   2.492   7.029 -1.1575  2.4924  1.3639
  204MOL0     H27523   2.125   2.245   7.036  1.5277  0.8975 -1.7072
  204MOL0     H27524   1.008   0.935   5.999 -1.7818  0.9519 -1.0241
  204MOL0     H27525   0.774   0.937   6.011  0.2618  1.9481  0.2703
  204MOL0     H27526   0.363   0.625   6.293  3.8057  1.9022  1.3010
  204MOL0     H27527   0.127   0.660   6.360  2.1787 -1.2322 -0.9004
  204MOL0     H27528   0.033   0.996   6.432  1.3437  1.4763 -4.8124
  204MOL0     H27529  -0.084   0.878   6.489  0.2191 -0.9265 -1.3443
  204MOL0     H27530  -0.138   1.102   6.286 -0.4740  1.8490  1.0699
  204MOL0     H27531  -0.184   1.087   6.463 -0.0111 -0.8855 -0.1633
  204MOL0     H27532  -0.298   0.936   6.233  0.4544  2.9460 -0.8059
  204MOL0     H27533  -0.375   1.060   6.319  0.5846 -0.7900 -3.2531
  204MOL0     H27534  -0.454   0.823   6.391  0.5592  1.9338 -1.5256
  204MOL0     H27535  -0.281   0.798   6.441  1.4252  0.3330  0.1523
  204MOL0     H27536  -0.437   1.045   6.752 -0.0894 -0.4427  1.3568
  204MOL0     H27537   0.130   1.056   6.196 -0.3269 -0.2313 -1.4266
  204MOL0     H27538   0.315   1.150   6.116  0.5368  0.2188  0.8047
  204MOL0     H27539   0.423   1.132   6.250 -3.3697  0.4744  1.6239
  204MOL0     H27540   0.466   1.059   6.089 -2.5080  1.4818 -3.0638
  205MOL0     O27541   5.553   0.701   0.909  0.0460 -0.2911 -1.0062
  205MOL0     C27542   5.480   0.696   0.813  0.0119  0.3611  0.1239
  205MOL0     O27543   5.508   0.745   0.683 -0.0101 -0.1273 -0.1585
  205MOL0     C27544   5.635   0.794   0.659  0.3061 -0.8794  0.5556
  205MOL0     C27545   5.653   0.932   0.688 -0.4848  0.0458  0.7157
  205MOL0     C27546   5.779   0.991   0.655 -0.8017 -0.6240  0.6364
  205MOL0     C27547   5.888   0.914   0.613  0.6345  0.4545  0.5333
  205MOL0     O27548   6.003   0.982   0.594 -1.0242 -0.1632  0.1386
  205MOL0     C27549   6.123   0.913   0.572 -0.5390 -0.4852 -0.7287
  205MOL0     C27550   6.231   1.012   0.535 -0.2837 -0.5055 -0.0552
  205MOL0     C27551   6.247   1.142   0.608  0.1559  0.6158  0.0827
  205MOL0     C27552   6.362   1.228   0.564 -0.2813  0.0323 -0.9372
  205MOL0     C27553   6.406   1.335   0.667  0.6897 -0.9650  0.0030
  205MOL0     C27554   6.497   1.300   0.781  0.0523  0.2838  0.1717
  205MOL0     C27555   6.641   1.270   0.735  0.4975  0.2160 -0.2841
  205MOL0     C27556   6.709   1.197   0.851  0.8241 -0.2371  0.3210
  205MOL0     N27557   6.836   1.145   0.796  0.0299  0.2356 -0.0486
  205MOL0     C27558   6.847   1.048   0.702 -0.0539 -0.5223  0.1431
  205MOL0     C27559   6.974   1.054   0.665  0.9292  1.3741 -0.5375
  205MOL0     C27560   7.016   0.994   0.538  0.3069 -0.7617  0.6317
  205MOL0     C27561   7.007   1.088   0.420 -0.8423  0.1833  0.1354
  205MOL0     C27562   7.044   1.023   0.291  0.2758 -0.8251  0.7757
  205MOL0     C27563   7.179   0.947   0.301  0.0931 -0.6443  0.3022
  205MOL0     O27564   7.224   0.903   0.163  0.5852  0.2652 -0.1803
  205MOL0     C27565   7.325   0.808   0.168 -0.1232  0.3660  0.7694
  205MOL0     C27566   7.358   0.755   0.045  0.4115 -0.4150  0.0044
  205MOL0     C27567   7.452   0.656   0.032 -1.1864 -0.1490 -0.3309
  205MOL0     C27568   7.516   0.597   0.139  1.3656 -0.2467 -0.1189
  205MOL0     C27569   7.612   0.495   0.120  0.2038  0.1146  0.8668
  205MOL0     O27570   7.661   0.473  -0.015 -0.5967  0.1563 -0.1108
  205MOL0     C27571   7.705   0.347  -0.037 -0.1885 -0.1065  0.3112
  205MOL0     C27572   7.634   0.288  -0.139 -0.5685  0.2866  0.0225
  205MOL0     C27573   7.666   0.160  -0.181 -0.3947  0.3735 -0.3467
  205MOL0     C27574   7.755   0.081  -0.107  0.7134  0.1716  0.1968
  205MOL0     O27575   7.789  -0.048  -0.138  0.5637  0.2812  0.6760
  205MOL0     C27576   7.790  -0.098  -0.274 -0.3042 -0.7565  0.9300
  205MOL0     C27577   7.654  -0.162  -0.302  0.5575 -0.8968  0.2505
  205MOL0     C27578   7.644  -0.302  -0.242  0.1063 -0.4052 -0.1904
  205MOL0     C27579   7.499  -0.356  -0.228 -0.1866 -0.7280 -0.4683
  205MOL0     C27580   7.500  -0.496  -0.167 -0.4029 -0.3232 -1.2372
  205MOL0     C27581   7.367  -0.568  -0.191  0.7198 -0.6719 -0.3053
  205MOL0     C27582   7.241  -0.502  -0.117  0.1645 -0.7698  0.0394
  205MOL0     C27583   7.116  -0.598  -0.133  0.7065 -0.3018 -0.1152
  205MOL0    Cl27584   6.968  -0.535  -0.055 -0.0011 -0.0121 -0.6518
  205MOL0     C27585   7.833   0.146  -0.007  0.2137  0.3154 -0.1327
  205MOL0     C27586   7.800   0.274   0.032  0.0751 -0.4072 -0.3731
  205MOL0     O27587   7.648   0.425   0.208 -0.6609 -0.1354 -0.4400
  205MOL0     C27588   7.472   0.636   0.269  0.1553 -0.1497  0.3166
  205MOL0     C27589   7.384   0.747   0.280 -0.0382 -0.4055 -0.4127
  205MOL0     N27590   7.041   1.145   0.733  0.4660  0.0365 -0.3784
  205MOL0     N27591   6.961   1.200   0.810 -0.0251  0.2305 -0.2233
  205MOL0     C27592   5.854   0.779   0.576 -0.0663  0.2162  0.5793
  205MOL0     C27593   5.729   0.722   0.600 -0.1736  0.4325  0.6813
  205MOL0     C27594   5.348   0.627   0.837 -0.2340 -0.0584 -0.0144
  205MOL0     C27595   5.298   0.631   0.968 -0.7307 -0.9661 -0.2426
  205MOL0     C27596   5.184   0.564   1.003 -0.0529  0.2201  0.5402
  205MOL0     C27597   5.109   0.490   0.900  0.0465  0.8961 -0.3122
  205MOL0     O27598   4.994   0.426   0.917 -0.3493 -0.9237 -0.5223
  205MOL0     C27599   4.876   0.499   0.951  0.4386  0.3882 -0.2938
  205MOL0     C27600   4.766   0.396   0.936 -0.0963  0.2050 -0.9752
  205MOL0     C27601   4.730   0.365   0.793 -0.1155 -0.5391 -0.8725
  205MOL0     C27602   4.578   0.363   0.775  1.2167  0.9212 -0.1329
  205MOL0     C27603   4.532   0.278   0.666  0.0992 -0.8058  0.2505
  205MOL0     C27604   4.486   0.207   0.571  0.1910  0.2028 -0.2676
  205MOL0     C27605   5.170   0.484   0.774 -0.4940  0.1487 -0.4799
  205MOL0     C27606   5.289   0.550   0.737  0.6763 -0.4425  0.1166
  205MOL0     C27607   5.353   0.520   0.600  0.6662 -0.3958  0.0920
  205MOL0     H27608   5.578   1.002   0.723  0.7116 -0.0274  3.7118
  205MOL0     H27609   5.787   1.099   0.656 -2.6507 -0.4623  0.2302
  205MOL0     H27610   6.157   0.871   0.667  1.0548  1.7574 -0.2133
  205MOL0     H27611   6.123   0.836   0.495  1.2041 -2.0527  0.7551
  205MOL0     H27612   6.200   1.037   0.433  1.3200 -2.6355 -1.1552
  205MOL0     H27613   6.329   0.964   0.530 -0.2410 -0.3740 -0.5926
  205MOL0     H27614   6.257   1.124   0.715 -1.9925  2.1289  0.6068
  205MOL0     H27615   6.158   1.205   0.602  0.8529  1.6477  0.2896
  205MOL0     H27616   6.450   1.165   0.547  0.7148  1.6684 -2.1614
  205MOL0     H27617   6.342   1.286   0.473  0.9308  2.0783  0.0190
  205MOL0     H27618   6.459   1.413   0.611  1.0223 -1.2874 -0.1381
  205MOL0     H27619   6.327   1.393   0.716  1.3066  1.8656 -2.1213
  205MOL0     H27620   6.506   1.386   0.848 -0.9728 -1.0331  2.1006
  205MOL0     H27621   6.453   1.227   0.849  1.7876  0.6448  1.7668
  205MOL0     H27622   6.684   1.363   0.696 -1.2095  1.5297  0.7785
  205MOL0     H27623   6.633   1.191   0.661  0.5242 -0.3069  0.2638
  205MOL0     H27624   6.730   1.278   0.921 -2.2631 -0.0393  1.1505
  205MOL0     H27625   6.651   1.116   0.898  1.7739 -0.0579  1.8576
  205MOL0     H27626   6.768   0.995   0.650 -0.5150  0.5426 -0.2781
  205MOL0     H27627   7.120   0.961   0.550  0.5666 -0.1276  0.1698
  205MOL0     H27628   6.950   0.911   0.512 -0.1526 -0.7464  1.6877
  205MOL0     H27629   6.907   1.127   0.401 -0.4620  0.3585 -1.6450
  205MOL0     H27630   7.076   1.171   0.434 -1.2429  0.4033  0.8919
  205MOL0     H27631   7.062   1.091   0.207  1.2093 -1.3570  0.5405
  205MOL0     H27632   6.956   0.965   0.260  0.3058 -0.7821  0.6077
  205MOL0     H27633   7.170   0.859   0.366 -1.3586 -0.5822  0.2307
  205MOL0     H27634   7.255   1.016   0.337 -0.8323  1.4680 -1.5200
  205MOL0     H27635   7.299   0.777  -0.044 -0.8578 -0.8066  0.7224
  205MOL0     H27636   7.484   0.641  -0.071 -0.9430  0.8533 -0.4146
  205MOL0     H27637   7.553   0.338  -0.191 -1.2646 -1.1491 -0.3348
  205MOL0     H27638   7.617   0.112  -0.266 -0.5784  1.3014 -0.7771
  205MOL0     H27639   7.816  -0.016  -0.342 -1.5747 -0.4988  0.7231
  205MOL0     H27640   7.873  -0.168  -0.284  0.6828  0.4095  0.6730
  205MOL0     H27641   7.573  -0.100  -0.261 -0.2051 -1.0080 -1.0324
  205MOL0     H27642   7.644  -0.175  -0.410  2.9108  0.1854 -0.1634
  205MOL0     H27643   7.702  -0.371  -0.303  0.4274  0.6743 -1.1350
  205MOL0     H27644   7.699  -0.297  -0.148  3.2663 -1.3910 -1.8667
  205MOL0     H27645   7.446  -0.362  -0.323 -0.2379  1.1915 -0.6008
  205MOL0     H27646   7.451  -0.279  -0.167 -1.0289 -0.8671 -0.9486
  205MOL0     H27647   7.520  -0.500  -0.060  1.8361 -4.0250 -1.5999
  205MOL0     H27648   7.583  -0.552  -0.211 -0.1979 -0.1973 -1.0071
  205MOL0     H27649   7.338  -0.564  -0.296  4.6842  1.8286 -1.5174
  205MOL0     H27650   7.386  -0.669  -0.153  0.0082 -0.1556  1.5547
  205MOL0     H27651   7.244  -0.400  -0.156  1.7393 -0.8647 -0.1445
  205MOL0     H27652   7.273  -0.491  -0.013 -0.9745 -3.0653  0.6967
  205MOL0     H27653   7.106  -0.622  -0.239  0.3424 -0.8673  0.0408
  205MOL0     H27654   7.145  -0.691  -0.082 -0.5826 -0.1346  0.9769
  205MOL0     H27655   7.922   0.097   0.032  1.1376  2.0298  0.0195
  205MOL0     H27656   7.851   0.321   0.115  0.1867  0.5813 -0.9814
  205MOL0     H27657   7.505   0.573   0.351  0.3961 -1.8945 -1.0648
  205MOL0     H27658   7.336   0.774   0.373 -1.5399  1.1051 -1.5656
  205MOL0     H27659   5.925   0.722   0.518  0.7122  2.7913 -1.1398
  205MOL0     H27660   5.702   0.620   0.577 -0.6934  0.7140  0.0045
  205MOL0     H27661   5.341   0.679   1.054 -1.6963  2.4165 -1.4764
  205MOL0     H27662   5.124   0.578   1.093 -0.8944 -1.5026  0.2956
  205MOL0     H27663   4.859   0.581   0.881 -0.7959 -2.9350 -4.2902
  205MOL0     H27664   4.880   0.535   1.055  3.8278  0.0536 -0.1785
  205MOL0     H27665   4.671   0.432   0.979 -0.2798 -1.7380  0.3524
  205MOL0     H27666   4.795   0.303   0.986 -1.0783  0.8171  0.8389
  205MOL0     H27667   4.772   0.266   0.775  0.9764 -0.4121  0.7159
  205MOL0     H27668   4.764   0.450   0.733 -0.1296  1.8209  2.1798
  205MOL0     H27669   4.521   0.320   0.858  0.4982 -0.2957 -1.2263
  205MOL0     H27670   4.543   0.466   0.767  3.2600  1.6561 -0.1737
  205MOL0     H27671   4.452   0.142   0.493  0.2588 -1.3415  0.9186
  205MOL0     H27672   5.127   0.414   0.703 -1.8409 -0.9659  1.3325
  205MOL0     H27673   5.462   0.514   0.603  0.7155  0.1725 -0.5227
  205MOL0     H27674   5.316   0.423   0.566  4.2474 -2.2989  1.0897
  205MOL0     H27675   5.317   0.593   0.528  0.0150 -1.4915 -0.7275
  206MOL0     O27676   7.398   3.580   8.786  0.0440  0.5908  0.2644
  206MOL0     C27677   7.289   3.544   8.818 -0.2773 -0.5984 -1.1362
  206MOL0     O27678   7.210   3.459   8.741  0.1944  0.1629  0.9347
  206MOL0     C27679   7.231   3.442   8.606  0.0519 -0.6788 -0.0000
  206MOL0     C27680   7.292   3.331   8.540 -0.3222  0.1274 -0.2832
  206MOL0     C27681   7.296   3.328   8.395  0.4269  0.2377  0.3993
  206MOL0     C27682   7.266   3.438   8.313  0.4008  0.3678 -0.1189
  206MOL0     O27683   7.250   3.438   8.171  0.0257 -0.0563  0.0896
  206MOL0     C27684   7.243   3.307   8.110  0.2998  0.6498 -0.3418
  206MOL0     C27685   7.223   3.352   7.970  1.1080 -0.3790  0.6104
  206MOL0     C27686   7.235   3.225   7.882 -0.2800 -0.6059  0.0424
  206MOL0     C27687   7.121   3.120   7.908  0.4317  0.0293  0.0038
  206MOL0     C27688   7.121   3.003   7.804  0.7732  0.4235 -0.8233
  206MOL0     C27689   7.117   3.043   7.654 -0.0319  0.3438  0.6965
  206MOL0     C27690   7.005   3.144   7.625  0.2352 -0.0209  0.2462
  206MOL0     C27691   7.017   3.196   7.481  1.1862  0.6556  0.2586
  206MOL0     N27692   6.947   3.112   7.383  0.2432 -0.0956  0.0734
  206MOL0     C27693   6.817   3.129   7.347 -0.0129  0.3300  0.2664
  206MOL0     C27694   6.799   3.053   7.234  0.2399 -0.2602  0.8242
  206MOL0     C27695   6.658   3.028   7.175  0.3354 -0.3095 -0.1160
  206MOL0     C27696   6.622   2.882   7.186 -0.2692  0.1147  0.2285
  206MOL0     C27697   6.477   2.855   7.139 -0.1522 -0.3458  0.3017
  206MOL0     C27698   6.427   2.713   7.160 -0.5132  0.6272  0.2742
  206MOL0     O27699   6.448   2.685   7.300  0.3872 -0.1462  0.3576
  206MOL0     C27700   6.346   2.654   7.378 -0.5546  0.4541  0.6382
  206MOL0     C27701   6.239   2.739   7.397  0.2349  0.6994 -0.0387
  206MOL0     C27702   6.129   2.700   7.478  0.1746 -0.4706  0.2075
  206MOL0     C27703   6.125   2.569   7.525 -1.0884 -1.2318 -0.0032
  206MOL0     C27704   5.992   2.521   7.583  0.3932 -0.9385  1.7052
  206MOL0     O27705   5.898   2.620   7.592 -0.3413 -0.0497  0.3706
  206MOL0     C27706   5.765   2.600   7.632  0.1236 -0.7483  0.3007
  206MOL0     C27707   5.698   2.719   7.664  0.2801  1.0893  0.3765
  206MOL0     C27708   5.572   2.725   7.716  0.4864  0.3230 -0.4702
  206MOL0     C27709   5.505   2.602   7.731  0.9071  0.0596  0.9489
  206MOL0     O27710   5.381   2.613   7.791 -0.7728  0.4906  0.6960
  206MOL0     C27711   5.275   2.513   7.771 -0.2639 -0.3878 -0.8116
  206MOL0     C27712   5.138   2.580   7.780 -0.5797 -0.8370 -0.4502
  206MOL0     C27713   5.121   2.674   7.660 -0.4007  0.3235  0.0355
  206MOL0     C27714   4.989   2.754   7.661 -0.4453  0.2794 -0.1922
  206MOL0     C27715   4.987   2.870   7.567 -0.0139 -0.3860 -0.7526
  206MOL0     C27716   4.902   2.990   7.613 -0.5591  0.0249 -0.6359
  206MOL0     C27717   4.915   3.114   7.525  0.8938 -0.4327  0.5488
  206MOL0     C27718   4.794   3.203   7.528 -1.0614  0.6891 -0.8525
  206MOL0    Cl27719   4.779   3.309   7.669  0.2920  0.5051  0.1582
  206MOL0     C27720   5.563   2.479   7.690 -0.5035 -0.3591 -0.5231
  206MOL0     C27721   5.692   2.482   7.650  0.2236  0.2440 -0.5264
  206MOL0     O27722   5.979   2.405   7.619  0.2256  0.5484 -0.5902
  206MOL0     C27723   6.234   2.486   7.499 -0.4041  0.1410  0.3474
  206MOL0     C27724   6.353   2.527   7.434  0.6414 -0.4946 -0.0761
  206MOL0     N27725   6.918   2.985   7.200  0.0173  0.1330 -0.7882
  206MOL0     N27726   7.006   3.033   7.286 -0.2484 -0.2220  0.0681
  206MOL0     C27727   7.231   3.547   8.391 -0.0613 -0.6538  0.7397
  206MOL0     C27728   7.213   3.559   8.523 -0.3933  0.4516 -0.5653
  206MOL0     C27729   7.267   3.563   8.970 -0.7688  0.1833  0.7950
  206MOL0     C27730   7.150   3.484   9.016  0.2337  0.1043  0.4851
  206MOL0     C27731   7.088   3.504   9.141  0.6775 -0.4793  0.4124
  206MOL0     C27732   7.137   3.609   9.223  0.5506 -0.4396 -0.3336
  206MOL0     O27733   7.100   3.641   9.354 -0.3227 -0.2716 -1.2725
  206MOL0     C27734   7.006   3.560   9.420 -0.1619 -0.9759 -0.4444
  206MOL0     C27735   6.977   3.627   9.558  0.0839  0.1166 -0.1428
  206MOL0     C27736   6.898   3.757   9.554 -0.5115  0.3583  0.7196
  206MOL0     C27737   6.854   3.802   9.698  0.8635  0.4352 -0.0281
  206MOL0     C27738   6.791   3.931   9.697  0.2366  0.2762  0.6862
  206MOL0     C27739   6.745   4.043   9.705  0.2916  0.7107  0.1584
  206MOL0     C27740   7.245   3.682   9.176  0.7156  0.7155 -0.3003
  206MOL0     C27741   7.316   3.660   9.058  0.2447  0.3957 -0.2324
  206MOL0     C27742   7.406   3.759   9.020  0.4093 -0.2139 -0.0971
  206MOL0     H27743   7.321   3.241   8.593  1.6275  1.4993  1.1361
  206MOL0     H27744   7.322   3.231   8.355  0.3215 -0.9290  2.9525
  206MOL0     H27745   7.341   3.261   8.122 -1.1702 -2.1270  2.2170
  206MOL0     H27746   7.160   3.251   8.153 -2.4178  1.7046 -3.7608
  206MOL0     H27747   7.284   3.434   7.931 -2.8550  2.6149  0.0869
  206MOL0     H27748   7.121   3.392   7.962  1.4881  1.0112  2.3292
  206MOL0     H27749   7.332   3.179   7.903 -0.4527 -0.3800  1.4448
  206MOL0     H27750   7.230   3.258   7.778 -0.4127 -0.9869 -0.0750
  206MOL0     H27751   7.127   3.066   8.003 -1.5785 -0.0808  0.1089
  206MOL0     H27752   7.022   3.166   7.916  0.8667  0.7866  1.3508
  206MOL0     H27753   7.211   2.946   7.825 -0.2576 -0.3837  1.8526
  206MOL0     H27754   7.042   2.932   7.830  1.4095 -1.0837 -2.7988
  206MOL0     H27755   7.213   3.082   7.618  0.9522 -2.3998  0.0936
  206MOL0     H27756   7.089   2.949   7.605 -0.6386 -0.1079  1.8570
  206MOL0     H27757   6.995   3.228   7.693 -1.7535 -0.3188  0.3690
  206MOL0     H27758   6.917   3.085   7.650  1.4873 -2.6584 -1.0715
  206MOL0     H27759   6.969   3.294   7.486 -0.7466 -0.2659  0.9556
  206MOL0     H27760   7.121   3.206   7.450  1.6722 -3.7793 -0.1799
  206MOL0     H27761   6.757   3.203   7.399  1.7049  0.9597  1.4273
  206MOL0     H27762   6.591   3.098   7.226  0.8995  1.4107 -1.6170
  206MOL0     H27763   6.649   3.068   7.074  3.0999  0.4913 -0.1375
  206MOL0     H27764   6.686   2.820   7.122 -0.3497 -0.3483  0.5880
  206MOL0     H27765   6.639   2.845   7.287  0.1927 -1.4020 -0.3765
  206MOL0     H27766   6.468   2.878   7.033 -2.4118  1.8567  0.8798
  206MOL0     H27767   6.403   2.923   7.183  0.6911  0.2366  0.8410
  206MOL0     H27768   6.493   2.645   7.105  0.0081  0.2786  1.2980
  206MOL0     H27769   6.329   2.687   7.118  0.2862 -1.5194 -0.4219
  206MOL0     H27770   6.239   2.843   7.364  2.3440  0.5702 -0.5593
  206MOL0     H27771   6.047   2.769   7.491  2.5937  2.9860 -1.3047
  206MOL0     H27772   5.761   2.804   7.639  1.7546 -0.4870 -1.6569
  206MOL0     H27773   5.539   2.821   7.756 -1.5850 -1.0937  1.4811
  206MOL0     H27774   5.292   2.453   7.681  1.4560  1.2246 -1.6495
  206MOL0     H27775   5.287   2.435   7.847  0.3154 -0.3244 -0.8296
  206MOL0     H27776   5.076   2.491   7.772 -1.8116 -0.3919  2.7162
  206MOL0     H27777   5.109   2.618   7.878  1.0959 -0.5941 -0.0207
  206MOL0     H27778   5.201   2.747   7.675 -0.2822 -0.1931  2.3149
  206MOL0     H27779   5.136   2.624   7.564 -1.4576 -0.2751  0.1675
  206MOL0     H27780   4.978   2.792   7.763  0.0529  1.2600 -0.4932
  206MOL0     H27781   4.900   2.691   7.654 -0.0695 -0.3320  0.3487
  206MOL0     H27782   4.943   2.819   7.480 -0.0363 -1.2173 -0.2685
  206MOL0     H27783   5.089   2.904   7.548  0.7702 -0.7557  2.3571
  206MOL0     H27784   4.801   2.951   7.625 -0.1702 -1.6820 -2.3445
  206MOL0     H27785   4.950   3.021   7.706 -0.2553 -0.4779 -0.6197
  206MOL0     H27786   4.922   3.087   7.419 -2.9293  2.8201 -0.7942
  206MOL0     H27787   5.004   3.172   7.548  1.1907 -0.3170 -0.7965
  206MOL0     H27788   4.802   3.269   7.441 -0.7758  1.4099 -0.2919
  206MOL0     H27789   4.703   3.144   7.535 -1.8877  2.1361  2.3511
  206MOL0     H27790   5.505   2.388   7.696 -0.3250 -0.4975 -0.8674
  206MOL0     H27791   5.731   2.382   7.631  2.6708  1.6323 -3.7186
  206MOL0     H27792   6.205   2.384   7.523 -4.2031  0.6459 -1.3328
  206MOL0     H27793   6.445   2.469   7.433  2.3200  1.6800  3.8981
  206MOL0     H27794   7.219   3.637   8.331 -1.7193 -1.3811 -0.0820
  206MOL0     H27795   7.172   3.649   8.568  1.4941  1.4775 -0.8106
  206MOL0     H27796   7.116   3.407   8.948  0.6612 -1.6174  2.1561
  206MOL0     H27797   7.015   3.433   9.179  1.1712 -0.5639  1.2119
  206MOL0     H27798   7.043   3.459   9.440 -0.8256 -1.0359  0.5251
  206MOL0     H27799   6.916   3.565   9.358 -0.0327  4.1743 -0.6528
  206MOL0     H27800   7.071   3.632   9.613  0.4687  1.2946 -0.8774
  206MOL0     H27801   6.921   3.549   9.611 -1.0932  0.0533 -1.4357
  206MOL0     H27802   6.810   3.745   9.490 -0.5782  0.0982  0.8586
  206MOL0     H27803   6.969   3.835   9.528  0.0820  0.0101  1.2781
  206MOL0     H27804   6.787   3.727   9.741 -0.2295  1.2316 -0.2752
  206MOL0     H27805   6.946   3.805   9.757  0.7438 -4.9143  0.9105
  206MOL0     H27806   6.705   4.141   9.721 -2.8805 -0.5634  0.8471
  206MOL0     H27807   7.272   3.766   9.239  2.1325 -1.7572  2.6941
  206MOL0     H27808   7.437   3.825   9.102 -4.5381  1.5196  0.7196
  206MOL0     H27809   7.498   3.716   8.979  1.7360  0.9731  1.4933
  206MOL0     H27810   7.365   3.818   8.937 -0.0522 -0.0426  0.2501
  207MOL0     O27811   5.836  11.138   4.179 -0.3261 -0.5634 -0.2215
  207MOL0     C27812   5.764  11.037   4.186  0.5852 -0.2402 -0.3804
  207MOL0     O27813   5.788  10.911   4.129 -0.0780 -0.1318 -0.2040
  207MOL0     C27814   5.898  10.886   4.047  0.4615  0.3050  0.0456
  207MOL0     C27815   6.003  10.966   4.000 -0.1829  0.1266 -0.2618
  207MOL0     C27816   6.107  10.917   3.928 -0.5894  1.3091 -1.0187
  207MOL0     C27817   6.113  10.780   3.893  0.9795 -0.6424  0.0970
  207MOL0     O27818   6.226  10.728   3.835 -0.4317 -0.3006  0.7093
  207MOL0     C27819   6.224  10.741   3.692 -0.0429 -0.1953 -0.6615
  207MOL0     C27820   6.369  10.716   3.638  1.0017 -0.3114  0.0388
  207MOL0     C27821   6.372  10.701   3.488  1.1071 -0.2526 -0.4644
  207MOL0     C27822   6.512  10.661   3.449 -0.7139  1.0944 -0.8719
  207MOL0     C27823   6.520  10.571   3.324  0.2735 -0.4924 -0.7237
  207MOL0     C27824   6.450  10.635   3.214 -0.7056  0.0825 -0.1921
  207MOL0     C27825   6.458  10.545   3.087 -0.2366  0.1796  0.5280
  207MOL0     C27826   6.409  10.612   2.966 -0.1143 -1.1225  0.3423
  207MOL0     N27827   6.396  10.517   2.851 -0.2748 -1.3801 -0.2745
  207MOL0     C27828   6.496  10.504   2.747  1.4617  0.0048 -0.7173
  207MOL0     C27829   6.466  10.389   2.675  0.8399 -0.1036  0.3004
  207MOL0     C27830   6.526  10.339   2.552 -0.0852  0.2523  0.0769
  207MOL0     C27831   6.613  10.209   2.584 -1.0405  0.1214 -0.1814
  207MOL0     C27832   6.519  10.089   2.603  1.2725 -0.1170 -0.9144
  207MOL0     C27833   6.587   9.956   2.620 -0.4556  0.1100 -0.1023
  207MOL0     O27834   6.693   9.963   2.726  0.5640 -0.0603  0.0810
  207MOL0     C27835   6.825   9.941   2.693 -0.6278 -1.1140  0.5827
  207MOL0     C27836   6.912   9.913   2.793 -0.2089  0.9328  0.4604
  207MOL0     C27837   7.041   9.859   2.766  0.1753 -0.1769  0.0948
  207MOL0     C27838   7.087   9.856   2.634  1.2472  0.9535  0.5389
  207MOL0     C27839   7.223   9.810   2.594 -0.2350  0.6866  0.3127
  207MOL0     O27840   7.279   9.859   2.484  0.1420  0.5833 -0.0833
  207MOL0     C27841   7.401   9.817   2.434 -0.7723  1.9775  0.5391
  207MOL0     C27842   7.453   9.691   2.457  0.1144 -0.0824 -0.8514
  207MOL0     C27843   7.580   9.658   2.401 -0.0722  0.0384 -0.5103
  207MOL0     C27844   7.646   9.747   2.313  0.3297  1.0509  0.2857
  207MOL0     O27845   7.766   9.723   2.256  0.2689  0.1159 -0.4532
  207MOL0     C27846   7.857   9.624   2.305  0.8114  0.0434  0.4758
  207MOL0     C27847   7.927   9.661   2.434  0.6660  0.4138 -0.3958
  207MOL0     C27848   8.029   9.777   2.407 -0.6528 -0.0388 -0.4760
  207MOL0     C27849   8.098   9.830   2.532 -0.0013  0.5687  1.2250
  207MOL0     C27850   8.197   9.738   2.601  0.0719 -0.3578  0.0033
  207MOL0     C27851   8.302   9.672   2.507  1.1507  0.3880 -0.9466
  207MOL0     C27852   8.386   9.777   2.435  0.6484 -0.4731 -0.1869
  207MOL0     C27853   8.525   9.718   2.410 -0.7097 -0.5774 -0.1017
  207MOL0    Cl27854   8.609   9.853   2.316 -0.3083  0.0191  0.1752
  207MOL0     C27855   7.599   9.880   2.293  0.4685 -0.1557 -0.3946
  207MOL0     C27856   7.477   9.910   2.367  0.0925 -0.6555  0.7436
  207MOL0     O27857   7.270   9.728   2.677 -0.1809 -0.0516  0.9531
  207MOL0     C27858   7.003   9.901   2.531 -1.0545  0.3885 -0.2009
  207MOL0     C27859   6.871   9.947   2.558  0.8396  0.8816 -0.2979
  207MOL0     N27860   6.339  10.354   2.728  0.9637 -0.0458 -0.2401
  207MOL0     N27861   6.298  10.427   2.830 -0.3851  0.5838  0.2780
  207MOL0     C27862   6.007  10.699   3.933 -0.7773  0.0752  0.0516
  207MOL0     C27863   5.904  10.750   4.005 -0.1816 -0.7018  0.0172
  207MOL0     C27864   5.656  11.051   4.288  0.2420  0.9760  0.5403
  207MOL0     C27865   5.603  10.928   4.324 -0.4067  0.7998  0.3031
  207MOL0     C27866   5.510  10.918   4.430  0.3757 -0.5035 -0.2242
  207MOL0     C27867   5.478  11.038   4.498 -1.3882  0.1555 -0.4929
  207MOL0     O27868   5.382  11.051   4.594 -0.2654  0.4480 -0.1135
  207MOL0     C27869   5.289  10.949   4.626  0.5902  0.9688 -0.2687
  207MOL0     C27870   5.191  10.993   4.739 -0.1527 -0.5142 -0.6395
  207MOL0     C27871   5.267  11.031   4.869 -0.2868  0.3863  0.5412
  207MOL0     C27872   5.177  11.088   4.980  0.1282 -0.5842 -0.2505
  207MOL0     C27873   5.257  11.162   5.065  0.5708 -0.1678  0.5573
  207MOL0     C27874   5.327  11.245   5.114  0.5712 -0.5158 -0.0389
  207MOL0     C27875   5.525  11.157   4.454  0.7344 -0.2930 -0.5568
  207MOL0     C27876   5.608  11.170   4.345  2.1423  0.1775  0.4890
  207MOL0     C27877   5.648  11.313   4.302 -0.0014 -0.0865 -1.0184
  207MOL0     H27878   6.014  11.071   4.028 -0.7903  0.4450 -1.1921
  207MOL0     H27879   6.197  10.978   3.925 -1.0374  2.0898  0.3973
  207MOL0     H27880   6.155  10.669   3.648  0.5529  0.1637 -2.2518
  207MOL0     H27881   6.200  10.845   3.667  3.1466  1.0070  0.7451
  207MOL0     H27882   6.404  10.623   3.684  0.9909 -0.6019 -0.5440
  207MOL0     H27883   6.443  10.796   3.653 -0.1126  0.3560  2.6893
  207MOL0     H27884   6.342  10.796   3.442  2.0686  0.6998  0.7777
  207MOL0     H27885   6.298  10.628   3.453  2.3117 -0.3852 -2.9216
  207MOL0     H27886   6.571  10.749   3.421 -0.8238  0.7941 -2.1447
  207MOL0     H27887   6.561  10.607   3.530 -0.3856  2.9003  0.1957
  207MOL0     H27888   6.626  10.557   3.298  0.8551 -0.0822  1.2709
  207MOL0     H27889   6.477  10.473   3.348  1.3205 -0.8961 -0.4362
  207MOL0     H27890   6.343  10.638   3.240 -0.5847 -2.8079  1.0004
  207MOL0     H27891   6.493  10.735   3.199  0.0185 -0.2374 -0.2522
  207MOL0     H27892   6.395  10.457   3.091 -1.9100  1.2818 -0.3931
  207MOL0     H27893   6.560  10.510   3.071 -0.8574 -0.8229 -1.5617
  207MOL0     H27894   6.310  10.655   2.988  0.8292  2.4411 -1.6390
  207MOL0     H27895   6.479  10.692   2.942 -0.5440 -1.4062 -2.0597
  207MOL0     H27896   6.586  10.562   2.730  2.1616 -0.9099 -0.2835
  207MOL0     H27897   6.440  10.311   2.490  0.7327 -0.1983 -0.8869
  207MOL0     H27898   6.582  10.418   2.501 -0.4303 -0.2954 -1.1713
  207MOL0     H27899   6.690  10.182   2.510 -1.2734 -2.4120  0.3951
  207MOL0     H27900   6.675  10.231   2.671  2.2614 -1.3334 -2.0028
  207MOL0     H27901   6.447  10.093   2.521  0.5241  2.7096 -0.2319
  207MOL0     H27902   6.465  10.109   2.696 -3.4155 -1.4157 -3.1086
  207MOL0     H27903   6.626   9.916   2.526 -0.1616  0.6506 -0.2173
  207MOL0     H27904   6.507   9.890   2.654 -2.8031  3.5625  1.6995
  207MOL0     H27905   6.869   9.915   2.893  0.8541 -0.7498  1.0005
  207MOL0     H27906   7.109   9.834   2.846 -0.8307 -0.8187  0.7703
  207MOL0     H27907   7.419   9.616   2.529  2.7614 -0.3978  0.1894
  207MOL0     H27908   7.627   9.567   2.436  4.2539  2.0004 -0.6046
  207MOL0     H27909   7.810   9.527   2.321 -0.5023  0.8282  1.7000
  207MOL0     H27910   7.931   9.622   2.225  1.5581  1.4737  1.0954
  207MOL0     H27911   7.852   9.692   2.508 -1.2933 -1.5664 -1.4513
  207MOL0     H27912   7.982   9.575   2.473 -1.4312 -0.5396  0.6133
  207MOL0     H27913   8.111   9.743   2.344 -0.2710 -0.7285  0.3637
  207MOL0     H27914   7.998   9.860   2.343  1.2910  1.8374  0.8841
  207MOL0     H27915   8.031   9.851   2.616 -0.9548 -1.2069  0.9506
  207MOL0     H27916   8.151   9.921   2.504  2.3516 -1.1851 -0.5110
  207MOL0     H27917   8.142   9.669   2.665  2.7887 -0.2571  2.6273
  207MOL0     H27918   8.244   9.810   2.669  2.6616 -0.4973 -1.5115
  207MOL0     H27919   8.369   9.620   2.575 -0.9668  1.8545  2.5217
  207MOL0     H27920   8.263   9.603   2.432 -1.5347  1.5383 -0.7386
  207MOL0     H27921   8.392   9.869   2.493 -1.5652 -0.0783 -0.5164
  207MOL0     H27922   8.331   9.811   2.347 -1.4336  0.3175  1.3287
  207MOL0     H27923   8.583   9.699   2.500 -0.3881 -1.3449 -0.4657
  207MOL0     H27924   8.509   9.623   2.357 -2.5549 -0.2016 -0.2898
  207MOL0     H27925   7.648   9.959   2.238 -0.4625 -0.4220 -1.6656
  207MOL0     H27926   7.440  10.011   2.353  3.7335  0.5512 -2.0460
  207MOL0     H27927   7.029   9.908   2.426 -3.5335 -0.4173 -0.9287
  207MOL0     H27928   6.814   9.993   2.478  1.4733  2.1599 -0.0435
  207MOL0     H27929   6.021  10.593   3.911  0.5483  0.3158 -0.3514
  207MOL0     H27930   5.831  10.677   4.037 -0.1501 -0.5146  0.5310
  207MOL0     H27931   5.631  10.831   4.283  3.1759  0.8231  2.2935
  207MOL0     H27932   5.471  10.821   4.462  0.8279 -1.1229 -1.4995
  207MOL0     H27933   5.342  10.858   4.655 -1.6739 -0.6231 -0.8659
  207MOL0     H27934   5.234  10.927   4.534  2.9820  0.2216 -1.5966
  207MOL0     H27935   5.116  10.916   4.759 -0.5249  0.3368  1.5675
  207MOL0     H27936   5.144  11.085   4.702  1.8866  1.1037  0.5577
  207MOL0     H27937   5.347  11.099   4.839 -0.0131  1.3530  3.1507
  207MOL0     H27938   5.318  10.944   4.912 -1.3920  0.0068  1.1089
  207MOL0     H27939   5.092  11.141   4.937 -0.2582  0.0099  1.1890
  207MOL0     H27940   5.133  10.998   5.024 -1.7607 -0.2882 -1.3876
  207MOL0     H27941   5.379  11.329   5.155 -1.9111  1.0029  0.2141
  207MOL0     H27942   5.485  11.242   4.510 -0.5261  0.3973 -2.3924
  207MOL0     H27943   5.738  11.344   4.356 -1.6417  4.4027 -0.4778
  207MOL0     H27944   5.657  11.324   4.194  1.0256  0.5563 -0.8826
  207MOL0     H27945   5.570  11.384   4.331 -0.2226 -0.3281 -1.0106
  208MOL0     O27946   7.744   3.038   7.630  0.0063 -0.0193  0.1236
  208MOL0     C27947   7.737   2.941   7.698  0.0930  0.9152 -0.2709
  208MOL0     O27948   7.770   2.924   7.827  0.3049  0.2295 -0.6740
  208MOL0     C27949   7.741   3.016   7.915  0.6596 -0.2436  0.2620
  208MOL0     C27950   7.648   3.120   7.891 -0.5654 -0.1325 -0.7551
  208MOL0     C27951   7.624   3.220   7.995 -0.0737  0.6042 -0.0231
  208MOL0     C27952   7.703   3.219   8.116  0.1301 -0.1308 -0.0129
  208MOL0     O27953   7.688   3.329   8.203 -0.3459 -0.4169  0.0707
  208MOL0     C27954   7.732   3.470   8.174 -0.0760  1.0674 -0.1925
  208MOL0     C27955   7.613   3.566   8.210  0.3285  0.4043  0.8991
  208MOL0     C27956   7.633   3.642   8.349  0.4952 -0.1757  0.2222
  208MOL0     C27957   7.525   3.756   8.355 -0.3664 -0.3470 -0.4820
  208MOL0     C27958   7.533   3.822   8.501 -0.0733  0.0872  0.2496
  208MOL0     C27959   7.408   3.895   8.529 -0.4966  0.4699 -0.3806
  208MOL0     C27960   7.388   3.957   8.669  0.2742  0.0917  0.3945
  208MOL0     C27961   7.281   4.068   8.663 -0.4560 -0.5112 -0.5127
  208MOL0     N27962   7.147   4.022   8.653  0.3580  0.0665 -0.5340
  208MOL0     C27963   7.088   3.932   8.736 -0.2779  0.1192  0.7331
  208MOL0     C27964   6.958   3.923   8.689 -0.1897  0.5355 -0.1174
  208MOL0     C27965   6.853   3.838   8.770  0.3797 -0.9333  0.7504
  208MOL0     C27966   6.887   3.690   8.750  0.4846 -1.0622  0.2895
  208MOL0     C27967   6.769   3.607   8.725  0.2852 -0.3459 -0.6241
  208MOL0     C27968   6.790   3.460   8.720 -0.5570  0.5216 -0.5339
  208MOL0     O27969   6.863   3.431   8.598 -0.1398 -0.6186  0.7434
  208MOL0     C27970   6.894   3.304   8.554 -0.4843  0.1661 -0.1886
  208MOL0     C27971   6.922   3.275   8.419  1.1448 -0.5329 -0.4563
  208MOL0     C27972   6.938   3.150   8.380 -0.0295  0.3141 -0.6396
  208MOL0     C27973   6.950   3.043   8.472  0.4289 -0.3109 -0.4452
  208MOL0     C27974   6.983   2.908   8.423  0.6239 -0.6770 -0.3489
  208MOL0     O27975   6.980   2.813   8.519  0.0708  0.8984 -0.8239
  208MOL0     C27976   7.054   2.700   8.497  0.8471  0.7282  0.0457
  208MOL0     C27977   7.181   2.678   8.552 -0.7488  0.4337 -0.8107
  208MOL0     C27978   7.260   2.560   8.512  0.1471  0.3243  0.7568
  208MOL0     C27979   7.201   2.461   8.436 -0.6129 -0.4235  0.1305
  208MOL0     O27980   7.273   2.349   8.409  0.1943 -0.5483 -0.0050
  208MOL0     C27981   7.193   2.234   8.431  0.0097  0.0469  0.2289
  208MOL0     C27982   7.288   2.110   8.421 -0.9821 -0.5633 -0.1831
  208MOL0     C27983   7.378   2.098   8.296  0.5936  0.7418 -0.5975
  208MOL0     C27984   7.286   2.113   8.171 -0.1567  0.0674  0.2371
  208MOL0     C27985   7.343   2.039   8.055  0.3271  0.3787  0.8920
  208MOL0     C27986   7.274   2.079   7.923  0.0298 -0.7216 -1.3730
  208MOL0     C27987   7.345   2.019   7.809 -0.3955  0.2649  0.0513
  208MOL0     C27988   7.264   1.907   7.748 -0.1297 -0.2555 -0.1301
  208MOL0    Cl27989   7.220   1.775   7.858 -0.0721  0.3305  0.2106
  208MOL0     C27990   7.068   2.478   8.397  0.4195 -0.1561  0.9440
  208MOL0     C27991   7.003   2.599   8.421 -0.3589 -0.3697  0.6672
  208MOL0     O27992   7.030   2.895   8.309  0.2385 -0.4986  0.4591
  208MOL0     C27993   6.920   3.068   8.614  0.9062 -0.4891  0.9476
  208MOL0     C27994   6.891   3.203   8.653 -0.4745 -0.3858 -0.1754
  208MOL0     N27995   6.948   4.011   8.576 -0.4858  0.5006  0.0643
  208MOL0     N27996   7.059   4.067   8.559  0.7028 -0.1163  0.3028
  208MOL0     C27997   7.797   3.115   8.136  0.2741 -0.4339 -0.1306
  208MOL0     C27998   7.812   3.021   8.034  0.0226  0.2118  0.6913
  208MOL0     C27999   7.703   2.825   7.616  0.8407  0.8036 -0.2295
  208MOL0     C28000   7.800   2.755   7.541  0.0750 -0.3557  0.2976
  208MOL0     C28001   7.766   2.640   7.462  0.1311 -0.7328 -0.6909
  208MOL0     C28002   7.624   2.615   7.445 -1.0072  0.1013 -0.4000
  208MOL0     O28003   7.585   2.522   7.358  0.1515  0.4865  0.2438
  208MOL0     C28004   7.674   2.494   7.253  1.5818  0.4734 -0.7365
  208MOL0     C28005   7.600   2.405   7.160  0.0226  0.2166  0.3498
  208MOL0     C28006   7.676   2.398   7.030  0.1273  0.4252  0.4865
  208MOL0     C28007   7.597   2.296   6.934 -0.3071 -0.8862  0.9252
  208MOL0     C28008   7.642   2.303   6.798 -0.6560 -0.4238 -0.6569
  208MOL0     C28009   7.692   2.297   6.683  0.2411  0.3165 -0.1032
  208MOL0     C28010   7.531   2.673   7.519  0.1566 -0.4751  0.3302
  208MOL0     C28011   7.571   2.779   7.609  0.7570  0.1553 -0.8835
  208MOL0     C28012   7.466   2.834   7.699  0.1205  0.0859 -0.2557
  208MOL0     H28013   7.598   3.130   7.795 -1.2625  2.6582 -0.1864
  208MOL0     H28014   7.551   3.297   7.972  0.3714  0.2751 -2.8829
  208MOL0     H28015   7.813   3.499   8.241  0.3362  0.1017 -0.2436
  208MOL0     H28016   7.779   3.485   8.076  2.8428 -2.9801  0.3067
  208MOL0     H28017   7.521   3.508   8.218 -1.6667  3.0193 -1.4520
  208MOL0     H28018   7.624   3.634   8.125  0.6883 -2.9898 -1.9871
  208MOL0     H28019   7.730   3.691   8.361  1.6179 -2.3002  0.3605
  208MOL0     H28020   7.623   3.574   8.435 -0.8582  3.0189  2.8006
  208MOL0     H28021   7.532   3.831   8.276 -1.3608  0.4469  0.1533
  208MOL0     H28022   7.423   3.715   8.345 -0.8687  0.8306 -0.3203
  208MOL0     H28023   7.534   3.739   8.572 -0.9844 -1.5586 -1.5769
  208MOL0     H28024   7.623   3.882   8.518 -0.1605  0.4886 -0.6380
  208MOL0     H28025   7.414   3.976   8.456 -0.5138  2.1816  1.4395
  208MOL0     H28026   7.324   3.826   8.515 -0.3966  0.3549 -0.4108
  208MOL0     H28027   7.480   3.999   8.709  1.1718 -3.4746  2.4806
  208MOL0     H28028   7.358   3.880   8.740  0.5514  1.7111  2.3641
  208MOL0     H28029   7.286   4.125   8.756  1.9011 -0.2242 -0.7749
  208MOL0     H28030   7.298   4.128   8.574  1.3383  2.0379  1.4099
  208MOL0     H28031   7.125   3.884   8.826 -2.1630  0.8230  1.9785
  208MOL0     H28032   6.856   3.886   8.868 -2.5272  3.0821 -0.9024
  208MOL0     H28033   6.750   3.863   8.745  0.3253  1.1822  2.7343
  208MOL0     H28034   6.960   3.682   8.668  0.9666 -1.7001  0.7771
  208MOL0     H28035   6.947   3.660   8.836  0.1647 -0.1372  0.8494
  208MOL0     H28036   6.717   3.640   8.634  3.2063 -0.7296 -2.5683
  208MOL0     H28037   6.699   3.631   8.806 -1.5822  0.0290 -2.2676
  208MOL0     H28038   6.699   3.399   8.718 -0.6688  0.7059 -1.7655
  208MOL0     H28039   6.847   3.432   8.810 -1.9163 -1.0394 -0.1241
  208MOL0     H28040   6.903   3.347   8.340 -0.4673  0.3957  0.7137
  208MOL0     H28041   6.937   3.134   8.273  2.1640  3.8728 -1.3750
  208MOL0     H28042   7.219   2.743   8.630  1.8411 -0.1315 -1.4904
  208MOL0     H28043   7.365   2.550   8.535  0.3451 -1.7843 -0.7469
  208MOL0     H28044   7.144   2.230   8.529 -2.4013 -4.7256 -0.8883
  208MOL0     H28045   7.115   2.226   8.355  2.3693  2.7461 -2.7510
  208MOL0     H28046   7.352   2.120   8.509  2.4633  0.0115 -2.5567
  208MOL0     H28047   7.235   2.015   8.432 -0.8238 -0.5748  0.6083
  208MOL0     H28048   7.453   2.177   8.302  2.0946 -0.7117  0.8642
  208MOL0     H28049   7.431   2.002   8.300 -0.5424  0.1391  0.7504
  208MOL0     H28050   7.285   2.220   8.148  0.5797 -0.2125 -1.2120
  208MOL0     H28051   7.187   2.073   8.194  0.7451 -2.3306  0.1474
  208MOL0     H28052   7.344   1.932   8.077 -0.1330  0.8481  3.4603
  208MOL0     H28053   7.450   2.058   8.045  0.6822 -1.6745  0.3948
  208MOL0     H28054   7.173   2.038   7.926 -0.9655  1.5279 -1.7713
  208MOL0     H28055   7.285   2.188   7.922  0.5029 -0.6772  1.1874
  208MOL0     H28056   7.440   1.973   7.836 -1.4836 -1.7750  0.5934
  208MOL0     H28057   7.363   2.091   7.728 -2.3426  0.7697  0.0313
  208MOL0     H28058   7.172   1.943   7.701  0.5561 -0.8038 -1.9984
  208MOL0     H28059   7.331   1.868   7.670 -0.3487  1.9573 -1.5008
  208MOL0     H28060   7.000   2.405   8.354  0.4791  1.5508 -2.3607
  208MOL0     H28061   6.907   2.611   8.372  0.1550 -2.2683 -0.9361
  208MOL0     H28062   6.914   2.987   8.687 -2.2525  0.3211  1.7177
  208MOL0     H28063   6.880   3.220   8.760  1.1322 -2.1408  0.3306
  208MOL0     H28064   7.853   3.113   8.229  3.1597  1.1728 -1.6946
  208MOL0     H28065   7.889   2.946   8.042  3.1477  3.3184  3.4328
  208MOL0     H28066   7.903   2.782   7.562  0.6204 -3.3293  1.9789
  208MOL0     H28067   7.847   2.587   7.413  2.2538  2.0469 -0.4348
  208MOL0     H28068   7.759   2.446   7.302  2.6584  1.3769 -1.6629
  208MOL0     H28069   7.705   2.579   7.192  0.5430  0.5341 -1.2088
  208MOL0     H28070   7.502   2.451   7.145  0.0294  0.0003 -0.4054
  208MOL0     H28071   7.587   2.308   7.209  2.1420 -0.0810  0.4396
  208MOL0     H28072   7.783   2.376   7.036  0.1508  0.3149 -0.2442
  208MOL0     H28073   7.660   2.497   6.987 -1.1651  1.6287  3.5138
  208MOL0     H28074   7.617   2.196   6.973 -0.1864 -0.7540  1.2036
  208MOL0     H28075   7.491   2.322   6.941  0.3076  3.1677 -1.4975
  208MOL0     H28076   7.752   2.306   6.594  1.3489  1.7287  0.7407
  208MOL0     H28077   7.432   2.631   7.506  0.0604  0.3185 -1.8296
  208MOL0     H28078   7.485   2.845   7.806 -0.1193 -2.4648  0.1357
  208MOL0     H28079   7.417   2.923   7.660  0.0766  0.2386  0.1508
  208MOL0     H28080   7.380   2.767   7.711  0.7623 -0.2819  2.9217
  209MOL0     O28081   3.621  10.108   7.300  0.1735  0.3195 -0.5661
  209MOL0     C28082   3.602  10.049   7.195 -0.6263 -0.0183  0.2522
  209MOL0     O28083   3.700   9.973   7.139  1.3014 -0.6559 -0.3913
  209MOL0     C28084   3.832   9.995   7.166 -0.0083  1.2576 -0.4050
  209MOL0     C28085   3.904   9.873   7.174  0.5892 -0.3987 -0.1210
  209MOL0     C28086   4.037   9.871   7.212 -0.5706 -0.4698  0.6000
  209MOL0     C28087   4.107   9.993   7.229  0.0684 -0.3920 -0.0652
  209MOL0     O28088   4.248   9.991   7.244  0.0287 -0.0855 -0.6999
  209MOL0     C28089   4.323  10.107   7.205  0.7949 -0.4039 -0.2896
  209MOL0     C28090   4.471  10.106   7.226 -0.2719 -0.3222  1.1477
  209MOL0     C28091   4.539   9.980   7.153  0.6882  0.3529  0.0625
  209MOL0     C28092   4.677   9.939   7.212  0.9497  0.4733  0.3827
  209MOL0     C28093   4.799   9.984   7.136 -0.2036 -0.1016 -0.2765
  209MOL0     C28094   4.919   9.937   7.218 -0.9295 -0.8634  0.0847
  209MOL0     C28095   5.043   9.999   7.166  1.1073 -0.4658 -0.6932
  209MOL0     C28096   5.069   9.964   7.023 -0.2145  0.2183 -0.5131
  209MOL0     N28097   5.214   9.926   7.012 -0.8190 -0.7247  0.1559
  209MOL0     C28098   5.316  10.008   7.049  0.3779  0.0351 -0.0585
  209MOL0     C28099   5.430   9.929   7.033  0.0009 -0.6923 -0.7741
  209MOL0     C28100   5.567   9.961   7.080 -0.3958 -0.0946 -0.4007
  209MOL0     C28101   5.572  10.036   7.215 -0.2796 -0.5943  0.0986
  209MOL0     C28102   5.692  10.129   7.210 -0.1041  0.0244 -0.8370
  209MOL0     C28103   5.741  10.155   7.357 -0.9012  0.0288 -0.0436
  209MOL0     O28104   5.828  10.270   7.361 -0.3381  0.9346 -0.2100
  209MOL0     C28105   5.876  10.288   7.491 -0.0924 -0.4250  0.9474
  209MOL0     C28106   6.012  10.305   7.509  0.2326 -0.4449  0.1008
  209MOL0     C28107   6.064  10.327   7.637  0.0064 -0.0973  0.5249
  209MOL0     C28108   5.981  10.333   7.747  0.2321  0.0307 -0.7535
  209MOL0     C28109   6.037  10.376   7.883  0.5639  0.4153 -0.5852
  209MOL0     O28110   6.169  10.389   7.906  0.4051 -0.2272 -0.5182
  209MOL0     C28111   6.225  10.455   8.017  0.5510  0.4592 -1.0003
  209MOL0     C28112   6.364  10.448   8.035  0.1026  0.6012  0.3398
  209MOL0     C28113   6.435  10.516   8.137 -0.5075  0.0888 -0.4117
  209MOL0     C28114   6.360  10.589   8.233 -0.5962  1.4540  0.8267
  209MOL0     O28115   6.437  10.649   8.327 -0.5428  0.4534  0.2461
  209MOL0     C28116   6.450  10.785   8.321  1.2181 -0.8323 -1.0120
  209MOL0     C28117   6.571  10.835   8.399 -0.0164 -0.4294  0.4986
  209MOL0     C28118   6.689  10.858   8.310 -0.1510 -0.1729 -1.0958
  209MOL0     C28119   6.670  10.983   8.222 -0.0135 -0.0517  0.4669
  209MOL0     C28120   6.811  11.053   8.197  0.3609  0.1519  0.6418
  209MOL0     C28121   6.918  10.956   8.145 -0.1023 -0.6710  0.1506
  209MOL0     C28122   6.881  10.893   8.011  0.6193  0.4299  0.6406
  209MOL0     C28123   6.999  10.880   7.907 -0.6046 -0.0802 -0.3595
  209MOL0    Cl28124   7.132  10.766   7.972 -0.1647 -0.0778  0.0229
  209MOL0     C28125   6.222  10.600   8.217 -0.0698  0.3219 -0.2171
  209MOL0     C28126   6.158  10.535   8.114  0.3591  1.6795 -0.3003
  209MOL0     O28127   5.953  10.408   7.971 -0.4280  0.1100  0.2832
  209MOL0     C28128   5.840  10.312   7.725  0.0698  0.7449 -0.6071
  209MOL0     C28129   5.790  10.297   7.597 -0.1040  0.1053 -0.0798
  209MOL0     N28130   5.391   9.807   6.979  0.0656  0.4488 -0.1856
  209MOL0     N28131   5.265   9.808   6.967  0.4152  0.0832  0.5532
  209MOL0     C28132   4.034  10.112   7.232  0.7852 -0.2151  0.4567
  209MOL0     C28133   3.899  10.121   7.189 -0.2288 -0.5824 -0.1222
  209MOL0     C28134   3.470  10.039   7.140  0.5993  0.0209 -0.0819
  209MOL0     C28135   3.458  10.018   7.002  0.9223 -0.2479  0.5351
  209MOL0     C28136   3.340  10.029   6.933 -0.0038  0.2449 -0.2059
  209MOL0     C28137   3.223  10.043   7.000  0.3640 -0.4811 -0.0284
  209MOL0     O28138   3.113  10.020   6.928  0.4068 -0.1667  0.1742
  209MOL0     C28139   2.984  10.059   6.976 -0.1866 -0.0118 -0.7378
  209MOL0     C28140   2.878  10.008   6.883  0.1256  0.0118  0.3171
  209MOL0     C28141   2.905  10.057   6.735  0.2999 -0.4326  0.5208
  209MOL0     C28142   2.771  10.074   6.650 -0.5999  0.6427  0.7701
  209MOL0     C28143   2.723   9.943   6.603 -0.5253  0.0526  0.1104
  209MOL0     C28144   2.700   9.838   6.547  0.1649 -0.5652  0.2836
  209MOL0     C28145   3.225  10.072   7.142 -0.1271 -0.3503 -0.0378
  209MOL0     C28146   3.349  10.060   7.210 -0.1467 -0.1078 -0.2915
  209MOL0     C28147   3.339  10.072   7.361 -0.1318 -0.0766  0.4853
  209MOL0     H28148   3.854   9.781   7.146 -2.9159  0.7227  1.7975
  209MOL0     H28149   4.092   9.777   7.214  0.8087  0.2898  2.9665
  209MOL0     H28150   4.305  10.141   7.103 -4.3457 -0.4411  0.3514
  209MOL0     H28151   4.286  10.189   7.267 -0.4111 -0.2601 -1.1628
  209MOL0     H28152   4.489  10.112   7.334  2.2574  3.5307  0.7085
  209MOL0     H28153   4.527  10.190   7.184  2.1281 -1.7150  1.3512
  209MOL0     H28154   4.538   9.986   7.044 -1.7460  1.5434  0.0736
  209MOL0     H28155   4.465   9.901   7.166  1.3616 -0.7321 -2.1655
  209MOL0     H28156   4.680   9.968   7.317  1.3617 -1.0460  0.8147
  209MOL0     H28157   4.693   9.831   7.219  2.9964  0.6421 -0.9860
  209MOL0     H28158   4.801   9.934   7.039 -0.8738  0.9095 -0.8332
  209MOL0     H28159   4.782  10.087   7.104  0.1476 -0.9470 -3.5524
  209MOL0     H28160   4.909   9.980   7.318 -0.7953  2.7625 -1.3138
  209MOL0     H28161   4.925   9.828   7.221 -2.9357 -1.0001  2.4737
  209MOL0     H28162   5.130   9.967   7.225  0.1733 -1.5355  0.1588
  209MOL0     H28163   5.030  10.107   7.176 -0.8506 -0.5513 -1.7523
  209MOL0     H28164   5.009   9.877   6.996  0.9856 -1.5232  2.0407
  209MOL0     H28165   5.052  10.048   6.954 -1.4353  1.2241  0.9373
  209MOL0     H28166   5.313  10.104   7.098  0.0637  0.4326 -0.8423
  209MOL0     H28167   5.613   9.863   7.092  2.4910  1.1853 -0.1480
  209MOL0     H28168   5.613  10.026   7.005  1.5455  1.2780  1.8530
  209MOL0     H28169   5.486  10.103   7.225  0.5752  0.5633 -0.1017
  209MOL0     H28170   5.582   9.968   7.300  0.1355 -0.2465  0.3295
  209MOL0     H28171   5.660  10.226   7.170 -0.6916  0.4067  0.4821
  209MOL0     H28172   5.776  10.087   7.154  0.4379 -0.1768  0.1118
  209MOL0     H28173   5.791  10.067   7.398  2.2002  1.8430  0.3805
  209MOL0     H28174   5.647  10.187   7.403 -0.0315  3.6766 -0.5055
  209MOL0     H28175   6.071  10.302   7.418 -1.9691  2.8260 -1.5985
  209MOL0     H28176   6.172  10.317   7.640  0.1287  0.6258 -0.7513
  209MOL0     H28177   6.428  10.393   7.968 -4.4754 -2.4777 -2.0973
  209MOL0     H28178   6.542  10.505   8.156 -0.5784 -2.1702 -0.9438
  209MOL0     H28179   6.442  10.824   8.219 -0.2630  3.2708  0.4570
  209MOL0     H28180   6.358  10.817   8.372  2.0062 -0.6158  0.3212
  209MOL0     H28181   6.551  10.931   8.447  1.3100  0.9087 -1.4399
  209MOL0     H28182   6.603  10.767   8.478  1.7945 -1.3499 -0.9535
  209MOL0     H28183   6.772  10.896   8.370 -2.2090  5.9252 -1.3742
  209MOL0     H28184   6.708  10.776   8.240  3.2399  1.1964 -1.9523
  209MOL0     H28185   6.599  11.049   8.272 -0.0759  0.8715 -0.7900
  209MOL0     H28186   6.629  10.964   8.122  1.7585 -1.4654 -0.0731
  209MOL0     H28187   6.851  11.099   8.287  0.4910 -0.9841  1.1883
  209MOL0     H28188   6.794  11.137   8.129  1.2100 -0.3577 -0.2132
  209MOL0     H28189   7.015  11.005   8.130 -0.0491 -1.5851 -3.1883
  209MOL0     H28190   6.940  10.882   8.222  0.0338 -1.5312 -0.6907
  209MOL0     H28191   6.805  10.953   7.960 -0.6116  0.4655  2.4233
  209MOL0     H28192   6.840  10.792   8.022  1.1342 -0.0694 -1.4885
  209MOL0     H28193   6.981  10.836   7.809  0.3271 -0.0067 -0.5725
  209MOL0     H28194   7.049  10.975   7.884 -0.6283 -0.3526 -1.6110
  209MOL0     H28195   6.176  10.652   8.300  2.8778  2.3885  0.2478
  209MOL0     H28196   6.050  10.546   8.117  0.0873  0.4425 -2.8595
  209MOL0     H28197   5.777  10.327   7.812  0.2044  0.7738 -0.5145
  209MOL0     H28198   5.682  10.304   7.585 -0.3932 -0.9314  1.5492
  209MOL0     H28199   4.081  10.206   7.259 -0.0776  0.1945  0.5503
  209MOL0     H28200   3.851  10.219   7.195  0.5139 -0.2827  1.9630
  209MOL0     H28201   3.543   9.991   6.940 -0.3343  0.1211 -1.4395
  209MOL0     H28202   3.330  10.019   6.825  2.2786 -0.3010 -0.4115
  209MOL0     H28203   2.972  10.167   6.971  1.2446  0.0798 -3.8674
  209MOL0     H28204   2.971  10.023   7.079  1.0893 -0.0569 -0.5790
  209MOL0     H28205   2.779  10.032   6.923  0.3330  0.2521  0.6955
  209MOL0     H28206   2.886   9.899   6.876 -1.1424 -0.2305  2.1131
  209MOL0     H28207   2.978   9.988   6.691 -0.8103 -1.0918 -0.3310
  209MOL0     H28208   2.947  10.158   6.723 -0.6135  0.3115  2.9972
  209MOL0     H28209   2.700  10.111   6.726  0.0235  0.0557  1.6559
  209MOL0     H28210   2.763  10.145   6.567 -3.5671  1.2784  1.4475
  209MOL0     H28211   2.698   9.738   6.508 -1.7329  0.6112 -3.0004
  209MOL0     H28212   3.131  10.086   7.194 -1.2624  1.9472 -2.5183
  209MOL0     H28213   3.375   9.990   7.423 -0.2000 -0.4510  0.0337
  209MOL0     H28214   3.403  10.156   7.389  1.6246 -1.9474  2.3948
  209MOL0     H28215   3.237  10.092   7.397 -0.9034  0.0366 -1.6184
  210MOL0     O28216   5.555   4.969   1.257  0.3403  0.6459  0.6536
  210MOL0     C28217   5.578   4.915   1.148 -0.8707 -0.6471 -0.1199
  210MOL0     O28218   5.698   4.852   1.122 -0.6800 -0.2137 -0.6008
  210MOL0     C28219   5.805   4.919   1.183  0.2897  0.4011 -0.4696
  210MOL0     C28220   5.862   5.032   1.131 -0.6602 -0.3154  0.4547
  210MOL0     C28221   5.971   5.095   1.195 -0.1480 -0.0962 -0.1362
  210MOL0     C28222   6.032   5.033   1.307  0.3728 -0.4474  1.1540
  210MOL0     O28223   6.126   5.101   1.371 -0.4670  0.4218 -0.3260
  210MOL0     C28224   6.085   5.152   1.491  0.0484 -0.0310 -0.5212
  210MOL0     C28225   5.985   5.261   1.495 -0.2595  0.3087  0.1096
  210MOL0     C28226   5.995   5.329   1.630  0.1648  0.0275  0.2372
  210MOL0     C28227   5.918   5.252   1.735 -0.2286  0.2649  0.9646
  210MOL0     C28228   5.790   5.332   1.770 -0.0699  0.3613 -0.5533
  210MOL0     C28229   5.737   5.265   1.900  0.8695 -0.1080  0.8110
  210MOL0     C28230   5.611   5.333   1.949  0.8485  0.8883  0.0165
  210MOL0     C28231   5.481   5.279   1.882 -0.4576  0.2411 -1.1582
  210MOL0     N28232   5.370   5.356   1.933  0.1410  0.6763 -0.0301
  210MOL0     C28233   5.330   5.388   2.061 -0.7501  1.1240  0.1810
  210MOL0     C28234   5.232   5.471   2.044  0.8318 -0.0216 -0.2450
  210MOL0     C28235   5.161   5.542   2.153 -0.2851 -0.1983 -0.5376
  210MOL0     C28236   5.223   5.675   2.207  0.8767  0.5742 -0.2462
  210MOL0     C28237   5.338   5.655   2.311 -0.4258 -0.2332 -0.4005
  210MOL0     C28238   5.380   5.784   2.386  0.3632 -1.0675  0.0007
  210MOL0     O28239   5.413   5.886   2.287 -0.3388  0.0727 -0.0759
  210MOL0     C28240   5.463   6.008   2.327  0.8171 -0.2269  0.2814
  210MOL0     C28241   5.528   6.089   2.234 -0.0537 -0.6318 -0.2725
  210MOL0     C28242   5.568   6.223   2.261 -0.0263  0.3021 -0.4635
  210MOL0     C28243   5.570   6.265   2.397 -0.0257  0.0789  0.2936
  210MOL0     C28244   5.627   6.395   2.442 -1.0961  0.2324 -0.3806
  210MOL0     O28245   5.707   6.458   2.352 -0.0835  0.0013 -0.7443
  210MOL0     C28246   5.746   6.590   2.368 -0.3748  0.3728 -0.5704
  210MOL0     C28247   5.657   6.682   2.422  0.1849  0.0577  0.0527
  210MOL0     C28248   5.707   6.818   2.445  0.1524 -0.1233  0.4011
  210MOL0     C28249   5.821   6.867   2.384  0.0087 -0.4222  0.7097
  210MOL0     O28250   5.861   6.999   2.398 -0.4209  0.4447 -0.9284
  210MOL0     C28251   5.967   7.042   2.310 -0.0905  0.7916  0.4870
  210MOL0     C28252   5.930   7.050   2.162 -0.0103 -0.1151 -0.0399
  210MOL0     C28253   5.790   7.118   2.152 -0.5223  0.3276 -0.0145
  210MOL0     C28254   5.765   7.178   2.015  0.1725 -0.1080  0.5639
  210MOL0     C28255   5.706   7.314   2.029 -0.9557 -0.0089  1.9245
  210MOL0     C28256   5.753   7.402   1.905  0.9143  0.7193 -0.0158
  210MOL0     C28257   5.693   7.348   1.772 -0.6667 -0.4460 -0.5618
  210MOL0     C28258   5.694   7.447   1.664 -0.3589  0.3434  0.8200
  210MOL0    Cl28259   5.856   7.476   1.623  0.0008 -0.6284  0.5436
  210MOL0     C28260   5.899   6.771   2.306 -0.4568  0.2932 -0.2363
  210MOL0     C28261   5.865   6.636   2.304  1.1276 -0.7429 -0.2051
  210MOL0     O28262   5.604   6.428   2.554 -0.2538  0.2533  0.1941
  210MOL0     C28263   5.501   6.180   2.495  0.1114 -0.7744  0.1974
  210MOL0     C28264   5.436   6.066   2.453  0.3831  0.6009  0.1023
  210MOL0     N28265   5.186   5.469   1.916  0.2212  0.8635  0.2664
  210MOL0     N28266   5.274   5.403   1.846  0.4180  0.8481  0.0727
  210MOL0     C28267   5.978   4.913   1.356  0.0353 -0.9180 -1.0487
  210MOL0     C28268   5.870   4.861   1.294 -0.3577 -0.1359 -1.2638
  210MOL0     C28269   5.458   4.867   1.068 -0.0265  0.1878 -0.0024
  210MOL0     C28270   5.479   4.751   0.983  0.3199  0.6301  0.0904
  210MOL0     C28271   5.379   4.686   0.911 -0.7649 -0.6246 -0.2153
  210MOL0     C28272   5.249   4.730   0.919  0.0866 -0.1359 -0.0397
  210MOL0     O28273   5.132   4.695   0.854 -0.5030 -0.5415  0.2782
  210MOL0     C28274   5.142   4.564   0.790 -0.3364  0.6203  0.8723
  210MOL0     C28275   5.014   4.561   0.704 -0.5077 -0.5869 -0.1151
  210MOL0     C28276   5.002   4.433   0.633 -0.0834 -0.2601 -0.6765
  210MOL0     C28277   4.939   4.319   0.715 -0.1218 -0.6198 -0.3553
  210MOL0     C28278   4.798   4.334   0.725  0.3167 -0.2173 -0.4782
  210MOL0     C28279   4.678   4.361   0.739 -0.3515 -1.0699 -0.1067
  210MOL0     C28280   5.228   4.848   0.996 -0.1214 -0.5644 -0.3637
  210MOL0     C28281   5.325   4.922   1.067 -0.0238  0.5207  0.1159
  210MOL0     C28282   5.293   5.046   1.158  0.0497 -0.4581 -0.0940
  210MOL0     H28283   5.827   5.073   1.037  1.7320  1.1839  0.1314
  210MOL0     H28284   6.005   5.193   1.165 -2.2891  1.1073  1.1540
  210MOL0     H28285   6.048   5.067   1.549 -0.4239  1.0816  0.8776
  210MOL0     H28286   6.176   5.186   1.541 -0.0951  0.0360 -0.3014
  210MOL0     H28287   5.884   5.227   1.471 -1.4655  3.1024  0.7622
  210MOL0     H28288   6.001   5.340   1.421 -0.7494 -1.2743 -1.7736
  210MOL0     H28289   5.947   5.427   1.637  0.3419  0.0118  2.9307
  210MOL0     H28290   6.102   5.337   1.651  0.6573 -2.3143 -0.9976
  210MOL0     H28291   5.897   5.147   1.711 -1.6067  0.0008  3.0421
  210MOL0     H28292   5.976   5.243   1.827  2.1720 -1.0813 -0.5654
  210MOL0     H28293   5.812   5.431   1.811  2.9958 -0.6457  0.5003
  210MOL0     H28294   5.714   5.342   1.692  0.0685  0.5344 -0.6665
  210MOL0     H28295   5.727   5.156   1.897 -1.5473  0.0713 -0.6457
  210MOL0     H28296   5.808   5.282   1.982 -0.2696  1.9425  1.4612
  210MOL0     H28297   5.607   5.442   1.941  1.0359  0.7596 -4.2041
  210MOL0     H28298   5.601   5.305   2.054 -1.2280  0.3743 -0.2611
  210MOL0     H28299   5.488   5.282   1.773  2.4608 -3.7459 -1.3127
  210MOL0     H28300   5.462   5.173   1.902 -5.0403  1.1517  0.6641
  210MOL0     H28301   5.389   5.353   2.145 -2.2486 -0.4664  0.6089
  210MOL0     H28302   5.067   5.573   2.107 -0.1386  0.9470 -0.1160
  210MOL0     H28303   5.132   5.478   2.237 -1.1734 -0.7548 -1.2489
  210MOL0     H28304   5.247   5.730   2.116 -0.8877 -1.3500 -1.9799
  210MOL0     H28305   5.140   5.731   2.249 -2.0685 -1.6947 -2.5835
  210MOL0     H28306   5.426   5.606   2.269 -0.8603  0.0362 -1.6766
  210MOL0     H28307   5.294   5.579   2.377  2.3151 -0.9309  0.7610
  210MOL0     H28308   5.463   5.769   2.455 -0.5659  2.0460  2.0491
  210MOL0     H28309   5.294   5.824   2.441  1.2938 -0.3316  0.9540
  210MOL0     H28310   5.550   6.046   2.137  0.1285  0.8680 -0.9207
  210MOL0     H28311   5.608   6.281   2.179  0.7139 -0.4082 -0.6204
  210MOL0     H28312   5.561   6.659   2.468 -0.0566 -0.3195 -0.6268
  210MOL0     H28313   5.652   6.875   2.519 -0.5359  0.7790 -0.7746
  210MOL0     H28314   5.996   7.136   2.357 -0.4091  1.1024  0.0736
  210MOL0     H28315   6.061   6.987   2.316 -0.1204  0.3912 -1.9649
  210MOL0     H28316   6.007   7.118   2.124  0.9607 -0.4608  1.2495
  210MOL0     H28317   5.934   6.953   2.111  3.2655 -1.9883  3.3198
  210MOL0     H28318   5.707   7.049   2.169 -1.9994  1.4609 -2.1684
  210MOL0     H28319   5.794   7.196   2.229 -3.2246  1.1477 -0.5825
  210MOL0     H28320   5.701   7.108   1.960  1.7447 -0.2430 -1.1690
  210MOL0     H28321   5.855   7.174   1.954 -0.4957  2.3685 -0.7035
  210MOL0     H28322   5.755   7.368   2.111  0.4391  2.8294 -0.5840
  210MOL0     H28323   5.597   7.320   2.040 -1.0247  2.7468  0.6084
  210MOL0     H28324   5.734   7.509   1.909 -2.2145  0.2242  1.2214
  210MOL0     H28325   5.862   7.394   1.911  0.8839  0.5409  0.3598
  210MOL0     H28326   5.593   7.311   1.798 -0.4395 -1.0788 -0.5624
  210MOL0     H28327   5.746   7.264   1.725  1.4780  1.2244 -1.2627
  210MOL0     H28328   5.637   7.403   1.582 -0.1517  1.1840  0.2153
  210MOL0     H28329   5.639   7.534   1.702 -0.7349  1.2517 -1.6392
  210MOL0     H28330   5.995   6.797   2.263 -0.1142  0.9517  0.8985
  210MOL0     H28331   5.922   6.565   2.245  2.5819 -0.4162  0.7422
  210MOL0     H28332   5.489   6.220   2.595  0.8778 -3.7520  1.5932
  210MOL0     H28333   5.382   6.006   2.525  0.8628  0.2135  0.1487
  210MOL0     H28334   6.027   4.871   1.443  0.1119 -0.2068 -0.7461
  210MOL0     H28335   5.822   4.775   1.340 -0.3581  0.5757  0.0999
  210MOL0     H28336   5.579   4.724   0.952  0.1393  2.0057 -1.8784
  210MOL0     H28337   5.415   4.599   0.857 -0.5281 -0.3227 -0.5484
  210MOL0     H28338   5.137   4.482   0.863 -3.1994  1.3286  1.5740
  210MOL0     H28339   5.220   4.548   0.715 -0.5005 -1.9513  1.1648
  210MOL0     H28340   5.021   4.640   0.629  2.9356  2.4877  3.0231
  210MOL0     H28341   4.930   4.573   0.773 -0.4705 -1.2571  0.0532
  210MOL0     H28342   5.103   4.405   0.600  1.2132  3.0949  0.1155
  210MOL0     H28343   4.946   4.452   0.541 -1.1894  0.5994  0.1471
  210MOL0     H28344   4.966   4.222   0.673  0.5348 -0.7333  0.3072
  210MOL0     H28345   4.982   4.318   0.816  0.3671  0.4738 -0.5284
  210MOL0     H28346   4.576   4.393   0.744 -0.1205 -0.5650  1.6368
  210MOL0     H28347   5.124   4.881   0.999  0.0599 -0.0529  2.7621
  210MOL0     H28348   5.237   5.022   1.249 -1.4227 -1.3435 -1.2003
  210MOL0     H28349   5.371   5.120   1.184  0.2342 -1.5045  2.7115
  210MOL0     H28350   5.225   5.108   1.099  0.4167  0.5343  0.4955
  211MOL0     O28351   6.295   6.167   8.215  0.8204  0.0987 -0.2629
  211MOL0     C28352   6.354   6.061   8.194 -0.4620  0.3984 -0.4960
  211MOL0     O28353   6.420   6.017   8.085 -0.3707  0.2268 -0.9016
  211MOL0     C28354   6.399   6.048   7.955  0.0777  0.4999  0.4589
  211MOL0     C28355   6.321   6.154   7.908  0.2580 -0.3397 -0.2228
  211MOL0     C28356   6.321   6.181   7.767  0.0814  0.6484 -0.2795
  211MOL0     C28357   6.395   6.109   7.682  0.9720  0.0728  0.2701
  211MOL0     O28358   6.397   6.143   7.540 -0.4540 -0.3604  0.1356
  211MOL0     C28359   6.280   6.133   7.464  1.1020 -0.3412  0.7848
  211MOL0     C28360   6.268   6.268   7.395  0.5619 -1.2831 -0.1965
  211MOL0     C28361   6.160   6.264   7.290 -0.4180  0.1940  0.4258
  211MOL0     C28362   6.169   6.404   7.218 -0.8693  0.5423  0.2085
  211MOL0     C28363   6.046   6.442   7.129  0.1379 -0.7591 -0.4264
  211MOL0     C28364   6.056   6.362   6.995  0.1267 -0.3403 -0.7877
  211MOL0     C28365   5.924   6.379   6.922 -0.8048 -0.1669 -0.1437
  211MOL0     C28366   5.910   6.513   6.852  0.4639 -0.1836  0.3155
  211MOL0     N28367   5.769   6.538   6.805  0.4311 -0.5297  0.0460
  211MOL0     C28368   5.729   6.520   6.676  0.0503 -0.4935  0.8915
  211MOL0     C28369   5.602   6.584   6.672 -0.3127  0.2900 -0.5009
  211MOL0     C28370   5.537   6.624   6.536  1.0805  0.3127 -0.4499
  211MOL0     C28371   5.472   6.500   6.477  0.3217 -0.2214  0.4153
  211MOL0     C28372   5.399   6.529   6.350 -0.2607 -0.1448 -0.3641
  211MOL0     C28373   5.346   6.404   6.281 -0.0795  0.8105 -0.0270
  211MOL0     O28374   5.258   6.337   6.373  0.4093  0.0502 -0.6593
  211MOL0     C28375   5.184   6.229   6.329  0.0276  0.2937 -0.1300
  211MOL0     C28376   5.104   6.174   6.435  0.2972 -0.2578  0.1052
  211MOL0     C28377   5.010   6.080   6.408 -0.0212  0.5449 -0.1430
  211MOL0     C28378   4.986   6.041   6.273 -0.1158  0.2633 -0.1678
  211MOL0     C28379   4.895   5.934   6.249  0.6560  0.0520  0.5644
  211MOL0     O28380   4.837   5.930   6.127  0.0361 -0.0137  0.0293
  211MOL0     C28381   4.772   5.813   6.095  0.1997  0.3791 -0.0274
  211MOL0     C28382   4.815   5.685   6.121  0.1150  0.2441 -0.2908
  211MOL0     C28383   4.730   5.576   6.078 -1.2174  0.3916 -0.1652
  211MOL0     C28384   4.600   5.599   6.019 -0.3135  0.1676  0.2394
  211MOL0     O28385   4.514   5.503   5.973 -0.3163  0.0069 -0.8414
  211MOL0     C28386   4.549   5.360   5.985 -0.9363  0.5370  0.9436
  211MOL0     C28387   4.417   5.281   5.965 -0.4982 -0.1952  0.3099
  211MOL0     C28388   4.428   5.128   5.959  0.5521  0.2387  0.0658
  211MOL0     C28389   4.337   5.049   5.865  0.4167  0.0083 -0.7020
  211MOL0     C28390   4.182   5.069   5.889 -0.5805 -1.2114  0.5126
  211MOL0     C28391   4.107   4.935   5.875 -0.4344 -0.6297  0.2328
  211MOL0     C28392   4.127   4.848   5.742  0.3413 -0.5103  0.8029
  211MOL0     C28393   3.997   4.769   5.714 -0.4347 -0.8527  0.7875
  211MOL0    Cl28394   3.983   4.638   5.833  0.1941  0.0652 -0.0154
  211MOL0     C28395   4.566   5.732   6.006 -0.1118 -0.1092 -0.2399
  211MOL0     C28396   4.644   5.835   6.049  0.2550  0.1409  0.4549
  211MOL0     O28397   4.874   5.855   6.344 -0.1855  0.0405  0.3927
  211MOL0     C28398   5.056   6.106   6.174 -0.0581  0.7706 -0.0195
  211MOL0     C28399   5.158   6.190   6.196 -0.3704 -0.7020 -0.5559
  211MOL0     N28400   5.579   6.643   6.798  0.4106  0.4389 -0.3628
  211MOL0     N28401   5.672   6.601   6.882  0.2181 -0.0809 -0.1497
  211MOL0     C28402   6.466   6.002   7.722 -0.5354 -0.6014  0.7623
  211MOL0     C28403   6.479   5.972   7.853  0.0900 -1.2399 -0.2497
  211MOL0     C28404   6.395   5.960   8.309 -0.4653 -0.3663 -1.0879
  211MOL0     C28405   6.529   5.933   8.320  0.0264 -0.1600  0.5591
  211MOL0     C28406   6.584   5.854   8.423  0.5219 -0.2270 -0.5721
  211MOL0     C28407   6.499   5.786   8.509  0.8466  0.2426  0.2161
  211MOL0     O28408   6.530   5.709   8.618 -0.4164  0.4746 -0.0088
  211MOL0     C28409   6.670   5.666   8.629 -0.2534  0.1785 -0.1628
  211MOL0     C28410   6.683   5.550   8.721  0.5535 -0.8630 -0.4892
  211MOL0     C28411   6.803   5.563   8.809  0.3575  0.0294 -0.1475
  211MOL0     C28412   6.937   5.516   8.750 -0.7141  0.5876  0.6708
  211MOL0     C28413   6.975   5.574   8.621 -0.3640 -0.0979 -0.4707
  211MOL0     C28414   7.000   5.639   8.522  0.6701  0.5098 -0.7351
  211MOL0     C28415   6.360   5.804   8.488  0.0583  0.9605 -0.1325
  211MOL0     C28416   6.304   5.886   8.386 -0.1619  0.3442  0.7849
  211MOL0     C28417   6.160   5.911   8.383 -0.4918  1.0570 -1.4535
  211MOL0     H28418   6.246   6.205   7.966  0.8839 -0.9401  1.1593
  211MOL0     H28419   6.254   6.256   7.726 -0.4337  0.0829 -0.4942
  211MOL0     H28420   6.285   6.046   7.397 -1.5464 -1.6473  2.1060
  211MOL0     H28421   6.188   6.105   7.516  0.3086  0.1530 -0.3059
  211MOL0     H28422   6.363   6.302   7.354 -0.5941  3.0411  0.2201
  211MOL0     H28423   6.234   6.342   7.467  1.6945 -2.8332  2.0429
  211MOL0     H28424   6.063   6.254   7.339 -3.2237 -0.0377 -4.4768
  211MOL0     H28425   6.168   6.175   7.226 -0.1868 -1.1678  2.2598
  211MOL0     H28426   6.182   6.482   7.293 -1.8191  0.2004  0.7473
  211MOL0     H28427   6.251   6.398   7.145 -0.7077  0.3826  0.4037
  211MOL0     H28428   5.949   6.421   7.175  0.2143  0.5480  0.3709
  211MOL0     H28429   6.056   6.547   7.101  0.7721 -0.8210 -0.4554
  211MOL0     H28430   6.145   6.381   6.934 -0.6305  1.3966 -1.3811
  211MOL0     H28431   6.062   6.256   7.023 -0.4749  0.3601  2.4360
  211MOL0     H28432   5.840   6.367   6.991 -2.2396  0.8009 -1.6453
  211MOL0     H28433   5.932   6.292   6.856  1.3828 -2.0338  2.3665
  211MOL0     H28434   5.934   6.594   6.921 -2.2135  2.2238 -1.3634
  211MOL0     H28435   5.979   6.525   6.768  2.6558  3.4563  2.3662
  211MOL0     H28436   5.777   6.475   6.590 -1.0167 -1.4891  0.7921
  211MOL0     H28437   5.457   6.696   6.552  0.4057 -0.6247  0.6218
  211MOL0     H28438   5.611   6.665   6.467  2.3686 -0.7172  0.2705
  211MOL0     H28439   5.559   6.438   6.454  0.3263  0.4538 -1.4885
  211MOL0     H28440   5.399   6.452   6.542 -0.1189 -0.3439 -0.1707
  211MOL0     H28441   5.467   6.582   6.282  0.7761 -1.1311 -0.1074
  211MOL0     H28442   5.315   6.594   6.377  1.8282  0.9712  4.6972
  211MOL0     H28443   5.426   6.336   6.251 -0.8066  0.1062 -0.4210
  211MOL0     H28444   5.301   6.445   6.191  1.2675  2.5652  0.0512
  211MOL0     H28445   5.113   6.218   6.534 -0.2185 -0.6771  0.3432
  211MOL0     H28446   4.957   6.026   6.485  2.7875 -0.5721  1.1288
  211MOL0     H28447   4.903   5.657   6.179 -1.0204  1.3472  2.0707
  211MOL0     H28448   4.774   5.481   6.109 -1.5137  0.5571  0.8013
  211MOL0     H28449   4.624   5.341   5.908  0.7737  3.1512  1.8257
  211MOL0     H28450   4.580   5.334   6.086  0.5102 -2.1793 -0.1005
  211MOL0     H28451   4.340   5.313   6.035 -1.2433 -2.1726  0.4495
  211MOL0     H28452   4.384   5.310   5.865  0.2852 -0.7714 -0.1221
  211MOL0     H28453   4.533   5.102   5.938  0.4700  0.9940 -1.4634
  211MOL0     H28454   4.399   5.099   6.060 -0.0086 -4.9042 -1.2699
  211MOL0     H28455   4.356   4.943   5.882 -0.8124  0.0802  1.5258
  211MOL0     H28456   4.366   5.079   5.764 -0.3276 -1.3305 -1.3467
  211MOL0     H28457   4.134   5.145   5.827  1.2945 -0.3838  0.0276
  211MOL0     H28458   4.162   5.110   5.988 -0.7977  1.0238 -0.4143
  211MOL0     H28459   4.137   4.873   5.959 -0.5768 -0.8408  0.1269
  211MOL0     H28460   4.002   4.961   5.887 -0.4713  1.8892 -3.6416
  211MOL0     H28461   4.212   4.781   5.755 -1.4325 -2.6664  2.0320
  211MOL0     H28462   4.129   4.915   5.656  0.1044  1.2900  2.1232
  211MOL0     H28463   3.904   4.825   5.708 -0.2828 -0.7575 -1.9296
  211MOL0     H28464   3.996   4.739   5.609  3.1300  1.9766 -0.2559
  211MOL0     H28465   4.468   5.756   5.966  0.5965  0.9250 -1.4300
  211MOL0     H28466   4.611   5.938   6.039  2.4333  1.0167  1.5229
  211MOL0     H28467   5.037   6.081   6.071  1.0978  0.6395 -0.2182
  211MOL0     H28468   5.220   6.239   6.122  0.6112  1.6641  1.6819
  211MOL0     H28469   6.525   5.964   7.639 -1.1569  3.6499 -1.9529
  211MOL0     H28470   6.556   5.900   7.877 -0.4729 -1.9504 -0.5399
  211MOL0     H28471   6.599   5.994   8.264 -1.6929  2.7121  1.2924
  211MOL0     H28472   6.690   5.868   8.436 -0.2244  4.3914  3.3817
  211MOL0     H28473   6.735   5.751   8.652  1.3498 -0.8359 -0.7735
  211MOL0     H28474   6.704   5.628   8.533 -1.5611 -3.1112  0.5512
  211MOL0     H28475   6.689   5.455   8.667 -0.0883 -0.3222 -1.5627
  211MOL0     H28476   6.591   5.541   8.780 -0.3751 -0.0677 -1.7562
  211MOL0     H28477   6.775   5.503   8.896 -0.3067 -1.0212 -1.0640
  211MOL0     H28478   6.826   5.664   8.846  1.5465 -1.4107  3.4823
  211MOL0     H28479   7.014   5.549   8.821 -2.5421  1.9521  2.1493
  211MOL0     H28480   6.942   5.409   8.730  4.0597  0.5772  0.9445
  211MOL0     H28481   7.001   5.674   8.420  1.5247  0.2282 -0.8312
  211MOL0     H28482   6.303   5.746   8.560  1.5145 -2.8157 -1.7407
  211MOL0     H28483   6.106   5.886   8.475  1.9577  3.7668  0.9109
  211MOL0     H28484   6.155   6.020   8.376  2.4231  1.3738 -0.0780
  211MOL0     H28485   6.117   5.862   8.295 -2.2014 -1.1798  0.4813
  212MOL0     O28486   2.522   5.969   2.806 -0.4967  0.2266 -0.5073
  212MOL0     C28487   2.454   5.905   2.889  0.3425  0.5259 -0.4311
  212MOL0     O28488   2.333   5.836   2.864 -0.0195 -0.1875 -0.2206
  212MOL0     C28489   2.301   5.822   2.730 -0.4414 -0.7897 -0.1978
  212MOL0     C28490   2.306   5.697   2.670 -0.7295 -0.0884 -0.1750
  212MOL0     C28491   2.277   5.685   2.533 -0.5976  0.3678 -0.4414
  212MOL0     C28492   2.253   5.792   2.443 -0.8065 -0.7071 -0.3169
  212MOL0     O28493   2.239   5.767   2.310 -0.7229  0.0299  0.3071
  212MOL0     C28494   2.273   5.861   2.214 -1.0713  0.1914 -0.7270
  212MOL0     C28495   2.258   5.767   2.091  0.3791  0.1034  0.5389
  212MOL0     C28496   2.116   5.725   2.053  1.1288  0.3699  0.6896
  212MOL0     C28497   2.104   5.577   2.023  0.8778  1.2694  0.0658
  212MOL0     C28498   2.197   5.538   1.905  0.3529  0.2750 -0.0986
  212MOL0     C28499   2.157   5.410   1.835 -0.1500  0.1251 -0.2538
  212MOL0     C28500   2.011   5.422   1.778  0.5286 -0.2034  0.4396
  212MOL0     C28501   1.970   5.291   1.695 -0.8949  0.3630 -0.5602
  212MOL0     N28502   1.828   5.289   1.654 -0.5913  0.6047  0.0757
  212MOL0     C28503   1.763   5.387   1.573  0.9584 -0.0567  1.0183
  212MOL0     C28504   1.658   5.322   1.522 -0.6812  0.1017  0.0427
  212MOL0     C28505   1.562   5.391   1.433 -0.1494 -0.2000  0.4910
  212MOL0     C28506   1.579   5.347   1.288  0.9425  0.2776 -0.0326
  212MOL0     C28507   1.471   5.415   1.205 -0.2607 -1.1217  0.1484
  212MOL0     C28508   1.475   5.383   1.052  0.0838 -0.6384  0.8583
  212MOL0     O28509   1.361   5.304   1.017  0.2412  0.1982  0.2790
  212MOL0     C28510   1.324   5.295   0.890 -0.3134  0.1347 -0.2808
  212MOL0     C28511   1.217   5.216   0.853  1.0568  0.0668  0.0346
  212MOL0     C28512   1.173   5.202   0.714  0.6918 -0.9547  0.6372
  212MOL0     C28513   1.235   5.277   0.612  0.5503  0.6440  0.6731
  212MOL0     C28514   1.194   5.256   0.468  0.2982 -0.9615 -0.3049
  212MOL0     O28515   1.089   5.169   0.444  0.5028  0.4924 -1.1585
  212MOL0     C28516   1.030   5.146   0.321  0.4607  0.3168  0.8114
  212MOL0     C28517   0.993   5.012   0.291  0.1817  0.3371 -0.0880
  212MOL0     C28518   0.962   4.963   0.164  0.7854 -0.3877  0.3609
  212MOL0     C28519   0.975   5.049   0.050  0.0407  0.2849 -0.1655
  212MOL0     O28520   0.943   5.021  -0.083  0.0197 -0.4369 -0.3904
  212MOL0     C28521   0.980   4.887  -0.124 -0.3172 -0.4584 -0.2945
  212MOL0     C28522   0.921   4.871  -0.259  0.5919  0.0096 -0.0202
  212MOL0     C28523   0.966   4.745  -0.344 -0.3871 -0.1815  0.1314
  212MOL0     C28524   0.915   4.620  -0.275 -0.9658 -0.0371  0.0465
  212MOL0     C28525   0.941   4.508  -0.383 -1.5082 -0.7030 -0.2982
  212MOL0     C28526   0.963   4.374  -0.327 -0.0425  0.0225 -0.7706
  212MOL0     C28527   0.954   4.267  -0.436  0.0608  0.8795  0.4460
  212MOL0     C28528   1.068   4.158  -0.423  0.7069 -0.7183 -0.2880
  212MOL0    Cl28529   1.078   4.094  -0.590  0.2007 -0.0755 -0.3405
  212MOL0     C28530   0.996   5.187   0.078  0.0681 -0.3135 -0.4739
  212MOL0     C28531   1.029   5.234   0.208 -0.6280  0.4350 -0.2977
  212MOL0     O28532   1.240   5.334   0.381  0.6360  0.2543 -0.3366
  212MOL0     C28533   1.333   5.358   0.649 -0.6290  0.5889 -0.1650
  212MOL0     C28534   1.378   5.371   0.786 -0.5614 -0.4601  1.1423
  212MOL0     N28535   1.647   5.193   1.584  0.1369  0.5292 -0.1131
  212MOL0     N28536   1.756   5.170   1.653  0.0786 -0.8350  0.3026
  212MOL0     C28537   2.250   5.927   2.501  0.1190 -0.0907  0.6791
  212MOL0     C28538   2.276   5.933   2.637  0.5123  0.3180  0.4384
  212MOL0     C28539   2.500   5.908   3.038  0.0182 -0.1489 -0.3441
  212MOL0     C28540   2.407   5.869   3.135 -0.5542  0.1064 -0.5182
  212MOL0     C28541   2.436   5.866   3.270  0.4225  1.5038  0.1850
  212MOL0     C28542   2.562   5.917   3.316  0.7194 -0.4736 -0.2054
  212MOL0     O28543   2.573   5.931   3.452  0.0761 -1.1792  0.6803
  212MOL0     C28544   2.680   6.015   3.506 -0.9573 -1.2749 -1.3193
  212MOL0     C28545   2.668   6.033   3.663  0.0470 -0.5517  0.3396
  212MOL0     C28546   2.525   6.085   3.703  0.0114  0.1634 -0.1193
  212MOL0     C28547   2.486   6.228   3.660 -0.4677  0.3909 -0.5785
  212MOL0     C28548   2.586   6.326   3.709  0.6017  0.3952 -0.9319
  212MOL0     C28549   2.669   6.404   3.748  0.6336  0.1114 -0.7860
  212MOL0     C28550   2.655   5.965   3.220  0.3189  0.0776  0.5278
  212MOL0     C28551   2.629   5.950   3.082  0.0939 -0.5532 -0.2357
  212MOL0     C28552   2.740   5.955   2.983 -0.4985 -0.1984 -0.2003
  212MOL0     H28553   2.339   5.620   2.739 -2.2928 -0.6970 -0.0699
  212MOL0     H28554   2.280   5.588   2.484 -1.7924  0.0807  0.0398
  212MOL0     H28555   2.204   5.945   2.225  0.8596  1.5449  3.2012
  212MOL0     H28556   2.380   5.881   2.230 -1.1100 -0.2290  0.1133
  212MOL0     H28557   2.318   5.676   2.086 -0.6881 -0.5504 -3.0021
  212MOL0     H28558   2.291   5.828   2.007 -0.4797  1.0645  0.8687
  212MOL0     H28559   2.096   5.787   1.965  3.1937 -0.0794 -0.1708
  212MOL0     H28560   2.048   5.749   2.134 -1.0525 -2.0023 -0.3158
  212MOL0     H28561   2.118   5.525   2.118  1.1373 -0.8184 -1.0479
  212MOL0     H28562   1.998   5.560   2.000  1.3406 -1.2448 -0.5444
  212MOL0     H28563   2.176   5.619   1.835 -0.5466 -0.5853 -0.8537
  212MOL0     H28564   2.300   5.546   1.941  0.0571  2.8777  0.3570
  212MOL0     H28565   2.224   5.402   1.749  0.3768  0.6781  0.1012
  212MOL0     H28566   2.167   5.321   1.898  1.8933 -0.0659 -0.7785
  212MOL0     H28567   2.008   5.509   1.711 -2.0398  0.1149  0.8560
  212MOL0     H28568   1.933   5.428   1.854  0.6629  0.6678  0.5191
  212MOL0     H28569   2.037   5.280   1.610 -0.8589 -3.6712 -0.1857
  212MOL0     H28570   1.998   5.199   1.747 -3.2221  0.7537  1.5905
  212MOL0     H28571   1.790   5.492   1.571  2.7624 -0.3434  4.3401
  212MOL0     H28572   1.462   5.366   1.467 -0.0810 -1.4070 -0.1447
  212MOL0     H28573   1.587   5.493   1.465  0.3007 -0.1508  0.0090
  212MOL0     H28574   1.676   5.371   1.242  0.9514 -0.1740 -0.2486
  212MOL0     H28575   1.561   5.240   1.276 -1.3991  0.6801 -0.6641
  212MOL0     H28576   1.487   5.522   1.218  0.7548 -1.4903  2.4174
  212MOL0     H28577   1.370   5.408   1.246 -0.7623 -0.4801 -0.9220
  212MOL0     H28578   1.570   5.334   1.028 -0.2599 -0.4295 -1.0676
  212MOL0     H28579   1.474   5.476   0.994 -0.6964 -3.1117 -3.5319
  212MOL0     H28580   1.149   5.165   0.921 -1.3216  3.2614  0.2666
  212MOL0     H28581   1.088   5.138   0.690 -0.3446  1.1807 -1.9251
  212MOL0     H28582   1.003   4.934   0.366 -3.0036  1.6232  1.9082
  212MOL0     H28583   0.941   4.857   0.169  0.6207 -0.3346  0.8311
  212MOL0     H28584   1.088   4.870  -0.121 -0.2713 -0.0919  1.1682
  212MOL0     H28585   0.932   4.812  -0.059 -0.0945 -0.2778  0.0854
  212MOL0     H28586   0.815   4.893  -0.250  0.7890  0.7432  0.7154
  212MOL0     H28587   0.957   4.943  -0.333  2.0093 -1.4574 -0.8257
  212MOL0     H28588   0.920   4.757  -0.442 -4.3851 -0.4830  1.7893
  212MOL0     H28589   1.075   4.744  -0.352 -0.4711 -1.9028 -1.6713
  212MOL0     H28590   0.809   4.617  -0.249 -0.6232 -1.2450  1.4429
  212MOL0     H28591   0.967   4.601  -0.180 -2.0185 -1.9233  0.2989
  212MOL0     H28592   1.020   4.538  -0.452 -1.7885  3.6118  0.9883
  212MOL0     H28593   0.850   4.506  -0.444 -1.8694 -0.8272  0.2435
  212MOL0     H28594   1.068   4.379  -0.297 -0.3190 -0.3363  0.2910
  212MOL0     H28595   0.889   4.354  -0.249  0.0032  1.2194 -0.4067
  212MOL0     H28596   0.968   4.316  -0.533  4.8618  1.9495  1.4661
  212MOL0     H28597   0.851   4.228  -0.436  0.8535 -1.3729  0.3842
  212MOL0     H28598   1.165   4.206  -0.411  0.0871  1.7200 -3.7060
  212MOL0     H28599   1.049   4.080  -0.348  1.6777 -1.2995 -0.6321
  212MOL0     H28600   1.009   5.271   0.011  1.3485  1.3712  1.7676
  212MOL0     H28601   1.041   5.340   0.228  0.1318 -0.0558  2.1949
  212MOL0     H28602   1.380   5.415   0.569  0.0047 -2.0086 -1.7752
  212MOL0     H28603   1.458   5.443   0.782  1.5087 -2.6062 -3.2540
  212MOL0     H28604   2.212   6.009   2.441  4.1608  0.5852 -1.2963
  212MOL0     H28605   2.270   6.030   2.686  0.9726  0.3767  0.3821
  212MOL0     H28606   2.309   5.831   3.109 -1.1855 -0.3258  2.1802
  212MOL0     H28607   2.361   5.831   3.340  1.9831  0.1870  1.2840
  212MOL0     H28608   2.659   6.111   3.458 -4.0224 -0.6554  0.9729
  212MOL0     H28609   2.782   5.990   3.474  0.2243  1.0747  0.2905
  212MOL0     H28610   2.745   6.091   3.715  0.3948 -2.1373  1.6792
  212MOL0     H28611   2.694   5.941   3.716  1.3499 -1.0273 -1.0490
  212MOL0     H28612   2.506   6.069   3.809  1.8342  0.2266  0.2468
  212MOL0     H28613   2.447   6.028   3.653  1.9478 -1.3836 -1.5292
  212MOL0     H28614   2.476   6.250   3.554  2.7412 -3.0556 -1.7957
  212MOL0     H28615   2.386   6.259   3.693  0.1284  4.8292 -2.2076
  212MOL0     H28616   2.733   6.483   3.782 -2.7639  2.6501  0.3527
  212MOL0     H28617   2.748   6.003   3.262 -0.5333  1.7242  1.0307
  212MOL0     H28618   2.724   5.888   2.898 -1.3682 -0.9843  0.5640
  212MOL0     H28619   2.748   6.059   2.950  1.4306 -0.1499  0.3062
  212MOL0     H28620   2.836   5.934   3.032 -1.4442 -2.4403  0.8116
  213MOL0     O28621   5.598   2.393   1.209  0.0736 -0.7868  0.1481
  213MOL0     C28622   5.613   2.516   1.184  0.7748  0.6018 -0.5131
  213MOL0     O28623   5.726   2.590   1.196 -0.2264  0.0911  0.3389
  213MOL0     C28624   5.854   2.545   1.188 -0.4219  0.8700  0.0889
  213MOL0     C28625   5.890   2.419   1.133 -0.2654 -0.1943 -0.2560
  213MOL0     C28626   6.023   2.373   1.139  0.5558  0.9651  0.9384
  213MOL0     C28627   6.113   2.440   1.208  0.3042  0.3495  0.3215
  213MOL0     O28628   6.235   2.379   1.189  0.1508  0.1376  0.1088
  213MOL0     C28629   6.367   2.431   1.214 -0.1102 -0.3573  0.8368
  213MOL0     C28630   6.392   2.451   1.362 -0.3284 -0.3208 -0.4112
  213MOL0     C28631   6.536   2.421   1.403  0.0199  0.2829 -0.2606
  213MOL0     C28632   6.575   2.265   1.411 -0.9606  0.0218 -0.5781
  213MOL0     C28633   6.730   2.228   1.414 -0.2421 -0.7483 -0.0042
  213MOL0     C28634   6.806   2.284   1.538 -0.0750  0.2693  0.1904
  213MOL0     C28635   6.938   2.209   1.545  0.0189  0.0694  0.0136
  213MOL0     C28636   6.979   2.222   1.689  0.2085  0.2174 -0.4079
  213MOL0     N28637   7.066   2.125   1.739  0.7632 -0.0272  0.1334
  213MOL0     C28638   7.189   2.100   1.677  1.2110 -0.9935 -0.3870
  213MOL0     C28639   7.234   1.992   1.753 -1.0395 -0.1852  0.1651
  213MOL0     C28640   7.362   1.912   1.759  0.9886  0.6650  1.0566
  213MOL0     C28641   7.489   1.994   1.774  0.2736 -0.3660  0.3793
  213MOL0     C28642   7.518   2.084   1.660  0.6326  0.0018  0.3177
  213MOL0     C28643   7.665   2.128   1.645 -0.5218  0.3163  0.1793
  213MOL0     O28644   7.728   2.114   1.774  0.8185  0.0861  0.0436
  213MOL0     C28645   7.843   2.176   1.792 -1.1962 -0.7512  0.2152
  213MOL0     C28646   7.874   2.242   1.909 -0.2990  0.4248  0.2833
  213MOL0     C28647   7.995   2.300   1.942 -0.5440 -0.5465  0.1737
  213MOL0     C28648   8.096   2.289   1.845 -0.1402 -0.0588 -0.4700
  213MOL0     C28649   8.234   2.339   1.878  0.7198 -0.5104 -0.7631
  213MOL0     O28650   8.320   2.323   1.777  0.7605  0.4186 -0.6929
  213MOL0     C28651   8.442   2.384   1.785  0.9457 -0.8779 -1.5318
  213MOL0     C28652   8.450   2.522   1.822  0.6382 -0.0628 -0.3563
  213MOL0     C28653   8.573   2.593   1.822 -0.3958  0.0838  0.7517
  213MOL0     C28654   8.692   2.532   1.775  0.3757 -0.2887  0.0446
  213MOL0     O28655   8.811   2.600   1.755  0.0236  0.2171 -0.0564
  213MOL0     C28656   8.805   2.721   1.678 -0.2532  0.4016  0.6342
  213MOL0     C28657   8.938   2.724   1.604 -0.0951 -0.7336 -0.9564
  213MOL0     C28658   9.063   2.737   1.692 -0.9455  0.9215 -0.3943
  213MOL0     C28659   9.128   2.877   1.677 -0.8037 -0.2385 -0.1362
  213MOL0     C28660   9.024   2.990   1.730  0.2185 -1.7134 -0.5825
  213MOL0     C28661   9.078   3.139   1.723  0.4178 -0.2425 -0.5539
  213MOL0     C28662   9.021   3.216   1.602  0.2545  0.2745 -0.2164
  213MOL0     C28663   9.075   3.348   1.579  0.0712 -0.3807 -0.0741
  213MOL0    Cl28664   9.243   3.316   1.514 -0.0254 -0.1172 -0.0925
  213MOL0     C28665   8.677   2.399   1.734  0.0172 -0.2245  0.3415
  213MOL0     C28666   8.553   2.326   1.734 -0.1802 -0.7019  0.4742
  213MOL0     O28667   8.266   2.391   1.981  0.2816 -0.3869 -0.3895
  213MOL0     C28668   8.062   2.232   1.712 -0.1735  0.8046 -1.1712
  213MOL0     C28669   7.940   2.169   1.697 -0.5536 -0.0653  0.5216
  213MOL0     N28670   7.140   1.965   1.846  0.1452  0.3522 -0.2770
  213MOL0     N28671   7.033   2.029   1.824  0.1152 -0.6223 -0.0733
  213MOL0     C28672   6.080   2.558   1.268  0.1298  0.0778 -0.7333
  213MOL0     C28673   5.952   2.611   1.261  0.0490  0.0296  0.7102
  213MOL0     C28674   5.488   2.583   1.128 -0.6765  0.4643  0.1825
  213MOL0     C28675   5.366   2.507   1.117 -0.3617  0.5690 -0.0327
  213MOL0     C28676   5.255   2.561   1.061  1.0354 -0.4976  1.0751
  213MOL0     C28677   5.244   2.693   1.023 -0.0061 -0.0804 -0.7760
  213MOL0     O28678   5.121   2.722   0.963 -0.0224  0.3884 -0.0664
  213MOL0     C28679   5.082   2.866   0.961 -0.3384 -0.4647 -0.8697
  213MOL0     C28680   5.057   2.933   1.094 -1.1787 -0.5569  0.0607
  213MOL0     C28681   4.964   2.853   1.175 -0.8310 -0.3294  0.0341
  213MOL0     C28682   4.905   2.935   1.283  0.1868 -0.0369  0.7920
  213MOL0     C28683   5.001   2.991   1.384 -0.1841  0.5177 -0.0310
  213MOL0     C28684   5.081   3.049   1.461 -0.1235 -0.1868  0.4056
  213MOL0     C28685   5.355   2.781   1.043  0.4336 -0.5560  0.4656
  213MOL0     C28686   5.475   2.727   1.093 -0.5136  0.4947 -0.6432
  213MOL0     C28687   5.587   2.822   1.107 -1.0451  0.2205 -0.5794
  213MOL0     H28688   5.810   2.368   1.080  0.3115 -1.6005  0.2069
  213MOL0     H28689   6.049   2.280   1.090  1.4144  2.2945 -1.2838
  213MOL0     H28690   6.440   2.362   1.169  2.2532  2.6169 -0.2466
  213MOL0     H28691   6.375   2.528   1.164 -0.8821  1.0799  3.3471
  213MOL0     H28692   6.313   2.394   1.414 -1.5978  3.7237  2.6090
  213MOL0     H28693   6.376   2.556   1.387 -1.6488 -0.0249 -2.2464
  213MOL0     H28694   6.566   2.458   1.501  2.7050 -1.3198 -0.3862
  213MOL0     H28695   6.591   2.489   1.337 -0.2628  0.3772 -0.4001
  213MOL0     H28696   6.528   2.232   1.504  0.0700 -0.4063 -0.1867
  213MOL0     H28697   6.538   2.203   1.330  0.6188 -1.9193  0.1206
  213MOL0     H28698   6.741   2.119   1.413  2.7377 -0.5878  2.1141
  213MOL0     H28699   6.776   2.270   1.325  0.2736 -1.4692 -0.0872
  213MOL0     H28700   6.803   2.393   1.540 -1.3553  0.2537  1.8436
  213MOL0     H28701   6.745   2.257   1.625 -1.0038 -0.3799 -0.6418
  213MOL0     H28702   7.020   2.252   1.486  1.1828  1.7234  2.6320
  213MOL0     H28703   6.930   2.104   1.519  1.0509 -0.4377  1.5800
  213MOL0     H28704   7.007   2.326   1.704 -0.9445  0.9748 -3.0099
  213MOL0     H28705   6.890   2.212   1.752  0.6860  1.0168  0.4165
  213MOL0     H28706   7.240   2.163   1.605 -1.8598  0.5056 -1.4195
  213MOL0     H28707   7.356   1.846   1.846  1.9581  1.6799  1.9284
  213MOL0     H28708   7.364   1.854   1.666  2.0373 -0.8079  1.9662
  213MOL0     H28709   7.495   2.051   1.867  1.1289  3.3256 -1.7514
  213MOL0     H28710   7.564   1.916   1.791  0.7312  0.3430  1.8187
  213MOL0     H28711   7.449   2.169   1.664  1.3678  0.6419 -0.5291
  213MOL0     H28712   7.507   2.032   1.564  2.6341  1.1398 -0.5860
  213MOL0     H28713   7.684   2.226   1.602  1.9728  0.4903  1.4916
  213MOL0     H28714   7.709   2.067   1.566 -0.4675  1.9401 -1.0942
  213MOL0     H28715   7.809   2.229   1.995 -0.0368  0.5215  0.4979
  213MOL0     H28716   8.009   2.347   2.039 -0.4421  0.5983 -0.3814
  213MOL0     H28717   8.357   2.569   1.853 -1.0271 -2.1111 -1.9658
  213MOL0     H28718   8.593   2.690   1.867  0.5521  1.5687 -2.5615
  213MOL0     H28719   8.725   2.721   1.603  1.8010 -1.5939 -1.7175
  213MOL0     H28720   8.786   2.800   1.752 -0.7612 -2.0044  3.2356
  213MOL0     H28721   8.951   2.629   1.551 -0.1359 -2.5517  2.0619
  213MOL0     H28722   8.929   2.814   1.543 -0.9594 -0.6091 -0.6603
  213MOL0     H28723   9.056   2.705   1.796 -2.7228 -0.6682 -0.9312
  213MOL0     H28724   9.134   2.668   1.645 -1.0998 -0.1865  0.9545
  213MOL0     H28725   9.167   2.891   1.576 -3.5087  2.3383 -0.9916
  213MOL0     H28726   9.219   2.884   1.737  0.3659 -3.3221 -1.3481
  213MOL0     H28727   9.007   2.961   1.834 -1.8057 -2.1097 -0.9940
  213MOL0     H28728   8.922   2.999   1.693  0.8253  2.4524 -1.8318
  213MOL0     H28729   9.041   3.190   1.812 -2.2796 -1.3388 -0.9628
  213MOL0     H28730   9.186   3.134   1.709  0.4632  1.3641 -1.0231
  213MOL0     H28731   8.913   3.232   1.601  0.6443  3.5928  0.1274
  213MOL0     H28732   9.031   3.153   1.513  1.0753  1.4448 -0.9850
  213MOL0     H28733   9.011   3.398   1.506 -0.8455  1.2647  1.7499
  213MOL0     H28734   9.070   3.409   1.670  0.8710 -0.7710  0.2318
  213MOL0     H28735   8.764   2.357   1.684  0.4342  2.1614 -1.1057
  213MOL0     H28736   8.540   2.227   1.692  0.8433  0.1518 -2.1082
  213MOL0     H28737   8.132   2.216   1.630 -0.5538  1.6645 -1.6788
  213MOL0     H28738   7.928   2.128   1.597 -2.1465  1.5517 -0.0135
  213MOL0     H28739   6.149   2.607   1.336  0.2537 -0.2831 -0.5972
  213MOL0     H28740   5.926   2.693   1.327  0.8357 -0.0542  1.1259
  213MOL0     H28741   5.368   2.402   1.142 -0.2239  0.7163  0.5914
  213MOL0     H28742   5.164   2.506   1.037  0.2018  1.5639 -0.9904
  213MOL0     H28743   4.990   2.877   0.903 -1.0673 -2.7145 -0.2374
  213MOL0     H28744   5.163   2.928   0.920  1.7898 -1.4524  1.5061
  213MOL0     H28745   5.001   3.024   1.068  1.2158  0.2457 -2.9820
  213MOL0     H28746   5.145   2.970   1.146 -0.5996  0.6584 -1.6603
  213MOL0     H28747   5.014   2.763   1.212 -0.5661  1.1545  3.7414
  213MOL0     H28748   4.876   2.819   1.120  0.2422 -0.7053 -1.5237
  213MOL0     H28749   4.861   3.022   1.231  1.1133 -0.4648 -0.7671
  213MOL0     H28750   4.828   2.879   1.336 -2.7693  0.2060 -2.8217
  213MOL0     H28751   5.161   3.083   1.524  1.4131 -1.2830 -0.8712
  213MOL0     H28752   5.342   2.887   1.025  0.6580 -1.0274 -3.4115
  213MOL0     H28753   5.569   2.926   1.078  1.7095  0.4740 -1.7311
  213MOL0     H28754   5.634   2.820   1.205 -1.6681  1.2932 -0.2322
  213MOL0     H28755   5.653   2.784   1.029 -3.1378  0.4094 -2.5524
  214MOL0     O28756   0.301  10.592  10.287  0.5657 -0.2537 -0.6845
  214MOL0     C28757   0.365  10.701  10.292 -0.2394 -0.1049  0.0601
  214MOL0     O28758   0.483  10.713  10.233  0.1253  0.1374  0.0891
  214MOL0     C28759   0.542  10.611  10.167  0.2790 -0.3610 -0.0051
  214MOL0     C28760   0.486  10.566  10.048  0.1439  0.0481  1.0853
  214MOL0     C28761   0.552  10.466   9.980 -0.1844 -0.8174 -0.1577
  214MOL0     C28762   0.671  10.410  10.027 -0.0011  1.0930  0.1045
  214MOL0     O28763   0.736  10.310   9.959 -0.4798  0.7843  0.1620
  214MOL0     C28764   0.782  10.316   9.820  0.3866 -0.3737 -0.6242
  214MOL0     C28765   0.848  10.181   9.788 -0.3939 -0.0640  0.4938
  214MOL0     C28766   0.973  10.159   9.868 -0.4093 -0.1558  0.1855
  214MOL0     C28767   1.052  10.025   9.856 -0.3823 -0.3463 -0.7236
  214MOL0     C28768   1.198  10.028   9.873 -0.2207 -0.1238  0.0865
  214MOL0     C28769   1.248   9.877   9.882  0.2244 -0.3425 -0.0772
  214MOL0     C28770   1.254   9.820   9.738 -0.4548  0.0715 -0.1370
  214MOL0     C28771   1.353   9.701   9.733  0.4792 -0.0003  0.6071
  214MOL0     N28772   1.314   9.581   9.809  0.7128  0.3413 -0.7538
  214MOL0     C28773   1.186   9.525   9.792 -1.6236  0.0759  0.1027
  214MOL0     C28774   1.182   9.432   9.888 -1.2089  0.8341  0.2700
  214MOL0     C28775   1.060   9.353   9.926  0.6731  0.8763  0.1247
  214MOL0     C28776   0.961   9.316   9.808 -0.1856  0.3662 -0.0755
  214MOL0     C28777   1.004   9.207   9.711 -0.0285  0.4644  0.4476
  214MOL0     C28778   1.107   9.248   9.603  0.2262 -0.4295  0.6779
  214MOL0     O28779   1.047   9.343   9.515  0.3987 -0.1599 -0.1392
  214MOL0     C28780   1.131   9.425   9.435 -0.4091  0.0863  0.3505
  214MOL0     C28781   1.276   9.430   9.437 -0.3412  0.3067 -1.4172
  214MOL0     C28782   1.341   9.507   9.341 -0.5498 -0.0459  0.8835
  214MOL0     C28783   1.274   9.586   9.238 -0.3790  1.0254 -0.8203
  214MOL0     C28784   1.357   9.659   9.143 -0.5140  0.0123  0.1126
  214MOL0     O28785   1.452   9.725   9.206  0.1046  0.2099 -0.5520
  214MOL0     C28786   1.526   9.817   9.132 -0.2047 -0.2345 -0.5964
  214MOL0     C28787   1.465   9.922   9.070  0.0501  1.2542 -0.0126
  214MOL0     C28788   1.533  10.024   9.005 -0.7266  0.2828 -0.6488
  214MOL0     C28789   1.677  10.024   9.017 -0.1143  0.3482 -0.7653
  214MOL0     O28790   1.763  10.121   8.969  0.2945  0.3967  0.7498
  214MOL0     C28791   1.714  10.227   8.882 -1.0607  0.2833  1.0147
  214MOL0     C28792   1.719  10.171   8.732 -0.1382  1.1393  0.8323
  214MOL0     C28793   1.640  10.254   8.630 -0.2557  0.3824  0.8295
  214MOL0     C28794   1.581  10.169   8.515 -0.5593 -0.7838  0.0786
  214MOL0     C28795   1.534  10.255   8.409  0.4397 -0.9601 -0.1835
  214MOL0     C28796   1.489  10.186   8.284  0.3230  0.6601  0.2485
  214MOL0     C28797   1.372  10.091   8.297  0.6178 -0.0864  0.1790
  214MOL0     C28798   1.321  10.022   8.162 -0.6428  0.2438  0.3225
  214MOL0    Cl28799   1.238  10.139   8.066 -0.3192 -0.4067 -0.1927
  214MOL0     C28800   1.739   9.924   9.085 -0.4438 -0.1342 -0.7643
  214MOL0     C28801   1.668   9.816   9.134  0.0131  0.5855 -0.1691
  214MOL0     O28802   1.324   9.674   9.028  0.3877 -0.5011 -0.8171
  214MOL0     C28803   1.140   9.570   9.235 -0.8889 -1.0000 -0.0418
  214MOL0     C28804   1.065   9.500   9.335  0.0330  0.4855  0.3036
  214MOL0     N28805   1.314   9.419   9.948  0.6784 -0.7155 -0.1141
  214MOL0     N28806   1.375   9.529   9.918  0.5389 -0.3073 -0.2049
  214MOL0     C28807   0.730  10.457  10.140 -0.0478 -0.0165 -0.1527
  214MOL0     C28808   0.669  10.566  10.211  0.1832  0.4054  0.1043
  214MOL0     C28809   0.278  10.822  10.339 -0.0763 -0.0519 -0.0641
  214MOL0     C28810   0.141  10.811  10.325 -0.0534  0.2196  0.3163
  214MOL0     C28811   0.059  10.891  10.395  0.8896 -0.7865 -0.3174
  214MOL0     C28812   0.111  10.991  10.470  0.0147  0.5842  0.1449
  214MOL0     O28813   0.042  11.079  10.541  0.0978 -0.0225  0.1107
  214MOL0     C28814  -0.087  11.041  10.600  0.3276 -0.2205 -0.3365
  214MOL0     C28815  -0.069  10.939  10.719 -0.2006 -0.3653  0.2878
  214MOL0     C28816  -0.122  10.989  10.856 -0.2331  0.3290  0.3588
  214MOL0     C28817  -0.060  10.907  10.967  0.4200 -0.3009  0.1899
  214MOL0     C28818  -0.111  10.978  11.081 -0.8351  1.1150 -0.8605
  214MOL0     C28819  -0.157  11.030  11.178  0.2209 -0.7074 -0.4944
  214MOL0     C28820   0.251  11.023  10.468  0.6509 -0.3743 -0.6548
  214MOL0     C28821   0.340  10.937  10.402 -0.7471  0.6415 -0.1549
  214MOL0     C28822   0.490  10.959  10.412  0.4706  0.6662 -0.0715
  214MOL0     H28823   0.398  10.612  10.007 -0.4857 -2.7598 -1.0330
  214MOL0     H28824   0.516  10.429   9.885 -1.3944 -0.3897  0.1181
  214MOL0     H28825   0.707  10.334   9.742 -1.2143  1.2207  1.1683
  214MOL0     H28826   0.860  10.393   9.825 -0.1874  0.1921 -0.2637
  214MOL0     H28827   0.907  10.187   9.696 -0.2284 -0.0166  0.6011
  214MOL0     H28828   0.782  10.095   9.789  0.9651 -1.1448  0.6088
  214MOL0     H28829   0.946  10.169   9.974  3.4499  0.3377  1.2846
  214MOL0     H28830   1.042  10.244   9.860  0.4573 -0.7007  1.4404
  214MOL0     H28831   1.012   9.948   9.922 -1.4714  0.0157 -0.9344
  214MOL0     H28832   1.036   9.969   9.763  3.3270 -1.1941 -1.0218
  214MOL0     H28833   1.248  10.092   9.799 -1.8804  3.5967  1.9012
  214MOL0     H28834   1.211  10.079   9.969 -2.4849  2.2941 -0.7705
  214MOL0     H28835   1.348   9.874   9.927 -0.3639  2.1543  1.5701
  214MOL0     H28836   1.197   9.807   9.949  2.7124 -1.0857  1.1563
  214MOL0     H28837   1.288   9.897   9.668 -0.2925  1.8998  1.8590
  214MOL0     H28838   1.153   9.796   9.703 -0.4870  1.6177 -1.1928
  214MOL0     H28839   1.368   9.661   9.633 -1.6662 -2.3125  1.0924
  214MOL0     H28840   1.453   9.736   9.762  1.0217 -0.7299 -0.3281
  214MOL0     H28841   1.102   9.556   9.730 -0.6390  1.4391 -0.5945
  214MOL0     H28842   1.094   9.257   9.966 -0.4698 -0.1053 -1.1321
  214MOL0     H28843   0.991   9.398   9.999  1.4500 -0.2601  1.6245
  214MOL0     H28844   0.874   9.276   9.861 -0.1702  0.1022 -0.2478
  214MOL0     H28845   0.941   9.410   9.756  0.7706 -0.0090 -1.1625
  214MOL0     H28846   0.919   9.161   9.659 -0.7017 -0.3824  2.2070
  214MOL0     H28847   1.057   9.122   9.755  0.8533  0.7504 -0.0346
  214MOL0     H28848   1.154   9.169   9.544  2.4675 -0.1023  1.9283
  214MOL0     H28849   1.188   9.290   9.664  0.9693  0.2761 -0.7505
  214MOL0     H28850   1.322   9.363   9.509 -3.1541 -2.2305 -1.8015
  214MOL0     H28851   1.449   9.499   9.336 -0.5325  0.8679 -2.6475
  214MOL0     H28852   1.357   9.912   9.082  0.2238 -2.2716 -0.2956
  214MOL0     H28853   1.474  10.099   8.954  1.0565  1.2794 -1.3464
  214MOL0     H28854   1.615  10.269   8.904 -2.0056 -1.3532  0.1045
  214MOL0     H28855   1.787  10.308   8.884 -0.5647 -0.1688  2.7499
  214MOL0     H28856   1.819  10.159   8.691 -0.4567  2.8439 -0.5605
  214MOL0     H28857   1.670  10.073   8.737 -0.1587  1.1364  0.5584
  214MOL0     H28858   1.559  10.307   8.680 -0.9855  1.2666 -1.1957
  214MOL0     H28859   1.717  10.322   8.592  1.4126 -0.5737  2.2954
  214MOL0     H28860   1.503  10.104   8.554  0.1794 -1.4993  0.3893
  214MOL0     H28861   1.657  10.102   8.475 -0.1893 -1.0307  1.1464
  214MOL0     H28862   1.612  10.328   8.385  0.6685 -0.7714  1.0826
  214MOL0     H28863   1.447  10.312   8.442  2.2945  2.4138 -0.6556
  214MOL0     H28864   1.479  10.260   8.204 -1.6901 -1.4010 -1.5579
  214MOL0     H28865   1.570  10.120   8.253 -0.5365 -1.4394  2.1760
  214MOL0     H28866   1.295  10.143   8.353 -0.9591 -1.0052 -1.0403
  214MOL0     H28867   1.394  10.006   8.362 -3.1783 -2.8547 -1.7160
  214MOL0     H28868   1.395   9.964   8.106 -0.4143 -0.5427  1.3858
  214MOL0     H28869   1.247   9.943   8.183 -1.3965  0.4859 -1.2612
  214MOL0     H28870   1.847   9.930   9.094 -0.5733 -0.7073  2.9253
  214MOL0     H28871   1.720   9.751   9.204 -1.5365  1.1766  1.6254
  214MOL0     H28872   1.083   9.620   9.157 -3.6188 -5.0634 -0.9685
  214MOL0     H28873   0.958   9.495   9.353 -0.1297 -0.1746 -0.7568
  214MOL0     H28874   0.821  10.410  10.175  0.5549  2.0520  1.2491
  214MOL0     H28875   0.724  10.603  10.298  1.0545 -2.3700  0.8198
  214MOL0     H28876   0.110  10.744  10.246  1.1616  0.8076 -0.6976
  214MOL0     H28877  -0.048  10.875  10.386  0.6905 -0.1374  0.6637
  214MOL0     H28878  -0.160  11.004  10.528  0.0390  1.8041 -1.1364
  214MOL0     H28879  -0.130  11.140  10.617  3.0399  1.3058 -1.7725
  214MOL0     H28880   0.038  10.920  10.730 -0.1955 -1.5134 -1.3395
  214MOL0     H28881  -0.112  10.840  10.702  2.1947 -1.4517  0.0705
  214MOL0     H28882  -0.232  10.984  10.850 -0.1937  0.7941 -1.1553
  214MOL0     H28883  -0.083  11.090  10.867  0.7622  0.0475 -0.4694
  214MOL0     H28884  -0.098  10.804  10.967 -0.5054  0.0234 -0.5844
  214MOL0     H28885   0.049  10.906  10.955  0.8310 -0.7192  3.1233
  214MOL0     H28886  -0.196  11.083  11.264  1.0688  1.9629 -1.6577
  214MOL0     H28887   0.297  11.105  10.522  3.8005 -3.3157  1.6242
  214MOL0     H28888   0.545  10.937  10.321  1.8908 -0.5287  1.0308
  214MOL0     H28889   0.499  11.065  10.438 -2.6234  0.8193  0.7467
  214MOL0     H28890   0.533  10.901  10.495 -0.5277  1.6040  1.1539
  215MOL0     O28891   3.570   1.097   8.548  0.9986  0.7541 -0.2167
  215MOL0     C28892   3.570   1.076   8.668  0.6884  0.3429 -0.1352
  215MOL0     O28893   3.498   1.156   8.759  0.4898 -0.4103 -0.2594
  215MOL0     C28894   3.380   1.226   8.719 -2.0519 -0.2132  0.4032
  215MOL0     C28895   3.300   1.188   8.613  0.2952 -0.1265 -0.1101
  215MOL0     C28896   3.209   1.285   8.574  0.5635  0.7500 -0.6113
  215MOL0     C28897   3.174   1.399   8.655 -0.9139  0.2893  0.0275
  215MOL0     O28898   3.064   1.475   8.613  0.2302 -0.5850  0.0580
  215MOL0     C28899   3.067   1.620   8.634 -0.2081  0.1372 -0.0233
  215MOL0     C28900   3.170   1.707   8.565 -0.0219  0.2814  0.0995
  215MOL0     C28901   3.130   1.714   8.417  0.3113  0.3023 -0.4166
  215MOL0     C28902   2.997   1.804   8.389  0.3725 -1.4123  0.2759
  215MOL0     C28903   2.951   1.845   8.243 -0.3990 -0.4113 -0.2163
  215MOL0     C28904   2.805   1.852   8.212 -0.0067 -0.1085  0.7274
  215MOL0     C28905   2.784   1.887   8.058  0.6708  0.2152  0.1749
  215MOL0     C28906   2.762   1.764   7.965 -0.2622  0.5282  0.6690
  215MOL0     N28907   2.759   1.821   7.830  0.7030  0.2059 -1.0848
  215MOL0     C28908   2.867   1.855   7.755 -0.0500 -0.1786 -0.2105
  215MOL0     C28909   2.821   1.914   7.639  0.6506  0.2285 -0.5708
  215MOL0     C28910   2.899   1.978   7.527  0.3898  0.7932 -0.4691
  215MOL0     C28911   2.991   2.085   7.585  0.0489  0.4902 -0.5553
  215MOL0     C28912   3.044   2.169   7.471  0.3820 -0.5863 -0.4152
  215MOL0     C28913   3.111   2.301   7.518 -0.7979 -0.8687 -1.0906
  215MOL0     O28914   3.192   2.268   7.631  1.2308 -0.8503 -0.2720
  215MOL0     C28915   3.272   2.369   7.682 -0.4702 -0.3116 -0.1280
  215MOL0     C28916   3.259   2.509   7.660  0.2509  0.2995 -0.0467
  215MOL0     C28917   3.356   2.603   7.696 -0.4881 -0.0633  0.0664
  215MOL0     C28918   3.476   2.558   7.751 -0.1023  0.6034  0.6995
  215MOL0     C28919   3.591   2.650   7.786 -0.4241 -0.0514  0.9076
  215MOL0     O28920   3.720   2.602   7.781  0.0954  0.1878  0.2756
  215MOL0     C28921   3.825   2.698   7.782  0.7144  0.7400  0.0691
  215MOL0     C28922   3.825   2.783   7.890 -0.7832 -0.4128  0.0574
  215MOL0     C28923   3.929   2.870   7.912 -0.2618  0.2080  0.2507
  215MOL0     C28924   4.039   2.866   7.824 -1.0146 -0.6319 -0.7346
  215MOL0     O28925   4.135   2.964   7.832 -0.5577  0.7544 -0.1935
  215MOL0     C28926   4.091   3.087   7.786  0.7841 -1.2637  0.2984
  215MOL0     C28927   4.194   3.193   7.823 -0.6365 -1.1564 -0.9267
  215MOL0     C28928   4.173   3.327   7.756  0.6490  0.1460 -0.3545
  215MOL0     C28929   4.282   3.422   7.805 -0.7265 -0.2459  0.3241
  215MOL0     C28930   4.322   3.534   7.710  0.1660  0.4500  0.2021
  215MOL0     C28931   4.421   3.493   7.599  1.4505 -0.1371 -0.8188
  215MOL0     C28932   4.516   3.609   7.569  0.4126 -0.2305  0.9231
  215MOL0     C28933   4.600   3.577   7.443  1.0297 -0.7639  0.5677
  215MOL0    Cl28934   4.752   3.672   7.448 -0.2979  0.3175  0.0284
  215MOL0     C28935   4.040   2.775   7.720 -0.2904  0.1710  0.2391
  215MOL0     C28936   3.929   2.692   7.699 -0.3224  0.3796  0.1296
  215MOL0     O28937   3.568   2.773   7.780  0.0119  0.1931 -0.0239
  215MOL0     C28938   3.491   2.414   7.768  0.7808 -0.8544 -0.0391
  215MOL0     C28939   3.389   2.324   7.739 -0.2083 -0.1296  0.0356
  215MOL0     N28940   2.682   1.916   7.652  0.7002  0.5362  0.6365
  215MOL0     N28941   2.653   1.870   7.767 -0.1368  0.2761 -0.1719
  215MOL0     C28942   3.251   1.426   8.766 -0.6012  0.0178  0.6799
  215MOL0     C28943   3.361   1.345   8.791 -0.6686 -0.3909  0.6397
  215MOL0     C28944   3.671   0.970   8.721 -0.5923 -1.4408  0.1738
  215MOL0     C28945   3.686   0.960   8.865 -1.1112 -0.1875  0.1673
  215MOL0     C28946   3.768   0.871   8.933  0.6631  0.5534 -0.1846
  215MOL0     C28947   3.836   0.776   8.863 -0.8440  0.1813 -0.1010
  215MOL0     O28948   3.905   0.678   8.939 -0.4769  0.8565  0.8873
  215MOL0     C28949   4.013   0.604   8.880  0.7337 -0.2195 -0.1129
  215MOL0     C28950   4.090   0.542   8.986  0.5474 -0.7403  0.0282
  215MOL0     C28951   4.022   0.444   9.079 -0.1886  0.7774 -0.1214
  215MOL0     C28952   4.129   0.374   9.170 -0.0737  0.5790  0.4699
  215MOL0     C28953   4.170   0.460   9.278 -0.8671  0.8865  0.1818
  215MOL0     C28954   4.187   0.518   9.383 -0.6781 -0.3243 -0.0984
  215MOL0     C28955   3.825   0.781   8.724 -0.5689 -0.5166 -0.3117
  215MOL0     C28956   3.747   0.869   8.654  0.3309 -0.4383  0.0464
  215MOL0     C28957   3.755   0.861   8.498 -0.3341 -0.2304 -0.0270
  215MOL0     H28958   3.319   1.102   8.549  1.4494  0.4313 -0.5536
  215MOL0     H28959   3.136   1.257   8.500 -0.5032 -0.4306  0.8254
  215MOL0     H28960   2.969   1.664   8.613 -0.1345 -0.1883 -1.0925
  215MOL0     H28961   3.093   1.633   8.739 -0.3293  0.6606 -0.0569
  215MOL0     H28962   3.270   1.666   8.581  0.8945  2.1270 -0.6583
  215MOL0     H28963   3.179   1.807   8.609  1.5511 -0.1778  0.8938
  215MOL0     H28964   3.120   1.609   8.388  1.8861 -1.4758  4.4811
  215MOL0     H28965   3.203   1.750   8.344  1.1151 -0.5276 -0.0469
  215MOL0     H28966   2.917   1.750   8.441  2.0317 -2.6058  1.7156
  215MOL0     H28967   3.015   1.897   8.442 -1.0840 -1.9888  1.8971
  215MOL0     H28968   2.998   1.939   8.213  0.5577 -0.8574 -0.1466
  215MOL0     H28969   2.988   1.771   8.172 -2.1679 -0.9246 -0.6582
  215MOL0     H28970   2.759   1.754   8.232 -0.9641  0.1636 -0.0358
  215MOL0     H28971   2.756   1.928   8.274 -0.8233  0.4208 -0.5251
  215MOL0     H28972   2.876   1.930   8.018 -0.4282  1.2914 -1.3065
  215MOL0     H28973   2.696   1.951   8.050 -1.4518 -2.5801 -0.5929
  215MOL0     H28974   2.836   1.683   7.970  0.6010  1.0000 -2.5888
  215MOL0     H28975   2.667   1.718   7.994 -0.8916  2.0185  1.0585
  215MOL0     H28976   2.967   1.821   7.779  0.1428  0.9889  0.6741
  215MOL0     H28977   2.950   1.901   7.470 -0.6284 -1.1186  1.0799
  215MOL0     H28978   2.825   2.027   7.463 -1.3974  1.8299  2.2171
  215MOL0     H28979   2.923   2.145   7.647  0.0720 -1.6678  1.7453
  215MOL0     H28980   3.074   2.042   7.643  0.3053 -0.2841 -1.4751
  215MOL0     H28981   2.957   2.200   7.413 -0.2693 -2.3080 -0.4168
  215MOL0     H28982   3.110   2.109   7.408  1.3773 -1.0653  1.0378
  215MOL0     H28983   3.036   2.374   7.547 -1.9467 -1.7189 -1.8125
  215MOL0     H28984   3.167   2.343   7.433  0.2878 -1.5529 -0.7363
  215MOL0     H28985   3.167   2.537   7.611 -0.8711 -3.1934 -0.2418
  215MOL0     H28986   3.332   2.708   7.679 -1.1311 -0.2613 -0.2692
  215MOL0     H28987   3.742   2.784   7.960 -1.0697  1.3587 -0.2601
  215MOL0     H28988   3.931   2.939   7.996 -0.7361  0.2260  0.2528
  215MOL0     H28989   4.064   3.082   7.680 -0.0334  1.5719  0.2690
  215MOL0     H28990   3.999   3.106   7.842  1.3237  2.0265  0.2626
  215MOL0     H28991   4.177   3.204   7.931  0.4879 -0.1459 -0.8319
  215MOL0     H28992   4.293   3.152   7.799  1.6811  0.6635  3.9528
  215MOL0     H28993   4.172   3.316   7.647 -0.3700  3.4951 -0.7998
  215MOL0     H28994   4.075   3.368   7.779  1.4248  2.9656 -1.6250
  215MOL0     H28995   4.374   3.365   7.824 -0.9742 -0.9273 -0.4800
  215MOL0     H28996   4.233   3.478   7.885  0.4962  2.1748 -0.5245
  215MOL0     H28997   4.361   3.614   7.773 -3.2041  2.0997  0.3794
  215MOL0     H28998   4.228   3.565   7.663 -0.1975 -1.2581 -0.2449
  215MOL0     H28999   4.479   3.411   7.642 -2.4210 -2.4680  0.5205
  215MOL0     H29000   4.377   3.449   7.509  1.2758 -4.3871  1.0884
  215MOL0     H29001   4.581   3.625   7.656  0.1398  2.5377  0.7085
  215MOL0     H29002   4.463   3.703   7.557  0.7961  0.2386  2.6222
  215MOL0     H29003   4.631   3.472   7.451 -3.5630 -3.1215 -5.2389
  215MOL0     H29004   4.551   3.605   7.349 -0.5653  1.1626  1.8854
  215MOL0     H29005   4.124   2.775   7.652 -0.1405 -1.0516  0.4057
  215MOL0     H29006   3.959   2.610   7.634  1.1589  1.7861 -1.0577
  215MOL0     H29007   3.581   2.366   7.806 -0.7892 -2.4134  1.9165
  215MOL0     H29008   3.416   2.220   7.755  3.5738  0.5500 -1.1378
  215MOL0     H29009   3.227   1.507   8.835 -1.1812  1.3753 -1.0475
  215MOL0     H29010   3.424   1.380   8.872  0.3164  1.7636 -0.9683
  215MOL0     H29011   3.622   1.012   8.935  0.6409  0.1959  1.5539
  215MOL0     H29012   3.751   0.872   9.040 -1.0236  1.2933 -0.4345
  215MOL0     H29013   4.077   0.674   8.826  0.4195 -0.8651 -1.3785
  215MOL0     H29014   3.968   0.527   8.817 -1.2806  1.2436 -0.5614
  215MOL0     H29015   4.148   0.619   9.038 -0.0963  0.4796 -0.9973
  215MOL0     H29016   4.160   0.482   8.927  1.8371  1.0458 -0.3387
  215MOL0     H29017   3.985   0.359   9.021  0.8779 -1.2981  2.0746
  215MOL0     H29018   3.935   0.492   9.125 -2.9730  1.0985 -4.9949
  215MOL0     H29019   4.083   0.285   9.213  0.0635  1.6903  3.1074
  215MOL0     H29020   4.214   0.337   9.111 -0.9652 -0.5089 -0.1638
  215MOL0     H29021   4.197   0.563   9.480  0.4776 -0.3709 -0.1871
  215MOL0     H29022   3.876   0.699   8.674  1.1684 -1.5433  2.8601
  215MOL0     H29023   3.809   0.769   8.473  0.2400 -0.0842  0.6405
  215MOL0     H29024   3.651   0.851   8.463 -0.7032  1.2320  0.5874
  215MOL0     H29025   3.789   0.948   8.443 -3.7349 -0.1967 -2.3894
  216MOL0     O29026  10.857   3.946   5.841  0.8877 -0.3366  0.3761
  216MOL0     C29027  10.837   3.830   5.794 -0.6379 -0.4646  0.2180
  216MOL0     O29028  10.741   3.801   5.707 -0.3784  0.4818  0.8029
  216MOL0     C29029  10.642   3.884   5.662 -0.1441  0.9179 -0.3717
  216MOL0     C29030  10.636   3.926   5.530  0.4927 -0.0436  0.4765
  216MOL0     C29031  10.530   4.010   5.468 -0.2458  0.7523 -1.0866
  216MOL0     C29032  10.427   4.050   5.559  0.1094  0.2780  1.1719
  216MOL0     O29033  10.338   4.135   5.516  0.0817  0.2338 -0.0793
  216MOL0     C29034  10.215   4.067   5.479 -0.4022 -0.1284  0.2638
  216MOL0     C29035  10.112   4.170   5.439 -0.8898  0.3053  0.5341
  216MOL0     C29036  10.057   4.263   5.552 -0.9446  1.0010 -0.3920
  216MOL0     C29037   9.957   4.354   5.499  0.3313  0.2513  0.2204
  216MOL0     C29038   9.828   4.276   5.442 -0.7475 -1.2214 -0.2362
  216MOL0     C29039   9.770   4.150   5.518  0.5125 -1.2370 -0.0214
  216MOL0     C29040   9.644   4.099   5.447  0.3086  0.0305 -0.2130
  216MOL0     C29041   9.667   4.075   5.293  0.3216 -0.5856  0.3642
  216MOL0     N29042   9.554   4.002   5.224 -0.6755  0.0619  1.0217
  216MOL0     C29043   9.567   3.939   5.103  0.1216 -0.8005  0.7426
  216MOL0     C29044   9.445   3.892   5.085 -0.4565 -0.1973  1.2029
  216MOL0     C29045   9.402   3.824   4.960 -0.7984  0.4212  0.6954
  216MOL0     C29046   9.367   3.676   4.985 -0.6970 -0.3083 -0.6150
  216MOL0     C29047   9.356   3.612   4.853  0.5057 -0.1843  1.2695
  216MOL0     C29048   9.343   3.465   4.865 -0.3071 -0.5522  0.4227
  216MOL0     O29049   9.347   3.418   4.733 -0.8777 -0.3603 -0.0307
  216MOL0     C29050   9.298   3.298   4.715  0.4268  0.1994 -1.0688
  216MOL0     C29051   9.171   3.293   4.660  0.8524  0.0830 -0.4559
  216MOL0     C29052   9.115   3.173   4.627  0.4513  0.5870 -1.1918
  216MOL0     C29053   9.191   3.048   4.663  0.8495  0.1744  0.0804
  216MOL0     C29054   9.147   2.915   4.623  0.0176  0.3432  0.3432
  216MOL0     O29055   9.009   2.893   4.628 -0.2685 -0.1882 -0.2452
  216MOL0     C29056   8.956   2.787   4.562 -0.4653  0.0399 -0.4895
  216MOL0     C29057   8.873   2.699   4.630  0.6257 -0.0084 -0.7146
  216MOL0     C29058   8.805   2.596   4.568  0.1293 -0.0065  0.7723
  216MOL0     C29059   8.812   2.574   4.432  0.3665  0.4899  0.1365
  216MOL0     O29060   8.738   2.478   4.358 -0.0900  0.9647 -0.5499
  216MOL0     C29061   8.637   2.390   4.424  0.2837 -0.7680 -0.2744
  216MOL0     C29062   8.694   2.266   4.479  0.2534  0.3021 -1.0915
  216MOL0     C29063   8.729   2.172   4.369 -0.4092  0.3831 -0.0677
  216MOL0     C29064   8.614   2.128   4.283 -0.0993  0.0026  0.4998
  216MOL0     C29065   8.658   2.001   4.194 -0.3118 -0.8186 -0.5973
  216MOL0     C29066   8.754   2.035   4.087  0.2099  0.1172 -0.7831
  216MOL0     C29067   8.757   1.917   3.978  0.3494 -0.4462  0.1624
  216MOL0     C29068   8.882   1.922   3.891 -1.8534  0.1020 -1.3152
  216MOL0    Cl29069   8.868   1.799   3.768 -0.0990 -0.1225 -0.0657
  216MOL0     C29070   8.904   2.659   4.366  0.1730  0.6415  0.3964
  216MOL0     C29071   8.971   2.761   4.430  0.2587 -0.0158  0.9273
  216MOL0     O29072   9.222   2.828   4.572  0.0234  0.2131 -0.1146
  216MOL0     C29073   9.309   3.059   4.726 -0.6054  0.0263  0.0198
  216MOL0     C29074   9.361   3.177   4.756  0.4568  0.1410  0.5961
  216MOL0     N29075   9.360   3.927   5.184 -0.0462  0.0821 -0.1472
  216MOL0     N29076   9.423   3.991   5.275 -0.6267  0.2853 -0.5640
  216MOL0     C29077  10.433   4.014   5.684  0.4285  0.6278 -0.6432
  216MOL0     C29078  10.527   3.920   5.737  0.2297  0.6680  0.5633
  216MOL0     C29079  10.920   3.725   5.840 -0.3221 -0.5714 -0.0138
  216MOL0     C29080  10.958   3.715   5.974  1.7449  0.4472 -0.6199
  216MOL0     C29081  11.040   3.614   6.020  0.2780 -0.0464 -0.1724
  216MOL0     C29082  11.057   3.501   5.935 -0.3999 -1.4216  1.0881
  216MOL0     O29083  11.133   3.396   5.971 -0.4046 -0.0135 -1.4154
  216MOL0     C29084  11.105   3.333   6.091  1.0754 -0.0339 -0.7427
  216MOL0     C29085  11.173   3.201   6.100 -1.1750  0.0199  0.8484
  216MOL0     C29086  11.225   3.159   6.234  1.0201 -0.9934  0.3515
  216MOL0     C29087  11.106   3.123   6.331  0.0265  0.1938  0.2231
  216MOL0     C29088  11.027   3.233   6.390 -0.3911 -0.3545  0.0118
  216MOL0     C29089  10.966   3.317   6.451 -0.5804 -0.3640  0.3409
  216MOL0     C29090  11.015   3.508   5.801 -0.0347  0.5557  0.5592
  216MOL0     C29091  10.965   3.631   5.746 -0.1015 -0.3771  0.3822
  216MOL0     C29092  10.943   3.643   5.598 -0.2044  0.7230 -0.0787
  216MOL0     H29093  10.720   3.889   5.471 -1.0978 -2.0201 -0.6774
  216MOL0     H29094  10.525   4.031   5.361 -0.0518  2.6015 -0.7704
  216MOL0     H29095  10.237   4.008   5.389 -0.8843  0.7144 -0.4152
  216MOL0     H29096  10.171   4.003   5.556  0.7867 -1.5876 -0.2064
  216MOL0     H29097  10.032   4.114   5.390  0.7188 -0.4488 -1.3706
  216MOL0     H29098  10.158   4.231   5.361 -1.1767  2.1292  1.7233
  216MOL0     H29099  10.140   4.322   5.591  0.1342 -0.3294 -0.6073
  216MOL0     H29100  10.008   4.204   5.630 -2.0958 -2.2140 -3.3072
  216MOL0     H29101   9.927   4.413   5.586  0.7069 -0.9315  1.1780
  216MOL0     H29102  10.006   4.413   5.421  0.2093  2.3239  1.6252
  216MOL0     H29103   9.760   4.361   5.438 -1.3265 -1.6060  0.9145
  216MOL0     H29104   9.859   4.257   5.339  3.2741  4.3407 -0.5538
  216MOL0     H29105   9.847   4.074   5.510  0.6150 -1.0726 -0.6355
  216MOL0     H29106   9.752   4.178   5.623 -3.1803 -1.2474 -0.5288
  216MOL0     H29107   9.557   4.164   5.458  1.3681  1.8141 -1.6824
  216MOL0     H29108   9.617   4.001   5.485  1.2964 -0.5552 -0.9484
  216MOL0     H29109   9.658   4.171   5.242  0.0800 -0.6684  0.2487
  216MOL0     H29110   9.765   4.030   5.274  1.9176  2.8996 -0.2916
  216MOL0     H29111   9.649   3.928   5.033 -1.1760 -3.6339 -0.4740
  216MOL0     H29112   9.317   3.880   4.920  0.9320  2.1763 -0.7254
  216MOL0     H29113   9.481   3.835   4.885 -1.4735  0.1498 -0.0681
  216MOL0     H29114   9.445   3.616   5.034  0.0864 -0.9671 -2.5786
  216MOL0     H29115   9.270   3.673   5.035 -0.1635 -1.6659  0.3907
  216MOL0     H29116   9.440   3.638   4.788 -0.2895 -0.4071  0.1460
  216MOL0     H29117   9.260   3.647   4.815  0.8760  1.4541  1.7560
  216MOL0     H29118   9.248   3.454   4.919  0.4980 -0.7812  1.8600
  216MOL0     H29119   9.426   3.434   4.930 -0.5258 -1.2242  0.3924
  216MOL0     H29120   9.117   3.384   4.632 -2.1866 -1.1316  0.9750
  216MOL0     H29121   9.019   3.170   4.577 -0.1139 -0.7769 -0.1116
  216MOL0     H29122   8.863   2.717   4.737  2.0614 -0.0993 -0.5541
  216MOL0     H29123   8.757   2.524   4.634 -0.9438  0.9076  1.0210
  216MOL0     H29124   8.596   2.446   4.509  0.4363  2.6169 -2.2667
  216MOL0     H29125   8.555   2.368   4.354  2.7852 -0.6014 -3.4719
  216MOL0     H29126   8.777   2.299   4.542 -0.8667 -0.1120  0.6696
  216MOL0     H29127   8.623   2.217   4.547  0.9979  2.3782  1.3510
  216MOL0     H29128   8.807   2.210   4.303 -0.2080 -0.9369 -0.6062
  216MOL0     H29129   8.752   2.085   4.430 -0.1450  1.3711  1.2914
  216MOL0     H29130   8.578   2.208   4.218  0.0160 -2.2992 -2.6743
  216MOL0     H29131   8.533   2.092   4.347 -1.1838  1.5474  0.0576
  216MOL0     H29132   8.562   1.972   4.150  0.1253 -1.5352 -1.0895
  216MOL0     H29133   8.701   1.928   4.262  0.9940 -2.8828 -3.4528
  216MOL0     H29134   8.738   2.136   4.049 -0.6371 -0.5816 -2.3360
  216MOL0     H29135   8.853   2.039   4.133 -0.2155  2.6649  0.0919
  216MOL0     H29136   8.674   1.936   3.910  2.2489  2.5362 -1.5412
  216MOL0     H29137   8.744   1.817   4.022 -0.6593  0.2929  1.6172
  216MOL0     H29138   8.897   2.020   3.845  0.8303  0.0060 -0.7925
  216MOL0     H29139   8.968   1.895   3.953 -3.2286 -0.5687  0.4033
  216MOL0     H29140   8.913   2.640   4.259 -1.8717 -0.5654  0.3982
  216MOL0     H29141   9.037   2.827   4.375  0.3460 -1.7083 -1.1054
  216MOL0     H29142   9.359   2.966   4.754  0.7777  1.8557  4.4539
  216MOL0     H29143   9.462   3.198   4.791  0.4143  1.2928  0.0821
  216MOL0     H29144  10.358   4.051   5.753  0.0535 -1.2138  0.0035
  216MOL0     H29145  10.515   3.864   5.830 -1.6338 -1.2515 -0.7422
  216MOL0     H29146  10.930   3.790   6.047 -0.6333 -3.5008  2.9653
  216MOL0     H29147  11.072   3.621   6.124 -3.9013  1.5759  1.2070
  216MOL0     H29148  10.997   3.320   6.101  1.0475 -0.4790 -1.5630
  216MOL0     H29149  11.144   3.411   6.157  0.0276  0.2037 -0.3893
  216MOL0     H29150  11.257   3.192   6.031 -2.7717  0.8818 -1.3332
  216MOL0     H29151  11.102   3.125   6.065  1.1233 -1.4556 -0.8905
  216MOL0     H29152  11.279   3.237   6.289 -0.4813  1.1983 -1.1132
  216MOL0     H29153  11.296   3.076   6.224  0.2019 -1.6429 -0.2259
  216MOL0     H29154  11.032   3.058   6.283 -0.6961  1.3917 -0.3186
  216MOL0     H29155  11.155   3.059   6.406  1.0017  0.5318 -0.1046
  216MOL0     H29156  10.923   3.402   6.499  2.2676  0.3334  1.9126
  216MOL0     H29157  11.042   3.430   5.731 -1.1929 -0.5186  1.2665
  216MOL0     H29158  10.862   3.578   5.564  0.1732 -1.1216  2.2527
  216MOL0     H29159  10.922   3.745   5.566  2.1232  1.5681  0.8609
  216MOL0     H29160  11.040   3.614   5.557  1.3085  0.5027  3.3162
  217MOL0     O29161   8.325   3.885   8.218  0.5706 -0.4841 -0.4220
  217MOL0     C29162   8.238   3.798   8.212 -0.3529 -0.6803 -1.0257
  217MOL0     O29163   8.161   3.772   8.323  0.6526 -0.1149  0.4471
  217MOL0     C29164   8.103   3.872   8.397 -0.8489 -0.0879 -0.0535
  217MOL0     C29165   8.102   4.016   8.357 -0.1418  0.3056  0.1151
  217MOL0     C29166   8.042   4.104   8.447 -0.2324 -0.3569  0.7408
  217MOL0     C29167   7.998   4.072   8.573 -0.6282  0.2384  0.4884
  217MOL0     O29168   7.943   4.167   8.655  0.3301  0.2537 -0.0795
  217MOL0     C29169   7.846   4.127   8.753  0.0680  0.2738  0.0750
  217MOL0     C29170   7.759   4.256   8.771 -0.2826  0.3465 -0.1296
  217MOL0     C29171   7.710   4.318   8.633  0.1300 -0.1323  1.4662
  217MOL0     C29172   7.557   4.321   8.606 -0.1312 -0.1381  0.2995
  217MOL0     C29173   7.540   4.386   8.467  0.3010  0.3319  0.0604
  217MOL0     C29174   7.577   4.298   8.351 -0.1319  0.1846  0.0981
  217MOL0     C29175   7.574   4.376   8.224  0.3251  0.0405  0.0796
  217MOL0     C29176   7.572   4.285   8.095 -0.6288  0.3693  0.1429
  217MOL0     N29177   7.693   4.206   8.072  0.4535  0.7529 -0.0041
  217MOL0     C29178   7.705   4.077   8.115  0.6789 -0.0549  0.8291
  217MOL0     C29179   7.829   4.035   8.065  0.5043 -0.3684 -0.2282
  217MOL0     C29180   7.899   3.909   8.090  0.0107 -0.7102  0.8870
  217MOL0     C29181   7.848   3.802   7.994 -0.5416 -0.0066 -0.3537
  217MOL0     C29182   7.865   3.818   7.842 -0.4830  0.4219 -0.2046
  217MOL0     C29183   7.881   3.686   7.765  0.4581 -0.2599  0.3455
  217MOL0     O29184   7.772   3.598   7.802 -0.3163 -0.3560  0.4880
  217MOL0     C29185   7.702   3.550   7.696  0.5483 -0.6614  0.0508
  217MOL0     C29186   7.566   3.582   7.675 -0.0682 -0.4021  0.4657
  217MOL0     C29187   7.489   3.496   7.588  0.1707  0.7616 -0.5584
  217MOL0     C29188   7.549   3.383   7.524  0.5394 -0.7345 -0.4600
  217MOL0     C29189   7.468   3.299   7.443 -0.5585  0.0808  0.3524
  217MOL0     O29190   7.532   3.204   7.376  0.0498  0.3375 -0.1339
  217MOL0     C29191   7.470   3.111   7.296 -0.0457 -1.1018  0.0448
  217MOL0     C29192   7.519   2.979   7.307  0.8448 -0.8091  0.3317
  217MOL0     C29193   7.458   2.881   7.235  0.0394  0.4485  0.5797
  217MOL0     C29194   7.351   2.906   7.152 -0.6436 -0.4462  1.0788
  217MOL0     O29195   7.285   2.794   7.112 -0.4086 -0.2580  0.0008
  217MOL0     C29196   7.206   2.806   7.000  0.9390  0.0323  0.7548
  217MOL0     C29197   7.235   2.684   6.915 -0.2526  0.8965 -0.8122
  217MOL0     C29198   7.376   2.672   6.863 -0.5871  0.1972  0.8699
  217MOL0     C29199   7.443   2.801   6.798  0.3807 -0.0139  0.0157
  217MOL0     C29200   7.575   2.766   6.731 -0.5670  1.1495 -0.0876
  217MOL0     C29201   7.631   2.880   6.649 -0.6408 -0.0898  0.0679
  217MOL0     C29202   7.785   2.881   6.644  0.0896 -0.0078 -0.4147
  217MOL0     C29203   7.844   2.971   6.539  0.1876 -0.2618  0.3680
  217MOL0    Cl29204   7.832   3.145   6.580 -0.4146 -0.4875 -0.0281
  217MOL0     C29205   7.311   3.046   7.133  0.2053  0.1473 -0.5762
  217MOL0     C29206   7.373   3.142   7.206 -0.1928 -0.0472  0.1424
  217MOL0     O29207   7.348   3.311   7.450  0.0770  0.4154 -0.6832
  217MOL0     C29208   7.688   3.364   7.547 -0.3073  0.1882  0.4193
  217MOL0     C29209   7.764   3.449   7.627 -0.3375  0.8326  0.3459
  217MOL0     N29210   7.885   4.139   7.994  0.1038  0.4597  0.0660
  217MOL0     N29211   7.803   4.246   8.003 -0.1095  0.4385  0.5574
  217MOL0     C29212   8.001   3.942   8.614  0.0192 -0.4364 -0.9069
  217MOL0     C29213   8.054   3.849   8.527 -0.7953  0.7374 -0.7173
  217MOL0     C29214   8.235   3.699   8.100 -0.2313  0.3110  0.6149
  217MOL0     C29215   8.148   3.594   8.109  0.1167  0.7500  0.2845
  217MOL0     C29216   8.153   3.494   8.011 -0.3912  0.5365 -0.7121
  217MOL0     C29217   8.239   3.496   7.903 -0.1091 -0.2848  0.6537
  217MOL0     O29218   8.238   3.407   7.800  0.7383 -0.2799  0.4946
  217MOL0     C29219   8.123   3.321   7.781  0.6705  0.8672  0.4833
  217MOL0     C29220   8.137   3.186   7.848  1.1603  0.3795 -0.2798
  217MOL0     C29221   8.075   3.067   7.770 -0.1414 -0.7834  0.2174
  217MOL0     C29222   8.137   2.949   7.838 -0.1819 -0.7014 -0.2455
  217MOL0     C29223   8.107   2.810   7.795 -0.2237 -0.4107 -0.1586
  217MOL0     C29224   8.080   2.692   7.773  0.9694  0.5464 -1.2366
  217MOL0     C29225   8.309   3.614   7.885  0.4491  0.5169  0.3347
  217MOL0     C29226   8.317   3.713   7.983 -0.1254  0.1383 -0.7766
  217MOL0     C29227   8.401   3.830   7.958  0.5549 -0.7020  0.3917
  217MOL0     H29228   8.144   4.046   8.262  0.5710  0.1469  0.3687
  217MOL0     H29229   8.044   4.208   8.414 -1.3656  0.0842  1.9487
  217MOL0     H29230   7.788   4.046   8.708  1.7397 -0.1313 -1.4914
  217MOL0     H29231   7.909   4.101   8.839  0.9239  3.2441  0.4487
  217MOL0     H29232   7.828   4.323   8.823  1.0524 -1.3370  0.3730
  217MOL0     H29233   7.675   4.225   8.833 -0.7867  1.3654 -0.2914
  217MOL0     H29234   7.748   4.257   8.551 -3.1015 -0.0638 -0.2537
  217MOL0     H29235   7.759   4.414   8.619 -1.2909  0.2307 -1.9655
  217MOL0     H29236   7.499   4.229   8.615 -0.2155 -0.3009 -1.5940
  217MOL0     H29237   7.520   4.385   8.687 -2.7918 -1.8404  0.5697
  217MOL0     H29238   7.434   4.408   8.456  0.1745 -1.0129 -2.0235
  217MOL0     H29239   7.601   4.476   8.465 -2.4039  2.2790  0.1315
  217MOL0     H29240   7.676   4.251   8.352 -0.8899 -1.7493 -2.5647
  217MOL0     H29241   7.509   4.214   8.335  0.0755 -0.3408  1.8327
  217MOL0     H29242   7.658   4.446   8.219  1.4046 -1.2376 -0.1703
  217MOL0     H29243   7.475   4.422   8.223 -0.5302 -1.6933  0.8184
  217MOL0     H29244   7.486   4.219   8.108 -0.9407  0.6251 -0.6237
  217MOL0     H29245   7.557   4.356   8.013 -1.2515  2.6577  2.1194
  217MOL0     H29246   7.624   4.021   8.160  0.7493 -0.3836  0.5542
  217MOL0     H29247   8.004   3.931   8.070 -0.2227 -0.1331  0.2598
  217MOL0     H29248   7.885   3.901   8.198 -3.5628  5.4073  1.3090
  217MOL0     H29249   7.898   3.714   8.036 -2.2923  0.2454  2.4545
  217MOL0     H29250   7.743   3.792   8.021 -1.5638 -0.9957 -4.1089
  217MOL0     H29251   7.958   3.872   7.822 -1.0363  1.0189 -1.2217
  217MOL0     H29252   7.782   3.876   7.803  0.8155  1.4044 -1.6334
  217MOL0     H29253   7.974   3.629   7.774 -1.1642 -3.6156 -1.9943
  217MOL0     H29254   7.881   3.713   7.659  0.0644  0.7468  0.5896
  217MOL0     H29255   7.522   3.663   7.732  2.5103  0.5009  1.3113
  217MOL0     H29256   7.383   3.512   7.571 -0.1125 -3.1155 -3.6470
  217MOL0     H29257   7.599   2.958   7.377  1.4818  1.9031  0.5264
  217MOL0     H29258   7.486   2.777   7.252 -0.8544  0.6618  4.4193
  217MOL0     H29259   7.109   2.803   7.050  2.5567 -0.4923  4.1900
  217MOL0     H29260   7.220   2.896   6.939  1.5538 -1.2303 -1.0390
  217MOL0     H29261   7.211   2.595   6.974 -3.4487 -0.5497 -3.8740
  217MOL0     H29262   7.165   2.690   6.831 -0.8907 -0.3094 -0.3942
  217MOL0     H29263   7.438   2.645   6.949 -1.1678 -0.5449  1.0659
  217MOL0     H29264   7.387   2.585   6.798 -0.4520 -1.3973  2.9318
  217MOL0     H29265   7.459   2.885   6.866 -3.9950  1.2701 -0.2060
  217MOL0     H29266   7.365   2.825   6.725  1.4114  0.9295 -0.8189
  217MOL0     H29267   7.556   2.683   6.663  0.7738  1.0258 -0.3237
  217MOL0     H29268   7.647   2.745   6.810 -2.4087  1.0026  1.6511
  217MOL0     H29269   7.602   2.868   6.544  1.3147  0.6733 -0.5940
  217MOL0     H29270   7.594   2.980   6.673 -1.7169 -0.0134 -1.7665
  217MOL0     H29271   7.816   2.782   6.612 -1.7254 -0.3608 -1.2344
  217MOL0     H29272   7.836   2.887   6.740  0.4583 -2.8615 -0.3593
  217MOL0     H29273   7.949   2.945   6.529  0.3130 -0.1150  1.1964
  217MOL0     H29274   7.798   2.957   6.440 -0.3682  1.0906  0.4108
  217MOL0     H29275   7.223   3.081   7.080  0.6748  1.4404 -0.5302
  217MOL0     H29276   7.324   3.238   7.202 -0.4073 -0.1079  1.0702
  217MOL0     H29277   7.736   3.277   7.505 -1.7336  0.3851 -1.7678
  217MOL0     H29278   7.866   3.428   7.658 -0.5635  0.1237  0.6243
  217MOL0     H29279   7.957   3.914   8.710  1.9032 -0.2203  0.0625
  217MOL0     H29280   8.073   3.748   8.564 -0.0648  1.0727 -0.1532
  217MOL0     H29281   8.107   3.564   8.205  1.1166  1.8159  1.0689
  217MOL0     H29282   8.096   3.405   8.035  0.1491  0.2525 -0.4515
  217MOL0     H29283   8.118   3.307   7.673  3.2197  2.6779  0.0415
  217MOL0     H29284   8.034   3.373   7.818 -0.1174  1.4402 -2.0427
  217MOL0     H29285   8.084   3.184   7.944  1.6944  0.2706  0.0107
  217MOL0     H29286   8.243   3.161   7.849  0.4194 -3.4360 -2.1248
  217MOL0     H29287   8.106   3.068   7.665  1.1744  0.3401  0.5903
  217MOL0     H29288   7.967   3.080   7.781  0.3018  1.5625  3.2433
  217MOL0     H29289   8.244   2.955   7.817 -0.2596 -0.0329 -0.4761
  217MOL0     H29290   8.133   2.964   7.947 -1.7832 -0.9284 -0.2539
  217MOL0     H29291   8.063   2.587   7.760 -3.6111  0.7783  1.1174
  217MOL0     H29292   8.376   3.621   7.800  1.6198  0.9880  1.2707
  217MOL0     H29293   8.478   3.828   8.036  0.6336 -1.6200  0.2897
  217MOL0     H29294   8.456   3.826   7.864 -0.1875 -3.3877 -0.0117
  217MOL0     H29295   8.343   3.923   7.957  1.4463 -0.1407 -1.4842
  218MOL0     O29296   7.828   4.340   5.143  0.2048 -0.1577  0.6395
  218MOL0     C29297   7.870   4.456   5.122 -0.5811 -0.6556  0.4100
  218MOL0     O29298   8.009   4.488   5.114  0.3819 -0.5613 -0.6769
  218MOL0     C29299   8.093   4.379   5.117  0.7511 -0.0724  0.1758
  218MOL0     C29300   8.215   4.407   5.183  0.4674 -0.1556 -0.8741
  218MOL0     C29301   8.300   4.302   5.208 -0.7707  0.4381 -0.3256
  218MOL0     C29302   8.288   4.183   5.135  0.7322  0.4075 -0.4027
  218MOL0     O29303   8.361   4.062   5.164 -0.6590 -0.2829  0.0035
  218MOL0     C29304   8.509   4.075   5.141  0.0433  0.1588 -0.8121
  218MOL0     C29305   8.545   3.989   5.020 -0.4628  0.3200  1.3577
  218MOL0     C29306   8.517   4.070   4.887 -0.3311 -0.5236 -0.6551
  218MOL0     C29307   8.487   3.976   4.770 -0.2427  0.4656  0.5139
  218MOL0     C29308   8.345   3.921   4.788 -0.2069 -0.6394 -0.8030
  218MOL0     C29309   8.316   3.798   4.713 -0.1813 -0.1608  0.0555
  218MOL0     C29310   8.306   3.833   4.564  0.2299  1.1152  0.3940
  218MOL0     C29311   8.321   3.708   4.474  0.9178 -0.7271 -0.5522
  218MOL0     N29312   8.199   3.636   4.468 -0.3905 -0.9693 -0.6294
  218MOL0     C29313   8.094   3.664   4.383 -1.3310  0.1494 -0.5907
  218MOL0     C29314   8.007   3.564   4.410 -1.0308 -0.0585 -0.9686
  218MOL0     C29315   7.876   3.548   4.337  0.6138  0.2492 -0.2849
  218MOL0     C29316   7.873   3.448   4.218 -0.3587  0.8467 -0.5144
  218MOL0     C29317   7.945   3.509   4.092 -0.7011  0.3714 -0.0494
  218MOL0     C29318   7.934   3.421   3.963 -0.0658 -0.6475 -0.5455
  218MOL0     O29319   7.918   3.503   3.848 -0.5700 -0.3460 -0.1919
  218MOL0     C29320   7.790   3.553   3.814 -0.7646  0.4042  0.6139
  218MOL0     C29321   7.681   3.539   3.898  0.2891 -0.2843 -0.2362
  218MOL0     C29322   7.560   3.591   3.863  0.5404 -0.6385 -0.5529
  218MOL0     C29323   7.545   3.649   3.739  0.1379  1.3188  0.6331
  218MOL0     C29324   7.407   3.686   3.682 -0.1747 -0.0661 -1.0079
  218MOL0     O29325   7.307   3.665   3.768  0.6341 -0.5648  0.1953
  218MOL0     C29326   7.177   3.652   3.718 -0.4063  0.0465  0.2407
  218MOL0     C29327   7.096   3.538   3.750  0.0425  0.0123 -0.1981
  218MOL0     C29328   6.970   3.517   3.689  0.9624  0.0530  0.9214
  218MOL0     C29329   6.916   3.626   3.609  0.6896  0.4652  0.2666
  218MOL0     O29330   6.788   3.623   3.557 -0.0662  0.2443  0.1680
  218MOL0     C29331   6.688   3.683   3.643 -1.0222 -0.3131 -0.4702
  218MOL0     C29332   6.550   3.657   3.608 -0.6038  0.5068  0.2741
  218MOL0     C29333   6.498   3.754   3.495  1.3184 -0.1772 -0.3943
  218MOL0     C29334   6.349   3.729   3.462 -0.1469  0.4963  0.2634
  218MOL0     C29335   6.304   3.822   3.343 -0.5078 -0.2407 -0.1899
  218MOL0     C29336   6.150   3.817   3.321  0.6529 -0.1849  1.3730
  218MOL0     C29337   6.120   3.889   3.191  0.2527  0.2164  0.4171
  218MOL0     C29338   6.138   3.793   3.070  1.2006  0.3286  0.1917
  218MOL0    Cl29339   6.088   3.883   2.930  0.2054 -0.0835 -0.0255
  218MOL0     C29340   6.990   3.741   3.591 -0.0297 -0.3858 -0.7462
  218MOL0     C29341   7.120   3.761   3.644  0.1251  0.5480 -0.0291
  218MOL0     O29342   7.396   3.733   3.568  0.2258 -0.3028  1.2135
  218MOL0     C29343   7.656   3.663   3.654 -0.4300 -0.2029  0.0462
  218MOL0     C29344   7.781   3.614   3.695  0.8083 -0.5028  0.2335
  218MOL0     N29345   8.052   3.487   4.519 -0.8514 -0.6823  0.3880
  218MOL0     N29346   8.171   3.523   4.543 -1.1978 -0.1127 -0.2108
  218MOL0     C29347   8.183   4.164   5.047  1.0632  1.1465 -0.3438
  218MOL0     C29348   8.085   4.263   5.042  0.6146 -0.6663 -0.4108
  218MOL0     C29349   7.779   4.572   5.148  0.2110  1.4911  0.5137
  218MOL0     C29350   7.666   4.558   5.236  0.1077 -0.6813 -0.5488
  218MOL0     C29351   7.588   4.662   5.276 -0.2243 -0.6023  0.2391
  218MOL0     C29352   7.607   4.789   5.221 -1.1256 -0.2673  0.5359
  218MOL0     O29353   7.547   4.906   5.266 -0.4425 -0.2515  0.1667
  218MOL0     C29354   7.521   4.915   5.409 -0.0883  0.9344 -0.3680
  218MOL0     C29355   7.640   4.920   5.502 -0.1867 -0.4479  0.3422
  218MOL0     C29356   7.600   4.936   5.650 -1.0698 -0.1239  0.4773
  218MOL0     C29357   7.494   5.046   5.680  1.3861 -0.1529 -0.3469
  218MOL0     C29358   7.472   5.058   5.823 -0.8154 -0.4021 -0.1923
  218MOL0     C29359   7.463   5.063   5.948 -0.2255  0.1915  0.2308
  218MOL0     C29360   7.717   4.801   5.133  0.4287 -0.1062 -0.0278
  218MOL0     C29361   7.801   4.701   5.091 -0.9878  0.2571  0.1206
  218MOL0     C29362   7.919   4.745   5.003 -0.8570 -0.7026  0.1843
  218MOL0     H29363   8.233   4.499   5.238 -0.7918  1.1783 -2.5830
  218MOL0     H29364   8.382   4.314   5.278  0.8898 -2.1408 -1.6774
  218MOL0     H29365   8.531   4.182   5.143 -1.3267  0.4397  0.0080
  218MOL0     H29366   8.555   4.026   5.226 -0.8877  3.0722  1.5409
  218MOL0     H29367   8.503   3.888   5.023 -0.5407  0.2727 -0.5137
  218MOL0     H29368   8.653   3.989   5.006 -0.2285 -3.3452  2.2765
  218MOL0     H29369   8.606   4.127   4.857 -1.5208  2.5258  1.1351
  218MOL0     H29370   8.448   4.154   4.897  1.5208  0.8242  2.3028
  218MOL0     H29371   8.498   4.028   4.675  1.3411 -2.5986 -1.1206
  218MOL0     H29372   8.556   3.893   4.786 -0.9421  0.1134  1.9022
  218MOL0     H29373   8.316   3.898   4.891 -0.3256  1.4293 -0.3303
  218MOL0     H29374   8.279   4.002   4.754  1.0059  1.7957  2.1283
  218MOL0     H29375   8.401   3.730   4.727  1.0732  1.2307 -0.5326
  218MOL0     H29376   8.235   3.736   4.751  1.4425 -1.5686  1.4074
  218MOL0     H29377   8.397   3.886   4.535  2.1633 -1.9667  0.3154
  218MOL0     H29378   8.212   3.888   4.551  0.2966  1.7247  2.2603
  218MOL0     H29379   8.340   3.756   4.378  1.1879 -0.5996 -0.4367
  218MOL0     H29380   8.406   3.640   4.493  0.2475 -1.2693  0.6147
  218MOL0     H29381   8.106   3.730   4.299  3.6079  1.1100  0.5770
  218MOL0     H29382   7.799   3.516   4.408 -1.7048  0.7642 -2.4193
  218MOL0     H29383   7.843   3.647   4.303  0.0870  0.6614  1.3204
  218MOL0     H29384   7.922   3.354   4.244  0.0143  0.5909 -2.0367
  218MOL0     H29385   7.768   3.423   4.197 -1.0322 -0.2115  3.3029
  218MOL0     H29386   8.053   3.512   4.109 -0.2669 -0.8688 -2.2087
  218MOL0     H29387   7.908   3.612   4.079  2.0054  1.7080  1.7762
  218MOL0     H29388   7.853   3.348   3.976  0.6016 -0.9711  2.4610
  218MOL0     H29389   8.027   3.366   3.948 -1.4199 -3.0120 -0.8080
  218MOL0     H29390   7.659   3.502   3.998 -1.6267  1.2088 -0.0438
  218MOL0     H29391   7.484   3.595   3.941  0.3914  1.2691 -0.7474
  218MOL0     H29392   7.138   3.472   3.825  2.4579  2.0339  0.3443
  218MOL0     H29393   6.915   3.425   3.702 -1.7744  1.5409  0.5420
  218MOL0     H29394   6.712   3.638   3.740 -2.4482  1.9380  1.0050
  218MOL0     H29395   6.702   3.791   3.652  0.7401 -0.5139 -0.4554
  218MOL0     H29396   6.531   3.551   3.584  0.1368  0.2535  0.7726
  218MOL0     H29397   6.491   3.672   3.698 -1.0832  2.5187 -0.3245
  218MOL0     H29398   6.502   3.856   3.535  0.7912 -0.7891  1.3364
  218MOL0     H29399   6.555   3.755   3.402  1.4024  1.1153 -0.3561
  218MOL0     H29400   6.283   3.744   3.548 -0.0071 -3.5964  1.2631
  218MOL0     H29401   6.329   3.625   3.435  0.7168  0.3225  0.2664
  218MOL0     H29402   6.368   3.794   3.258  1.4563 -1.9942  1.7353
  218MOL0     H29403   6.319   3.923   3.381 -2.0653 -0.7191  1.9001
  218MOL0     H29404   6.133   3.709   3.310 -1.2658  0.3309 -2.0060
  218MOL0     H29405   6.088   3.859   3.401  0.1619  1.0637  0.3694
  218MOL0     H29406   6.176   3.983   3.183 -0.1142  0.3310 -1.3447
  218MOL0     H29407   6.013   3.911   3.194 -0.2619 -2.1545  1.7042
  218MOL0     H29408   6.245   3.767   3.068  1.6247  1.8666  1.1411
  218MOL0     H29409   6.080   3.701   3.072  0.7204  0.5792 -1.2589
  218MOL0     H29410   6.950   3.826   3.538 -1.1020  0.2708  1.0226
  218MOL0     H29411   7.184   3.848   3.627 -2.1333  2.2346 -0.4025
  218MOL0     H29412   7.646   3.711   3.557 -1.6537 -2.4011 -0.9933
  218MOL0     H29413   7.872   3.641   3.642  1.5983  2.7482  2.8703
  218MOL0     H29414   8.173   4.071   4.991  3.4274 -1.0164  2.5160
  218MOL0     H29415   8.002   4.243   4.975 -0.4802 -1.9748  1.2482
  218MOL0     H29416   7.632   4.463   5.275  1.6497 -0.6382  1.0282
  218MOL0     H29417   7.505   4.642   5.343 -2.4508 -3.8784 -3.0794
  218MOL0     H29418   7.443   4.840   5.427 -2.1543  1.7261 -4.5701
  218MOL0     H29419   7.477   5.015   5.414 -0.2155  0.8505  0.2333
  218MOL0     H29420   7.706   5.004   5.477 -0.3280 -0.1527  0.9511
  218MOL0     H29421   7.702   4.831   5.492 -1.0313 -1.1940  1.5452
  218MOL0     H29422   7.695   4.955   5.701 -0.6822 -0.6953 -0.0319
  218MOL0     H29423   7.573   4.835   5.683  0.8966 -0.4236  1.2980
  218MOL0     H29424   7.518   5.145   5.639  0.6104 -0.3500 -1.3241
  218MOL0     H29425   7.398   5.013   5.639  2.0603 -0.7011 -1.5409
  218MOL0     H29426   7.436   5.081   6.050 -0.7621  1.5560 -0.1352
  218MOL0     H29427   7.722   4.897   5.082 -1.1912 -0.7055 -1.4442
  218MOL0     H29428   7.930   4.854   4.996 -0.4040 -0.4944  3.0914
  218MOL0     H29429   8.011   4.720   5.056 -0.5616 -2.0989 -0.9370
  218MOL0     H29430   7.918   4.695   4.906  0.5237  1.6708 -1.1265
  219MOL0     O29431   8.828   8.788   5.671 -0.2447 -0.1351  0.5552
  219MOL0     C29432   8.907   8.806   5.583  0.0926  0.4630  0.6913
  219MOL0     O29433   9.036   8.854   5.594 -0.5129 -0.0464 -0.0899
  219MOL0     C29434   9.084   8.880   5.719  0.1753 -0.2427  0.1433
  219MOL0     C29435   9.205   8.831   5.757  0.7902  0.3249  0.9965
  219MOL0     C29436   9.238   8.836   5.894 -0.1653 -0.5132  1.2425
  219MOL0     C29437   9.172   8.912   5.989  0.4171  0.9105 -0.9339
  219MOL0     O29438   9.210   8.898   6.120  0.2917  0.5497  0.5044
  219MOL0     C29439   9.184   8.999   6.215  0.6054  0.5511 -0.4467
  219MOL0     C29440   9.166   8.933   6.359  0.3622 -0.0064  0.2281
  219MOL0     C29441   9.105   9.029   6.453  0.2475 -0.1288 -0.6116
  219MOL0     C29442   9.223   9.101   6.531 -0.3724  0.1800  0.4488
  219MOL0     C29443   9.169   9.205   6.623  0.1035 -0.1321 -0.5794
  219MOL0     C29444   9.058   9.159   6.720 -0.3593  0.4586  1.0991
  219MOL0     C29445   9.032   9.268   6.828  0.2106 -0.3582 -0.5896
  219MOL0     C29446   8.974   9.402   6.776  0.0467 -0.1737  1.5362
  219MOL0     N29447   8.934   9.488   6.891  0.6493  0.0265 -0.0552
  219MOL0     C29448   8.845   9.451   6.992 -0.7671  1.3047 -0.1790
  219MOL0     C29449   8.836   9.547   7.082 -0.1910  0.1429  0.2684
  219MOL0     C29450   8.739   9.558   7.199  0.5799 -0.0738  0.2774
  219MOL0     C29451   8.770   9.442   7.298  0.3187  0.1935  0.6779
  219MOL0     C29452   8.850   9.485   7.423 -0.3381 -0.4908  0.4630
  219MOL0     C29453   8.834   9.396   7.544  0.2524  0.5611 -0.0978
  219MOL0     O29454   8.923   9.458   7.642 -0.1078 -0.4042  0.0519
  219MOL0     C29455   9.034   9.390   7.672 -0.8403 -0.2589 -0.0207
  219MOL0     C29456   9.027   9.278   7.751  1.0025  0.6752 -0.0401
  219MOL0     C29457   9.135   9.190   7.774  0.2385 -0.9129 -0.1543
  219MOL0     C29458   9.260   9.234   7.729 -1.2530  0.3807  0.2295
  219MOL0     C29459   9.370   9.150   7.738  0.1786 -0.6733 -0.2114
  219MOL0     O29460   9.494   9.195   7.704  0.8123 -1.2955  0.2343
  219MOL0     C29461   9.610   9.121   7.730  1.4419  0.2287  0.1386
  219MOL0     C29462   9.618   8.989   7.697 -0.1420 -0.2009  0.2186
  219MOL0     C29463   9.744   8.925   7.719  0.6564  0.7075  0.3647
  219MOL0     C29464   9.855   8.981   7.772 -0.2355  0.5331  0.5654
  219MOL0     O29465   9.968   8.901   7.794 -0.2265 -0.0513  0.0937
  219MOL0     C29466  10.089   8.964   7.790 -0.7217  0.4489  0.4661
  219MOL0     C29467  10.210   8.873   7.776 -0.5563  0.3948  0.5309
  219MOL0     C29468  10.314   8.944   7.682  0.3264  0.8425 -0.7243
  219MOL0     C29469  10.433   8.848   7.665 -0.4906  0.5589 -0.0979
  219MOL0     C29470  10.516   8.876   7.532  0.4074 -0.5371 -0.1067
  219MOL0     C29471  10.452   8.830   7.404  0.4066 -1.2788 -0.9268
  219MOL0     C29472  10.541   8.857   7.284 -0.3437 -0.1629 -0.0562
  219MOL0     C29473  10.478   8.796   7.157 -0.2493  0.3389  0.6294
  219MOL0    Cl29474  10.596   8.806   7.025 -0.3105 -0.0768  0.1052
  219MOL0     C29475   9.833   9.116   7.821 -0.0332  0.0551 -0.3936
  219MOL0     C29476   9.710   9.179   7.800 -0.3627 -0.3462  0.0656
  219MOL0     O29477   9.346   9.038   7.793 -1.3069  0.7212 -0.4446
  219MOL0     C29478   9.269   9.361   7.660  0.1697  0.2210 -1.0624
  219MOL0     C29479   9.155   9.434   7.631 -0.6201  1.2785 -0.2234
  219MOL0     N29480   8.914   9.651   7.037 -0.3838  0.2580 -0.1076
  219MOL0     N29481   8.978   9.612   6.923  0.6524 -0.2059  0.1463
  219MOL0     C29482   9.062   8.981   5.947 -0.2721  0.2006  0.2545
  219MOL0     C29483   9.017   8.962   5.818  0.0944 -0.4403  1.2558
  219MOL0     C29484   8.821   8.823   5.458 -0.4784 -0.4977  1.0632
  219MOL0     C29485   8.713   8.728   5.438 -0.1658 -0.7103  0.5032
  219MOL0     C29486   8.645   8.738   5.323  0.4261 -0.7245 -0.2538
  219MOL0     C29487   8.675   8.821   5.216  0.0103  0.6072 -0.1022
  219MOL0     O29488   8.608   8.831   5.101 -0.6383  0.1764 -0.0546
  219MOL0     C29489   8.540   8.722   5.043  1.0943 -1.0864 -0.0872
  219MOL0     C29490   8.384   8.715   5.091  0.1462 -0.0424 -0.0624
  219MOL0     C29491   8.313   8.844   5.083 -0.2212 -0.1533 -0.1164
  219MOL0     C29492   8.261   8.871   4.943 -0.3918  0.5957  0.2088
  219MOL0     C29493   8.173   8.770   4.899  0.2074 -0.0919 -1.2425
  219MOL0     C29494   8.083   8.683   4.876 -0.2941 -0.2050 -0.3506
  219MOL0     C29495   8.776   8.912   5.238  0.8164 -0.6648 -0.2223
  219MOL0     C29496   8.861   8.907   5.346  0.1835  0.1060  0.3713
  219MOL0     C29497   8.983   9.003   5.338  0.3375  0.8465  0.1541
  219MOL0     H29498   9.270   8.773   5.692 -0.0188  3.1715 -2.6626
  219MOL0     H29499   9.325   8.778   5.923  0.0711 -0.0886  1.3807
  219MOL0     H29500   9.269   9.066   6.232  1.1388 -0.4963  1.2787
  219MOL0     H29501   9.096   9.059   6.190 -0.0341 -0.5558 -0.9479
  219MOL0     H29502   9.258   8.887   6.396 -0.4737 -0.6103  1.6561
  219MOL0     H29503   9.090   8.858   6.336 -0.0415  1.3101 -3.3083
  219MOL0     H29504   9.046   8.973   6.526  0.8216  0.6804  0.4827
  219MOL0     H29505   9.030   9.101   6.418  0.4877  2.4410  3.6293
  219MOL0     H29506   9.265   9.019   6.589 -0.4765  1.1912  2.0118
  219MOL0     H29507   9.295   9.153   6.467 -0.0756 -1.9542 -1.0336
  219MOL0     H29508   9.256   9.230   6.685 -0.2192  2.6558 -1.0991
  219MOL0     H29509   9.147   9.297   6.568  0.2178  0.5290  0.4313
  219MOL0     H29510   8.966   9.144   6.664 -1.5438  0.9085  2.8270
  219MOL0     H29511   9.089   9.066   6.768  0.2241  0.8588  1.5327
  219MOL0     H29512   9.134   9.284   6.865  1.1972  0.3811 -3.3678
  219MOL0     H29513   8.965   9.242   6.910  1.2900  0.0505  0.4477
  219MOL0     H29514   9.049   9.450   6.714 -0.0762 -0.7176  0.9578
  219MOL0     H29515   8.889   9.384   6.709  0.1585 -2.4230  1.9003
  219MOL0     H29516   8.797   9.356   6.971  1.2320  0.1314  0.2617
  219MOL0     H29517   8.744   9.654   7.251  4.0870  0.7204 -1.2110
  219MOL0     H29518   8.640   9.563   7.153  0.6746  0.7073  0.1478
  219MOL0     H29519   8.672   9.399   7.324  0.1995 -2.1480 -2.9265
  219MOL0     H29520   8.825   9.355   7.261  0.9950  0.1167  1.7930
  219MOL0     H29521   8.814   9.583   7.456  2.5065  1.0870 -0.8018
  219MOL0     H29522   8.956   9.493   7.397 -1.0959 -0.0267 -2.9428
  219MOL0     H29523   8.855   9.291   7.522  0.6335  0.5727  0.2078
  219MOL0     H29524   8.729   9.410   7.572  0.1799 -1.0082  0.4817
  219MOL0     H29525   8.925   9.256   7.781 -0.2417  2.1829 -2.8370
  219MOL0     H29526   9.105   9.094   7.815 -0.5571 -0.7227 -0.2596
  219MOL0     H29527   9.545   8.921   7.654  0.6941 -0.3658 -0.9767
  219MOL0     H29528   9.766   8.825   7.680  0.2102  0.4861  0.6761
  219MOL0     H29529  10.072   9.035   7.709 -0.9963 -1.8927 -1.6629
  219MOL0     H29530  10.105   9.023   7.880  0.5171  1.1992 -0.2232
  219MOL0     H29531  10.247   8.859   7.878 -0.2963  0.9789  0.5213
  219MOL0     H29532  10.179   8.780   7.728 -1.1851 -1.9494  4.9431
  219MOL0     H29533  10.266   8.968   7.587  0.3290  2.9447 -0.2476
  219MOL0     H29534  10.348   9.034   7.734 -0.5849 -0.9769  3.3975
  219MOL0     H29535  10.392   8.748   7.647  5.1636 -1.8879 -1.8571
  219MOL0     H29536  10.496   8.838   7.754 -0.0623 -1.6613 -0.5814
  219MOL0     H29537  10.622   8.848   7.534  1.8898  3.4864 -4.2448
  219MOL0     H29538  10.518   8.984   7.513 -0.7716 -0.3953  0.4994
  219MOL0     H29539  10.434   8.722   7.402  1.8233 -1.5186 -2.5889
  219MOL0     H29540  10.359   8.882   7.378  1.3683 -0.0976 -2.1176
  219MOL0     H29541  10.635   8.810   7.311  0.3316  2.0195  1.6740
  219MOL0     H29542  10.555   8.963   7.262  0.1418 -0.0260  0.8958
  219MOL0     H29543  10.457   8.690   7.171  1.9717 -0.7467 -2.8327
  219MOL0     H29544  10.391   8.851   7.120  1.1540  1.9049 -0.4853
  219MOL0     H29545   9.914   9.168   7.872 -0.5211 -1.7112  2.4362
  219MOL0     H29546   9.700   9.279   7.841 -3.2481 -0.6648  0.3318
  219MOL0     H29547   9.357   9.399   7.609  0.0677  1.1686 -0.5721
  219MOL0     H29548   9.155   9.525   7.571 -1.9903  1.1266 -0.4907
  219MOL0     H29549   8.998   9.049   6.002 -3.4199 -1.3772 -1.2112
  219MOL0     H29550   8.924   9.012   5.794  1.0798 -0.4397 -3.4470
  219MOL0     H29551   8.676   8.662   5.516  1.8936 -2.7057 -0.0907
  219MOL0     H29552   8.554   8.680   5.313 -0.7516  0.8412  0.7725
  219MOL0     H29553   8.598   8.634   5.072  3.4164  0.3826 -0.0776
  219MOL0     H29554   8.540   8.723   4.934 -2.9375  0.2203 -0.2392
  219MOL0     H29555   8.376   8.674   5.192 -2.2320  0.0016 -0.1785
  219MOL0     H29556   8.331   8.640   5.031 -0.6792 -1.2059  2.0191
  219MOL0     H29557   8.373   8.929   5.117 -1.5285  0.3776  0.9380
  219MOL0     H29558   8.227   8.833   5.149  0.2110 -1.8578  0.2178
  219MOL0     H29559   8.205   8.965   4.942  0.2164  0.9551 -1.2671
  219MOL0     H29560   8.337   8.875   4.865 -0.8854  0.3806 -0.2942
  219MOL0     H29561   8.001   8.619   4.852 -0.3259 -0.6019  0.7640
  219MOL0     H29562   8.796   8.974   5.151  3.4704  0.0503  0.8178
  219MOL0     H29563   8.984   9.064   5.247  1.1311  2.1078  0.9842
  219MOL0     H29564   8.992   9.078   5.418 -3.8871  3.6558 -1.6465
  219MOL0     H29565   9.067   8.933   5.332 -1.7235 -1.8831  0.9761
  220MOL0     O29566   3.498   1.647   8.178 -0.2430  0.2794  0.3479
  220MOL0     C29567   3.484   1.758   8.221  0.8118 -0.1189  0.0819
  220MOL0     O29568   3.549   1.812   8.326  0.0196  0.0480 -0.4014
  220MOL0     C29569   3.623   1.736   8.412  0.3272 -0.0115  0.0164
  220MOL0     C29570   3.582   1.607   8.457 -0.0676 -0.0711 -0.0381
  220MOL0     C29571   3.648   1.544   8.565  0.5258  0.3090  0.5849
  220MOL0     C29572   3.762   1.599   8.615 -1.0902  0.1030 -0.1622
  220MOL0     O29573   3.850   1.535   8.707  0.4394 -0.5295 -0.5582
  220MOL0     C29574   3.839   1.397   8.742  0.3040  0.2452 -1.1554
  220MOL0     C29575   3.858   1.405   8.893 -1.0454  0.1952  0.1688
  220MOL0     C29576   3.827   1.266   8.947  0.3345  0.1611  0.1378
  220MOL0     C29577   3.787   1.273   9.092 -0.0337 -0.2098 -0.3883
  220MOL0     C29578   3.647   1.337   9.110 -0.7105 -0.2944 -0.1868
  220MOL0     C29579   3.633   1.333   9.266  0.5286 -0.8146  0.7893
  220MOL0     C29580   3.490   1.385   9.301 -0.0584 -0.2606 -0.0718
  220MOL0     C29581   3.496   1.435   9.448 -0.7452  0.8619 -0.1042
  220MOL0     N29582   3.381   1.508   9.482 -0.3355 -0.3264  0.2016
  220MOL0     C29583   3.358   1.644   9.456  0.6444  0.1223 -0.4199
  220MOL0     C29584   3.236   1.664   9.503 -0.4839 -1.1192  0.4603
  220MOL0     C29585   3.164   1.807   9.508 -0.6731  0.0042 -0.5731
  220MOL0     C29586   3.079   1.826   9.631 -0.4662 -0.4303  1.0738
  220MOL0     C29587   3.024   1.963   9.644  0.4129 -0.0470  0.3082
  220MOL0     C29588   2.873   1.961   9.626  0.8142  0.4660 -0.7496
  220MOL0     O29589   2.833   2.096   9.613 -0.0833 -0.4445 -0.1929
  220MOL0     C29590   2.698   2.112   9.648 -0.0162  0.6323  0.2653
  220MOL0     C29591   2.589   2.072   9.568  0.1208 -0.7765  0.1213
  220MOL0     C29592   2.463   2.136   9.577  1.1878  1.0233 -0.2042
  220MOL0     C29593   2.439   2.234   9.687  0.0312 -0.0029  0.2577
  220MOL0     C29594   2.312   2.317   9.683  0.5048  0.5340 -0.2494
  220MOL0     O29595   2.308   2.429   9.769 -0.7452 -0.4038  0.2905
  220MOL0     C29596   2.188   2.488   9.773 -0.2350  0.2999  0.4540
  220MOL0     C29597   2.080   2.423   9.833  0.0511 -0.5039 -0.1499
  220MOL0     C29598   1.966   2.496   9.875 -0.5747 -0.5682 -0.4138
  220MOL0     C29599   1.956   2.636   9.846  0.2831  0.5187  0.8780
  220MOL0     O29600   1.842   2.714   9.869 -0.7650  1.0804  0.1911
  220MOL0     C29601   1.757   2.676   9.976  0.6858 -1.6118  0.0746
  220MOL0     C29602   1.639   2.777   9.988 -0.0635 -0.0036 -0.5686
  220MOL0     C29603   1.538   2.730  10.078  0.8622 -0.2240  0.2389
  220MOL0     C29604   1.566   2.768  10.228 -0.4256 -0.5896 -0.2025
  220MOL0     C29605   1.451   2.733  10.331  0.1905  0.0918 -0.3458
  220MOL0     C29606   1.445   2.580  10.335  0.6441 -0.4263  0.9801
  220MOL0     C29607   1.354   2.522  10.436 -0.3668  0.4084 -1.4884
  220MOL0     C29608   1.361   2.360  10.433 -0.5199 -1.7227 -0.0760
  220MOL0    Cl29609   1.289   2.301  10.580  0.1611  0.4595  0.1703
  220MOL0     C29610   2.056   2.694   9.774 -0.4722  0.5794 -0.2602
  220MOL0     C29611   2.166   2.628   9.738  1.1689  0.4527 -0.3804
  220MOL0     O29612   2.223   2.290   9.598 -0.4873 -0.2532 -0.1214
  220MOL0     C29613   2.545   2.252   9.786  0.7371  0.0185  0.6048
  220MOL0     C29614   2.673   2.193   9.756  0.5120  0.1538 -0.3072
  220MOL0     N29615   3.180   1.546   9.552  0.6187  0.1692  0.3066
  220MOL0     N29616   3.267   1.449   9.525 -0.3333 -0.9205  0.2694
  220MOL0     C29617   3.813   1.714   8.556  0.0234 -0.1097 -0.3469
  220MOL0     C29618   3.744   1.786   8.455  0.3187 -0.1794  0.0755
  220MOL0     C29619   3.386   1.851   8.148 -0.7148 -0.4228  0.5153
  220MOL0     C29620   3.413   1.989   8.161 -0.9509  0.2403  0.4177
  220MOL0     C29621   3.342   2.080   8.096 -0.3889  0.6849  0.3694
  220MOL0     C29622   3.248   2.049   8.004 -0.6689  0.5981  0.5886
  220MOL0     O29623   3.189   2.144   7.922  0.4114 -0.1567 -0.4714
  220MOL0     C29624   3.057   2.161   7.934  0.8996 -0.1019 -0.3690
  220MOL0     C29625   3.017   2.224   8.068  0.0710 -0.3430  0.1869
  220MOL0     C29626   2.866   2.253   8.081 -0.6553 -0.5149  0.1195
  220MOL0     C29627   2.825   2.272   8.229 -0.1769  0.1129  1.2897
  220MOL0     C29628   2.907   2.372   8.290  0.8046  0.3871 -0.4110
  220MOL0     C29629   2.971   2.466   8.337 -0.1590  0.5195  0.1069
  220MOL0     C29630   3.215   1.914   7.990 -0.2355 -0.6571  0.8302
  220MOL0     C29631   3.285   1.813   8.054 -0.3437  0.0911  0.0295
  220MOL0     C29632   3.246   1.677   8.028  1.0615 -0.4017  0.2106
  220MOL0     H29633   3.488   1.578   8.412  0.4669  2.1369 -2.8691
  220MOL0     H29634   3.622   1.448   8.608  2.1997 -0.1989  0.5159
  220MOL0     H29635   3.744   1.354   8.707 -0.1731  0.9620 -0.7716
  220MOL0     H29636   3.918   1.344   8.689  2.5635  2.1888  0.0994
  220MOL0     H29637   3.775   1.465   8.933 -2.5059 -0.9107 -1.0775
  220MOL0     H29638   3.950   1.455   8.922 -0.1642  1.0140 -3.4759
  220MOL0     H29639   3.914   1.201   8.934 -1.0797 -1.4345 -2.0581
  220MOL0     H29640   3.746   1.221   8.889  1.5836  0.7386 -2.2149
  220MOL0     H29641   3.775   1.174   9.137 -3.0830  0.5590  0.7515
  220MOL0     H29642   3.862   1.336   9.142 -1.2410  0.8120  0.1923
  220MOL0     H29643   3.656   1.441   9.078  0.6300 -0.2995  0.1245
  220MOL0     H29644   3.571   1.273   9.066 -1.8474 -0.1215  1.4201
  220MOL0     H29645   3.649   1.232   9.305  1.0931 -1.8496 -1.9079
  220MOL0     H29646   3.704   1.403   9.309  0.2812 -1.0973  1.6909
  220MOL0     H29647   3.406   1.315   9.300 -1.5647  1.4484  0.8051
  220MOL0     H29648   3.470   1.469   9.234  0.9689  0.0842  0.0306
  220MOL0     H29649   3.492   1.350   9.518 -0.4269  0.5934 -0.4100
  220MOL0     H29650   3.586   1.493   9.472  0.2058 -0.8217  0.5960
  220MOL0     H29651   3.428   1.710   9.405 -1.0073  0.0491 -2.9470
  220MOL0     H29652   3.242   1.881   9.492 -0.9323  0.4313  0.1117
  220MOL0     H29653   3.099   1.799   9.420 -0.8895 -2.0456 -0.3009
  220MOL0     H29654   3.001   1.749   9.621 -0.7281 -0.2062  1.3931
  220MOL0     H29655   3.148   1.802   9.712 -0.2185  1.5673  1.4948
  220MOL0     H29656   3.054   2.026   9.560 -0.0143  2.7519  2.1523
  220MOL0     H29657   3.041   2.002   9.744  0.4105  0.0037  0.2888
  220MOL0     H29658   2.826   1.911   9.711  2.5029 -3.3580 -1.8532
  220MOL0     H29659   2.835   1.909   9.537 -1.3328  0.7849 -0.0878
  220MOL0     H29660   2.610   2.018   9.477  4.4496 -1.9544  1.5712
  220MOL0     H29661   2.391   2.111   9.499 -0.3276 -2.4121  2.0512
  220MOL0     H29662   2.075   2.316   9.849 -1.3174 -0.8141 -2.2604
  220MOL0     H29663   1.883   2.440   9.914  1.7382 -3.1749  1.0906
  220MOL0     H29664   1.716   2.578   9.951  3.5227 -2.5660 -1.3280
  220MOL0     H29665   1.814   2.663  10.069  0.9922  1.0143  0.3187
  220MOL0     H29666   1.673   2.877  10.020 -1.9376  0.2702  0.7200
  220MOL0     H29667   1.595   2.782   9.888 -1.3375  1.0701  0.0005
  220MOL0     H29668   1.445   2.772  10.040 -0.5622 -2.6247  0.8477
  220MOL0     H29669   1.524   2.622  10.066 -2.1723  0.2183 -1.0865
  220MOL0     H29670   1.569   2.877  10.237 -5.6147 -0.0508 -1.4535
  220MOL0     H29671   1.662   2.728  10.261  2.1534  3.1933 -2.4039
  220MOL0     H29672   1.359   2.769  10.284 -0.0499 -2.5462 -2.1426
  220MOL0     H29673   1.468   2.780  10.428 -1.8173  1.6777 -0.7012
  220MOL0     H29674   1.418   2.548  10.234 -0.8708  0.3442  1.1034
  220MOL0     H29675   1.544   2.539  10.359  0.6182 -0.7926  0.4821
  220MOL0     H29676   1.249   2.545  10.414 -1.2151 -0.0924  1.5613
  220MOL0     H29677   1.366   2.557  10.539 -3.9355 -0.1537 -0.7331
  220MOL0     H29678   1.304   2.314  10.352 -2.3392  2.2942 -1.3198
  220MOL0     H29679   1.466   2.331  10.424 -0.2015 -0.6057 -0.0580
  220MOL0     H29680   2.047   2.800   9.755 -1.6762  0.2254 -1.8118
  220MOL0     H29681   2.248   2.683   9.693  3.3125 -1.2877  1.1801
  220MOL0     H29682   2.524   2.313   9.873  0.1674  1.2976 -0.4025
  220MOL0     H29683   2.753   2.219   9.825  0.0352 -0.7666  0.6352
  220MOL0     H29684   3.916   1.738   8.577 -0.3551  0.8080  0.5342
  220MOL0     H29685   3.789   1.883   8.435  2.6263 -0.7668  1.9836
  220MOL0     H29686   3.495   2.022   8.223 -1.0385  0.7688  0.2614
  220MOL0     H29687   3.383   2.181   8.105 -0.7901  0.8312  0.5608
  220MOL0     H29688   2.998   2.075   7.902  1.6555 -0.7430 -0.0566
  220MOL0     H29689   3.031   2.237   7.859 -0.4911 -1.3279 -1.1783
  220MOL0     H29690   3.067   2.320   8.079  0.4235 -0.5293  0.2456
  220MOL0     H29691   3.042   2.156   8.150  0.2970  1.6399  1.8408
  220MOL0     H29692   2.813   2.171   8.032  0.5962 -0.0653 -2.1280
  220MOL0     H29693   2.823   2.343   8.036 -2.2635 -0.5336  1.5198
  220MOL0     H29694   2.723   2.307   8.246 -0.8090 -1.9873  2.2737
  220MOL0     H29695   2.841   2.176   8.280 -0.1968 -0.6359 -0.0796
  220MOL0     H29696   3.027   2.550   8.376 -0.1891  1.1663 -1.2065
  220MOL0     H29697   3.152   1.892   7.904  2.4859  0.4085 -1.6056
  220MOL0     H29698   3.194   1.674   7.932  0.1400  1.7913  0.5841
  220MOL0     H29699   3.345   1.631   8.017  0.5808 -1.3692 -0.1254
  220MOL0     H29700   3.186   1.626   8.103  2.0947  0.7939  1.9269
  221MOL0     O29701   4.227   1.287   5.897 -0.1199  0.9746 -0.1948
  221MOL0     C29702   4.135   1.207   5.890  0.2115  0.0747 -0.0447
  221MOL0     O29703   4.103   1.128   5.787 -1.0848  0.2353  0.1499
  221MOL0     C29704   4.190   1.131   5.678  0.5191 -0.4276 -0.0508
  221MOL0     C29705   4.307   1.056   5.670 -0.1676 -0.1191 -0.3460
  221MOL0     C29706   4.391   1.051   5.553 -0.4444 -0.4800 -0.2146
  221MOL0     C29707   4.364   1.152   5.451 -0.5455  0.9512  0.0529
  221MOL0     O29708   4.427   1.166   5.331  0.1680  0.4526  0.3369
  221MOL0     C29709   4.565   1.139   5.308 -0.0429  0.1265 -0.3753
  221MOL0     C29710   4.591   1.158   5.153 -0.2442  0.5268 -0.4352
  221MOL0     C29711   4.736   1.167   5.107 -0.8102  0.6190 -0.2479
  221MOL0     C29712   4.826   1.047   5.152  0.0457  0.0708 -0.3243
  221MOL0     C29713   4.966   1.066   5.096 -0.1657 -0.1331  0.3817
  221MOL0     C29714   5.056   0.960   5.151  0.0407  0.4062  0.5286
  221MOL0     C29715   5.183   0.966   5.068  0.7239 -0.2996  0.1858
  221MOL0     C29716   5.162   0.905   4.931 -0.5133 -0.1332  0.3688
  221MOL0     N29717   5.283   0.830   4.901 -0.8739 -0.1335 -0.0365
  221MOL0     C29718   5.306   0.689   4.910  0.8157  0.6650  0.3436
  221MOL0     C29719   5.430   0.663   4.864  0.7462  0.1844  0.2592
  221MOL0     C29720   5.491   0.526   4.860 -0.5162 -0.0115 -0.4677
  221MOL0     C29721   5.603   0.509   4.758 -1.6948  0.3156 -0.5069
  221MOL0     C29722   5.622   0.360   4.728  0.0035  1.4752 -0.6091
  221MOL0     C29723   5.748   0.317   4.653  0.4049 -0.1551  0.2785
  221MOL0     O29724   5.764   0.386   4.525  0.2807  0.0352  0.3669
  221MOL0     C29725   5.663   0.361   4.421 -0.3682 -0.7780 -0.3776
  221MOL0     C29726   5.592   0.467   4.376  0.3684  0.1055 -0.2630
  221MOL0     C29727   5.491   0.439   4.281  0.6968  1.6100 -0.1057
  221MOL0     C29728   5.477   0.318   4.217  0.3343  1.3816  0.4890
  221MOL0     C29729   5.396   0.306   4.094  0.0636 -0.1374  0.0838
  221MOL0     O29730   5.417   0.194   4.019 -0.6187  0.2263 -0.3177
  221MOL0     C29731   5.337   0.156   3.911 -0.7785  0.1285  0.2538
  221MOL0     C29732   5.389   0.082   3.806  0.5498  0.0262 -0.3513
  221MOL0     C29733   5.314   0.030   3.702  0.3248 -0.9098  0.8290
  221MOL0     C29734   5.172   0.041   3.707  0.6650  0.5058  0.6414
  221MOL0     O29735   5.097  -0.017   3.613  0.9979  0.0623 -0.0100
  221MOL0     C29736   4.952  -0.020   3.624 -1.2514  0.3460  0.4613
  221MOL0     C29737   4.889  -0.087   3.505  0.2796  0.5212  0.6003
  221MOL0     C29738   4.858   0.011   3.400 -0.9261 -0.4783  0.6420
  221MOL0     C29739   4.824  -0.068   3.270  0.6404  0.0317  0.5280
  221MOL0     C29740   4.829   0.024   3.143 -0.5848 -0.3822  0.4811
  221MOL0     C29741   4.723   0.128   3.130  0.2416  0.4018  0.5481
  221MOL0     C29742   4.751   0.233   3.031 -0.5410 -0.0162 -0.3271
  221MOL0     C29743   4.859   0.339   3.073  0.5702  0.2828  0.6074
  221MOL0    Cl29744   4.826   0.402   3.228  0.2291  0.3749 -0.3443
  221MOL0     C29745   5.115   0.114   3.813 -0.8292  0.2611  0.2255
  221MOL0     C29746   5.196   0.165   3.912  0.1224 -1.3660  0.0502
  221MOL0     O29747   5.314   0.389   4.069  0.7942 -0.0466  0.0228
  221MOL0     C29748   5.565   0.213   4.255  0.1405 -0.1597 -0.4792
  221MOL0     C29749   5.656   0.237   4.367 -1.1378  0.5951 -0.0911
  221MOL0     N29750   5.489   0.783   4.843 -0.3527 -0.4553  0.2811
  221MOL0     N29751   5.402   0.883   4.857 -0.0580 -0.1244  0.4964
  221MOL0     C29752   4.242   1.223   5.461  0.3394 -0.5761 -0.3952
  221MOL0     C29753   4.167   1.220   5.576  1.1857  0.1296  0.6111
  221MOL0     C29754   4.033   1.197   6.004  0.7565 -0.0887 -0.0962
  221MOL0     C29755   3.951   1.083   5.993  0.1989  0.9313 -0.2426
  221MOL0     C29756   3.852   1.051   6.088  0.6783  0.1175  0.1670
  221MOL0     C29757   3.836   1.138   6.202  0.2610  1.2748  0.6460
  221MOL0     O29758   3.749   1.113   6.308  0.7608  0.3394 -0.1517
  221MOL0     C29759   3.661   1.002   6.305  0.5685 -0.4298  0.0459
  221MOL0     C29760   3.525   1.032   6.233 -0.6295  0.6258 -0.0629
  221MOL0     C29761   3.427   0.922   6.235  0.7797  0.7285 -1.1118
  221MOL0     C29762   3.294   0.949   6.165 -0.5121  0.5181  0.2657
  221MOL0     C29763   3.319   1.000   6.024 -0.0410 -1.0138 -0.1912
  221MOL0     C29764   3.344   1.064   5.929 -0.3682 -0.5388  0.7183
  221MOL0     C29765   3.911   1.259   6.212 -0.0068  0.0771  0.2124
  221MOL0     C29766   4.006   1.284   6.112 -1.3871 -0.1436 -0.6414
  221MOL0     C29767   4.109   1.398   6.135  0.3979  0.3854  0.1023
  221MOL0     H29768   4.316   0.989   5.754 -3.5985  0.7091  0.8593
  221MOL0     H29769   4.481   0.989   5.554  0.0590  0.2207  0.9482
  221MOL0     H29770   4.627   1.213   5.359 -0.6391  1.1555 -1.1034
  221MOL0     H29771   4.597   1.036   5.329 -0.1977 -0.3341 -2.1951
  221MOL0     H29772   4.543   1.251   5.121 -0.5494  0.6926  0.4951
  221MOL0     H29773   4.551   1.073   5.097 -1.0899  1.7313 -1.7563
  221MOL0     H29774   4.778   1.262   5.143  0.2378  0.1499 -0.1959
  221MOL0     H29775   4.733   1.170   4.997  2.4143 -1.3458 -0.5090
  221MOL0     H29776   4.828   1.047   5.262  1.2981 -3.9809 -0.1746
  221MOL0     H29777   4.786   0.953   5.114  0.5283 -0.4186  0.3623
  221MOL0     H29778   4.953   1.054   4.989 -1.0457  3.3002 -0.0101
  221MOL0     H29779   5.022   1.159   5.114  0.9155 -0.7592  0.3504
  221MOL0     H29780   5.078   0.981   5.256 -2.6492 -0.3230  1.3214
  221MOL0     H29781   5.014   0.860   5.140  1.7092 -0.1574 -1.5660
  221MOL0     H29782   5.272   0.927   5.119  1.7444 -1.0079 -1.9930
  221MOL0     H29783   5.214   1.068   5.043 -0.0110 -0.3882 -1.1242
  221MOL0     H29784   5.072   0.845   4.917 -0.2652 -0.4991  0.3259
  221MOL0     H29785   5.161   0.994   4.868 -1.3869  2.8321  4.1616
  221MOL0     H29786   5.230   0.617   4.941  0.0554  2.7534  3.9451
  221MOL0     H29787   5.525   0.524   4.964 -2.3169  4.4076  0.3999
  221MOL0     H29788   5.418   0.447   4.842  1.9230 -2.4464 -0.5038
  221MOL0     H29789   5.588   0.558   4.661  1.4658 -2.6533 -2.7045
  221MOL0     H29790   5.697   0.541   4.803 -1.1336 -2.2851  0.3027
  221MOL0     H29791   5.535   0.323   4.673  1.7555 -3.7225 -0.3872
  221MOL0     H29792   5.605   0.302   4.819 -2.2408  1.1621 -1.1856
  221MOL0     H29793   5.756   0.209   4.637  0.6634 -0.1406  0.3061
  221MOL0     H29794   5.839   0.340   4.709 -1.0832  3.5175  1.4900
  221MOL0     H29795   5.619   0.568   4.405 -1.2293  0.6945 -0.7265
  221MOL0     H29796   5.428   0.526   4.266 -0.7856  0.9765  1.9232
  221MOL0     H29797   5.491   0.051   3.827  1.2351  2.9606  1.2480
  221MOL0     H29798   5.361  -0.037   3.630  1.0350  0.9451 -0.4868
  221MOL0     H29799   4.929  -0.071   3.719  1.2454 -0.0865  0.8994
  221MOL0     H29800   4.915   0.083   3.629  0.8788  1.2169 -0.6017
  221MOL0     H29801   4.958  -0.161   3.463 -0.2592  2.1223 -3.5616
  221MOL0     H29802   4.794  -0.140   3.520  0.4123 -0.1669 -0.7778
  221MOL0     H29803   4.770   0.070   3.426 -1.8298 -0.3346 -2.3000
  221MOL0     H29804   4.939   0.081   3.377 -1.7345  1.0032  2.1112
  221MOL0     H29805   4.722  -0.105   3.279  0.4295  0.9123  2.0704
  221MOL0     H29806   4.907  -0.137   3.250 -1.2017 -2.0870 -0.0891
  221MOL0     H29807   4.834  -0.043   3.057  1.2417  0.8543 -0.4551
  221MOL0     H29808   4.924   0.078   3.149 -0.2200 -0.9987  0.3314
  221MOL0     H29809   4.632   0.075   3.104 -2.0590  2.4336  3.6217
  221MOL0     H29810   4.701   0.182   3.223  0.4676  0.0522  0.8087
  221MOL0     H29811   4.660   0.292   3.017 -1.2963 -1.5406 -2.1865
  221MOL0     H29812   4.789   0.187   2.939 -0.5501  0.4919 -0.5849
  221MOL0     H29813   4.954   0.285   3.078 -0.4948 -1.7366 -0.1110
  221MOL0     H29814   4.871   0.415   2.996  0.4359  0.1573  0.4621
  221MOL0     H29815   5.008   0.130   3.818 -1.5875 -3.7771  0.8251
  221MOL0     H29816   5.151   0.209   4.001  3.2094 -0.8996  1.5169
  221MOL0     H29817   5.548   0.117   4.208 -2.3873 -0.9068  1.6838
  221MOL0     H29818   5.726   0.163   4.403  0.5668  1.8327 -0.7411
  221MOL0     H29819   4.216   1.291   5.381  2.9921  0.7701 -0.2046
  221MOL0     H29820   4.078   1.282   5.581 -0.1492 -1.7492  1.9053
  221MOL0     H29821   3.967   0.999   5.925 -1.8428 -0.7911  1.2519
  221MOL0     H29822   3.794   0.964   6.062  4.1395 -1.3776 -3.5117
  221MOL0     H29823   3.645   0.953   6.401 -1.7767 -3.0612 -1.5712
  221MOL0     H29824   3.703   0.917   6.250  2.2017  2.0142 -2.8159
  221MOL0     H29825   3.549   1.060   6.130 -3.2226  0.4022 -0.7901
  221MOL0     H29826   3.487   1.121   6.284  0.1554  3.2448 -3.6750
  221MOL0     H29827   3.405   0.905   6.340 -0.5922 -0.3621 -1.5392
  221MOL0     H29828   3.466   0.829   6.191 -0.3209 -0.6546  0.7015
  221MOL0     H29829   3.224   0.865   6.163 -1.7744  1.5182  0.6673
  221MOL0     H29830   3.232   1.017   6.224 -4.8380 -1.4280 -1.5679
  221MOL0     H29831   3.377   1.113   5.840 -0.3307  0.9545  1.5380
  221MOL0     H29832   3.899   1.306   6.309  1.2736 -0.1717  0.5127
  221MOL0     H29833   4.084   1.487   6.077  1.5257  1.1479  0.7450
  221MOL0     H29834   4.108   1.417   6.243 -0.0159  1.5145 -0.0889
  221MOL0     H29835   4.210   1.357   6.123  1.0599  2.0267 -0.1389
  222MOL0     O29836   2.776   8.230   1.206  0.4671 -0.5533  0.3190
  222MOL0     C29837   2.758   8.208   1.327 -0.1590  0.0449  0.0774
  222MOL0     O29838   2.637   8.196   1.383  0.2061 -0.8351  0.5484
  222MOL0     C29839   2.531   8.208   1.298 -0.1600 -0.8421 -0.0193
  222MOL0     C29840   2.505   8.122   1.188  0.7979 -0.4923  0.3049
  222MOL0     C29841   2.386   8.148   1.113 -0.1731  0.2006  0.9303
  222MOL0     C29842   2.297   8.242   1.153 -0.1685 -0.5049 -0.0341
  222MOL0     O29843   2.187   8.260   1.075 -0.1170  0.1555 -0.1884
  222MOL0     C29844   2.066   8.330   1.119  0.4977  0.0835 -1.1942
  222MOL0     C29845   1.974   8.292   0.998  0.9222  0.1160 -0.3018
  222MOL0     C29846   1.825   8.327   1.020 -0.2407 -0.1580 -0.6491
  222MOL0     C29847   1.754   8.226   1.113  0.8508  0.1905 -0.5488
  222MOL0     C29848   1.600   8.239   1.107 -0.4215 -0.2924  0.1747
  222MOL0     C29849   1.536   8.157   1.221  0.1051  0.1022  0.1185
  222MOL0     C29850   1.385   8.145   1.197 -0.0631  0.3529  0.3835
  222MOL0     C29851   1.315   8.040   1.285  0.0911 -0.0664 -0.8562
  222MOL0     N29852   1.181   8.015   1.245  0.5093  1.2015 -0.4759
  222MOL0     C29853   1.088   8.110   1.224 -0.2196 -0.6021  0.0396
  222MOL0     C29854   0.984   8.045   1.164 -0.1588  0.4799  0.2334
  222MOL0     C29855   0.865   8.104   1.090  0.1990  0.7162 -0.7924
  222MOL0     C29856   0.778   8.015   0.995 -0.1616 -0.0851  0.1739
  222MOL0     C29857   0.739   7.866   1.030  0.2487  0.4455  0.4561
  222MOL0     C29858   0.642   7.815   0.919 -0.2683  0.3664  0.2169
  222MOL0     O29859   0.604   7.676   0.944  0.6098  0.7274 -0.1188
  222MOL0     C29860   0.498   7.632   0.873  0.6665 -0.0416  0.5246
  222MOL0     C29861   0.522   7.551   0.763  0.0556  0.1786 -0.7851
  222MOL0     C29862   0.417   7.519   0.675  0.1645  0.7028 -0.3153
  222MOL0     C29863   0.280   7.549   0.704 -0.8631 -0.7589 -0.4120
  222MOL0     C29864   0.171   7.504   0.620 -0.7880  0.2898  0.5895
  222MOL0     O29865   0.046   7.543   0.654 -0.6652  0.4717  0.6350
  222MOL0     C29866  -0.051   7.465   0.604  0.1113  0.3062  0.4607
  222MOL0     C29867  -0.093   7.342   0.652  0.0841  0.4184  0.6897
  222MOL0     C29868  -0.211   7.274   0.600  0.1874  0.0191 -0.3156
  222MOL0     C29869  -0.295   7.338   0.513 -0.7305 -0.7159 -0.4789
  222MOL0     O29870  -0.414   7.301   0.458  0.0491 -0.6033  0.8923
  222MOL0     C29871  -0.479   7.174   0.489 -0.7599 -0.4401  0.6804
  222MOL0     C29872  -0.537   7.169   0.631 -0.1049 -0.1217 -0.3942
  222MOL0     C29873  -0.622   7.286   0.664  0.1039 -0.1831  0.3248
  222MOL0     C29874  -0.688   7.274   0.794 -0.1601  0.7258  0.5619
  222MOL0     C29875  -0.791   7.383   0.814 -0.1439  0.7889 -0.2234
  222MOL0     C29876  -0.828   7.402   0.965 -0.1377  0.8824 -0.0234
  222MOL0     C29877  -0.915   7.287   1.021  0.4530  0.0735 -0.5778
  222MOL0     C29878  -1.005   7.325   1.127 -0.2648  0.2797 -0.2294
  222MOL0    Cl29879  -1.119   7.197   1.175  0.1914 -0.5012  0.7324
  222MOL0     C29880  -0.262   7.475   0.474  0.1051  0.9910  0.4765
  222MOL0     C29881  -0.139   7.529   0.514 -0.3804 -0.3012 -0.2011
  222MOL0     O29882   0.206   7.446   0.519  0.2483  0.1607  0.5116
  222MOL0     C29883   0.261   7.624   0.822 -0.1495 -1.1570 -0.0331
  222MOL0     C29884   0.363   7.674   0.898 -0.1895  1.1108 -0.0061
  222MOL0     N29885   1.012   7.903   1.156 -0.5454 -0.5836 -0.4269
  222MOL0     N29886   1.134   7.887   1.209  0.3161 -0.0658  0.6751
  222MOL0     C29887   2.317   8.314   1.274 -0.3768 -0.8231  1.3277
  222MOL0     C29888   2.434   8.302   1.338 -0.8026 -0.1512  0.1965
  222MOL0     C29889   2.884   8.193   1.416  0.1440  0.0520 -1.3087
  222MOL0     C29890   2.997   8.254   1.365  0.1931  0.2942  0.2346
  222MOL0     C29891   3.126   8.252   1.436 -0.1893  1.0081  0.7680
  222MOL0     C29892   3.129   8.198   1.562 -0.2056 -0.2293  0.6284
  222MOL0     O29893   3.236   8.212   1.647  0.1078  0.4345 -0.7477
  222MOL0     C29894   3.335   8.298   1.615  0.5035  0.1743 -0.0066
  222MOL0     C29895   3.438   8.269   1.721  0.1305  0.3018 -0.7600
  222MOL0     C29896   3.497   8.126   1.724  0.2057  0.9909 -0.3419
  222MOL0     C29897   3.615   8.104   1.828  0.3913 -0.6069  0.3258
  222MOL0     C29898   3.577   8.125   1.969 -0.7152  0.5640 -0.4791
  222MOL0     C29899   3.547   8.135   2.081  0.2935  0.5064  1.0005
  222MOL0     C29900   3.015   8.151   1.617  0.0603 -0.0946  0.2337
  222MOL0     C29901   2.892   8.151   1.550  0.1872  0.4583 -0.1528
  222MOL0     C29902   2.769   8.092   1.629 -0.0077 -0.5629 -0.3734
  222MOL0     H29903   2.569   8.037   1.166 -0.1925 -0.4245 -3.4197
  222MOL0     H29904   2.365   8.084   1.027  1.2963 -1.0141  1.4337
  222MOL0     H29905   2.027   8.290   1.213 -1.2165  1.8822 -1.0826
  222MOL0     H29906   2.077   8.438   1.132 -0.2302 -0.1778  2.8819
  222MOL0     H29907   1.983   8.187   0.966 -2.6284 -0.2094 -0.5967
  222MOL0     H29908   2.000   8.360   0.917 -1.3195  3.5908  1.6622
  222MOL0     H29909   1.776   8.323   0.922 -1.5561  2.4419 -0.2022
  222MOL0     H29910   1.818   8.423   1.072  1.1505 -0.8508  0.9349
  222MOL0     H29911   1.779   8.121   1.094 -0.0607 -0.1801  0.2096
  222MOL0     H29912   1.796   8.251   1.212 -1.0663 -1.8436  0.8764
  222MOL0     H29913   1.567   8.343   1.108 -2.6301 -0.7820 -3.6370
  222MOL0     H29914   1.561   8.194   1.016  0.2339 -0.8733  0.1738
  222MOL0     H29915   1.568   8.052   1.229 -3.5753 -1.1105  1.6254
  222MOL0     H29916   1.561   8.206   1.316  1.2243 -1.1060  0.4788
  222MOL0     H29917   1.361   8.104   1.098 -2.0790  1.0939  0.5224
  222MOL0     H29918   1.334   8.242   1.197  1.7334  1.3294  0.3496
  222MOL0     H29919   1.371   7.946   1.285 -2.2324 -1.5526  0.9234
  222MOL0     H29920   1.323   8.081   1.386  2.4777  3.9259 -2.4035
  222MOL0     H29921   1.096   8.218   1.235  0.5465 -0.9560  4.6144
  222MOL0     H29922   0.793   8.122   1.171  0.4926 -0.6137 -0.2025
  222MOL0     H29923   0.901   8.192   1.037 -0.9627  0.4925 -1.9993
  222MOL0     H29924   0.684   8.064   0.970 -2.3055 -3.7849  0.1774
  222MOL0     H29925   0.829   8.007   0.899 -1.0270 -1.1432 -0.2180
  222MOL0     H29926   0.685   7.865   1.124 -0.8961  2.7914 -0.1026
  222MOL0     H29927   0.831   7.808   1.018  1.6261  2.4558  0.7021
  222MOL0     H29928   0.691   7.818   0.821  0.0047 -1.0457  0.2785
  222MOL0     H29929   0.547   7.869   0.914 -1.8206 -1.9021  2.4372
  222MOL0     H29930   0.621   7.511   0.742 -1.4315 -4.5861  0.1006
  222MOL0     H29931   0.435   7.460   0.586  0.1773 -0.3700  0.3783
  222MOL0     H29932  -0.039   7.285   0.727 -0.4159 -0.5743  0.3286
  222MOL0     H29933  -0.223   7.174   0.641  1.1264 -0.2420 -0.6533
  222MOL0     H29934  -0.554   7.156   0.412 -1.7828 -2.7672  2.1135
  222MOL0     H29935  -0.396   7.105   0.471  0.4778  1.4381 -1.3646
  222MOL0     H29936  -0.590   7.074   0.643  0.8057 -0.8145 -1.5292
  222MOL0     H29937  -0.447   7.161   0.694 -0.1177  2.0609 -0.0398
  222MOL0     H29938  -0.567   7.381   0.672 -0.7299  0.3888 -0.4891
  222MOL0     H29939  -0.699   7.282   0.586  2.1979 -2.7484 -1.7745
  222MOL0     H29940  -0.615   7.262   0.874 -1.3110 -2.1961  1.2805
  222MOL0     H29941  -0.738   7.177   0.794  2.7200 -0.8843  2.1791
  222MOL0     H29942  -0.878   7.357   0.754 -0.7387 -2.6945  1.8714
  222MOL0     H29943  -0.739   7.476   0.791  4.0100 -1.6589 -1.7566
  222MOL0     H29944  -0.738   7.431   1.021 -1.0571 -1.6333  3.0119
  222MOL0     H29945  -0.875   7.500   0.978 -0.8468  0.6083 -0.4732
  222MOL0     H29946  -0.849   7.211   1.064 -1.2191 -0.5921  0.9424
  222MOL0     H29947  -0.968   7.235   0.940 -3.0276 -0.2924  1.7314
  222MOL0     H29948  -0.939   7.340   1.213  0.6173 -1.4385 -0.5659
  222MOL0     H29949  -1.060   7.419   1.118  2.2851  2.2433  2.8111
  222MOL0     H29950  -0.322   7.543   0.414  1.7376  0.7648 -1.4905
  222MOL0     H29951  -0.125   7.635   0.496  0.6711 -0.5650 -1.0616
  222MOL0     H29952   0.157   7.640   0.850 -0.2029 -2.5465  0.6896
  222MOL0     H29953   0.344   7.707   1.000 -0.9863 -0.0064  0.2174
  222MOL0     H29954   2.240   8.378   1.315 -0.1616 -0.3925  1.0679
  222MOL0     H29955   2.438   8.356   1.432 -2.4745 -1.6574  1.2009
  222MOL0     H29956   3.001   8.301   1.268  0.9168  2.4315  1.2206
  222MOL0     H29957   3.217   8.271   1.381  0.1181 -2.9212 -0.3894
  222MOL0     H29958   3.314   8.404   1.628 -1.1506 -0.1971  0.6079
  222MOL0     H29959   3.375   8.282   1.514  0.6986  3.1165 -0.4810
  222MOL0     H29960   3.404   8.292   1.822  2.6240  1.1827 -0.0462
  222MOL0     H29961   3.525   8.330   1.697 -0.8853  0.7964 -3.5453
  222MOL0     H29962   3.536   8.106   1.624 -3.4080  1.9299 -2.1073
  222MOL0     H29963   3.419   8.052   1.742 -0.9466  2.3713  0.5569
  222MOL0     H29964   3.668   8.008   1.818  2.4543  0.6051 -1.2512
  222MOL0     H29965   3.687   8.179   1.794 -1.2817  1.5482  1.3368
  222MOL0     H29966   3.518   8.133   2.184 -0.5037 -0.9179  0.7621
  222MOL0     H29967   3.014   8.101   1.713  2.7107  0.6050  0.6922
  222MOL0     H29968   2.703   8.164   1.676 -2.9711 -2.4695 -1.3421
  222MOL0     H29969   2.716   8.024   1.562 -0.9153 -1.2168  0.9731
  222MOL0     H29970   2.803   8.027   1.710  0.5263 -2.2512 -1.8831
  223MOL0     O29971  10.023   7.569   1.506 -0.4810 -0.0140 -0.2336
  223MOL0     C29972   9.924   7.626   1.551  0.0536 -0.0907  0.7132
  223MOL0     O29973   9.910   7.762   1.559  0.1958 -0.2190 -0.1411
  223MOL0     C29974   9.994   7.840   1.496 -0.9502  0.2369  0.6667
  223MOL0     C29975  10.068   7.798   1.383  0.0933 -0.4874  0.1933
  223MOL0     C29976  10.157   7.893   1.319 -0.0593  0.3375  0.3277
  223MOL0     C29977  10.175   8.025   1.372 -0.2910 -0.1736  0.2741
  223MOL0     O29978  10.261   8.124   1.322 -0.0108  0.5054 -0.0893
  223MOL0     C29979  10.395   8.095   1.309  0.2982 -0.4146  0.5317
  223MOL0     C29980  10.480   8.218   1.308 -0.3262 -0.1094  0.0149
  223MOL0     C29981  10.493   8.283   1.173  0.5260  0.6589  0.1541
  223MOL0     C29982  10.352   8.321   1.116  0.1474 -0.0707 -0.5444
  223MOL0     C29983  10.354   8.447   1.032 -0.1514  0.3381 -1.2277
  223MOL0     C29984  10.380   8.428   0.889  0.1696  0.1057  0.3332
  223MOL0     C29985  10.485   8.335   0.844  0.1682  0.1106 -0.4758
  223MOL0     C29986  10.505   8.343   0.694 -0.2617  0.3584 -1.2200
  223MOL0     N29987  10.590   8.454   0.659 -0.0078 -0.3186  0.5694
  223MOL0     C29988  10.712   8.481   0.715 -0.1084 -0.6242 -0.2986
  223MOL0     C29989  10.752   8.598   0.670 -0.1674  0.2116 -0.1316
  223MOL0     C29990  10.875   8.668   0.736 -1.1982  0.1350  0.0578
  223MOL0     C29991  11.003   8.653   0.652 -0.0939 -1.4356  1.4359
  223MOL0     C29992  10.993   8.734   0.517  0.1416  0.4883  0.3194
  223MOL0     C29993  11.126   8.753   0.451 -0.7907  0.1887 -0.1679
  223MOL0     O29994  11.202   8.854   0.516  0.1009 -0.8326  0.2834
  223MOL0     C29995  11.331   8.868   0.476 -0.2520 -0.1492  0.3492
  223MOL0     C29996  11.419   8.967   0.534  0.1884 -0.8064  0.8077
  223MOL0     C29997  11.544   9.002   0.477  0.6526 -0.4092  0.0232
  223MOL0     C29998  11.598   8.932   0.354  1.7316 -0.4187  0.0781
  223MOL0     C29999  11.717   8.976   0.294 -0.0896 -1.0853 -0.0832
  223MOL0     O30000  11.733   8.940   0.166  0.2231  0.0182 -0.7541
  223MOL0     C30001  11.807   9.013   0.075  0.4675 -0.9387 -1.2210
  223MOL0     C30002  11.873   8.946  -0.020  0.9007 -0.3591  0.7640
  223MOL0     C30003  11.958   9.017  -0.103 -0.2721 -0.0024  0.1817
  223MOL0     C30004  11.970   9.161  -0.105  0.8138  1.0435  0.2610
  223MOL0     O30005  12.042   9.222  -0.195 -0.5719 -0.1172  0.5955
  223MOL0     C30006  12.159   9.290  -0.139 -0.4110  0.4664  0.9463
  223MOL0     C30007  12.166   9.431  -0.202  0.5343  0.3504 -0.4213
  223MOL0     C30008  12.275   9.524  -0.139 -0.1123 -0.0616 -0.0514
  223MOL0     C30009  12.405   9.485  -0.202 -0.0586  0.2628 -0.0162
  223MOL0     C30010  12.510   9.579  -0.141 -0.3832 -0.2902 -0.4825
  223MOL0     C30011  12.652   9.557  -0.201 -1.6816  0.1107 -0.2141
  223MOL0     C30012  12.701   9.413  -0.227 -0.2702 -0.1399 -0.2842
  223MOL0     C30013  12.855   9.405  -0.251 -0.7838 -0.7525  0.1639
  223MOL0    Cl30014  12.936   9.473  -0.106  0.0991 -0.4949 -0.2113
  223MOL0     C30015  11.904   9.219  -0.005 -0.5576  0.3171  0.1300
  223MOL0     C30016  11.823   9.146   0.085 -0.5324 -0.1467 -0.3021
  223MOL0     O30017  11.791   9.054   0.352  0.0228  0.7184 -0.7281
  223MOL0     C30018  11.512   8.839   0.301  0.9793  0.5515 -0.7195
  223MOL0     C30019  11.386   8.810   0.361 -0.0120 -0.1735 -0.8461
  223MOL0     N30020  10.654   8.642   0.578  0.1061 -0.0377 -0.2825
  223MOL0     N30021  10.563   8.551   0.564 -0.7723  0.1091 -1.1376
  223MOL0     C30022  10.084   8.061   1.474 -0.7018 -0.4772 -0.9011
  223MOL0     C30023   9.996   7.975   1.538  1.3410 -0.6199 -0.1781
  223MOL0     C30024   9.817   7.539   1.588 -0.1586  0.5575  0.9515
  223MOL0     C30025   9.836   7.393   1.588 -0.5651  0.0422 -0.3613
  223MOL0     C30026   9.732   7.319   1.646  0.0316 -0.4628 -0.1115
  223MOL0     C30027   9.616   7.363   1.694 -0.7429  0.1461 -1.1253
  223MOL0     O30028   9.527   7.283   1.758 -0.0688  0.0686 -0.2942
  223MOL0     C30029   9.560   7.148   1.745  1.0354  1.2271  0.6022
  223MOL0     C30030   9.532   7.099   1.608 -0.7297 -0.0392 -0.3017
  223MOL0     C30031   9.550   6.947   1.591 -0.1706 -0.4828 -0.2312
  223MOL0     C30032   9.697   6.898   1.603  0.5788 -0.0409 -0.9570
  223MOL0     C30033   9.693   6.753   1.572 -0.8446 -0.1204 -1.2448
  223MOL0     C30034   9.701   6.627   1.557  0.4711  0.3054  1.1070
  223MOL0     C30035   9.591   7.500   1.693  0.7268 -0.0660 -0.2654
  223MOL0     C30036   9.688   7.593   1.642 -0.5334 -0.1468 -0.0585
  223MOL0     C30037   9.648   7.735   1.637 -0.1342  0.6741  0.4007
  223MOL0     H30038  10.058   7.707   1.324  0.1459  1.5849 -3.2773
  223MOL0     H30039  10.211   7.863   1.229 -2.6941  0.2555 -1.3454
  223MOL0     H30040  10.439   8.033   1.387  2.4872  0.1403 -0.1808
  223MOL0     H30041  10.412   8.040   1.216  2.3970 -0.1353  0.7150
  223MOL0     H30042  10.580   8.208   1.351  0.5485  1.6208 -1.4830
  223MOL0     H30043  10.424   8.291   1.368  1.0841 -0.8842  2.4268
  223MOL0     H30044  10.527   8.205   1.104  1.5822  2.3782 -1.3920
  223MOL0     H30045  10.558   8.371   1.171  0.7304  0.5098  0.1313
  223MOL0     H30046  10.309   8.237   1.060  0.8743 -0.5341 -0.4271
  223MOL0     H30047  10.287   8.349   1.200  1.0830 -0.9041  0.4921
  223MOL0     H30048  10.262   8.501   1.054  1.1388  1.2963  2.6343
  223MOL0     H30049  10.430   8.511   1.078 -0.7139 -0.3852  0.8133
  223MOL0     H30050  10.286   8.388   0.849  1.0025 -0.8489 -0.7560
  223MOL0     H30051  10.403   8.530   0.858 -0.9819 -0.0150 -1.0625
  223MOL0     H30052  10.446   8.234   0.857 -0.0246  0.1860 -0.4668
  223MOL0     H30053  10.574   8.348   0.907 -1.5922 -4.1795  3.5425
  223MOL0     H30054  10.545   8.250   0.654 -0.9756  0.7679 -3.0107
  223MOL0     H30055  10.406   8.360   0.650 -0.7372  1.1621  0.0908
  223MOL0     H30056  10.758   8.428   0.798 -0.6556  1.8648  1.7168
  223MOL0     H30057  10.858   8.776   0.748  0.1485  0.2718  1.0292
  223MOL0     H30058  10.893   8.617   0.831 -1.2781  0.1513  0.0810
  223MOL0     H30059  11.096   8.688   0.698  0.0526 -3.5976  2.9114
  223MOL0     H30060  11.029   8.549   0.632 -0.5797 -1.2355 -0.4682
  223MOL0     H30061  10.940   8.829   0.525  0.3366  0.5980  0.3144
  223MOL0     H30062  10.940   8.665   0.450 -0.2169 -1.0130  2.0596
  223MOL0     H30063  11.102   8.781   0.348  0.5538 -1.7085 -1.0471
  223MOL0     H30064  11.184   8.660   0.453  5.5197  3.5800  0.1379
  223MOL0     H30065  11.390   9.023   0.622  1.6904 -0.6925  1.2519
  223MOL0     H30066  11.590   9.088   0.524  0.8501 -0.3339 -0.3087
  223MOL0     H30067  11.881   8.838  -0.026  2.3902 -0.3014  1.4145
  223MOL0     H30068  12.030   8.964  -0.164 -0.6889 -2.9699  2.0802
  223MOL0     H30069  12.152   9.307  -0.031  0.5858 -3.4254  1.7749
  223MOL0     H30070  12.247   9.230  -0.164 -1.2902  0.4956 -2.9424
  223MOL0     H30071  12.172   9.434  -0.311 -1.4710  0.2976 -0.5590
  223MOL0     H30072  12.068   9.477  -0.188 -0.1581 -0.5741 -1.9819
  223MOL0     H30073  12.252   9.626  -0.173  2.0684  0.5240  0.0896
  223MOL0     H30074  12.280   9.521  -0.030  0.5551 -1.1872 -0.1004
  223MOL0     H30075  12.409   9.503  -0.309  1.8102 -0.0986 -0.0460
  223MOL0     H30076  12.420   9.377  -0.187  0.9565 -0.0051 -2.5221
  223MOL0     H30077  12.524   9.557  -0.035  0.0396  1.2883 -0.1847
  223MOL0     H30078  12.485   9.686  -0.146 -0.7876 -0.4380 -2.9131
  223MOL0     H30079  12.656   9.606  -0.299 -0.5374  0.5053  0.0168
  223MOL0     H30080  12.726   9.609  -0.139  0.6567 -0.4176 -2.3673
  223MOL0     H30081  12.656   9.375  -0.320 -0.0903  0.9045 -0.8181
  223MOL0     H30082  12.681   9.352  -0.139  0.7339  1.9662  1.4836
  223MOL0     H30083  12.888   9.306  -0.284  1.5953 -0.7005  2.1379
  223MOL0     H30084  12.874   9.474  -0.334 -1.5482 -1.1999 -0.3983
  223MOL0     H30085  11.925   9.325  -0.001  0.5278  0.1562 -0.7582
  223MOL0     H30086  11.778   9.197   0.169  0.8406 -1.7414  1.4938
  223MOL0     H30087  11.536   8.774   0.217 -4.5864 -3.1644  0.0122
  223MOL0     H30088  11.321   8.749   0.300 -0.3703 -0.4207 -0.2230
  223MOL0     H30089  10.089   8.164   1.509  0.3248 -1.1417  1.0963
  223MOL0     H30090   9.925   8.018   1.607 -0.0998  0.6873 -2.3720
  223MOL0     H30091   9.926   7.340   1.557 -2.1159 -2.7628 -0.3559
  223MOL0     H30092   9.765   7.216   1.635 -2.3810 -1.2205 -0.7162
  223MOL0     H30093   9.500   7.089   1.815 -1.0327  2.3815 -0.1253
  223MOL0     H30094   9.661   7.120   1.778  0.7742 -1.6262 -0.6666
  223MOL0     H30095   9.592   7.147   1.530 -1.1282 -0.7668 -1.0645
  223MOL0     H30096   9.429   7.121   1.578 -0.4717  0.8858 -0.5413
  223MOL0     H30097   9.508   6.938   1.490 -3.1037  0.4050  0.8200
  223MOL0     H30098   9.493   6.902   1.673 -1.2021  1.3006  0.0772
  223MOL0     H30099   9.772   6.950   1.543  0.3320  1.4261 -0.0440
  223MOL0     H30100   9.726   6.903   1.709  0.9406 -2.4805 -0.8831
  223MOL0     H30101   9.711   6.523   1.533 -2.3738  0.1580  0.2376
  223MOL0     H30102   9.485   7.520   1.706  0.4689 -1.7133  0.4251
  223MOL0     H30103   9.539   7.735   1.644 -0.2310  1.1939 -0.8358
  223MOL0     H30104   9.694   7.793   1.718  2.5417  1.4892 -1.5558
  223MOL0     H30105   9.677   7.778   1.540 -1.5908  1.1440  0.1436
  224MOL0     O30106   6.477   7.277  10.278  0.4687 -0.4741  0.4252
  224MOL0     C30107   6.414   7.284  10.174 -0.1497 -0.5307  0.8170
  224MOL0     O30108   6.476   7.307  10.048  0.7259  0.2956  0.4862
  224MOL0     C30109   6.613   7.324  10.028  0.2822 -0.2812  0.0217
  224MOL0     C30110   6.705   7.387  10.118 -0.7730 -1.0073 -0.0059
  224MOL0     C30111   6.829   7.409  10.074 -0.6505 -0.2099 -0.6782
  224MOL0     C30112   6.879   7.357   9.959 -0.5002  0.9786  0.3998
  224MOL0     O30113   7.014   7.381   9.923  0.7439  0.4451 -0.1597
  224MOL0     C30114   7.056   7.520   9.945 -0.0783  0.3392 -0.1105
  224MOL0     C30115   7.169   7.552   9.848 -0.3245  0.0662  0.8142
  224MOL0     C30116   7.122   7.513   9.713  0.5332 -0.6306  0.5585
  224MOL0     C30117   7.232   7.548   9.616  0.2616 -0.9152  0.1166
  224MOL0     C30118   7.193   7.500   9.476  0.1212 -0.0343  0.2761
  224MOL0     C30119   7.209   7.346   9.454  0.2370 -0.1939 -0.0084
  224MOL0     C30120   7.205   7.324   9.301 -0.6927  0.8241  0.1879
  224MOL0     C30121   7.071   7.351   9.237 -0.0696 -0.1600  0.3046
  224MOL0     N30122   7.080   7.332   9.090 -0.4115  0.3213 -0.7137
  224MOL0     C30123   7.127   7.218   9.033  0.4733  0.4194 -0.2532
  224MOL0     C30124   7.097   7.225   8.899 -0.7874 -0.0425  0.3019
  224MOL0     C30125   7.127   7.117   8.794 -1.0484  0.1325 -0.0647
  224MOL0     C30126   6.983   7.042   8.781 -0.4664 -0.2546  0.1872
  224MOL0     C30127   6.969   6.916   8.689  0.2598  0.4520  0.7302
  224MOL0     C30128   7.040   6.928   8.557 -0.0373 -0.2597  0.9914
  224MOL0     O30129   7.040   6.809   8.483  0.0797 -0.1754  0.0001
  224MOL0     C30130   7.117   6.781   8.374  0.2306  0.6707 -0.7293
  224MOL0     C30131   7.214   6.867   8.311 -0.1887 -0.5484 -0.6659
  224MOL0     C30132   7.275   6.830   8.197  0.3112  0.5042  0.2419
  224MOL0     C30133   7.231   6.714   8.129 -0.3616 -0.3015 -0.7267
  224MOL0     C30134   7.290   6.655   7.998  0.1776 -0.0908 -0.2217
  224MOL0     O30135   7.327   6.747   7.906 -0.8985  0.0035 -0.6976
  224MOL0     C30136   7.390   6.696   7.795  0.6105 -0.8215  0.0560
  224MOL0     C30137   7.359   6.761   7.673  0.3186  0.6473  0.0394
  224MOL0     C30138   7.425   6.725   7.561  0.0902  0.7708  0.2060
  224MOL0     C30139   7.508   6.615   7.554  0.4889  1.0653 -0.9021
  224MOL0     O30140   7.569   6.593   7.437 -0.2460  0.4660  0.4814
  224MOL0     C30141   7.690   6.512   7.426  0.0638  0.0465 -0.6578
  224MOL0     C30142   7.708   6.499   7.271  0.3262  0.4780 -0.3703
  224MOL0     C30143   7.795   6.378   7.243 -0.4450 -0.0831 -0.6231
  224MOL0     C30144   7.825   6.372   7.091 -0.1811 -0.5545  0.0651
  224MOL0     C30145   7.910   6.253   7.072 -1.1239  0.2401  0.6430
  224MOL0     C30146   8.056   6.270   7.117  0.1352 -0.6034  0.0951
  224MOL0     C30147   8.149   6.159   7.078 -0.5878 -0.5881 -0.0795
  224MOL0     C30148   8.270   6.156   7.169  0.3681 -0.0292 -0.2425
  224MOL0    Cl30149   8.379   6.048   7.101 -0.2477 -0.4375 -0.2614
  224MOL0     C30150   7.530   6.535   7.669  1.0217 -0.0797  1.1055
  224MOL0     C30151   7.479   6.583   7.789 -0.4779 -0.3442  0.2517
  224MOL0     O30152   7.274   6.535   7.975 -0.0196 -0.0866  0.1236
  224MOL0     C30153   7.135   6.630   8.190  0.3969 -0.0593  0.1232
  224MOL0     C30154   7.081   6.660   8.309  0.5515  0.8083 -0.6929
  224MOL0     N30155   7.046   7.351   8.882  0.1173  0.4740  0.2415
  224MOL0     N30156   7.032   7.417   8.996 -0.6807  0.0655 -0.2311
  224MOL0     C30157   6.795   7.293   9.870 -0.4700 -0.4852  0.0336
  224MOL0     C30158   6.662   7.278   9.905  0.1578  0.2071 -0.1029
  224MOL0     C30159   6.268   7.257  10.181 -0.1721  0.5907 -0.5931
  224MOL0     C30160   6.196   7.267  10.058  0.1501 -1.1315 -0.0793
  224MOL0     C30161   6.058   7.248  10.049 -0.2409 -0.4619  0.8811
  224MOL0     C30162   5.993   7.212  10.166 -0.7329 -0.3106  0.7052
  224MOL0     O30163   5.856   7.212  10.171  0.1023  0.1502  0.6276
  224MOL0     C30164   5.776   7.255  10.053  0.1797 -0.6935 -0.3862
  224MOL0     C30165   5.639   7.309  10.104 -0.1352 -1.1616  0.1904
  224MOL0     C30166   5.555   7.199  10.160 -0.9336  0.2779 -0.2883
  224MOL0     C30167   5.419   7.243  10.212 -0.1506  0.3431  0.4404
  224MOL0     C30168   5.325   7.138  10.181 -0.2254  1.0955 -0.0516
  224MOL0     C30169   5.241   7.054  10.163 -0.0581 -1.3006  0.7151
  224MOL0     C30170   6.063   7.195  10.283 -0.4784 -0.6167 -0.0401
  224MOL0     C30171   6.200   7.186  10.288  0.3671 -0.5843  0.2696
  224MOL0     C30172   6.252   7.163  10.424 -0.3210  0.3452 -0.0799
  224MOL0     H30173   6.682   7.412  10.221 -2.2458  2.5448 -1.0533
  224MOL0     H30174   6.892   7.443  10.155 -0.6132 -0.0967 -0.7551
  224MOL0     H30175   6.969   7.582   9.922  1.0335  3.7102  3.7298
  224MOL0     H30176   7.077   7.538  10.051 -2.6226  3.0425  0.0682
  224MOL0     H30177   7.265   7.512   9.882 -0.9321  0.5851  3.4016
  224MOL0     H30178   7.180   7.661   9.842 -1.2567  0.1020 -0.6289
  224MOL0     H30179   7.023   7.556   9.696  2.8184  5.4671 -0.0777
  224MOL0     H30180   7.120   7.404   9.704 -1.2734 -0.6707  1.1773
  224MOL0     H30181   7.239   7.657   9.626 -1.4587 -0.6938 -0.6462
  224MOL0     H30182   7.329   7.506   9.645  0.8091  0.7503  0.8235
  224MOL0     H30183   7.104   7.559   9.451  1.9211  1.9211 -2.0105
  224MOL0     H30184   7.272   7.545   9.415 -0.7272  3.9195  1.7555
  224MOL0     H30185   7.299   7.307   9.501 -0.8621 -1.3351  1.2310
  224MOL0     H30186   7.124   7.295   9.500  0.0936  0.3487  0.3393
  224MOL0     H30187   7.226   7.219   9.278 -3.3575  0.0287  1.1248
  224MOL0     H30188   7.286   7.382   9.254  0.2572 -1.7370 -1.5183
  224MOL0     H30189   6.995   7.285   9.279  0.5390  0.3202  2.2458
  224MOL0     H30190   7.033   7.453   9.253 -2.0665 -1.1581  2.5573
  224MOL0     H30191   7.157   7.127   9.084 -0.9600  0.4182  0.6387
  224MOL0     H30192   7.166   7.161   8.702 -1.8389  1.2655  0.1112
  224MOL0     H30193   7.202   7.051   8.838 -0.5844  1.2986  0.9787
  224MOL0     H30194   6.961   7.008   8.883  3.6897 -0.8466  1.0667
  224MOL0     H30195   6.904   7.115   8.758 -0.9549 -0.6992  0.4205
  224MOL0     H30196   6.867   6.885   8.668  0.2985  1.2837 -0.8292
  224MOL0     H30197   7.016   6.827   8.731  3.6470  0.1697 -3.0101
  224MOL0     H30198   7.141   6.967   8.573  0.1048  0.7567 -1.7936
  224MOL0     H30199   6.999   7.010   8.497  2.4430  0.3866  0.0235
  224MOL0     H30200   7.243   6.955   8.368  0.6701 -1.3946  0.2452
  224MOL0     H30201   7.348   6.897   8.154 -1.1038  1.4300 -0.7912
  224MOL0     H30202   7.293   6.846   7.662  1.2073  0.9983 -4.4035
  224MOL0     H30203   7.423   6.785   7.470 -1.2418 -0.0269 -0.3312
  224MOL0     H30204   7.773   6.564   7.475 -1.8720  1.3682  1.4043
  224MOL0     H30205   7.693   6.407   7.455  1.5275  0.2658  0.1054
  224MOL0     H30206   7.611   6.479   7.225 -0.0654 -1.0083  0.9934
  224MOL0     H30207   7.753   6.594   7.241 -1.0590  0.5656 -2.3274
  224MOL0     H30208   7.877   6.382   7.315 -1.4575  1.7266  0.5078
  224MOL0     H30209   7.738   6.288   7.268  1.1480 -2.1241 -3.6821
  224MOL0     H30210   7.885   6.458   7.062  0.8163 -1.3328 -0.2061
  224MOL0     H30211   7.741   6.384   7.022  0.5370  2.8288 -0.4191
  224MOL0     H30212   7.916   6.235   6.965  0.4291  2.3128  0.3326
  224MOL0     H30213   7.873   6.159   7.116 -0.9703  0.2711  0.8427
  224MOL0     H30214   8.105   6.349   7.060  1.3199 -0.0222  1.8311
  224MOL0     H30215   8.055   6.286   7.225 -0.8321  0.7271 -0.0959
  224MOL0     H30216   8.172   6.153   6.972  1.4429  2.6208  0.0425
  224MOL0     H30217   8.088   6.069   7.091  0.1964 -0.8006  2.8793
  224MOL0     H30218   8.309   6.258   7.181  0.8703 -0.1266 -0.9830
  224MOL0     H30219   8.244   6.123   7.270  1.0930  0.1556  0.0098
  224MOL0     H30220   7.584   6.442   7.661  1.9112  0.3276  2.1853
  224MOL0     H30221   7.502   6.528   7.880  0.7856 -2.2611 -1.1414
  224MOL0     H30222   7.108   6.536   8.144 -1.8758  0.4582  0.2910
  224MOL0     H30223   7.000   6.597   8.346  1.5527 -2.0658 -2.9556
  224MOL0     H30224   6.836   7.261   9.775  0.5154 -2.5842  1.0859
  224MOL0     H30225   6.596   7.223   9.838  2.1046  0.9268 -2.7841
  224MOL0     H30226   6.245   7.309   9.971  0.8117  0.9155  1.2129
  224MOL0     H30227   6.016   7.240   9.950  1.2349 -2.5473  0.3670
  224MOL0     H30228   5.755   7.167   9.992  2.7261 -1.1346 -0.7384
  224MOL0     H30229   5.829   7.324   9.986 -0.1530 -0.1344 -0.0797
  224MOL0     H30230   5.591   7.360  10.019 -1.9204  0.0626  1.8489
  224MOL0     H30231   5.655   7.395  10.170 -2.6010 -0.4327 -0.0336
  224MOL0     H30232   5.604   7.167  10.253  1.3521 -0.6116 -1.7164
  224MOL0     H30233   5.547   7.116  10.090  0.2473  0.6144 -0.8446
  224MOL0     H30234   5.423   7.276  10.316 -0.6437 -2.0343  1.2622
  224MOL0     H30235   5.366   7.327  10.164  0.9725  2.3654  2.5450
  224MOL0     H30236   5.158   6.991  10.139 -2.0156  2.2749 -3.2069
  224MOL0     H30237   6.007   7.172  10.373 -1.6855 -0.4102 -0.7155
  224MOL0     H30238   6.249   7.255  10.483 -3.0773 -0.9166  2.0014
  224MOL0     H30239   6.189   7.091  10.477  0.5516 -1.3540 -1.2725
  224MOL0     H30240   6.356   7.130  10.433  0.0575  1.9312  2.6053
  225MOL0     O30241   1.317   0.872   7.328  0.6774  0.3929  0.2486
  225MOL0     C30242   1.345   0.972   7.262 -0.4479 -0.3717  0.7601
  225MOL0     O30243   1.472   1.025   7.257 -0.5450  0.6698 -0.0953
  225MOL0     C30244   1.577   0.930   7.276  0.3712  0.2674 -0.0413
  225MOL0     C30245   1.590   0.803   7.223  0.3826 -0.0354  0.3879
  225MOL0     C30246   1.709   0.728   7.235  0.4828 -0.0456  1.0584
  225MOL0     C30247   1.821   0.770   7.315  1.0489  0.5940  0.4157
  225MOL0     O30248   1.929   0.681   7.322 -0.2174 -0.2634  0.3666
  225MOL0     C30249   2.048   0.720   7.409  0.2839 -1.0268  0.9541
  225MOL0     C30250   2.157   0.611   7.403 -0.3038  0.0577 -0.4837
  225MOL0     C30251   2.120   0.481   7.463  0.0679 -0.3710  0.1327
  225MOL0     C30252   2.227   0.378   7.459 -0.1301  0.1141 -0.0051
  225MOL0     C30253   2.195   0.271   7.556  0.4141 -0.4896  0.9652
  225MOL0     C30254   2.309   0.167   7.572  0.4296  0.2400  0.6211
  225MOL0     C30255   2.253   0.059   7.672  0.2892  0.6734 -0.5837
  225MOL0     C30256   2.369  -0.025   7.719  0.1207  0.4140 -0.0498
  225MOL0     N30257   2.332  -0.167   7.747 -1.0293  0.5500  0.4971
  225MOL0     C30258   2.346  -0.231   7.869  0.0894  0.2204 -0.2517
  225MOL0     C30259   2.327  -0.358   7.823  0.1704 -0.7516 -0.3997
  225MOL0     C30260   2.330  -0.475   7.916  1.6077  0.8066  0.1114
  225MOL0     C30261   2.454  -0.557   7.902  0.9597 -1.1058 -0.0208
  225MOL0     C30262   2.568  -0.475   7.971  0.4413 -1.0017 -0.3934
  225MOL0     C30263   2.707  -0.552   7.953  0.3317  0.3632  0.5594
  225MOL0     O30264   2.721  -0.672   8.038  0.0719  0.9535 -0.2076
  225MOL0     C30265   2.845  -0.734   8.028 -0.2971  0.0122  0.7318
  225MOL0     C30266   2.893  -0.812   8.128  0.4589 -0.2073 -0.6209
  225MOL0     C30267   3.019  -0.865   8.117  0.8169 -0.1095 -0.4883
  225MOL0     C30268   3.105  -0.848   8.011 -0.6132  0.4662 -0.3176
  225MOL0     C30269   3.231  -0.913   7.999  0.0437 -0.6499 -0.4289
  225MOL0     O30270   3.285  -0.922   7.871  0.4483  1.0159  0.2207
  225MOL0     C30271   3.419  -0.922   7.850  0.2277 -0.4311 -0.5048
  225MOL0     C30272   3.520  -0.877   7.934  0.5433  0.0884 -0.5145
  225MOL0     C30273   3.651  -0.906   7.899 -0.3094 -0.4480  0.2641
  225MOL0     C30274   3.686  -0.967   7.777 -0.2127 -0.5189 -0.3741
  225MOL0     O30275   3.825  -0.973   7.760  0.3852  0.2102 -0.1856
  225MOL0     C30276   3.867  -1.037   7.645  0.5299 -0.6286  0.0718
  225MOL0     C30277   4.017  -1.039   7.656 -0.2501 -0.4839  0.0238
  225MOL0     C30278   4.071  -0.887   7.651  0.7677 -0.5893 -0.0778
  225MOL0     C30279   4.227  -0.887   7.655 -0.2878  0.5794 -0.0653
  225MOL0     C30280   4.299  -0.749   7.626 -0.7026  0.8281 -0.7119
  225MOL0     C30281   4.340  -0.733   7.466  0.3145 -0.8247  0.1880
  225MOL0     C30282   4.418  -0.602   7.436 -0.3501  0.5889  0.2758
  225MOL0     C30283   4.401  -0.549   7.294  0.1575 -0.3703  0.1083
  225MOL0    Cl30284   4.491  -0.397   7.269 -0.0387 -0.0210  0.6296
  225MOL0     C30285   3.584  -0.995   7.689 -0.1160 -1.2136 -0.0845
  225MOL0     C30286   3.453  -0.975   7.724  0.2984 -0.3006 -0.7987
  225MOL0     O30287   3.275  -0.966   8.102 -0.6273  0.0034  0.4210
  225MOL0     C30288   3.060  -0.774   7.904 -0.0518  0.4120 -0.9152
  225MOL0     C30289   2.932  -0.708   7.918 -0.2128 -0.0034  1.1822
  225MOL0     N30290   2.294  -0.368   7.695 -0.8371  0.6276  0.0941
  225MOL0     N30291   2.308  -0.250   7.646 -0.3436 -0.6886  0.3331
  225MOL0     C30292   1.805   0.893   7.374 -0.2579  0.3920  0.5401
  225MOL0     C30293   1.687   0.970   7.362  0.5234 -0.3867 -0.2004
  225MOL0     C30294   1.238   1.041   7.186 -0.4313 -0.3639  0.2315
  225MOL0     C30295   1.279   1.163   7.120  0.1387  0.2982 -0.7321
  225MOL0     C30296   1.187   1.242   7.046  0.3210  0.2373 -0.9519
  225MOL0     C30297   1.051   1.205   7.040  0.4796  0.5371 -0.4564
  225MOL0     O30298   0.946   1.276   6.981  0.0674  0.1803  0.0641
  225MOL0     C30299   0.963   1.409   6.928  0.6884  0.0766  0.2249
  225MOL0     C30300   0.856   1.439   6.816 -0.3237 -0.6256  0.4912
  225MOL0     C30301   0.714   1.438   6.865 -0.2535 -1.1747 -1.4589
  225MOL0     C30302   0.605   1.415   6.762  0.0646 -0.0396 -0.4638
  225MOL0     C30303   0.476   1.419   6.824  0.2806 -1.0703 -0.4207
  225MOL0     C30304   0.356   1.429   6.863  0.0905  0.5043 -0.4957
  225MOL0     C30305   1.016   1.089   7.113 -0.0958 -0.3346 -0.2857
  225MOL0     C30306   1.101   1.002   7.180 -0.2461 -0.8322  1.0962
  225MOL0     C30307   1.040   0.885   7.247  0.5717  0.2829 -0.9718
  225MOL0     H30308   1.508   0.772   7.159 -0.5234 -0.1152  1.5484
  225MOL0     H30309   1.712   0.632   7.185 -1.5805  0.7876 -0.8398
  225MOL0     H30310   2.085   0.821   7.388 -2.6756 -0.4169 -2.1119
  225MOL0     H30311   2.001   0.728   7.508 -0.9808  1.3203  0.2237
  225MOL0     H30312   2.241   0.644   7.463 -0.1721 -2.2299  0.7119
  225MOL0     H30313   2.195   0.592   7.302 -0.2041 -0.2592 -0.3876
  225MOL0     H30314   2.033   0.452   7.403 -1.6430 -0.4518  2.4720
  225MOL0     H30315   2.087   0.500   7.566  0.8591 -1.3045  0.5698
  225MOL0     H30316   2.239   0.343   7.357  0.8849  1.2047 -0.2802
  225MOL0     H30317   2.321   0.429   7.482 -0.1069  0.6673 -1.2652
  225MOL0     H30318   2.182   0.320   7.653  0.7230  1.1927  0.2023
  225MOL0     H30319   2.102   0.222   7.526 -1.1680  3.1574 -0.7436
  225MOL0     H30320   2.344   0.126   7.476  0.2955 -1.4059  1.2386
  225MOL0     H30321   2.395   0.219   7.617 -0.5214  1.6443  0.8588
  225MOL0     H30322   2.189  -0.005   7.611 -0.9460  0.5064  0.8051
  225MOL0     H30323   2.196   0.089   7.761 -0.4717  1.8038 -1.4176
  225MOL0     H30324   2.443  -0.017   7.639  0.1215  1.0917  0.0075
  225MOL0     H30325   2.417   0.014   7.809  0.1271  2.5469 -0.9138
  225MOL0     H30326   2.368  -0.187   7.966 -2.1203 -0.2312  0.5275
  225MOL0     H30327   2.315  -0.456   8.022  4.4068  1.2958  0.4753
  225MOL0     H30328   2.250  -0.543   7.884  0.9092  0.1398  3.0174
  225MOL0     H30329   2.444  -0.655   7.949 -1.5485 -0.8190  0.1559
  225MOL0     H30330   2.474  -0.574   7.796  2.8786  1.6614 -0.2210
  225MOL0     H30331   2.554  -0.456   8.078 -0.0740  0.1189 -0.6455
  225MOL0     H30332   2.572  -0.379   7.918  2.6767  0.6678  2.4970
  225MOL0     H30333   2.792  -0.482   7.960  1.3194 -0.6140 -1.0000
  225MOL0     H30334   2.712  -0.567   7.844  0.4436 -0.3426  0.6585
  225MOL0     H30335   2.826  -0.820   8.213  0.6120  0.4790 -0.4237
  225MOL0     H30336   3.052  -0.918   8.206 -1.3555 -1.4418 -0.3797
  225MOL0     H30337   3.496  -0.831   8.030  0.2255 -1.2557  0.0740
  225MOL0     H30338   3.732  -0.884   7.967 -2.4555  2.3153  2.1813
  225MOL0     H30339   3.841  -1.143   7.642  0.5039 -0.6868  1.6091
  225MOL0     H30340   3.845  -0.981   7.553  1.7212 -0.8324 -0.3533
  225MOL0     H30341   4.047  -1.076   7.755  0.8780  1.8260  0.6110
  225MOL0     H30342   4.058  -1.096   7.572 -2.7788  1.7967 -2.9713
  225MOL0     H30343   4.032  -0.836   7.563 -4.2836 -1.2006  1.5024
  225MOL0     H30344   4.045  -0.827   7.739 -0.3492 -0.0647 -0.7436
  225MOL0     H30345   4.275  -0.961   7.590 -0.0234  1.3102 -0.7113
  225MOL0     H30346   4.250  -0.909   7.759  1.9140  3.3503  0.1386
  225MOL0     H30347   4.390  -0.733   7.685 -0.0900  0.3295 -1.4971
  225MOL0     H30348   4.230  -0.667   7.650 -0.0303  1.1712  0.0686
  225MOL0     H30349   4.404  -0.818   7.442  0.1877 -1.2397  1.2726
  225MOL0     H30350   4.244  -0.735   7.412  0.2937 -0.1066  0.1899
  225MOL0     H30351   4.522  -0.623   7.461 -0.4669  2.0710  2.2233
  225MOL0     H30352   4.389  -0.522   7.504  0.6201  2.2102 -1.1401
  225MOL0     H30353   4.445  -0.619   7.222  1.1925  0.9643 -0.6105
  225MOL0     H30354   4.297  -0.532   7.263  1.1923  2.1867 -2.4660
  225MOL0     H30355   3.621  -1.019   7.590  3.4765  0.1107  0.7629
  225MOL0     H30356   3.377  -0.965   7.647  1.9196  2.0179 -2.2001
  225MOL0     H30357   3.110  -0.772   7.808  0.6012 -0.9168 -0.6220
  225MOL0     H30358   2.897  -0.673   7.821  3.9068 -2.0025 -1.3566
  225MOL0     H30359   1.887   0.930   7.434  0.3967 -0.0306 -0.0800
  225MOL0     H30360   1.677   1.069   7.407  0.9529  1.3374 -3.5965
  225MOL0     H30361   1.382   1.199   7.121  0.7458 -1.2450  2.1278
  225MOL0     H30362   1.212   1.338   7.002  0.4906  1.7117  2.1025
  225MOL0     H30363   1.061   1.402   6.879  0.6175 -1.0040  0.2306
  225MOL0     H30364   0.959   1.494   6.997  0.4835 -0.1059  0.4370
  225MOL0     H30365   0.868   1.361   6.741  1.0035 -1.1496  1.2273
  225MOL0     H30366   0.876   1.537   6.771  0.5909 -0.5503  1.0486
  225MOL0     H30367   0.689   1.532   6.914  1.2643 -0.8320 -1.3042
  225MOL0     H30368   0.689   1.358   6.935 -0.0994  0.4575  0.5673
  225MOL0     H30369   0.614   1.499   6.693 -1.3524  1.8213  1.4585
  225MOL0     H30370   0.617   1.323   6.705  2.6289 -0.3603  0.4248
  225MOL0     H30371   0.252   1.439   6.886  0.6304  4.3948  1.0974
  225MOL0     H30372   0.914   1.054   7.100 -0.6628 -0.6365  3.7459
  225MOL0     H30373   1.107   0.800   7.228  0.9914  0.3216  0.2332
  225MOL0     H30374   1.034   0.899   7.355 -0.5513 -0.2933 -0.9480
  225MOL0     H30375   0.938   0.855   7.221  0.6885 -3.6879  2.2413
  226MOL0     O30376   3.585   1.120   9.616 -0.0570  0.1730 -0.5281
  226MOL0     C30377   3.592   1.031   9.702 -0.9966 -0.8351  1.0773
  226MOL0     O30378   3.482   0.961   9.763 -0.6921 -0.7222 -0.0891
  226MOL0     C30379   3.361   0.989   9.702  0.0892  0.0100  1.2829
  226MOL0     C30380   3.282   1.094   9.747  0.4488 -0.5295 -0.9979
  226MOL0     C30381   3.166   1.142   9.676 -0.5805  0.2374 -0.1408
  226MOL0     C30382   3.128   1.072   9.566 -0.5280  0.9072  0.9772
  226MOL0     O30383   3.018   1.119   9.501  0.0079  0.7045  0.1609
  226MOL0     C30384   3.050   1.192   9.376 -0.4255  0.8669 -0.2434
  226MOL0     C30385   2.932   1.198   9.282  0.3616  0.5441  0.4344
  226MOL0     C30386   2.957   1.262   9.141 -1.1722  0.6537  0.0108
  226MOL0     C30387   2.986   1.411   9.156 -0.1501 -0.2026 -0.3978
  226MOL0     C30388   3.021   1.470   9.028 -0.6523  0.6858 -0.0262
  226MOL0     C30389   3.033   1.623   9.041 -0.7722  0.3338  0.6877
  226MOL0     C30390   3.179   1.682   9.065 -0.5656  0.3199  0.6609
  226MOL0     C30391   3.181   1.831   9.092  0.1948  0.7207  0.0597
  226MOL0     N30392   3.311   1.891   9.115  0.2021  0.1988  0.1637
  226MOL0     C30393   3.329   2.025   9.106  0.5639  0.2484 -0.5745
  226MOL0     C30394   3.446   2.055   9.156 -1.6336 -0.7009  0.2663
  226MOL0     C30395   3.507   2.195   9.141 -1.1648 -0.1965  0.2415
  226MOL0     C30396   3.657   2.194   9.176 -0.7454  0.1323 -0.3021
  226MOL0     C30397   3.709   2.332   9.185  0.4296  0.3164 -0.2882
  226MOL0     C30398   3.825   2.340   9.282  0.5918 -0.4440 -0.2015
  226MOL0     O30399   3.933   2.250   9.238 -0.0785 -0.0757  0.3128
  226MOL0     C30400   3.997   2.178   9.328 -0.2727 -0.1455  0.8352
  226MOL0     C30401   4.018   2.046   9.297 -0.4248  1.0713 -0.9572
  226MOL0     C30402   4.083   1.958   9.390 -0.2282 -0.5901  0.2331
  226MOL0     C30403   4.126   2.007   9.517  0.4560 -0.1629  0.9349
  226MOL0     C30404   4.198   1.926   9.616  0.0269  0.1666 -0.2206
  226MOL0     O30405   4.274   1.989   9.710 -0.8407 -0.4598 -0.0290
  226MOL0     C30406   4.367   1.920   9.776 -0.1421  0.0637 -0.7433
  226MOL0     C30407   4.481   1.857   9.718 -0.4325  0.7755 -0.4236
  226MOL0     C30408   4.570   1.789   9.802  1.1281  1.0211  0.0621
  226MOL0     C30409   4.546   1.778   9.945  0.5173  0.6622 -0.5880
  226MOL0     O30410   4.611   1.701  10.045  0.3929  0.9925 -0.3709
  226MOL0     C30411   4.747   1.665  10.015 -0.1692  0.2319 -0.0395
  226MOL0     C30412   4.783   1.529  10.080  0.2027  0.0331 -0.4852
  226MOL0     C30413   4.714   1.503  10.213 -0.1577 -0.4684 -0.0154
  226MOL0     C30414   4.750   1.357  10.262 -0.6878 -0.7002 -0.3835
  226MOL0     C30415   4.731   1.352  10.413 -0.4953 -0.4078 -0.9549
  226MOL0     C30416   4.791   1.218  10.479  0.0415  0.2671 -0.3456
  226MOL0     C30417   4.778   1.216  10.625  0.1294 -0.5048 -0.4200
  226MOL0     C30418   4.808   1.076  10.682  1.3958  0.3324  0.0015
  226MOL0    Cl30419   4.765   1.092  10.858 -0.1765  0.5042 -0.1725
  226MOL0     C30420   4.433   1.850   9.997  0.7558  0.5501 -0.6687
  226MOL0     C30421   4.351   1.927   9.916 -0.4517  0.4164  0.8067
  226MOL0     O30422   4.171   1.802   9.615  0.6374 -0.2712 -0.2320
  226MOL0     C30423   4.092   2.145   9.553  0.6399 -0.1581 -0.5275
  226MOL0     C30424   4.027   2.220   9.459  0.1804  0.3081  1.2512
  226MOL0     N30425   3.500   1.945   9.214 -0.0056 -0.2108  0.8498
  226MOL0     N30426   3.418   1.850   9.191  0.1649  0.1739 -1.5829
  226MOL0     C30427   3.195   0.959   9.524 -0.2872 -0.2743  0.1240
  226MOL0     C30428   3.316   0.919   9.592 -0.5749  0.0409  0.1602
  226MOL0     C30429   3.727   0.974   9.728  0.1904  0.1057 -0.8603
  226MOL0     C30430   3.736   0.835   9.724  0.8141  0.2941 -0.3445
  226MOL0     C30431   3.859   0.780   9.743  0.8153  0.6789 -1.2017
  226MOL0     C30432   3.975   0.857   9.777 -0.0822 -0.3966  0.4852
  226MOL0     O30433   4.104   0.808   9.804  0.6166  0.3831 -0.4759
  226MOL0     C30434   4.118   0.686   9.869  0.5495 -0.5341 -0.2622
  226MOL0     C30435   4.245   0.676   9.949  0.1593 -0.3438  0.0230
  226MOL0     C30436   4.226   0.761  10.081 -0.6217  0.5946 -0.5170
  226MOL0     C30437   4.361   0.793  10.146 -0.3736  0.3804 -0.0360
  226MOL0     C30438   4.434   0.673  10.190 -0.2316  0.0722  0.0990
  226MOL0     C30439   4.505   0.573  10.215  0.1856 -0.1597  0.3682
  226MOL0     C30440   3.965   0.992   9.782  1.2358  0.0823  0.1955
  226MOL0     C30441   3.837   1.050   9.765 -0.5714 -0.1190 -0.8543
  226MOL0     C30442   3.828   1.204   9.767 -0.8128 -0.7134  0.5308
  226MOL0     H30443   3.327   1.159   9.822 -2.6517 -1.9100  2.3431
  226MOL0     H30444   3.123   1.237   9.704  0.6672  0.4113  1.2903
  226MOL0     H30445   3.074   1.290   9.419  1.6083  0.0072  0.7533
  226MOL0     H30446   3.134   1.153   9.319  0.8028  3.8079 -0.6468
  226MOL0     H30447   2.842   1.230   9.336  1.0524  1.0102  1.3304
  226MOL0     H30448   2.920   1.095   9.247  0.2866  1.8554 -3.9826
  226MOL0     H30449   2.873   1.233   9.078 -0.1253 -2.0338 -0.3046
  226MOL0     H30450   3.039   1.213   9.088 -2.0659 -0.2723 -0.5417
  226MOL0     H30451   2.886   1.438   9.191  0.7166 -0.8473  3.0025
  226MOL0     H30452   3.062   1.437   9.231 -2.3764  3.1192  0.9097
  226MOL0     H30453   3.123   1.439   9.003 -0.4898  1.6065 -0.5867
  226MOL0     H30454   2.961   1.448   8.939  3.0445 -2.8207 -1.9757
  226MOL0     H30455   3.002   1.668   8.947  1.4130  0.0458 -0.2279
  226MOL0     H30456   2.972   1.645   9.130 -1.2182  1.1992  0.1805
  226MOL0     H30457   3.252   1.680   8.983  1.9833 -3.1731  2.7573
  226MOL0     H30458   3.224   1.626   9.147 -3.1101 -1.2003  1.1111
  226MOL0     H30459   3.139   1.897   9.015 -2.1186 -0.0013  0.6205
  226MOL0     H30460   3.120   1.847   9.181 -2.2822  3.3030 -1.9211
  226MOL0     H30461   3.256   2.094   9.066 -1.6899 -1.6825 -0.0263
  226MOL0     H30462   3.491   2.234   9.040  0.2177  0.0579  0.1003
  226MOL0     H30463   3.449   2.261   9.207  0.7945  1.6760  0.1865
  226MOL0     H30464   3.680   2.150   9.273  2.5571 -0.1141 -1.1010
  226MOL0     H30465   3.711   2.144   9.095  0.2071 -0.1984  0.5249
  226MOL0     H30466   3.630   2.401   9.213  1.0632 -0.4342  3.9595
  226MOL0     H30467   3.751   2.356   9.086  3.0011 -1.0093  0.4001
  226MOL0     H30468   3.793   2.324   9.385  0.7982  2.2154  0.3404
  226MOL0     H30469   3.877   2.435   9.269 -2.1003  0.7602 -3.7156
  226MOL0     H30470   3.988   1.998   9.205  0.3979 -1.2071 -0.1106
  226MOL0     H30471   4.117   1.865   9.345  2.5267  0.8237 -0.8346
  226MOL0     H30472   4.488   1.853   9.610  1.1757 -0.3605 -0.3073
  226MOL0     H30473   4.652   1.735   9.756  0.2183  0.9816 -1.5493
  226MOL0     H30474   4.777   1.653   9.910  1.7151  0.5061  0.4297
  226MOL0     H30475   4.815   1.739  10.059  2.3063 -1.0096 -1.5610
  226MOL0     H30476   4.775   1.449  10.005  2.8948  0.1720 -1.0090
  226MOL0     H30477   4.888   1.532  10.110 -0.0547  0.6308  0.3982
  226MOL0     H30478   4.737   1.586  10.280 -2.5956 -1.3511  2.0548
  226MOL0     H30479   4.606   1.510  10.204 -0.1020  2.0934  0.5576
  226MOL0     H30480   4.857   1.351  10.239 -0.5247  1.2289 -0.2646
  226MOL0     H30481   4.699   1.278  10.207 -0.3624 -0.7356 -0.6393
  226MOL0     H30482   4.626   1.368  10.442  0.1467 -2.0032  2.8364
  226MOL0     H30483   4.790   1.434  10.455 -2.5618  0.2731  0.8542
  226MOL0     H30484   4.745   1.129  10.436 -0.7527  1.2254 -1.5382
  226MOL0     H30485   4.898   1.209  10.460 -0.1234  1.0407 -1.7481
  226MOL0     H30486   4.682   1.248  10.668 -1.3732 -0.1986 -3.6662
  226MOL0     H30487   4.850   1.284  10.671 -1.0919 -0.9605  2.3240
  226MOL0     H30488   4.750   0.993  10.639  0.4599  1.3174 -0.7064
  226MOL0     H30489   4.911   1.042  10.674  0.8274 -1.3231 -0.8259
  226MOL0     H30490   4.412   1.843  10.103  2.3764 -1.3024 -0.4272
  226MOL0     H30491   4.279   1.996   9.958 -0.8956  1.4792 -1.5471
  226MOL0     H30492   4.118   2.196   9.645  0.6950  1.0785 -1.2046
  226MOL0     H30493   4.005   2.321   9.494  0.5267  0.2368  1.6870
  226MOL0     H30494   3.166   0.896   9.441 -1.1835  0.4588 -0.1271
  226MOL0     H30495   3.365   0.831   9.552 -0.3880  0.3895 -0.3781
  226MOL0     H30496   3.648   0.776   9.702 -0.7179  0.4603  4.3316
  226MOL0     H30497   3.877   0.674   9.726 -1.9964  0.0627 -0.7495
  226MOL0     H30498   4.129   0.616   9.785 -3.5801  0.2421 -1.6630
  226MOL0     H30499   4.035   0.662   9.937  2.2874  1.1026  2.6438
  226MOL0     H30500   4.329   0.714   9.891 -0.3927 -0.4015 -0.8380
  226MOL0     H30501   4.263   0.572   9.978  2.6885 -0.2774 -1.0470
  226MOL0     H30502   4.162   0.720  10.160 -1.0749  2.5845  0.2087
  226MOL0     H30503   4.159   0.845  10.064 -1.4360 -0.1807 -1.2590
  226MOL0     H30504   4.427   0.840  10.072  2.3069 -0.6460  1.5862
  226MOL0     H30505   4.342   0.861  10.229 -2.3602  1.2234 -1.1080
  226MOL0     H30506   4.571   0.492  10.241 -1.2568 -0.8003  2.2871
  226MOL0     H30507   4.047   1.061   9.799  1.1869  0.7505 -2.0534
  226MOL0     H30508   3.767   1.245   9.848 -0.6069  1.5884 -0.4098
  226MOL0     H30509   3.930   1.243   9.780 -0.6297 -1.1652  0.4710
  226MOL0     H30510   3.789   1.223   9.666  2.1636 -0.6913 -0.7337
  227MOL0     O30511   5.675   9.787   5.618 -0.0598 -0.0780  0.4256
  227MOL0     C30512   5.627   9.896   5.646 -0.3490  0.4198 -0.0204
  227MOL0     O30513   5.664  10.009   5.592 -0.4326  0.1761  0.7868
  227MOL0     C30514   5.793  10.031   5.554  1.0802  0.2156 -0.0738
  227MOL0     C30515   5.865  10.115   5.628  0.6744  0.1339 -0.8912
  227MOL0     C30516   5.994  10.155   5.592  0.8112 -0.9438  0.1238
  227MOL0     C30517   6.055  10.097   5.470 -1.5608  0.1083 -0.0197
  227MOL0     O30518   6.186  10.111   5.430 -0.1167 -0.0102 -0.4290
  227MOL0     C30519   6.229  10.248   5.425  0.1561  0.5790  0.2926
  227MOL0     C30520   6.381  10.247   5.434  0.0029  0.8442  0.1597
  227MOL0     C30521   6.446  10.211   5.301  0.1340 -0.4249 -0.5294
  227MOL0     C30522   6.595  10.240   5.289 -1.0524 -0.1841  0.0829
  227MOL0     C30523   6.646  10.213   5.150 -0.5336  0.5022  0.3814
  227MOL0     C30524   6.772  10.290   5.093 -0.0273  0.9844 -0.0547
  227MOL0     C30525   6.900  10.270   5.175  0.5688 -0.4688 -0.0851
  227MOL0     C30526   7.019  10.353   5.120  0.3038  0.0258 -0.4702
  227MOL0     N30527   7.133  10.360   5.207  0.9780 -0.0103  0.4613
  227MOL0     C30528   7.217  10.253   5.225 -0.5510  0.4337 -0.2944
  227MOL0     C30529   7.307  10.290   5.324  0.3578  0.8692 -0.6017
  227MOL0     C30530   7.425  10.212   5.366 -0.0982 -0.1771 -0.2926
  227MOL0     C30531   7.551  10.290   5.358  0.6910  0.7577  0.4028
  227MOL0     C30532   7.572  10.383   5.474  0.4723 -0.0954  1.0539
  227MOL0     C30533   7.697  10.464   5.449 -0.2357 -0.0916  0.3200
  227MOL0     O30534   7.713  10.549   5.565 -0.4711  0.6161 -0.0532
  227MOL0     C30535   7.816  10.636   5.565  0.1368 -1.2721  1.1594
  227MOL0     C30536   7.939  10.616   5.497  0.1256 -0.1662  0.3398
  227MOL0     C30537   8.041  10.713   5.514 -0.3696  0.8065  0.0750
  227MOL0     C30538   8.039  10.818   5.601  0.1230  0.4615  0.8975
  227MOL0     C30539   8.162  10.886   5.651  0.3703  0.3414 -0.2758
  227MOL0     O30540   8.280  10.815   5.628  0.1824 -0.1401 -0.2735
  227MOL0     C30541   8.400  10.857   5.686 -0.3799 -0.3347  0.2284
  227MOL0     C30542   8.442  10.982   5.704  0.2631  0.1819 -0.5158
  227MOL0     C30543   8.566  11.002   5.772 -0.4558  0.6457 -0.5509
  227MOL0     C30544   8.653  10.896   5.796 -0.6452  0.2253  0.6333
  227MOL0     O30545   8.779  10.931   5.852 -0.1360  0.2076  0.1137
  227MOL0     C30546   8.863  10.822   5.897  0.2412  0.4509  0.6760
  227MOL0     C30547   8.978  10.892   5.958 -0.1292 -0.3577  0.4931
  227MOL0     C30548   8.960  10.920   6.100 -0.3499 -0.0476 -0.3052
  227MOL0     C30549   9.098  10.965   6.159  1.2331 -0.1783 -0.7777
  227MOL0     C30550   9.085  11.026   6.309 -0.9491  0.0476  1.4411
  227MOL0     C30551   9.011  10.939   6.417  0.1081 -0.4514  0.0047
  227MOL0     C30552   8.953  11.023   6.522 -0.1528 -1.0935  0.2456
  227MOL0     C30553   9.046  11.041   6.636  0.3335  0.1469  0.1095
  227MOL0    Cl30554   8.981  11.152   6.769 -0.2660 -0.3416  0.0756
  227MOL0     C30555   8.616  10.767   5.768 -0.1013  0.3312 -0.6999
  227MOL0     C30556   8.489  10.748   5.713  0.1677  0.4563 -0.3132
  227MOL0     O30557   8.152  10.996   5.710  1.0868  0.2733  0.5469
  227MOL0     C30558   7.914  10.847   5.653  0.0998  0.8468 -0.0374
  227MOL0     C30559   7.805  10.754   5.643 -0.5160  0.2571 -0.0315
  227MOL0     N30560   7.277  10.423   5.360  0.1359 -0.2836  0.7383
  227MOL0     N30561   7.171  10.463   5.286 -0.0618  0.1602 -0.7434
  227MOL0     C30562   5.974  10.007   5.406 -0.2125 -0.0715  0.1362
  227MOL0     C30563   5.848   9.968   5.443  0.0709  0.1239  0.0026
  227MOL0     C30564   5.498   9.903   5.726 -1.1000 -0.0799 -0.0185
  227MOL0     C30565   5.452  10.022   5.777 -0.1443 -0.7837  0.3135
  227MOL0     C30566   5.348  10.032   5.877 -0.1341  0.2140  0.4243
  227MOL0     C30567   5.287   9.912   5.911  0.1629 -0.2996 -0.2188
  227MOL0     O30568   5.176   9.917   5.996 -0.2676  0.4510  0.2170
  227MOL0     C30569   5.152  10.028   6.089 -0.6823  1.0451  0.0595
  227MOL0     C30570   5.040   9.989   6.183  1.1835  0.0761  0.1732
  227MOL0     C30571   4.913  10.048   6.147  0.6437  0.4748  0.9031
  227MOL0     C30572   4.803  10.050   6.262  0.8210  0.1022 -0.7712
  227MOL0     C30573   4.817  10.164   6.350  0.7475  0.0229 -0.3069
  227MOL0     C30574   4.829  10.254   6.424 -0.3486 -0.3331  0.5388
  227MOL0     C30575   5.311   9.792   5.851 -0.2511 -0.1191 -0.5987
  227MOL0     C30576   5.426   9.789   5.765 -0.2219  0.7547 -0.5400
  227MOL0     C30577   5.448   9.646   5.705  0.5876 -0.9513  1.2491
  227MOL0     H30578   5.831  10.159   5.721 -1.0020  0.2995 -1.5520
  227MOL0     H30579   6.042  10.224   5.661  0.1596  0.4848 -0.7952
  227MOL0     H30580   6.206  10.292   5.327 -0.0405 -0.9585 -0.3861
  227MOL0     H30581   6.195  10.312   5.506  1.7652  1.2628  0.4720
  227MOL0     H30582   6.422  10.185   5.514 -0.1626 -0.3289 -0.6457
  227MOL0     H30583   6.421  10.347   5.453 -0.8082  1.1053  0.5252
  227MOL0     H30584   6.406  10.272   5.219  1.1755  3.3346  1.4956
  227MOL0     H30585   6.426  10.105   5.284 -3.1051  0.0900 -0.5604
  227MOL0     H30586   6.607  10.344   5.322 -0.7511  0.2785 -1.3882
  227MOL0     H30587   6.662  10.189   5.358 -0.0488  0.7512 -0.1675
  227MOL0     H30588   6.664  10.106   5.140 -0.7769  0.6605 -2.5231
  227MOL0     H30589   6.567  10.240   5.079 -0.4815 -0.8125 -0.2061
  227MOL0     H30590   6.796  10.244   4.997 -0.4212  1.1315 -0.2264
  227MOL0     H30591   6.749  10.393   5.062  0.2158  0.1503 -3.2767
  227MOL0     H30592   6.936  10.167   5.175 -1.9036 -1.4131  0.1128
  227MOL0     H30593   6.884  10.306   5.277  2.9083  2.2939 -0.5646
  227MOL0     H30594   7.059  10.304   5.031 -2.9704 -0.8750 -1.5532
  227MOL0     H30595   6.984  10.455   5.101  2.9996  0.7548 -2.0526
  227MOL0     H30596   7.218  10.161   5.169  1.5171  1.6624 -2.4288
  227MOL0     H30597   7.406  10.183   5.470 -2.2764  1.0520 -0.2720
  227MOL0     H30598   7.429  10.122   5.303  2.0585  1.7075 -3.0745
  227MOL0     H30599   7.631  10.215   5.350 -0.4273 -0.2710 -3.5257
  227MOL0     H30600   7.549  10.351   5.267 -0.5702 -2.2541 -1.7852
  227MOL0     H30601   7.576  10.319   5.562 -1.7557 -3.6161 -1.1561
  227MOL0     H30602   7.487  10.450   5.487 -0.0915  0.3206 -3.1855
  227MOL0     H30603   7.691  10.523   5.357  2.3952 -2.7074 -1.7260
  227MOL0     H30604   7.782  10.398   5.431 -0.7861 -0.7897  0.2096
  227MOL0     H30605   7.960  10.545   5.417 -0.2894  3.3644 -3.1979
  227MOL0     H30606   8.140  10.704   5.471  0.6386 -0.5104  2.4602
  227MOL0     H30607   8.381  11.070   5.687  0.8137  0.6612 -0.0059
  227MOL0     H30608   8.603  11.097   5.807 -0.1163  0.0796  0.6519
  227MOL0     H30609   8.814  10.756   5.969 -1.6574  0.7717 -0.2617
  227MOL0     H30610   8.894  10.749   5.821 -1.4759 -2.0511  2.2261
  227MOL0     H30611   9.063  10.823   5.956 -2.5274 -3.5776 -2.7898
  227MOL0     H30612   9.001  10.985   5.904  0.6822 -0.9045 -0.1242
  227MOL0     H30613   8.890  11.000   6.128  0.5840  0.2785  1.2394
  227MOL0     H30614   8.939  10.832   6.161 -0.7928  1.2814  1.5515
  227MOL0     H30615   9.141  11.033   6.085  0.0377  0.3695 -0.9821
  227MOL0     H30616   9.164  10.877   6.166  1.4365  0.0858  1.0974
  227MOL0     H30617   9.047  11.128   6.301 -0.2299  0.1531 -1.4234
  227MOL0     H30618   9.186  11.041   6.349 -1.2538  1.9094  1.5857
  227MOL0     H30619   8.926  10.887   6.372 -0.0708 -1.0743  1.0193
  227MOL0     H30620   9.081  10.868   6.463 -1.5361 -2.9897 -1.1673
  227MOL0     H30621   8.870  10.970   6.569 -1.7473  1.1760  0.1280
  227MOL0     H30622   8.929  11.120   6.477 -0.7627 -2.0973 -1.7253
  227MOL0     H30623   9.062  10.940   6.675  2.2128  0.7860  1.1653
  227MOL0     H30624   9.138  11.082   6.592  0.4234  1.5467  1.4933
  227MOL0     H30625   8.686  10.688   5.793 -0.2578  0.8677  1.6236
  227MOL0     H30626   8.448  10.648   5.700  1.6943  0.0198 -2.2269
  227MOL0     H30627   7.900  10.937   5.713  0.9175  0.2065  1.1489
  227MOL0     H30628   7.711  10.779   5.692 -0.3081  1.2759 -0.1194
  227MOL0     H30629   6.011   9.953   5.319 -0.6223  1.8596 -1.2944
  227MOL0     H30630   5.797   9.883   5.399 -2.0467  1.0459  0.5370
  227MOL0     H30631   5.507  10.111   5.747  2.8347 -2.1124  1.4513
  227MOL0     H30632   5.296  10.123   5.906 -4.2611 -2.1228  1.2450
  227MOL0     H30633   5.138  10.118   6.029  0.4414 -0.0120 -1.8975
  227MOL0     H30634   5.247  10.038   6.143  0.7896  0.9855 -2.3760
  227MOL0     H30635   5.063  10.022   6.285 -0.6570 -0.5378  0.8193
  227MOL0     H30636   5.035   9.879   6.185  1.9942  0.0338  0.5679
  227MOL0     H30637   4.881   9.995   6.058 -1.3608  1.6543  0.8652
  227MOL0     H30638   4.919  10.149   6.106 -0.5346 -0.0887 -0.7532
  227MOL0     H30639   4.701  10.037   6.224 -0.0498 -1.7660  1.8762
  227MOL0     H30640   4.809   9.959   6.323 -0.4453 -1.4618 -2.8307
  227MOL0     H30641   4.837  10.340   6.487 -4.7056  1.1042 -0.5237
  227MOL0     H30642   5.252   9.702   5.867  1.5688 -1.4148 -0.8143
  227MOL0     H30643   5.366   9.580   5.732 -0.8989  0.7071  0.9639
  227MOL0     H30644   5.447   9.658   5.596  3.7195 -3.2741  0.8250
  227MOL0     H30645   5.540   9.608   5.749 -0.6022 -2.8354  2.2347
  228MOL0     O30646   6.095   5.260   2.505 -0.3655  0.0803  0.0026
  228MOL0     C30647   6.171   5.292   2.588 -1.0479 -0.3193 -0.1615
  228MOL0     O30648   6.155   5.396   2.680  0.2219  0.0235 -0.3368
  228MOL0     C30649   6.030   5.462   2.697  0.2641 -0.2927  0.3063
  228MOL0     C30650   6.037   5.597   2.678 -0.0106  0.0625  0.1059
  228MOL0     C30651   5.925   5.676   2.689  0.3647 -0.5694 -0.4090
  228MOL0     C30652   5.797   5.619   2.717 -0.2489 -0.9084  0.0824
  228MOL0     O30653   5.690   5.690   2.751 -0.0217  0.0759 -0.3197
  228MOL0     C30654   5.688   5.831   2.716 -1.2566 -0.1454  0.1114
  228MOL0     C30655   5.596   5.895   2.814 -0.0222  0.3893  0.1858
  228MOL0     C30656   5.642   5.901   2.965  0.1134  0.3574 -0.0964
  228MOL0     C30657   5.662   6.042   3.022  0.4494 -0.6773  0.1995
  228MOL0     C30658   5.685   6.043   3.166  0.1227  0.6920  0.7146
  228MOL0     C30659   5.639   6.182   3.224 -0.2478 -0.0178  0.5946
  228MOL0     C30660   5.494   6.238   3.185  0.0544  0.6696  0.0894
  228MOL0     C30661   5.472   6.373   3.245 -0.0340 -0.0666 -0.1639
  228MOL0     N30662   5.561   6.487   3.221 -0.8766 -0.3375  1.1486
  228MOL0     C30663   5.652   6.552   3.307  0.5824 -0.0263  0.0031
  228MOL0     C30664   5.733   6.617   3.231  0.5960 -0.0437  0.1984
  228MOL0     C30665   5.841   6.692   3.282  0.0351 -0.0742  0.4161
  228MOL0     C30666   5.923   6.766   3.176  0.1097  0.1378 -0.0181
  228MOL0     C30667   6.050   6.816   3.244 -0.1512  0.7861 -0.1235
  228MOL0     C30668   6.164   6.858   3.142  0.5182  0.6908  0.0578
  228MOL0     O30669   6.295   6.818   3.180 -0.0267 -0.2490  0.0605
  228MOL0     C30670   6.341   6.694   3.134  0.8762 -0.7891 -0.3256
  228MOL0     C30671   6.264   6.579   3.095 -0.5418 -0.4706 -0.2262
  228MOL0     C30672   6.328   6.464   3.053 -0.2374 -0.3572  0.4585
  228MOL0     C30673   6.468   6.447   3.054  1.0287 -0.2279  0.5981
  228MOL0     C30674   6.538   6.322   3.013  0.3719  0.8654  0.2226
  228MOL0     O30675   6.452   6.222   2.970  0.3038  0.3515  0.4035
  228MOL0     C30676   6.510   6.101   2.941  0.2285 -0.3173  0.3929
  228MOL0     C30677   6.610   6.032   3.021  1.4115 -0.6709  0.4610
  228MOL0     C30678   6.672   5.919   2.979 -0.3451  0.5288 -0.0135
  228MOL0     C30679   6.622   5.850   2.859  0.6925  0.0575 -0.0733
  228MOL0     O30680   6.687   5.733   2.823 -0.5056 -0.5238 -0.0698
  228MOL0     C30681   6.651   5.678   2.696 -1.3427  0.2169 -0.2259
  228MOL0     C30682   6.739   5.545   2.675  0.5147  0.3566 -0.2570
  228MOL0     C30683   6.882   5.588   2.641 -0.8474 -0.7779 -0.4675
  228MOL0     C30684   6.977   5.471   2.637  0.0035 -0.1349  0.3243
  228MOL0     C30685   7.136   5.493   2.609 -0.2789  0.6115  0.4226
  228MOL0     C30686   7.198   5.358   2.561  0.6473 -0.7264  0.2021
  228MOL0     C30687   7.351   5.351   2.573 -0.8905 -0.0584 -0.3291
  228MOL0     C30688   7.419   5.218   2.525 -0.1517 -0.1817  0.0996
  228MOL0    Cl30689   7.494   5.239   2.365 -0.4552  0.1121  0.0963
  228MOL0     C30690   6.511   5.902   2.795  0.8978 -0.5872 -0.7357
  228MOL0     C30691   6.459   6.034   2.827  0.4416  1.2034  0.1472
  228MOL0     O30692   6.660   6.313   3.019  0.0768  0.2714 -1.0836
  228MOL0     C30693   6.539   6.560   3.087 -0.4513  0.9054 -0.7606
  228MOL0     C30694   6.479   6.678   3.123  0.8138 -1.0644 -0.1092
  228MOL0     N30695   5.696   6.600   3.100  0.5261 -0.5609 -0.3780
  228MOL0     N30696   5.582   6.531   3.095 -0.1938 -0.8537 -0.0835
  228MOL0     C30697   5.780   5.481   2.732 -0.2367 -0.2668 -0.9086
  228MOL0     C30698   5.893   5.407   2.711 -1.3071  0.3326 -0.3801
  228MOL0     C30699   6.300   5.220   2.589  0.9335  0.4001  0.2256
  228MOL0     C30700   6.411   5.284   2.649 -0.2552 -1.0245  0.4249
  228MOL0     C30701   6.534   5.223   2.654  0.0711 -0.3934  0.5835
  228MOL0     C30702   6.555   5.096   2.604  0.3058 -0.2512  1.0397
  228MOL0     O30703   6.681   5.037   2.580  0.6930 -1.1239 -0.1329
  228MOL0     C30704   6.808   5.096   2.643  0.5607 -1.2849 -0.2908
  228MOL0     C30705   6.934   5.051   2.576 -0.0113 -0.4653 -0.8221
  228MOL0     C30706   6.950   4.903   2.564 -0.5377 -0.1736 -0.4177
  228MOL0     C30707   7.043   4.845   2.672 -0.2652  0.3944 -0.5096
  228MOL0     C30708   7.189   4.859   2.641 -0.0351 -0.7339 -0.2897
  228MOL0     C30709   7.309   4.855   2.609  0.2957 -0.1753 -0.1938
  228MOL0     C30710   6.442   5.023   2.554 -0.1839 -0.6407 -1.1232
  228MOL0     C30711   6.317   5.083   2.557  0.2383 -0.2007  0.2306
  228MOL0     C30712   6.200   4.996   2.516 -0.2068  0.5994  0.9777
  228MOL0     H30713   6.136   5.633   2.652  0.7314 -0.2181  2.3776
  228MOL0     H30714   5.952   5.781   2.680  1.5195 -0.3151  3.8800
  228MOL0     H30715   5.788   5.875   2.716 -1.8323  1.2727 -1.1836
  228MOL0     H30716   5.645   5.844   2.617 -2.9802 -1.1086  0.6928
  228MOL0     H30717   5.502   5.840   2.806 -0.7745  1.5298  0.9542
  228MOL0     H30718   5.576   5.997   2.780  1.2509  1.5391  2.6200
  228MOL0     H30719   5.728   5.837   2.984  1.5407  2.3631  0.5982
  228MOL0     H30720   5.560   5.867   3.028  0.4468 -3.1521 -1.3519
  228MOL0     H30721   5.749   6.091   2.978  2.4879  0.8357  5.1916
  228MOL0     H30722   5.573   6.089   2.978  1.8221  0.7703 -1.1809
  228MOL0     H30723   5.632   5.962   3.215 -1.2834  0.8053 -0.5425
  228MOL0     H30724   5.790   6.023   3.190 -0.2817  1.2818  3.3108
  228MOL0     H30725   5.639   6.186   3.333 -1.3528  0.3784  0.5979
  228MOL0     H30726   5.710   6.256   3.187  0.5391 -0.4148  1.2875
  228MOL0     H30727   5.421   6.164   3.218  0.3659 -0.7415 -2.1449
  228MOL0     H30728   5.476   6.247   3.077  1.2942 -0.9965 -0.2969
  228MOL0     H30729   5.375   6.413   3.213  0.1665 -0.0856 -0.8111
  228MOL0     H30730   5.462   6.361   3.353 -1.8498  0.0808 -0.2734
  228MOL0     H30731   5.665   6.548   3.415 -1.3360 -2.3006  0.2445
  228MOL0     H30732   5.804   6.769   3.351 -2.0409 -1.8473  1.3939
  228MOL0     H30733   5.907   6.633   3.345  2.6033 -1.0384 -2.8827
  228MOL0     H30734   5.951   6.699   3.094 -0.5473 -0.4229  0.1982
  228MOL0     H30735   5.862   6.847   3.135  0.4298 -0.9778 -2.9916
  228MOL0     H30736   6.087   6.733   3.304 -0.5086 -1.8887 -3.2965
  228MOL0     H30737   6.021   6.891   3.318 -2.2193  2.0470 -2.0548
  228MOL0     H30738   6.168   6.966   3.127 -0.1930  0.5741 -1.1905
  228MOL0     H30739   6.139   6.818   3.043 -1.4107  0.8447  0.4381
  228MOL0     H30740   6.157   6.586   3.112 -0.6753 -0.6433 -0.9847
  228MOL0     H30741   6.263   6.380   3.030  0.1174 -0.8903  1.3562
  228MOL0     H30742   6.631   6.072   3.120 -2.3805  1.4780  0.6193
  228MOL0     H30743   6.746   5.865   3.036 -1.3301  1.9994  2.8289
  228MOL0     H30744   6.544   5.654   2.701 -1.3972  0.3488 -0.7498
  228MOL0     H30745   6.680   5.747   2.616 -0.6309 -0.1912 -0.3188
  228MOL0     H30746   6.737   5.486   2.767  1.6439 -0.9102 -1.0264
  228MOL0     H30747   6.697   5.497   2.586  1.3344  2.5333 -1.9122
  228MOL0     H30748   6.898   5.641   2.547  1.8167  0.9295  0.8156
  228MOL0     H30749   6.908   5.658   2.721 -3.7472 -2.0804  1.8067
  228MOL0     H30750   6.940   5.401   2.562 -0.8748  1.7147 -1.0603
  228MOL0     H30751   6.964   5.414   2.729 -3.2026  1.2307  0.8487
  228MOL0     H30752   7.194   5.526   2.695  0.1754 -0.1347  0.4112
  228MOL0     H30753   7.141   5.579   2.542  0.5845  1.4200  1.4957
  228MOL0     H30754   7.154   5.278   2.621 -1.1954  0.3423  0.3649
  228MOL0     H30755   7.171   5.347   2.455  1.4585 -0.4967 -0.0379
  228MOL0     H30756   7.367   5.357   2.681  1.9007 -0.5903 -0.6314
  228MOL0     H30757   7.408   5.425   2.516  0.8230 -2.9319 -2.6178
  228MOL0     H30758   7.482   5.170   2.601  2.0026  0.9845 -0.8708
  228MOL0     H30759   7.338   5.146   2.509 -0.5628  0.2385  0.2371
  228MOL0     H30760   6.476   5.849   2.707  1.7919 -2.9715  0.2747
  228MOL0     H30761   6.391   6.077   2.753  3.3150  5.2677 -0.5151
  228MOL0     H30762   6.648   6.562   3.083 -0.2658 -2.9292 -1.5845
  228MOL0     H30763   6.540   6.763   3.152  0.5575 -0.9239  0.0248
  228MOL0     H30764   5.684   5.448   2.772  0.4312  1.8733  2.9307
  228MOL0     H30765   5.893   5.299   2.706 -2.0993  0.2227  1.3417
  228MOL0     H30766   6.412   5.384   2.691 -2.0994  0.2201 -2.2653
  228MOL0     H30767   6.621   5.272   2.698 -0.4455  1.3557 -0.2357
  228MOL0     H30768   6.808   5.076   2.750  2.8060 -2.1254 -0.4057
  228MOL0     H30769   6.816   5.205   2.634 -2.2611 -0.7295  2.1881
  228MOL0     H30770   7.017   5.082   2.640  0.8679 -3.4483 -0.3634
  228MOL0     H30771   6.939   5.109   2.484 -3.8739  3.0511  0.9014
  228MOL0     H30772   6.984   4.882   2.462  0.6801  1.1520 -0.3142
  228MOL0     H30773   6.864   4.836   2.567 -0.6931  0.0618  0.4295
  228MOL0     H30774   7.005   4.881   2.768  1.3732  2.4088 -0.5214
  228MOL0     H30775   7.041   4.736   2.673  6.0027 -0.1259 -0.5023
  228MOL0     H30776   7.410   4.863   2.574  0.4467 -1.1670 -0.0095
  228MOL0     H30777   6.456   4.923   2.515  0.7827  0.0601 -2.6841
  228MOL0     H30778   6.221   4.891   2.538  1.5180  0.6937 -0.0667
  228MOL0     H30779   6.108   5.023   2.569 -1.0375 -3.7980  2.1840
  228MOL0     H30780   6.190   5.006   2.407  2.2958  1.3751  0.7625
  229MOL0     O30781   5.243   5.048   9.719 -0.1784 -0.3511  0.6644
  229MOL0     C30782   5.131   5.076   9.764 -0.3064  0.2410 -0.9739
  229MOL0     O30783   5.103   5.112   9.890  0.0636 -0.0458  0.6452
  229MOL0     C30784   5.188   5.096   9.986 -1.1814  0.3341 -1.3267
  229MOL0     C30785   5.329   5.119   9.979  0.6719 -0.0446 -0.7971
  229MOL0     C30786   5.408   5.081  10.092  0.3751  0.1791  0.2331
  229MOL0     C30787   5.352   5.028  10.207  0.4021  1.1588  0.2202
  229MOL0     O30788   5.421   4.973  10.320  0.4222 -0.2813  0.1938
  229MOL0     C30789   5.564   4.964  10.332  0.5359  0.7146  0.1468
  229MOL0     C30790   5.598   5.090  10.405  0.0099  0.2802 -0.0143
  229MOL0     C30791   5.747   5.100  10.450  0.4866 -0.9635  0.1850
  229MOL0     C30792   5.776   4.996  10.564  1.0918  0.9219  0.4016
  229MOL0     C30793   5.924   4.979  10.607  0.5230  0.2937  0.0845
  229MOL0     C30794   5.989   4.872  10.518 -0.3666  0.0159  0.4703
  229MOL0     C30795   6.142   4.851  10.535  0.1108 -0.3017  0.2054
  229MOL0     C30796   6.188   4.704  10.483  0.1376  0.2944 -0.0437
  229MOL0     N30797   6.324   4.669  10.511  0.0491  0.4225  0.2589
  229MOL0     C30798   6.426   4.759  10.500 -0.4910 -0.3323 -0.6468
  229MOL0     C30799   6.524   4.717  10.577 -0.3607  0.2826 -0.1548
  229MOL0     C30800   6.656   4.774  10.623 -0.6646 -0.2578  0.2197
  229MOL0     C30801   6.771   4.684  10.599 -0.1416  0.3041  0.2904
  229MOL0     C30802   6.785   4.605  10.471  0.1417  0.9060 -0.7966
  229MOL0     C30803   6.817   4.692  10.352  0.3171  0.3880  0.7077
  229MOL0     O30804   6.788   4.612  10.240 -0.4061  0.0575  0.4170
  229MOL0     C30805   6.879   4.518  10.193  0.0011  0.2381  0.6916
  229MOL0     C30806   6.822   4.405  10.139  0.1311 -0.1044 -0.4240
  229MOL0     C30807   6.890   4.309  10.073 -0.7483 -0.2297 -0.6838
  229MOL0     C30808   7.036   4.315  10.063 -0.3025  0.0897 -0.7015
  229MOL0     C30809   7.119   4.211   9.997  0.6519 -0.8273 -0.1658
  229MOL0     O30810   7.048   4.099   9.948 -0.5941 -0.5160 -0.8350
  229MOL0     C30811   7.126   4.006   9.883  0.4003 -0.3708 -0.4087
  229MOL0     C30812   7.139   4.012   9.748  0.0290 -0.5020  0.2001
  229MOL0     C30813   7.214   3.921   9.674 -0.0765  0.1633 -0.4235
  229MOL0     C30814   7.270   3.814   9.745 -0.4400 -0.4161 -0.9127
  229MOL0     O30815   7.339   3.718   9.685  0.0196  0.5360  0.2071
  229MOL0     C30816   7.397   3.740   9.550  0.1565 -1.1438 -0.2329
  229MOL0     C30817   7.481   3.621   9.525  0.3194  0.0873 -0.0707
  229MOL0     C30818   7.576   3.650   9.409  0.4684 -0.3983  0.7970
  229MOL0     C30819   7.687   3.535   9.391  0.2376 -0.0856  0.3149
  229MOL0     C30820   7.787   3.572   9.276  0.3304  0.4437  0.0810
  229MOL0     C30821   7.704   3.580   9.141  0.1903  0.0549 -0.4843
  229MOL0     C30822   7.763   3.528   9.009  0.4846 -0.2693  0.9203
  229MOL0     C30823   7.871   3.611   8.950  0.4401  0.4327  0.2261
  229MOL0    Cl30824   7.816   3.776   8.900  0.2253 -0.2179  0.0754
  229MOL0     C30825   7.261   3.806   9.888  0.2230 -0.1093  1.2443
  229MOL0     C30826   7.177   3.899   9.955 -0.1407  0.7538  0.2653
  229MOL0     O30827   7.241   4.231   9.967 -0.1138  0.2670 -0.0629
  229MOL0     C30828   7.099   4.426  10.122  0.8709 -0.1518 -0.3477
  229MOL0     C30829   7.017   4.530  10.178  0.2658  0.5066 -0.3009
  229MOL0     N30830   6.482   4.596  10.630 -0.4525 -0.7756  1.7638
  229MOL0     N30831   6.358   4.573  10.600  0.3135 -0.6325 -0.5358
  229MOL0     C30832   5.215   5.031  10.218 -0.1981 -0.9058 -0.0180
  229MOL0     C30833   5.136   5.058  10.107 -0.7290  0.6124 -0.3643
  229MOL0     C30834   5.017   5.061   9.668  0.1822  0.2038 -0.8721
  229MOL0     C30835   5.039   5.019   9.531 -0.2252 -0.7245  0.2653
  229MOL0     C30836   4.940   5.002   9.431  1.1856  0.6109 -0.1126
  229MOL0     C30837   4.803   5.026   9.469 -0.6975 -0.0286 -0.0586
  229MOL0     O30838   4.714   5.031   9.371  0.1757 -0.3716 -0.1729
  229MOL0     C30839   4.612   5.132   9.391 -0.5859  0.1209 -0.6192
  229MOL0     C30840   4.548   5.145   9.245  0.0490 -0.4240  0.0587
  229MOL0     C30841   4.403   5.205   9.253 -0.0809 -0.4651 -0.5131
  229MOL0     C30842   4.299   5.127   9.180 -0.6338 -0.1580  0.6523
  229MOL0     C30843   4.260   5.006   9.250 -0.1297 -0.5667 -0.9840
  229MOL0     C30844   4.213   4.918   9.316  0.6253 -0.0829  0.0718
  229MOL0     C30845   4.779   5.055   9.599  0.1221  0.2338  0.1006
  229MOL0     C30846   4.879   5.091   9.695 -0.5626 -0.2049 -0.7220
  229MOL0     C30847   4.834   5.149   9.823 -0.4092 -0.2482 -0.6511
  229MOL0     H30848   5.372   5.160   9.888  0.7855  0.6684 -0.4312
  229MOL0     H30849   5.516   5.092  10.088  0.3254  0.8026  0.4628
  229MOL0     H30850   5.595   4.878  10.392  3.5113  2.6596  1.7062
  229MOL0     H30851   5.608   4.958  10.232 -2.4555  0.0929 -1.2356
  229MOL0     H30852   5.534   5.091  10.493 -1.7779 -1.2750 -1.2067
  229MOL0     H30853   5.573   5.174  10.339 -0.8511 -2.3846 -3.3558
  229MOL0     H30854   5.774   5.201  10.482 -2.2189  0.4474 -1.5728
  229MOL0     H30855   5.816   5.086  10.366 -2.5630  1.6132 -3.0678
  229MOL0     H30856   5.715   5.023  10.650  0.3398  0.7082 -0.0584
  229MOL0     H30857   5.752   4.897  10.525  2.2746 -0.4104  2.8143
  229MOL0     H30858   5.970   5.077  10.601 -2.4080  1.8623  1.2734
  229MOL0     H30859   5.935   4.941  10.709  1.4502  0.1016 -0.0750
  229MOL0     H30860   5.938   4.776  10.534 -0.4760 -0.3381 -1.6137
  229MOL0     H30861   5.976   4.890  10.411  0.9066 -6.1687 -1.1322
  229MOL0     H30862   6.168   4.849  10.642  1.2810 -0.9969 -0.0787
  229MOL0     H30863   6.197   4.929  10.481 -0.8374 -1.5234 -2.7114
  229MOL0     H30864   6.129   4.625  10.530  0.4172  0.6164  0.8730
  229MOL0     H30865   6.158   4.703  10.378 -3.1333  1.1337  0.7601
  229MOL0     H30866   6.438   4.858  10.455 -1.6444 -0.1160 -0.5026
  229MOL0     H30867   6.681   4.870  10.576 -0.3324 -0.2124  0.4899
  229MOL0     H30868   6.651   4.798  10.729 -2.9543  2.6603 -0.3930
  229MOL0     H30869   6.860   4.745  10.616  0.1818 -0.1447  0.2318
  229MOL0     H30870   6.774   4.611  10.681  1.3154 -2.7863 -2.2802
  229MOL0     H30871   6.697   4.545  10.448  2.5852 -2.5135 -2.1060
  229MOL0     H30872   6.859   4.528  10.495 -1.6938 -0.1575  1.9636
  229MOL0     H30873   6.922   4.718  10.368  0.8146 -2.5280  3.1419
  229MOL0     H30874   6.748   4.777  10.340 -1.6653 -1.0648  1.3070
  229MOL0     H30875   6.714   4.413  10.149 -0.0162  1.5125 -2.6481
  229MOL0     H30876   6.826   4.237  10.023  0.0944 -1.4353 -0.0909
  229MOL0     H30877   7.099   4.100   9.698  0.4361  0.9139  2.2720
  229MOL0     H30878   7.222   3.940   9.567 -2.8808 -0.7454 -0.8604
  229MOL0     H30879   7.327   3.756   9.468 -0.3064  2.2400  0.6817
  229MOL0     H30880   7.459   3.830   9.557 -1.1513 -0.0906 -1.5153
  229MOL0     H30881   7.534   3.596   9.617 -1.2710 -1.4006  0.5076
  229MOL0     H30882   7.412   3.539   9.504  0.8654 -0.8192  1.5508
  229MOL0     H30883   7.521   3.678   9.319  2.6573 -0.9547 -0.8017
  229MOL0     H30884   7.633   3.736   9.445  2.4828 -2.2011  2.1566
  229MOL0     H30885   7.636   3.440   9.368  0.6833 -1.1651  3.2976
  229MOL0     H30886   7.746   3.527   9.482 -1.7224 -3.9725  1.4685
  229MOL0     H30887   7.858   3.489   9.269 -0.2387 -0.0505  0.0573
  229MOL0     H30888   7.840   3.667   9.280  3.0789 -0.9062 -1.3833
  229MOL0     H30889   7.612   3.523   9.159  1.8522 -2.4049  0.7691
  229MOL0     H30890   7.670   3.684   9.133 -2.4422 -0.7196 -0.4619
  229MOL0     H30891   7.676   3.527   8.943  1.9958  0.9100 -1.2249
  229MOL0     H30892   7.786   3.422   9.021 -2.7425 -0.9395  2.1264
  229MOL0     H30893   7.950   3.618   9.025  0.4147 -2.1846  0.5841
  229MOL0     H30894   7.900   3.558   8.859 -2.2187  1.0446 -1.0729
  229MOL0     H30895   7.299   3.715   9.934  0.3647 -0.2114  0.9253
  229MOL0     H30896   7.163   3.888  10.062  1.1109 -5.1429  0.1936
  229MOL0     H30897   7.206   4.440  10.133  0.8254  0.1845 -0.3217
  229MOL0     H30898   7.072   4.617  10.214  1.5745 -0.7052  0.7245
  229MOL0     H30899   5.168   4.985  10.304  1.9192 -0.9590  1.1619
  229MOL0     H30900   5.030   5.037  10.115 -0.9220  1.9571  1.0565
  229MOL0     H30901   5.139   4.997   9.496 -0.9251 -1.7263 -1.1938
  229MOL0     H30902   4.965   4.997   9.326  0.0450 -0.3176 -0.3644
  229MOL0     H30903   4.655   5.227   9.424  0.7383 -1.4930  2.7576
  229MOL0     H30904   4.533   5.105   9.462 -0.8206 -1.0811 -1.3147
  229MOL0     H30905   4.557   5.049   9.193 -0.1329  0.4541 -1.6957
  229MOL0     H30906   4.597   5.220   9.181 -1.5481  0.5844 -0.0419
  229MOL0     H30907   4.394   5.303   9.206 -1.3547  1.6288  3.5590
  229MOL0     H30908   4.375   5.233   9.355  0.4412  1.1912 -0.7885
  229MOL0     H30909   4.205   5.182   9.178 -1.1340 -0.8911  2.2611
  229MOL0     H30910   4.334   5.099   9.080 -1.5336 -2.7355  0.9851
  229MOL0     H30911   4.170   4.842   9.379 -2.4449  2.8230  1.7675
  229MOL0     H30912   4.678   5.078   9.633  0.8040  1.9988  1.1059
  229MOL0     H30913   4.732   5.190   9.820 -0.8965 -1.3172  0.3736
  229MOL0     H30914   4.819   5.073   9.901  1.2665  0.8394  0.8174
  229MOL0     H30915   4.904   5.215   9.876 -0.5325 -0.8807  0.3361
  230MOL0     O30916   0.230  10.661   2.763  0.5639  0.3326  0.3644
  230MOL0     C30917   0.192  10.671   2.649  1.1003  0.5249  0.1303
  230MOL0     O30918   0.087  10.598   2.594 -0.1785  0.1603 -0.3141
  230MOL0     C30919   0.029  10.505   2.676  0.0310 -0.1706  0.0551
  230MOL0     C30920  -0.055  10.550   2.778  0.2919  0.2736  0.0640
  230MOL0     C30921  -0.109  10.443   2.860 -0.5195 -0.0976 -0.1850
  230MOL0     C30922  -0.085  10.301   2.836  0.3578  0.3979 -0.5718
  230MOL0     O30923  -0.160  10.209   2.906  0.0818 -0.1708  0.4431
  230MOL0     C30924  -0.302  10.240   2.899 -0.1112 -0.2821 -0.3327
  230MOL0     C30925  -0.372  10.137   2.986  0.0527  1.1018  0.1077
  230MOL0     C30926  -0.307   9.993   2.981 -0.8539 -0.1173  0.3620
  230MOL0     C30927  -0.403   9.873   3.010  0.3329 -0.3203 -0.1523
  230MOL0     C30928  -0.335   9.749   2.978 -0.5324  0.0387  0.2430
  230MOL0     C30929  -0.435   9.627   2.986 -0.6889 -0.2242 -0.1064
  230MOL0     C30930  -0.380   9.487   3.003  0.0242 -0.6918  0.0855
  230MOL0     C30931  -0.487   9.397   3.076  0.8419 -0.2067 -0.3734
  230MOL0     N30932  -0.497   9.427   3.217 -0.9747 -0.0246  0.0025
  230MOL0     C30933  -0.394   9.417   3.320 -0.0349  0.7781  1.4714
  230MOL0     C30934  -0.463   9.422   3.438 -0.2163 -0.7447  0.2541
  230MOL0     C30935  -0.413   9.434   3.574 -0.8394  0.5758  0.1797
  230MOL0     C30936  -0.276   9.360   3.602 -0.7011  0.7290  0.1019
  230MOL0     C30937  -0.299   9.211   3.620 -0.6655 -0.1325  0.0986
  230MOL0     C30938  -0.157   9.140   3.656 -0.2764 -0.2667 -0.0992
  230MOL0     O30939  -0.138   9.183   3.795  0.1613 -0.4420 -0.2816
  230MOL0     C30940  -0.052   9.112   3.879  0.0163  0.9906 -0.4386
  230MOL0     C30941   0.003   8.994   3.842  0.4692 -0.1951  0.6889
  230MOL0     C30942   0.078   8.920   3.935 -0.3074 -0.3715 -0.8555
  230MOL0     C30943   0.109   8.965   4.067  0.5732  0.7027  0.1300
  230MOL0     C30944   0.193   8.882   4.164 -0.4234  0.2431 -0.6590
  230MOL0     O30945   0.196   8.920   4.298 -1.2588 -0.3693  0.0024
  230MOL0     C30946   0.253   8.834   4.380  0.1988  0.1029 -0.2075
  230MOL0     C30947   0.186   8.719   4.425 -0.1321 -0.1161 -0.6236
  230MOL0     C30948   0.249   8.631   4.520 -0.0918 -0.6563  0.4049
  230MOL0     C30949   0.378   8.652   4.559  0.5083 -0.2932  0.4075
  230MOL0     O30950   0.420   8.561   4.641  0.0633  0.4734 -0.6771
  230MOL0     C30951   0.529   8.593   4.729  0.2719 -0.0688  0.0294
  230MOL0     C30952   0.549   8.491   4.835  0.2491 -0.1273  0.5534
  230MOL0     C30953   0.568   8.345   4.783  0.8319 -0.0118 -0.2676
  230MOL0     C30954   0.540   8.241   4.880 -0.0246  0.5283  0.2590
  230MOL0     C30955   0.662   8.214   4.968  0.6280 -0.5172  0.1924
  230MOL0     C30956   0.646   8.083   5.050  0.8620  0.3123 -0.3013
  230MOL0     C30957   0.745   8.065   5.164 -1.4139  0.1359  0.8193
  230MOL0     C30958   0.814   7.928   5.159 -0.2014  0.0755  0.1169
  230MOL0    Cl30959   0.957   7.954   5.262  0.3899  0.1727 -0.6136
  230MOL0     C30960   0.447   8.764   4.520 -1.3936 -0.5054  0.6688
  230MOL0     C30961   0.388   8.848   4.424  0.6216 -0.1623 -0.4654
  230MOL0     O30962   0.228   8.769   4.127 -0.1346  0.4708 -0.0063
  230MOL0     C30963   0.049   9.084   4.108 -0.0649 -0.0942  0.4630
  230MOL0     C30964  -0.036   9.158   4.010 -1.3977 -0.2677 -0.9345
  230MOL0     N30965  -0.593   9.414   3.400 -0.6764 -0.8587  0.1340
  230MOL0     N30966  -0.613   9.421   3.277  0.3163  0.3545 -0.6841
  230MOL0     C30967  -0.002  10.262   2.727  0.9526 -0.3012 -0.3827
  230MOL0     C30968   0.051  10.363   2.655 -0.7897  0.2142 -0.0887
  230MOL0     C30969   0.286  10.744   2.563 -0.0394  0.9460  0.8642
  230MOL0     C30970   0.366  10.845   2.624 -1.0188 -0.0577  1.0649
  230MOL0     C30971   0.483  10.897   2.555  0.5200 -0.0839  0.2991
  230MOL0     C30972   0.514  10.864   2.423 -0.9446 -0.7244  0.3471
  230MOL0     O30973   0.628  10.932   2.376 -0.1894 -0.6141 -0.2134
  230MOL0     C30974   0.668  10.902   2.237  0.7035  0.7385  0.4127
  230MOL0     C30975   0.559  10.955   2.138 -0.0963 -1.4595 -0.1409
  230MOL0     C30976   0.590  10.919   1.998 -0.2347  0.3648 -0.3348
  230MOL0     C30977   0.497  10.984   1.890  0.2824  0.1742 -0.9551
  230MOL0     C30978   0.368  10.925   1.917 -0.0632  0.3318 -0.1986
  230MOL0     C30979   0.262  10.865   1.937  0.2940  0.3952 -0.1964
  230MOL0     C30980   0.435  10.761   2.362  0.1341 -0.6990 -0.4636
  230MOL0     C30981   0.327  10.704   2.426 -0.6016 -0.6231  0.2553
  230MOL0     C30982   0.262  10.597   2.356  0.4272 -0.0936 -0.1126
  230MOL0     H30983  -0.073  10.653   2.807 -2.3415 -0.3621  1.0592
  230MOL0     H30984  -0.176  10.467   2.942 -0.5757 -1.2815  0.1437
  230MOL0     H30985  -0.333  10.339   2.933  3.1998  0.7153  0.1347
  230MOL0     H30986  -0.335  10.235   2.795 -2.3810 -2.1315  0.3752
  230MOL0     H30987  -0.474  10.123   2.949  0.0511 -0.7804  0.7005
  230MOL0     H30988  -0.369  10.161   3.093  3.0014 -1.1730  0.6633
  230MOL0     H30989  -0.212   9.993   3.036  0.9767 -1.0307 -2.5365
  230MOL0     H30990  -0.265   9.965   2.884 -0.3892 -0.5945  0.6912
  230MOL0     H30991  -0.434   9.878   3.115  0.5716 -4.4970  0.2915
  230MOL0     H30992  -0.493   9.880   2.948  0.2282 -0.0381  0.0240
  230MOL0     H30993  -0.300   9.754   2.875  3.7918 -2.0644  1.4026
  230MOL0     H30994  -0.243   9.730   3.033 -1.4154  1.7142  2.4651
  230MOL0     H30995  -0.510   9.648   3.063  0.4167 -1.9133  1.5227
  230MOL0     H30996  -0.493   9.617   2.894  1.7563 -1.8259 -1.5947
  230MOL0     H30997  -0.280   9.490   3.047  0.4198 -2.0893 -0.6580
  230MOL0     H30998  -0.356   9.445   2.904  4.5177  0.5202  0.4138
  230MOL0     H30999  -0.582   9.415   3.027 -0.5609  0.2443  2.3253
  230MOL0     H31000  -0.473   9.288   3.075  0.0868 -0.4778  3.3316
  230MOL0     H31001  -0.290   9.414   3.292 -0.3342 -1.4151  0.3506
  230MOL0     H31002  -0.398   9.541   3.593 -1.9287  0.7760 -0.0578
  230MOL0     H31003  -0.488   9.389   3.639  0.3553 -1.7232  0.0699
  230MOL0     H31004  -0.209   9.381   3.518 -0.0020  1.1782  0.7520
  230MOL0     H31005  -0.221   9.398   3.689 -0.4483 -1.7970  1.1301
  230MOL0     H31006  -0.335   9.160   3.531 -1.5007 -0.5740  0.6775
  230MOL0     H31007  -0.379   9.185   3.689 -0.7304 -1.9528 -0.6118
  230MOL0     H31008  -0.071   9.181   3.602 -0.9628  1.6175  0.1325
  230MOL0     H31009  -0.175   9.034   3.638  0.1423 -0.3714  0.0796
  230MOL0     H31010  -0.010   8.960   3.740 -3.0233  1.4364  0.4469
  230MOL0     H31011   0.128   8.828   3.907  0.8599 -0.0296  0.0425
  230MOL0     H31012   0.080   8.714   4.402 -0.4831  0.3130  0.8271
  230MOL0     H31013   0.199   8.542   4.557  0.5811 -3.2949 -4.3464
  230MOL0     H31014   0.615   8.605   4.663 -0.9282  3.3635 -1.1238
  230MOL0     H31015   0.513   8.691   4.775 -0.4274  2.7654 -5.3588
  230MOL0     H31016   0.644   8.508   4.886  1.9230  4.2711 -3.2518
  230MOL0     H31017   0.466   8.495   4.906 -0.9193  1.8443 -0.8301
  230MOL0     H31018   0.492   8.332   4.705  0.1440  1.3181  0.1511
  230MOL0     H31019   0.668   8.326   4.744  1.3582 -0.3048  1.1832
  230MOL0     H31020   0.521   8.149   4.823  0.8895  0.7584 -0.4512
  230MOL0     H31021   0.451   8.255   4.941 -0.6510 -2.3094  0.1243
  230MOL0     H31022   0.660   8.298   5.038 -2.0662 -1.7570  1.7535
  230MOL0     H31023   0.757   8.205   4.914  0.0151 -2.0840 -0.7161
  230MOL0     H31024   0.552   8.085   5.106  1.6664  0.6764  1.1074
  230MOL0     H31025   0.656   8.004   4.976  4.6018 -0.9323  1.2706
  230MOL0     H31026   0.703   8.095   5.260 -0.9746 -1.8891  1.6998
  230MOL0     H31027   0.820   8.141   5.138  0.4947 -1.6282  0.9153
  230MOL0     H31028   0.755   7.847   5.202  0.7590  0.3915  2.1796
  230MOL0     H31029   0.836   7.910   5.053 -0.2164 -1.2919  0.3321
  230MOL0     H31030   0.547   8.787   4.555  0.2229 -2.9854 -1.8751
  230MOL0     H31031   0.449   8.926   4.378 -1.1341  1.3325 -0.3933
  230MOL0     H31032   0.073   9.127   4.205  0.6571  1.3227 -0.3059
  230MOL0     H31033  -0.083   9.242   4.060 -2.3282 -1.5059  0.3513
  230MOL0     H31034   0.015  10.157   2.702  2.8616 -0.6163  1.9412
  230MOL0     H31035   0.113  10.338   2.570  2.2152  2.7233  1.1637
  230MOL0     H31036   0.326  10.873   2.721 -1.6794  1.1267  0.4761
  230MOL0     H31037   0.530  10.973   2.617 -1.5339 -1.6846  4.1644
  230MOL0     H31038   0.679  10.794   2.228  1.8846  0.4045  4.1028
  230MOL0     H31039   0.759  10.958   2.215  0.0087  2.1009  0.8811
  230MOL0     H31040   0.554  11.065   2.142  0.1671 -1.4210 -0.8015
  230MOL0     H31041   0.460  10.916   2.162 -1.4547  2.6089  1.7806
  230MOL0     H31042   0.581  10.810   1.994 -1.4127  0.4437 -0.2094
  230MOL0     H31043   0.695  10.938   1.974  0.3001 -0.6648  1.0586
  230MOL0     H31044   0.493  11.092   1.908  1.5425 -0.2343  2.6071
  230MOL0     H31045   0.528  10.963   1.788  1.8462  0.0805 -0.4814
  230MOL0     H31046   0.174  10.809   1.961 -0.2570  2.2521  2.5971
  230MOL0     H31047   0.473  10.716   2.271  0.7630  0.4425 -0.7848
  230MOL0     H31048   0.158  10.606   2.323 -0.8484 -0.4146  3.4471
  230MOL0     H31049   0.322  10.583   2.265  0.3556  1.6442 -0.4562
  230MOL0     H31050   0.266  10.502   2.411 -0.6861 -0.2401 -0.2631
  231MOL0     O31051   1.489   7.936   6.632 -0.0661  0.1481 -0.2708
  231MOL0     C31052   1.552   7.873   6.712  0.3041 -0.2939 -0.3500
  231MOL0     O31053   1.646   7.929   6.799 -0.7459  0.4790  0.0889
  231MOL0     C31054   1.708   8.043   6.758 -0.2303  0.8085 -0.7495
  231MOL0     C31055   1.708   8.154   6.844 -0.8357 -0.9824 -0.0131
  231MOL0     C31056   1.772   8.279   6.808 -0.4756  0.8319  0.1705
  231MOL0     C31057   1.840   8.275   6.685 -0.0535 -0.6395  0.4076
  231MOL0     O31058   1.919   8.385   6.664  0.2220 -0.2786  0.4291
  231MOL0     C31059   2.019   8.386   6.556  0.5034 -0.2584  0.0579
  231MOL0     C31060   2.095   8.520   6.549 -0.1502 -0.3420  1.1579
  231MOL0     C31061   2.136   8.572   6.684 -0.8734  0.3259 -0.7832
  231MOL0     C31062   2.234   8.487   6.762  0.0936  0.6721  0.0639
  231MOL0     C31063   2.222   8.514   6.913  0.1951 -0.5312 -0.1914
  231MOL0     C31064   2.312   8.424   6.995  0.2667  0.4239  0.1350
  231MOL0     C31065   2.225   8.333   7.082  0.1551 -0.2214 -0.1186
  231MOL0     C31066   2.130   8.231   7.016  0.1568  0.1118 -0.0670
  231MOL0     N31067   2.200   8.147   6.923  0.0537 -0.3406 -0.0174
  231MOL0     C31068   2.184   8.142   6.787 -0.0505  0.1163 -0.7153
  231MOL0     C31069   2.257   8.037   6.736 -0.4283  0.4382  0.0086
  231MOL0     C31070   2.272   7.997   6.592  0.5070 -0.8601  0.7463
  231MOL0     C31071   2.152   7.920   6.550  0.4223 -0.0097 -0.0528
  231MOL0     C31072   2.145   7.912   6.398  0.5062  0.1834 -0.6728
  231MOL0     C31073   2.043   7.800   6.367 -0.2106 -0.2346 -0.7700
  231MOL0     O31074   1.905   7.839   6.409  1.3023  0.0424  0.2085
  231MOL0     C31075   1.795   7.761   6.375  0.3433  0.2466 -0.1894
  231MOL0     C31076   1.813   7.620   6.340 -0.0241 -0.9102  0.2601
  231MOL0     C31077   1.714   7.545   6.290 -0.4315  0.4314 -0.4528
  231MOL0     C31078   1.593   7.597   6.246  0.3871 -0.1465 -0.4083
  231MOL0     C31079   1.481   7.507   6.195  0.4820 -0.0268 -0.4308
  231MOL0     O31080   1.493   7.375   6.231 -0.0382  0.1533 -0.1634
  231MOL0     C31081   1.433   7.262   6.173 -0.3660 -0.3151 -0.1629
  231MOL0     C31082   1.374   7.257   6.053 -0.3038  0.6558  0.3955
  231MOL0     C31083   1.323   7.144   6.011  0.6045  0.7443  0.3530
  231MOL0     C31084   1.314   7.025   6.092  0.0289 -2.0308 -0.7710
  231MOL0     O31085   1.247   6.919   6.043 -0.7340  0.3720  0.2643
  231MOL0     C31086   1.286   6.790   6.087  0.1244  0.5812  0.1835
  231MOL0     C31087   1.212   6.679   6.011  0.5360  0.2802  0.6154
  231MOL0     C31088   1.267   6.540   6.042  0.8576  0.4026  0.1487
  231MOL0     C31089   1.157   6.438   6.059  0.7502 -0.3287 -0.0342
  231MOL0     C31090   1.057   6.449   6.167 -0.7228 -0.0325 -0.2822
  231MOL0     C31091   1.014   6.307   6.225  0.4805  0.7875  0.2110
  231MOL0     C31092   0.942   6.214   6.139  0.7600 -0.8382  0.5459
  231MOL0     C31093   0.816   6.167   6.209 -0.5050  0.3786 -0.7272
  231MOL0    Cl31094   0.736   6.039   6.125  0.5150 -0.2266 -0.0620
  231MOL0     C31095   1.367   7.031   6.219  1.1573  1.0272  0.3111
  231MOL0     C31096   1.431   7.159   6.258  0.5999  0.8165 -1.1332
  231MOL0     O31097   1.398   7.554   6.114  0.4538 -0.1934  0.8261
  231MOL0     C31098   1.571   7.733   6.272 -0.6027 -1.4724 -0.5274
  231MOL0     C31099   1.668   7.815   6.338  0.0712  0.4616 -0.2029
  231MOL0     N31100   2.311   7.978   6.846 -0.5076  0.2737  0.1712
  231MOL0     N31101   2.290   8.052   6.956 -0.5285  0.8950 -0.7397
  231MOL0     C31102   1.851   8.158   6.601 -0.0532 -0.3506  0.0321
  231MOL0     C31103   1.778   8.045   6.635  0.0644 -0.1694 -1.0106
  231MOL0     C31104   1.528   7.728   6.725 -0.4081  0.2073 -0.0691
  231MOL0     C31105   1.494   7.663   6.605 -0.5418 -0.4715 -0.0734
  231MOL0     C31106   1.470   7.518   6.595 -0.3814  0.5167 -1.4211
  231MOL0     C31107   1.479   7.445   6.716  0.0643  0.4755 -0.6560
  231MOL0     O31108   1.473   7.309   6.717 -0.1141  0.3049 -0.1574
  231MOL0     C31109   1.351   7.247   6.735  0.5705 -0.8702 -0.2029
  231MOL0     C31110   1.355   7.093   6.732 -0.1004  0.3767 -0.3079
  231MOL0     C31111   1.443   7.019   6.842  0.5432 -0.4559  0.3018
  231MOL0     C31112   1.397   7.053   6.975 -0.1846  0.1533 -0.6014
  231MOL0     C31113   1.453   6.976   7.086 -0.4022 -0.1881 -1.0911
  231MOL0     C31114   1.478   6.918   7.190 -0.4153  0.1492  0.6103
  231MOL0     C31115   1.506   7.510   6.832 -0.2833 -0.2027 -0.5601
  231MOL0     C31116   1.538   7.645   6.838 -0.2037  0.5955  0.0164
  231MOL0     C31117   1.599   7.698   6.967 -0.0259 -0.0307 -0.9731
  231MOL0     H31118   1.668   8.138   6.943 -3.4067  2.4194 -0.3051
  231MOL0     H31119   1.773   8.362   6.878  2.5137  1.7787 -0.8489
  231MOL0     H31120   2.090   8.303   6.554  1.7643  0.7687  0.7576
  231MOL0     H31121   1.959   8.392   6.465  1.1367  0.8405 -0.2987
  231MOL0     H31122   2.036   8.604   6.511 -0.2640 -0.4254  1.1505
  231MOL0     H31123   2.187   8.515   6.490 -1.0855 -1.1745 -0.2888
  231MOL0     H31124   2.051   8.591   6.752  0.0050 -0.8818  0.7277
  231MOL0     H31125   2.181   8.669   6.664 -0.2588 -0.2663 -2.4573
  231MOL0     H31126   2.205   8.383   6.750  0.9299 -0.3579  4.9945
  231MOL0     H31127   2.334   8.501   6.719 -0.3842  0.1332 -1.2791
  231MOL0     H31128   2.236   8.622   6.926 -3.6665  0.7314 -4.0597
  231MOL0     H31129   2.122   8.507   6.956  1.7708  1.0890  4.3193
  231MOL0     H31130   2.386   8.367   6.938  0.6058  0.2826  0.7022
  231MOL0     H31131   2.374   8.483   7.063  2.3017 -2.3539  0.8586
  231MOL0     H31132   2.161   8.395   7.145  0.1113  0.7808 -1.1083
  231MOL0     H31133   2.294   8.281   7.150 -1.4027  0.2006  1.8953
  231MOL0     H31134   2.098   8.170   7.101 -0.4464 -1.4138 -1.3599
  231MOL0     H31135   2.043   8.276   6.966  0.5249 -0.6903 -1.4638
  231MOL0     H31136   2.106   8.201   6.740 -1.4102  0.7762  2.1583
  231MOL0     H31137   2.263   8.091   6.537  0.4425 -0.4908  1.3780
  231MOL0     H31138   2.368   7.955   6.560 -0.2274 -0.8983 -1.5416
  231MOL0     H31139   2.164   7.819   6.588 -1.5524 -0.6678 -1.0541
  231MOL0     H31140   2.059   7.957   6.594  0.4907  0.3380 -0.1935
  231MOL0     H31141   2.240   7.886   6.349  2.1519  2.4207  1.1176
  231MOL0     H31142   2.102   8.009   6.372 -3.5306 -1.1159  0.5817
  231MOL0     H31143   2.088   7.710   6.412 -0.2502  1.2356  2.4659
  231MOL0     H31144   2.058   7.789   6.259  1.0912  1.8288 -0.8525
  231MOL0     H31145   1.907   7.570   6.356 -0.7272 -2.5520 -0.4377
  231MOL0     H31146   1.733   7.442   6.262 -3.9784  0.0475 -1.9271
  231MOL0     H31147   1.368   7.332   5.974 -0.0542 -2.4284 -2.7914
  231MOL0     H31148   1.271   7.139   5.916 -0.7200 -0.6605  1.0996
  231MOL0     H31149   1.390   6.771   6.059 -1.1512 -3.0979 -3.0528
  231MOL0     H31150   1.270   6.775   6.194  0.7591 -3.1175 -0.1216
  231MOL0     H31151   1.104   6.688   6.027  0.4217  3.9265 -1.2969
  231MOL0     H31152   1.209   6.705   5.905 -2.5776 -0.4276  0.4278
  231MOL0     H31153   1.327   6.504   5.958 -1.8007 -2.9535 -0.5488
  231MOL0     H31154   1.330   6.537   6.131  0.0594 -1.3815  0.6917
  231MOL0     H31155   1.200   6.338   6.067 -1.7327 -1.8043 -2.8088
  231MOL0     H31156   1.102   6.450   5.965 -2.1516 -1.8406  1.3256
  231MOL0     H31157   0.968   6.496   6.125 -0.5220 -2.4420 -3.9396
  231MOL0     H31158   1.094   6.514   6.246  1.2299 -0.2245 -0.9581
  231MOL0     H31159   1.105   6.258   6.260 -0.0626 -0.1916  0.2817
  231MOL0     H31160   0.953   6.332   6.313 -1.6761  0.7952 -1.1886
  231MOL0     H31161   0.995   6.126   6.101 -0.4983 -1.0229 -0.9024
  231MOL0     H31162   0.916   6.264   6.045  2.4519 -1.4461 -0.3027
  231MOL0     H31163   0.836   6.138   6.313 -2.6120  1.4056  0.0259
  231MOL0     H31164   0.750   6.254   6.210 -0.3890  0.4655 -0.3752
  231MOL0     H31165   1.367   6.944   6.284 -2.6610 -1.3477 -2.4544
  231MOL0     H31166   1.472   7.167   6.358 -2.3232  4.0695  0.0169
  231MOL0     H31167   1.474   7.779   6.253  0.7066  3.8042  3.0863
  231MOL0     H31168   1.647   7.921   6.350  0.8620  0.6024  0.0414
  231MOL0     H31169   1.908   8.149   6.509  0.1292  0.0544  0.1057
  231MOL0     H31170   1.764   7.957   6.573  0.3422 -1.7284  1.0494
  231MOL0     H31171   1.485   7.723   6.515 -2.7273 -1.6491 -0.7136
  231MOL0     H31172   1.461   7.467   6.499  2.0030  0.4446 -1.6670
  231MOL0     H31173   1.273   7.278   6.665 -2.2116 -1.9533  2.2207
  231MOL0     H31174   1.305   7.272   6.831  0.8129 -1.3588  0.0485
  231MOL0     H31175   1.401   7.059   6.639  0.3604 -1.1950  0.4544
  231MOL0     H31176   1.252   7.058   6.721  0.0060 -0.2299  0.4909
  231MOL0     H31177   1.545   7.057   6.830  1.5372 -2.7906  0.7301
  231MOL0     H31178   1.439   6.911   6.823 -0.7956 -0.6940  1.7160
  231MOL0     H31179   1.393   7.157   7.008  2.1901 -0.4716  2.0542
  231MOL0     H31180   1.292   7.025   6.971  0.2362 -1.3769 -2.1460
  231MOL0     H31181   1.514   6.854   7.268  0.5667  0.7258  0.6558
  231MOL0     H31182   1.511   7.439   6.914 -3.1029 -1.2362 -1.1780
  231MOL0     H31183   1.567   7.802   6.979 -0.9145 -0.1785 -1.9572
  231MOL0     H31184   1.566   7.639   7.053  0.5323  1.2004  0.1326
  231MOL0     H31185   1.707   7.687   6.959  0.6294  4.6649 -1.4874
  232MOL0     O31186   8.214   4.450  10.042  0.6312  0.0425  0.2620
  232MOL0     C31187   8.274   4.549  10.084 -0.8989  0.2692 -0.5500
  232MOL0     O31188   8.401   4.576  10.044  0.0846 -0.3065 -0.0433
  232MOL0     C31189   8.455   4.506   9.939  0.2444 -0.0938  0.1703
  232MOL0     C31190   8.459   4.365   9.925  0.2846 -0.6038 -0.2037
  232MOL0     C31191   8.524   4.299   9.823  0.0348  0.4717  0.0194
  232MOL0     C31192   8.594   4.369   9.733  0.2082 -1.0052  0.1511
  232MOL0     O31193   8.680   4.304   9.653  0.1505 -0.5299  0.0944
  232MOL0     C31194   8.663   4.316   9.509 -0.8694  0.5032  0.6840
  232MOL0     C31195   8.791   4.381   9.461  0.2788 -0.7119  0.1580
  232MOL0     C31196   8.916   4.309   9.447 -0.2477  0.3924 -0.6384
  232MOL0     C31197   8.921   4.252   9.302  0.3461 -0.6425 -0.4033
  232MOL0     C31198   9.056   4.189   9.291 -0.5925 -0.1528 -0.7291
  232MOL0     C31199   9.073   4.132   9.148 -0.5946 -0.6390 -0.2173
  232MOL0     C31200   9.047   3.982   9.129  0.3120  0.2657 -0.8264
  232MOL0     C31201   9.018   3.937   8.986  0.4350 -0.0257 -0.7892
  232MOL0     N31202   9.049   3.788   8.965  0.5573 -0.1538  1.2600
  232MOL0     C31203   9.058   3.694   9.069 -0.2992 -0.5907  0.5025
  232MOL0     C31204   9.093   3.580   9.005  0.9169  0.3588  0.3745
  232MOL0     C31205   9.118   3.448   9.087 -0.1554  0.2036  0.0836
  232MOL0     C31206   9.025   3.333   9.046  1.5222 -0.5440 -0.2142
  232MOL0     C31207   8.894   3.341   9.134  0.0416 -0.5495  0.5420
  232MOL0     C31208   8.904   3.261   9.261  0.1860 -0.4071  0.1888
  232MOL0     O31209   8.773   3.236   9.324  0.5000 -0.0675 -0.1174
  232MOL0     C31210   8.771   3.209   9.461 -0.6750 -0.6874 -0.7030
  232MOL0     C31211   8.882   3.163   9.532 -0.2341 -0.2518  0.6842
  232MOL0     C31212   8.860   3.128   9.666 -0.5518 -0.4084  0.4853
  232MOL0     C31213   8.740   3.134   9.734  0.3211  0.0669  0.1461
  232MOL0     C31214   8.720   3.083   9.868  0.2162  0.0250  0.7334
  232MOL0     O31215   8.594   3.045   9.895  0.7667 -0.5242  0.0933
  232MOL0     C31216   8.551   3.022  10.019  0.0109 -0.1558  0.0627
  232MOL0     C31217   8.541   3.116  10.123  0.5218  0.7061  0.4820
  232MOL0     C31218   8.479   3.088  10.238 -0.5050  0.7417  0.0661
  232MOL0     C31219   8.428   2.963  10.272 -0.4556  0.2619  1.1154
  232MOL0     O31220   8.376   2.929  10.400 -0.8644  0.9835  0.7957
  232MOL0     C31221   8.362   2.786  10.431  0.8671 -0.2234  0.2394
  232MOL0     C31222   8.488   2.701  10.434  0.8674 -0.6055  0.2420
  232MOL0     C31223   8.455   2.562  10.505 -0.3602 -0.3043  0.0877
  232MOL0     C31224   8.580   2.469  10.478 -0.1786  0.0904  0.1666
  232MOL0     C31225   8.588   2.356  10.597  0.3308 -0.4104 -0.9847
  232MOL0     C31226   8.734   2.306  10.608 -0.4524 -0.4751  0.5936
  232MOL0     C31227   8.797   2.250  10.474  0.2329 -0.7190 -0.5912
  232MOL0     C31228   8.932   2.179  10.518  0.4216  0.5344  0.6297
  232MOL0    Cl31229   9.008   2.109  10.360  0.2743  0.0870 -0.0341
  232MOL0     C31230   8.442   2.868  10.169 -0.2258 -0.1409  0.0765
  232MOL0     C31231   8.491   2.900  10.045  0.0872  0.2801  0.4157
  232MOL0     O31232   8.813   3.052   9.942  0.2617  0.7546 -0.8080
  232MOL0     C31233   8.627   3.170   9.657 -0.1175  0.0365  1.1109
  232MOL0     C31234   8.645   3.220   9.521 -0.0243  0.5268 -0.3280
  232MOL0     N31235   9.106   3.614   8.876  0.2044 -0.5260 -0.1740
  232MOL0     N31236   9.075   3.735   8.845 -0.8946 -0.1061  0.6230
  232MOL0     C31237   8.597   4.506   9.744 -0.8082  0.2102 -1.4826
  232MOL0     C31238   8.529   4.572   9.848  0.0940  0.0781  0.6822
  232MOL0     C31239   8.206   4.638  10.184  0.1378 -0.0714  0.0719
  232MOL0     C31240   8.279   4.739  10.247  0.4431  0.6875  0.0642
  232MOL0     C31241   8.219   4.827  10.334 -2.1476  0.1057 -0.7050
  232MOL0     C31242   8.088   4.815  10.373  0.2678  0.1610  0.1728
  232MOL0     O31243   8.039   4.909  10.467  0.1763  0.2736 -0.0037
  232MOL0     C31244   7.959   4.854  10.576  0.6402 -0.6428 -0.8554
  232MOL0     C31245   7.894   4.965  10.661 -0.2812  0.7072 -0.1044
  232MOL0     C31246   7.782   5.043  10.589  0.2536 -0.7993 -0.2517
  232MOL0     C31247   7.714   5.142  10.691 -0.2710  0.2624  0.8813
  232MOL0     C31248   7.639   5.082  10.789 -0.1224  0.0009  0.9110
  232MOL0     C31249   7.581   5.021  10.882  0.1503 -0.6267  1.1625
  232MOL0     C31250   8.015   4.714  10.308 -0.0160 -0.1192  0.2186
  232MOL0     C31251   8.068   4.625  10.215 -0.7434  0.7380 -0.8115
  232MOL0     C31252   7.972   4.524  10.155 -1.1010 -0.2912 -0.8590
  232MOL0     H31253   8.405   4.298   9.991  1.2995 -2.6319 -1.3546
  232MOL0     H31254   8.519   4.191   9.810 -1.0296  0.2408  1.9837
  232MOL0     H31255   8.650   4.220   9.457 -0.6238  1.2485 -0.8034
  232MOL0     H31256   8.573   4.370   9.480 -1.1741 -0.8868 -1.1965
  232MOL0     H31257   8.811   4.471   9.520 -0.4634  0.6502 -1.6020
  232MOL0     H31258   8.778   4.422   9.361  1.7327  1.1237  0.6652
  232MOL0     H31259   8.922   4.229   9.522 -0.4705  0.4490 -0.5594
  232MOL0     H31260   8.999   4.379   9.448 -0.0289  0.1325  0.8289
  232MOL0     H31261   8.843   4.176   9.299  0.9786 -1.2834 -1.2826
  232MOL0     H31262   8.898   4.332   9.230 -1.7981  1.1934  2.1259
  232MOL0     H31263   9.131   4.267   9.306 -0.9123  0.2269 -1.1026
  232MOL0     H31264   9.086   4.118   9.369  0.2515 -0.2947 -1.1652
  232MOL0     H31265   9.005   4.188   9.083 -1.6465 -0.1669  1.2348
  232MOL0     H31266   9.174   4.156   9.115 -0.2338  2.4031  2.5212
  232MOL0     H31267   8.967   3.967   9.202  1.0107  1.4710  0.2307
  232MOL0     H31268   9.145   3.950   9.164  2.9358  5.8926 -1.8252
  232MOL0     H31269   8.921   3.942   8.935 -0.3580 -4.3069 -0.1149
  232MOL0     H31270   9.086   3.993   8.921 -0.3633 -1.3970 -2.9277
  232MOL0     H31271   9.045   3.712   9.175 -0.1662 -3.2342  1.0345
  232MOL0     H31272   9.217   3.408   9.063 -0.7858 -2.0700  0.9839
  232MOL0     H31273   9.120   3.466   9.195  2.1062 -1.3780  0.3772
  232MOL0     H31274   8.998   3.337   8.940 -3.2688  0.1437  0.7973
  232MOL0     H31275   9.078   3.238   9.051 -0.0647 -1.5147 -1.0737
  232MOL0     H31276   8.810   3.302   9.075 -1.7727  1.4231  1.6625
  232MOL0     H31277   8.877   3.449   9.144 -1.8685 -0.6158 -1.3307
  232MOL0     H31278   8.962   3.320   9.332  0.4781  2.5867 -2.3070
  232MOL0     H31279   8.953   3.164   9.250  1.8973  0.1991  1.9550
  232MOL0     H31280   8.980   3.159   9.486  0.9006  4.1839  2.2273
  232MOL0     H31281   8.945   3.093   9.723  0.0553 -2.5659 -1.6026
  232MOL0     H31282   8.591   3.210  10.102  0.3300  0.7093  0.0234
  232MOL0     H31283   8.470   3.167  10.312 -2.1468 -1.8567  2.8877
  232MOL0     H31284   8.321   2.783  10.533  2.9511 -0.4084  1.1290
  232MOL0     H31285   8.287   2.736  10.369 -2.0418  0.7587  2.7275
  232MOL0     H31286   8.524   2.679  10.333  3.0174  0.2867  0.7719
  232MOL0     H31287   8.552   2.754  10.505 -2.3817  0.0457  2.9395
  232MOL0     H31288   8.438   2.579  10.612  2.3208  2.2883  0.2071
  232MOL0     H31289   8.373   2.503  10.464  1.6741 -2.0653 -1.7539
  232MOL0     H31290   8.669   2.532  10.465 -0.0955 -0.0683 -0.0372
  232MOL0     H31291   8.558   2.413  10.387  0.0036 -1.0040  0.7821
  232MOL0     H31292   8.517   2.275  10.587 -0.2064  0.3324 -3.9659
  232MOL0     H31293   8.555   2.403  10.690  0.0386 -1.1529 -0.7069
  232MOL0     H31294   8.793   2.395  10.630 -3.4909  1.7951  0.2120
  232MOL0     H31295   8.743   2.240  10.695  0.7699  1.3118  1.9124
  232MOL0     H31296   8.838   2.337  10.422 -0.1696 -1.0457 -1.4870
  232MOL0     H31297   8.733   2.189  10.410 -0.3341  0.9081 -1.6351
  232MOL0     H31298   9.016   2.239  10.555  1.5456  0.1570 -1.1796
  232MOL0     H31299   8.899   2.111  10.597 -0.4944  0.4161  0.1659
  232MOL0     H31300   8.396   2.772  10.191 -3.3808  1.1179 -0.5117
  232MOL0     H31301   8.504   2.816   9.978 -1.6862  0.2209  0.0852
  232MOL0     H31302   8.527   3.170   9.700  0.0169 -3.9402  1.7724
  232MOL0     H31303   8.565   3.246   9.452  2.1862  0.6965 -2.9751
  232MOL0     H31304   8.663   4.565   9.682  1.6408  0.7286  1.3708
  232MOL0     H31305   8.543   4.679   9.856 -1.3475  0.2950  0.6585
  232MOL0     H31306   8.385   4.737  10.226  0.2421  1.7340 -1.1853
  232MOL0     H31307   8.272   4.917  10.363 -0.2599 -1.0453 -0.4094
  232MOL0     H31308   8.027   4.797  10.639  1.3995 -2.0566 -2.8312
  232MOL0     H31309   7.875   4.789  10.550 -2.2025  1.2482  2.7396
  232MOL0     H31310   7.977   5.030  10.690  0.2559 -0.0711  0.1662
  232MOL0     H31311   7.860   4.916  10.753  0.4613  0.8617  0.2618
  232MOL0     H31312   7.713   4.970  10.547  3.0902 -3.3132 -0.9167
  232MOL0     H31313   7.828   5.096  10.504 -0.4673 -0.6491 -0.5519
  232MOL0     H31314   7.789   5.202  10.743  1.5563 -1.5393  0.4952
  232MOL0     H31315   7.666   5.221  10.634 -0.8519  0.8613  2.1768
  232MOL0     H31316   7.538   4.958  10.958 -1.5515 -2.8271 -1.4465
  232MOL0     H31317   7.910   4.711  10.334 -0.0691  1.2480  0.2385
  232MOL0     H31318   7.988   4.530  10.047 -1.0027 -0.5827 -0.8606
  232MOL0     H31319   7.992   4.429  10.206 -0.0789  1.2154  1.7292
  232MOL0     H31320   7.869   4.552  10.179 -0.8341  1.5184 -1.7082
  233MOL0     O31321   1.138   2.896   8.241  0.4812  0.8845  0.0731
  233MOL0     C31322   1.182   2.858   8.352 -0.8902 -0.8807  0.4961
  233MOL0     O31323   1.178   2.947   8.458 -0.3480 -0.0439  0.9509
  233MOL0     C31324   1.131   3.069   8.420 -0.2490 -0.3170 -0.1132
  233MOL0     C31325   1.196   3.152   8.327  0.2730 -0.8878 -1.0706
  233MOL0     C31326   1.161   3.287   8.299  0.0026  0.0814 -0.8579
  233MOL0     C31327   1.055   3.334   8.376  0.1281  0.5278 -0.2928
  233MOL0     O31328   1.004   3.458   8.369 -0.2724 -0.2778 -0.0471
  233MOL0     C31329   1.056   3.553   8.282  0.0113  1.0013 -0.6067
  233MOL0     C31330   1.001   3.689   8.335 -0.9460  0.8005 -1.0080
  233MOL0     C31331   0.855   3.724   8.280 -0.1164  0.7872  0.4048
  233MOL0     C31332   0.834   3.724   8.130  0.3869 -0.1655 -0.1409
  233MOL0     C31333   0.912   3.831   8.047 -0.0745  0.0088  0.3376
  233MOL0     C31334   0.884   3.966   8.104 -0.2684 -0.6035 -0.3091
  233MOL0     C31335   0.944   4.070   7.996 -0.0121 -0.1458 -0.4971
  233MOL0     C31336   0.880   4.206   8.024  0.3973 -0.9836 -0.0965
  233MOL0     N31337   0.924   4.320   7.937  0.1685  0.2979 -0.1888
  233MOL0     C31338   0.840   4.425   7.888 -0.6873 -0.2073 -1.1192
  233MOL0     C31339   0.935   4.501   7.826 -0.2855  0.4228  0.3410
  233MOL0     C31340   0.911   4.641   7.764  0.8212  0.5180 -1.1893
  233MOL0     C31341   0.829   4.616   7.640 -0.3808  0.5328 -0.9793
  233MOL0     C31342   0.802   4.747   7.561  0.3113 -0.1999  0.6482
  233MOL0     C31343   0.914   4.789   7.461  1.0499  0.1714 -0.9087
  233MOL0     O31344   0.888   4.914   7.398  0.3618  0.5179 -0.3294
  233MOL0     C31345   0.959   4.954   7.295 -0.0220  0.9073  0.2046
  233MOL0     C31346   0.945   5.086   7.255  1.0247 -0.1296 -0.0218
  233MOL0     C31347   1.025   5.153   7.153 -0.0878  0.6057 -0.9476
  233MOL0     C31348   1.114   5.068   7.083 -0.7527  0.9106 -0.3921
  233MOL0     C31349   1.194   5.121   6.960  0.1448 -0.2219 -0.5793
  233MOL0     O31350   1.209   5.255   6.946  0.2522 -0.5136  0.5214
  233MOL0     C31351   1.266   5.290   6.821 -0.0468  0.3039 -0.7427
  233MOL0     C31352   1.404   5.301   6.805 -0.6593  0.4375 -0.1787
  233MOL0     C31353   1.459   5.325   6.678  0.5708 -0.5063  0.7748
  233MOL0     C31354   1.366   5.348   6.573 -0.1479  0.0763 -0.1451
  233MOL0     O31355   1.433   5.379   6.456  0.5722 -0.6684 -0.0708
  233MOL0     C31356   1.353   5.380   6.333  0.2845  0.1249 -0.1874
  233MOL0     C31357   1.430   5.385   6.203  0.2296  0.3155  0.0068
  233MOL0     C31358   1.525   5.256   6.192  0.1656 -0.2415  0.2157
  233MOL0     C31359   1.557   5.234   6.045 -0.3266 -0.6098  0.3967
  233MOL0     C31360   1.612   5.098   6.023  0.1640  0.2843 -0.5591
  233MOL0     C31361   1.603   5.084   5.870  0.9394 -0.2141  0.4436
  233MOL0     C31362   1.647   4.949   5.829 -0.1486 -0.1324 -0.3262
  233MOL0     C31363   1.666   4.947   5.680 -0.1341  0.1392  0.5944
  233MOL0    Cl31364   1.823   5.034   5.633 -0.0752  0.4552 -0.3931
  233MOL0     C31365   1.231   5.351   6.590  0.3560 -0.6535  0.4055
  233MOL0     C31366   1.182   5.314   6.714 -0.5359 -0.5747 -0.0689
  233MOL0     O31367   1.249   5.034   6.898  0.0422  0.5787  0.1394
  233MOL0     C31368   1.114   4.926   7.114 -0.8929  0.0067  0.2731
  233MOL0     C31369   1.040   4.873   7.219  0.7767 -0.0592 -0.2934
  233MOL0     N31370   1.060   4.444   7.838  1.1222 -0.2004  0.0860
  233MOL0     N31371   1.051   4.332   7.898 -0.6079  0.0800  0.1385
  233MOL0     C31372   0.987   3.251   8.479 -0.9519 -0.2147  0.5979
  233MOL0     C31373   1.015   3.115   8.492  0.5131  1.4370 -0.4548
  233MOL0     C31374   1.222   2.724   8.385  0.0076  0.3302 -0.3281
  233MOL0     C31375   1.250   2.692   8.518 -0.4291  0.2175  0.5046
  233MOL0     C31376   1.277   2.566   8.565 -0.0811 -0.3432  0.1660
  233MOL0     C31377   1.269   2.460   8.475  0.3404  0.3982  0.4433
  233MOL0     O31378   1.284   2.335   8.511  0.2013 -0.1245 -0.1413
  233MOL0     C31379   1.189   2.300   8.608  1.3369  0.9568 -0.5685
  233MOL0     C31380   1.218   2.156   8.664  0.0639 -0.0843  0.5960
  233MOL0     C31381   1.206   2.062   8.539  0.1571  0.3559  0.0084
  233MOL0     C31382   1.245   1.917   8.557 -0.1871  0.3731 -1.2670
  233MOL0     C31383   1.372   1.885   8.621 -0.2249 -0.9092  1.1903
  233MOL0     C31384   1.479   1.862   8.671 -0.2277 -0.5259 -1.0345
  233MOL0     C31385   1.263   2.487   8.339  0.3315 -0.2322  0.2436
  233MOL0     C31386   1.232   2.613   8.291  0.0731  0.7175 -0.4198
  233MOL0     C31387   1.196   2.614   8.140  0.4657 -0.8856 -0.7178
  233MOL0     H31388   1.287   3.123   8.275  1.1137  2.2148 -1.5440
  233MOL0     H31389   1.215   3.336   8.220 -0.4640 -1.9090 -2.5012
  233MOL0     H31390   1.165   3.565   8.292  0.1170 -0.8094  1.1124
  233MOL0     H31391   1.025   3.526   8.180  3.4412 -1.4374 -1.1886
  233MOL0     H31392   1.072   3.764   8.300  0.7903 -0.3161 -0.0821
  233MOL0     H31393   1.006   3.687   8.444 -2.3584  2.7412 -0.8680
  233MOL0     H31394   0.823   3.823   8.314 -4.9829 -0.1912 -0.6554
  233MOL0     H31395   0.789   3.656   8.334 -1.3796  0.2297 -1.7363
  233MOL0     H31396   0.861   3.621   8.107  1.5561 -0.2574  1.5047
  233MOL0     H31397   0.727   3.732   8.110  0.2814 -0.2474  0.3723
  233MOL0     H31398   1.021   3.821   8.056  0.0461  0.7277 -0.2464
  233MOL0     H31399   0.880   3.825   7.943 -0.8461  0.0705  0.5663
  233MOL0     H31400   0.778   3.973   8.130 -0.5031  1.0502 -1.5181
  233MOL0     H31401   0.939   3.970   8.199 -1.2483  3.1045  0.2549
  233MOL0     H31402   0.917   4.047   7.893  0.2519 -1.9518 -0.1807
  233MOL0     H31403   1.053   4.069   8.005 -0.1217 -0.1688  1.2560
  233MOL0     H31404   0.771   4.200   8.017  0.0597  1.3863  1.7256
  233MOL0     H31405   0.896   4.240   8.127  1.0658  0.5114 -0.6593
  233MOL0     H31406   0.733   4.441   7.897 -0.2431  2.0596  1.3088
  233MOL0     H31407   0.862   4.703   7.840  1.9987 -1.0209  0.9470
  233MOL0     H31408   1.006   4.673   7.722 -0.3380  0.9240 -3.6600
  233MOL0     H31409   0.888   4.553   7.573 -1.2399 -0.9736 -0.3606
  233MOL0     H31410   0.728   4.578   7.658 -0.2028 -0.7496 -2.4105
  233MOL0     H31411   0.785   4.834   7.626  1.3850  1.6021 -1.3549
  233MOL0     H31412   0.708   4.740   7.506 -0.6780  1.6535  1.9455
  233MOL0     H31413   0.910   4.708   7.387 -0.0331 -0.8870  0.2516
  233MOL0     H31414   1.014   4.794   7.504 -0.2236  0.2305  2.2942
  233MOL0     H31415   0.890   5.161   7.311  0.2264 -2.1480  1.9993
  233MOL0     H31416   1.017   5.258   7.129  2.0952  0.4122 -2.8855
  233MOL0     H31417   1.477   5.278   6.881  1.1587 -1.1160 -2.2759
  233MOL0     H31418   1.566   5.336   6.664  0.2839 -0.7370 -2.2783
  233MOL0     H31419   1.297   5.286   6.327  0.5670  0.0701 -3.2734
  233MOL0     H31420   1.284   5.464   6.319  2.1746  1.2938 -3.8301
  233MOL0     H31421   1.360   5.397   6.120 -0.8747 -0.2265  0.8405
  233MOL0     H31422   1.494   5.474   6.202  1.1095 -0.2884 -1.2026
  233MOL0     H31423   1.617   5.269   6.250  0.4588  1.0899 -0.5083
  233MOL0     H31424   1.480   5.165   6.232  2.2097 -1.4173 -0.0095
  233MOL0     H31425   1.628   5.311   6.013 -1.0421  0.0974  0.4815
  233MOL0     H31426   1.464   5.243   5.988  0.5094  0.0071 -0.9099
  233MOL0     H31427   1.546   5.028   6.074 -0.7683  2.3271  1.2018
  233MOL0     H31428   1.711   5.099   6.071  0.5911  2.9302 -1.2942
  233MOL0     H31429   1.501   5.083   5.831  0.6365 -0.0656  1.2265
  233MOL0     H31430   1.656   5.169   5.826 -0.8168  0.8622  0.3246
  233MOL0     H31431   1.572   4.875   5.859 -1.0105  1.1940  0.8988
  233MOL0     H31432   1.729   4.913   5.892 -1.9193 -0.2933  2.0310
  233MOL0     H31433   1.693   4.849   5.638 -1.7059 -1.2869  2.7548
  233MOL0     H31434   1.580   4.979   5.620 -0.6248 -0.1635  1.1420
  233MOL0     H31435   1.165   5.355   6.504 -0.8801 -2.7970  1.1863
  233MOL0     H31436   1.074   5.301   6.722 -1.2633  0.8618 -4.8756
  233MOL0     H31437   1.184   4.865   7.058 -1.3974  2.1695 -2.9693
  233MOL0     H31438   1.056   4.768   7.243  3.5344  1.0720  4.1231
  233MOL0     H31439   0.911   3.304   8.535  0.5389  2.0642  0.6272
  233MOL0     H31440   0.962   3.051   8.562  1.1660  2.3608  0.9204
  233MOL0     H31441   1.263   2.775   8.587 -0.7491  2.7947 -2.3476
  233MOL0     H31442   1.292   2.556   8.672 -1.1307  0.8586  0.4581
  233MOL0     H31443   1.087   2.295   8.570  0.1721 -3.0382  2.4070
  233MOL0     H31444   1.178   2.368   8.693  1.5896  0.4073 -0.0924
  233MOL0     H31445   1.153   2.129   8.748 -0.1861  0.5313  0.6055
  233MOL0     H31446   1.323   2.157   8.694 -0.4495  1.8246  2.5485
  233MOL0     H31447   1.241   2.094   8.440 -1.1140 -3.7274 -1.9948
  233MOL0     H31448   1.099   2.064   8.519  0.1225  2.2101  0.1566
  233MOL0     H31449   1.180   1.860   8.624  0.5018  0.9372 -0.0736
  233MOL0     H31450   1.237   1.866   8.461  0.4557 -2.6566  0.1554
  233MOL0     H31451   1.574   1.840   8.716 -0.5464 -1.4811 -0.8101
  233MOL0     H31452   1.271   2.404   8.270 -1.3884  0.2223 -0.5896
  233MOL0     H31453   1.091   2.645   8.130 -0.0533 -3.1935 -5.5335
  233MOL0     H31454   1.257   2.691   8.092  0.6203  1.4367  2.8486
  233MOL0     H31455   1.221   2.523   8.085  2.6943 -0.0996 -1.0872
  234MOL0     O31456  10.672   1.203   6.216  0.5517  0.5212 -0.3541
  234MOL0     C31457  10.745   1.179   6.306 -0.3451  0.2595 -0.5247
  234MOL0     O31458  10.782   1.059   6.350  0.3408  0.4749  0.1966
  234MOL0     C31459  10.698   0.958   6.318  0.6435  0.1320 -0.9704
  234MOL0     C31460  10.652   0.914   6.193 -0.1477 -0.8839  0.1273
  234MOL0     C31461  10.569   0.806   6.184 -0.2473  0.5939  0.2402
  234MOL0     C31462  10.538   0.723   6.295 -0.6312 -0.3719 -0.2787
  234MOL0     O31463  10.467   0.598   6.276 -0.4600 -0.0024 -0.7900
  234MOL0     C31464  10.356   0.597   6.188  0.0595  0.5172  0.1841
  234MOL0     C31465  10.381   0.545   6.043  0.2865  0.3254 -0.2886
  234MOL0     C31466  10.285   0.606   5.940 -0.6807  0.3171 -0.4507
  234MOL0     C31467  10.146   0.565   5.960 -1.0946  0.1005  0.5626
  234MOL0     C31468  10.053   0.612   5.856  1.4389 -0.2619  0.2034
  234MOL0     C31469   9.906   0.566   5.897 -0.7555  0.7334  0.6370
  234MOL0     C31470   9.817   0.547   5.776  0.2439  0.2190  0.8862
  234MOL0     C31471   9.699   0.447   5.803 -0.1066 -0.2494 -0.6206
  234MOL0     N31472   9.619   0.422   5.684  0.4839 -0.1627  0.4235
  234MOL0     C31473   9.649   0.332   5.588  0.8224 -0.7394  0.7379
  234MOL0     C31474   9.549   0.343   5.498 -0.4362 -0.2757 -0.6892
  234MOL0     C31475   9.535   0.259   5.364  0.6085 -0.6274 -0.0130
  234MOL0     C31476   9.392   0.205   5.345 -1.2973 -0.4930 -0.2813
  234MOL0     C31477   9.360   0.096   5.448  0.5979  0.0688 -0.9981
  234MOL0     C31478   9.219   0.042   5.430  0.0156  0.5042 -0.0431
  234MOL0     O31479   9.203  -0.021   5.307  0.7049  0.7041  0.0789
  234MOL0     C31480   9.085  -0.040   5.253  0.1472  0.9880  0.1960
  234MOL0     C31481   9.068  -0.052   5.111  0.0561  0.7300 -0.8184
  234MOL0     C31482   8.933  -0.068   5.060 -1.5922  0.1603  0.9183
  234MOL0     C31483   8.828  -0.094   5.143 -0.0468 -0.1902  0.0626
  234MOL0     C31484   8.697  -0.120   5.089  0.2939  0.1117  1.0861
  234MOL0     O31485   8.589  -0.091   5.173  0.0177  0.1373  0.3297
  234MOL0     C31486   8.468  -0.114   5.119 -0.5921  0.3825  0.5503
  234MOL0     C31487   8.386  -0.016   5.068  0.2471 -0.1233 -0.0052
  234MOL0     C31488   8.251  -0.046   5.015 -0.2731 -0.3424 -0.8142
  234MOL0     C31489   8.206  -0.181   5.024 -0.3797 -0.7923 -0.8124
  234MOL0     O31490   8.082  -0.216   4.983 -1.1110  0.0752 -0.0133
  234MOL0     C31491   7.975  -0.122   4.964 -0.6732 -0.7614 -1.0377
  234MOL0     C31492   7.844  -0.181   4.930  0.9043  0.1626 -0.6775
  234MOL0     C31493   7.851  -0.289   4.819 -0.5241 -0.1700 -0.1353
  234MOL0     C31494   7.711  -0.326   4.765 -0.4159 -0.2965  0.0532
  234MOL0     C31495   7.722  -0.419   4.645  0.2537 -0.1761 -0.0494
  234MOL0     C31496   7.584  -0.454   4.588  0.2233 -0.2672  0.1536
  234MOL0     C31497   7.522  -0.357   4.480 -0.1493 -0.6131 -0.1871
  234MOL0     C31498   7.394  -0.418   4.416 -1.2639 -0.7155  0.1430
  234MOL0    Cl31499   7.256  -0.406   4.538 -0.1831  0.2194 -0.1303
  234MOL0     C31500   8.296  -0.276   5.067  0.7511 -0.7409  0.5046
  234MOL0     C31501   8.427  -0.246   5.107 -0.2927  0.1403 -0.0483
  234MOL0     O31502   8.689  -0.140   4.970 -0.2998 -0.1313  0.6525
  234MOL0     C31503   8.847  -0.090   5.275 -0.3854  0.7061 -0.7705
  234MOL0     C31504   8.970  -0.059   5.334  0.5155  0.9107 -0.0061
  234MOL0     N31505   9.460   0.442   5.530 -0.3646  0.4535  0.5509
  234MOL0     N31506   9.509   0.483   5.643  0.6719 -0.1102 -1.1872
  234MOL0     C31507  10.598   0.766   6.419  0.2359 -0.4283 -0.0924
  234MOL0     C31508  10.675   0.877   6.431 -0.5986 -1.1455  0.4444
  234MOL0     C31509  10.802   1.297   6.360 -0.0853 -0.3187 -1.1649
  234MOL0     C31510  10.883   1.276   6.477  1.1105  0.6593 -0.1238
  234MOL0     C31511  10.943   1.378   6.540  0.5274 -0.0609  0.1757
  234MOL0     C31512  10.937   1.510   6.496  0.4356 -0.7792 -0.6410
  234MOL0     O31513  10.992   1.614   6.550  0.0080 -0.1247  0.0887
  234MOL0     C31514  11.134   1.626   6.534  0.4263 -0.6559  0.1480
  234MOL0     C31515  11.216   1.668   6.654  0.5577 -0.5972 -0.4395
  234MOL0     C31516  11.272   1.547   6.732  0.4066 -0.0680 -0.4558
  234MOL0     C31517  11.352   1.608   6.854  0.4578 -0.9139  0.1857
  234MOL0     C31518  11.403   1.506   6.946  0.6341  0.7808 -0.2143
  234MOL0     C31519  11.435   1.410   7.005 -0.6790 -0.2091  0.1176
  234MOL0     C31520  10.852   1.531   6.389  0.3892 -0.5264  0.8922
  234MOL0     C31521  10.792   1.435   6.308 -0.7669 -0.5398  0.2246
  234MOL0     C31522  10.728   1.486   6.178  0.0059  0.6045 -0.2161
  234MOL0     H31523  10.674   0.971   6.103 -4.8949 -1.1895 -1.5557
  234MOL0     H31524  10.539   0.778   6.084 -3.0564  1.1872  0.8250
  234MOL0     H31525  10.278   0.527   6.221  0.3623 -0.6961 -1.5573
  234MOL0     H31526  10.308   0.696   6.181 -1.3369 -0.1930 -0.8601
  234MOL0     H31527  10.374   0.437   6.032 -0.4661  0.5773 -2.9031
  234MOL0     H31528  10.481   0.579   6.015  1.1085 -2.8602 -1.6817
  234MOL0     H31529  10.325   0.580   5.842 -1.3419  3.5530 -1.7159
  234MOL0     H31530  10.299   0.714   5.953  3.7046 -0.2835  1.5504
  234MOL0     H31531  10.141   0.456   5.952  0.9989  0.0631 -1.3446
  234MOL0     H31532  10.119   0.604   6.058 -5.3660  1.5772 -0.9628
  234MOL0     H31533  10.055   0.721   5.841  0.4226 -0.5588 -2.9267
  234MOL0     H31534  10.068   0.565   5.758  1.4104  3.5323 -1.8131
  234MOL0     H31535   9.914   0.467   5.943 -0.7932  0.6875  0.5449
  234MOL0     H31536   9.865   0.644   5.962  1.9218  1.3032  1.7702
  234MOL0     H31537   9.868   0.518   5.684 -0.5873  1.1421  0.1020
  234MOL0     H31538   9.768   0.643   5.757  0.5087  0.7729  2.8427
  234MOL0     H31539   9.750   0.355   5.835  1.6021  1.3623  1.5767
  234MOL0     H31540   9.632   0.494   5.876  1.2537  1.3844 -0.3754
  234MOL0     H31541   9.725   0.255   5.583 -1.9151 -3.7054  1.2472
  234MOL0     H31542   9.555   0.319   5.274 -1.2710  0.0936  0.0163
  234MOL0     H31543   9.607   0.176   5.365  1.9499  0.5006  0.1025
  234MOL0     H31544   9.314   0.282   5.349 -1.9524 -1.0647 -1.5039
  234MOL0     H31545   9.377   0.164   5.245 -2.8951  0.8798 -0.6560
  234MOL0     H31546   9.364   0.131   5.552  0.9723  1.7707 -1.5630
  234MOL0     H31547   9.426   0.009   5.438 -2.2694 -2.5550  0.9550
  234MOL0     H31548   9.146   0.122   5.443 -0.0707  0.4474 -0.1831
  234MOL0     H31549   9.202  -0.035   5.506  0.4023 -0.0956 -0.5504
  234MOL0     H31550   9.156  -0.029   5.052 -0.2802  0.0817 -1.6018
  234MOL0     H31551   8.926  -0.077   4.953  0.9122 -1.3057  0.7973
  234MOL0     H31552   8.429   0.084   5.073  1.9013 -0.8535  1.6440
  234MOL0     H31553   8.186   0.028   4.971 -0.3762  0.2741  0.3347
  234MOL0     H31554   7.959  -0.066   5.056  0.5103  0.3285 -1.4623
  234MOL0     H31555   8.009  -0.062   4.879 -1.0454  0.2714 -0.4760
  234MOL0     H31556   7.822  -0.232   5.024  1.5692  1.2711  0.0963
  234MOL0     H31557   7.769  -0.103   4.911 -0.0273 -1.5870 -6.0591
  234MOL0     H31558   7.915  -0.254   4.738 -2.4175  3.2232 -0.3546
  234MOL0     H31559   7.890  -0.381   4.864 -1.7973 -0.6239  0.1074
  234MOL0     H31560   7.661  -0.231   4.742  0.6375  0.5233  1.0409
  234MOL0     H31561   7.655  -0.374   4.846  0.0690 -3.3462 -1.3062
  234MOL0     H31562   7.776  -0.507   4.681  3.1968  1.7349  0.4953
  234MOL0     H31563   7.788  -0.377   4.569  0.4301  2.0988  1.2691
  234MOL0     H31564   7.599  -0.552   4.542  0.8638 -1.8206  3.4518
  234MOL0     H31565   7.513  -0.465   4.670 -0.0807 -1.3293 -0.2361
  234MOL0     H31566   7.596  -0.329   4.404  3.0600 -0.1853  2.8168
  234MOL0     H31567   7.487  -0.268   4.534 -2.3095 -1.6029  0.1339
  234MOL0     H31568   7.368  -0.366   4.323  0.2047 -2.8922 -1.6092
  234MOL0     H31569   7.417  -0.524   4.402 -0.9434 -1.0553  2.8391
  234MOL0     H31570   8.272  -0.381   5.057  4.3034 -1.6794  0.4902
  234MOL0     H31571   8.500  -0.320   5.136  0.6067  0.6901 -0.8422
  234MOL0     H31572   8.772  -0.097   5.354  0.0711  3.4657  0.0171
  234MOL0     H31573   8.987  -0.075   5.440  0.1392 -2.3371 -0.3468
  234MOL0     H31574  10.598   0.709   6.511 -1.5831  3.1761  2.3694
  234MOL0     H31575  10.714   0.913   6.526 -0.6540 -1.3230  0.5338
  234MOL0     H31576  10.889   1.182   6.531 -1.3919  1.2618  1.3702
  234MOL0     H31577  10.991   1.364   6.637  0.0648  0.6111  0.5117
  234MOL0     H31578  11.164   1.695   6.454  3.6677 -0.8743  1.0199
  234MOL0     H31579  11.166   1.529   6.494  0.8347 -0.6079  0.3550
  234MOL0     H31580  11.169   1.737   6.724  0.4687  0.6641 -1.7035
  234MOL0     H31581  11.306   1.724   6.628  0.7055 -0.0466  1.1516
  234MOL0     H31582  11.342   1.497   6.665  2.2089  1.9118 -0.1175
  234MOL0     H31583  11.198   1.475   6.771  3.2884 -2.5142  0.9311
  234MOL0     H31584  11.433   1.668   6.812 -1.3394 -0.1210 -2.3704
  234MOL0     H31585  11.289   1.669   6.919  0.8890 -3.3281  3.1189
  234MOL0     H31586  11.474   1.330   7.065  0.6644 -0.7780 -1.4686
  234MOL0     H31587  10.857   1.634   6.356 -0.1344 -0.4470  1.0454
  234MOL0     H31588  10.770   1.459   6.081  0.1656  5.4270 -1.7438
  234MOL0     H31589  10.626   1.445   6.175  0.7257 -1.1989 -1.5498
  234MOL0     H31590  10.740   1.594   6.169  1.2831  0.5241  0.2617
  235MOL0     O31591   6.218   8.877   9.257  0.8157 -0.3838  0.8599
  235MOL0     C31592   6.336   8.875   9.271 -0.2361  0.6146 -0.5341
  235MOL0     O31593   6.410   8.760   9.268 -0.4011  0.2157  0.6642
  235MOL0     C31594   6.356   8.657   9.207  0.1159 -0.2652 -0.6412
  235MOL0     C31595   6.398   8.531   9.245  0.0280  0.2665 -0.3358
  235MOL0     C31596   6.372   8.416   9.174  0.0265  0.1382 -0.2532
  235MOL0     C31597   6.301   8.418   9.053 -0.7288  0.4988  0.8669
  235MOL0     O31598   6.248   8.312   8.979  0.0975  0.7321  0.1263
  235MOL0     C31599   6.232   8.192   9.056 -0.2534 -0.0365 -0.3710
  235MOL0     C31600   6.163   8.102   8.955 -0.4328 -0.6125  0.0012
  235MOL0     C31601   6.183   7.948   8.977  0.4222 -0.3820 -0.2317
  235MOL0     C31602   6.046   7.894   9.042 -0.5190  0.9617 -0.0224
  235MOL0     C31603   6.043   7.746   9.062 -0.4636 -0.8149  0.0004
  235MOL0     C31604   6.125   7.715   9.195  0.9655 -0.9724  0.9599
  235MOL0     C31605   6.145   7.562   9.190  0.3849 -0.8558  0.2865
  235MOL0     C31606   6.236   7.522   9.303 -0.5629  0.1066  0.2128
  235MOL0     N31607   6.378   7.533   9.266  0.3085  0.3922  0.2957
  235MOL0     C31608   6.458   7.433   9.235 -0.2895  0.8071  0.6225
  235MOL0     C31609   6.578   7.486   9.209 -0.6176  0.1380  0.4734
  235MOL0     C31610   6.705   7.419   9.159  0.1889 -0.5710  0.8029
  235MOL0     C31611   6.678   7.380   9.012  0.1150  0.4278  0.9798
  235MOL0     C31612   6.709   7.492   8.911  0.3745  0.1175 -0.2207
  235MOL0     C31613   6.748   7.450   8.778 -0.4934  0.4282  0.5548
  235MOL0     O31614   6.633   7.368   8.745 -0.1881 -0.3468 -0.5440
  235MOL0     C31615   6.620   7.306   8.626 -0.0379  0.0898  0.3024
  235MOL0     C31616   6.713   7.317   8.519  0.9220  0.2400 -0.5192
  235MOL0     C31617   6.713   7.220   8.420  0.2039  0.5612  0.4673
  235MOL0     C31618   6.607   7.127   8.406 -0.3349 -0.3613  0.0153
  235MOL0     C31619   6.618   7.018   8.314 -0.4219 -1.0261 -0.2254
  235MOL0     O31620   6.663   7.046   8.189 -0.4115  0.3456  0.1293
  235MOL0     C31621   6.689   6.952   8.097 -0.8747 -0.3684  0.4767
  235MOL0     C31622   6.775   6.850   8.126 -0.2352 -0.6204 -0.5301
  235MOL0     C31623   6.801   6.751   8.041  0.0197  0.3111  0.4549
  235MOL0     C31624   6.757   6.766   7.909 -0.3259  0.4567  0.1936
  235MOL0     O31625   6.791   6.683   7.802 -0.2189  0.5992 -1.4972
  235MOL0     C31626   6.917   6.600   7.818  0.1428  0.0568  0.7925
  235MOL0     C31627   6.888   6.460   7.887 -0.1937  0.6160 -0.5049
  235MOL0     C31628   6.792   6.381   7.799 -0.0549  0.2480 -0.0621
  235MOL0     C31629   6.757   6.237   7.833  0.1615  0.4778 -0.1260
  235MOL0     C31630   6.876   6.155   7.883  0.5058 -0.0829  0.3744
  235MOL0     C31631   6.826   6.018   7.937  0.9694 -0.4373 -0.1212
  235MOL0     C31632   6.931   5.925   7.987 -0.6226 -0.1033 -0.7458
  235MOL0     C31633   6.975   5.937   8.126 -0.0070  0.1357 -0.6340
  235MOL0    Cl31634   6.879   5.839   8.241  0.2282 -0.2792 -0.0114
  235MOL0     C31635   6.677   6.870   7.867 -0.3538  0.8387  0.2752
  235MOL0     C31636   6.642   6.960   7.966 -0.7493  0.3291 -0.7098
  235MOL0     O31637   6.589   6.908   8.357  0.0712  0.3649 -0.5318
  235MOL0     C31638   6.498   7.134   8.505 -0.4272 -0.1428 -0.8368
  235MOL0     C31639   6.514   7.218   8.612  0.1035  0.3196 -0.2816
  235MOL0     N31640   6.580   7.611   9.250  0.5562 -0.6590 -0.9043
  235MOL0     N31641   6.458   7.641   9.276  0.5600  0.4789 -0.3467
  235MOL0     C31642   6.266   8.544   9.011 -0.6011 -0.7261 -0.1006
  235MOL0     C31643   6.283   8.663   9.088  0.6318 -0.3911  0.1928
  235MOL0     C31644   6.404   8.999   9.314  0.4787 -0.1720 -0.4381
  235MOL0     C31645   6.481   9.001   9.434 -0.0710 -0.1899  0.4493
  235MOL0     C31646   6.544   9.117   9.479  0.1217  0.4382  0.5772
  235MOL0     C31647   6.532   9.235   9.396 -0.0268  0.2242  0.8175
  235MOL0     O31648   6.605   9.345   9.424 -0.7534  0.2226 -0.1772
  235MOL0     C31649   6.539   9.420   9.524 -1.1284  0.0294  0.7462
  235MOL0     C31650   6.602   9.558   9.518  0.5768 -0.3609  0.2472
  235MOL0     C31651   6.587   9.621   9.380  0.0929  0.4862  0.1383
  235MOL0     C31652   6.728   9.663   9.326  0.6685 -0.2394 -0.0872
  235MOL0     C31653   6.698   9.761   9.215  0.4327 -0.4199 -1.1484
  235MOL0     C31654   6.719   9.845   9.126 -0.1363  0.7318 -0.5977
  235MOL0     C31655   6.447   9.230   9.282 -0.4312  1.1560  0.4470
  235MOL0     C31656   6.377   9.117   9.239  0.6391 -0.6628 -0.0541
  235MOL0     C31657   6.295   9.125   9.113 -0.9182  0.3933 -0.3637
  235MOL0     H31658   6.472   8.524   9.325 -1.0378  1.6989  0.8406
  235MOL0     H31659   6.418   8.326   9.213 -0.2604 -0.5985 -1.5649
  235MOL0     H31660   6.328   8.155   9.095 -0.4600  1.1834  1.4124
  235MOL0     H31661   6.166   8.205   9.142  2.0941  1.9210  1.2755
  235MOL0     H31662   6.216   8.118   8.860 -1.2109 -2.2390 -0.7344
  235MOL0     H31663   6.057   8.126   8.947 -0.4222 -0.5553  0.0214
  235MOL0     H31664   6.268   7.917   9.037 -0.1619 -3.1041 -0.6619
  235MOL0     H31665   6.202   7.902   8.879  3.1822  2.2015 -1.0292
  235MOL0     H31666   6.046   7.934   9.143 -0.7336 -0.0552  0.3916
  235MOL0     H31667   5.962   7.925   8.979 -0.1881  1.5436 -0.1839
  235MOL0     H31668   5.937   7.725   9.080 -1.1431  0.6407 -1.9959
  235MOL0     H31669   6.072   7.691   8.972  0.0266 -0.5136 -0.0319
  235MOL0     H31670   6.219   7.771   9.201  0.3976  0.1788 -0.3728
  235MOL0     H31671   6.056   7.735   9.278  1.0365 -2.1858  1.3271
  235MOL0     H31672   6.179   7.520   9.095  0.6958  0.1660 -0.0710
  235MOL0     H31673   6.043   7.527   9.211 -0.9237  0.7850 -2.6954
  235MOL0     H31674   6.230   7.587   9.390  1.9506  1.4790 -0.5305
  235MOL0     H31675   6.221   7.415   9.320 -1.8963 -0.5001 -3.6610
  235MOL0     H31676   6.434   7.328   9.224 -0.5728  1.0768 -1.8635
  235MOL0     H31677   6.782   7.497   9.159 -1.6873  1.4127  1.5986
  235MOL0     H31678   6.720   7.337   9.230  0.0703  0.5654  2.2017
  235MOL0     H31679   6.758   7.306   9.000  0.5304  1.0166  0.0617
  235MOL0     H31680   6.575   7.346   9.002 -1.1030  3.8294  0.5933
  235MOL0     H31681   6.801   7.545   8.938 -0.1420  0.6560  0.5157
  235MOL0     H31682   6.621   7.557   8.911 -0.2594 -0.6922 -1.5396
  235MOL0     H31683   6.840   7.392   8.777  0.9370  2.5984 -0.7134
  235MOL0     H31684   6.761   7.537   8.712  1.3262  0.2868  0.6874
  235MOL0     H31685   6.793   7.390   8.531  2.1596 -0.8062 -2.0420
  235MOL0     H31686   6.797   7.227   8.351  1.1828 -2.3155  1.2236
  235MOL0     H31687   6.824   6.844   8.223 -0.6922 -3.2472 -0.3873
  235MOL0     H31688   6.858   6.667   8.080  1.7348  1.2052 -0.0411
  235MOL0     H31689   6.956   6.597   7.716  0.5703  3.5442  0.7449
  235MOL0     H31690   6.995   6.644   7.879 -0.3878  0.0551  1.4872
  235MOL0     H31691   6.985   6.408   7.893 -0.3000  0.3877 -0.7477
  235MOL0     H31692   6.854   6.473   7.990  0.4143  0.5049 -0.2805
  235MOL0     H31693   6.695   6.432   7.800 -0.0067  0.4411 -1.7047
  235MOL0     H31694   6.821   6.392   7.694  1.1278 -1.2969  0.0792
  235MOL0     H31695   6.708   6.191   7.747  2.0133 -0.7786 -0.5878
  235MOL0     H31696   6.681   6.237   7.912 -1.8501 -1.4907 -1.9261
  235MOL0     H31697   6.945   6.195   7.958  3.6222  1.1058 -2.8953
  235MOL0     H31698   6.943   6.150   7.797  1.0344 -0.7838  0.8170
  235MOL0     H31699   6.749   6.034   8.013  0.8334  0.2195 -0.3950
  235MOL0     H31700   6.776   5.977   7.850  0.6955  0.7094 -0.5156
  235MOL0     H31701   7.021   5.949   7.929 -1.1238 -1.7425 -2.2784
  235MOL0     H31702   6.912   5.819   7.967 -1.6053  0.0048 -0.4293
  235MOL0     H31703   7.078   5.903   8.140  0.0417  0.9464  1.1771
  235MOL0     H31704   6.974   6.042   8.156  2.0082  0.8153 -2.6657
  235MOL0     H31705   6.640   6.881   7.766 -1.3798  4.1373  0.8864
  235MOL0     H31706   6.577   7.045   7.949  0.2399  0.7420 -2.6632
  235MOL0     H31707   6.416   7.063   8.511  0.0422 -0.7232 -1.1671
  235MOL0     H31708   6.456   7.221   8.704  1.5317  1.8698  0.6371
  235MOL0     H31709   6.196   8.558   8.929  2.2271  0.9586 -2.3955
  235MOL0     H31710   6.272   8.756   9.033  1.8590  0.6676  1.6432
  235MOL0     H31711   6.502   8.915   9.497 -0.1293 -0.8741 -0.4504
  235MOL0     H31712   6.603   9.094   9.567  0.5414  0.5648  0.3351
  235MOL0     H31713   6.546   9.374   9.623  0.5498 -0.1739  0.5603
  235MOL0     H31714   6.432   9.424   9.500 -0.8477 -0.9110 -0.7883
  235MOL0     H31715   6.704   9.558   9.557 -0.4917  0.7234  3.3871
  235MOL0     H31716   6.545   9.620   9.588 -0.0646 -2.0949  1.3283
  235MOL0     H31717   6.518   9.703   9.402 -1.3149 -0.7748  0.6044
  235MOL0     H31718   6.530   9.552   9.316 -3.4196  1.3633  2.0421
  235MOL0     H31719   6.777   9.718   9.407  1.5716 -2.9115  1.3002
  235MOL0     H31720   6.798   9.591   9.285  2.0818  1.5803 -1.0261
  235MOL0     H31721   6.740   9.921   9.054  0.8675  0.1494 -0.9430
  235MOL0     H31722   6.420   9.316   9.221  0.6783 -1.7296 -4.7714
  235MOL0     H31723   6.260   9.228   9.099  4.7603  2.6093 -1.1051
  235MOL0     H31724   6.363   9.100   9.031 -2.8677 -0.1704 -1.8874
  235MOL0     H31725   6.209   9.058   9.114 -3.0595  2.8783 -2.7230
  236MOL0     O31726   8.695  10.429   5.776  0.1919  0.1090 -0.7630
  236MOL0     C31727   8.609  10.343   5.791  1.0801  0.5185  0.5005
  236MOL0     O31728   8.530  10.297   5.689  0.2285 -0.2579  0.4807
  236MOL0     C31729   8.551  10.331   5.555  0.2894  0.1105  1.3594
  236MOL0     C31730   8.442  10.401   5.482  0.2657  0.1389  0.4007
  236MOL0     C31731   8.459  10.416   5.345 -0.2540 -0.4052  0.3319
  236MOL0     C31732   8.567  10.352   5.277  0.2187  0.4376  0.0159
  236MOL0     O31733   8.586  10.345   5.141 -0.6899 -1.3132 -0.1780
  236MOL0     C31734   8.487  10.383   5.048  0.0990  0.1974 -0.1618
  236MOL0     C31735   8.525  10.310   4.928 -0.1069  0.6172 -0.1061
  236MOL0     C31736   8.433  10.333   4.815 -0.0489 -0.1778  0.4459
  236MOL0     C31737   8.394  10.478   4.783 -1.3744 -0.4583 -0.4502
  236MOL0     C31738   8.307  10.497   4.654  0.3943 -0.2856  0.5348
  236MOL0     C31739   8.256  10.643   4.639 -0.3133  0.8533  0.0982
  236MOL0     C31740   8.180  10.682   4.768  0.3446 -0.6754 -0.5378
  236MOL0     C31741   8.075  10.809   4.752 -0.1400  0.9754 -0.2684
  236MOL0     N31742   8.137  10.933   4.701  0.6020 -0.4704  0.0404
  236MOL0     C31743   8.245  10.997   4.761  0.0101 -0.8115  0.0527
  236MOL0     C31744   8.299  11.075   4.658  0.1632 -0.3943 -0.8731
  236MOL0     C31745   8.416  11.159   4.672  0.2454  0.3399 -0.5587
  236MOL0     C31746   8.530  11.100   4.750 -0.0091  0.8298 -0.2424
  236MOL0     C31747   8.592  10.974   4.695  0.3649  0.0253  0.1413
  236MOL0     C31748   8.673  10.889   4.795 -0.7612  0.4859  0.4955
  236MOL0     O31749   8.703  10.756   4.738  0.8435 -0.6606  0.3904
  236MOL0     C31750   8.767  10.665   4.821 -0.0141 -0.0665  0.4318
  236MOL0     C31751   8.754  10.661   4.964 -0.8646 -0.2096 -0.3661
  236MOL0     C31752   8.826  10.568   5.042 -0.2022  0.0265  0.2324
  236MOL0     C31753   8.894  10.465   4.970  0.9222 -0.3421 -0.0273
  236MOL0     C31754   8.978  10.359   5.041 -0.1910 -0.5486 -0.3228
  236MOL0     O31755   9.033  10.256   4.981 -0.1990 -0.0051 -0.9560
  236MOL0     C31756   9.096  10.171   5.065  0.4988 -0.4242 -1.0364
  236MOL0     C31757   9.025  10.086   5.153 -0.1191  0.1621  0.7553
  236MOL0     C31758   9.094   9.984   5.229  0.2900 -0.3864 -0.3008
  236MOL0     C31759   9.235   9.963   5.215  0.2509  0.0526  0.7562
  236MOL0     O31760   9.298   9.870   5.298 -0.1878  0.8036  0.4414
  236MOL0     C31761   9.441   9.873   5.294  0.6801  0.4016  1.0602
  236MOL0     C31762   9.485   9.770   5.393  0.6349 -0.8854  0.4223
  236MOL0     C31763   9.440   9.805   5.537  0.1377 -0.4817 -0.1651
  236MOL0     C31764   9.535   9.727   5.635  0.2908 -0.5431 -0.4210
  236MOL0     C31765   9.662   9.790   5.692 -0.3863  0.4060 -0.0521
  236MOL0     C31766   9.757   9.853   5.586 -0.7997  0.0437  0.6824
  236MOL0     C31767   9.876   9.923   5.659  0.1944  0.2064  0.9693
  236MOL0     C31768   9.947  10.019   5.568 -0.1781  0.1160 -0.3830
  236MOL0    Cl31769  10.046  10.131   5.666  0.3688  0.0731 -0.0186
  236MOL0     C31770   9.295  10.045   5.117  0.7405 -0.0672 -1.1449
  236MOL0     C31771   9.229  10.140   5.043  0.5689  0.5798 -0.1746
  236MOL0     O31772   8.983  10.382   5.165  0.9163 -0.4817  0.1838
  236MOL0     C31773   8.886  10.457   4.837  0.0983  0.4789  0.2530
  236MOL0     C31774   8.820  10.554   4.763  0.9226  0.0114  0.1910
  236MOL0     N31775   8.233  11.045   4.536 -0.4325 -0.5279  0.2727
  236MOL0     N31776   8.135  10.958   4.563 -0.3631 -0.8491 -0.6910
  236MOL0     C31777   8.672  10.298   5.353 -0.5636  0.1000  0.5932
  236MOL0     C31778   8.665  10.287   5.489  0.6591  0.4314  0.7060
  236MOL0     C31779   8.554  10.310   5.923 -0.3154  0.5672 -0.7428
  236MOL0     C31780   8.469  10.201   5.942  0.4027  0.0332 -0.4209
  236MOL0     C31781   8.419  10.162   6.067  0.0644  0.8236  0.1199
  236MOL0     C31782   8.452  10.231   6.179  0.9742  0.2138 -0.6709
  236MOL0     O31783   8.381  10.187   6.294 -0.4078  0.0158  0.6620
  236MOL0     C31784   8.440  10.229   6.417  0.2766  0.4153 -0.2846
  236MOL0     C31785   8.348  10.207   6.534 -0.0572  0.0648  0.3346
  236MOL0     C31786   8.230  10.305   6.540 -0.0014  0.9183 -0.1700
  236MOL0     C31787   8.119  10.250   6.632  0.4820  0.8203  0.5998
  236MOL0     C31788   8.038  10.348   6.702  0.6020  0.4964 -0.8901
  236MOL0     C31789   7.971  10.431   6.765 -0.0844  0.7522  0.1492
  236MOL0     C31790   8.532  10.343   6.171 -1.2471 -0.0731 -0.0235
  236MOL0     C31791   8.594  10.380   6.042  0.5235 -0.6203  0.1748
  236MOL0     C31792   8.689  10.496   6.053 -0.1643 -0.1189 -0.2951
  236MOL0     H31793   8.349  10.441   5.521 -1.9656 -1.6956 -2.5604
  236MOL0     H31794   8.383  10.465   5.286  2.3600  3.5933 -0.1339
  236MOL0     H31795   8.384  10.355   5.073 -0.4772  0.9232 -1.5756
  236MOL0     H31796   8.484  10.491   5.028 -1.3848 -0.2696 -3.1402
  236MOL0     H31797   8.532  10.202   4.948 -4.5633  0.4122  1.4037
  236MOL0     H31798   8.621  10.353   4.898 -0.5760  1.8896  0.1442
  236MOL0     H31799   8.342  10.273   4.828 -0.4124  0.3895  0.5629
  236MOL0     H31800   8.482  10.297   4.724  0.3006 -1.0044  0.9490
  236MOL0     H31801   8.345  10.526   4.868  2.0816  3.2589 -0.2826
  236MOL0     H31802   8.482  10.539   4.764 -3.3886  2.4578 -1.0861
  236MOL0     H31803   8.359  10.475   4.561  0.1373  0.1205  0.2929
  236MOL0     H31804   8.222  10.428   4.650  1.7118 -1.9256 -1.9970
  236MOL0     H31805   8.351  10.697   4.632  0.2460 -0.0882  0.2361
  236MOL0     H31806   8.186  10.659   4.556 -2.2107  1.8110  1.7814
  236MOL0     H31807   8.243  10.722   4.849 -0.4962  1.3646 -0.8396
  236MOL0     H31808   8.117  10.601   4.806 -0.8016  0.9418  1.2041
  236MOL0     H31809   7.997  10.769   4.687 -0.5046 -0.3849  0.9621
  236MOL0     H31810   8.023  10.831   4.845 -1.3451  1.2936 -0.9992
  236MOL0     H31811   8.270  10.999   4.867  0.7094  0.2553 -0.1249
  236MOL0     H31812   8.451  11.188   4.573  4.3870 -3.5379 -0.5376
  236MOL0     H31813   8.383  11.245   4.731  2.3216  0.7157  0.1368
  236MOL0     H31814   8.604  11.178   4.768  0.8720 -0.4708  2.3104
  236MOL0     H31815   8.490  11.082   4.850 -2.3590  0.9780 -1.1051
  236MOL0     H31816   8.653  11.009   4.611 -0.8946  3.6136  0.5135
  236MOL0     H31817   8.511  10.915   4.651  0.6507 -0.9540  0.8970
  236MOL0     H31818   8.614  10.874   4.886 -1.6843 -1.9639 -0.4089
  236MOL0     H31819   8.767  10.942   4.811 -1.9126  2.5342  0.8184
  236MOL0     H31820   8.699  10.740   5.014  1.1920 -0.0551  1.8176
  236MOL0     H31821   8.811  10.565   5.149  1.3091 -0.7989  0.4602
  236MOL0     H31822   8.917  10.101   5.145 -0.5798 -3.1447 -0.6299
  236MOL0     H31823   9.032   9.921   5.292 -2.4813  0.4531 -2.0285
  236MOL0     H31824   9.490   9.839   5.202  0.3366  0.5926  0.8042
  236MOL0     H31825   9.472   9.974   5.321 -0.9552  1.3512 -0.4052
  236MOL0     H31826   9.433   9.676   5.374 -1.9870  0.0236  2.4431
  236MOL0     H31827   9.589   9.739   5.378 -0.3823 -3.7001 -1.7335
  236MOL0     H31828   9.442   9.913   5.548 -5.2428 -0.1944  0.8381
  236MOL0     H31829   9.335   9.774   5.550  0.1033  0.3492  1.9801
  236MOL0     H31830   9.559   9.629   5.594  0.7516 -0.1242 -1.1686
  236MOL0     H31831   9.473   9.701   5.722 -0.0134  0.5224 -0.3090
  236MOL0     H31832   9.710   9.715   5.756  1.8203  1.5113 -0.3347
  236MOL0     H31833   9.623   9.865   5.762 -0.4634 -0.7042  1.1488
  236MOL0     H31834   9.797   9.775   5.520  1.2980  1.8704 -0.3400
  236MOL0     H31835   9.702   9.925   5.524  0.2331  0.1557 -0.1307
  236MOL0     H31836   9.949   9.851   5.697  0.3055 -0.2575 -0.0711
  236MOL0     H31837   9.841   9.974   5.749  0.8082 -0.2416  1.4724
  236MOL0     H31838  10.014   9.986   5.489 -1.4992 -0.1411 -1.4321
  236MOL0     H31839   9.866  10.070   5.516 -1.1118 -0.4485  0.4816
  236MOL0     H31840   9.400  10.041   5.090  0.4747 -1.7855 -2.0517
  236MOL0     H31841   9.288  10.194   4.969  0.1136  3.4383  1.4133
  236MOL0     H31842   8.932  10.376   4.781 -0.2616  2.1849 -2.7633
  236MOL0     H31843   8.798  10.549   4.657  5.5398  2.1225 -1.1491
  236MOL0     H31844   8.754  10.251   5.300 -0.3495  0.0721  0.9447
  236MOL0     H31845   8.752  10.243   5.536  1.1455  1.1375  0.4770
  236MOL0     H31846   8.442  10.128   5.867 -0.5911 -1.0199  0.9015
  236MOL0     H31847   8.343  10.086   6.085 -2.1597  2.4391 -1.7907
  236MOL0     H31848   8.468  10.334   6.427  3.4826 -0.3788  0.2569
  236MOL0     H31849   8.526  10.164   6.433 -1.1988 -1.2285  1.4416
  236MOL0     H31850   8.400  10.210   6.630  1.1598  2.5451 -0.3265
  236MOL0     H31851   8.322  10.102   6.518  1.2943 -0.0268 -1.7100
  236MOL0     H31852   8.189  10.315   6.440  0.0462 -0.2860 -0.3255
  236MOL0     H31853   8.269  10.400   6.579 -0.7096  1.3881 -0.5899
  236MOL0     H31854   8.050  10.186   6.574  1.4994 -0.7393  1.0367
  236MOL0     H31855   8.166  10.178   6.700  0.9672 -0.7952 -1.3128
  236MOL0     H31856   7.922  10.495   6.836  2.0121  1.3069  1.2053
  236MOL0     H31857   8.562  10.396   6.261  2.8642 -0.4127 -0.9941
  236MOL0     H31858   8.719  10.512   6.157  1.6823 -1.5294 -0.5592
  236MOL0     H31859   8.783  10.488   5.998 -0.0834  1.5741 -0.4353
  236MOL0     H31860   8.634  10.584   6.020 -0.9828 -1.2565 -2.1687
  237MOL0     O31861   9.678   1.655   4.566  0.3230  0.4274  0.5914
  237MOL0     C31862   9.583   1.720   4.609  0.5175 -0.3520 -0.9041
  237MOL0     O31863   9.601   1.834   4.681 -0.8032 -0.4085  0.4320
  237MOL0     C31864   9.726   1.904   4.667 -0.2874  0.0002 -0.2701
  237MOL0     C31865   9.791   1.934   4.791  0.2066  0.9644 -0.4352
  237MOL0     C31866   9.913   2.000   4.795  0.3817  0.2618  0.0428
  237MOL0     C31867   9.977   2.044   4.682  0.1086  0.7671  0.5700
  237MOL0     O31868  10.094   2.127   4.691  0.4961  0.0918  0.4958
  237MOL0     C31869  10.130   2.197   4.565 -1.1093 -0.0316  0.3166
  237MOL0     C31870  10.263   2.284   4.589 -0.1400  0.5236  0.2668
  237MOL0     C31871  10.379   2.234   4.670 -0.2654 -0.0919 -0.3767
  237MOL0     C31872  10.397   2.080   4.644  0.2281 -0.2917 -0.2094
  237MOL0     C31873  10.520   2.023   4.713  0.1809 -0.1309 -0.7005
  237MOL0     C31874  10.490   2.000   4.857  0.3939 -0.2852  0.4098
  237MOL0     C31875  10.592   1.910   4.931  0.5960  0.6765  0.5959
  237MOL0     C31876  10.591   1.761   4.884 -0.4773  0.1752  0.0992
  237MOL0     N31877  10.692   1.677   4.951  0.1859 -0.8956 -0.8722
  237MOL0     C31878  10.741   1.693   5.080  0.7780  0.5318  0.2488
  237MOL0     C31879  10.853   1.618   5.086 -0.5012  0.5872 -0.2274
  237MOL0     C31880  10.955   1.609   5.201  0.0296  0.0586 -0.1221
  237MOL0     C31881  10.931   1.724   5.305  0.5117 -0.0423 -1.1355
  237MOL0     C31882  11.054   1.746   5.385  0.0574  0.0858 -0.0096
  237MOL0     C31883  11.038   1.827   5.516  0.2177  0.3280  0.2032
  237MOL0     O31884  11.097   1.770   5.634 -0.5458 -0.3725 -0.0330
  237MOL0     C31885  11.230   1.792   5.655 -0.0183  0.6019 -0.6602
  237MOL0     C31886  11.277   1.764   5.789 -0.3189 -1.1433  0.8343
  237MOL0     C31887  11.413   1.785   5.821  0.4146  0.2530 -1.0468
  237MOL0     C31888  11.507   1.844   5.738  0.0150  0.7419 -0.2776
  237MOL0     C31889  11.635   1.877   5.774 -1.0474  0.0375 -0.0122
  237MOL0     O31890  11.672   1.876   5.904  0.8036 -0.2788 -0.8139
  237MOL0     C31891  11.804   1.877   5.945  0.0829 -1.3842 -0.2624
  237MOL0     C31892  11.908   1.805   5.882 -0.0502  0.0510 -0.0879
  237MOL0     C31893  12.039   1.807   5.937  0.0632 -0.2427  0.2382
  237MOL0     C31894  12.065   1.875   6.050  0.3396 -0.5822 -0.3529
  237MOL0     O31895  12.195   1.877   6.094 -0.0733 -0.5816 -0.5761
  237MOL0     C31896  12.215   1.830   6.226 -0.3669 -1.1200  0.0983
  237MOL0     C31897  12.347   1.891   6.286  0.2975  0.1675  0.5106
  237MOL0     C31898  12.476   1.867   6.203 -0.0178 -0.2669 -0.7595
  237MOL0     C31899  12.603   1.871   6.289  0.4823 -0.0846 -0.5110
  237MOL0     C31900  12.729   1.862   6.204  0.1067  0.2417  0.1793
  237MOL0     C31901  12.844   1.836   6.310 -0.0621 -0.8498  1.1260
  237MOL0     C31902  12.988   1.831   6.249 -0.5051  0.7862 -0.0515
  237MOL0     C31903  13.088   1.760   6.341  0.7086 -0.5373 -0.1014
  237MOL0    Cl31904  13.036   1.586   6.357  0.1487  0.2161 -0.3230
  237MOL0     C31905  11.966   1.951   6.108  1.0941 -0.1729  0.5172
  237MOL0     C31906  11.832   1.944   6.063 -0.2058 -0.1207 -0.1416
  237MOL0     O31907  11.710   1.892   5.678  0.3433  1.1216  0.7752
  237MOL0     C31908  11.462   1.869   5.605  0.2723 -0.5328  0.3086
  237MOL0     C31909  11.326   1.838   5.560  0.1047  0.0384 -0.9023
  237MOL0     N31910  10.866   1.545   4.968 -0.0343 -0.4031  0.9516
  237MOL0     N31911  10.782   1.610   4.886 -0.1220  0.0781  0.7579
  237MOL0     C31912   9.910   2.012   4.559 -0.0570 -0.0394 -0.3608
  237MOL0     C31913   9.789   1.944   4.554  0.8246  0.0286  1.4637
  237MOL0     C31914   9.449   1.658   4.594  0.6993  0.0702  0.3584
  237MOL0     C31915   9.434   1.519   4.584 -0.1490 -0.3046  0.3730
  237MOL0     C31916   9.308   1.446   4.577 -0.1157 -0.3236  0.3285
  237MOL0     C31917   9.193   1.522   4.551 -0.8167 -0.0399 -0.6361
  237MOL0     O31918   9.066   1.482   4.553 -0.8528 -0.2583 -0.7329
  237MOL0     C31919   9.036   1.345   4.588  0.1106 -0.5743  0.3524
  237MOL0     C31920   8.904   1.290   4.533 -0.0950  0.8237 -0.4832
  237MOL0     C31921   8.779   1.337   4.600 -0.0031 -0.2004  1.0733
  237MOL0     C31922   8.663   1.236   4.603 -0.0684 -0.7580 -0.1262
  237MOL0     C31923   8.657   1.166   4.476  0.8867  0.1478  0.2158
  237MOL0     C31924   8.657   1.104   4.372  0.0480 -0.3852 -1.1476
  237MOL0     C31925   9.207   1.670   4.550  0.4348  0.3891 -0.6167
  237MOL0     C31926   9.332   1.732   4.576  0.1078  0.4722 -0.1658
  237MOL0     C31927   9.327   1.883   4.597  0.0283 -0.8920 -0.1056
  237MOL0     H31928   9.747   1.887   4.878  2.4620 -1.1871 -0.3687
  237MOL0     H31929   9.968   2.007   4.888 -0.5404 -5.3250  1.3918
  237MOL0     H31930  10.172   2.133   4.487  4.2828  4.6002 -1.3003
  237MOL0     H31931  10.049   2.261   4.530 -0.9487 -1.0670 -2.1308
  237MOL0     H31932  10.225   2.376   4.635 -1.4692 -0.6388  1.6262
  237MOL0     H31933  10.300   2.306   4.489 -0.7066  0.0871 -0.0465
  237MOL0     H31934  10.351   2.255   4.773 -0.5866 -1.2722 -0.2032
  237MOL0     H31935  10.466   2.291   4.637 -0.1999  0.1920  0.2667
  237MOL0     H31936  10.309   2.023   4.674  1.5740 -3.2929 -1.4835
  237MOL0     H31937  10.400   2.066   4.535 -0.1961 -0.6134 -0.1812
  237MOL0     H31938  10.532   1.920   4.676 -1.4366 -0.6931  0.2336
  237MOL0     H31939  10.610   2.083   4.697 -1.0043  2.5272  1.8100
  237MOL0     H31940  10.483   2.101   4.899  1.3579  0.2300 -0.6142
  237MOL0     H31941  10.385   1.967   4.863  0.2924 -0.0729 -0.1153
  237MOL0     H31942  10.569   1.910   5.038  0.0645 -3.3075  0.6258
  237MOL0     H31943  10.693   1.950   4.919  1.0430 -0.6683 -0.2012
  237MOL0     H31944  10.490   1.719   4.897 -0.7088  0.8694  0.5917
  237MOL0     H31945  10.606   1.737   4.779 -0.9857 -0.0470  0.0701
  237MOL0     H31946  10.700   1.762   5.153  1.3241 -1.0150  2.1192
  237MOL0     H31947  10.957   1.514   5.256  1.2789 -0.5327 -1.1296
  237MOL0     H31948  11.050   1.612   5.147 -0.5901 -1.8867 -1.4549
  237MOL0     H31949  10.909   1.817   5.252 -1.9306  0.3714  0.4381
  237MOL0     H31950  10.844   1.708   5.369  0.8924  4.6571  0.9454
  237MOL0     H31951  11.137   1.788   5.328  0.4964  0.4886  0.9138
  237MOL0     H31952  11.099   1.650   5.412 -0.0970 -0.7316 -2.3770
  237MOL0     H31953  10.932   1.830   5.541  0.1733 -3.2659  1.0064
  237MOL0     H31954  11.070   1.929   5.495 -1.0443  0.3615 -1.7585
  237MOL0     H31955  11.213   1.734   5.871 -2.2883 -1.0107 -0.5727
  237MOL0     H31956  11.442   1.761   5.923  0.7510  0.5462 -1.0753
  237MOL0     H31957  11.890   1.756   5.787  0.7385  3.8245 -2.4132
  237MOL0     H31958  12.119   1.745   5.897  1.4160  3.2983 -3.1228
  237MOL0     H31959  12.132   1.852   6.294  2.0372  0.7715  2.6495
  237MOL0     H31960  12.229   1.722   6.234  0.8554 -0.8706  2.1909
  237MOL0     H31961  12.331   1.997   6.306 -1.0627  0.2209 -0.7179
  237MOL0     H31962  12.359   1.832   6.377  0.0155 -4.7844 -2.3164
  237MOL0     H31963  12.468   1.767   6.159  0.7497 -0.0006 -1.5499
  237MOL0     H31964  12.487   1.944   6.125  0.9778 -0.2019 -0.5764
  237MOL0     H31965  12.604   1.787   6.358 -1.5144 -0.2369 -0.5902
  237MOL0     H31966  12.612   1.963   6.348  1.0160 -1.6149  1.9405
  237MOL0     H31967  12.753   1.945   6.137  0.2201 -2.5178 -3.5028
  237MOL0     H31968  12.726   1.775   6.138  0.6549 -0.6598  1.3207
  237MOL0     H31969  12.826   1.910   6.389 -2.4297 -1.3623  1.1603
  237MOL0     H31970  12.831   1.741   6.363 -6.6246 -0.3774  1.2194
  237MOL0     H31971  13.014   1.937   6.241 -2.9406  1.4506 -0.0529
  237MOL0     H31972  12.983   1.789   6.149 -0.0099  0.0514  0.2230
  237MOL0     H31973  13.189   1.765   6.299 -0.2809  1.1802 -2.5069
  237MOL0     H31974  13.094   1.803   6.441 -0.0032 -0.8159  0.0727
  237MOL0     H31975  11.988   2.022   6.187  4.2635 -1.5100  0.9954
  237MOL0     H31976  11.765   2.019   6.103  0.0745  0.4821 -0.7831
  237MOL0     H31977  11.524   1.922   5.534 -1.8842 -2.8537 -3.6394
  237MOL0     H31978  11.299   1.863   5.458 -0.3200  1.5518 -0.4482
  237MOL0     H31979   9.958   2.049   4.469  4.4054  1.3541  2.3170
  237MOL0     H31980   9.732   1.928   4.463  3.1139 -1.3378  0.1911
  237MOL0     H31981   9.524   1.460   4.597  0.3623  0.6114  1.0663
  237MOL0     H31982   9.321   1.338   4.578  0.5394 -0.2900 -1.4651
  237MOL0     H31983   9.022   1.337   4.696  0.2097 -0.0996  0.4002
  237MOL0     H31984   9.125   1.287   4.559  1.2384  0.0204  2.4230
  237MOL0     H31985   8.911   1.182   4.551  0.1534  1.3717  4.1060
  237MOL0     H31986   8.911   1.308   4.426  1.7092 -1.0289 -0.7400
  237MOL0     H31987   8.738   1.423   4.546  1.0140 -0.3512  0.0293
  237MOL0     H31988   8.800   1.362   4.704  1.8164 -1.6074  1.0922
  237MOL0     H31989   8.668   1.169   4.690  0.3907  0.5969  0.9237
  237MOL0     H31990   8.566   1.288   4.610 -0.0415 -0.7948  0.6147
  237MOL0     H31991   8.662   1.047   4.281  1.7717 -0.8069 -0.8282
  237MOL0     H31992   9.122   1.733   4.528  0.6743  0.9585  0.0755
  237MOL0     H31993   9.391   1.943   4.532 -1.1164 -1.1760 -1.5395
  237MOL0     H31994   9.225   1.911   4.571  0.3016 -2.0476 -2.7590
  237MOL0     H31995   9.353   1.907   4.700 -1.0212  1.4881 -0.3433
  238MOL0     O31996   1.135   3.425   7.385 -0.5869  0.0328  0.1884
  238MOL0     C31997   1.241   3.468   7.428  0.1941 -0.6408 -0.7400
  238MOL0     O31998   1.331   3.418   7.510 -0.1704  0.0607 -0.6751
  238MOL0     C31999   1.349   3.282   7.537 -0.5848  0.5232  0.4668
  238MOL0     C32000   1.284   3.168   7.485  0.7009  0.1248  0.7616
  238MOL0     C32001   1.322   3.043   7.540  0.0332  0.7866 -0.7235
  238MOL0     C32002   1.415   3.019   7.637 -0.3190  0.2785  0.2554
  238MOL0     O32003   1.438   2.894   7.694  0.2339 -0.4306  0.0131
  238MOL0     C32004   1.565   2.861   7.754  0.2271 -0.6354 -0.1636
  238MOL0     C32005   1.597   2.716   7.761 -0.7232 -1.0318 -0.6874
  238MOL0     C32006   1.537   2.654   7.891  0.0271  1.3268 -0.0759
  238MOL0     C32007   1.533   2.502   7.884 -0.9023  0.3864  0.0298
  238MOL0     C32008   1.523   2.446   8.028 -0.2206 -0.7976 -0.7592
  238MOL0     C32009   1.500   2.291   8.016  0.3832 -0.3594 -0.6217
  238MOL0     C32010   1.623   2.209   7.971  0.7089  0.1319  1.1963
  238MOL0     C32011   1.596   2.064   7.981 -0.1990  0.5858 -0.8680
  238MOL0     N32012   1.485   2.022   7.898  0.0655  0.1435 -0.4237
  238MOL0     C32013   1.367   1.974   7.945  0.3133  0.7794 -0.2745
  238MOL0     C32014   1.303   1.928   7.833 -0.1794 -0.8806  0.0784
  238MOL0     C32015   1.160   1.896   7.835  0.8888 -0.4089  0.1971
  238MOL0     C32016   1.095   1.902   7.684 -0.3388  0.5377 -0.3231
  238MOL0     C32017   1.149   1.787   7.598 -0.4985 -0.6827 -0.2681
  238MOL0     C32018   1.109   1.803   7.447 -0.3262  0.1089  0.7164
  238MOL0     O32019   0.969   1.804   7.449 -0.6351 -0.2089  0.4326
  238MOL0     C32020   0.897   1.691   7.434  0.1047  0.4389 -0.3081
  238MOL0     C32021   0.792   1.668   7.528 -0.4107  0.0544  0.9346
  238MOL0     C32022   0.712   1.559   7.526  0.0307  0.4794 -0.3203
  238MOL0     C32023   0.723   1.465   7.423 -0.2329  0.4042  0.5014
  238MOL0     C32024   0.638   1.349   7.398 -0.1689 -0.5326  0.3779
  238MOL0     O32025   0.663   1.274   7.287  0.6075 -0.1990 -0.4316
  238MOL0     C32026   0.587   1.163   7.263 -0.3481  0.4672  0.2307
  238MOL0     C32027   0.484   1.154   7.163  0.8584 -0.2276  0.6718
  238MOL0     C32028   0.416   1.037   7.138 -2.0654  0.7967 -0.3593
  238MOL0     C32029   0.459   0.920   7.201 -0.0323 -0.0932  0.5538
  238MOL0     O32030   0.393   0.809   7.168  0.7924 -0.3622  0.0478
  238MOL0     C32031   0.455   0.684   7.207  0.7444 -0.4290 -0.7271
  238MOL0     C32032   0.549   0.620   7.107  0.0260  0.3642  0.1461
  238MOL0     C32033   0.511   0.640   6.968  0.1389  0.1266 -0.6944
  238MOL0     C32034   0.582   0.541   6.874  0.4065  0.0054  0.5175
  238MOL0     C32035   0.561   0.568   6.724 -0.1724  1.2294  0.6924
  238MOL0     C32036   0.646   0.469   6.638 -0.0894  0.5889 -0.9540
  238MOL0     C32037   0.637   0.513   6.497  0.2989  0.1564  0.4908
  238MOL0     C32038   0.683   0.406   6.389 -0.1361 -0.8008 -0.7124
  238MOL0    Cl32039   0.558   0.282   6.359  0.3503 -0.0574  0.0500
  238MOL0     C32040   0.566   0.934   7.286 -0.2725  0.3820  1.4261
  238MOL0     C32041   0.632   1.047   7.321  0.6687 -0.1416 -0.0919
  238MOL0     O32042   0.546   1.327   7.474 -0.2722  0.6514  0.3535
  238MOL0     C32043   0.825   1.496   7.322 -0.5566 -0.8606 -0.0477
  238MOL0     C32044   0.911   1.608   7.329 -0.0985 -0.8552 -0.2410
  238MOL0     N32045   1.389   1.944   7.730  0.0166  0.4597 -0.4243
  238MOL0     N32046   1.489   2.012   7.761  0.1647  0.2873 -0.6352
  238MOL0     C32047   1.482   3.135   7.670 -0.2159 -0.5938 -0.5358
  238MOL0     C32048   1.447   3.265   7.635  1.4433 -0.3838 -0.0756
  238MOL0     C32049   1.278   3.604   7.367 -0.3385  0.4277 -0.7688
  238MOL0     C32050   1.414   3.639   7.350 -0.2678  0.3365  0.0010
  238MOL0     C32051   1.454   3.762   7.293 -0.0622  0.1723 -0.7459
  238MOL0     C32052   1.360   3.865   7.275  0.0935  0.6257 -0.2700
  238MOL0     O32053   1.392   3.998   7.233  0.0885  0.2402  0.0170
  238MOL0     C32054   1.519   4.038   7.192  1.0086  0.5563 -0.5440
  238MOL0     C32055   1.536   4.186   7.214  0.7957 -0.1971  0.8471
  238MOL0     C32056   1.534   4.273   7.080 -0.0956 -0.4489  0.7404
  238MOL0     C32057   1.408   4.246   6.997  0.1269  0.6025  0.5909
  238MOL0     C32058   1.415   4.332   6.874  1.5652 -0.1159  0.3228
  238MOL0     C32059   1.398   4.403   6.780  0.4356  0.0843  0.2142
  238MOL0     C32060   1.229   3.823   7.285  0.4947 -0.1775  0.1244
  238MOL0     C32061   1.187   3.705   7.330 -0.2347 -0.2201 -0.6246
  238MOL0     C32062   1.038   3.693   7.356  0.7093 -1.1774 -0.0787
  238MOL0     H32063   1.203   3.163   7.413  0.8550 -3.1501  0.6379
  238MOL0     H32064   1.269   2.955   7.506  0.4298  1.0675 -2.1671
  238MOL0     H32065   1.648   2.901   7.695  1.9419 -3.2661  0.2784
  238MOL0     H32066   1.558   2.891   7.859 -3.8677 -1.0663 -0.1525
  238MOL0     H32067   1.705   2.705   7.748 -0.3102  0.5605  1.0373
  238MOL0     H32068   1.550   2.668   7.675  0.5637  1.1087 -2.7018
  238MOL0     H32069   1.432   2.685   7.901 -0.7948 -1.5690  1.3818
  238MOL0     H32070   1.606   2.668   7.975  0.7249 -2.0913  0.0715
  238MOL0     H32071   1.448   2.473   7.820 -0.7728  2.9071 -1.4402
  238MOL0     H32072   1.625   2.463   7.841 -2.2849 -2.0165 -0.9696
  238MOL0     H32073   1.611   2.465   8.091 -0.4475 -2.3371  0.0652
  238MOL0     H32074   1.431   2.491   8.066  0.9856  2.8359 -1.7324
  238MOL0     H32075   1.471   2.248   8.112 -0.4755 -3.1472 -2.0328
  238MOL0     H32076   1.413   2.286   7.951 -1.5230  1.5022  1.6046
  238MOL0     H32077   1.706   2.241   8.035 -0.0112  0.9440  1.7601
  238MOL0     H32078   1.651   2.245   7.872 -1.3393  2.6948  1.4326
  238MOL0     H32079   1.681   1.998   7.959 -0.7682 -0.4353 -0.1169
  238MOL0     H32080   1.579   2.036   8.086  1.0095  2.2457 -0.1648
  238MOL0     H32081   1.336   1.976   8.049  1.2446  0.0518  0.0359
  238MOL0     H32082   1.139   1.791   7.860 -2.8380  0.4888  1.5055
  238MOL0     H32083   1.103   1.953   7.909 -1.4173  0.6533 -2.2259
  238MOL0     H32084   0.986   1.889   7.681 -0.4784 -0.5385 -6.8486
  238MOL0     H32085   1.114   2.003   7.646 -0.0602  0.7703  0.4367
  238MOL0     H32086   1.122   1.689   7.638  4.7931 -1.5235  1.9743
  238MOL0     H32087   1.258   1.785   7.605 -0.3864  2.1059 -0.1483
  238MOL0     H32088   1.151   1.722   7.387 -2.9004  0.9382 -2.4794
  238MOL0     H32089   1.147   1.900   7.415 -1.4858  1.6427  3.5939
  238MOL0     H32090   0.791   1.741   7.608  2.2066  0.3757  0.7615
  238MOL0     H32091   0.639   1.540   7.604  1.1786 -0.6631  0.5229
  238MOL0     H32092   0.464   1.247   7.111  2.3242 -0.0110  0.4520
  238MOL0     H32093   0.341   1.023   7.060 -0.9072  4.6014 -2.4179
  238MOL0     H32094   0.489   0.687   7.311 -0.5106  0.9449 -0.3068
  238MOL0     H32095   0.368   0.618   7.215 -0.6480  1.2866 -1.0488
  238MOL0     H32096   0.648   0.665   7.107  0.0822  0.2624 -1.1411
  238MOL0     H32097   0.550   0.513   7.131  0.2721 -0.2720 -2.4023
  238MOL0     H32098   0.407   0.619   6.941 -0.3489  1.4586  0.0279
  238MOL0     H32099   0.531   0.741   6.930 -0.3420 -0.6387 -3.1983
  238MOL0     H32100   0.547   0.440   6.899  0.8599  0.1949  2.0257
  238MOL0     H32101   0.691   0.541   6.889  0.6123 -0.7627 -0.8219
  238MOL0     H32102   0.593   0.671   6.705  0.6957  1.0585  1.2066
  238MOL0     H32103   0.455   0.564   6.697  0.0855  0.5141 -0.2529
  238MOL0     H32104   0.744   0.483   6.685 -0.8297 -0.5943  1.0440
  238MOL0     H32105   0.619   0.365   6.653 -2.1625  1.3716  1.5057
  238MOL0     H32106   0.709   0.595   6.484 -0.7369  0.7362 -2.4981
  238MOL0     H32107   0.537   0.553   6.475  0.9723  1.0971 -1.0577
  238MOL0     H32108   0.717   0.460   6.300  0.6992  2.0415  1.1881
  238MOL0     H32109   0.779   0.368   6.425  0.9335  1.0341 -1.4893
  238MOL0     H32110   0.600   0.846   7.340  1.6550 -0.7669 -1.4394
  238MOL0     H32111   0.702   1.060   7.403  1.6797 -2.1426 -0.5702
  238MOL0     H32112   0.826   1.445   7.226  0.4189  1.4918 -1.3622
  238MOL0     H32113   0.988   1.632   7.256  2.6494 -2.3060  1.9722
  238MOL0     H32114   1.563   3.122   7.742 -1.3033  0.6384  0.9748
  238MOL0     H32115   1.499   3.350   7.678 -2.2546  1.2030  1.6660
  238MOL0     H32116   1.486   3.563   7.377  1.4746  2.7802  2.7479
  238MOL0     H32117   1.557   3.774   7.260  0.3854  0.5001  0.7016
  238MOL0     H32118   1.546   4.007   7.090 -1.3727 -2.3516 -0.4322
  238MOL0     H32119   1.594   3.991   7.256  2.5870  0.7420 -2.1826
  238MOL0     H32120   1.632   4.196   7.265  0.6396  5.5247  0.6587
  238MOL0     H32121   1.453   4.225   7.274 -1.0586  1.2138 -2.3653
  238MOL0     H32122   1.628   4.277   7.024 -0.1182 -0.9818  0.6596
  238MOL0     H32123   1.516   4.377   7.109  0.8984  0.5087 -1.7573
  238MOL0     H32124   1.421   4.146   6.953  1.5030  1.6270 -1.5031
  238MOL0     H32125   1.315   4.261   7.051  1.4675  2.3035  2.6103
  238MOL0     H32126   1.393   4.474   6.700 -2.5044 -0.3563 -0.1144
  238MOL0     H32127   1.146   3.892   7.271  1.4025  0.7998 -0.5300
  238MOL0     H32128   1.020   3.643   7.451  0.4806  1.0011  1.0969
  238MOL0     H32129   0.997   3.793   7.373 -3.1365 -2.5997 -0.1415
  238MOL0     H32130   0.984   3.663   7.266  1.7998  1.2830 -1.6634
  239MOL0     O32131   3.583   3.317   2.857  0.8575  0.0770 -0.4007
  239MOL0     C32132   3.527   3.208   2.856 -0.5011 -0.8135  0.2185
  239MOL0     O32133   3.492   3.140   2.740 -0.6553 -0.3690  1.0766
  239MOL0     C32134   3.550   3.185   2.626  0.2765 -0.7991  0.3803
  239MOL0     C32135   3.510   3.299   2.550 -0.3382 -0.4092 -0.3961
  239MOL0     C32136   3.573   3.340   2.432 -0.7025  0.5232  0.6453
  239MOL0     C32137   3.668   3.253   2.379 -0.2055 -0.2631  1.1306
  239MOL0     O32138   3.727   3.305   2.264 -0.2249 -0.2671 -0.0658
  239MOL0     C32139   3.871   3.282   2.246 -0.4592  0.1076 -0.0073
  239MOL0     C32140   3.915   3.318   2.104  0.0265  0.4611  0.2625
  239MOL0     C32141   3.898   3.204   2.016 -0.4920 -0.4693 -0.0017
  239MOL0     C32142   3.939   3.211   1.870  0.1306  0.4126 -0.8944
  239MOL0     C32143   3.913   3.087   1.785  0.6615  0.0496 -0.2704
  239MOL0     C32144   3.940   3.108   1.640 -0.4096 -0.5685 -0.2509
  239MOL0     C32145   3.853   3.213   1.579  0.4557  0.2076 -0.1229
  239MOL0     C32146   3.723   3.170   1.502 -0.1756 -0.2990  0.3292
  239MOL0     N32147   3.617   3.121   1.594  0.5605 -0.5455  1.4345
  239MOL0     C32148   3.563   3.183   1.698  0.7971 -0.4609  0.6160
  239MOL0     C32149   3.474   3.098   1.748 -0.3541 -0.1457 -0.1654
  239MOL0     C32150   3.400   3.125   1.876 -0.4306 -0.1945 -0.1609
  239MOL0     C32151   3.499   3.147   1.984 -0.2680  0.0851  0.1139
  239MOL0     C32152   3.436   3.241   2.093  0.0978 -0.1516 -0.4266
  239MOL0     C32153   3.447   3.382   2.043  0.7193  0.1348 -0.1282
  239MOL0     O32154   3.408   3.472   2.142 -0.6711  0.1536  0.2702
  239MOL0     C32155   3.282   3.466   2.192  0.0767 -0.4240 -1.4753
  239MOL0     C32156   3.254   3.514   2.320 -0.5130 -0.8071 -0.1072
  239MOL0     C32157   3.121   3.514   2.372  0.0998  0.3900  0.4097
  239MOL0     C32158   3.012   3.478   2.287 -0.3415 -0.2032  0.1885
  239MOL0     C32159   2.874   3.476   2.337 -1.0419 -0.1075  0.0161
  239MOL0     O32160   2.788   3.388   2.270 -0.5855  0.4690  0.2695
  239MOL0     C32161   2.662   3.383   2.313 -0.5093  0.5539 -0.2759
  239MOL0     C32162   2.607   3.258   2.360  0.8582 -0.5036 -0.5641
  239MOL0     C32163   2.477   3.243   2.420 -1.0971 -0.9958  0.2280
  239MOL0     C32164   2.405   3.364   2.439 -0.2645  0.3971 -0.3172
  239MOL0     O32165   2.286   3.369   2.511  0.3026  0.1878 -0.2433
  239MOL0     C32166   2.202   3.250   2.526  0.1323 -0.8433 -0.3190
  239MOL0     C32167   2.091   3.274   2.632  0.1838 -0.0290 -0.5035
  239MOL0     C32168   2.138   3.308   2.782 -0.5399  0.1295  0.8034
  239MOL0     C32169   2.017   3.326   2.879 -0.6589  0.0891  0.0371
  239MOL0     C32170   2.051   3.342   3.020  0.0252  0.0199  0.6667
  239MOL0     C32171   2.093   3.484   3.045 -0.6688 -0.2321 -1.0268
  239MOL0     C32172   1.973   3.565   3.079  0.5459  0.0805 -0.0064
  239MOL0     C32173   2.007   3.704   3.138  0.6669 -0.9445  0.4930
  239MOL0    Cl32174   2.130   3.717   3.271  0.1297  0.3297 -0.0449
  239MOL0     C32175   2.461   3.488   2.400 -0.8256  0.5987  0.5248
  239MOL0     C32176   2.589   3.494   2.336 -0.7395 -0.2152 -0.4609
  239MOL0     O32177   2.856   3.519   2.450  0.4849 -0.2998  0.1028
  239MOL0     C32178   3.040   3.432   2.157  0.2783  0.0642 -0.7088
  239MOL0     C32179   3.173   3.433   2.122 -0.0024  0.1260  0.8360
  239MOL0     N32180   3.464   2.984   1.675 -0.5405 -0.2155  0.1103
  239MOL0     N32181   3.553   2.996   1.583  0.3777 -0.4392 -0.1645
  239MOL0     C32182   3.706   3.136   2.447  1.0187  0.6696 -0.7610
  239MOL0     C32183   3.642   3.103   2.563 -0.1331 -0.5358  0.6640
  239MOL0     C32184   3.486   3.138   2.987  0.0016  0.7935 -0.0235
  239MOL0     C32185   3.410   3.018   2.963  0.0708  0.0321 -0.1890
  239MOL0     C32186   3.354   2.947   3.067 -0.3908 -0.5750  0.6270
  239MOL0     C32187   3.394   2.987   3.195 -0.2009 -1.0393 -0.9026
  239MOL0     O32188   3.369   2.909   3.302  0.0786  0.0683 -0.0768
  239MOL0     C32189   3.252   2.948   3.376 -0.7245 -0.1093  0.3098
  239MOL0     C32190   3.157   2.835   3.400 -0.0319  0.0884  0.6931
  239MOL0     C32191   3.060   2.800   3.295 -0.3735  0.7284 -0.3028
  239MOL0     C32192   2.941   2.894   3.283 -0.4581  0.8379  0.3891
  239MOL0     C32193   2.946   2.972   3.157  0.6629  0.4806  0.8247
  239MOL0     C32194   2.945   3.032   3.048  0.4488  0.5907  0.1027
  239MOL0     C32195   3.468   3.101   3.222  0.3683  0.1750  1.2337
  239MOL0     C32196   3.516   3.185   3.115  0.3103 -0.2894 -0.4059
  239MOL0     C32197   3.597   3.313   3.151  0.3786 -0.4087 -0.0856
  239MOL0     H32198   3.441   3.357   2.610  0.9780 -2.3018  3.2033
  239MOL0     H32199   3.547   3.422   2.367  1.3812  0.4162 -0.4043
  239MOL0     H32200   3.922   3.347   2.318 -0.1354  0.7178 -0.7727
  239MOL0     H32201   3.904   3.180   2.267 -1.3915 -0.5670 -1.5841
  239MOL0     H32202   4.019   3.352   2.104  2.1859 -5.1087  0.7256
  239MOL0     H32203   3.845   3.396   2.072 -4.1206 -1.9724  2.6024
  239MOL0     H32204   3.792   3.178   2.020 -0.4194 -1.4528 -2.6237
  239MOL0     H32205   3.950   3.121   2.064  0.9031 -1.0152 -2.3334
  239MOL0     H32206   3.887   3.296   1.827  0.3607  0.3375 -1.3193
  239MOL0     H32207   4.047   3.230   1.876  0.1868 -0.0707 -0.2528
  239MOL0     H32208   3.971   2.999   1.814  0.8689  0.0351 -0.7307
  239MOL0     H32209   3.808   3.068   1.810 -0.0079  2.2431 -1.1385
  239MOL0     H32210   4.044   3.142   1.636 -1.0435  1.9998  2.0551
  239MOL0     H32211   3.938   3.012   1.587  2.1137 -0.4576 -0.6963
  239MOL0     H32212   3.915   3.261   1.503  1.8696  0.5790  1.1959
  239MOL0     H32213   3.816   3.301   1.634  1.4978 -0.4773  1.7894
  239MOL0     H32214   3.677   3.250   1.442  0.8203  2.2013  2.6631
  239MOL0     H32215   3.752   3.084   1.442  0.3708 -1.8986  2.7614
  239MOL0     H32216   3.594   3.278   1.741  0.2349  0.7360 -1.5104
  239MOL0     H32217   3.329   3.208   1.861  1.1805  0.7754 -3.2550
  239MOL0     H32218   3.340   3.037   1.901 -1.8380  0.7431 -0.0811
  239MOL0     H32219   3.536   3.051   2.021 -0.4207  0.4730  1.3238
  239MOL0     H32220   3.587   3.194   1.941 -1.3932  0.3145 -2.1206
  239MOL0     H32221   3.511   3.238   2.172 -0.5758  1.2423  0.3022
  239MOL0     H32222   3.336   3.213   2.129 -0.7648  2.1772 -0.8476
  239MOL0     H32223   3.408   3.402   1.943  1.1030  0.7099 -0.1651
  239MOL0     H32224   3.552   3.407   2.029  0.0635  1.5034 -3.7189
  239MOL0     H32225   3.339   3.524   2.387  1.1602 -2.7463 -1.7836
  239MOL0     H32226   3.092   3.535   2.474 -2.0779 -1.6131  0.2809
  239MOL0     H32227   2.655   3.161   2.359  1.0079 -0.6553  3.5160
  239MOL0     H32228   2.429   3.146   2.433 -1.5665 -0.9711 -1.0691
  239MOL0     H32229   2.159   3.233   2.427 -0.5686  0.7141 -0.3025
  239MOL0     H32230   2.246   3.152   2.551 -1.2030 -1.3018  0.2908
  239MOL0     H32231   2.028   3.360   2.605  0.6732  0.4436 -0.1671
  239MOL0     H32232   2.031   3.183   2.629  0.5591 -0.4332  2.1546
  239MOL0     H32233   2.210   3.235   2.820  1.4200  2.5329  1.9435
  239MOL0     H32234   2.192   3.403   2.779 -0.8664  0.2994 -2.2356
  239MOL0     H32235   1.964   3.231   2.880 -1.2979  0.4381  1.2379
  239MOL0     H32236   1.944   3.390   2.828 -2.6940 -3.3172 -1.6856
  239MOL0     H32237   2.133   3.275   3.044  1.0654  1.2584  0.6705
  239MOL0     H32238   1.966   3.313   3.082 -0.1719  0.4195  0.5881
  239MOL0     H32239   2.162   3.481   3.129 -1.5703  2.7175 -0.0809
  239MOL0     H32240   2.152   3.520   2.960  0.0842  0.2477 -0.3051
  239MOL0     H32241   1.915   3.517   3.159 -1.8187  1.3629 -0.8328
  239MOL0     H32242   1.913   3.577   2.988 -1.5781 -1.5976  1.0751
  239MOL0     H32243   2.050   3.778   3.070  1.5764 -1.3347  0.6359
  239MOL0     H32244   1.914   3.747   3.177  0.0403 -1.6136 -0.2164
  239MOL0     H32245   2.402   3.577   2.423  0.7226  0.8158  4.4908
  239MOL0     H32246   2.631   3.582   2.289  0.2457  0.7058  1.9426
  239MOL0     H32247   2.974   3.403   2.077 -0.5149 -0.3294  0.0793
  239MOL0     H32248   3.187   3.401   2.019 -2.7690 -0.9190  0.6933
  239MOL0     H32249   3.775   3.069   2.395  1.0556  0.7429 -0.8071
  239MOL0     H32250   3.660   3.005   2.605  0.3358 -0.6174  0.2885
  239MOL0     H32251   3.392   2.977   2.864  2.9740 -0.7665 -0.4738
  239MOL0     H32252   3.293   2.858   3.052  0.9399 -1.5375  0.7459
  239MOL0     H32253   3.216   3.037   3.325 -0.2993 -0.5454 -0.7863
  239MOL0     H32254   3.287   2.981   3.474 -0.3473 -0.9912  0.4860
  239MOL0     H32255   3.114   2.848   3.500 -0.7731 -1.4280  0.5934
  239MOL0     H32256   3.218   2.748   3.425 -1.1147 -0.5921  1.0043
  239MOL0     H32257   3.012   2.707   3.326  1.9826 -0.1329  1.0357
  239MOL0     H32258   3.106   2.788   3.197 -2.1058  0.8091 -1.1687
  239MOL0     H32259   2.854   2.829   3.272  1.1642 -1.1861 -0.9913
  239MOL0     H32260   2.929   2.950   3.377 -0.3170  0.1015  0.8483
  239MOL0     H32261   2.946   3.097   2.962  1.1286 -1.9610 -1.9447
  239MOL0     H32262   3.485   3.125   3.326  0.6729 -0.2385  1.2821
  239MOL0     H32263   3.545   3.404   3.122  0.1362  0.1615  2.0212
  239MOL0     H32264   3.622   3.321   3.257  2.7108 -1.6475 -0.4711
  239MOL0     H32265   3.699   3.316   3.111  2.4840  1.0042  4.6817
  240MOL0     O32266   3.326  11.163   8.107 -0.3455  0.0360  0.1829
  240MOL0     C32267   3.301  11.042   8.102  0.2912  0.5480  0.9862
  240MOL0     O32268   3.326  10.954   7.996  0.6270  0.4744 -0.7116
  240MOL0     C32269   3.353  11.007   7.866 -0.0618 -0.4957  0.3821
  240MOL0     C32270   3.285  11.118   7.813  0.1588 -0.7298  0.2355
  240MOL0     C32271   3.321  11.169   7.685 -0.0340  0.6091  0.7282
  240MOL0     C32272   3.426  11.115   7.606  0.6397 -0.3326 -0.3194
  240MOL0     O32273   3.454  11.172   7.482  0.5143 -0.3264 -0.4757
  240MOL0     C32274   3.576  11.137   7.409  0.5781 -0.9575  0.3562
  240MOL0     C32275   3.595  11.230   7.285  1.0324  0.4901  0.5419
  240MOL0     C32276   3.464  11.242   7.198 -0.2899  0.9708 -0.0207
  240MOL0     C32277   3.431  11.108   7.131  0.0237 -0.5910 -0.4993
  240MOL0     C32278   3.506  11.077   7.004  0.8280 -0.0419  0.0254
  240MOL0     C32279   3.467  11.170   6.890  0.7798 -0.1731  0.3371
  240MOL0     C32280   3.332  11.139   6.824  0.7316 -0.2956 -0.7286
  240MOL0     C32281   3.273  11.260   6.734 -0.6920  0.3284 -0.7730
  240MOL0     N32282   3.378  11.307   6.645 -0.3111 -0.8500 -0.4783
  240MOL0     C32283   3.417  11.256   6.524  0.4240  0.4235  0.0763
  240MOL0     C32284   3.466  11.363   6.452 -0.6200 -0.1820 -1.2847
  240MOL0     C32285   3.541  11.355   6.314  0.4187 -0.9106 -0.6806
  240MOL0     C32286   3.688  11.332   6.325  0.2640  0.4284 -0.4036
  240MOL0     C32287   3.771  11.465   6.357  0.6577  0.3555  0.8664
  240MOL0     C32288   3.915  11.424   6.352 -0.3667  0.3658  0.0286
  240MOL0     O32289   3.970  11.346   6.461  0.3796 -0.2672  0.3312
  240MOL0     C32290   4.078  11.251   6.444 -0.4844  0.7129 -0.4466
  240MOL0     C32291   4.130  11.178   6.563  0.0318 -0.0885 -0.1453
  240MOL0     C32292   4.244  11.102   6.563  0.0105  1.1988 -0.7150
  240MOL0     C32293   4.322  11.081   6.442  0.1796  0.5859  0.1473
  240MOL0     C32294   4.457  11.027   6.429 -0.4315 -0.3491 -0.2006
  240MOL0     O32295   4.488  10.947   6.530 -0.3418  0.3981  0.1730
  240MOL0     C32296   4.605  10.868   6.524 -0.6581  0.1467  0.3677
  240MOL0     C32297   4.725  10.912   6.482 -0.0473  0.4176  0.1965
  240MOL0     C32298   4.838  10.825   6.471  0.2673 -0.0841 -0.3050
  240MOL0     C32299   4.820  10.684   6.497  1.0350 -0.0091  0.1904
  240MOL0     O32300   4.919  10.589   6.503 -0.1591  0.0050 -0.6010
  240MOL0     C32301   5.021  10.621   6.603  0.6957  0.6877 -0.4738
  240MOL0     C32302   5.155  10.563   6.553 -0.4803 -0.1160 -0.6964
  240MOL0     C32303   5.283  10.579   6.643 -0.0694  0.7106  0.5147
  240MOL0     C32304   5.287  10.490   6.770  0.0709  0.0469  0.3653
  240MOL0     C32305   5.414  10.500   6.864  0.2487 -0.2567  0.0245
  240MOL0     C32306   5.389  10.470   7.016 -0.1773 -0.0367  0.1714
  240MOL0     C32307   5.295  10.568   7.073  1.3399 -0.4240  0.0033
  240MOL0     C32308   5.278  10.537   7.218 -0.0159  0.1190  0.7192
  240MOL0    Cl32309   5.198  10.379   7.239 -0.1512  0.2037 -0.2452
  240MOL0     C32310   4.697  10.640   6.541 -0.3861 -0.2844  0.3011
  240MOL0     C32311   4.590  10.733   6.560  0.0243 -0.5205  0.2953
  240MOL0     O32312   4.527  11.048   6.323 -0.1642 -0.6008 -0.2067
  240MOL0     C32313   4.264  11.141   6.327 -0.1587 -0.5897 -0.1473
  240MOL0     C32314   4.154  11.229   6.329 -1.0566 -0.0171  0.1704
  240MOL0     N32315   3.462  11.476   6.534  0.6996  0.1662 -0.2583
  240MOL0     N32316   3.408  11.441   6.649  0.4237 -0.5350  0.1472
  240MOL0     C32317   3.493  11.011   7.660 -0.0863  0.1571 -0.1477
  240MOL0     C32318   3.457  10.949   7.785 -0.1563 -0.9963 -0.4859
  240MOL0     C32319   3.223  10.996   8.219 -0.4148 -0.0805 -0.0351
  240MOL0     C32320   3.218  10.861   8.232 -1.0041  0.3306  0.2897
  240MOL0     C32321   3.178  10.801   8.351 -0.1085  0.2748 -0.3370
  240MOL0     C32322   3.148  10.870   8.470 -0.1526 -0.4076  0.1671
  240MOL0     O32323   3.123  10.804   8.587 -0.0387 -0.5111 -0.6843
  240MOL0     C32324   3.082  10.665   8.589  0.0958 -0.0647 -0.4886
  240MOL0     C32325   3.198  10.578   8.606  0.1364 -0.1329 -0.3379
  240MOL0     C32326   3.195  10.462   8.504 -0.3665 -0.2591  0.2838
  240MOL0     C32327   3.317  10.375   8.530  0.0541 -0.7579  0.7232
  240MOL0     C32328   3.426  10.415   8.435  0.9411 -0.5142 -0.6946
  240MOL0     C32329   3.508  10.444   8.353 -0.3456 -0.4010 -0.0093
  240MOL0     C32330   3.151  11.012   8.456 -0.4709 -0.9297 -0.4326
  240MOL0     C32331   3.182  11.079   8.333  1.1562  0.6441 -0.2461
  240MOL0     C32332   3.178  11.227   8.334 -0.1012  0.6517 -0.1390
  240MOL0     H32333   3.216  11.170   7.878  0.8765 -1.4813  1.6335
  240MOL0     H32334   3.261  11.256   7.660 -1.2556 -0.3708  0.1558
  240MOL0     H32335   3.660  11.154   7.477 -0.4441 -3.3987  2.4099
  240MOL0     H32336   3.576  11.031   7.381 -0.9183 -0.1307 -3.4294
  240MOL0     H32337   3.677  11.187   7.227  0.8397 -0.6253  1.0658
  240MOL0     H32338   3.626  11.328   7.321 -0.5809  1.5330 -0.7602
  240MOL0     H32339   3.478  11.311   7.114 -0.3900 -0.7458 -1.4965
  240MOL0     H32340   3.382  11.269   7.265 -0.7552  0.2571 -0.2944
  240MOL0     H32341   3.456  11.028   7.201  2.8450 -1.0842 -1.9368
  240MOL0     H32342   3.322  11.113   7.121  0.0343  0.9300 -0.0983
  240MOL0     H32343   3.612  11.096   7.016  1.3671 -0.6096 -2.9309
  240MOL0     H32344   3.498  10.970   6.987  2.1587 -0.5873  2.4119
  240MOL0     H32345   3.445  11.272   6.924 -2.3139  0.2961 -2.4746
  240MOL0     H32346   3.545  11.164   6.814  1.3616  0.6150  0.8632
  240MOL0     H32347   3.250  11.112   6.892 -0.1051 -0.6237 -1.8265
  240MOL0     H32348   3.349  11.051   6.760 -0.9195 -0.6354 -0.7589
  240MOL0     H32349   3.180  11.229   6.685 -0.4177 -2.8224  0.4758
  240MOL0     H32350   3.250  11.339   6.806  0.1737  0.0981 -0.2262
  240MOL0     H32351   3.395  11.156   6.490  1.4443 -0.3028  1.4701
  240MOL0     H32352   3.498  11.266   6.267  1.2742 -1.9956  0.4976
  240MOL0     H32353   3.514  11.445   6.258  0.5247 -0.8269 -0.5975
  240MOL0     H32354   3.696  11.255   6.402  0.5954  0.4242 -0.4425
  240MOL0     H32355   3.720  11.292   6.229 -2.3544  1.5215 -1.8514
  240MOL0     H32356   3.736  11.499   6.455  0.2308  0.2230  0.7628
  240MOL0     H32357   3.759  11.539   6.278  3.1503  0.0285  0.1016
  240MOL0     H32358   3.973  11.514   6.330  3.0189 -1.9605 -1.4958
  240MOL0     H32359   3.932  11.373   6.257 -3.6677  3.4263 -2.4783
  240MOL0     H32360   4.076  11.202   6.655  0.3250  1.7321 -0.4191
  240MOL0     H32361   4.290  11.077   6.658 -0.0859 -0.2462 -1.0353
  240MOL0     H32362   4.731  11.014   6.444 -0.1505  0.5344  0.4952
  240MOL0     H32363   4.936  10.861   6.442 -0.9713  1.3715 -3.0443
  240MOL0     H32364   5.033  10.729   6.613  0.9949  0.6196 -0.0618
  240MOL0     H32365   5.000  10.576   6.700 -0.1525 -2.6656 -2.0708
  240MOL0     H32366   5.142  10.455   6.548  0.2161 -0.4303  2.2913
  240MOL0     H32367   5.177  10.609   6.457  1.5569 -0.5590 -0.4810
  240MOL0     H32368   5.370  10.542   6.587 -0.4967 -2.5198  1.7769
  240MOL0     H32369   5.299  10.686   6.657  0.9431  1.1274 -2.9730
  240MOL0     H32370   5.291  10.385   6.738  0.9368 -0.3512  1.6901
  240MOL0     H32371   5.195  10.506   6.827  0.3803  0.4483  0.7538
  240MOL0     H32372   5.460  10.599   6.861 -1.5585  0.6579  0.9242
  240MOL0     H32373   5.479  10.421   6.826 -2.0915 -2.2190 -0.1262
  240MOL0     H32374   5.345  10.371   7.033 -1.6223  0.5470  0.0014
  240MOL0     H32375   5.480  10.486   7.073  0.3568 -1.6367 -0.1764
  240MOL0     H32376   5.197  10.570   7.024  0.8666 -0.9318  0.9150
  240MOL0     H32377   5.332  10.668   7.049  0.7967 -0.5502 -1.4955
  240MOL0     H32378   5.381  10.524   7.252  0.6032 -1.4919 -1.5391
  240MOL0     H32379   5.221  10.615   7.270  0.4867  0.4039  0.8420
  240MOL0     H32380   4.695  10.536   6.571 -1.2041 -0.8792 -1.6463
  240MOL0     H32381   4.498  10.698   6.608 -0.4706 -2.4159 -1.8614
  240MOL0     H32382   4.304  11.123   6.228  2.3465  0.0012  0.6797
  240MOL0     H32383   4.130  11.278   6.235 -1.4849 -0.3973  0.0775
  240MOL0     H32384   3.595  10.991   7.629  0.9993  2.7908  1.3425
  240MOL0     H32385   3.521  10.877   7.835  1.5714 -1.1274 -2.7187
  240MOL0     H32386   3.260  10.798   8.154 -0.2349  1.2071 -0.0357
  240MOL0     H32387   3.176  10.692   8.352  4.1596  0.0377  1.4441
  240MOL0     H32388   3.025  10.638   8.500  0.2456 -0.5876 -0.4286
  240MOL0     H32389   3.009  10.643   8.667 -0.5403 -0.4357 -1.1807
  240MOL0     H32390   3.194  10.538   8.708 -2.0079 -0.8730 -0.6622
  240MOL0     H32391   3.291  10.635   8.600 -0.0898  0.3725  0.7079
  240MOL0     H32392   3.204  10.497   8.401 -0.4529 -1.2739 -0.0833
  240MOL0     H32393   3.095  10.417   8.503 -0.6693  0.3742 -1.0531
  240MOL0     H32394   3.346  10.388   8.635 -0.1758  0.8551  0.6221
  240MOL0     H32395   3.290  10.270   8.521  0.1173 -0.6089 -2.4687
  240MOL0     H32396   3.593  10.456   8.288  0.3342  2.0701  1.2193
  240MOL0     H32397   3.119  11.071   8.541  0.5983 -0.1369 -0.5658
  240MOL0     H32398   3.116  11.262   8.417 -0.4535  0.8348 -0.4791
  240MOL0     H32399   3.276  11.276   8.326 -0.1277  0.6067 -0.7838
  240MOL0     H32400   3.117  11.259   8.250  0.3866  1.8824 -0.0499
  241MOL0     O32401   4.408   7.614   3.134  0.0366 -0.5575  0.0256
  241MOL0     C32402   4.474   7.528   3.067  0.4533  0.1500 -1.4147
  241MOL0     O32403   4.605   7.492   3.091 -0.9301  0.2576  0.3114
  241MOL0     C32404   4.682   7.572   3.163  0.1763 -0.1655  0.4721
  241MOL0     C32405   4.670   7.711   3.201  0.4408  0.5855 -0.1426
  241MOL0     C32406   4.781   7.777   3.268 -0.4054  0.0718  0.5575
  241MOL0     C32407   4.890   7.706   3.298  0.5320  0.4194 -0.3043
  241MOL0     O32408   5.000   7.755   3.352 -0.4070 -0.5548 -0.3951
  241MOL0     C32409   5.007   7.888   3.412  0.3440  0.0678  0.1359
  241MOL0     C32410   5.155   7.934   3.414  0.5832 -0.5956 -0.7520
  241MOL0     C32411   5.162   8.077   3.469  0.2429 -0.1659 -0.5462
  241MOL0     C32412   5.191   8.076   3.614  0.5149 -0.7070 -0.3026
  241MOL0     C32413   5.334   8.127   3.638 -0.3152 -0.0164  0.2458
  241MOL0     C32414   5.370   8.148   3.784  1.3257  0.3889  0.3617
  241MOL0     C32415   5.347   8.032   3.889 -0.1888 -0.5772  0.1309
  241MOL0     C32416   5.409   8.077   4.016 -0.3394  0.5533  0.6933
  241MOL0     N32417   5.549   8.127   4.008 -0.0158  0.0026 -0.7199
  241MOL0     C32418   5.591   8.255   4.014  0.1360 -0.1367  0.7079
  241MOL0     C32419   5.722   8.254   4.005  0.4300  0.4267  0.8653
  241MOL0     C32420   5.801   8.383   3.988 -1.1379 -1.0293 -0.9745
  241MOL0     C32421   5.885   8.426   4.110 -0.8169 -0.2911 -0.2652
  241MOL0     C32422   5.807   8.475   4.228 -0.0402  0.0245 -0.8089
  241MOL0     C32423   5.903   8.518   4.348 -0.4902 -0.8338 -0.2139
  241MOL0     O32424   5.848   8.530   4.482 -0.4119 -0.2892 -0.4446
  241MOL0     C32425   5.925   8.573   4.588  0.3677 -1.4984  0.5369
  241MOL0     C32426   6.066   8.592   4.577  1.3258  0.1583 -0.3940
  241MOL0     C32427   6.146   8.629   4.687  0.7801 -1.0273  0.9136
  241MOL0     C32428   6.089   8.623   4.815  0.5740  0.9332 -1.1188
  241MOL0     C32429   6.173   8.635   4.933  0.4046  0.5271 -0.1356
  241MOL0     O32430   6.307   8.632   4.908  0.0406 -0.2348 -0.1463
  241MOL0     C32431   6.409   8.651   4.996 -0.1681  0.5549 -0.2157
  241MOL0     C32432   6.400   8.725   5.112  0.2888 -0.6004 -1.2403
  241MOL0     C32433   6.506   8.730   5.206  0.2728 -0.8003 -0.3542
  241MOL0     C32434   6.622   8.668   5.175  0.2187  0.2682 -0.2610
  241MOL0     O32435   6.722   8.667   5.265 -0.0606 -0.2613  0.5833
  241MOL0     C32436   6.854   8.656   5.208 -0.5272 -0.6209  0.2317
  241MOL0     C32437   6.948   8.693   5.326  0.2183  0.1413 -0.4596
  241MOL0     C32438   6.941   8.843   5.356  0.6467 -0.0413 -0.0684
  241MOL0     C32439   7.056   8.886   5.442 -0.1429  0.8705  0.5900
  241MOL0     C32440   7.035   9.025   5.508  0.3595  0.4500 -1.3709
  241MOL0     C32441   7.158   9.057   5.598  0.3137  0.1939 -0.3623
  241MOL0     C32442   7.135   9.187   5.669  0.3148 -0.0046  0.1780
  241MOL0     C32443   7.216   9.184   5.799 -0.2353 -0.1033 -0.2452
  241MOL0    Cl32444   7.113   9.116   5.926  0.0359  0.2900 -0.1655
  241MOL0     C32445   6.629   8.590   5.058 -0.1899  0.3432 -0.6744
  241MOL0     C32446   6.524   8.589   4.971  0.8384  1.0268  0.4954
  241MOL0     O32447   6.118   8.645   5.040 -0.2352  0.1714 -0.9707
  241MOL0     C32448   5.951   8.626   4.827 -0.1402 -0.8331 -0.7768
  241MOL0     C32449   5.876   8.602   4.719 -0.0776  0.6495  0.1187
  241MOL0     N32450   5.757   8.123   3.976 -0.6853 -0.5495  0.0435
  241MOL0     N32451   5.656   8.048   3.992 -0.4525  0.8353 -0.2488
  241MOL0     C32452   4.894   7.572   3.274  0.3132 -0.2182 -0.0148
  241MOL0     C32453   4.799   7.508   3.203  0.4967 -0.5797 -0.1018
  241MOL0     C32454   4.395   7.457   2.966  0.8853 -0.1538  0.1411
  241MOL0     C32455   4.434   7.328   2.943 -0.5853 -0.2246  0.1046
  241MOL0     C32456   4.349   7.239   2.871  0.3661  0.5416  0.5114
  241MOL0     C32457   4.234   7.289   2.814  0.1668  1.5091  0.7515
  241MOL0     O32458   4.171   7.193   2.740 -0.0669 -0.1899  0.1036
  241MOL0     C32459   4.031   7.211   2.690  0.2770 -0.4186 -0.8333
  241MOL0     C32460   4.017   7.285   2.550 -0.8937  0.2124 -0.2685
  241MOL0     C32461   4.066   7.205   2.440 -0.2821  0.2480  0.0211
  241MOL0     C32462   4.021   7.232   2.297 -0.2136 -0.2759  0.1296
  241MOL0     C32463   4.125   7.185   2.199  0.1574  0.1960  0.0648
  241MOL0     C32464   4.203   7.161   2.114 -0.4366 -0.5340  0.2517
  241MOL0     C32465   4.193   7.415   2.833  0.6281 -0.5798  0.2064
  241MOL0     C32466   4.277   7.496   2.901  0.7581 -0.3117 -0.6061
  241MOL0     C32467   4.240   7.647   2.897  0.1013 -0.2503  0.0520
  241MOL0     H32468   4.585   7.775   3.177 -1.3789 -1.9661 -0.9524
  241MOL0     H32469   4.786   7.883   3.290 -2.1595  0.2099  0.4530
  241MOL0     H32470   4.937   7.957   3.363 -2.1412 -2.6344 -0.3677
  241MOL0     H32471   4.971   7.885   3.515 -4.0765  0.1615 -1.2014
  241MOL0     H32472   5.186   7.931   3.309 -1.6244  1.4336 -1.5456
  241MOL0     H32473   5.219   7.865   3.470  2.0255  0.7468 -0.6945
  241MOL0     H32474   5.065   8.128   3.461 -1.2511 -2.7426 -0.2411
  241MOL0     H32475   5.240   8.137   3.421 -2.6261  2.6652 -2.0684
  241MOL0     H32476   5.113   8.144   3.649 -1.6888 -1.3508 -3.5177
  241MOL0     H32477   5.177   7.984   3.672 -1.3496 -0.8381 -0.8979
  241MOL0     H32478   5.401   8.055   3.590  0.5775  0.6045  0.5428
  241MOL0     H32479   5.354   8.219   3.581  2.0712 -1.2813 -1.0996
  241MOL0     H32480   5.478   8.166   3.779  1.2613  0.3017 -3.0024
  241MOL0     H32481   5.334   8.244   3.822 -0.2821 -0.2704  0.5820
  241MOL0     H32482   5.412   7.945   3.874  1.5673  0.7177 -0.0099
  241MOL0     H32483   5.239   8.017   3.901 -0.4933  1.1793 -0.2078
  241MOL0     H32484   5.343   8.152   4.061 -0.4400  0.7737  0.1896
  241MOL0     H32485   5.406   8.004   4.097 -1.3828  0.0829  0.2465
  241MOL0     H32486   5.523   8.340   4.011  0.6567  0.2852  0.7910
  241MOL0     H32487   5.871   8.364   3.906  0.5420 -4.1978  0.9971
  241MOL0     H32488   5.740   8.468   3.955  3.3263  2.7035 -0.6898
  241MOL0     H32489   5.956   8.351   4.145  0.8602  1.6518  0.7304
  241MOL0     H32490   5.948   8.504   4.067  0.2693 -2.3488 -2.6802
  241MOL0     H32491   5.735   8.400   4.263  1.1994  0.6587  3.8087
  241MOL0     H32492   5.751   8.564   4.197  0.1066  0.7208  0.8083
  241MOL0     H32493   5.949   8.615   4.325 -0.5277 -0.1475  2.3571
  241MOL0     H32494   5.982   8.443   4.356 -0.8173 -1.0924  0.6418
  241MOL0     H32495   6.116   8.580   4.481  0.3095  1.4481 -1.1110
  241MOL0     H32496   6.252   8.650   4.677  0.2080  1.6430 -0.2338
  241MOL0     H32497   6.315   8.783   5.147  1.6792 -0.6129  2.5918
  241MOL0     H32498   6.493   8.780   5.301 -0.5740 -1.2107 -0.2417
  241MOL0     H32499   6.889   8.556   5.177  3.1822  0.7365 -0.5034
  241MOL0     H32500   6.874   8.726   5.127  0.7217  1.1089  1.9673
  241MOL0     H32501   6.921   8.637   5.416  0.1070 -0.1611 -0.6800
  241MOL0     H32502   7.052   8.681   5.296  0.2426 -1.9186  0.3182
  241MOL0     H32503   6.927   8.905   5.268 -0.8690  0.7335  0.6668
  241MOL0     H32504   6.846   8.859   5.409  1.5419 -0.8632  1.8810
  241MOL0     H32505   7.146   8.882   5.379  0.0866 -1.0234  0.9720
  241MOL0     H32506   7.075   8.808   5.517 -0.8678 -0.9646 -1.0428
  241MOL0     H32507   6.942   9.019   5.565 -0.3600 -1.1376 -2.6272
  241MOL0     H32508   7.018   9.099   5.430  1.0964  1.4652 -0.5968
  241MOL0     H32509   7.166   8.973   5.668 -1.9916  1.1384  1.1245
  241MOL0     H32510   7.253   9.066   5.544 -0.0109  0.2288 -0.9358
  241MOL0     H32511   7.030   9.209   5.693 -0.0046  1.3080 -2.1210
  241MOL0     H32512   7.177   9.257   5.596 -0.2417 -2.2414 -2.4456
  241MOL0     H32513   7.314   9.137   5.793 -0.6202 -0.8285 -1.1332
  241MOL0     H32514   7.236   9.285   5.836 -3.0147  1.2024 -1.9676
  241MOL0     H32515   6.719   8.528   5.055  0.5426  1.0742  2.3912
  241MOL0     H32516   6.534   8.533   4.878 -2.3518  0.0504  0.6232
  241MOL0     H32517   5.895   8.637   4.919  0.4497 -3.6586 -0.0070
  241MOL0     H32518   5.769   8.596   4.736 -0.4711  0.6860 -2.1233
  241MOL0     H32519   4.975   7.514   3.318 -1.8399 -1.7478  2.1863
  241MOL0     H32520   4.805   7.404   3.173 -1.0160 -0.7242 -0.0095
  241MOL0     H32521   4.513   7.279   3.000 -0.6344 -1.2588 -0.6678
  241MOL0     H32522   4.379   7.136   2.857 -1.2441  0.0802  0.3286
  241MOL0     H32523   3.974   7.274   2.759  0.3633 -0.8425 -0.3674
  241MOL0     H32524   3.984   7.113   2.678 -1.2853  0.0514  0.9408
  241MOL0     H32525   4.067   7.381   2.563  1.4752 -1.2522  2.9101
  241MOL0     H32526   3.918   7.324   2.525 -0.5403  0.3826 -1.4466
  241MOL0     H32527   4.052   7.101   2.471  2.9506 -0.5260 -0.6899
  241MOL0     H32528   4.172   7.231   2.450 -0.8929  2.6351  0.7389
  241MOL0     H32529   3.918   7.208   2.267  0.1364 -0.3546 -1.0505
  241MOL0     H32530   4.014   7.341   2.289 -3.7349 -0.2977  1.0101
  241MOL0     H32531   4.280   7.130   2.046 -0.0882  0.8574 -0.0223
  241MOL0     H32532   4.098   7.447   2.790  1.0660 -0.6095 -0.8038
  241MOL0     H32533   4.132   7.651   2.910  0.3254  0.8728  1.9198
  241MOL0     H32534   4.288   7.724   2.959 -2.3917  2.5100 -1.2215
  241MOL0     H32535   4.251   7.678   2.793 -4.9340 -0.5363 -0.7939
  242MOL0     O32536   6.422   3.863  11.273 -0.0236 -0.3236  0.2592
  242MOL0     C32537   6.433   3.847  11.153 -0.9263 -0.9372  0.0006
  242MOL0     O32538   6.332   3.815  11.061 -0.1234 -0.9151  0.1917
  242MOL0     C32539   6.202   3.775  11.079  0.3295 -1.0739 -0.1091
  242MOL0     C32540   6.127   3.741  10.969  0.6462  0.9961  0.8263
  242MOL0     C32541   5.989   3.717  10.991 -0.4003 -0.0998  0.2542
  242MOL0     C32542   5.923   3.710  11.112 -0.4949  0.1998  0.5663
  242MOL0     O32543   5.784   3.684  11.104 -0.7201  0.2110  0.5413
  242MOL0     C32544   5.703   3.702  11.230  0.2773  0.4899  0.4911
  242MOL0     C32545   5.551   3.716  11.198 -0.5620  0.4833 -0.8413
  242MOL0     C32546   5.500   3.597  11.112  0.7918  0.1064 -0.6117
  242MOL0     C32547   5.346   3.594  11.100  0.5512  0.3436 -0.8863
  242MOL0     C32548   5.290   3.535  11.222  0.9403  0.5694 -0.8866
  242MOL0     C32549   5.271   3.380  11.234 -1.0469  0.1036 -0.9707
  242MOL0     C32550   5.176   3.346  11.348  0.0510  0.2312 -0.2618
  242MOL0     C32551   5.157   3.190  11.366 -0.4246 -0.6191 -0.0746
  242MOL0     N32552   5.098   3.143  11.241  0.9608 -0.1820 -0.4223
  242MOL0     C32553   4.985   3.202  11.186  0.4168  0.3066 -0.9665
  242MOL0     C32554   4.939   3.106  11.096 -0.2569 -0.0327  0.5835
  242MOL0     C32555   4.830   3.140  11.002  1.2214 -0.3423  0.2617
  242MOL0     C32556   4.713   3.048  11.029  0.0744  0.6624 -0.4810
  242MOL0     C32557   4.587   3.099  10.963  1.5737 -0.2571 -0.7785
  242MOL0     C32558   4.481   2.997  11.011 -0.2275 -0.8563  1.3487
  242MOL0     O32559   4.407   3.059  11.128  0.2318  0.4327 -0.1909
  242MOL0     C32560   4.271   3.060  11.107  0.0969  0.1395 -0.6015
  242MOL0     C32561   4.210   3.181  11.081 -0.8784 -0.5436 -0.7430
  242MOL0     C32562   4.077   3.179  11.051  0.4123 -0.1764  0.2009
  242MOL0     C32563   4.005   3.064  11.035 -1.2104  0.7820  0.4640
  242MOL0     C32564   3.864   3.067  10.993  0.1422 -0.4690 -0.7026
  242MOL0     O32565   3.804   2.941  11.018 -0.4834 -0.4530 -0.0357
  242MOL0     C32566   3.672   2.943  11.016  0.3038  0.1484 -0.1651
  242MOL0     C32567   3.604   2.881  10.915  0.3426 -0.5010  0.6384
  242MOL0     C32568   3.462   2.882  10.905  0.6650  0.8290  0.2925
  242MOL0     C32569   3.391   2.942  11.005  0.1363  0.7384  0.4556
  242MOL0     O32570   3.251   2.953  10.973 -0.3775  0.2773 -0.0819
  242MOL0     C32571   3.157   3.014  11.065  0.1818  1.0003  0.3228
  242MOL0     C32572   3.019   2.998  11.008 -0.2384  0.9014  1.2098
  242MOL0     C32573   2.921   3.037  11.108  0.4040 -0.0222  0.4569
  242MOL0     C32574   2.786   3.027  11.042  0.3809 -0.0893  0.0452
  242MOL0     C32575   2.682   3.056  11.146  0.2674  0.5520 -1.1738
  242MOL0     C32576   2.650   2.942  11.244 -0.2948  0.3229  0.4769
  242MOL0     C32577   2.502   2.922  11.247 -0.4629  0.5751 -0.7431
  242MOL0     C32578   2.454   2.845  11.375  0.6982 -0.0599  0.0265
  242MOL0    Cl32579   2.461   2.962  11.510  0.3260  0.4933 -0.1289
  242MOL0     C32580   3.458   2.994  11.116  0.5703 -0.7047  0.2511
  242MOL0     C32581   3.596   2.995  11.122  0.6344  0.3801 -0.9548
  242MOL0     O32582   3.811   3.174  10.977 -0.7126 -0.2081  0.5071
  242MOL0     C32583   4.068   2.940  11.061 -0.3992 -0.9792  0.8540
  242MOL0     C32584   4.199   2.944  11.100  0.2488  0.4543  0.0466
  242MOL0     N32585   5.024   3.000  11.084  0.6668 -0.3701 -0.1802
  242MOL0     N32586   5.114   3.022  11.183  0.5588  0.2905 -0.3928
  242MOL0     C32587   6.000   3.746  11.224 -0.7129 -0.5725  0.0013
  242MOL0     C32588   6.139   3.771  11.208 -0.6913 -0.1517  0.1964
  242MOL0     C32589   6.558   3.890  11.092 -0.1446  0.6584  0.1955
  242MOL0     C32590   6.596   4.024  11.115 -1.5159  0.4956  0.0207
  242MOL0     C32591   6.698   4.075  11.043 -0.1183  0.1925 -1.3796
  242MOL0     C32592   6.767   3.994  10.961  0.0666 -0.0389  0.3569
  242MOL0     O32593   6.868   4.052  10.901 -0.8863 -0.6790 -0.2755
  242MOL0     C32594   6.964   3.969  10.837  0.4701 -0.9790  0.1896
  242MOL0     C32595   7.063   4.062  10.765 -0.0199  0.8262 -0.0171
  242MOL0     C32596   7.167   4.112  10.868  0.0608  0.8984  0.2680
  242MOL0     C32597   7.262   4.211  10.812 -0.2732 -0.4028 -2.0430
  242MOL0     C32598   7.367   4.154  10.727 -0.1042  0.0294  0.2696
  242MOL0     C32599   7.447   4.117  10.644  0.2819  0.3790  0.2165
  242MOL0     C32600   6.739   3.855  10.948 -0.1075  0.1992  0.2468
  242MOL0     C32601   6.629   3.801  11.010 -0.2519 -0.7038  0.4393
  242MOL0     C32602   6.598   3.653  10.987 -0.1622  0.0947 -0.8065
  242MOL0     H32603   6.166   3.712  10.873  0.6447 -3.9173  2.0681
  242MOL0     H32604   5.916   3.698  10.913 -0.8048  0.1105  0.5754
  242MOL0     H32605   5.706   3.616  11.298  0.9360 -0.8494 -1.1749
  242MOL0     H32606   5.737   3.799  11.268  0.2316  0.5882  0.2818
  242MOL0     H32607   5.524   3.810  11.150 -1.6395  0.9293  0.5793
  242MOL0     H32608   5.500   3.722  11.294  0.6634  0.6860 -0.1791
  242MOL0     H32609   5.533   3.509  11.168 -2.8737 -0.7467  0.5038
  242MOL0     H32610   5.540   3.602  11.011  0.4276  1.2653 -0.7073
  242MOL0     H32611   5.314   3.697  11.083  0.7090  1.4059  3.8652
  242MOL0     H32612   5.306   3.533  11.018 -1.7574 -0.8518  0.9842
  242MOL0     H32613   5.352   3.559  11.309 -0.7243  3.1577 -0.3150
  242MOL0     H32614   5.197   3.585  11.249  0.0840 -1.8425  1.0205
  242MOL0     H32615   5.228   3.349  11.138 -1.2912 -0.8457 -0.5597
  242MOL0     H32616   5.363   3.327  11.262 -0.8285  1.5040  1.2215
  242MOL0     H32617   5.092   3.410  11.322  1.8373  2.9020  0.1232
  242MOL0     H32618   5.214   3.380  11.445 -1.2813  0.0029  0.3610
  242MOL0     H32619   5.257   3.150  11.383  0.0827  0.4710 -0.4129
  242MOL0     H32620   5.083   3.174  11.444 -1.4097 -1.7579 -1.1813
  242MOL0     H32621   4.948   3.300  11.214  2.2588  0.9442 -0.6652
  242MOL0     H32622   4.805   3.247  11.006  1.5748 -0.1763 -1.1805
  242MOL0     H32623   4.873   3.131  10.901 -0.1378 -0.9145 -0.2834
  242MOL0     H32624   4.740   2.949  10.992  0.4513  0.8570 -0.7395
  242MOL0     H32625   4.700   3.039  11.137 -0.7633 -4.5906 -0.7448
  242MOL0     H32626   4.607   3.096  10.856 -0.0615 -1.5809 -1.0912
  242MOL0     H32627   4.560   3.201  10.992 -4.0913 -1.1203 -1.7858
  242MOL0     H32628   4.528   2.900  11.030 -1.3653 -1.9168 -0.9290
  242MOL0     H32629   4.414   2.980  10.927  2.8478  0.8884 -1.7179
  242MOL0     H32630   4.270   3.271  11.091  0.4965 -1.5152  0.1299
  242MOL0     H32631   4.037   3.278  11.028  0.1386 -0.5707 -1.1079
  242MOL0     H32632   3.660   2.834  10.836  0.5647  0.8665 -0.0485
  242MOL0     H32633   3.410   2.837  10.821 -3.7572  0.7266  2.7793
  242MOL0     H32634   3.167   2.966  11.163 -0.7061 -3.0705 -1.3640
  242MOL0     H32635   3.177   3.119  11.085 -1.3310  0.8109  3.2564
  242MOL0     H32636   3.004   3.055  10.916 -2.7603  0.7649  1.4783
  242MOL0     H32637   3.008   2.889  11.000 -1.9145  1.1115  0.1412
  242MOL0     H32638   2.916   2.976  11.199  0.7446 -0.2035  0.3571
  242MOL0     H32639   2.941   3.142  11.131  0.1577 -0.3400  2.2208
  242MOL0     H32640   2.766   2.933  10.989  1.6791  0.3969 -1.3523
  242MOL0     H32641   2.781   3.110  10.971 -1.3393  1.0168  1.3694
  242MOL0     H32642   2.596   3.080  11.083 -1.7472 -3.6728 -0.3437
  242MOL0     H32643   2.726   3.131  11.212  0.5364 -0.4554 -0.1821
  242MOL0     H32644   2.704   2.852  11.212  0.1631 -0.3379  2.9447
  242MOL0     H32645   2.694   2.958  11.343  2.0444 -0.7092 -0.3181
  242MOL0     H32646   2.478   2.857  11.162  0.8731 -2.1735  0.8408
  242MOL0     H32647   2.440   3.012  11.247  0.9514  1.6761  2.0353
  242MOL0     H32648   2.349   2.823  11.356  0.9804  0.7460 -2.8302
  242MOL0     H32649   2.508   2.754  11.403 -0.5995 -0.1059  2.6815
  242MOL0     H32650   3.414   3.046  11.201  0.4524  1.9233 -1.3158
  242MOL0     H32651   3.654   3.053  11.193  2.8224 -1.7430 -0.8883
  242MOL0     H32652   4.012   2.849  11.043  0.0315 -0.5521 -4.1830
  242MOL0     H32653   4.249   2.853  11.134  0.8632  1.3165  1.5678
  242MOL0     H32654   5.962   3.720  11.322  0.8243 -4.5117 -0.2533
  242MOL0     H32655   6.210   3.787  11.289 -0.8434  4.0607 -0.2956
  242MOL0     H32656   6.550   4.087  11.190  0.7764  0.2533  1.7481
  242MOL0     H32657   6.725   4.180  11.054 -2.5513  0.7417  0.0626
  242MOL0     H32658   6.920   3.910  10.755 -2.1924  0.3767  0.5344
  242MOL0     H32659   7.014   3.908  10.912  1.7483 -2.3028 -1.6344
  242MOL0     H32660   7.027   4.146  10.705 -0.3229  0.6477 -0.0854
  242MOL0     H32661   7.117   4.002  10.690 -1.3652 -1.2632  0.5928
  242MOL0     H32662   7.217   4.023  10.907  0.2811  0.6198 -0.6300
  242MOL0     H32663   7.124   4.155  10.959  1.5840 -0.3099  1.6233
  242MOL0     H32664   7.210   4.292  10.760 -0.3139 -0.6703 -2.4146
  242MOL0     H32665   7.303   4.269  10.896 -2.6385 -0.3333 -0.8472
  242MOL0     H32666   7.522   4.082  10.576  1.0094 -1.8534  2.0230
  242MOL0     H32667   6.790   3.790  10.878 -0.0584  0.4830  0.0137
  242MOL0     H32668   6.691   3.602  10.957  1.1741 -0.2940  3.3072
  242MOL0     H32669   6.558   3.603  11.076 -3.2235  0.7579 -1.7054
  242MOL0     H32670   6.526   3.640  10.906 -3.9936  3.1127  1.7756
  243MOL0     O32671   4.163   1.812   5.181 -0.4287  1.0106 -0.0130
  243MOL0     C32672   4.168   1.894   5.094  0.1847 -0.3510  0.2375
  243MOL0     O32673   4.117   2.023   5.104  0.2177  0.8580 -0.2093
  243MOL0     C32674   4.075   2.067   5.230  0.2816 -0.0505 -0.2627
  243MOL0     C32675   3.937   2.081   5.254 -1.1956 -0.4725 -0.7254
  243MOL0     C32676   3.898   2.126   5.375  0.2563 -0.3418  0.4145
  243MOL0     C32677   3.978   2.149   5.483 -0.8179 -0.3122  0.0568
  243MOL0     O32678   3.921   2.203   5.598  0.1880  0.1473 -0.3235
  243MOL0     C32679   3.968   2.180   5.735  0.1613  0.0888  0.1199
  243MOL0     C32680   3.865   2.262   5.825 -0.2881  0.1339 -1.0928
  243MOL0     C32681   3.877   2.417   5.805  0.0159 -0.7929 -0.0385
  243MOL0     C32682   4.013   2.479   5.829 -0.4954 -0.0920  0.2547
  243MOL0     C32683   3.996   2.628   5.869 -0.4944  0.3331 -0.8991
  243MOL0     C32684   4.127   2.705   5.883 -0.6466  0.3300  0.1391
  243MOL0     C32685   4.101   2.853   5.916  0.0507 -0.2968 -0.3730
  243MOL0     C32686   4.227   2.934   5.899  0.3053  0.8112  0.5358
  243MOL0     N32687   4.230   3.061   5.960  0.2069  0.9295  0.6557
  243MOL0     C32688   4.136   3.156   5.917  0.1537  0.2399 -0.5564
  243MOL0     C32689   4.150   3.256   6.011 -0.5351  0.0903 -0.0467
  243MOL0     C32690   4.075   3.380   6.016 -0.2093 -0.2245  0.0105
  243MOL0     C32691   4.158   3.502   6.048  0.3022 -0.1982  0.6900
  243MOL0     C32692   4.052   3.612   6.081 -0.6135  0.5891  0.0353
  243MOL0     C32693   4.114   3.749   6.110  0.2630 -0.4984 -0.0971
  243MOL0     O32694   4.238   3.757   6.178  0.3914 -0.0344 -0.3116
  243MOL0     C32695   4.286   3.875   6.226 -0.2518 -0.2222 -0.3023
  243MOL0     C32696   4.416   3.868   6.284  0.3890  0.5210  1.0346
  243MOL0     C32697   4.479   3.990   6.317  0.4884 -1.4472  0.8225
  243MOL0     C32698   4.413   4.117   6.296 -0.0740 -0.2383  0.9851
  243MOL0     C32699   4.501   4.242   6.309  0.5343 -0.0179  0.0856
  243MOL0     O32700   4.618   4.232   6.375 -0.1484  0.4493 -0.2316
  243MOL0     C32701   4.684   4.349   6.395  0.2570  0.3899 -0.0731
  243MOL0     C32702   4.746   4.425   6.295  0.5405  0.4565  0.4655
  243MOL0     C32703   4.814   4.541   6.320 -0.1965  0.6967  0.0414
  243MOL0     C32704   4.833   4.590   6.455 -0.4072  0.3282  0.0689
  243MOL0     O32705   4.901   4.698   6.497  0.0916 -0.0940  0.2701
  243MOL0     C32706   4.965   4.774   6.404 -0.0921 -0.1175 -0.2601
  243MOL0     C32707   4.989   4.911   6.465 -0.4990 -0.8823 -0.0285
  243MOL0     C32708   4.868   5.004   6.454 -0.6746 -0.0658 -0.2631
  243MOL0     C32709   4.914   5.149   6.483  0.2481  0.7001  0.0180
  243MOL0     C32710   4.903   5.170   6.632  0.3344  0.5609 -0.7326
  243MOL0     C32711   4.992   5.285   6.674 -0.0903 -0.9377 -1.1576
  243MOL0     C32712   5.007   5.305   6.826 -0.6030  0.6666  0.0628
  243MOL0     C32713   5.140   5.377   6.871  0.5401 -0.3598  0.1533
  243MOL0    Cl32714   5.263   5.251   6.834 -0.0734 -0.1883  0.3286
  243MOL0     C32715   4.761   4.514   6.549  0.6363  0.2281 -0.7288
  243MOL0     C32716   4.690   4.392   6.520 -0.6617  0.8260 -0.2940
  243MOL0     O32717   4.465   4.340   6.245  0.4689  0.1593 -0.0560
  243MOL0     C32718   4.284   4.122   6.241 -0.2291  0.1390  0.3785
  243MOL0     C32719   4.223   4.000   6.206  0.7178  0.7057 -0.7497
  243MOL0     N32720   4.265   3.223   6.089 -0.4327  0.1247 -0.8262
  243MOL0     N32721   4.308   3.095   6.057  1.0002 -0.3816 -0.4951
  243MOL0     C32722   4.115   2.134   5.462 -0.7726  0.4399 -0.1136
  243MOL0     C32723   4.164   2.092   5.338 -0.5451 -0.4577 -0.0841
  243MOL0     C32724   4.236   1.872   4.966  0.5574 -0.7644 -0.0481
  243MOL0     C32725   4.298   1.987   4.905  1.3653  0.4488 -0.3762
  243MOL0     C32726   4.370   1.983   4.789  0.4550 -0.1424 -0.3216
  243MOL0     C32727   4.379   1.867   4.714 -0.6321 -0.5197 -0.2802
  243MOL0     O32728   4.434   1.866   4.590  0.5319 -0.1271  0.8051
  243MOL0     C32729   4.437   1.746   4.519 -0.1649  0.4148  0.0029
  243MOL0     C32730   4.534   1.645   4.562  0.0963  0.5339  0.6985
  243MOL0     C32731   4.655   1.622   4.466  0.6758 -0.4006 -1.0104
  243MOL0     C32732   4.745   1.510   4.519 -0.3547  0.1164  0.0224
  243MOL0     C32733   4.769   1.417   4.413  0.3790 -1.0480  0.0008
  243MOL0     C32734   4.777   1.334   4.321 -0.3136  0.1957 -1.2480
  243MOL0     C32735   4.308   1.758   4.764 -0.1019 -0.2469  0.8165
  243MOL0     C32736   4.247   1.748   4.895  0.4233 -0.6701  0.5018
  243MOL0     C32737   4.178   1.621   4.947 -0.5890 -0.6626 -0.0980
  243MOL0     H32738   3.866   2.062   5.174 -0.9868 -2.0538 -0.5516
  243MOL0     H32739   3.793   2.141   5.398  0.6136  1.8807  0.8387
  243MOL0     H32740   3.959   2.074   5.760 -0.6916 -0.1125 -0.9935
  243MOL0     H32741   4.071   2.217   5.735  0.1320  1.1135  5.6212
  243MOL0     H32742   3.886   2.227   5.926 -0.6237  1.3901 -0.5748
  243MOL0     H32743   3.761   2.226   5.822 -0.4477  0.2535  1.3297
  243MOL0     H32744   3.809   2.469   5.874 -0.7515 -1.7669 -0.0566
  243MOL0     H32745   3.835   2.452   5.710 -0.6636  1.5066  1.0206
  243MOL0     H32746   4.064   2.426   5.910  0.7326 -0.2113 -0.5856
  243MOL0     H32747   4.070   2.473   5.736 -0.8823  4.3770 -0.4718
  243MOL0     H32748   3.947   2.678   5.785 -3.9035 -2.2782 -0.7041
  243MOL0     H32749   3.942   2.636   5.964  2.3223 -0.1265  0.8685
  243MOL0     H32750   4.189   2.671   5.966 -1.6407  1.0103  1.1979
  243MOL0     H32751   4.190   2.703   5.793  3.8030  1.3231  2.9186
  243MOL0     H32752   4.078   2.872   6.022  2.3731  0.4371  0.0614
  243MOL0     H32753   4.023   2.898   5.855  0.1787  1.9645  1.0183
  243MOL0     H32754   4.304   2.875   5.948  0.0138  1.7571  2.1906
  243MOL0     H32755   4.243   2.945   5.791 -0.4402 -1.4548  0.1519
  243MOL0     H32756   4.063   3.139   5.839  0.4735 -4.4442 -0.0767
  243MOL0     H32757   4.026   3.390   5.919 -0.0441  1.6279  0.0829
  243MOL0     H32758   4.000   3.373   6.095  0.2237  0.3594  0.4796
  243MOL0     H32759   4.220   3.475   6.133  2.7769 -3.6726 -1.9257
  243MOL0     H32760   4.210   3.531   5.956 -2.4746 -1.0025 -1.2985
  243MOL0     H32761   4.016   3.573   6.177  0.1461  1.2889  0.6191
  243MOL0     H32762   3.968   3.616   6.011 -2.3492 -3.4175  1.5673
  243MOL0     H32763   4.043   3.814   6.162 -0.5758 -1.6595  0.2370
  243MOL0     H32764   4.143   3.793   6.013  0.5427 -1.4052 -0.4327
  243MOL0     H32765   4.475   3.777   6.287  1.3114  0.9816 -1.2913
  243MOL0     H32766   4.579   3.996   6.361  0.4437  1.6958  0.6618
  243MOL0     H32767   4.728   4.399   6.191  2.3486  0.2082  0.1741
  243MOL0     H32768   4.860   4.595   6.238  1.7981 -0.1616  0.5409
  243MOL0     H32769   5.060   4.724   6.384 -1.4311 -2.5951 -0.9170
  243MOL0     H32770   4.904   4.776   6.313 -3.9733  3.0838  2.0585
  243MOL0     H32771   5.006   4.902   6.573  0.8420  2.5896  0.1804
  243MOL0     H32772   5.084   4.946   6.422  0.3487  0.1172  2.4670
  243MOL0     H32773   4.831   5.003   6.351  1.4368 -0.5922 -1.0804
  243MOL0     H32774   4.782   4.977   6.516 -1.2890  0.3872 -0.9076
  243MOL0     H32775   4.834   5.210   6.440  1.6265  3.2657  0.8730
  243MOL0     H32776   5.013   5.181   6.450  1.3505 -1.1975  1.2816
  243MOL0     H32777   4.939   5.083   6.688  1.1599 -0.6847 -3.0753
  243MOL0     H32778   4.800   5.174   6.669  0.8704  1.1000  0.7736
  243MOL0     H32779   5.092   5.268   6.633  0.1625 -2.5065  0.0150
  243MOL0     H32780   4.940   5.370   6.630  1.9617  1.3012  0.4829
  243MOL0     H32781   4.996   5.208   6.874  2.6603  0.8055  1.3937
  243MOL0     H32782   4.926   5.372   6.856 -1.9527 -0.2632 -1.3679
  243MOL0     H32783   5.152   5.475   6.824  1.6264 -0.0286  1.0895
  243MOL0     H32784   5.129   5.386   6.980  0.3685 -1.0089  0.1967
  243MOL0     H32785   4.767   4.535   6.655 -1.1686 -0.1764 -0.5122
  243MOL0     H32786   4.629   4.341   6.593 -0.7050 -1.4959 -1.8431
  243MOL0     H32787   4.233   4.215   6.220 -2.9859 -1.4079 -0.3489
  243MOL0     H32788   4.129   4.010   6.153 -0.4523  1.2848  1.3378
  243MOL0     H32789   4.180   2.157   5.546 -0.3874 -1.8565  0.2633
  243MOL0     H32790   4.269   2.065   5.326  0.9509  4.0405  1.0349
  243MOL0     H32791   4.300   2.070   4.975 -0.6360 -0.6485  1.0728
  243MOL0     H32792   4.423   2.070   4.750 -2.0930  2.4660  1.5888
  243MOL0     H32793   4.467   1.778   4.419  2.0549  1.8619  1.0487
  243MOL0     H32794   4.339   1.701   4.505  0.7980 -2.8135  2.3087
  243MOL0     H32795   4.491   1.545   4.553  1.7073 -0.1158 -0.1442
  243MOL0     H32796   4.571   1.671   4.662  1.6158  1.1512  0.0168
  243MOL0     H32797   4.700   1.721   4.451 -3.2805  1.1791 -4.1513
  243MOL0     H32798   4.621   1.600   4.365  0.1062  0.5584 -1.0432
  243MOL0     H32799   4.841   1.547   4.558 -0.0710  0.2922 -0.8108
  243MOL0     H32800   4.697   1.457   4.602  0.4636 -1.2991 -0.3872
  243MOL0     H32801   4.763   1.275   4.232 -0.0737 -0.8336 -0.6160
  243MOL0     H32802   4.305   1.662   4.713 -2.8981 -1.0865  2.3181
  243MOL0     H32803   4.212   1.607   5.050 -0.0857 -1.6216 -0.3800
  243MOL0     H32804   4.069   1.617   4.949 -0.6932 -3.1130 -3.1962
  243MOL0     H32805   4.200   1.533   4.885 -1.8822 -0.5046 -0.8096
  244MOL0     O32806   2.971   9.176   3.573 -0.2759  0.0471  0.0115
  244MOL0     C32807   2.982   9.138   3.453 -0.0546  0.7726 -0.6291
  244MOL0     O32808   3.093   9.122   3.390 -0.4026  0.1772  0.8321
  244MOL0     C32809   3.202   9.187   3.433  0.4273  0.8932  0.4827
  244MOL0     C32810   3.203   9.323   3.451 -0.7615  0.1988 -0.1618
  244MOL0     C32811   3.324   9.384   3.499 -1.0792 -0.0893 -0.8093
  244MOL0     C32812   3.439   9.305   3.510 -0.1448 -0.4589 -0.2024
  244MOL0     O32813   3.563   9.352   3.543 -0.2873  0.1272  0.4679
  244MOL0     C32814   3.562   9.443   3.663  0.1679  1.2323  0.7280
  244MOL0     C32815   3.685   9.530   3.675 -0.0014  0.3453  0.2143
  244MOL0     C32816   3.723   9.595   3.546 -0.0703 -0.0623  0.8869
  244MOL0     C32817   3.606   9.667   3.474  0.7572  0.8339 -0.2436
  244MOL0     C32818   3.646   9.754   3.355 -0.9819 -0.0256  0.3273
  244MOL0     C32819   3.742   9.869   3.385  0.7402  0.4732  0.4228
  244MOL0     C32820   3.688   9.994   3.467  0.0371 -0.2435  0.0487
  244MOL0     C32821   3.713   9.986   3.618 -0.5774  0.0426 -1.2143
  244MOL0     N32822   3.851  10.026   3.640 -0.6341 -0.7262 -0.1280
  244MOL0     C32823   3.895  10.136   3.707  0.4444 -0.6595 -0.3643
  244MOL0     C32824   4.032  10.123   3.704 -0.0635 -0.6931 -0.4162
  244MOL0     C32825   4.131  10.224   3.755  0.2869  0.1278 -0.5692
  244MOL0     C32826   4.193  10.190   3.893 -0.2434 -0.5068 -0.4677
  244MOL0     C32827   4.314  10.282   3.943  0.2628  0.2437  0.4808
  244MOL0     C32828   4.396  10.212   4.042  0.5110 -0.2152  0.7768
  244MOL0     O32829   4.480  10.300   4.111 -0.8177 -0.0815  0.3878
  244MOL0     C32830   4.581  10.374   4.050 -1.3456 -0.0302 -0.1246
  244MOL0     C32831   4.629  10.352   3.920  0.1868 -1.1903  0.2993
  244MOL0     C32832   4.746  10.425   3.867  0.8904 -0.2634  0.5912
  244MOL0     C32833   4.806  10.520   3.949  0.1363  0.6043  0.2000
  244MOL0     C32834   4.936  10.581   3.917  0.5415 -0.2189 -0.1986
  244MOL0     O32835   4.960  10.582   3.782  0.1424  0.2559  0.6224
  244MOL0     C32836   5.082  10.609   3.737 -0.9853 -0.9713  0.0076
  244MOL0     C32837   5.177  10.512   3.714 -0.0930 -0.3235 -0.6539
  244MOL0     C32838   5.310  10.541   3.691  0.6724 -0.7513  0.0955
  244MOL0     C32839   5.349  10.671   3.668  0.0029  0.2354  1.2585
  244MOL0     O32840   5.485  10.684   3.638 -0.1837  0.0232 -0.6158
  244MOL0     C32841   5.551  10.802   3.684 -0.3069 -0.4828 -0.5776
  244MOL0     C32842   5.699  10.801   3.684 -0.8377 -0.4074  0.3995
  244MOL0     C32843   5.757  10.816   3.544  0.8683  0.0891  0.3486
  244MOL0     C32844   5.906  10.837   3.551  0.6560  0.7696  0.9247
  244MOL0     C32845   5.979  10.832   3.417 -0.0056 -0.2286  0.4375
  244MOL0     C32846   5.950  10.955   3.331  0.1414  0.7263  0.3844
  244MOL0     C32847   5.992  10.933   3.184 -0.4392  0.4545 -0.2814
  244MOL0     C32848   6.136  10.899   3.163 -0.6460 -0.0117  1.0642
  244MOL0    Cl32849   6.227  11.043   3.213 -0.2661  0.4707 -0.3659
  244MOL0     C32850   5.256  10.768   3.684  0.3378 -0.1889 -0.5411
  244MOL0     C32851   5.127  10.743   3.723  0.3285 -0.4190  0.4611
  244MOL0     O32852   4.998  10.639   4.006 -0.6069  0.3041 -0.4554
  244MOL0     C32853   4.754  10.550   4.072  0.3612 -0.5565 -0.0287
  244MOL0     C32854   4.645  10.476   4.116  0.4137  0.5131 -1.0101
  244MOL0     N32855   4.065  10.011   3.642  0.5878 -0.2973  0.1289
  244MOL0     N32856   3.962   9.952   3.592  0.3620 -0.0895  0.4284
  244MOL0     C32857   3.433   9.174   3.505 -0.6150  0.5522 -0.3860
  244MOL0     C32858   3.313   9.111   3.472 -0.1808 -0.3594 -1.1678
  244MOL0     C32859   2.857   9.127   3.371 -0.5683  0.5679 -0.9362
  244MOL0     C32860   2.862   9.141   3.235 -0.3937 -0.0244  0.4383
  244MOL0     C32861   2.746   9.140   3.154 -0.5691 -0.4080  0.3758
  244MOL0     C32862   2.621   9.120   3.212  1.0369  0.3214 -0.8539
  244MOL0     O32863   2.513   9.103   3.126  0.2574  0.4859 -0.1014
  244MOL0     C32864   2.384   9.128   3.169  0.2743  0.3005  0.0930
  244MOL0     C32865   2.308   9.199   3.053  0.2277 -0.1474  0.0424
  244MOL0     C32866   2.294   9.117   2.930  0.3294  0.3101 -0.7966
  244MOL0     C32867   2.269   9.209   2.810 -0.0944 -1.0844 -0.7853
  244MOL0     C32868   2.219   9.122   2.702  0.9066  0.2436  0.5961
  244MOL0     C32869   2.180   9.037   2.626  0.4610  0.5224  0.7742
  244MOL0     C32870   2.615   9.094   3.347  0.0096  0.3008  0.2260
  244MOL0     C32871   2.728   9.094   3.424 -0.4633  0.6759  0.0141
  244MOL0     C32872   2.700   9.045   3.565 -0.2557 -0.6326 -0.0950
  244MOL0     H32873   3.114   9.382   3.432 -0.4045  0.5362 -0.8077
  244MOL0     H32874   3.331   9.492   3.505 -2.8009  0.0455 -0.7851
  244MOL0     H32875   3.477   9.512   3.658  1.3353  2.6535 -0.2344
  244MOL0     H32876   3.548   9.387   3.756 -1.2333 -2.1513 -1.3456
  244MOL0     H32877   3.763   9.458   3.696  0.2384 -0.3533 -2.6576
  244MOL0     H32878   3.689   9.607   3.753 -3.1045  1.0182 -0.1242
  244MOL0     H32879   3.760   9.512   3.486 -0.1785 -0.0139  0.7531
  244MOL0     H32880   3.803   9.667   3.566 -0.6652  0.9126 -0.1947
  244MOL0     H32881   3.534   9.594   3.436  2.6826 -0.9926 -0.5771
  244MOL0     H32882   3.544   9.729   3.540  0.3095  0.0337  0.0944
  244MOL0     H32883   3.682   9.689   3.276 -2.8342 -1.2061  0.3856
  244MOL0     H32884   3.550   9.790   3.317 -0.1278  1.0297 -0.8912
  244MOL0     H32885   3.821   9.817   3.440  1.3717  0.5024 -0.4293
  244MOL0     H32886   3.795   9.902   3.295  1.3259  1.0482  0.9717
  244MOL0     H32887   3.586  10.017   3.433  0.1817  1.6811  0.8173
  244MOL0     H32888   3.742  10.083   3.437 -1.9524  1.2194  0.5949
  244MOL0     H32889   3.645  10.058   3.666 -2.3542  1.7449 -5.7413
  244MOL0     H32890   3.690   9.888   3.661 -1.1010  1.2592  1.4792
  244MOL0     H32891   3.842  10.216   3.759  3.4116  1.3123 -0.1512
  244MOL0     H32892   4.213  10.233   3.683  0.2629 -1.5245 -0.8366
  244MOL0     H32893   4.089  10.325   3.758 -1.8853 -0.7197  2.1722
  244MOL0     H32894   4.118  10.193   3.972  1.9842 -0.0121  1.7480
  244MOL0     H32895   4.214  10.083   3.893 -1.8175 -0.8560 -1.3730
  244MOL0     H32896   4.284  10.377   3.987  1.7551  1.5353 -1.1545
  244MOL0     H32897   4.387  10.310   3.866  2.8909 -0.6195  2.5036
  244MOL0     H32898   4.451  10.128   3.997 -1.7566 -1.3957  0.0234
  244MOL0     H32899   4.340  10.155   4.118  0.5190 -1.2091  0.0640
  244MOL0     H32900   4.592  10.287   3.841  1.8390 -1.9206  0.0634
  244MOL0     H32901   4.786  10.401   3.769  2.6161  3.4204  0.2362
  244MOL0     H32902   5.141  10.410   3.717 -3.9840  0.8926  0.3966
  244MOL0     H32903   5.382  10.460   3.697 -0.4170 -1.7821 -0.2131
  244MOL0     H32904   5.514  10.891   3.634 -4.2121 -2.5973 -1.8589
  244MOL0     H32905   5.519  10.822   3.786  1.0417  1.5570 -0.4976
  244MOL0     H32906   5.721  10.886   3.749 -0.6537  1.3093 -1.7778
  244MOL0     H32907   5.727  10.701   3.719 -0.1988 -0.5221 -0.3990
  244MOL0     H32908   5.731  10.732   3.478 -0.3015 -0.9101  1.9907
  244MOL0     H32909   5.723  10.907   3.495 -0.5140  0.3178  1.6410
  244MOL0     H32910   5.939  10.761   3.622  0.9401 -1.0935 -1.0962
  244MOL0     H32911   5.925  10.933   3.600 -1.0512  0.9704  1.2625
  244MOL0     H32912   5.969  10.735   3.368 -0.0014 -0.2031  0.3858
  244MOL0     H32913   6.086  10.836   3.440  0.2881 -0.3275 -0.8646
  244MOL0     H32914   5.842  10.962   3.344  0.4606  0.5804  4.0182
  244MOL0     H32915   5.991  11.043   3.382 -0.2677  0.3392  1.3937
  244MOL0     H32916   5.969  11.024   3.127 -1.4243 -0.3558 -1.2140
  244MOL0     H32917   5.935  10.856   3.132 -1.3595  2.9317 -3.2365
  244MOL0     H32918   6.166  10.814   3.225 -3.4946 -0.8564  1.3990
  244MOL0     H32919   6.154  10.864   3.061  0.7717 -0.1326  1.3267
  244MOL0     H32920   5.287  10.872   3.692  1.7581 -0.6692  0.8350
  244MOL0     H32921   5.065  10.829   3.745 -2.6547 -2.0678 -0.9999
  244MOL0     H32922   4.795  10.633   4.129  1.8412 -1.5421  0.4071
  244MOL0     H32923   4.613  10.498   4.218 -0.0266  1.2193 -1.2936
  244MOL0     H32924   3.527   9.126   3.531 -0.7416  1.6116  2.3709
  244MOL0     H32925   3.309   9.003   3.479 -1.3896 -0.2234  1.5783
  244MOL0     H32926   2.955   9.150   3.180  0.3982 -1.9626  1.3654
  244MOL0     H32927   2.760   9.149   3.047 -1.7610 -1.8075  0.0618
  244MOL0     H32928   2.400   9.202   3.248  0.8999  1.1841 -0.8281
  244MOL0     H32929   2.325   9.044   3.205  1.4168  0.6166  2.9094
  244MOL0     H32930   2.370   9.285   3.025 -2.6682  1.2875 -2.6760
  244MOL0     H32931   2.214   9.242   3.090  0.8721 -0.1778  1.8248
  244MOL0     H32932   2.219   9.037   2.933  1.4196 -0.7222  0.2112
  244MOL0     H32933   2.391   9.069   2.915  2.5176  4.2057 -0.5991
  244MOL0     H32934   2.197   9.286   2.839  0.7926 -0.6503  0.3207
  244MOL0     H32935   2.363   9.255   2.777 -0.9787 -1.2940 -3.9642
  244MOL0     H32936   2.142   8.983   2.542  0.8119  3.3952 -1.3852
  244MOL0     H32937   2.517   9.081   3.392 -1.1747  1.0931 -1.9518
  244MOL0     H32938   2.722   8.938   3.568 -0.3531 -0.6526 -0.0753
  244MOL0     H32939   2.752   9.102   3.642 -0.9815  0.9023 -0.6988
  244MOL0     H32940   2.594   9.046   3.596 -0.5484 -0.5013 -1.0694
  245MOL0     O32941   8.671   9.217   6.826 -0.1411  0.0196  0.2025
  245MOL0     C32942   8.591   9.202   6.733  0.8448  0.4391 -0.3751
  245MOL0     O32943   8.553   9.088   6.674 -0.9593 -0.1671  0.4663
  245MOL0     C32944   8.629   8.976   6.724  0.6303 -0.3029 -1.4043
  245MOL0     C32945   8.569   8.882   6.805 -0.1202  1.0105 -0.0556
  245MOL0     C32946   8.643   8.779   6.864  0.8268 -0.6701  0.8219
  245MOL0     C32947   8.770   8.754   6.826  0.4812  0.1258  0.0622
  245MOL0     O32948   8.848   8.661   6.891  0.1627 -0.4178 -0.5140
  245MOL0     C32949   8.988   8.667   6.887 -0.4637  0.5039 -0.3996
  245MOL0     C32950   9.033   8.603   6.749 -0.3299  0.2891 -0.7949
  245MOL0     C32951   9.184   8.627   6.712 -0.7928 -0.1523 -0.0035
  245MOL0     C32952   9.207   8.571   6.571  0.0984  0.4124 -0.4313
  245MOL0     C32953   9.354   8.546   6.540  0.7731  0.2040 -0.3569
  245MOL0     C32954   9.384   8.571   6.397  0.8740  0.9261 -0.2804
  245MOL0     C32955   9.528   8.524   6.365 -0.9455 -0.1609 -0.6593
  245MOL0     C32956   9.577   8.566   6.226 -0.2631 -0.8113  0.3971
  245MOL0     N32957   9.635   8.701   6.226  0.0383  0.1381  0.4312
  245MOL0     C32958   9.581   8.814   6.157  0.7109 -0.7761 -0.4332
  245MOL0     C32959   9.670   8.913   6.197 -0.3334 -0.4934 -0.1870
  245MOL0     C32960   9.675   9.050   6.139 -0.2869  0.5980  0.8918
  245MOL0     C32961   9.817   9.094   6.100 -0.0883 -0.5543  0.3985
  245MOL0     C32962   9.816   9.233   6.016 -0.8814 -0.3391  0.1723
  245MOL0     C32963   9.947   9.309   6.039  0.6608 -0.1190 -0.7880
  245MOL0     O32964   9.945   9.444   5.973  1.0332 -0.2957 -1.2033
  245MOL0     C32965  10.036   9.539   6.014 -0.7814 -0.0715 -0.3910
  245MOL0     C32966  10.041   9.655   5.937  0.1248  0.3394  0.3016
  245MOL0     C32967  10.149   9.749   5.945  0.1879  0.9349 -0.0014
  245MOL0     C32968  10.247   9.733   6.047 -0.6854 -0.5857  0.7875
  245MOL0     C32969  10.348   9.846   6.061 -0.6565  0.8434 -0.6950
  245MOL0     O32970  10.325   9.964   5.981  0.0261 -0.1761  0.8112
  245MOL0     C32971  10.371  10.091   6.022  0.6695  0.1850 -0.0284
  245MOL0     C32972  10.296  10.192   5.966  0.0969 -0.0755 -0.4296
  245MOL0     C32973  10.318  10.323   6.000  0.5213 -0.4529  0.8894
  245MOL0     C32974  10.421  10.364   6.079  0.4825  1.1185  0.1528
  245MOL0     O32975  10.423  10.501   6.100 -0.5819  0.4202  0.5397
  245MOL0     C32976  10.519  10.551   6.190  0.2677 -0.0030  0.2460
  245MOL0     C32977  10.485  10.689   6.226  0.1658  0.4944 -0.0763
  245MOL0     C32978  10.561  10.785   6.131 -0.2140  0.3948  0.2763
  245MOL0     C32979  10.551  10.752   5.982  0.2486  0.7920 -0.5514
  245MOL0     C32980  10.618  10.842   5.879 -0.1105  0.1258 -0.5337
  245MOL0     C32981  10.576  10.985   5.914 -0.0633  0.7252 -0.7100
  245MOL0     C32982  10.603  11.080   5.795  0.4593 -0.4303  0.0977
  245MOL0     C32983  10.562  11.219   5.843 -0.2747  0.4105  0.9421
  245MOL0    Cl32984  10.632  11.321   5.720  0.9573 -0.2657 -0.1159
  245MOL0     C32985  10.502  10.261   6.133 -0.3944 -0.0226  0.3568
  245MOL0     C32986  10.482  10.120   6.095  0.3084 -0.5857 -0.0316
  245MOL0     O32987  10.444   9.831   6.128 -0.3084 -0.4852  0.1858
  245MOL0     C32988  10.239   9.623   6.135  1.5601 -0.5971  0.3127
  245MOL0     C32989  10.136   9.521   6.108 -0.4555 -0.8492 -0.8881
  245MOL0     N32990   9.777   8.863   6.278  0.4392  0.3210  0.4091
  245MOL0     N32991   9.751   8.729   6.289  0.0580  0.5113  0.4871
  245MOL0     C32992   8.831   8.846   6.738  0.1448  1.4100  0.2595
  245MOL0     C32993   8.761   8.955   6.688 -0.5947  0.6320  0.2748
  245MOL0     C32994   8.520   9.323   6.694  0.5386 -0.7630  0.1421
  245MOL0     C32995   8.444   9.395   6.794  0.1321  1.3489 -0.4878
  245MOL0     C32996   8.371   9.508   6.757 -0.3058  0.1525 -0.0391
  245MOL0     C32997   8.382   9.560   6.623 -0.7775 -0.0323 -0.2992
  245MOL0     O32998   8.329   9.675   6.591  0.6992  0.5022 -0.0874
  245MOL0     C32999   8.188   9.690   6.593 -0.6380  0.2929 -0.6590
  245MOL0     C33000   8.129   9.741   6.461 -0.9676  1.6151 -1.0767
  245MOL0     C33001   8.172   9.884   6.432  0.1655 -0.5301  0.2786
  245MOL0     C33002   8.122   9.941   6.303  0.0959  0.0230  0.3234
  245MOL0     C33003   7.974   9.959   6.294 -0.6832 -0.2193 -0.2283
  245MOL0     C33004   7.858   9.978   6.308  0.1608  0.5394 -0.0524
  245MOL0     C33005   8.460   9.497   6.531 -0.1518 -0.5965  0.7439
  245MOL0     C33006   8.534   9.382   6.565 -1.1031 -0.5308 -0.3389
  245MOL0     C33007   8.616   9.319   6.463 -0.4503 -0.4589 -0.7100
  245MOL0     H33008   8.462   8.896   6.821 -0.6667 -1.0146 -1.4295
  245MOL0     H33009   8.601   8.711   6.938  0.6600  1.0220  2.3657
  245MOL0     H33010   9.021   8.771   6.898  0.2178  0.3068 -0.5390
  245MOL0     H33011   9.033   8.614   6.971  0.4959  0.4340 -0.9463
  245MOL0     H33012   8.970   8.626   6.662 -0.3100  1.5863 -0.4889
  245MOL0     H33013   9.015   8.495   6.749  1.9996 -0.1886 -3.0384
  245MOL0     H33014   9.253   8.591   6.789  0.8973 -1.9686 -2.2199
  245MOL0     H33015   9.209   8.733   6.711 -0.2271 -0.2436 -2.5020
  245MOL0     H33016   9.159   8.473   6.564 -0.5415  0.6640  0.2812
  245MOL0     H33017   9.160   8.639   6.499  1.3951  1.6350 -0.1650
  245MOL0     H33018   9.411   8.615   6.604  0.4901  1.1173 -1.0716
  245MOL0     H33019   9.384   8.444   6.566  0.8742 -0.5582 -3.1606
  245MOL0     H33020   9.321   8.518   6.325  0.4308  2.8782 -1.3995
  245MOL0     H33021   9.379   8.673   6.358  0.9119  1.0689  0.0791
  245MOL0     H33022   9.535   8.415   6.379 -1.2136 -0.0249  0.6194
  245MOL0     H33023   9.605   8.565   6.431 -2.0928 -1.5404  1.6806
  245MOL0     H33024   9.664   8.501   6.215 -0.8122 -1.1280 -2.9532
  245MOL0     H33025   9.502   8.552   6.147 -1.9106  4.8046  0.5220
  245MOL0     H33026   9.491   8.842   6.104 -1.1869 -0.2956  2.7244
  245MOL0     H33027   9.616   9.056   6.048  0.2860 -0.3347  0.4425
  245MOL0     H33028   9.626   9.121   6.206  1.9876  1.2523  1.9915
  245MOL0     H33029   9.881   9.115   6.186 -1.3408  0.0809  1.2168
  245MOL0     H33030   9.863   9.015   6.041 -1.6492 -1.0852 -0.1755
  245MOL0     H33031   9.728   9.294   6.034 -0.4352 -0.1995  2.1063
  245MOL0     H33032   9.812   9.203   5.911  0.3096  0.3416 -0.0907
  245MOL0     H33033  10.029   9.243   6.009  2.0025  0.2691  1.7422
  245MOL0     H33034   9.954   9.324   6.147 -1.7358  1.3289 -0.7745
  245MOL0     H33035   9.955   9.683   5.877 -0.6835 -1.3005  0.6265
  245MOL0     H33036  10.155   9.817   5.861  0.6395 -0.1605 -0.8878
  245MOL0     H33037  10.210  10.159   5.908  1.6051  1.6108 -3.8940
  245MOL0     H33038  10.262  10.393   5.940  4.2863 -1.4456 -4.5067
  245MOL0     H33039  10.496  10.496   6.282 -0.5575 -1.4144 -0.7649
  245MOL0     H33040  10.624  10.531   6.167 -0.4100  0.2120 -3.9247
  245MOL0     H33041  10.378  10.705   6.216 -0.5565 -2.7891  1.3138
  245MOL0     H33042  10.523  10.708   6.327  1.6074  3.8956 -1.1041
  245MOL0     H33043  10.530  10.889   6.147 -0.1227  0.7441 -1.6010
  245MOL0     H33044  10.667  10.780   6.157  0.2587  0.4222 -1.5432
  245MOL0     H33045  10.445  10.759   5.958  0.0584 -0.0369  0.0132
  245MOL0     H33046  10.570  10.647   5.962 -1.2528 -0.2933  2.9739
  245MOL0     H33047  10.576  10.819   5.781 -0.1917  0.0392 -0.4798
  245MOL0     H33048  10.726  10.829   5.880 -0.1514 -0.2506  0.2341
  245MOL0     H33049  10.470  10.992   5.941 -0.3901 -3.4347 -0.2971
  245MOL0     H33050  10.629  11.022   6.002  0.3134 -0.3512 -0.4737
  245MOL0     H33051  10.542  11.052   5.709 -1.2832 -1.2324  1.5265
  245MOL0     H33052  10.711  11.075   5.779  0.3602 -0.1204 -0.6893
  245MOL0     H33053  10.453  11.221   5.837 -0.3131  2.3967  1.6028
  245MOL0     H33054  10.598  11.247   5.943  2.4799  3.4251 -0.7001
  245MOL0     H33055  10.592  10.276   6.192 -0.4644 -2.9599  1.3999
  245MOL0     H33056  10.559  10.044   6.110 -0.3022 -1.5620 -1.5867
  245MOL0     H33057  10.314   9.627   6.213  2.7871  4.8716 -0.6834
  245MOL0     H33058  10.149   9.429   6.166 -1.3510 -0.4290  0.0150
  245MOL0     H33059   8.935   8.837   6.710  0.7724  3.2096  1.7695
  245MOL0     H33060   8.812   9.031   6.630  2.0711 -0.8144  0.5504
  245MOL0     H33061   8.446   9.358   6.896 -0.2865  2.3051 -0.1209
  245MOL0     H33062   8.315   9.556   6.836  2.1458  1.2285  1.1539
  245MOL0     H33063   8.173   9.773   6.663  1.7668 -1.5641  2.3082
  245MOL0     H33064   8.132   9.600   6.620  0.6886 -0.7046 -1.1287
  245MOL0     H33065   8.022   9.732   6.479 -0.7715 -0.1169 -0.5241
  245MOL0     H33066   8.157   9.687   6.370  2.1948  2.2002 -0.5852
  245MOL0     H33067   8.281   9.897   6.428  0.2148 -0.6932  0.9276
  245MOL0     H33068   8.137   9.956   6.506 -3.8380 -2.9688  1.0686
  245MOL0     H33069   8.153  10.045   6.290  0.0142 -0.2258 -2.3945
  245MOL0     H33070   8.162   9.892   6.214  1.2098  0.7094  0.4245
  245MOL0     H33071   7.752   9.987   6.316 -0.1173 -2.8937  2.0346
  245MOL0     H33072   8.472   9.547   6.436  0.1078 -2.6607 -0.3706
  245MOL0     H33073   8.710   9.275   6.497 -2.0699 -3.1072  0.7031
  245MOL0     H33074   8.554   9.241   6.417 -0.8562  0.4150 -1.6947
  245MOL0     H33075   8.632   9.388   6.380 -0.7198 -0.2882 -0.6201
  246MOL0     O33076   6.489   5.438  10.374 -0.6622  0.0979 -0.3028
  246MOL0     C33077   6.607   5.440  10.410  0.4674 -0.0395  0.2136
  246MOL0     O33078   6.711   5.495  10.335  0.2866  0.7600 -1.1265
  246MOL0     C33079   6.697   5.554  10.207 -0.3246  0.2432 -0.6278
  246MOL0     C33080   6.818   5.590  10.143 -0.2505  0.0634  0.2586
  246MOL0     C33081   6.809   5.638  10.010 -0.7504 -0.0797 -0.8855
  246MOL0     C33082   6.695   5.666   9.943  0.5981 -0.3664 -0.0801
  246MOL0     O33083   6.711   5.705   9.810 -0.0229 -0.6127  0.4172
  246MOL0     C33084   6.599   5.763   9.741 -0.6494 -1.2787  0.3783
  246MOL0     C33085   6.619   5.834   9.605  0.0313  0.9317  0.6042
  246MOL0     C33086   6.723   5.942   9.634 -0.5496 -0.0994 -0.3284
  246MOL0     C33087   6.657   6.068   9.713 -0.9474  0.4980  0.1668
  246MOL0     C33088   6.759   6.170   9.736 -0.7320  0.2756 -0.1834
  246MOL0     C33089   6.713   6.295   9.810 -0.3710  0.2312  0.0082
  246MOL0     C33090   6.624   6.267   9.930  0.6406 -0.5241 -0.3666
  246MOL0     C33091   6.563   6.400   9.998 -0.3127  0.1870  0.5430
  246MOL0     N33092   6.479   6.355  10.107 -0.6598 -0.0434 -0.5695
  246MOL0     C33093   6.518   6.292  10.216  0.2488  0.2350 -0.0669
  246MOL0     C33094   6.403   6.265  10.278  0.1562  0.1165 -0.2510
  246MOL0     C33095   6.397   6.197  10.407 -0.1733 -0.9597 -0.4451
  246MOL0     C33096   6.435   6.281  10.535  0.5617 -0.3930  0.1744
  246MOL0     C33097   6.423   6.191  10.650  0.4421  0.6830 -0.9725
  246MOL0     C33098   6.453   6.266  10.785  0.3540  0.2318 -0.1020
  246MOL0     O33099   6.584   6.328  10.795  0.0998  0.7585 -0.3577
  246MOL0     C33100   6.613   6.363  10.921 -0.1596 -0.8500 -0.0004
  246MOL0     C33101   6.750   6.359  10.962  0.9730  0.2588  1.0528
  246MOL0     C33102   6.780   6.375  11.092 -0.5998 -0.1676 -0.0698
  246MOL0     C33103   6.686   6.405  11.188 -0.3624 -0.9360  0.0302
  246MOL0     C33104   6.709   6.447  11.324 -0.0606  0.8080 -1.6228
  246MOL0     O33105   6.827   6.525  11.357 -0.2806 -0.4836  1.0247
  246MOL0     C33106   6.883   6.539  11.486 -0.1114 -0.2712 -0.1813
  246MOL0     C33107   6.985   6.625  11.490  0.2529  0.4046  1.0443
  246MOL0     C33108   7.058   6.649  11.606 -0.2479  0.5303  0.5061
  246MOL0     C33109   7.031   6.566  11.721 -0.7024  0.4058  0.2014
  246MOL0     O33110   7.088   6.589  11.843 -0.5259 -0.0912  0.8571
  246MOL0     C33111   7.234   6.604  11.844  0.6213  0.8307 -0.3482
  246MOL0     C33112   7.278   6.567  11.992 -0.3884 -0.0544 -0.0807
  246MOL0     C33113   7.432   6.569  12.000  0.0321 -0.8729 -0.6395
  246MOL0     C33114   7.495   6.713  12.000  0.3341  0.6861 -0.4768
  246MOL0     C33115   7.637   6.709  12.021 -0.0877 -0.2976  0.4824
  246MOL0     C33116   7.677   6.648  12.157 -0.4274  1.6786 -0.9347
  246MOL0     C33117   7.823   6.701  12.206 -0.5247 -0.0403 -0.2720
  246MOL0     C33118   7.853   6.686  12.358  0.9697  0.3524  0.0033
  246MOL0    Cl33119   7.795   6.519  12.397  0.0377 -0.1198 -0.2853
  246MOL0     C33120   6.923   6.488  11.722  0.9908  0.0783 -0.9964
  246MOL0     C33121   6.855   6.461  11.604 -0.1247  0.4548  0.0738
  246MOL0     O33122   6.631   6.406  11.408 -0.2404 -0.6003 -0.2708
  246MOL0     C33123   6.556   6.413  11.146  0.1734 -0.5842  0.1778
  246MOL0     C33124   6.515   6.398  11.012 -0.4094  0.2482 -0.5183
  246MOL0     N33125   6.301   6.310  10.203 -0.3912  0.4283  0.5578
  246MOL0     N33126   6.346   6.363  10.099 -0.3856  0.8257 -0.2376
  246MOL0     C33127   6.577   5.649  10.011  0.5710  0.5374 -0.1476
  246MOL0     C33128   6.578   5.591  10.136 -0.3350  0.7736 -0.5122
  246MOL0     C33129   6.635   5.361  10.530 -0.0592  0.0399  1.0079
  246MOL0     C33130   6.762   5.296  10.540  0.4366 -0.5328  0.5875
  246MOL0     C33131   6.785   5.195  10.631  0.0382 -1.2035 -0.1114
  246MOL0     C33132   6.690   5.159  10.723 -0.5515 -0.7125  0.2448
  246MOL0     O33133   6.733   5.047  10.794 -0.2157 -0.0066  0.2723
  246MOL0     C33134   6.675   5.017  10.920 -0.0410  0.3926 -1.4468
  246MOL0     C33135   6.783   4.939  10.990 -0.5482 -0.3093 -0.3523
  246MOL0     C33136   6.717   4.841  11.092  0.4129 -0.0148  0.5563
  246MOL0     C33137   6.623   4.896  11.201 -0.3158  0.3877  0.7185
  246MOL0     C33138   6.660   5.026  11.256  0.0640  0.2369 -0.3660
  246MOL0     C33139   6.662   5.138  11.285 -0.6189  0.5308  0.0627
  246MOL0     C33140   6.572   5.227  10.727 -0.2018 -0.0452 -0.5175
  246MOL0     C33141   6.545   5.334  10.634  1.1886  0.1530 -0.1425
  246MOL0     C33142   6.418   5.414  10.646  0.3008  0.9247  0.3638
  246MOL0     H33143   6.915   5.573  10.188 -1.4286 -0.1440  2.8745
  246MOL0     H33144   6.892   5.630   9.940 -0.3060 -0.2621 -0.3475
  246MOL0     H33145   6.532   5.681   9.714 -0.1121 -2.0378  1.3240
  246MOL0     H33146   6.538   5.832   9.801  0.0492  1.1700 -1.5167
  246MOL0     H33147   6.522   5.884   9.592 -0.5909  0.2103  2.1998
  246MOL0     H33148   6.643   5.762   9.527  1.1480  2.4782 -0.5304
  246MOL0     H33149   6.767   5.970   9.538  0.6208  0.0881  0.2493
  246MOL0     H33150   6.807   5.894   9.684  0.8791  2.2591 -0.2855
  246MOL0     H33151   6.580   6.116   9.651 -2.3210 -3.4358 -1.5090
  246MOL0     H33152   6.614   6.040   9.809  0.6433 -3.7101 -0.1511
  246MOL0     H33153   6.832   6.124   9.803  0.1746  2.4801  0.4462
  246MOL0     H33154   6.808   6.201   9.643 -0.6959 -0.4522 -0.4111
  246MOL0     H33155   6.801   6.344   9.853  0.0614  1.1463 -1.8150
  246MOL0     H33156   6.675   6.362   9.732  0.7721 -0.8115 -1.5060
  246MOL0     H33157   6.680   6.217  10.010  1.3282  1.8240  0.7074
  246MOL0     H33158   6.538   6.209   9.896  0.2005 -0.3985  0.4931
  246MOL0     H33159   6.639   6.466  10.040  0.0137  1.8241 -2.3507
  246MOL0     H33160   6.499   6.463   9.935 -2.5730 -0.0304  2.4825
  246MOL0     H33161   6.613   6.254  10.252 -0.7681 -2.7281 -0.2176
  246MOL0     H33162   6.297   6.156  10.426 -1.3823  0.7699 -2.6045
  246MOL0     H33163   6.467   6.113  10.411  0.9795 -0.0181 -0.3934
  246MOL0     H33164   6.525   6.342  10.544  0.7944 -0.9671  2.0609
  246MOL0     H33165   6.350   6.349  10.534 -0.2959 -1.3727  1.7716
  246MOL0     H33166   6.497   6.111  10.640 -1.8254 -1.3929 -1.9592
  246MOL0     H33167   6.326   6.141  10.647  1.3640 -1.3006  0.5826
  246MOL0     H33168   6.438   6.193  10.865  1.7755  1.0254  0.9341
  246MOL0     H33169   6.373   6.341  10.794  1.6949  1.5456  1.4338
  246MOL0     H33170   6.829   6.328  10.894  0.4451 -1.9089  1.3583
  246MOL0     H33171   6.880   6.388  11.131 -1.0269  2.0628  0.4120
  246MOL0     H33172   6.991   6.687  11.401  1.2054 -0.8042  0.2423
  246MOL0     H33173   7.137   6.724  11.606  0.1790  0.1045  2.1095
  246MOL0     H33174   7.280   6.540  11.769 -1.5691 -2.0654  0.6088
  246MOL0     H33175   7.260   6.710  11.836 -1.8969  1.5911  0.3273
  246MOL0     H33176   7.236   6.632  12.068  1.2145 -2.8376  3.4642
  246MOL0     H33177   7.250   6.462  12.003  1.2601 -0.8193 -2.3258
  246MOL0     H33178   7.448   6.528  12.100 -2.0256 -1.1652 -0.3698
  246MOL0     H33179   7.487   6.511  11.927  2.5127  2.5827 -1.7867
  246MOL0     H33180   7.433   6.776  12.066 -1.2449 -0.5155 -0.7617
  246MOL0     H33181   7.476   6.745  11.898 -0.4690  0.5277 -0.3863
  246MOL0     H33182   7.684   6.804  11.994  0.6215 -0.9228 -0.6197
  246MOL0     H33183   7.681   6.647  11.941  0.1598  0.9502 -0.3827
  246MOL0     H33184   7.605   6.681  12.232 -1.9127 -0.8514 -1.1355
  246MOL0     H33185   7.677   6.539  12.152 -0.1448  1.7190 -2.1257
  246MOL0     H33186   7.842   6.805  12.178 -2.9283  0.5482  0.1339
  246MOL0     H33187   7.887   6.638  12.144 -0.6728  1.8967 -2.5624
  246MOL0     H33188   7.959   6.681  12.386  1.1694  1.5981 -0.4300
  246MOL0     H33189   7.796   6.750  12.425  0.9477  0.3313  0.0043
  246MOL0     H33190   6.895   6.424  11.805 -0.9861 -1.4399 -2.7206
  246MOL0     H33191   6.775   6.388  11.603 -0.3751  0.6855  1.3470
  246MOL0     H33192   6.472   6.439  11.210 -1.4840 -0.5996 -1.8995
  246MOL0     H33193   6.413   6.416  10.978 -1.2935 -1.6949  0.9214
  246MOL0     H33194   6.485   5.668   9.957  1.0360 -0.7328 -1.4587
  246MOL0     H33195   6.486   5.580  10.192  0.1531  5.3302  1.6620
  246MOL0     H33196   6.844   5.335  10.480  0.3392  1.6120  1.7597
  246MOL0     H33197   6.880   5.143  10.636 -1.0886 -3.4700 -0.6193
  246MOL0     H33198   6.585   4.957  10.903  2.0518 -3.8261  0.7644
  246MOL0     H33199   6.646   5.111  10.967 -1.0054 -0.4456 -0.2784
  246MOL0     H33200   6.836   5.002  11.061 -0.3137  0.9269 -1.5755
  246MOL0     H33201   6.838   4.879  10.917 -0.0959 -0.4872  0.1332
  246MOL0     H33202   6.794   4.786  11.147  1.2177  0.0266 -0.4738
  246MOL0     H33203   6.656   4.766  11.041  0.6617 -0.0224  0.2638
  246MOL0     H33204   6.524   4.913  11.157  0.2666  1.0510 -0.3817
  246MOL0     H33205   6.618   4.817  11.276 -3.5767  0.7111  0.9657
  246MOL0     H33206   6.657   5.244  11.298 -1.1521  0.5583 -0.3206
  246MOL0     H33207   6.515   5.183  10.807  0.0393 -4.4798 -2.4780
  246MOL0     H33208   6.382   5.407  10.749 -1.1074  0.4099 -0.1411
  246MOL0     H33209   6.433   5.521  10.628  0.4295  0.8840  0.2228
  246MOL0     H33210   6.347   5.372  10.574  1.2914  0.4691 -0.3684
  247MOL0     O33211   7.955   1.127   7.058  0.0296  0.2969  0.1502
  247MOL0     C33212   7.881   1.026   7.053 -0.7314 -0.3895  0.2927
  247MOL0     O33213   7.849   0.960   6.947 -0.0257 -0.1614  0.5532
  247MOL0     C33214   7.898   1.002   6.821  0.5656 -0.6839  0.5944
  247MOL0     C33215   8.031   1.008   6.793 -0.6645 -0.5935  0.6935
  247MOL0     C33216   8.069   1.052   6.662  0.1249 -0.5221  0.3768
  247MOL0     C33217   7.976   1.086   6.564 -0.6882  0.6706  0.3711
  247MOL0     O33218   8.006   1.175   6.457 -0.1663  1.0348  0.7621
  247MOL0     C33219   7.939   1.298   6.462  0.7329  0.1183  0.5083
  247MOL0     C33220   7.947   1.374   6.331 -0.3977  0.5151  0.1244
  247MOL0     C33221   8.089   1.373   6.267  0.4480 -0.0535  0.1241
  247MOL0     C33222   8.203   1.447   6.348  0.6980 -0.0334 -0.2331
  247MOL0     C33223   8.323   1.474   6.256  0.3841 -0.7163  0.0598
  247MOL0     C33224   8.454   1.531   6.327  0.0767  0.1454  0.0803
  247MOL0     C33225   8.573   1.541   6.229  0.1499  0.1262  0.1388
  247MOL0     C33226   8.618   1.411   6.191  0.2009 -0.2254  0.5316
  247MOL0     N33227   8.727   1.420   6.095 -0.2901 -0.0225 -0.4159
  247MOL0     C33228   8.728   1.486   5.978 -0.1558 -0.4004 -0.1425
  247MOL0     C33229   8.846   1.460   5.920 -1.1513 -0.0544  1.3984
  247MOL0     C33230   8.898   1.486   5.778 -0.9698  0.2414  0.0682
  247MOL0     C33231   9.011   1.385   5.760  0.2205 -0.6077  0.2338
  247MOL0     C33232   9.075   1.402   5.620 -0.1875 -0.4173 -0.6453
  247MOL0     C33233   9.127   1.549   5.578  0.2894 -0.1418  0.7185
  247MOL0     O33234   9.181   1.537   5.445 -0.4147 -0.1663  0.3474
  247MOL0     C33235   9.307   1.495   5.438 -0.3607  0.7053  0.1713
  247MOL0     C33236   9.324   1.382   5.354  0.0004  0.3707  0.1186
  247MOL0     C33237   9.455   1.328   5.339 -0.6983 -0.0984 -0.1014
  247MOL0     C33238   9.568   1.394   5.402 -0.5567 -0.1717  0.7216
  247MOL0     C33239   9.704   1.339   5.373 -0.4457 -0.4388 -0.1356
  247MOL0     O33240   9.718   1.216   5.308 -0.5057  0.4688 -0.7240
  247MOL0     C33241   9.843   1.162   5.320 -0.1186  0.0810 -0.5130
  247MOL0     C33242   9.952   1.228   5.256 -0.2153 -0.5442 -0.1978
  247MOL0     C33243  10.076   1.183   5.274  0.0991 -0.2161 -0.3813
  247MOL0     C33244  10.100   1.058   5.339  0.9022  0.0966  0.0499
  247MOL0     O33245  10.223   1.000   5.331 -0.0973 -0.3786  0.0890
  247MOL0     C33246  10.336   1.073   5.276 -0.9421 -0.7600  0.4425
  247MOL0     C33247  10.470   0.992   5.256 -0.1085 -0.0056 -0.2080
  247MOL0     C33248  10.463   0.902   5.132  0.2177 -0.5436 -0.2261
  247MOL0     C33249  10.605   0.850   5.091 -0.2202  0.3231 -0.5334
  247MOL0     C33250  10.676   0.754   5.191  0.3194 -0.1238 -0.7533
  247MOL0     C33251  10.825   0.725   5.170  0.2313  0.7373  0.1840
  247MOL0     C33252  10.856   0.672   5.023  0.3428 -0.3134 -0.0208
  247MOL0     C33253  11.003   0.648   5.003  0.1304 -0.0803  0.5105
  247MOL0    Cl33254  11.101   0.799   5.000 -0.3572  0.1274 -0.6595
  247MOL0     C33255   9.995   0.994   5.404  0.1256 -0.3505 -0.3910
  247MOL0     C33256   9.867   1.047   5.395 -0.3306 -0.1172 -0.9309
  247MOL0     O33257   9.800   1.402   5.425  0.0684 -0.1917  0.5056
  247MOL0     C33258   9.548   1.502   5.484  0.6971 -0.8744 -0.0381
  247MOL0     C33259   9.419   1.550   5.505  0.0025 -0.9509  0.2801
  247MOL0     N33260   8.922   1.394   6.013  0.5381  0.1849  0.5893
  247MOL0     N33261   8.844   1.357   6.115 -0.5451  0.1849  0.8759
  247MOL0     C33262   7.843   1.066   6.591  0.4238 -0.3272 -0.2928
  247MOL0     C33263   7.807   1.005   6.715 -0.4924  1.0210 -0.6358
  247MOL0     C33264   7.833   0.972   7.179 -0.2958  0.5415 -0.7281
  247MOL0     C33265   7.807   0.838   7.190 -0.5483  0.2906 -0.5608
  247MOL0     C33266   7.740   0.782   7.297 -1.0251  0.4481  0.2345
  247MOL0     C33267   7.719   0.843   7.417 -0.3862 -0.5522  0.6726
  247MOL0     O33268   7.669   0.780   7.527 -0.0950 -0.2061  0.7449
  247MOL0     C33269   7.532   0.746   7.518  0.0005 -0.3066  0.1881
  247MOL0     C33270   7.518   0.596   7.537 -0.4856 -0.7643 -1.3060
  247MOL0     C33271   7.465   0.549   7.681  1.1107 -0.4059  0.0349
  247MOL0     C33272   7.455   0.398   7.691 -0.3457  0.5143  0.3326
  247MOL0     C33273   7.397   0.366   7.829  0.8197  0.6840  0.1207
  247MOL0     C33274   7.358   0.329   7.938  0.2418 -1.2921  0.2234
  247MOL0     C33275   7.751   0.980   7.416 -0.6598  0.3362  0.5549
  247MOL0     C33276   7.810   1.046   7.298  0.1864 -0.6193  0.1609
  247MOL0     C33277   7.835   1.196   7.312  0.7206  0.4107  0.1300
  247MOL0     H33278   8.098   1.012   6.878 -1.2251 -0.8371  1.1520
  247MOL0     H33279   8.174   1.079   6.651 -0.1017 -0.3358 -1.8844
  247MOL0     H33280   7.833   1.280   6.479  0.1694 -1.3292 -3.5116
  247MOL0     H33281   7.978   1.358   6.545 -0.8242  2.4586 -0.3338
  247MOL0     H33282   7.923   1.480   6.342  1.3347  0.8987  0.6652
  247MOL0     H33283   7.876   1.331   6.261 -0.3976  2.8176 -1.3976
  247MOL0     H33284   8.085   1.418   6.167  2.6182 -3.2897 -1.6006
  247MOL0     H33285   8.111   1.272   6.232  0.9984  0.4685 -1.0934
  247MOL0     H33286   8.164   1.530   6.408 -1.2933 -0.6798 -0.5596
  247MOL0     H33287   8.233   1.376   6.426  1.9199  2.9397  2.1930
  247MOL0     H33288   8.346   1.374   6.218 -0.2074 -0.3668 -1.2781
  247MOL0     H33289   8.318   1.545   6.173  0.9699 -0.3667  0.3213
  247MOL0     H33290   8.432   1.634   6.354 -1.0871 -0.4474  1.5224
  247MOL0     H33291   8.469   1.462   6.411  0.1202  0.9231  0.7257
  247MOL0     H33292   8.665   1.592   6.261 -0.3317  1.3937 -0.4208
  247MOL0     H33293   8.537   1.592   6.139 -1.7693 -3.7073 -1.4832
  247MOL0     H33294   8.656   1.360   6.280 -2.6168  0.5081  2.2994
  247MOL0     H33295   8.539   1.354   6.141  0.5943 -0.6680  0.4074
  247MOL0     H33296   8.653   1.530   5.912  0.1845  0.0173 -0.2611
  247MOL0     H33297   8.830   1.470   5.694  0.4447  0.5122 -1.1757
  247MOL0     H33298   8.932   1.590   5.778 -1.5316  0.4360 -0.6649
  247MOL0     H33299   9.087   1.398   5.837 -3.2359  1.5623  3.6027
  247MOL0     H33300   8.966   1.285   5.762 -1.0203 -0.0983 -0.8462
  247MOL0     H33301   9.001   1.365   5.549 -1.1057 -0.1865  0.1638
  247MOL0     H33302   9.157   1.330   5.623 -1.3470 -1.7871 -0.2811
  247MOL0     H33303   9.204   1.565   5.653 -0.7712 -2.1983  2.3528
  247MOL0     H33304   9.045   1.621   5.591 -0.2209 -0.6279  0.2791
  247MOL0     H33305   9.243   1.348   5.291 -0.0706 -0.9056  0.8749
  247MOL0     H33306   9.466   1.239   5.277 -0.0311 -1.5262  1.9356
  247MOL0     H33307   9.932   1.319   5.200  1.3210 -1.4756 -2.3666
  247MOL0     H33308  10.149   1.233   5.211  3.8370 -3.1064  1.2433
  247MOL0     H33309  10.316   1.102   5.172  0.1780  2.7047  1.0549
  247MOL0     H33310  10.346   1.158   5.344  1.2166 -1.5641  1.2304
  247MOL0     H33311  10.539   1.073   5.231 -0.6399 -0.1613 -2.3594
  247MOL0     H33312  10.497   0.933   5.344 -1.1221 -4.7084 -2.7367
  247MOL0     H33313  10.392   0.819   5.141 -3.1646  2.0914 -0.5246
  247MOL0     H33314  10.426   0.966   5.052 -0.2320  0.3274  0.6598
  247MOL0     H33315  10.660   0.942   5.066  0.9476  0.4627  2.1638
  247MOL0     H33316  10.584   0.793   5.000  0.8271  0.3200 -0.7803
  247MOL0     H33317  10.617   0.662   5.188  0.1356 -0.0381  0.1251
  247MOL0     H33318  10.666   0.798   5.290  0.0006 -0.1829 -0.7572
  247MOL0     H33319  10.886   0.815   5.179  1.1084  0.3503 -1.4472
  247MOL0     H33320  10.856   0.651   5.245 -0.7469 -1.6773 -1.6576
  247MOL0     H33321  10.843   0.760   4.959  1.4747  1.4125  1.9441
  247MOL0     H33322  10.787   0.590   5.004 -1.7282  1.0060  1.3325
  247MOL0     H33323  11.033   0.581   5.085  1.3442 -0.1263  0.0557
  247MOL0     H33324  11.017   0.589   4.912 -0.1630 -3.8385  2.6547
  247MOL0     H33325  10.008   0.899   5.456  0.6782 -1.3416 -2.2605
  247MOL0     H33326   9.789   0.998   5.453 -1.3635  0.9900 -1.3262
  247MOL0     H33327   9.638   1.551   5.520  0.4662 -0.2504 -0.2948
  247MOL0     H33328   9.405   1.629   5.577 -0.7285 -1.6892  0.9648
  247MOL0     H33329   7.755   1.099   6.538  0.3260 -0.0158  0.0687
  247MOL0     H33330   7.704   0.986   6.743  0.4478 -3.8115  0.2741
  247MOL0     H33331   7.815   0.771   7.104  0.2738 -1.7843  1.0314
  247MOL0     H33332   7.700   0.681   7.295 -2.4258  0.9170  2.1222
  247MOL0     H33333   7.491   0.778   7.422  1.6292  3.4829  0.5851
  247MOL0     H33334   7.472   0.805   7.588 -1.5329 -2.2150  0.5746
  247MOL0     H33335   7.621   0.560   7.535  0.5076  1.8452 -0.6318
  247MOL0     H33336   7.460   0.552   7.455  1.0620 -1.6987 -1.9364
  247MOL0     H33337   7.363   0.588   7.687  1.5183  0.6592  0.2982
  247MOL0     H33338   7.523   0.592   7.763  2.2688 -0.0602 -0.9322
  247MOL0     H33339   7.398   0.363   7.604 -1.9058  2.0914  0.6533
  247MOL0     H33340   7.555   0.354   7.683 -0.6821  0.0394 -1.9949
  247MOL0     H33341   7.300   0.326   8.028 -3.4558 -0.1384 -1.9076
  247MOL0     H33342   7.742   1.025   7.515  1.8066 -1.4177  1.6652
  247MOL0     H33343   7.933   1.223   7.271 -1.3997  1.0408 -5.3343
  247MOL0     H33344   7.760   1.239   7.245 -0.3142  1.5006  1.9017
  247MOL0     H33345   7.828   1.235   7.414 -0.3254 -0.1514  0.2895
  248MOL0     O33346   9.749   0.107  10.944 -0.0506  0.3148  0.2140
  248MOL0     C33347   9.644   0.162  10.923  0.0664 -0.6545 -0.1885
  248MOL0     O33348   9.636   0.280  10.869  0.5379 -0.9594  0.3410
  248MOL0     C33349   9.755   0.321  10.805 -0.1659 -0.1409  0.2682
  248MOL0     C33350   9.859   0.390  10.868 -0.5672  0.1979 -0.0576
  248MOL0     C33351   9.974   0.423  10.791 -1.0275 -0.7479  0.3396
  248MOL0     C33352   9.984   0.379  10.657 -0.6684 -0.9961 -0.0821
  248MOL0     O33353  10.100   0.408  10.579 -0.2217  0.9420  0.5500
  248MOL0     C33354  10.232   0.394  10.629  0.5427 -0.5366  0.6847
  248MOL0     C33355  10.305   0.284  10.561 -0.0913  0.0489  0.8558
  248MOL0     C33356  10.460   0.288  10.600  0.0157 -0.5991  0.2287
  248MOL0     C33357  10.492   0.274  10.747  0.1008 -0.1068 -1.3497
  248MOL0     C33358  10.647   0.289  10.767 -0.4233 -0.8288  0.9656
  248MOL0     C33359  10.701   0.285  10.905 -0.5479 -0.0806 -0.4451
  248MOL0     C33360  10.851   0.288  10.903 -0.1975 -0.8801 -0.8483
  248MOL0     C33361  10.916   0.424  10.879 -1.0544  0.7157  0.2961
  248MOL0     N33362  10.938   0.501  11.008  0.5691  0.6664 -0.6434
  248MOL0     C33363  11.027   0.471  11.105  0.0586  1.0359  0.4212
  248MOL0     C33364  11.031   0.591  11.177 -0.7169 -0.9985  0.0508
  248MOL0     C33365  11.110   0.610  11.304  0.2184 -0.5308  0.0613
  248MOL0     C33366  11.040   0.564  11.423  0.0699  0.2083 -0.1827
  248MOL0     C33367  11.142   0.517  11.538  0.4019  0.6526  0.3511
  248MOL0     C33368  11.064   0.464  11.659  0.3132  0.7009 -0.3222
  248MOL0     O33369  11.148   0.441  11.770  0.4624  0.5925 -0.7703
  248MOL0     C33370  11.126   0.340  11.855 -0.1826  0.8646 -1.1245
  248MOL0     C33371  11.237   0.284  11.920  0.6186 -0.5856 -0.2784
  248MOL0     C33372  11.223   0.186  12.015  0.4183 -0.5582 -0.0032
  248MOL0     C33373  11.101   0.125  12.058 -0.5724  0.3472 -0.1216
  248MOL0     C33374  11.084   0.017  12.161  0.1859  0.7265 -0.0726
  248MOL0     O33375  11.186  -0.000  12.247  0.2465  0.3535 -0.3061
  248MOL0     C33376  11.193  -0.106  12.313  0.3010  0.3328 -0.4577
  248MOL0     C33377  11.115  -0.133  12.427  0.0076 -0.2661 -0.7077
  248MOL0     C33378  11.120  -0.259  12.488 -0.0181 -1.0244  0.6152
  248MOL0     C33379  11.215  -0.363  12.451 -0.0118 -1.0835 -0.0453
  248MOL0     O33380  11.212  -0.490  12.510 -0.4570  0.2969  0.4316
  248MOL0     C33381  11.100  -0.570  12.471 -0.0070 -0.4436 -0.2165
  248MOL0     C33382  11.083  -0.699  12.559 -0.4733  1.0724  0.7491
  248MOL0     C33383  11.001  -0.798  12.486  0.3527 -0.1575 -0.1218
  248MOL0     C33384  10.958  -0.908  12.586  0.0687 -0.0412  0.7882
  248MOL0     C33385  10.836  -0.874  12.671 -0.6137 -1.1950 -1.1027
  248MOL0     C33386  10.761  -0.996  12.708 -0.7615  0.3131 -0.7403
  248MOL0     C33387  10.637  -0.948  12.784 -0.7337  0.0324  0.4380
  248MOL0     C33388  10.561  -1.068  12.825 -0.1218  0.3782 -0.0602
  248MOL0    Cl33389  10.529  -1.176  12.678 -0.0317  0.0282 -0.1447
  248MOL0     C33390  11.296  -0.337  12.348 -0.4649 -0.9479 -0.0041
  248MOL0     C33391  11.279  -0.212  12.279  0.6756  0.3082  0.8861
  248MOL0     O33392  10.982  -0.055  12.154 -0.7032  0.3811 -0.4002
  248MOL0     C33393  10.987   0.178  11.992 -0.4654 -0.1893 -0.9300
  248MOL0     C33394  10.999   0.292  11.892  0.2757  0.0257  0.4309
  248MOL0     N33395  10.932   0.676  11.142 -0.3274 -0.3869  1.2566
  248MOL0     N33396  10.872   0.611  11.045  0.3602 -0.1755 -0.1565
  248MOL0     C33397   9.881   0.307  10.601 -0.1984 -0.8306 -0.3257
  248MOL0     C33398   9.769   0.279  10.675 -0.6974 -0.1152  0.6257
  248MOL0     C33399   9.519   0.094  10.969  0.5361  0.7114  0.8925
  248MOL0     C33400   9.417   0.184  10.999 -0.4667  0.3266 -0.1059
  248MOL0     C33401   9.294   0.135  11.033  0.1229 -0.0994 -0.5154
  248MOL0     C33402   9.275   0.001  11.049  0.2734  0.2456 -0.6002
  248MOL0     O33403   9.161  -0.066  11.090  0.4133 -0.0408  0.2530
  248MOL0     C33404   9.048   0.014  11.128  0.3237  0.4530 -0.0681
  248MOL0     C33405   8.942  -0.081  11.174 -0.1582  0.7980 -0.0028
  248MOL0     C33406   8.993  -0.190  11.268 -0.3032 -0.1420 -0.6629
  248MOL0     C33407   9.052  -0.138  11.400  0.3218 -0.6163 -0.4913
  248MOL0     C33408   8.957  -0.056  11.479 -0.3080  0.3166  0.4888
  248MOL0     C33409   8.888   0.014  11.553  0.1594 -0.3912 -0.0886
  248MOL0     C33410   9.380  -0.093  11.030  0.2675 -0.6614 -0.4046
  248MOL0     C33411   9.503  -0.047  10.983  0.1291 -0.2394 -0.1113
  248MOL0     C33412   9.617  -0.147  10.981  0.2497  0.0367  0.0483
  248MOL0     H33413   9.850   0.428  10.969 -2.6446 -0.1542 -0.0658
  248MOL0     H33414  10.046   0.491  10.835  0.6002  0.1079 -3.2791
  248MOL0     H33415  10.264   0.488  10.582  0.3706  0.0998  1.7977
  248MOL0     H33416  10.242   0.407  10.737  0.6333  0.8303  0.5300
  248MOL0     H33417  10.292   0.284  10.453 -0.9198 -0.3575  0.9487
  248MOL0     H33418  10.263   0.189  10.593 -1.1488  0.4577  0.7238
  248MOL0     H33419  10.494   0.384  10.558 -0.4385 -1.3353 -1.9786
  248MOL0     H33420  10.518   0.216  10.542  4.4878  2.1890  0.7846
  248MOL0     H33421  10.442   0.352  10.804  2.5666  1.2081 -0.8492
  248MOL0     H33422  10.458   0.176  10.782 -0.4828  0.7667  0.6964
  248MOL0     H33423  10.700   0.217  10.705 -1.9575 -1.7763  0.6883
  248MOL0     H33424  10.664   0.388  10.724  3.2079 -1.7196  0.0503
  248MOL0     H33425  10.670   0.366  10.972  1.2323 -0.8024  1.3501
  248MOL0     H33426  10.660   0.197  10.955 -2.4155  0.1067 -1.5462
  248MOL0     H33427  10.892   0.232  10.818 -1.2372 -2.6644 -0.2137
  248MOL0     H33428  10.876   0.238  10.996  0.1997 -1.3750 -1.2152
  248MOL0     H33429  11.016   0.420  10.835 -0.7346  4.4636  0.3937
  248MOL0     H33430  10.863   0.482  10.803  1.3110 -0.2035 -2.2154
  248MOL0     H33431  11.088   0.382  11.120 -1.3012  0.2848  1.6503
  248MOL0     H33432  11.208   0.561  11.300  1.6050  1.5269  3.5165
  248MOL0     H33433  11.120   0.716  11.327  3.7323 -0.6500 -0.2430
  248MOL0     H33434  10.975   0.639  11.468 -2.0204 -1.2523 -0.6123
  248MOL0     H33435  10.975   0.481  11.393 -1.1401  0.5935  1.2476
  248MOL0     H33436  11.202   0.603  11.566  0.7206  0.8816 -0.9875
  248MOL0     H33437  11.211   0.442  11.498 -1.3278 -2.3519  2.5721
  248MOL0     H33438  11.018   0.369  11.631  0.6653  0.0862  1.0871
  248MOL0     H33439  10.997   0.547  11.686  0.2541  1.0170 -1.3778
  248MOL0     H33440  11.338   0.315  11.894  1.3789 -4.1285 -2.2045
  248MOL0     H33441  11.318   0.153  12.056  0.3070  0.2076  0.9097
  248MOL0     H33442  11.054  -0.054  12.469  0.5272 -0.5674  0.6772
  248MOL0     H33443  11.040  -0.285  12.556 -0.3812  0.2328  0.6930
  248MOL0     H33444  11.004  -0.519  12.473 -1.8643 -3.6543 -0.3293
  248MOL0     H33445  11.108  -0.603  12.367  0.5029  0.7317 -0.5625
  248MOL0     H33446  11.184  -0.731  12.586  0.6695  2.8964 -1.0677
  248MOL0     H33447  11.032  -0.674  12.653 -0.2379  0.2859  1.0949
  248MOL0     H33448  10.910  -0.751  12.446  1.1107  0.8537 -0.7211
  248MOL0     H33449  11.051  -0.850  12.404 -1.3781  1.8833 -2.6546
  248MOL0     H33450  11.042  -0.944  12.645  0.9648  0.2735 -0.2585
  248MOL0     H33451  10.940  -0.989  12.515  0.9049  1.7872 -1.6649
  248MOL0     H33452  10.776  -0.809  12.607  0.1829  1.5818  0.8055
  248MOL0     H33453  10.862  -0.819  12.762  1.0546 -0.2893 -2.0753
  248MOL0     H33454  10.739  -1.055  12.619 -0.0371 -1.1389  0.0031
  248MOL0     H33455  10.810  -1.068  12.774 -1.8859  0.1684 -0.0309
  248MOL0     H33456  10.567  -0.892  12.721  0.4505  0.0528 -0.9121
  248MOL0     H33457  10.664  -0.889  12.872  1.3074 -0.3370  0.1101
  248MOL0     H33458  10.622  -1.121  12.899  0.7252  0.9167 -0.3587
  248MOL0     H33459  10.465  -1.046  12.873  0.6719 -0.6934  2.1561
  248MOL0     H33460  11.366  -0.411  12.310  4.4722  2.2218  1.9041
  248MOL0     H33461  11.342  -0.187  12.195  2.1092  0.0318  1.8506
  248MOL0     H33462  10.888   0.156  12.031  0.9922 -2.4015  1.8321
  248MOL0     H33463  10.916   0.342  11.844  3.3318  3.3260 -1.8513
  248MOL0     H33464   9.894   0.270  10.500  1.4772 -1.1516 -0.0230
  248MOL0     H33465   9.689   0.212  10.643  1.6894 -2.7572 -0.2589
  248MOL0     H33466   9.426   0.291  10.985 -1.7877  0.6044  0.8723
  248MOL0     H33467   9.203   0.194  11.032  0.1839  0.1608 -3.9193
  248MOL0     H33468   9.016   0.085  11.051 -0.6230  2.1371  1.7666
  248MOL0     H33469   9.076   0.070  11.218 -1.0571  1.6398 -0.3452
  248MOL0     H33470   8.887  -0.130  11.094  1.1529  1.1224 -1.1439
  248MOL0     H33471   8.878  -0.022  11.240  0.0190  0.8173  0.1535
  248MOL0     H33472   9.077  -0.244  11.225 -0.1403  0.9888 -1.7883
  248MOL0     H33473   8.921  -0.269  11.295 -0.3130  0.6453  1.9505
  248MOL0     H33474   9.098  -0.218  11.458 -0.0200  0.5222  1.4489
  248MOL0     H33475   9.127  -0.062  11.375 -1.6168  2.6441  2.5699
  248MOL0     H33476   8.847   0.093  11.613  0.4292  1.2910 -1.9978
  248MOL0     H33477   9.368  -0.200  11.047 -1.0703 -0.4001  0.4656
  248MOL0     H33478   9.579  -0.248  11.003  0.9167 -1.2799 -3.9225
  248MOL0     H33479   9.650  -0.149  10.876 -0.8648 -1.7804 -0.3216
  248MOL0     H33480   9.696  -0.119  11.051 -0.1217 -3.9013  2.3243
  249MOL0     O33481   0.254   8.599   0.282  0.3964  0.2250 -0.3364
  249MOL0     C33482   0.340   8.512   0.245  0.6703 -0.6155  0.1669
  249MOL0     O33483   0.312   8.382   0.224  1.1172 -0.6049  0.5213
  249MOL0     C33484   0.183   8.332   0.188 -1.1027  0.1777 -0.3550
  249MOL0     C33485   0.072   8.413   0.146 -0.0809  0.3642 -0.2028
  249MOL0     C33486  -0.050   8.354   0.133 -0.0894 -0.1591  0.2244
  249MOL0     C33487  -0.063   8.211   0.140 -0.7675 -0.1541  0.4113
  249MOL0     O33488  -0.177   8.146   0.100  0.5338  0.7627 -0.0408
  249MOL0     C33489  -0.258   8.208   0.000  0.6920 -0.7456  0.2508
  249MOL0     C33490  -0.394   8.275   0.060 -0.0420 -0.4644 -0.0074
  249MOL0     C33491  -0.474   8.344  -0.053  0.2404 -0.4290  0.4012
  249MOL0     C33492  -0.616   8.380  -0.005  0.7998 -0.6354 -0.4316
  249MOL0     C33493  -0.611   8.483   0.112 -0.7268 -0.1361  0.9259
  249MOL0     C33494  -0.755   8.534   0.130 -0.2270 -0.2798 -0.0423
  249MOL0     C33495  -0.749   8.671   0.207 -0.5125  0.2806 -0.5032
  249MOL0     C33496  -0.885   8.724   0.232  0.0190  0.2133  0.9083
  249MOL0     N33497  -0.885   8.867   0.259  0.3916 -0.1123  0.3462
  249MOL0     C33498  -0.821   8.917   0.372 -1.3546 -1.1335 -0.4280
  249MOL0     C33499  -0.839   9.049   0.363 -0.4584 -0.0207 -0.9736
  249MOL0     C33500  -0.799   9.150   0.466  0.0716 -0.3208 -0.0933
  249MOL0     C33501  -0.657   9.145   0.531 -1.0277 -0.3375  0.0552
  249MOL0     C33502  -0.545   9.142   0.417  0.4641 -0.6068 -0.2110
  249MOL0     C33503  -0.405   9.183   0.479 -0.8201 -0.1366  0.4320
  249MOL0     O33504  -0.314   9.173   0.368 -1.2870 -0.1648  0.4608
  249MOL0     C33505  -0.191   9.231   0.373  0.7337 -0.5661  0.7049
  249MOL0     C33506  -0.099   9.201   0.263 -0.4219  0.8974 -0.3530
  249MOL0     C33507   0.022   9.273   0.260  0.5278  0.5545 -0.4302
  249MOL0     C33508   0.044   9.380   0.351  0.5632  0.6701  1.0215
  249MOL0     C33509   0.167   9.461   0.330  0.0954  0.2329 -0.3353
  249MOL0     O33510   0.192   9.557   0.420 -0.5727  0.7256  0.2279
  249MOL0     C33511   0.315   9.618   0.427 -1.2641 -0.3307  0.4608
  249MOL0     C33512   0.380   9.611   0.555  0.5457 -0.2769  0.5118
  249MOL0     C33513   0.514   9.662   0.564  0.8210 -0.6852  0.0376
  249MOL0     C33514   0.579   9.700   0.443  0.5132 -1.4051  0.6843
  249MOL0     O33515   0.704   9.731   0.453 -0.1658  1.0173  0.6760
  249MOL0     C33516   0.787   9.718   0.332  0.3251  0.2400  0.8060
  249MOL0     C33517   0.930   9.675   0.380  0.0889 -0.0584  0.3992
  249MOL0     C33518   1.021   9.643   0.263 -0.6281 -0.0360  0.9649
  249MOL0     C33519   1.157   9.574   0.309 -0.1211 -0.0623  0.4841
  249MOL0     C33520   1.238   9.502   0.190 -0.5590 -0.1175 -0.2146
  249MOL0     C33521   1.361   9.433   0.251 -0.5452 -0.5005  0.2654
  249MOL0     C33522   1.478   9.528   0.268  0.3731  0.1467  0.3197
  249MOL0     C33523   1.610   9.451   0.247  0.5884  0.1257 -0.2098
  249MOL0    Cl33524   1.745   9.533   0.312 -0.1786 -0.3493  0.2087
  249MOL0     C33525   0.506   9.720   0.328  0.6165 -0.5333  0.5389
  249MOL0     C33526   0.377   9.678   0.313 -0.2210  0.2128 -0.0874
  249MOL0     O33527   0.239   9.431   0.234 -1.1239 -0.1914 -0.4968
  249MOL0     C33528  -0.045   9.408   0.453  0.5497  0.7988 -0.2272
  249MOL0     C33529  -0.158   9.324   0.469 -0.5301 -0.3235 -0.3626
  249MOL0     N33530  -0.927   9.074   0.252 -0.4522  0.5760 -0.3515
  249MOL0     N33531  -0.949   8.957   0.189 -0.7296  0.1260  0.4027
  249MOL0     C33532   0.048   8.127   0.166  0.5815 -0.2031  0.6515
  249MOL0     C33533   0.171   8.191   0.195 -0.7442 -0.0245 -0.7258
  249MOL0     C33534   0.482   8.551   0.258  0.2868 -0.2442  0.2828
  249MOL0     C33535   0.511   8.687   0.229  0.5810 -0.5763 -0.1728
  249MOL0     C33536   0.642   8.734   0.237  0.0896  0.2935 -0.2895
  249MOL0     C33537   0.746   8.642   0.268  0.4360 -0.3959 -0.1715
  249MOL0     O33538   0.869   8.696   0.280 -0.2651  0.2880 -0.3688
  249MOL0     C33539   0.977   8.611   0.336  0.1265 -0.2543  0.7741
  249MOL0     C33540   1.120   8.655   0.288 -0.3821  0.0762  0.4777
  249MOL0     C33541   1.157   8.808   0.307  0.2671 -0.0891 -0.1038
  249MOL0     C33542   1.126   8.868   0.440  0.2135  0.0318 -0.2871
  249MOL0     C33543   1.187   8.997   0.477 -0.6760 -0.9412 -0.7239
  249MOL0     C33544   1.258   9.101   0.502  0.0506  0.1302  0.1597
  249MOL0     C33545   0.709   8.514   0.313 -0.4049  0.7238 -0.4083
  249MOL0     C33546   0.580   8.462   0.299  0.0934  0.3089  0.5948
  249MOL0     C33547   0.549   8.320   0.348 -0.2658 -0.0322  0.3861
  249MOL0     H33548   0.070   8.521   0.136 -0.1209  0.5615  1.5710
  249MOL0     H33549  -0.133   8.423   0.121  1.7493  1.9770 -1.0255
  249MOL0     H33550  -0.198   8.268  -0.069 -0.1410 -1.4489 -1.1352
  249MOL0     H33551  -0.296   8.132  -0.069  0.7832  0.0960 -0.7457
  249MOL0     H33552  -0.374   8.346   0.140 -0.3684 -0.2070 -0.1521
  249MOL0     H33553  -0.452   8.196   0.109  0.7956  0.4228  2.5666
  249MOL0     H33554  -0.477   8.274  -0.137 -0.7154 -2.5197  2.0912
  249MOL0     H33555  -0.422   8.429  -0.099 -1.3192  2.3957  3.4315
  249MOL0     H33556  -0.670   8.428  -0.087 -1.1840  0.4857  1.4437
  249MOL0     H33557  -0.671   8.297   0.040  2.1199 -0.2086  2.1262
  249MOL0     H33558  -0.568   8.434   0.200 -2.6805 -1.6238  1.1286
  249MOL0     H33559  -0.542   8.564   0.089 -0.3723 -0.7056 -0.0735
  249MOL0     H33560  -0.820   8.548   0.043 -0.1105  2.0238  0.1730
  249MOL0     H33561  -0.815   8.468   0.193 -0.2605  0.2853  0.5241
  249MOL0     H33562  -0.681   8.739   0.153 -0.0396 -1.1432 -1.7743
  249MOL0     H33563  -0.697   8.656   0.301  1.3778  1.5334 -1.2856
  249MOL0     H33564  -0.945   8.713   0.140  1.2711  2.0201 -0.1746
  249MOL0     H33565  -0.938   8.666   0.309 -1.0631  1.1814  0.9195
  249MOL0     H33566  -0.757   8.866   0.443  2.0340  2.0271 -0.9116
  249MOL0     H33567  -0.797   9.244   0.410  4.8530 -1.1733 -1.8634
  249MOL0     H33568  -0.875   9.155   0.544 -1.3481 -5.8640 -0.6607
  249MOL0     H33569  -0.634   9.230   0.596 -1.8871  1.0634 -1.4066
  249MOL0     H33570  -0.654   9.056   0.596  0.3618  0.4485  1.1062
  249MOL0     H33571  -0.559   9.204   0.328  3.6575  0.8325  0.1444
  249MOL0     H33572  -0.524   9.043   0.377  3.8228 -1.0075  2.1253
  249MOL0     H33573  -0.379   9.110   0.556 -0.2060 -2.2957 -1.6759
  249MOL0     H33574  -0.419   9.277   0.532  0.9802 -0.2496  1.1850
  249MOL0     H33575  -0.134   9.123   0.196  4.9755  0.1168 -2.7915
  249MOL0     H33576   0.080   9.260   0.169 -2.0952 -3.1963 -1.7731
  249MOL0     H33577   0.333   9.556   0.636  0.5993 -0.1656  0.6174
  249MOL0     H33578   0.566   9.663   0.659  1.3685 -0.6625 -0.2618
  249MOL0     H33579   0.748   9.651   0.255 -0.3557 -0.9974  2.1760
  249MOL0     H33580   0.797   9.816   0.284  0.3111  1.6711  3.5369
  249MOL0     H33581   0.964   9.759   0.441  2.4649 -1.3929  1.0284
  249MOL0     H33582   0.925   9.580   0.434  0.4881 -0.7235 -0.6914
  249MOL0     H33583   0.971   9.568   0.201 -0.7824  1.0830 -0.3214
  249MOL0     H33584   1.042   9.724   0.193 -2.9134 -1.8037 -2.0096
  249MOL0     H33585   1.131   9.495   0.381  1.2713 -2.1862 -1.2556
  249MOL0     H33586   1.222   9.647   0.358  0.4996  0.2490 -0.7659
  249MOL0     H33587   1.272   9.572   0.113  1.0072 -0.7541 -0.1366
  249MOL0     H33588   1.176   9.423   0.149 -0.2733  0.3053 -1.4960
  249MOL0     H33589   1.333   9.399   0.351 -0.3442 -1.9815 -0.1462
  249MOL0     H33590   1.397   9.349   0.191  2.1131 -0.9346  2.2833
  249MOL0     H33591   1.478   9.563   0.371 -3.2302 -1.9779  1.1863
  249MOL0     H33592   1.466   9.612   0.199 -1.2709  1.7188  2.4041
  249MOL0     H33593   1.601   9.352   0.293 -3.2180  0.2124 -0.4390
  249MOL0     H33594   1.627   9.433   0.140 -0.6241  1.2069 -0.6072
  249MOL0     H33595   0.559   9.754   0.240  1.4170  2.0710  1.9228
  249MOL0     H33596   0.326   9.685   0.217  1.3647 -2.1038 -1.1904
  249MOL0     H33597  -0.036   9.478   0.535  0.4445 -0.2153  0.6736
  249MOL0     H33598  -0.228   9.357   0.546  0.5383  1.4337 -0.1003
  249MOL0     H33599   0.038   8.020   0.181 -1.7647 -0.5392 -2.3749
  249MOL0     H33600   0.255   8.134   0.234 -0.0283  0.3219 -1.7232
  249MOL0     H33601   0.432   8.761   0.218 -0.1921 -0.5625  4.0289
  249MOL0     H33602   0.668   8.839   0.227  2.9571 -0.2452  0.3894
  249MOL0     H33603   0.969   8.512   0.291 -2.1460  1.6155 -3.4970
  249MOL0     H33604   0.969   8.612   0.445 -2.7407  0.0271  0.6149
  249MOL0     H33605   1.133   8.630   0.182  2.9759 -0.2881  0.8534
  249MOL0     H33606   1.187   8.581   0.333 -2.0588 -0.5862  2.0229
  249MOL0     H33607   1.107   8.866   0.229  1.4555 -0.3427 -1.0904
  249MOL0     H33608   1.265   8.810   0.288  0.3623 -3.6974 -0.7782
  249MOL0     H33609   1.017   8.869   0.449  0.0483 -1.1945 -1.7954
  249MOL0     H33610   1.167   8.795   0.509  3.7735  1.3702 -0.7525
  249MOL0     H33611   1.315   9.188   0.525  0.7182 -0.6063  1.3541
  249MOL0     H33612   0.782   8.439   0.344 -1.9441 -0.2669  0.9937
  249MOL0     H33613   0.459   8.314   0.409 -1.0060 -1.3205 -0.7866
  249MOL0     H33614   0.525   8.260   0.260 -0.4354  1.5972 -0.7414
  249MOL0     H33615   0.628   8.260   0.394 -0.0859 -2.4667 -2.7269
  250MOL0     O33616   2.978   0.124   1.472 -0.5182 -0.1288 -0.1527
  250MOL0     C33617   3.055   0.079   1.394  0.0357 -0.3018 -0.0565
  250MOL0     O33618   3.083  -0.053   1.395 -0.1007  0.0107 -1.0924
  250MOL0     C33619   2.995  -0.135   1.459  0.7903  0.2033  0.7763
  250MOL0     C33620   2.931  -0.232   1.385 -0.5735  1.3386 -0.3511
  250MOL0     C33621   2.839  -0.320   1.444 -0.6291  0.0955 -0.1707
  250MOL0     C33622   2.814  -0.322   1.583 -0.5124  0.2621 -0.0238
  250MOL0     O33623   2.742  -0.418   1.641 -0.4596 -0.6638  0.4897
  250MOL0     C33624   2.692  -0.525   1.566  1.0233 -0.3023  0.3127
  250MOL0     C33625   2.627  -0.626   1.656 -0.5669 -0.3201  0.4956
  250MOL0     C33626   2.531  -0.704   1.564 -0.3967  0.1245 -0.4342
  250MOL0     C33627   2.458  -0.814   1.642  0.1991  0.0625 -0.1564
  250MOL0     C33628   2.380  -0.897   1.544  0.7676 -0.4003 -0.1817
  250MOL0     C33629   2.243  -0.836   1.507 -0.0947  0.1293  0.6572
  250MOL0     C33630   2.170  -0.924   1.397  0.2505 -0.2402 -0.3167
  250MOL0     C33631   2.056  -0.860   1.325 -0.0913 -0.5242  0.3993
  250MOL0     N33632   1.966  -0.952   1.264 -0.4252  0.6896  0.1905
  250MOL0     C33633   1.895  -1.061   1.323 -0.6132 -0.6679 -0.8362
  250MOL0     C33634   1.862  -1.131   1.210 -0.7620  0.9050 -0.3862
  250MOL0     C33635   1.789  -1.267   1.203  1.0288 -0.4902 -1.1488
  250MOL0     C33636   1.890  -1.385   1.191  0.3165  0.1423  0.0341
  250MOL0     C33637   1.827  -1.521   1.161  0.5712  0.7919 -0.2303
  250MOL0     C33638   1.905  -1.646   1.225 -0.6009  0.5908  0.0902
  250MOL0     O33639   1.898  -1.629   1.368 -0.2760 -0.1396 -0.0242
  250MOL0     C33640   1.938  -1.733   1.440 -0.7923 -0.3152  0.1440
  250MOL0     C33641   1.846  -1.807   1.525 -1.0872 -0.5840 -0.1751
  250MOL0     C33642   1.889  -1.918   1.602 -0.2124  0.0603 -0.0436
  250MOL0     C33643   2.025  -1.951   1.601 -0.3134 -0.4222  0.4156
  250MOL0     C33644   2.083  -2.043   1.707 -0.0780  0.0458 -0.9329
  250MOL0     O33645   2.221  -2.050   1.711 -0.5793 -0.4734  0.6891
  250MOL0     C33646   2.271  -2.154   1.792 -0.6998  0.5299 -0.8853
  250MOL0     C33647   2.373  -2.125   1.886  0.4890  0.2233 -0.3140
  250MOL0     C33648   2.435  -2.225   1.957  0.1180  0.3023 -0.1266
  250MOL0     C33649   2.408  -2.363   1.937 -0.5905 -0.0541  0.3013
  250MOL0     O33650   2.475  -2.470   1.996 -0.4701 -0.6434  0.3457
  250MOL0     C33651   2.549  -2.441   2.110 -0.4575  0.8782 -0.5827
  250MOL0     C33652   2.586  -2.578   2.176  0.4161  0.3893  0.1215
  250MOL0     C33653   2.594  -2.576   2.330 -0.2517  0.5446  0.4173
  250MOL0     C33654   2.684  -2.474   2.392 -0.0566 -0.3736 -0.1587
  250MOL0     C33655   2.691  -2.485   2.547  0.2232 -0.1761  0.9690
  250MOL0     C33656   2.738  -2.358   2.623 -0.1191 -0.3233 -0.1486
  250MOL0     C33657   2.655  -2.236   2.585 -0.3054 -0.0481  0.4209
  250MOL0     C33658   2.681  -2.121   2.689 -0.5230 -0.4080  0.6100
  250MOL0    Cl33659   2.603  -1.968   2.637  0.1435 -0.4542 -0.2969
  250MOL0     C33660   2.313  -2.393   1.839 -0.2704 -0.0795  0.4284
  250MOL0     C33661   2.245  -2.293   1.767  0.1323 -0.2482 -0.5849
  250MOL0     O33662   2.006  -2.109   1.767 -0.1318  0.1419 -0.5494
  250MOL0     C33663   2.112  -1.880   1.516 -0.2745  1.1460  0.3622
  250MOL0     C33664   2.071  -1.769   1.437  0.8856  0.1262 -0.4263
  250MOL0     N33665   1.920  -1.080   1.098  0.9006  0.0320 -1.1936
  250MOL0     N33666   1.974  -0.975   1.135 -0.5516 -0.7293  0.4170
  250MOL0     C33667   2.875  -0.221   1.661 -0.1750  0.4471  0.3830
  250MOL0     C33668   2.965  -0.128   1.595 -0.0499  0.1978 -0.2484
  250MOL0     C33669   3.134   0.170   1.296 -0.8123  1.0680 -0.0380
  250MOL0     C33670   3.227   0.099   1.210 -0.0025  0.3768 -0.2421
  250MOL0     C33671   3.308   0.163   1.115 -0.8664 -0.6926  0.7341
  250MOL0     C33672   3.302   0.305   1.105 -0.1050  0.2756 -0.2465
  250MOL0     O33673   3.368   0.375   1.008  0.1094  0.4067  0.2356
  250MOL0     C33674   3.468   0.310   0.937  0.0869  0.0716 -0.0398
  250MOL0     C33675   3.416   0.245   0.804  0.5172  0.0043  0.4267
  250MOL0     C33676   3.307   0.336   0.734 -0.6323 -0.0840  0.7531
  250MOL0     C33677   3.353   0.476   0.718 -0.4512  0.6438 -0.3343
  250MOL0     C33678   3.474   0.504   0.637 -0.7333  0.9394 -0.4115
  250MOL0     C33679   3.559   0.537   0.561 -0.1900  0.1811  0.4385
  250MOL0     C33680   3.217   0.372   1.194  0.1450  0.3258 -0.1057
  250MOL0     C33681   3.133   0.312   1.286 -0.2181 -0.1112  0.4575
  250MOL0     C33682   3.039   0.392   1.366 -0.6312 -1.0280 -0.3075
  250MOL0     H33683   2.949  -0.255   1.280  4.9590  0.7007  0.4610
  250MOL0     H33684   2.789  -0.389   1.376  0.3816  0.3343 -1.2002
  250MOL0     H33685   2.622  -0.484   1.493  1.6650 -2.7878 -1.8671
  250MOL0     H33686   2.767  -0.575   1.504  1.2492  0.6250 -0.1900
  250MOL0     H33687   2.560  -0.580   1.730 -0.7446 -0.6319  0.5298
  250MOL0     H33688   2.699  -0.687   1.711  1.3266 -0.1738 -1.6596
  250MOL0     H33689   2.596  -0.761   1.497 -2.8295 -2.3319 -0.8550
  250MOL0     H33690   2.470  -0.633   1.509  0.7603  1.6719  0.1868
  250MOL0     H33691   2.533  -0.881   1.684 -0.0665 -1.8473 -2.5171
  250MOL0     H33692   2.381  -0.770   1.707 -0.1428  1.4960 -1.4650
  250MOL0     H33693   2.431  -0.908   1.448  0.3746  4.9453 -1.2962
  250MOL0     H33694   2.363  -0.999   1.579 -1.0579 -2.0262 -4.9442
  250MOL0     H33695   2.177  -0.814   1.591  1.1387  0.6986  1.5082
  250MOL0     H33696   2.272  -0.737   1.472  2.8520 -0.7283  0.3446
  250MOL0     H33697   2.139  -1.019   1.442  1.1022 -0.6976 -0.6749
  250MOL0     H33698   2.253  -0.949   1.331  1.1796  2.4493 -0.2777
  250MOL0     H33699   1.991  -0.804   1.393 -0.0190 -0.1815  0.1881
  250MOL0     H33700   2.088  -0.784   1.253 -3.4960  0.5693 -0.1699
  250MOL0     H33701   1.876  -1.073   1.429  2.2058  3.2811  0.3781
  250MOL0     H33702   1.733  -1.288   1.295  2.0115  2.8963  0.3994
  250MOL0     H33703   1.717  -1.254   1.122  1.0245 -0.5572 -1.1562
  250MOL0     H33704   1.956  -1.351   1.111  2.0363  1.3776  1.8712
  250MOL0     H33705   1.958  -1.387   1.277  1.0638  2.1230 -0.4625
  250MOL0     H33706   1.822  -1.541   1.053  1.4629 -0.2332 -0.1067
  250MOL0     H33707   1.727  -1.525   1.205  0.4031  0.6165 -0.6191
  250MOL0     H33708   2.006  -1.662   1.186 -0.7074 -1.6545  0.6247
  250MOL0     H33709   1.859  -1.738   1.190 -1.6318  1.7860 -1.8733
  250MOL0     H33710   1.740  -1.789   1.536 -0.8824 -0.3845  1.7756
  250MOL0     H33711   1.818  -1.968   1.667  1.4482 -1.4137  0.6884
  250MOL0     H33712   2.412  -2.024   1.894 -0.7751  0.5994  4.4486
  250MOL0     H33713   2.510  -2.199   2.031 -0.2267 -0.3702  0.4689
  250MOL0     H33714   2.640  -2.383   2.092 -1.3835  1.8297 -2.4392
  250MOL0     H33715   2.488  -2.382   2.178 -0.8050  0.1873 -0.2819
  250MOL0     H33716   2.522  -2.656   2.134  0.6058 -0.9848  2.2206
  250MOL0     H33717   2.683  -2.611   2.138  0.0383  1.8508 -2.2969
  250MOL0     H33718   2.491  -2.571   2.367 -0.4648 -1.7810  0.2843
  250MOL0     H33719   2.634  -2.676   2.354 -0.3631  0.0556 -1.2914
  250MOL0     H33720   2.647  -2.373   2.376  3.2207  1.2487  1.4488
  250MOL0     H33721   2.784  -2.479   2.349 -0.2828  1.1653 -0.8890
  250MOL0     H33722   2.759  -2.565   2.576 -0.4795 -1.8449 -1.6368
  250MOL0     H33723   2.590  -2.522   2.567  0.5341 -2.5253 -1.2667
  250MOL0     H33724   2.741  -2.369   2.731 -0.1024 -3.4150 -0.3594
  250MOL0     H33725   2.844  -2.346   2.596 -0.4096  3.0818 -0.1347
  250MOL0     H33726   2.549  -2.258   2.597 -0.0244 -0.9756  1.3394
  250MOL0     H33727   2.675  -2.196   2.486 -1.8286  1.3552  0.6425
  250MOL0     H33728   2.636  -2.158   2.782  0.2283 -0.7928  0.8285
  250MOL0     H33729   2.787  -2.101   2.704 -0.3218 -0.9544 -0.0427
  250MOL0     H33730   2.282  -2.493   1.808 -1.1387  0.5509 -0.8244
  250MOL0     H33731   2.181  -2.309   1.681  0.0857 -0.5459 -0.4966
  250MOL0     H33732   2.216  -1.909   1.524 -0.6559 -0.1005  1.0773
  250MOL0     H33733   2.142  -1.710   1.380  0.2702 -0.2683 -1.6399
  250MOL0     H33734   2.873  -0.225   1.769  2.6785 -2.3141  0.4757
  250MOL0     H33735   3.005  -0.049   1.657 -0.6218  0.9379 -0.8065
  250MOL0     H33736   3.237  -0.006   1.236  0.4248  0.7278  1.0914
  250MOL0     H33737   3.379   0.108   1.054  1.3150  0.7606  1.8115
  250MOL0     H33738   3.525   0.232   0.988 -0.8305 -2.3428 -2.4523
  250MOL0     H33739   3.544   0.383   0.905  2.0305 -1.0235  1.8395
  250MOL0     H33740   3.381   0.147   0.838  3.0488 -0.7366  1.0601
  250MOL0     H33741   3.501   0.232   0.736  0.7922  2.8452  0.1420
  250MOL0     H33742   3.220   0.335   0.800 -0.0754  0.2679  1.5048
  250MOL0     H33743   3.274   0.286   0.642 -2.0789 -0.1225  1.2709
  250MOL0     H33744   3.268   0.522   0.667 -0.3777  0.1166 -0.9322
  250MOL0     H33745   3.356   0.526   0.816 -1.3043 -1.2755  0.7300
  250MOL0     H33746   3.633   0.558   0.487 -0.7874  0.4016 -0.0972
  250MOL0     H33747   3.201   0.479   1.192 -0.8147  0.2191  0.8352
  250MOL0     H33748   3.030   0.491   1.320  1.3853 -0.1615  1.0102
  250MOL0     H33749   2.942   0.342   1.373 -2.0453  1.2209 -2.3740
  250MOL0     H33750   3.077   0.402   1.468  1.2336 -2.6883 -0.7597
  251MOL0     O33751   9.304   8.740   5.240 -0.7442 -0.4607 -0.1106
  251MOL0     C33752   9.329   8.641   5.174 -0.3153  0.7561 -0.1028
  251MOL0     O33753   9.344   8.508   5.223  0.0293  0.1056  0.6417
  251MOL0     C33754   9.335   8.502   5.356 -0.8309  1.2305 -0.2814
  251MOL0     C33755   9.424   8.574   5.436  0.1570  0.4990  0.7310
  251MOL0     C33756   9.429   8.548   5.570  0.6438 -0.5443 -0.2819
  251MOL0     C33757   9.341   8.466   5.630 -0.1467  0.2148 -0.0733
  251MOL0     O33758   9.340   8.449   5.769 -0.1463  0.2541  0.6232
  251MOL0     C33759   9.372   8.327   5.824 -0.0244  0.6535 -0.6700
  251MOL0     C33760   9.509   8.343   5.890 -0.4374 -1.0621 -0.6770
  251MOL0     C33761   9.545   8.219   5.968 -0.4090  0.6764  0.1975
  251MOL0     C33762   9.693   8.222   5.994  0.6416 -0.5542  0.1220
  251MOL0     C33763   9.746   8.083   6.019  0.2140  0.0216  1.1830
  251MOL0     C33764   9.768   8.005   5.891 -0.8276 -0.9149  1.1233
  251MOL0     C33765   9.849   7.885   5.927  0.7576 -0.6045 -0.5508
  251MOL0     C33766   9.865   7.800   5.806  0.3435  0.5912 -0.5692
  251MOL0     N33767   9.931   7.673   5.831 -0.8979 -0.7895  0.2133
  251MOL0     C33768  10.065   7.645   5.869  0.2237  0.3621 -1.5023
  251MOL0     C33769  10.076   7.514   5.892  0.8564  0.0714  0.0310
  251MOL0     C33770  10.204   7.441   5.931 -0.1092 -0.9349  0.0180
  251MOL0     C33771  10.205   7.294   5.906  0.3302  0.6548  0.6410
  251MOL0     C33772  10.342   7.235   5.946 -0.4968 -0.3106 -0.6774
  251MOL0     C33773  10.335   7.081   5.955  0.0476 -0.4262 -0.6262
  251MOL0     O33774  10.242   7.049   6.061 -0.0322 -0.4663  0.3035
  251MOL0     C33775  10.302   7.059   6.181 -0.1242 -0.0165  0.4079
  251MOL0     C33776  10.252   7.146   6.280  0.6534  0.0694 -0.8158
  251MOL0     C33777  10.302   7.147   6.408 -0.2465 -0.0475  0.6904
  251MOL0     C33778  10.422   7.066   6.437  0.4039 -0.2318 -0.2448
  251MOL0     C33779  10.489   7.064   6.566  0.0448 -0.3049 -0.0981
  251MOL0     O33780  10.596   6.989   6.587  0.0408  0.2884 -0.5633
  251MOL0     C33781  10.678   6.989   6.700  0.7279 -0.4668  0.0208
  251MOL0     C33782  10.808   6.949   6.680  0.5097  1.4885 -0.1389
  251MOL0     C33783  10.902   6.957   6.780 -0.4483 -0.1073 -1.0340
  251MOL0     C33784  10.873   7.009   6.909  0.7149 -0.0765 -0.5546
  251MOL0     O33785  10.962   7.011   7.015  0.3694 -0.2165  0.4310
  251MOL0     C33786  11.047   6.892   7.044  0.1851 -0.5043  0.5659
  251MOL0     C33787  11.181   6.930   7.105 -0.4823  0.1077 -0.3545
  251MOL0     C33788  11.276   6.813   7.102  0.2853 -0.0598 -0.7278
  251MOL0     C33789  11.235   6.698   7.208 -0.2475 -0.3888 -0.4364
  251MOL0     C33790  11.331   6.577   7.186 -0.0557  1.0472 -0.1045
  251MOL0     C33791  11.304   6.482   7.303  0.2499 -0.5639 -0.0845
  251MOL0     C33792  11.422   6.390   7.326 -0.8067  0.1342 -0.5596
  251MOL0     C33793  11.404   6.279   7.436 -0.0734  0.0621  0.7701
  251MOL0    Cl33794  11.327   6.345   7.580 -0.0727  0.2879  0.3763
  251MOL0     C33795  10.738   7.039   6.941 -0.7129  0.6067 -0.0381
  251MOL0     C33796  10.651   7.038   6.831  0.2856  0.1438  1.0620
  251MOL0     O33797  10.435   7.134   6.652  0.0329 -0.3348  0.1452
  251MOL0     C33798  10.456   6.968   6.346  0.7730  0.2906  0.8376
  251MOL0     C33799  10.393   6.957   6.219  0.7085 -0.2994  0.0361
  251MOL0     N33800   9.946   7.461   5.872 -0.3255  0.1678  0.2085
  251MOL0     N33801   9.865   7.557   5.836  0.1950 -0.3050 -0.2235
  251MOL0     C33802   9.253   8.397   5.549  0.3118 -0.5469  0.1102
  251MOL0     C33803   9.250   8.411   5.414  0.5192 -0.1168  0.8800
  251MOL0     C33804   9.344   8.650   5.021 -0.0128  0.5901  0.4313
  251MOL0     C33805   9.300   8.772   4.961 -0.4231  0.8729  0.7091
  251MOL0     C33806   9.327   8.795   4.829 -0.8810 -0.6434 -0.8279
  251MOL0     C33807   9.397   8.698   4.750 -0.1014  0.7674 -0.2478
  251MOL0     O33808   9.420   8.707   4.610  0.0834 -0.4182 -0.0081
  251MOL0     C33809   9.390   8.827   4.550  1.0619  0.5109  1.0343
  251MOL0     C33810   9.360   8.811   4.403 -0.3212  0.6567 -0.3056
  251MOL0     C33811   9.212   8.783   4.383  0.1729  0.2920  0.1508
  251MOL0     C33812   9.133   8.905   4.346  1.4384  0.9091  0.1182
  251MOL0     C33813   9.199   8.957   4.227  0.8290 -0.3908  0.6875
  251MOL0     C33814   9.252   9.008   4.134  0.4319  0.0872  0.1063
  251MOL0     C33815   9.435   8.573   4.798  0.5036 -0.2555 -0.2077
  251MOL0     C33816   9.415   8.554   4.938  1.1051 -0.6570 -0.0673
  251MOL0     C33817   9.486   8.433   4.990  1.0663 -0.5345 -0.0611
  251MOL0     H33818   9.494   8.640   5.387  2.7417 -2.7330 -0.2706
  251MOL0     H33819   9.498   8.600   5.637 -0.4639  1.2503 -0.4720
  251MOL0     H33820   9.304   8.296   5.905  0.6013  3.3302  1.0049
  251MOL0     H33821   9.374   8.252   5.745  1.1125  0.3151 -0.3409
  251MOL0     H33822   9.502   8.427   5.960 -1.9524 -3.4545  2.2869
  251MOL0     H33823   9.588   8.361   5.817 -0.3037  0.2616 -0.2226
  251MOL0     H33824   9.520   8.133   5.904 -1.1098 -0.8139  2.3603
  251MOL0     H33825   9.483   8.201   6.057 -2.0042 -2.1307 -1.3178
  251MOL0     H33826   9.750   8.261   5.910  2.5241  0.7320  1.8978
  251MOL0     H33827   9.716   8.286   6.080  1.4431 -0.2292 -0.3295
  251MOL0     H33828   9.845   8.094   6.063  1.6454  1.0185 -1.9619
  251MOL0     H33829   9.669   8.036   6.081 -2.8685  2.6068 -0.3428
  251MOL0     H33830   9.678   7.959   5.850 -0.7763  1.3068 -1.7785
  251MOL0     H33831   9.817   8.071   5.819 -0.6875 -0.5694  1.5360
  251MOL0     H33832   9.790   7.834   6.004  0.7144  0.3299  0.0472
  251MOL0     H33833   9.945   7.902   5.976  0.2838  1.0066 -0.1117
  251MOL0     H33834   9.770   7.791   5.753  0.7195 -3.2952 -0.8432
  251MOL0     H33835   9.926   7.863   5.740  1.5683 -1.3906 -1.4372
  251MOL0     H33836  10.136   7.723   5.896  0.8644 -1.1489  1.6177
  251MOL0     H33837  10.293   7.485   5.885  1.6350 -3.1301  1.1049
  251MOL0     H33838  10.214   7.458   6.038 -1.2831 -0.2431  0.0345
  251MOL0     H33839  10.119   7.252   5.960 -1.8175  3.2870 -0.5438
  251MOL0     H33840  10.190   7.283   5.799 -1.1488 -0.2704  0.9138
  251MOL0     H33841  10.378   7.275   6.041 -0.7941 -1.3939 -0.0922
  251MOL0     H33842  10.415   7.265   5.870  0.4496  0.3473  0.4544
  251MOL0     H33843  10.432   7.041   5.986 -0.5106 -0.6527  0.8791
  251MOL0     H33844  10.306   7.030   5.863  0.5279 -0.3267 -0.8402
  251MOL0     H33845  10.161   7.201   6.258 -0.4099 -1.0205  0.6503
  251MOL0     H33846  10.250   7.223   6.465 -0.0481  0.8743 -0.3257
  251MOL0     H33847  10.826   6.903   6.583 -3.5232 -1.5745  0.3018
  251MOL0     H33848  11.004   6.932   6.753 -0.2332 -2.8924  1.8983
  251MOL0     H33849  11.002   6.822   7.114  1.7211 -2.3337 -0.1716
  251MOL0     H33850  11.064   6.826   6.958  0.5179 -0.5673  0.6783
  251MOL0     H33851  11.226   7.010   7.045  1.9799 -0.2772  0.8742
  251MOL0     H33852  11.164   6.972   7.205 -1.5574  1.5638 -1.1010
  251MOL0     H33853  11.276   6.784   6.996 -4.0258  2.2879 -1.5810
  251MOL0     H33854  11.378   6.842   7.130 -0.3357  0.9067  0.6288
  251MOL0     H33855  11.131   6.664   7.211 -0.4377  0.2371  0.7470
  251MOL0     H33856  11.258   6.746   7.304 -0.4175 -0.6752 -0.2491
  251MOL0     H33857  11.436   6.604   7.195  0.3226 -0.3253 -0.0898
  251MOL0     H33858  11.329   6.528   7.088  0.0440  0.5741  0.1236
  251MOL0     H33859  11.290   6.541   7.394  1.9317  0.6647 -0.5701
  251MOL0     H33860  11.218   6.421   7.275 -0.7377  0.1207  1.3700
  251MOL0     H33861  11.504   6.451   7.366  2.6643 -4.6547  0.4572
  251MOL0     H33862  11.459   6.341   7.235  0.8701 -0.1099  0.2092
  251MOL0     H33863  11.333   6.215   7.382  0.8214 -0.4236  0.1515
  251MOL0     H33864  11.496   6.222   7.450  0.2268  0.2721 -0.2722
  251MOL0     H33865  10.713   7.074   7.041  2.0663 -1.7304  1.6280
  251MOL0     H33866  10.551   7.078   6.845 -0.2406  0.2237 -2.2781
  251MOL0     H33867  10.533   6.897   6.373 -1.9884 -2.6149  1.6904
  251MOL0     H33868  10.423   6.886   6.142  2.5189  4.0609 -3.7861
  251MOL0     H33869   9.182   8.332   5.599  1.0206 -1.1641  0.3362
  251MOL0     H33870   9.181   8.370   5.340  0.2452  1.9129 -0.0663
  251MOL0     H33871   9.247   8.850   5.015 -2.4867  2.3980 -3.1899
  251MOL0     H33872   9.288   8.888   4.788  1.5578  0.2357 -1.2918
  251MOL0     H33873   9.480   8.888   4.565  0.5689  1.9121 -1.3178
  251MOL0     H33874   9.295   8.863   4.590  0.8503  0.1401  0.8670
  251MOL0     H33875   9.411   8.726   4.356  0.2412  0.0623  1.2938
  251MOL0     H33876   9.400   8.905   4.364  0.5115 -1.1423 -4.2543
  251MOL0     H33877   9.173   8.743   4.477 -1.1815 -1.5166 -1.1054
  251MOL0     H33878   9.200   8.704   4.307  1.9804  1.1213 -1.0514
  251MOL0     H33879   9.032   8.874   4.316  1.7685  1.9776 -2.3667
  251MOL0     H33880   9.139   8.976   4.429 -0.4410  0.4140  0.7281
  251MOL0     H33881   9.296   9.055   4.048 -1.2382  0.6985 -0.4647
  251MOL0     H33882   9.472   8.501   4.726  0.8143 -1.8347  1.4559
  251MOL0     H33883   9.419   8.368   5.048  1.2643 -1.6713 -1.0578
  251MOL0     H33884   9.518   8.371   4.905 -0.6743  1.1638 -2.0876
  251MOL0     H33885   9.568   8.465   5.054  1.0634 -1.9122  0.6581
  252MOL0     O33886   6.652   2.879   5.912 -0.3023  0.0866  0.7934
  252MOL0     C33887   6.737   2.828   5.985 -0.1110 -0.9435  0.7347
  252MOL0     O33888   6.760   2.862   6.106  0.1898 -0.2517 -0.1409
  252MOL0     C33889   6.720   2.988   6.154  0.0759  0.1282  0.0062
  252MOL0     C33890   6.710   2.992   6.290  0.0477  0.1702  0.1524
  252MOL0     C33891   6.653   3.100   6.361 -0.2650  0.0045  0.8105
  252MOL0     C33892   6.617   3.215   6.293  0.4452 -1.0595  0.0131
  252MOL0     O33893   6.564   3.313   6.376  0.3237 -0.4188  0.0563
  252MOL0     C33894   6.559   3.451   6.326 -0.5902  0.3080 -0.3621
  252MOL0     C33895   6.517   3.557   6.423 -1.1645  0.2614  0.4163
  252MOL0     C33896   6.382   3.522   6.473  1.1576  0.5404 -0.3601
  252MOL0     C33897   6.328   3.623   6.578  0.2656  0.3335  0.1164
  252MOL0     C33898   6.181   3.637   6.585  0.7682 -0.2293  0.3518
  252MOL0     C33899   6.126   3.708   6.710 -0.5178 -0.3783 -0.2582
  252MOL0     C33900   5.976   3.709   6.729 -0.4903  0.4953 -0.0425
  252MOL0     C33901   5.934   3.755   6.876 -0.3136  0.9855  0.9444
  252MOL0     N33902   5.795   3.715   6.911  1.1344  0.0448  0.1420
  252MOL0     C33903   5.684   3.782   6.870 -0.6106 -0.2760 -0.8166
  252MOL0     C33904   5.583   3.718   6.923 -0.2580 -0.1988  0.2267
  252MOL0     C33905   5.442   3.764   6.892 -1.3105 -0.0531 -0.4155
  252MOL0     C33906   5.367   3.763   7.021 -0.2459  0.0447  0.0198
  252MOL0     C33907   5.228   3.837   7.010 -0.3026  0.0734 -0.8114
  252MOL0     C33908   5.128   3.794   6.911 -1.0674  0.4937 -0.1690
  252MOL0     O33909   5.127   3.653   6.879 -0.0649  0.1392 -0.3906
  252MOL0     C33910   5.018   3.580   6.928 -0.2006 -0.5142 -0.5927
  252MOL0     C33911   4.893   3.628   6.959  0.1725  1.4935  0.1570
  252MOL0     C33912   4.808   3.534   7.033 -0.2269  0.9451  0.1433
  252MOL0     C33913   4.828   3.397   7.050 -0.0808  0.1228 -0.5402
  252MOL0     C33914   4.730   3.312   7.121  0.0728 -0.9987  0.2606
  252MOL0     O33915   4.612   3.371   7.158  0.8173  0.9596 -0.4120
  252MOL0     C33916   4.513   3.288   7.198  0.1295  0.9760  0.3556
  252MOL0     C33917   4.488   3.252   7.329  0.2815  0.1476 -0.8195
  252MOL0     C33918   4.396   3.148   7.361 -0.9297 -0.3959 -0.1786
  252MOL0     C33919   4.323   3.084   7.262 -0.3120 -0.6348 -0.1616
  252MOL0     O33920   4.235   2.992   7.305 -0.0185  0.2875 -0.3150
  252MOL0     C33921   4.156   2.908   7.222 -1.1698  0.0735  0.3022
  252MOL0     C33922   4.054   2.830   7.312  0.5379  0.2905 -0.1750
  252MOL0     C33923   3.952   2.914   7.395 -0.0497  0.9300  0.3800
  252MOL0     C33924   3.871   3.002   7.308 -0.2787 -0.0540 -0.2935
  252MOL0     C33925   3.763   3.083   7.374 -0.3827 -0.2642  0.5685
  252MOL0     C33926   3.824   3.189   7.462  0.3940 -0.1851 -0.2422
  252MOL0     C33927   3.725   3.285   7.521  0.0514  0.5982  0.0571
  252MOL0     C33928   3.650   3.219   7.636 -0.3994 -0.3442  0.0351
  252MOL0    Cl33929   3.512   3.332   7.670  0.1178 -0.2787  0.2970
  252MOL0     C33930   4.345   3.125   7.131  0.0233 -0.1943  0.3750
  252MOL0     C33931   4.438   3.223   7.097 -0.0680 -0.1767  0.1065
  252MOL0     O33932   4.764   3.197   7.137  0.0628 -0.1553 -0.2697
  252MOL0     C33933   4.952   3.354   6.993 -0.2504  0.2153  0.1542
  252MOL0     C33934   5.044   3.445   6.938 -0.5148 -0.5956  0.8351
  252MOL0     N33935   5.627   3.631   7.019  1.3597  0.8397 -0.1358
  252MOL0     N33936   5.754   3.628   7.010  0.2990  0.7974  0.2003
  252MOL0     C33937   6.620   3.216   6.154  0.4225 -0.6651 -0.1986
  252MOL0     C33938   6.667   3.095   6.088  1.4161 -0.0939 -0.5901
  252MOL0     C33939   6.783   2.698   5.931  0.9210  0.7528  0.4222
  252MOL0     C33940   6.837   2.604   6.032 -0.1216 -1.4631  0.8510
  252MOL0     C33941   6.884   2.478   5.991 -0.8636  0.6116  0.5460
  252MOL0     C33942   6.887   2.434   5.857  0.6885  0.2286 -0.3714
  252MOL0     O33943   6.949   2.323   5.808  0.3555  0.2236  0.1669
  252MOL0     C33944   6.905   2.200   5.880  0.8367 -0.3312  0.3456
  252MOL0     C33945   6.763   2.154   5.853  0.1917  0.2886  0.4716
  252MOL0     C33946   6.723   2.024   5.922  0.4026 -0.1088 -0.0528
  252MOL0     C33947   6.594   1.970   5.871  0.4796 -0.1390 -0.1887
  252MOL0     C33948   6.489   2.074   5.862 -0.7719 -0.9464 -0.1778
  252MOL0     C33949   6.408   2.165   5.870  0.1894 -0.7041  1.2012
  252MOL0     C33950   6.826   2.527   5.769  0.0403  0.0340  0.5418
  252MOL0     C33951   6.780   2.651   5.797 -0.4446 -0.8958 -0.0300
  252MOL0     C33952   6.735   2.742   5.683 -0.0573 -0.4192 -0.0024
  252MOL0     H33953   6.754   2.914   6.352 -1.7572 -2.1338 -1.2863
  252MOL0     H33954   6.643   3.112   6.469 -1.4326  1.9948  0.5292
  252MOL0     H33955   6.651   3.470   6.269  0.5278 -0.8224  0.9884
  252MOL0     H33956   6.479   3.454   6.252 -0.0353  2.6142 -0.9492
  252MOL0     H33957   6.502   3.650   6.368 -3.3416 -0.0504  0.4093
  252MOL0     H33958   6.590   3.578   6.503 -2.5098  0.2578  1.6820
  252MOL0     H33959   6.379   3.417   6.505 -1.5723  0.4292 -0.7383
  252MOL0     H33960   6.316   3.527   6.386 -0.9952  0.6041  1.2126
  252MOL0     H33961   6.369   3.603   6.677 -1.7980  1.3430  1.2427
  252MOL0     H33962   6.369   3.718   6.542 -0.9788  1.3298  1.2357
  252MOL0     H33963   6.159   3.705   6.502 -1.0359 -1.8963 -0.6167
  252MOL0     H33964   6.140   3.537   6.570  1.5438 -0.2597 -1.7730
  252MOL0     H33965   6.162   3.643   6.790  0.1365 -1.5949 -1.4808
  252MOL0     H33966   6.161   3.811   6.709  1.5402 -0.9235  2.6687
  252MOL0     H33967   5.949   3.604   6.717 -0.1441  0.5073 -1.0591
  252MOL0     H33968   5.934   3.773   6.651 -1.0776 -0.1793 -0.2818
  252MOL0     H33969   6.017   3.714   6.934  0.8883  1.8256 -0.1357
  252MOL0     H33970   5.956   3.862   6.880 -0.3856  1.0872 -0.6328
  252MOL0     H33971   5.685   3.873   6.811 -0.4891 -0.6737 -1.4375
  252MOL0     H33972   5.450   3.852   6.828 -1.0957 -0.3399 -0.7863
  252MOL0     H33973   5.398   3.686   6.830 -0.0332 -2.0568  1.0700
  252MOL0     H33974   5.337   3.658   7.034  0.8022 -0.3560 -0.6455
  252MOL0     H33975   5.421   3.793   7.112 -1.2006 -1.0274  0.9800
  252MOL0     H33976   5.220   3.945   6.991 -2.8215  0.3465  1.2286
  252MOL0     H33977   5.174   3.829   7.105  0.5334  1.8628 -0.1279
  252MOL0     H33978   5.162   3.830   6.814 -1.6091 -0.6329 -0.7957
  252MOL0     H33979   5.032   3.844   6.929 -0.2357  1.1077  3.2010
  252MOL0     H33980   4.847   3.726   6.960 -0.8645  1.0723 -1.6575
  252MOL0     H33981   4.718   3.578   7.074 -0.8491 -2.9360  3.6142
  252MOL0     H33982   4.548   3.284   7.413 -0.2421 -1.3900  0.1919
  252MOL0     H33983   4.383   3.119   7.465  1.7375  1.0645  0.6829
  252MOL0     H33984   4.114   2.957   7.134 -1.4764  1.0119  0.9561
  252MOL0     H33985   4.233   2.840   7.184  0.2608  0.9471  1.4813
  252MOL0     H33986   4.000   2.759   7.250 -1.0455 -0.1048  1.5727
  252MOL0     H33987   4.108   2.766   7.382  1.7075  0.8376 -0.5438
  252MOL0     H33988   3.881   2.853   7.453  1.4029  0.1885  1.4374
  252MOL0     H33989   4.000   2.984   7.464  0.1070 -1.3920  2.8110
  252MOL0     H33990   3.823   2.941   7.231  1.6129 -0.9745 -0.8065
  252MOL0     H33991   3.943   3.073   7.267  0.2486 -0.5070 -0.1660
  252MOL0     H33992   3.688   3.023   7.426  0.2728 -0.0499  1.8053
  252MOL0     H33993   3.708   3.129   7.292 -0.1611 -4.3176 -2.1734
  252MOL0     H33994   3.878   3.142   7.545  1.3783  0.8386 -0.2676
  252MOL0     H33995   3.888   3.246   7.393 -0.3669 -0.6020 -1.3129
  252MOL0     H33996   3.649   3.327   7.453  1.7064  3.2523 -0.2772
  252MOL0     H33997   3.788   3.360   7.568  1.0998 -0.8238  1.0246
  252MOL0     H33998   3.617   3.119   7.606 -0.5277 -0.7492  1.4520
  252MOL0     H33999   3.707   3.227   7.729 -3.4661  4.0949  1.8442
  252MOL0     H34000   4.287   3.085   7.048 -1.8784 -0.4298  1.7536
  252MOL0     H34001   4.460   3.239   6.992 -0.8200  0.4735  0.0350
  252MOL0     H34002   4.977   3.248   6.983  0.9195  0.6490 -2.2897
  252MOL0     H34003   5.137   3.398   6.911 -2.0425 -2.6896 -1.1778
  252MOL0     H34004   6.576   3.294   6.093  0.2072 -1.6869 -1.4071
  252MOL0     H34005   6.652   3.103   5.981  2.6850 -0.8651 -0.8425
  252MOL0     H34006   6.818   2.625   6.137 -0.5543 -2.6085  1.0117
  252MOL0     H34007   6.915   2.409   6.068  3.5918  2.4648  0.7118
  252MOL0     H34008   6.907   2.223   5.987 -2.3765  2.7980 -0.0555
  252MOL0     H34009   6.977   2.122   5.853  0.7710  0.8051 -3.6712
  252MOL0     H34010   6.748   2.136   5.746 -2.6827  0.6247  0.7346
  252MOL0     H34011   6.689   2.230   5.876  2.2384  2.1935  1.1171
  252MOL0     H34012   6.715   2.029   6.031  3.1378 -4.1785  0.5555
  252MOL0     H34013   6.797   1.944   5.912  1.1990  0.5191  0.6008
  252MOL0     H34014   6.595   1.922   5.772 -3.0026  1.6239 -1.2351
  252MOL0     H34015   6.566   1.896   5.947  0.1758 -0.3859 -0.5315
  252MOL0     H34016   6.322   2.229   5.868 -0.6107 -1.6504 -2.3074
  252MOL0     H34017   6.835   2.507   5.663  0.7741 -4.1408  1.2150
  252MOL0     H34018   6.760   2.690   5.590  0.2808 -2.4468  1.1452
  252MOL0     H34019   6.627   2.755   5.682 -0.1812 -1.3806 -0.5694
  252MOL0     H34020   6.782   2.841   5.679 -0.2736 -0.3518 -1.7097
  253MOL0     O34021   8.684   2.789   9.540 -0.2478 -0.2708 -0.0391
  253MOL0     C34022   8.650   2.720   9.637 -0.5245 -1.0358  0.4133
  253MOL0     O34023   8.728   2.651   9.720 -0.2706 -0.2441 -0.4591
  253MOL0     C34024   8.862   2.660   9.718 -0.8082  0.5903  0.0576
  253MOL0     C34025   8.927   2.780   9.723 -0.4381 -0.5386 -0.4636
  253MOL0     C34026   9.065   2.798   9.739 -0.0028 -0.0102  0.5916
  253MOL0     C34027   9.145   2.681   9.754  0.3672  0.1187 -0.7093
  253MOL0     O34028   9.277   2.710   9.763 -0.5209 -0.1737 -1.0231
  253MOL0     C34029   9.365   2.598   9.774  0.2726 -0.3057 -0.0882
  253MOL0     C34030   9.508   2.660   9.769 -0.6149 -1.0038 -0.4073
  253MOL0     C34031   9.567   2.671   9.623  0.0636  0.2087 -0.0091
  253MOL0     C34032   9.516   2.799   9.556 -0.1253 -0.3681 -0.0206
  253MOL0     C34033   9.551   2.821   9.408 -0.7509 -0.8709 -0.3132
  253MOL0     C34034   9.510   2.954   9.357  0.3588 -0.2452 -0.0199
  253MOL0     C34035   9.354   2.959   9.347  0.3088  0.1478 -0.9195
  253MOL0     C34036   9.317   3.097   9.289  0.9689 -0.5216 -0.2180
  253MOL0     N34037   9.404   3.205   9.350  0.5497  0.2090  0.3684
  253MOL0     C34038   9.485   3.291   9.290 -1.3229 -0.1297  0.1613
  253MOL0     C34039   9.519   3.368   9.399  0.3952  0.0672  1.0961
  253MOL0     C34040   9.614   3.489   9.411  0.3457  0.1408  1.3841
  253MOL0     C34041   9.600   3.579   9.286  0.0420  0.3769 -0.5274
  253MOL0     C34042   9.456   3.643   9.249  0.1726 -0.3385 -0.4383
  253MOL0     C34043   9.429   3.680   9.102  0.3381  1.3276  0.0109
  253MOL0     O34044   9.453   3.563   9.018  0.6455  0.3134  0.9194
  253MOL0     C34045   9.483   3.578   8.883 -0.3756 -0.0997  0.4392
  253MOL0     C34046   9.465   3.698   8.817  0.0790 -0.0498 -0.8024
  253MOL0     C34047   9.505   3.717   8.688  0.1458 -0.9438  0.0722
  253MOL0     C34048   9.580   3.615   8.619 -0.0958  0.0213  0.9666
  253MOL0     C34049   9.639   3.642   8.474 -0.4473 -0.2273  0.3955
  253MOL0     O34050   9.625   3.763   8.421  0.4090 -0.1693  0.4297
  253MOL0     C34051   9.672   3.787   8.298 -0.3201 -0.6332 -0.0845
  253MOL0     C34052   9.592   3.862   8.209  0.4678  1.0843 -0.5614
  253MOL0     C34053   9.635   3.911   8.094  0.5203 -0.4728  0.2029
  253MOL0     C34054   9.776   3.899   8.048  0.1913  0.1954 -1.2128
  253MOL0     O34055   9.821   3.934   7.926 -0.0480  0.0197 -0.5966
  253MOL0     C34056   9.790   4.066   7.880 -0.6127 -0.0365 -0.0845
  253MOL0     C34057   9.730   4.056   7.745 -0.1895 -0.3077 -0.0588
  253MOL0     C34058   9.845   4.011   7.643  0.3866  0.9953  0.4234
  253MOL0     C34059   9.805   4.030   7.497  0.5950 -0.5807 -0.3680
  253MOL0     C34060   9.921   4.004   7.408 -0.1424 -0.3505  0.6966
  253MOL0     C34061   9.968   3.851   7.402  0.0140 -0.2765 -1.0775
  253MOL0     C34062  10.052   3.819   7.287  0.3437  0.1921 -0.3396
  253MOL0     C34063  10.198   3.867   7.281 -0.7144 -0.1758  0.5579
  253MOL0    Cl34064  10.220   4.032   7.240  0.3425  0.0992  0.4425
  253MOL0     C34065   9.857   3.824   8.144  0.0850  0.4704  0.2424
  253MOL0     C34066   9.808   3.775   8.268  0.8695 -0.3320 -0.5711
  253MOL0     O34067   9.686   3.545   8.420 -0.0014  0.2673 -0.4794
  253MOL0     C34068   9.583   3.495   8.673  0.6861  0.9294 -2.0193
  253MOL0     C34069   9.544   3.474   8.812  0.8555 -0.5883 -0.7826
  253MOL0     N34070   9.463   3.327   9.514  0.1970 -0.0569  1.2144
  253MOL0     N34071   9.400   3.222   9.488 -0.1699  0.3406 -0.2249
  253MOL0     C34072   9.078   2.557   9.753  0.2384  0.7986 -0.1816
  253MOL0     C34073   8.939   2.548   9.736 -0.5742 -0.7138  0.0777
  253MOL0     C34074   8.497   2.697   9.666 -0.2747 -0.4435  0.5789
  253MOL0     C34075   8.470   2.596   9.764 -1.0033  0.3134  0.2439
  253MOL0     C34076   8.335   2.561   9.787  0.8908  0.1540  0.0366
  253MOL0     C34077   8.225   2.626   9.731 -0.0796 -0.7982  0.7095
  253MOL0     O34078   8.092   2.605   9.771  0.6192 -0.7000  0.5744
  253MOL0     C34079   8.056   2.564   9.906 -0.3342  0.1228 -0.2121
  253MOL0     C34080   7.907   2.542   9.931  0.8837 -0.6406 -0.1504
  253MOL0     C34081   7.834   2.673   9.893  0.3144  0.4194 -0.3160
  253MOL0     C34082   7.691   2.653   9.864  1.0028  0.5446  0.1752
  253MOL0     C34083   7.623   2.589   9.976  0.8421 -0.1616 -0.2565
  253MOL0     C34084   7.581   2.521  10.066  0.1294 -0.5231 -0.2260
  253MOL0     C34085   8.256   2.722   9.631 -0.4117  0.4789 -0.0756
  253MOL0     C34086   8.388   2.759   9.602 -0.1873 -0.6214  0.2933
  253MOL0     C34087   8.407   2.858   9.490  0.1167 -0.5322  0.0087
  253MOL0     H34088   8.864   2.869   9.727  0.1729 -0.1169 -0.0321
  253MOL0     H34089   9.129   2.886   9.738  2.8157 -1.9078 -0.7504
  253MOL0     H34090   9.345   2.541   9.865  2.1157  0.5045  0.8912
  253MOL0     H34091   9.344   2.528   9.693  0.5202 -0.4685 -0.0134
  253MOL0     H34092   9.581   2.594   9.815  0.8124 -2.7426 -4.7087
  253MOL0     H34093   9.505   2.762   9.808 -2.8203  0.1172 -3.1411
  253MOL0     H34094   9.538   2.577   9.575 -3.3861  1.2981 -0.2774
  253MOL0     H34095   9.676   2.664   9.627 -0.0196 -5.0229  0.9300
  253MOL0     H34096   9.406   2.797   9.553 -0.1301  0.1714 -1.8045
  253MOL0     H34097   9.550   2.885   9.614 -1.8107  2.2458 -2.6192
  253MOL0     H34098   9.659   2.816   9.399 -0.7522  0.0505 -0.9206
  253MOL0     H34099   9.508   2.746   9.341 -2.8923 -3.1271  3.2173
  253MOL0     H34100   9.539   3.031   9.429  0.3718  1.4468 -1.7630
  253MOL0     H34101   9.550   2.968   9.257 -0.9036  0.7306 -0.4144
  253MOL0     H34102   9.312   2.940   9.446  2.4935  1.6311  0.3855
  253MOL0     H34103   9.308   2.885   9.281 -0.7054  0.0791 -0.1536
  253MOL0     H34104   9.324   3.111   9.181 -2.1291  4.6605 -0.0745
  253MOL0     H34105   9.209   3.107   9.305  1.1650  1.4291  0.1429
  253MOL0     H34106   9.510   3.299   9.184 -0.9234 -3.2348 -0.0996
  253MOL0     H34107   9.584   3.553   9.495  2.7272  1.3851  1.3472
  253MOL0     H34108   9.718   3.456   9.419  0.3677 -0.8627 -1.6440
  253MOL0     H34109   9.655   3.668   9.317 -2.0285  0.5503  3.2988
  253MOL0     H34110   9.638   3.543   9.190 -1.2405  3.7835 -2.4948
  253MOL0     H34111   9.441   3.738   9.302 -0.1652 -0.1782 -0.8148
  253MOL0     H34112   9.393   3.561   9.285 -1.1303  2.3152  4.2359
  253MOL0     H34113   9.503   3.760   9.086  0.8520  1.2570  1.8597
  253MOL0     H34114   9.333   3.727   9.079  0.0429 -0.0332 -1.7424
  253MOL0     H34115   9.425   3.787   8.866 -2.4724 -2.2011  1.3743
  253MOL0     H34116   9.485   3.818   8.652 -0.3942 -0.2553  2.1754
  253MOL0     H34117   9.487   3.860   8.237  1.1591 -1.0018  2.3738
  253MOL0     H34118   9.568   3.967   8.030  1.5766 -2.2512 -2.6778
  253MOL0     H34119   9.722   4.115   7.949  0.8145  0.1146  1.2670
  253MOL0     H34120   9.885   4.116   7.861 -0.0316 -2.0048 -3.2393
  253MOL0     H34121   9.654   3.977   7.747 -1.2577  0.6972  0.9617
  253MOL0     H34122   9.681   4.150   7.716 -0.7022 -1.4098 -3.1474
  253MOL0     H34123   9.928   4.075   7.673 -0.3786  1.3419  1.9357
  253MOL0     H34124   9.874   3.910   7.674 -2.1830  0.6270  2.0078
  253MOL0     H34125   9.765   4.129   7.477 -0.9351 -1.6101 -2.7553
  253MOL0     H34126   9.725   3.957   7.480 -0.4049 -0.0271  1.6572
  253MOL0     H34127  10.011   4.059   7.435  0.3268  1.2101 -3.3334
  253MOL0     H34128   9.897   4.049   7.311 -3.6836  0.0884  1.6038
  253MOL0     H34129  10.019   3.832   7.497 -1.5489 -1.5672 -0.4457
  253MOL0     H34130   9.871   3.800   7.394 -1.4627  2.5797 -2.5654
  253MOL0     H34131   9.995   3.861   7.204 -3.4364  0.4708  2.1669
  253MOL0     H34132  10.051   3.711   7.267  1.5200  0.2712 -0.9629
  253MOL0     H34133  10.249   3.840   7.374  1.4933  4.8647  1.1671
  253MOL0     H34134  10.237   3.804   7.200 -0.2731  1.9800 -1.0122
  253MOL0     H34135   9.957   3.818   8.103 -0.9940  2.2707 -2.9901
  253MOL0     H34136   9.873   3.718   8.334  0.3619  1.3134  1.4914
  253MOL0     H34137   9.623   3.414   8.613  1.2331  0.9762 -1.7303
  253MOL0     H34138   9.551   3.387   8.876 -3.2850  0.2456  1.1006
  253MOL0     H34139   9.113   2.455   9.768 -2.3153 -0.3509 -1.3803
  253MOL0     H34140   8.892   2.451   9.727  0.6145 -1.2451 -0.7831
  253MOL0     H34141   8.546   2.536   9.813 -2.0618 -0.6867  0.7262
  253MOL0     H34142   8.313   2.469   9.839  0.6289 -0.2417 -0.7667
  253MOL0     H34143   8.089   2.644   9.973  3.2235  0.8490 -2.5766
  253MOL0     H34144   8.113   2.474   9.931 -1.8723 -1.9323 -3.4238
  253MOL0     H34145   7.887   2.520  10.037 -1.7080  3.1693  0.3303
  253MOL0     H34146   7.872   2.460   9.868  0.5985 -1.7222  1.3665
  253MOL0     H34147   7.892   2.696   9.803  0.8543 -4.7403 -1.6063
  253MOL0     H34148   7.845   2.752   9.968  1.8427 -2.0383  2.2728
  253MOL0     H34149   7.656   2.754   9.842 -0.3993 -0.0614 -0.4967
  253MOL0     H34150   7.680   2.592   9.774 -2.8081  1.2313 -0.0005
  253MOL0     H34151   7.541   2.465  10.148  1.6840 -1.2787  0.0360
  253MOL0     H34152   8.174   2.775   9.582 -0.0871 -0.3178 -1.5217
  253MOL0     H34153   8.476   2.939   9.516 -0.2784 -0.7833  2.0026
  253MOL0     H34154   8.443   2.819   9.394  3.4040  2.5592 -0.2216
  253MOL0     H34155   8.315   2.913   9.468 -1.6439 -4.0401 -2.2842
  254MOL0     O34156   7.326   4.368   7.721  0.5673  0.5779  0.0484
  254MOL0     C34157   7.298   4.482   7.762  0.6050  0.4690 -0.9958
  254MOL0     O34158   7.347   4.606   7.713 -0.3826  0.6043 -1.0305
  254MOL0     C34159   7.381   4.601   7.581  0.2505 -0.5895  0.0783
  254MOL0     C34160   7.292   4.547   7.489 -0.0936 -0.7658 -0.0614
  254MOL0     C34161   7.322   4.549   7.360  1.0279  1.4477 -0.4337
  254MOL0     C34162   7.450   4.584   7.313  0.6177 -1.0512  0.4218
  254MOL0     O34163   7.464   4.600   7.176  0.1822  0.4609 -0.2101
  254MOL0     C34164   7.585   4.632   7.105 -0.1716  0.3604  0.4115
  254MOL0     C34165   7.557   4.572   6.967 -0.2650  0.5732  0.8014
  254MOL0     C34166   7.670   4.597   6.867 -0.8102 -0.7918 -0.4873
  254MOL0     C34167   7.730   4.474   6.803  0.3507 -0.6043  1.0551
  254MOL0     C34168   7.789   4.507   6.660 -0.0833  0.4525 -1.3515
  254MOL0     C34169   7.912   4.595   6.663 -0.7155  0.2414  0.9756
  254MOL0     C34170   7.968   4.613   6.516 -0.4123 -0.5316  0.1677
  254MOL0     C34171   8.049   4.743   6.502  0.3503 -0.2265 -0.4249
  254MOL0     N34172   8.156   4.754   6.606  0.2448  0.2258 -0.6843
  254MOL0     C34173   8.136   4.789   6.737 -0.1765 -0.8196  0.1007
  254MOL0     C34174   8.252   4.753   6.805 -0.2260 -0.0266  0.8270
  254MOL0     C34175   8.270   4.772   6.954  0.9592 -0.3671 -1.5360
  254MOL0     C34176   8.233   4.922   7.005  0.2670  0.7213  0.4863
  254MOL0     C34177   8.347   5.011   6.944  0.7823  0.6010 -0.1059
  254MOL0     C34178   8.362   5.141   7.025 -0.3233 -0.1474 -0.2120
  254MOL0     O34179   8.399   5.121   7.162 -0.1857 -0.1740 -0.0899
  254MOL0     C34180   8.326   5.172   7.267  0.4267 -0.7395  0.2752
  254MOL0     C34181   8.393   5.194   7.389  0.0536  0.3446 -0.1023
  254MOL0     C34182   8.325   5.247   7.497  0.6934  1.1589  0.3387
  254MOL0     C34183   8.191   5.289   7.492  0.4981  0.3042 -0.3715
  254MOL0     C34184   8.110   5.329   7.607 -0.6175  0.4603 -0.5919
  254MOL0     O34185   8.179   5.327   7.724 -0.4839  0.2460  0.1401
  254MOL0     C34186   8.117   5.369   7.842  0.1762  0.0343 -0.3379
  254MOL0     C34187   8.200   5.449   7.916 -1.0940 -0.5066  0.0253
  254MOL0     C34188   8.173   5.469   8.049  0.0678 -0.6444 -1.0987
  254MOL0     C34189   8.060   5.422   8.104  0.1064  0.2323 -0.5323
  254MOL0     O34190   8.023   5.427   8.240  0.4698  0.2170  0.0087
  254MOL0     C34191   8.124   5.450   8.337  0.3423  0.7536  0.9272
  254MOL0     C34192   8.079   5.406   8.482 -0.6403  0.3197 -0.2357
  254MOL0     C34193   8.176   5.455   8.602 -0.4737 -0.9429  0.2269
  254MOL0     C34194   8.216   5.607   8.593 -0.9098  0.1612  0.3560
  254MOL0     C34195   8.337   5.639   8.676  0.1282 -0.4143  0.6282
  254MOL0     C34196   8.286   5.659   8.821 -1.0127 -0.4642 -0.3179
  254MOL0     C34197   8.416   5.649   8.917  0.6054 -0.6171 -0.2200
  254MOL0     C34198   8.355   5.639   9.052 -0.7322  0.2807  0.1724
  254MOL0    Cl34199   8.474   5.599   9.188 -0.1277  0.0904 -0.0561
  254MOL0     C34200   7.968   5.348   8.026 -0.3703  0.2845  0.4987
  254MOL0     C34201   7.999   5.317   7.895 -0.8254  0.0213 -0.6817
  254MOL0     O34202   7.989   5.354   7.599  0.1978 -0.5535 -0.1267
  254MOL0     C34203   8.129   5.280   7.365 -0.6095 -0.1736 -0.1312
  254MOL0     C34204   8.191   5.214   7.259  1.1275  0.5795 -0.6852
  254MOL0     N34205   8.337   4.713   6.701 -0.1253  0.7130  0.3208
  254MOL0     N34206   8.281   4.708   6.589  0.8779  0.0924 -0.2177
  254MOL0     C34207   7.549   4.625   7.416  0.4650  0.0121 -0.2249
  254MOL0     C34208   7.515   4.640   7.548  1.1698 -0.0189 -0.5414
  254MOL0     C34209   7.195   4.466   7.872  0.8909 -1.0446 -1.1542
  254MOL0     C34210   7.179   4.335   7.930  0.7484 -1.7808  0.9232
  254MOL0     C34211   7.090   4.312   8.023  1.3506 -0.7976 -0.6586
  254MOL0     C34212   7.008   4.411   8.082 -0.5358 -0.1646 -0.2066
  254MOL0     O34213   6.923   4.390   8.184 -0.5360  0.5956 -0.1279
  254MOL0     C34214   6.928   4.278   8.273 -0.3682  0.1548  0.0900
  254MOL0     C34215   6.838   4.161   8.223 -0.2679 -0.0275 -0.1146
  254MOL0     C34216   6.695   4.183   8.274  0.2111 -0.0841 -0.0544
  254MOL0     C34217   6.622   4.057   8.320  0.0880 -0.3793 -0.1253
  254MOL0     C34218   6.622   3.953   8.217 -0.2082 -0.8063 -0.0886
  254MOL0     C34219   6.619   3.911   8.106  0.9284  0.2885  0.1674
  254MOL0     C34220   6.996   4.532   8.013 -0.3949 -0.2514  0.2254
  254MOL0     C34221   7.089   4.564   7.901  1.5172  0.1415 -0.0042
  254MOL0     C34222   7.080   4.704   7.847  0.2755  1.0987 -0.5092
  254MOL0     H34223   7.193   4.517   7.519  0.0949  0.4433  1.9556
  254MOL0     H34224   7.241   4.526   7.292 -0.1790  2.1292  0.7294
  254MOL0     H34225   7.607   4.739   7.096  1.0900  0.1834  1.2398
  254MOL0     H34226   7.663   4.579   7.159  0.4288  1.3547  0.5561
  254MOL0     H34227   7.463   4.603   6.923  0.1446  0.0411 -0.4837
  254MOL0     H34228   7.549   4.464   6.984 -0.5632  0.5917  0.7757
  254MOL0     H34229   7.755   4.650   6.910  0.2394 -2.1439 -0.8206
  254MOL0     H34230   7.623   4.655   6.788  0.3968  2.7031  1.1671
  254MOL0     H34231   7.815   4.436   6.860  1.4332  0.3913  0.1488
  254MOL0     H34232   7.658   4.396   6.777 -0.5413  1.4496 -3.6905
  254MOL0     H34233   7.811   4.407   6.621 -0.4827  0.1264 -0.7600
  254MOL0     H34234   7.709   4.551   6.600  0.1996  3.0554  0.0595
  254MOL0     H34235   7.885   4.696   6.698 -3.4496 -0.3023  0.6815
  254MOL0     H34236   7.982   4.555   6.736 -0.5268 -0.9742  0.1583
  254MOL0     H34237   7.890   4.616   6.439 -2.1188 -1.1142  1.7870
  254MOL0     H34238   8.040   4.535   6.489  1.1367  0.2593  1.8549
  254MOL0     H34239   8.091   4.746   6.401 -0.8950 -1.7988 -1.0426
  254MOL0     H34240   7.988   4.832   6.518  4.1797  2.6009 -0.3914
  254MOL0     H34241   8.049   4.833   6.785  1.3314  1.0403  1.3058
  254MOL0     H34242   8.206   4.697   7.000 -1.8612  3.2818  1.0477
  254MOL0     H34243   8.367   4.754   7.002 -0.6839 -0.2420  2.1044
  254MOL0     H34244   8.131   4.936   6.969  1.1946  2.3120 -1.7287
  254MOL0     H34245   8.237   4.937   7.114 -3.1613 -1.0454  0.9935
  254MOL0     H34246   8.335   5.027   6.837  2.4501 -1.7823 -0.7279
  254MOL0     H34247   8.444   4.965   6.966  1.7526  3.2498  1.7839
  254MOL0     H34248   8.272   5.201   7.010 -0.7617 -0.7839 -0.1755
  254MOL0     H34249   8.436   5.204   6.975  0.7136 -0.1942  1.1960
  254MOL0     H34250   8.500   5.179   7.401  0.5238  3.4452  0.5465
  254MOL0     H34251   8.392   5.246   7.583 -0.1025 -1.4959  1.0126
  254MOL0     H34252   8.282   5.498   7.865 -0.6537 -0.9033  0.3451
  254MOL0     H34253   8.227   5.541   8.109 -3.7984 -0.2680  2.3269
  254MOL0     H34254   8.214   5.401   8.300  0.0025  0.9218 -0.1511
  254MOL0     H34255   8.144   5.558   8.337  1.4559  0.5601  0.9300
  254MOL0     H34256   7.981   5.450   8.503 -0.6197  0.2754 -0.0460
  254MOL0     H34257   8.066   5.298   8.488  1.4484  0.0282 -0.2427
  254MOL0     H34258   8.120   5.455   8.696 -0.6413  2.7432  0.2747
  254MOL0     H34259   8.270   5.399   8.598  0.2520  0.1547  1.1716
  254MOL0     H34260   8.135   5.673   8.623 -2.2268 -0.4251 -1.6386
  254MOL0     H34261   8.247   5.639   8.492  0.1011  2.5789  1.3504
  254MOL0     H34262   8.384   5.733   8.645 -1.2403  0.2702  0.5144
  254MOL0     H34263   8.406   5.556   8.661  0.9942  0.4360 -0.2428
  254MOL0     H34264   8.258   5.763   8.842  4.5330  1.0602  1.2714
  254MOL0     H34265   8.216   5.581   8.852 -1.6941 -0.6159 -2.1466
  254MOL0     H34266   8.495   5.725   8.911  0.4736 -0.2636  1.6557
  254MOL0     H34267   8.458   5.554   8.883 -0.0175 -0.3667 -1.7294
  254MOL0     H34268   8.311   5.736   9.076 -0.7783  0.0676  0.9811
  254MOL0     H34269   8.279   5.561   9.065 -0.3677 -0.1827 -0.4312
  254MOL0     H34270   7.885   5.303   8.079  1.4005 -1.6181  1.7633
  254MOL0     H34271   7.941   5.256   7.826  1.5348  1.4172 -4.1724
  254MOL0     H34272   8.028   5.319   7.367 -0.8335 -0.7551  0.2471
  254MOL0     H34273   8.127   5.192   7.174 -0.3585  5.5393 -1.2072
  254MOL0     H34274   7.650   4.657   7.392  0.2252  0.0997 -1.1836
  254MOL0     H34275   7.585   4.678   7.621 -0.6666  4.2549 -0.7102
  254MOL0     H34276   7.229   4.242   7.903  1.9910 -0.9863  0.3929
  254MOL0     H34277   7.096   4.216   8.073  3.2554 -0.6247 -0.4865
  254MOL0     H34278   6.898   4.324   8.368  1.5069  2.4699 -0.3344
  254MOL0     H34279   7.031   4.248   8.291 -0.2254 -0.6923 -1.8837
  254MOL0     H34280   6.882   4.069   8.261  0.5730 -0.0811 -1.1679
  254MOL0     H34281   6.840   4.165   8.113 -3.4580  2.7836 -0.2234
  254MOL0     H34282   6.641   4.235   8.195 -0.3173 -0.6948 -0.1038
  254MOL0     H34283   6.686   4.260   8.352 -0.6401  0.2022 -0.4184
  254MOL0     H34284   6.669   4.014   8.410 -0.5997  0.4868  0.6664
  254MOL0     H34285   6.520   4.070   8.356  0.0505  1.2317 -0.7357
  254MOL0     H34286   6.607   3.875   8.006 -3.4818  0.7150  0.3554
  254MOL0     H34287   6.931   4.611   8.050  1.7160  1.8104 -0.1989
  254MOL0     H34288   7.168   4.745   7.796  2.0635 -0.5112  1.1006
  254MOL0     H34289   7.004   4.701   7.768 -0.4136  0.7650  0.1529
  254MOL0     H34290   7.047   4.769   7.928 -0.1950 -0.6423  0.7539
  255MOL0     O34291   3.412   9.886   9.802 -0.3912  0.0202 -0.3677
  255MOL0     C34292   3.486   9.902   9.898  0.3961 -0.1122 -0.4666
  255MOL0     O34293   3.529  10.019   9.950  0.0861  0.2117  0.0647
  255MOL0     C34294   3.490  10.140   9.899 -0.6727  0.4337 -0.6737
  255MOL0     C34295   3.446  10.237   9.983 -0.0068  0.9902 -0.0114
  255MOL0     C34296   3.401  10.367   9.951 -0.0310 -0.0595  0.5594
  255MOL0     C34297   3.422  10.395   9.815 -0.2226 -0.5928  0.2581
  255MOL0     O34298   3.392  10.527   9.781  0.1662  0.1580  0.2211
  255MOL0     C34299   3.391  10.563   9.640 -0.8366  0.2280 -0.5119
  255MOL0     C34300   3.369  10.718   9.646  0.2259 -0.1339 -0.0992
  255MOL0     C34301   3.231  10.752   9.705 -0.5381 -0.4060  0.9038
  255MOL0     C34302   3.220  10.897   9.734 -0.3090  0.1597  0.3385
  255MOL0     C34303   3.074  10.934   9.769 -1.1022  0.5886 -0.0141
  255MOL0     C34304   3.072  11.079   9.803  0.1287 -0.3199 -0.1746
  255MOL0     C34305   2.925  11.113   9.835  0.3848 -0.6106 -0.1514
  255MOL0     C34306   2.892  11.089   9.987 -0.2418  0.4110  0.0403
  255MOL0     N34307   2.749  11.105  10.013 -0.0352 -0.0188  0.8331
  255MOL0     C34308   2.646  11.097   9.916 -0.0201  0.3987 -0.7049
  255MOL0     C34309   2.529  11.097   9.987 -0.0043 -0.7315 -0.0994
  255MOL0     C34310   2.391  11.095   9.938 -0.0651 -0.5310  0.1623
  255MOL0     C34311   2.341  10.950   9.954  0.2755 -0.8261  0.3362
  255MOL0     C34312   2.204  10.927   9.894 -0.1623  1.0458  0.2128
  255MOL0     C34313   2.159  10.779   9.891  0.1627 -0.2693 -0.3729
  255MOL0     O34314   2.013  10.755   9.902 -0.0057  0.3882 -0.9872
  255MOL0     C34315   1.940  10.740   9.783 -0.4692  0.2487 -0.8595
  255MOL0     C34316   1.809  10.782   9.817  0.1774 -0.7460 -0.2698
  255MOL0     C34317   1.715  10.777   9.713  0.4435 -0.5285 -0.4339
  255MOL0     C34318   1.749  10.712   9.587 -0.2776 -0.6232 -0.2175
  255MOL0     C34319   1.657  10.712   9.481 -0.8190  0.5436  0.9734
  255MOL0     O34320   1.532  10.769   9.509 -0.4634 -0.6956 -0.2480
  255MOL0     C34321   1.453  10.799   9.399 -0.3736 -0.1485  0.2474
  255MOL0     C34322   1.331  10.730   9.378 -0.8516 -0.7017 -0.8669
  255MOL0     C34323   1.242  10.763   9.272 -0.7624 -0.9796  1.2431
  255MOL0     C34324   1.285  10.856   9.177 -0.8262 -0.5862  0.5629
  255MOL0     O34325   1.232  10.892   9.062  0.0279  0.1676  0.2361
  255MOL0     C34326   1.117  10.814   9.024  0.4310  0.4142  0.3670
  255MOL0     C34327   1.094  10.832   8.872 -0.2551  0.5298  0.0960
  255MOL0     C34328   1.201  10.746   8.795  0.4904 -0.2648 -0.0467
  255MOL0     C34329   1.236  10.813   8.657 -0.3028  0.1452 -0.3647
  255MOL0     C34330   1.351  10.739   8.594 -0.3956 -1.0468  0.3162
  255MOL0     C34331   1.435  10.802   8.486 -0.0059 -0.1333 -0.6928
  255MOL0     C34332   1.544  10.700   8.424  0.2513 -1.3424 -0.2361
  255MOL0     C34333   1.635  10.648   8.529  0.1373 -0.2506 -0.7477
  255MOL0    Cl34334   1.724  10.789   8.594  0.0358  0.3651 -0.0898
  255MOL0     C34335   1.417  10.924   9.185 -0.4832  1.2715 -0.3942
  255MOL0     C34336   1.497  10.886   9.301  0.1325 -0.2498  0.1082
  255MOL0     O34337   1.690  10.663   9.376 -0.4883  0.3949  0.2024
  255MOL0     C34338   1.877  10.671   9.565 -0.7261  0.0999 -0.8086
  255MOL0     C34339   1.979  10.686   9.663  0.4904 -0.4067  0.2009
  255MOL0     N34340   2.564  11.080  10.121 -0.1754  0.7750 -0.9143
  255MOL0     N34341   2.691  11.097  10.134  0.1059  0.2992 -0.2534
  255MOL0     C34342   3.468  10.295   9.722  0.3873 -0.8277  0.3497
  255MOL0     C34343   3.498  10.171   9.760  0.7005  0.3037 -0.4645
  255MOL0     C34344   3.534   9.781   9.970 -0.8497 -0.1337 -1.1692
  255MOL0     C34345   3.553   9.782  10.112  0.0725  0.3296 -0.1168
  255MOL0     C34346   3.598   9.666  10.183  0.2889  0.7760 -0.7579
  255MOL0     C34347   3.627   9.554  10.116  0.2523  0.1498 -0.5409
  255MOL0     O34348   3.666   9.453  10.196 -0.2033 -0.1586  0.5963
  255MOL0     C34349   3.632   9.312  10.155 -0.5045  0.2308  0.7068
  255MOL0     C34350   3.730   9.231  10.242 -0.1303  0.4895 -0.2964
  255MOL0     C34351   3.711   9.230  10.390  0.4458  0.1037  0.4449
  255MOL0     C34352   3.839   9.234  10.462  0.1074  0.1875 -0.1090
  255MOL0     C34353   3.828   9.175  10.596 -0.2557 -1.0166 -0.3313
  255MOL0     C34354   3.828   9.125  10.713 -0.2671 -0.8308 -0.2916
  255MOL0     C34355   3.616   9.544   9.975  1.3644 -0.1457  0.2630
  255MOL0     C34356   3.565   9.654   9.903  0.3792 -0.1760 -0.3998
  255MOL0     C34357   3.555   9.640   9.753  0.2334  0.8065 -0.0561
  255MOL0     H34358   3.436  10.203  10.086  0.9606 -1.0185 -0.5260
  255MOL0     H34359   3.368  10.443  10.021 -1.6664 -0.4291  0.2420
  255MOL0     H34360   3.491  10.547   9.598 -0.9599  1.4796 -1.3493
  255MOL0     H34361   3.314  10.513   9.581  0.5637 -0.2056 -2.0722
  255MOL0     H34362   3.368  10.755   9.543  1.5624  1.4306  0.4047
  255MOL0     H34363   3.461  10.751   9.695  1.3197 -3.4754  0.3511
  255MOL0     H34364   3.230  10.706   9.805  0.5037 -0.2928  0.9758
  255MOL0     H34365   3.142  10.719   9.650 -1.4931  2.4776  0.5292
  255MOL0     H34366   3.287  10.933   9.813  0.3289  0.7923 -0.4773
  255MOL0     H34367   3.256  10.950   9.645  0.1378 -1.7881 -0.6914
  255MOL0     H34368   3.013  10.927   9.679 -0.1636  1.3128 -0.7270
  255MOL0     H34369   3.040  10.865   9.846  0.8835 -0.7991 -0.2859
  255MOL0     H34370   3.138  11.105   9.886  0.0564  0.4311 -0.3524
  255MOL0     H34371   3.111  11.130   9.715 -1.1306  0.2968 -0.3979
  255MOL0     H34372   2.863  11.062   9.761 -1.0389  1.7718 -0.7400
  255MOL0     H34373   2.901  11.218   9.813 -1.6316 -0.9079  0.4530
  255MOL0     H34374   2.920  10.986  10.012  0.2259  0.2774 -0.9826
  255MOL0     H34375   2.953  11.153  10.051 -0.6094  0.1583  0.6496
  255MOL0     H34376   2.635  11.109   9.808 -3.0949 -1.3810 -0.7073
  255MOL0     H34377   2.324  11.158   9.997 -0.0086  1.3175 -1.6412
  255MOL0     H34378   2.385  11.137   9.837 -2.1006  1.9317  1.1916
  255MOL0     H34379   2.412  10.876   9.915 -1.8104 -3.3514  0.9996
  255MOL0     H34380   2.322  10.930  10.060 -1.3657  2.4125  0.7789
  255MOL0     H34381   2.196  10.973   9.796  3.2660  0.6516 -0.3955
  255MOL0     H34382   2.125  10.979   9.950 -0.8970  2.8857 -2.3730
  255MOL0     H34383   2.211  10.733   9.975  1.4775  0.5013 -0.7394
  255MOL0     H34384   2.197  10.719   9.808 -1.2016 -1.7959  0.0615
  255MOL0     H34385   1.777  10.808   9.917  1.9618 -0.7522  0.3316
  255MOL0     H34386   1.611  10.806   9.724  0.3587  1.2552 -4.4528
  255MOL0     H34387   1.296  10.670   9.461  0.4392 -2.8953 -1.8193
  255MOL0     H34388   1.144  10.718   9.258 -1.1299 -0.4322  1.9571
  255MOL0     H34389   1.121  10.707   9.047  1.7926  0.2115 -0.7171
  255MOL0     H34390   1.031  10.850   9.083  0.5165 -2.5942  2.5481
  255MOL0     H34391   0.994  10.793   8.853 -0.5250  1.4336 -0.4011
  255MOL0     H34392   1.104  10.938   8.846 -1.4062  1.0545  1.6379
  255MOL0     H34393   1.284  10.718   8.860 -1.1342 -3.7906  0.7337
  255MOL0     H34394   1.147  10.653   8.774  1.4832 -0.4889 -1.7206
  255MOL0     H34395   1.262  10.919   8.667 -1.3648  0.3053  1.0726
  255MOL0     H34396   1.144  10.817   8.600  0.5070 -1.8783 -1.9204
  255MOL0     H34397   1.313  10.639   8.569 -0.2673 -0.6950 -1.4536
  255MOL0     H34398   1.424  10.715   8.672  1.2939 -1.3357 -1.2761
  255MOL0     H34399   1.368  10.846   8.412 -0.3745  2.2671  0.9759
  255MOL0     H34400   1.488  10.893   8.514  2.2290  0.1016 -4.8757
  255MOL0     H34401   1.597  10.746   8.341  1.1763 -3.6270 -1.0026
  255MOL0     H34402   1.480  10.618   8.390 -1.1316  0.0736 -1.1906
  255MOL0     H34403   1.585  10.597   8.612  1.2373  0.1393  0.1858
  255MOL0     H34404   1.716  10.587   8.488  3.2799  2.8253  0.3401
  255MOL0     H34405   1.457  10.987   9.107 -0.2553 -0.2649 -1.5669
  255MOL0     H34406   1.597  10.925   9.313 -0.2221  0.3379  1.3288
  255MOL0     H34407   1.910  10.619   9.476 -0.6374  1.7941 -1.7977
  255MOL0     H34408   2.079  10.657   9.631  1.3794  3.4826 -1.0969
  255MOL0     H34409   3.472  10.320   9.617  2.1665 -0.0257  0.5768
  255MOL0     H34410   3.530  10.100   9.684 -0.1868 -1.6774  0.9325
  255MOL0     H34411   3.519   9.869  10.168 -2.0809 -0.6137  0.1538
  255MOL0     H34412   3.598   9.666  10.292 -0.7680  2.5141 -0.7087
  255MOL0     H34413   3.663   9.301  10.051 -0.7407  2.9568  0.2676
  255MOL0     H34414   3.528   9.283  10.170 -1.3167  0.4518 -3.3544
  255MOL0     H34415   3.827   9.271  10.209 -0.6778  0.4829 -2.0576
  255MOL0     H34416   3.719   9.127  10.210  2.4390  0.0667 -0.0626
  255MOL0     H34417   3.648   9.145  10.414 -1.3317  0.9090 -1.1412
  255MOL0     H34418   3.653   9.317  10.421  1.8044  2.4739 -3.0464
  255MOL0     H34419   3.917   9.172  10.416  0.0017  1.1345 -1.6063
  255MOL0     H34420   3.887   9.332  10.464  1.5413 -0.3953 -2.1894
  255MOL0     H34421   3.817   9.085  10.812  0.6762 -0.0928  0.1250
  255MOL0     H34422   3.646   9.459   9.915  0.0227  2.2531 -4.2740
  255MOL0     H34423   3.619   9.555   9.729 -0.1575 -0.4139  2.7696
  255MOL0     H34424   3.456   9.616   9.714  0.0811 -0.4238  1.0012
  255MOL0     H34425   3.590   9.730   9.701  4.2300  0.1251  1.0902
  256MOL0     O34426   8.349   7.181   7.223 -0.1792  0.1090  0.5328
  256MOL0     C34427   8.405   7.161   7.114 -0.0275  0.6941  0.1950
  256MOL0     O34428   8.474   7.049   7.076 -0.2926 -0.4349  0.2056
  256MOL0     C34429   8.490   6.932   7.147 -0.0857  0.4945 -0.7918
  256MOL0     C34430   8.480   6.814   7.068 -0.3235  0.2615 -0.0816
  256MOL0     C34431   8.507   6.688   7.128  0.3091 -0.1093  0.2915
  256MOL0     C34432   8.545   6.680   7.258  0.4758  1.4662 -0.0067
  256MOL0     O34433   8.563   6.553   7.311 -0.1649  0.1863 -0.6476
  256MOL0     C34434   8.662   6.469   7.254  0.6023 -0.6291  0.0223
  256MOL0     C34435   8.640   6.331   7.322  0.1636 -0.0070 -0.5283
  256MOL0     C34436   8.759   6.230   7.300 -0.3782  0.1084 -0.0421
  256MOL0     C34437   8.766   6.122   7.415  0.1456 -1.2401  0.3783
  256MOL0     C34438   8.900   6.052   7.440 -0.0242 -0.4191 -0.1162
  256MOL0     C34439   8.999   6.160   7.487  0.6278  0.3821 -0.1804
  256MOL0     C34440   9.137   6.105   7.530  0.5936 -0.4825  0.3700
  256MOL0     C34441   9.209   6.013   7.442  0.1425  0.2343 -0.8259
  256MOL0     N34442   9.231   6.070   7.307  0.1285 -0.3852  0.1738
  256MOL0     C34443   9.199   6.006   7.193 -0.1943 -0.1562 -0.4678
  256MOL0     C34444   9.251   6.073   7.090  0.6452 -0.5635 -0.8451
  256MOL0     C34445   9.247   6.029   6.953 -0.2550 -0.7043  0.1767
  256MOL0     C34446   9.154   6.129   6.875 -0.3387  0.0444 -0.2585
  256MOL0     C34447   8.999   6.102   6.918 -1.0592 -0.6520 -0.8562
  256MOL0     C34448   8.906   6.093   6.800  1.1198 -0.2153 -0.1102
  256MOL0     O34449   8.769   6.043   6.833  0.2394 -0.5960 -0.1148
  256MOL0     C34450   8.670   6.143   6.837  0.4642 -0.9918 -0.3888
  256MOL0     C34451   8.543   6.116   6.787 -0.1616  0.0806 -0.5602
  256MOL0     C34452   8.444   6.217   6.767 -0.2270  1.1046 -0.2244
  256MOL0     C34453   8.463   6.354   6.799 -0.5949  1.1631  0.4742
  256MOL0     C34454   8.371   6.466   6.780  0.2779 -0.3872  1.3789
  256MOL0     O34455   8.249   6.444   6.730  0.8631  0.5028 -0.1396
  256MOL0     C34456   8.165   6.552   6.726  0.3062  0.4131  0.2825
  256MOL0     C34457   8.137   6.614   6.595  0.0156  0.6946 -0.1010
  256MOL0     C34458   8.042   6.712   6.585 -0.5486  0.2770 -0.4519
  256MOL0     C34459   7.983   6.762   6.700  1.1566  0.0247 -0.3525
  256MOL0     O34460   7.897   6.870   6.680  0.7031  0.0469 -0.1148
  256MOL0     C34461   7.923   6.987   6.753 -0.5269 -0.7721  1.0378
  256MOL0     C34462   8.054   7.051   6.714  0.3092  0.0186 -0.3925
  256MOL0     C34463   8.067   7.195   6.771  0.3033 -0.6124 -0.9780
  256MOL0     C34464   8.022   7.305   6.669  0.3294 -0.9623  0.4273
  256MOL0     C34465   7.998   7.450   6.728  0.4136 -0.6478  0.6064
  256MOL0     C34466   7.944   7.552   6.620  0.5859  0.0923 -0.1179
  256MOL0     C34467   7.943   7.688   6.694 -0.6618 -0.2068 -0.6631
  256MOL0     C34468   7.865   7.801   6.627 -0.0578 -0.0942 -0.4389
  256MOL0    Cl34469   7.702   7.761   6.582 -0.1506 -0.5979 -0.2701
  256MOL0     C34470   8.010   6.702   6.820 -0.2235 -1.2471 -0.4137
  256MOL0     C34471   8.104   6.602   6.840  0.4109 -0.2600  0.5429
  256MOL0     O34472   8.412   6.577   6.813  0.3425 -0.0610  0.2615
  256MOL0     C34473   8.595   6.373   6.847  0.2666 -0.3892  0.2187
  256MOL0     C34474   8.691   6.275   6.862  0.3301  0.2624 -0.5045
  256MOL0     N34475   9.333   6.177   7.147 -0.8498  0.0523  0.2826
  256MOL0     N34476   9.316   6.173   7.277 -0.2049 -0.4090 -0.0526
  256MOL0     C34477   8.563   6.797   7.338 -0.5764  0.3400 -0.2285
  256MOL0     C34478   8.534   6.923   7.281  0.4271  0.5932 -0.8289
  256MOL0     C34479   8.390   7.264   7.011  0.5135 -0.0434  0.7311
  256MOL0     C34480   8.444   7.232   6.886 -0.6570 -0.7442  0.3792
  256MOL0     C34481   8.461   7.329   6.785 -0.4342 -0.8776 -0.7029
  256MOL0     C34482   8.433   7.462   6.800  0.2528 -0.5280  0.7045
  256MOL0     O34483   8.448   7.551   6.692  1.4355  0.6283 -0.9147
  256MOL0     C34484   8.435   7.690   6.708  0.1544 -0.8194  0.3212
  256MOL0     C34485   8.426   7.759   6.572  0.1699 -0.6028  0.6108
  256MOL0     C34486   8.291   7.722   6.510  0.2355 -0.6551  1.1664
  256MOL0     C34487   8.269   7.797   6.378  0.3357 -0.6026 -0.6311
  256MOL0     C34488   8.141   7.747   6.325  0.0108  0.7987 -0.4969
  256MOL0     C34489   8.029   7.739   6.289  0.8384 -0.4289  0.3569
  256MOL0     C34490   8.349   7.493   6.916  0.3218  0.4297  0.2386
  256MOL0     C34491   8.333   7.399   7.018  0.3659  0.2388  0.4139
  256MOL0     C34492   8.250   7.449   7.131  0.1868 -0.1947 -0.0477
  256MOL0     H34493   8.444   6.822   6.966 -0.6730  1.8598  0.1288
  256MOL0     H34494   8.486   6.599   7.069 -0.7845 -0.6094  1.3870
  256MOL0     H34495   8.642   6.459   7.147 -2.5018  1.9781  0.2305
  256MOL0     H34496   8.758   6.512   7.285 -0.0875  2.2103 -1.4721
  256MOL0     H34497   8.553   6.274   7.289  1.4986 -1.2892 -2.0056
  256MOL0     H34498   8.632   6.351   7.429 -3.3319 -0.8339 -0.5125
  256MOL0     H34499   8.852   6.287   7.293 -0.7065  0.8549  1.2108
  256MOL0     H34500   8.747   6.173   7.208  2.0715 -2.2118  0.9691
  256MOL0     H34501   8.745   6.172   7.510 -1.3439 -0.9352 -0.0970
  256MOL0     H34502   8.687   6.052   7.387 -2.6357  0.8370  2.5503
  256MOL0     H34503   8.901   5.964   7.506  0.5540 -2.1737 -2.3463
  256MOL0     H34504   8.928   6.005   7.346 -0.3698  0.5595 -0.7237
  256MOL0     H34505   9.009   6.236   7.409 -1.8858  1.1537  0.1560
  256MOL0     H34506   8.961   6.211   7.576 -1.4838 -1.0938 -0.1647
  256MOL0     H34507   9.128   6.065   7.631 -1.8230 -0.0534  0.3989
  256MOL0     H34508   9.197   6.196   7.541 -2.5815  1.6823  1.4710
  256MOL0     H34509   9.303   5.986   7.492 -0.2188  0.5648  0.0674
  256MOL0     H34510   9.149   5.922   7.445 -0.9343  0.9461  1.0908
  256MOL0     H34511   9.148   5.910   7.198  0.1968 -0.2847  2.0073
  256MOL0     H34512   9.352   6.028   6.922 -0.6333 -2.1083 -1.2105
  256MOL0     H34513   9.209   5.927   6.941 -4.1193  0.8281 -2.8418
  256MOL0     H34514   9.174   6.236   6.886 -1.3406  0.1716  0.4686
  256MOL0     H34515   9.156   6.103   6.769 -3.6182 -1.1087 -0.1288
  256MOL0     H34516   8.972   6.186   6.983 -1.3314 -2.8446  2.0692
  256MOL0     H34517   8.996   6.011   6.979  0.5239  0.0059  0.2756
  256MOL0     H34518   8.939   6.015   6.730 -1.1570 -1.1289 -0.2458
  256MOL0     H34519   8.904   6.184   6.740 -3.0195 -1.2433 -1.8421
  256MOL0     H34520   8.524   6.011   6.767  4.9693 -1.3484  0.7861
  256MOL0     H34521   8.344   6.186   6.738  0.0019 -1.6868  1.5831
  256MOL0     H34522   8.195   6.587   6.508  1.7504  4.3389 -0.2573
  256MOL0     H34523   8.022   6.753   6.486 -0.3558 -0.3260 -0.7411
  256MOL0     H34524   7.845   7.060   6.732  1.5588  1.0250 -0.9483
  256MOL0     H34525   7.914   6.958   6.858  1.2829 -2.7031  0.7355
  256MOL0     H34526   8.142   7.006   6.760  1.5980  3.3283  0.6688
  256MOL0     H34527   8.072   7.045   6.606  0.3894 -4.3337 -0.3363
  256MOL0     H34528   8.002   7.215   6.857 -0.0880  0.2056 -1.4491
  256MOL0     H34529   8.171   7.224   6.788  0.3537 -2.4118  2.7286
  256MOL0     H34530   7.926   7.276   6.625  0.2287  1.3187 -1.0381
  256MOL0     H34531   8.091   7.317   6.585 -1.9164  2.6854 -1.1389
  256MOL0     H34532   8.092   7.492   6.763 -0.1536  3.5993 -2.2158
  256MOL0     H34533   7.913   7.438   6.796 -1.1071  1.4351 -0.7866
  256MOL0     H34534   8.006   7.563   6.531 -2.3862  3.2178 -2.0475
  256MOL0     H34535   7.844   7.535   6.577  1.4448  2.1632 -3.2559
  256MOL0     H34536   8.041   7.729   6.720  0.0563 -1.1945 -1.7158
  256MOL0     H34537   7.891   7.660   6.786 -1.3141 -2.3016 -1.6059
  256MOL0     H34538   7.860   7.889   6.693 -0.1776 -1.6281  1.7308
  256MOL0     H34539   7.922   7.828   6.538 -0.1491  0.1812 -0.4137
  256MOL0     H34540   7.970   6.751   6.908  2.8659  0.1008  0.3715
  256MOL0     H34541   8.128   6.561   6.937  4.2720  1.6619  0.5681
  256MOL0     H34542   8.631   6.474   6.867  0.4267 -0.7324  1.7400
  256MOL0     H34543   8.786   6.320   6.889 -1.0689  1.3549  3.1842
  256MOL0     H34544   8.596   6.793   7.441  0.3294  0.4755 -0.5081
  256MOL0     H34545   8.549   7.013   7.340  0.4800 -0.2136  0.4399
  256MOL0     H34546   8.483   7.133   6.865 -1.2359 -1.4121  2.2550
  256MOL0     H34547   8.501   7.308   6.686 -1.0831 -2.0173 -0.7353
  256MOL0     H34548   8.515   7.735   6.769 -0.3432 -1.6711  1.6398
  256MOL0     H34549   8.342   7.721   6.756  0.1003  0.2193 -0.4053
  256MOL0     H34550   8.496   7.722   6.497 -0.6304  0.1497 -0.5508
  256MOL0     H34551   8.448   7.866   6.583 -0.6086 -0.4893  1.2000
  256MOL0     H34552   8.212   7.751   6.580 -0.4183 -0.5661  0.3955
  256MOL0     H34553   8.279   7.615   6.487  3.0045 -0.8242  0.0852
  256MOL0     H34554   8.281   7.905   6.390 -0.6530 -0.5706  0.2259
  256MOL0     H34555   8.338   7.778   6.295 -0.0413  2.3797 -1.7805
  256MOL0     H34556   7.929   7.735   6.250  1.3789  0.6800 -1.2479
  256MOL0     H34557   8.313   7.595   6.923  0.4100  0.5653 -1.0533
  256MOL0     H34558   8.183   7.527   7.095 -0.3316 -0.6741 -0.1433
  256MOL0     H34559   8.177   7.374   7.164  0.7136  1.1568  5.0303
  256MOL0     H34560   8.307   7.493   7.213  1.4924  0.0827 -1.0817
  257MOL0     O34561  10.335   9.394   0.466 -0.3074  0.4947  0.2618
  257MOL0     C34562  10.257   9.413   0.371 -0.4904 -0.0731 -1.6538
  257MOL0     O34563  10.286   9.484   0.259  0.5038 -0.1844 -0.1372
  257MOL0     C34564  10.416   9.515   0.229 -0.2454 -0.7297 -0.1690
  257MOL0     C34565  10.502   9.425   0.177 -1.3174  0.0504 -0.2562
  257MOL0     C34566  10.638   9.458   0.135 -0.8836 -0.3206  0.1871
  257MOL0     C34567  10.677   9.591   0.156  0.0297  0.4018  0.1415
  257MOL0     O34568  10.802   9.629   0.133 -0.7048  0.6124 -0.4711
  257MOL0     C34569  10.817   9.662  -0.006  0.2167 -0.0908  0.2544
  257MOL0     C34570  10.959   9.645  -0.044 -0.6158  0.3465  0.6476
  257MOL0     C34571  10.976   9.656  -0.196 -0.2418 -0.4017 -0.3152
  257MOL0     C34572  11.122   9.645  -0.238  0.1871  1.3097 -0.3347
  257MOL0     C34573  11.203   9.772  -0.232  0.4051 -0.1304 -0.3604
  257MOL0     C34574  11.348   9.736  -0.271 -0.1551  0.4221  0.4959
  257MOL0     C34575  11.427   9.850  -0.305 -0.4128 -0.4308 -0.5013
  257MOL0     C34576  11.405   9.915  -0.445 -1.0169  0.4607  0.3877
  257MOL0     N34577  11.501  10.028  -0.459  0.0493  0.4054 -0.1920
  257MOL0     C34578  11.637  10.029  -0.461  0.3064  0.8166  0.5811
  257MOL0     C34579  11.680  10.159  -0.489  1.6844  0.4496 -0.2854
  257MOL0     C34580  11.822  10.200  -0.505  0.5064 -0.4906  0.3788
  257MOL0     C34581  11.920  10.093  -0.472 -0.1946 -0.7635  0.2398
  257MOL0     C34582  12.068  10.143  -0.504 -0.0742  0.8142 -0.3853
  257MOL0     C34583  12.161  10.018  -0.494 -0.5192 -0.1679  0.9620
  257MOL0     O34584  12.286  10.071  -0.547  0.3184 -0.4254  0.0233
  257MOL0     C34585  12.399   9.994  -0.552  0.4391  0.1450  0.7469
  257MOL0     C34586  12.493  10.025  -0.648 -0.1246  1.0005 -0.6567
  257MOL0     C34587  12.616   9.955  -0.673  0.5202 -0.3766 -0.4320
  257MOL0     C34588  12.659   9.863  -0.582  0.1784 -0.1692 -0.0812
  257MOL0     C34589  12.779   9.787  -0.602 -0.1840  0.5282 -0.8853
  257MOL0     O34590  12.867   9.824  -0.701 -0.1601  0.2138 -0.0744
  257MOL0     C34591  12.993   9.759  -0.730 -0.3114 -0.4122  0.4066
  257MOL0     C34592  13.062   9.800  -0.850  0.0764 -0.3020  0.2071
  257MOL0     C34593  13.174   9.742  -0.900  0.6634 -0.8698  0.2012
  257MOL0     C34594  13.225   9.637  -0.831 -0.1798 -0.0340  0.0020
  257MOL0     O34595  13.338   9.586  -0.891  0.1873 -0.0910  1.0953
  257MOL0     C34596  13.377   9.460  -0.833 -0.4049  0.0225  0.5855
  257MOL0     C34597  13.485   9.403  -0.926  0.0689  0.3922  0.8011
  257MOL0     C34598  13.576   9.304  -0.848 -0.4111 -0.0872  0.0785
  257MOL0     C34599  13.669   9.217  -0.926  0.2252 -0.2008  0.2751
  257MOL0     C34600  13.631   9.057  -0.927 -0.6115 -0.4400 -0.8143
  257MOL0     C34601  13.514   9.026  -1.016 -0.0727 -0.0091  0.0865
  257MOL0     C34602  13.499   8.875  -1.048 -0.5712 -0.9242  0.5697
  257MOL0     C34603  13.399   8.851  -1.158  0.2004 -0.2729 -0.3688
  257MOL0    Cl34604  13.413   8.687  -1.223 -0.3143 -0.4025 -0.0616
  257MOL0     C34605  13.176   9.600  -0.699  0.3634 -0.2994  0.5184
  257MOL0     C34606  13.058   9.655  -0.653  0.0886  1.0984 -0.2541
  257MOL0     O34607  12.802   9.712  -0.511 -0.1970  0.7511 -0.3510
  257MOL0     C34608  12.572   9.840  -0.470 -0.1090  0.6161 -0.3860
  257MOL0     C34609  12.443   9.902  -0.464  0.6723  0.5550  0.1075
  257MOL0     N34610  11.560  10.233  -0.493  0.2083 -0.9394  0.1574
  257MOL0     N34611  11.458  10.155  -0.474  0.1012 -0.9828  0.7086
  257MOL0     C34612  10.586   9.695   0.192  0.4644  0.4160 -0.6768
  257MOL0     C34613  10.462   9.650   0.234 -0.0018 -0.3123  0.3928
  257MOL0     C34614  10.124   9.355   0.380 -0.0001 -0.4908  0.0662
  257MOL0     C34615  10.022   9.428   0.436 -0.3950 -0.5301 -0.8900
  257MOL0     C34616   9.889   9.380   0.441  0.3340  0.1075  0.4055
  257MOL0     C34617   9.868   9.254   0.376 -0.4312 -0.0453  1.0811
  257MOL0     O34618   9.733   9.225   0.362 -0.5797  0.0021  0.0196
  257MOL0     C34619   9.705   9.082   0.355  0.4350  0.2031 -0.3370
  257MOL0     C34620   9.558   9.047   0.407  0.3213  0.2302 -0.7344
  257MOL0     C34621   9.530   8.896   0.435  0.2484 -0.7189  0.7574
  257MOL0     C34622   9.382   8.875   0.487  0.6445 -0.2618 -0.3368
  257MOL0     C34623   9.361   8.956   0.611 -0.9144  0.2519 -0.8178
  257MOL0     C34624   9.357   9.042   0.701 -0.6098  0.4518 -0.3780
  257MOL0     C34625   9.975   9.180   0.325  0.4470 -0.2150  0.0363
  257MOL0     C34626  10.103   9.230   0.326  0.1879  0.4563 -1.3172
  257MOL0     C34627  10.209   9.145   0.283 -0.4041 -0.8169  0.3293
  257MOL0     H34628  10.459   9.325   0.171 -2.0950  0.2702  1.0382
  257MOL0     H34629  10.702   9.373   0.113 -3.4027 -2.0950 -0.6562
  257MOL0     H34630  10.749   9.615  -0.078 -1.4846  2.8452 -0.2100
  257MOL0     H34631  10.796   9.769  -0.017  0.2799  0.1104  1.8842
  257MOL0     H34632  11.001   9.553  -0.002  0.8964  1.2908  1.3210
  257MOL0     H34633  11.018   9.726   0.002  1.0947  0.5113 -1.6249
  257MOL0     H34634  10.929   9.752  -0.219 -0.1792 -0.7291 -1.9056
  257MOL0     H34635  10.920   9.576  -0.244  0.3489  0.4512 -2.5187
  257MOL0     H34636  11.165   9.572  -0.168  0.0389  0.0730 -1.4775
  257MOL0     H34637  11.135   9.590  -0.332 -1.7678 -0.2281  0.2058
  257MOL0     H34638  11.167   9.835  -0.313 -0.4304 -0.1011  0.0285
  257MOL0     H34639  11.190   9.825  -0.137  1.0012  0.8233 -0.7957
  257MOL0     H34640  11.394   9.682  -0.187 -1.0908 -1.2739 -0.0592
  257MOL0     H34641  11.346   9.668  -0.356  1.9690  0.2014  0.5573
  257MOL0     H34642  11.534   9.824  -0.308 -0.1976  0.3578  0.0223
  257MOL0     H34643  11.411   9.929  -0.232 -0.7021 -0.2020 -0.8094
  257MOL0     H34644  11.413   9.842  -0.525  3.6837  0.1530  0.8549
  257MOL0     H34645  11.310   9.969  -0.438 -0.6221  1.4024 -1.1443
  257MOL0     H34646  11.690   9.934  -0.451  0.4115  0.8829  0.6633
  257MOL0     H34647  11.835  10.225  -0.611 -1.3412  0.5625  0.3670
  257MOL0     H34648  11.842  10.291  -0.448 -2.2317 -0.3516  1.2460
  257MOL0     H34649  11.928  10.071  -0.365 -1.5714  0.3595  0.6081
  257MOL0     H34650  11.886  10.001  -0.522 -1.1329 -0.6368  0.6132
  257MOL0     H34651  12.102  10.210  -0.425 -1.4313 -1.3292  2.1894
  257MOL0     H34652  12.064  10.164  -0.611 -1.0832 -2.0721 -0.9894
  257MOL0     H34653  12.134   9.936  -0.561  1.4716 -1.3030  1.4606
  257MOL0     H34654  12.174   9.990  -0.389  1.2923 -0.9198  0.5770
  257MOL0     H34655  12.485  10.099  -0.727  1.1723  2.8253  0.8321
  257MOL0     H34656  12.666   9.981  -0.765 -2.5445  0.0163 -2.1434
  257MOL0     H34657  13.018   9.884  -0.904  1.2225  0.6675  0.7416
  257MOL0     H34658  13.242   9.779  -0.975  1.0722  0.2000  1.0718
  257MOL0     H34659  13.410   9.482  -0.730 -0.1190 -2.2026  1.0163
  257MOL0     H34660  13.287   9.399  -0.838 -0.8920  0.3762  3.2917
  257MOL0     H34661  13.437   9.358  -1.014  2.0044 -1.0078  0.3927
  257MOL0     H34662  13.554   9.475  -0.970  0.2606 -0.8276 -1.0260
  257MOL0     H34663  13.614   9.348  -0.755 -2.8246  2.6794 -0.1052
  257MOL0     H34664  13.492   9.238  -0.825 -0.5946 -0.3719 -1.3372
  257MOL0     H34665  13.767   9.219  -0.878  0.8185 -0.6790 -0.8792
  257MOL0     H34666  13.673   9.259  -1.027  2.5441 -0.8322  0.0436
  257MOL0     H34667  13.615   9.014  -0.827 -1.5920  1.6807  0.0027
  257MOL0     H34668  13.725   9.012  -0.959 -0.1988 -1.7956  1.9626
  257MOL0     H34669  13.423   9.062  -0.967  0.1751  0.1168  0.4555
  257MOL0     H34670  13.523   9.084  -1.108  1.5513  1.3134  1.0206
  257MOL0     H34671  13.485   8.823  -0.953  0.5408 -0.0538  1.2405
  257MOL0     H34672  13.602   8.851  -1.076 -0.6706 -1.0144  0.2784
  257MOL0     H34673  13.297   8.862  -1.121  0.6955 -1.6632  1.5511
  257MOL0     H34674  13.441   8.909  -1.241  3.5458 -3.9948 -1.6783
  257MOL0     H34675  13.225   9.520  -0.644 -0.3205 -2.0615 -1.3026
  257MOL0     H34676  13.022   9.603  -0.565  1.3841  0.4940 -0.0541
  257MOL0     H34677  12.608   9.774  -0.391  2.0053  1.5720 -0.4679
  257MOL0     H34678  12.379   9.881  -0.378 -1.4655  0.4203 -1.4193
  257MOL0     H34679  10.615   9.799   0.182  5.9939 -0.7826 -0.5765
  257MOL0     H34680  10.394   9.725   0.273  1.1784  1.5902 -1.0167
  257MOL0     H34681  10.048   9.525   0.476 -0.2475  0.9832 -4.2877
  257MOL0     H34682   9.808   9.438   0.484  1.7633  0.1987  3.2190
  257MOL0     H34683   9.771   9.036   0.429 -0.1059  4.2494  3.0108
  257MOL0     H34684   9.719   9.061   0.248 -1.1043 -0.9791 -0.3473
  257MOL0     H34685   9.493   9.090   0.331  1.9293  1.1204 -1.6590
  257MOL0     H34686   9.544   9.106   0.499 -1.5072  0.7034 -1.2708
  257MOL0     H34687   9.607   8.858   0.502  2.0536 -0.6449 -1.1835
  257MOL0     H34688   9.545   8.848   0.338  0.0324  0.7111 -0.0041
  257MOL0     H34689   9.312   8.906   0.409  3.4963  4.6609 -1.3465
  257MOL0     H34690   9.359   8.770   0.509  0.9510 -0.2101  0.2242
  257MOL0     H34691   9.363   9.124   0.769 -1.5644 -0.2026  0.5418
  257MOL0     H34692   9.962   9.073   0.307  1.9958 -0.4382  0.1081
  257MOL0     H34693  10.291   9.127   0.352 -0.8456  0.4802  1.2407
  257MOL0     H34694  10.172   9.047   0.251 -2.9462  0.3341 -0.5392
  257MOL0     H34695  10.249   9.200   0.197  0.6001 -2.8307 -0.5658
  258MOL0     O34696  10.279   6.877   7.102  0.0646 -0.0940 -0.2334
  258MOL0     C34697  10.318   6.953   7.012  0.9413  0.7381 -0.4493
  258MOL0     O34698  10.337   7.087   7.024 -0.0846 -0.8591 -0.4456
  258MOL0     C34699  10.357   7.149   7.143  0.3061 -0.9872  0.1515
  258MOL0     C34700  10.278   7.131   7.260 -0.6577  1.1749 -0.0668
  258MOL0     C34701  10.294   7.205   7.373  0.5848 -0.2677 -0.1527
  258MOL0     C34702  10.388   7.308   7.379  0.0759  0.3042  0.9338
  258MOL0     O34703  10.411   7.378   7.487 -0.4630 -0.2761  0.0387
  258MOL0     C34704  10.304   7.399   7.576 -0.6209  0.8470 -0.3428
  258MOL0     C34705  10.348   7.531   7.629  1.0268 -0.4422 -0.7431
  258MOL0     C34706  10.221   7.610   7.657  0.3356 -0.2915  0.3314
  258MOL0     C34707  10.239   7.763   7.682 -0.2427  0.3260  0.3703
  258MOL0     C34708  10.273   7.804   7.824  0.3692 -0.6967 -0.2293
  258MOL0     C34709  10.237   7.950   7.855 -0.2144 -0.7424 -0.2046
  258MOL0     C34710  10.238   7.991   8.004  0.4966 -0.1531  0.0233
  258MOL0     C34711  10.383   8.022   8.056  0.3948  0.6814  1.0793
  258MOL0     N34712  10.362   8.044   8.197  0.6343 -0.1824  0.6888
  258MOL0     C34713  10.351   7.951   8.298 -0.2276 -0.6797  0.1025
  258MOL0     C34714  10.349   8.016   8.415 -0.2941  0.0200 -0.4087
  258MOL0     C34715  10.366   7.962   8.549 -0.8100 -0.2535  0.5977
  258MOL0     C34716  10.501   7.925   8.587 -0.4958  0.5937 -0.2925
  258MOL0     C34717  10.576   8.054   8.634 -0.4866 -0.5258 -0.0410
  258MOL0     C34718  10.707   8.018   8.714  0.4522  0.1537  0.2513
  258MOL0     O34719  10.740   8.144   8.774  0.1742  0.0090  0.4753
  258MOL0     C34720  10.865   8.151   8.835 -0.4657  0.8443 -0.0749
  258MOL0     C34721  10.908   8.279   8.865 -0.1344 -0.6694 -1.3235
  258MOL0     C34722  11.029   8.295   8.940  0.7342  1.1501  0.0319
  258MOL0     C34723  11.105   8.188   8.981  0.3795  0.2546 -0.2073
  258MOL0     C34724  11.245   8.208   9.032 -0.6790 -0.1418  0.1285
  258MOL0     O34725  11.294   8.330   9.038  0.4498 -0.7934  0.5273
  258MOL0     C34726  11.415   8.353   9.106  0.3897  0.1936 -0.5874
  258MOL0     C34727  11.406   8.396   9.243 -0.1233 -1.2689 -0.8015
  258MOL0     C34728  11.531   8.422   9.309 -0.0938  1.6128  0.2239
  258MOL0     C34729  11.649   8.403   9.251 -0.2608  0.3632  0.0302
  258MOL0     O34730  11.761   8.433   9.321  0.2782 -1.3246 -0.8039
  258MOL0     C34731  11.768   8.393   9.458 -0.5108  0.4338 -0.3335
  258MOL0     C34732  11.915   8.414   9.504 -0.3486 -0.4938 -0.2211
  258MOL0     C34733  11.934   8.550   9.546 -1.0370  0.2628 -0.2008
  258MOL0     C34734  11.888   8.577   9.694 -0.8017  0.1624  0.1885
  258MOL0     C34735  11.897   8.726   9.726 -0.0038 -0.0218 -0.7603
  258MOL0     C34736  12.032   8.789   9.761  0.1554 -0.1049 -0.0150
  258MOL0     C34737  12.116   8.717   9.876  0.2293  0.0661 -0.1274
  258MOL0     C34738  12.210   8.817   9.959 -0.6182  0.1767  0.8443
  258MOL0    Cl34739  12.340   8.882   9.848  0.1133 -0.5943 -0.3257
  258MOL0     C34740  11.653   8.354   9.117 -0.2567 -0.0310 -0.4849
  258MOL0     C34741  11.539   8.337   9.042 -0.6842  0.2734 -0.7415
  258MOL0     O34742  11.308   8.110   9.063  0.4293  0.4743  0.5752
  258MOL0     C34743  11.060   8.062   8.948 -0.1270  0.7489  0.2544
  258MOL0     C34744  10.939   8.044   8.882 -0.5629  0.3196 -0.1362
  258MOL0     N34745  10.321   8.147   8.385  0.5197  0.4037  0.3302
  258MOL0     N34746  10.321   8.158   8.256 -1.0554 -0.0044 -0.6446
  258MOL0     C34747  10.446   7.346   7.260 -1.4433  0.0037  0.6148
  258MOL0     C34748  10.434   7.266   7.142 -0.2785 -0.1048 -0.7000
  258MOL0     C34749  10.320   6.906   6.876 -0.3143  0.5399  0.1165
  258MOL0     C34750  10.218   6.940   6.792  0.2622 -0.3233  0.2569
  258MOL0     C34751  10.198   6.878   6.669 -0.2232  0.7613 -0.9041
  258MOL0     C34752  10.289   6.777   6.624 -0.4322  0.3634 -0.0033
  258MOL0     O34753  10.280   6.721   6.497  0.6534  0.1279  0.6092
  258MOL0     C34754  10.148   6.671   6.458 -0.3757 -0.5245  0.8564
  258MOL0     C34755  10.097   6.780   6.367  0.6775  0.1533  0.1935
  258MOL0     C34756   9.975   6.744   6.289  0.1227  1.0136  0.7465
  258MOL0     C34757   9.845   6.735   6.373  0.2203  0.3058 -0.2449
  258MOL0     C34758   9.844   6.600   6.431  0.3837 -0.2555 -0.0850
  258MOL0     C34759   9.834   6.489   6.480  0.0488 -0.7760  0.6742
  258MOL0     C34760  10.386   6.738   6.707  0.4752 -1.1626 -0.0845
  258MOL0     C34761  10.405   6.793   6.838 -0.6468 -0.3703  0.2974
  258MOL0     C34762  10.519   6.738   6.921  0.3340  0.7451  0.4315
  258MOL0     H34763  10.204   7.051   7.260  1.0585 -0.4958  0.2078
  258MOL0     H34764  10.244   7.160   7.458 -1.1330 -0.5358 -1.2734
  258MOL0     H34765  10.216   7.404   7.511 -0.8389  0.3658 -0.0816
  258MOL0     H34766  10.278   7.320   7.646  0.9842 -0.1803 -0.8396
  258MOL0     H34767  10.403   7.587   7.554  0.6843 -3.8285 -3.7817
  258MOL0     H34768  10.407   7.519   7.720 -1.0275 -1.6624  0.5166
  258MOL0     H34769  10.188   7.563   7.750  0.7205  1.6265  1.4934
  258MOL0     H34770  10.145   7.593   7.580  0.8413 -0.0525 -0.2310
  258MOL0     H34771  10.322   7.803   7.623  0.3679  0.8290  1.5186
  258MOL0     H34772  10.147   7.811   7.650 -0.1937  1.2018  1.4951
  258MOL0     H34773  10.212   7.757   7.901 -0.4179  3.2919  1.8760
  258MOL0     H34774  10.377   7.779   7.847  0.4133  0.1612  0.5568
  258MOL0     H34775  10.297   8.019   7.795 -0.4153  1.0949  1.6092
  258MOL0     H34776  10.136   7.971   7.819 -0.6414  0.1272  1.4148
  258MOL0     H34777  10.198   7.914   8.070 -1.0003  1.5056  1.1542
  258MOL0     H34778  10.184   8.086   8.011  3.2778  1.6226 -0.6657
  258MOL0     H34779  10.447   7.935   8.037 -0.1770  0.7633 -1.6929
  258MOL0     H34780  10.428   8.108   8.005 -0.7723  1.2032  0.8872
  258MOL0     H34781  10.372   7.844   8.292  1.2184 -0.6401  2.9237
  258MOL0     H34782  10.324   8.035   8.620 -1.0670  1.1883 -0.9871
  258MOL0     H34783  10.308   7.869   8.557 -0.2788 -0.5852  0.6017
  258MOL0     H34784  10.500   7.847   8.664 -1.5655  0.9207  0.0581
  258MOL0     H34785  10.551   7.878   8.502  0.8425  2.0500 -0.3506
  258MOL0     H34786  10.501   8.114   8.685 -0.8079  0.1837 -1.3002
  258MOL0     H34787  10.598   8.125   8.554  0.6077  0.0227  0.7234
  258MOL0     H34788  10.787   7.972   8.655  0.1550  2.7699 -2.4338
  258MOL0     H34789  10.671   7.956   8.797 -3.8724 -2.2224 -2.9779
  258MOL0     H34790  10.847   8.367   8.848  0.8568 -0.4863 -4.6048
  258MOL0     H34791  11.038   8.400   8.965 -0.4993  1.2810 -0.0125
  258MOL0     H34792  11.304   8.402   9.278 -0.4553  2.6784 -1.9703
  258MOL0     H34793  11.518   8.439   9.415 -0.5408  0.2009  0.4122
  258MOL0     H34794  11.709   8.460   9.521  4.5142  3.9386  1.2567
  258MOL0     H34795  11.729   8.291   9.466  3.3359 -1.2420 -0.7119
  258MOL0     H34796  11.937   8.337   9.579 -0.7366 -3.5743 -3.0103
  258MOL0     H34797  11.982   8.396   9.420  2.2736  0.4500  1.5542
  258MOL0     H34798  12.043   8.562   9.541 -0.7290 -2.3057 -3.4907
  258MOL0     H34799  11.893   8.614   9.467  1.5814  1.1965 -0.9224
  258MOL0     H34800  11.935   8.521   9.776 -2.2195 -0.5234  0.5573
  258MOL0     H34801  11.786   8.540   9.687 -1.2495  1.6960 -2.4171
  258MOL0     H34802  11.834   8.740   9.814  2.6074 -0.1299  1.2304
  258MOL0     H34803  11.839   8.787   9.656  1.2679  1.2019 -0.8011
  258MOL0     H34804  12.096   8.802   9.674 -0.7236 -0.9344 -0.8144
  258MOL0     H34805  12.013   8.888   9.802  2.4127  0.5026 -0.3334
  258MOL0     H34806  12.175   8.635   9.833 -0.7828  0.2106 -1.9095
  258MOL0     H34807  12.051   8.672   9.951  1.4978 -1.9637 -0.1704
  258MOL0     H34808  12.157   8.898  10.010 -0.1512  1.3852 -0.5178
  258MOL0     H34809  12.265   8.765  10.038 -2.0990 -1.9699  0.5634
  258MOL0     H34810  11.756   8.336   9.088  1.4439  4.5770  1.6308
  258MOL0     H34811  11.540   8.295   8.942 -0.3794 -0.2577 -0.5185
  258MOL0     H34812  11.108   7.974   8.988 -0.8741 -0.0347 -0.5235
  258MOL0     H34813  10.892   7.949   8.860  1.3487 -0.6693 -0.1200
  258MOL0     H34814  10.522   7.422   7.271  1.0709 -2.3305  0.5019
  258MOL0     H34815  10.489   7.286   7.050  0.5306  0.0673 -0.1832
  258MOL0     H34816  10.139   7.006   6.825 -1.0084 -1.1607 -0.9694
  258MOL0     H34817  10.115   6.905   6.604 -0.7109  2.6137  0.4110
  258MOL0     H34818  10.082   6.647   6.542 -0.8123  1.4452  1.1267
  258MOL0     H34819  10.163   6.589   6.388 -0.5333  2.0502 -2.4555
  258MOL0     H34820  10.180   6.796   6.299  0.0036  0.3050 -0.6092
  258MOL0     H34821  10.072   6.876   6.414 -0.7522  1.7315 -3.4664
  258MOL0     H34822   9.999   6.653   6.232 -1.3592  0.6751  0.6356
  258MOL0     H34823   9.948   6.822   6.218 -2.9925 -0.0637  0.6055
  258MOL0     H34824   9.840   6.818   6.445 -0.2546  0.2276 -0.1859
  258MOL0     H34825   9.759   6.753   6.307  0.5956  3.0176 -0.1070
  258MOL0     H34826   9.817   6.393   6.524 -3.3785 -1.1249 -1.0729
  258MOL0     H34827  10.452   6.660   6.671  0.5166 -2.8823  3.3391
  258MOL0     H34828  10.541   6.796   7.011 -0.1624  1.2165  0.2539
  258MOL0     H34829  10.488   6.646   6.972  1.3491  0.4267  0.4912
  258MOL0     H34830  10.605   6.718   6.856 -1.1655  0.3496 -1.5539
  259MOL0     O34831   0.292   0.456   1.389 -0.1744 -0.1943 -0.3743
  259MOL0     C34832   0.307   0.342   1.440  0.4961 -0.7371 -0.2566
  259MOL0     O34833   0.408   0.313   1.527  0.0636 -0.7647 -0.5972
  259MOL0     C34834   0.524   0.397   1.528 -1.1753 -0.1403 -0.7515
  259MOL0     C34835   0.597   0.427   1.651 -0.4757 -0.0239 -0.6394
  259MOL0     C34836   0.718   0.501   1.655  0.0836  0.2292 -0.6880
  259MOL0     C34837   0.780   0.531   1.539  0.0390 -0.6541 -0.9714
  259MOL0     O34838   0.908   0.577   1.552 -0.1548  0.8212  0.6681
  259MOL0     C34839   0.969   0.654   1.445  0.6484  0.4946 -1.5484
  259MOL0     C34840   1.103   0.677   1.489  0.1387 -0.1461  0.4853
  259MOL0     C34841   1.104   0.789   1.599  0.8450 -0.0692 -0.3815
  259MOL0     C34842   1.212   0.765   1.712  0.5743  0.5706  0.1866
  259MOL0     C34843   1.353   0.793   1.663  0.0967 -1.4024  0.8849
  259MOL0     C34844   1.479   0.759   1.740 -0.3253  0.3246 -0.4285
  259MOL0     C34845   1.499   0.858   1.850  0.0507  0.1634 -0.3991
  259MOL0     C34846   1.484   0.793   1.992  1.1116 -0.6214  0.2022
  259MOL0     N34847   1.539   0.878   2.103  0.0237 -0.2299  0.3166
  259MOL0     C34848   1.500   1.004   2.138  0.1151 -0.3444  0.1461
  259MOL0     C34849   1.585   1.047   2.235  0.6530 -0.5781  0.1364
  259MOL0     C34850   1.557   1.171   2.309  0.1666 -0.1731  0.4432
  259MOL0     C34851   1.644   1.202   2.433 -0.3778  1.3244 -0.0293
  259MOL0     C34852   1.592   1.308   2.525 -0.3593  0.1728  0.6103
  259MOL0     C34853   1.614   1.453   2.484 -0.2542 -0.0054 -0.1384
  259MOL0     O34854   1.564   1.502   2.358 -0.3912  0.2157 -0.3536
  259MOL0     C34855   1.427   1.503   2.338 -0.2770  0.0350 -0.5559
  259MOL0     C34856   1.333   1.501   2.438 -0.4711 -0.3414  0.0463
  259MOL0     C34857   1.194   1.499   2.404  0.2745 -0.8386  1.0274
  259MOL0     C34858   1.155   1.493   2.266 -0.3870  0.1783  1.3191
  259MOL0     C34859   1.027   1.451   2.225 -0.0675 -0.1540 -0.7138
  259MOL0     O34860   1.016   1.395   2.098  0.1552 -0.6743  0.5816
  259MOL0     C34861   0.888   1.368   2.058 -1.0359  0.5363  0.7091
  259MOL0     C34862   0.854   1.418   1.932 -0.0013 -0.6271  0.4474
  259MOL0     C34863   0.737   1.369   1.868 -0.4742 -0.2178  0.2302
  259MOL0     C34864   0.651   1.290   1.943  0.7720 -0.3993 -0.5681
  259MOL0     O34865   0.526   1.272   1.892  0.2403 -0.2006 -0.3434
  259MOL0     C34866   0.432   1.187   1.955  0.0362 -1.1704 -0.3040
  259MOL0     C34867   0.309   1.192   1.868 -0.7977  0.5580  0.6063
  259MOL0     C34868   0.193   1.113   1.931 -0.6313 -1.0060 -0.8395
  259MOL0     C34869   0.072   1.144   1.852  0.2041  0.3061  0.4258
  259MOL0     C34870  -0.048   1.073   1.925  0.7182  0.4618  0.6313
  259MOL0     C34871  -0.175   1.058   1.843  0.1328  0.7776  0.4760
  259MOL0     C34872  -0.277   0.960   1.893 -0.3162  1.2258 -0.6074
  259MOL0     C34873  -0.237   0.807   1.874 -0.6317 -0.4380  0.6989
  259MOL0    Cl34874  -0.371   0.702   1.948 -0.1170 -0.1794 -0.8236
  259MOL0     C34875   0.693   1.238   2.070 -0.1445 -0.5428 -0.0686
  259MOL0     C34876   0.812   1.273   2.128  0.9907  0.1101  1.3754
  259MOL0     O34877   0.935   1.468   2.308  0.3429  0.6596  0.4610
  259MOL0     C34878   1.254   1.510   2.173  0.1949 -0.2366 -0.0287
  259MOL0     C34879   1.386   1.512   2.206 -0.5218  0.2607 -0.5726
  259MOL0     N34880   1.683   0.949   2.248 -0.4366 -0.2318 -0.2930
  259MOL0     N34881   1.656   0.850   2.175 -0.7711  0.0780  0.4651
  259MOL0     C34882   0.710   0.506   1.423  0.3560  0.5961  0.0364
  259MOL0     C34883   0.589   0.439   1.416 -0.4433  0.1721  0.2730
  259MOL0     C34884   0.227   0.226   1.391  0.9109  0.5310 -0.4612
  259MOL0     C34885   0.211   0.121   1.482  0.6793  1.1059  0.0848
  259MOL0     C34886   0.129   0.008   1.460  0.1990 -0.0122 -0.4355
  259MOL0     C34887   0.034   0.008   1.355 -1.2572 -0.6655  0.0566
  259MOL0     O34888  -0.053  -0.103   1.319  0.0508 -0.0674  0.1205
  259MOL0     C34889  -0.060  -0.202   1.414  0.3403  0.3117 -0.0131
  259MOL0     C34890  -0.148  -0.307   1.360  0.0979  0.5663  0.1572
  259MOL0     C34891  -0.219  -0.401   1.459 -0.5562 -0.7699 -1.0488
  259MOL0     C34892  -0.109  -0.475   1.548  0.9587 -0.3125 -0.0792
  259MOL0     C34893  -0.056  -0.586   1.470  0.5515  0.1480  1.2827
  259MOL0     C34894  -0.022  -0.668   1.379 -0.0242 -0.4964 -0.3456
  259MOL0     C34895   0.034   0.119   1.274  0.9341 -0.7192 -0.0850
  259MOL0     C34896   0.136   0.221   1.282  0.5683  0.3577 -0.0226
  259MOL0     C34897   0.144   0.317   1.164  0.3992  0.1255 -0.3550
  259MOL0     H34898   0.551   0.378   1.737  3.5067  0.4066  2.0324
  259MOL0     H34899   0.765   0.535   1.747  0.3732 -0.6915 -0.4894
  259MOL0     H34900   0.960   0.589   1.358  1.1588 -0.8872 -0.5915
  259MOL0     H34901   0.921   0.752   1.432 -0.7693  1.0875  4.7705
  259MOL0     H34902   1.146   0.719   1.397 -1.6939  0.2585 -0.2364
  259MOL0     H34903   1.143   0.585   1.532  1.3653 -0.0872 -0.4604
  259MOL0     H34904   1.006   0.786   1.646 -0.5868 -2.8027 -3.1656
  259MOL0     H34905   1.134   0.883   1.553  2.0291 -0.6425 -0.8460
  259MOL0     H34906   1.187   0.821   1.803 -1.2762 -0.7056  0.5366
  259MOL0     H34907   1.193   0.662   1.743 -1.2534  0.8969  0.3042
  259MOL0     H34908   1.367   0.731   1.574  3.0896 -2.3829  1.8971
  259MOL0     H34909   1.342   0.897   1.633 -2.4836 -2.4679 -2.4847
  259MOL0     H34910   1.468   0.661   1.786  0.3250  0.0758 -0.7893
  259MOL0     H34911   1.571   0.768   1.681  1.1395 -1.9194  1.3291
  259MOL0     H34912   1.429   0.940   1.830 -2.5085 -2.3314 -2.6461
  259MOL0     H34913   1.602   0.894   1.853 -0.6177  2.1553  0.8864
  259MOL0     H34914   1.378   0.769   2.005  1.0969 -0.8368 -0.2734
  259MOL0     H34915   1.544   0.702   1.986 -0.8332 -1.9030 -0.8252
  259MOL0     H34916   1.410   1.044   2.092 -0.0450  0.3136  1.0019
  259MOL0     H34917   1.564   1.259   2.245  1.3656  1.0438  2.1406
  259MOL0     H34918   1.452   1.176   2.341  0.2838 -0.8129  0.9369
  259MOL0     H34919   1.646   1.114   2.499  0.5032  1.2053 -0.2032
  259MOL0     H34920   1.750   1.204   2.405  0.1925  0.0191  1.7686
  259MOL0     H34921   1.651   1.305   2.617 -1.6709 -0.5563  1.4461
  259MOL0     H34922   1.486   1.293   2.544 -0.2359 -2.7632 -0.5531
  259MOL0     H34923   1.722   1.466   2.467 -0.5032 -0.2810 -2.2988
  259MOL0     H34924   1.578   1.509   2.571 -1.1729  0.4933 -0.8180
  259MOL0     H34925   1.366   1.502   2.541 -0.3815 -0.2548  0.0172
  259MOL0     H34926   1.111   1.503   2.474  0.9937  0.1357  1.8751
  259MOL0     H34927   0.923   1.489   1.888  1.6737 -2.0998  0.5328
  259MOL0     H34928   0.700   1.407   1.773  0.0846 -1.2384 -0.4281
  259MOL0     H34929   0.469   1.084   1.956  0.4241 -1.0782 -1.9567
  259MOL0     H34930   0.402   1.213   2.057  2.0782 -0.2822  0.1151
  259MOL0     H34931   0.284   1.298   1.856 -0.1055  0.7031  0.4108
  259MOL0     H34932   0.338   1.151   1.770 -0.9377  4.7479 -1.4021
  259MOL0     H34933   0.217   1.007   1.921  2.1857 -0.3476 -1.9885
  259MOL0     H34934   0.190   1.130   2.039  2.8016 -2.5866 -0.3770
  259MOL0     H34935   0.087   1.102   1.752  4.1715 -0.5177  1.2004
  259MOL0     H34936   0.047   1.249   1.832 -0.9909 -0.2736 -1.4166
  259MOL0     H34937  -0.078   1.127   2.015 -0.6443  2.2845 -0.8520
  259MOL0     H34938  -0.026   0.968   1.948  1.0209  0.1267 -1.0827
  259MOL0     H34939  -0.234   1.150   1.843  0.9560  1.3230 -0.7836
  259MOL0     H34940  -0.142   1.024   1.745  1.6122  2.7852  0.2242
  259MOL0     H34941  -0.374   0.968   1.842 -1.1882 -0.5117  0.6843
  259MOL0     H34942  -0.286   0.969   2.001  2.9216  1.5199 -0.2623
  259MOL0     H34943  -0.219   0.775   1.771  2.7112 -2.6461  1.8070
  259MOL0     H34944  -0.143   0.780   1.922  0.3600  0.1016 -0.8558
  259MOL0     H34945   0.628   1.173   2.128 -2.2043  0.6863 -0.9316
  259MOL0     H34946   0.845   1.227   2.220  0.3549 -0.5343  1.2910
  259MOL0     H34947   1.237   1.537   2.070 -0.7406 -1.4323 -0.2007
  259MOL0     H34948   1.464   1.540   2.135  1.7240  0.9979  1.9994
  259MOL0     H34949   0.753   0.529   1.326 -2.3827 -1.1431 -1.7112
  259MOL0     H34950   0.557   0.422   1.314  1.9450  0.6245 -0.6162
  259MOL0     H34951   0.274   0.114   1.570  0.3316 -1.1648  0.2021
  259MOL0     H34952   0.129  -0.078   1.526 -1.4649  0.0832 -0.2478
  259MOL0     H34953  -0.102  -0.159   1.505  2.0669 -0.8328  1.4024
  259MOL0     H34954   0.041  -0.243   1.429  0.3654  0.3048 -0.1893
  259MOL0     H34955  -0.098  -0.367   1.283  3.0873  1.5037  1.2215
  259MOL0     H34956  -0.224  -0.252   1.302 -0.9821 -1.2383 -0.1978
  259MOL0     H34957  -0.283  -0.474   1.409  0.5936 -1.8472 -0.9695
  259MOL0     H34958  -0.282  -0.346   1.530  4.0658 -0.1832  3.1506
  259MOL0     H34959  -0.030  -0.400   1.562  2.4479 -1.1623 -3.1557
  259MOL0     H34960  -0.144  -0.499   1.649  2.1591  0.7251  0.6201
  259MOL0     H34961   0.010  -0.724   1.294 -0.2676 -0.1758 -0.6508
  259MOL0     H34962  -0.021   0.121   1.180  3.0438 -2.5367 -1.4614
  259MOL0     H34963   0.058   0.383   1.178 -1.6114 -2.3308 -0.3363
  259MOL0     H34964   0.238   0.372   1.160 -1.0146  2.6791 -0.7183
  259MOL0     H34965   0.129   0.278   1.063  1.6634  0.5496 -0.7333
  260MOL0     O34966   2.369   8.301   6.403 -0.5292  0.0008 -0.4259
  260MOL0     C34967   2.462   8.362   6.355  0.3526 -0.3915  0.1576
  260MOL0     O34968   2.522   8.340   6.248  0.3276  0.8631  0.3849
  260MOL0     C34969   2.497   8.237   6.163  0.6287 -0.4558 -0.6450
  260MOL0     C34970   2.556   8.246   6.046 -0.1840  0.4065 -0.1865
  260MOL0     C34971   2.542   8.141   5.955  0.3531  1.2903 -0.1204
  260MOL0     C34972   2.492   8.013   5.999 -0.5023  0.8988  0.0640
  260MOL0     O34973   2.500   7.898   5.933  0.7164  0.2431 -0.6009
  260MOL0     C34974   2.596   7.901   5.830 -0.2069  0.5318  0.4688
  260MOL0     C34975   2.621   7.762   5.767 -0.4251 -0.5643 -0.7629
  260MOL0     C34976   2.507   7.655   5.787  1.6186 -0.7601 -0.0446
  260MOL0     C34977   2.380   7.702   5.714 -0.9884  0.1125  0.0944
  260MOL0     C34978   2.279   7.594   5.680  0.3123 -0.3056 -0.0213
  260MOL0     C34979   2.167   7.662   5.587 -1.2254  0.0750  0.5911
  260MOL0     C34980   2.021   7.606   5.611  0.6435  0.2542 -1.0554
  260MOL0     C34981   1.924   7.641   5.493 -0.4734  0.1406  0.1972
  260MOL0     N34982   1.834   7.538   5.474  0.1422  0.6578 -0.3659
  260MOL0     C34983   1.868   7.405   5.468 -0.1896  0.5450  0.6492
  260MOL0     C34984   1.744   7.338   5.473  0.0975 -0.6999  1.3036
  260MOL0     C34985   1.716   7.191   5.477 -0.4827  0.7918  0.3221
  260MOL0     C34986   1.573   7.145   5.433  0.4071  0.2346 -0.6382
  260MOL0     C34987   1.581   7.022   5.343  0.7580  0.3568 -0.4899
  260MOL0     C34988   1.440   6.942   5.328  0.7394 -0.6177  0.4414
  260MOL0     O34989   1.389   6.902   5.459  0.5953  0.3603 -0.1278
  260MOL0     C34990   1.279   6.819   5.469  0.8166 -0.2926  0.1631
  260MOL0     C34991   1.230   6.785   5.598  0.2840 -1.0673 -0.5048
  260MOL0     C34992   1.124   6.705   5.619 -0.2329  0.8984 -0.4308
  260MOL0     C34993   1.037   6.668   5.518  0.4296  0.1121  0.5762
  260MOL0     C34994   0.913   6.588   5.545 -0.1336  0.2577  1.0734
  260MOL0     O34995   0.869   6.584   5.672 -0.1344 -0.3352  0.3201
  260MOL0     C34996   0.770   6.495   5.702 -1.2666 -0.1622  0.4652
  260MOL0     C34997   0.805   6.365   5.737 -0.2238  0.8788 -0.0698
  260MOL0     C34998   0.702   6.277   5.783 -0.2233 -0.2210 -0.2190
  260MOL0     C34999   0.577   6.322   5.804 -0.4061 -0.2742  0.2705
  260MOL0     O35000   0.486   6.242   5.854  0.2201  0.8186  0.0990
  260MOL0     C35001   0.484   6.247   5.992 -0.0116  0.8020  0.0584
  260MOL0     C35002   0.367   6.162   6.047  0.1873 -0.3966  0.3240
  260MOL0     C35003   0.332   6.182   6.194 -0.5764 -0.5259 -0.6202
  260MOL0     C35004   0.328   6.051   6.285 -0.3059  0.3794  0.5865
  260MOL0     C35005   0.315   6.078   6.432 -0.3670 -0.8488 -0.2821
  260MOL0     C35006   0.311   5.936   6.497  0.7711  0.1917 -1.2099
  260MOL0     C35007   0.175   5.872   6.480 -0.0453  0.9525 -0.1685
  260MOL0     C35008   0.176   5.712   6.506 -0.5082  0.4896  0.5493
  260MOL0    Cl35009   0.187   5.662   6.675 -0.1903 -0.2123  0.1120
  260MOL0     C35010   0.539   6.446   5.762  0.7191 -0.2545  0.9512
  260MOL0     C35011   0.634   6.534   5.706  0.4087 -0.7825 -0.1428
  260MOL0     O35012   0.863   6.529   5.449  0.2312 -0.2199 -0.0206
  260MOL0     C35013   1.079   6.702   5.384 -1.0556 -0.2952 -0.8642
  260MOL0     C35014   1.194   6.780   5.361  0.7290 -0.2237  0.4146
  260MOL0     N35015   1.638   7.429   5.464  0.1968 -0.1039  0.4961
  260MOL0     N35016   1.698   7.545   5.469 -0.7941 -0.0264  0.5705
  260MOL0     C35017   2.430   8.009   6.121  0.4332  1.5623  0.0121
  260MOL0     C35018   2.425   8.121   6.197 -0.3595  0.4673 -0.5988
  260MOL0     C35019   2.507   8.487   6.428 -0.0816  0.2719 -0.0679
  260MOL0     C35020   2.591   8.466   6.547 -0.1500 -0.0671  0.4822
  260MOL0     C35021   2.645   8.570   6.607 -0.7064  0.0898  0.6360
  260MOL0     C35022   2.608   8.694   6.567 -0.2732 -0.0708 -0.2501
  260MOL0     O35023   2.647   8.807   6.640 -0.3114  0.1526  0.0779
  260MOL0     C35024   2.579   8.812   6.767 -0.2395 -0.4818  0.3595
  260MOL0     C35025   2.448   8.886   6.757 -0.1847 -0.2046  0.0616
  260MOL0     C35026   2.394   8.922   6.893  0.3860  0.3498  0.0595
  260MOL0     C35027   2.270   9.009   6.898 -0.1236  0.0586  0.4336
  260MOL0     C35028   2.162   8.961   6.818 -0.9839  0.2912  0.8217
  260MOL0     C35029   2.070   8.907   6.763  0.3339 -0.6680  0.5189
  260MOL0     C35030   2.541   8.717   6.448 -0.3536  0.1594 -0.6630
  260MOL0     C35031   2.488   8.616   6.371 -0.4407  0.1819 -0.4643
  260MOL0     C35032   2.396   8.644   6.251 -0.3038 -0.8071 -0.5311
  260MOL0     H35033   2.629   8.316   6.007  0.0151 -1.9336 -4.6334
  260MOL0     H35034   2.600   8.154   5.864  0.7909 -0.5022 -0.1402
  260MOL0     H35035   2.565   7.966   5.748  0.1500  0.5605  0.3543
  260MOL0     H35036   2.700   7.926   5.855  0.0216  2.0114 -1.7131
  260MOL0     H35037   2.709   7.717   5.813 -0.5596 -0.5134 -0.4509
  260MOL0     H35038   2.632   7.775   5.659 -0.9604  3.4542 -0.4686
  260MOL0     H35039   2.470   7.645   5.889 -0.0643  1.0296 -0.4299
  260MOL0     H35040   2.540   7.558   5.746 -3.3013 -2.5107 -0.4587
  260MOL0     H35041   2.336   7.793   5.755 -2.0052 -0.1387 -0.4134
  260MOL0     H35042   2.411   7.734   5.614 -0.0701  1.4408  0.7767
  260MOL0     H35043   2.325   7.513   5.623  0.3046 -0.5771  0.3507
  260MOL0     H35044   2.223   7.551   5.764 -0.5420  0.4083 -0.2107
  260MOL0     H35045   2.156   7.768   5.612  4.2568  0.2188  4.3650
  260MOL0     H35046   2.202   7.656   5.483 -1.7089 -0.1946  0.4433
  260MOL0     H35047   1.985   7.659   5.700  0.1784  0.8285 -1.5844
  260MOL0     H35048   2.012   7.499   5.635 -0.3951  0.5952  0.2183
  260MOL0     H35049   1.875   7.738   5.505 -0.7943  0.2405 -1.5450
  260MOL0     H35050   1.986   7.650   5.403 -2.5280 -0.3515 -1.3605
  260MOL0     H35051   1.961   7.352   5.482 -0.5627 -0.1222  0.6287
  260MOL0     H35052   1.786   7.151   5.403  0.3197 -0.5954  1.7596
  260MOL0     H35053   1.740   7.148   5.575 -1.9945  2.2119  1.3755
  260MOL0     H35054   1.521   7.118   5.526  2.0949  4.7855  1.9569
  260MOL0     H35055   1.524   7.226   5.378  0.7706  0.2830 -0.8967
  260MOL0     H35056   1.660   6.961   5.388  1.8707  1.9469 -0.1849
  260MOL0     H35057   1.622   7.072   5.255  1.2815  3.6543  1.4571
  260MOL0     H35058   1.449   6.857   5.260  0.5363  1.7371 -2.7395
  260MOL0     H35059   1.373   7.015   5.282 -0.6140 -0.8152  1.9947
  260MOL0     H35060   1.298   6.816   5.677 -0.2039  0.5997 -0.6997
  260MOL0     H35061   1.100   6.677   5.721  1.3789  1.3417  0.0951
  260MOL0     H35062   0.908   6.331   5.735  0.0446  1.4506  1.7594
  260MOL0     H35063   0.730   6.178   5.818 -1.9891 -0.3864  0.8669
  260MOL0     H35064   0.577   6.207   6.033  0.0376  0.6597 -0.1934
  260MOL0     H35065   0.477   6.350   6.029 -2.7450 -0.1943  2.7534
  260MOL0     H35066   0.280   6.204   5.996 -1.1144 -2.1732  0.9613
  260MOL0     H35067   0.374   6.057   6.016 -0.9654 -0.5995  0.6743
  260MOL0     H35068   0.401   6.258   6.233  0.2757 -0.7787 -1.5830
  260MOL0     H35069   0.238   6.238   6.194 -0.5028 -0.3953 -0.0123
  260MOL0     H35070   0.413   5.985   6.266 -0.7695  0.1377 -0.7730
  260MOL0     H35071   0.249   5.990   6.239  0.2478  0.2090 -0.1595
  260MOL0     H35072   0.232   6.143   6.461 -0.0002 -0.4925 -0.0164
  260MOL0     H35073   0.404   6.134   6.461 -0.2318 -0.9973 -0.4041
  260MOL0     H35074   0.395   5.877   6.459  2.1593  2.9441 -2.7683
  260MOL0     H35075   0.324   5.947   6.605 -2.5129  1.5759 -0.8156
  260MOL0     H35076   0.152   5.878   6.373  0.5117 -1.4535 -0.4869
  260MOL0     H35077   0.101   5.932   6.534 -1.0450 -2.2441  2.2645
  260MOL0     H35078   0.088   5.663   6.463 -0.2869 -1.2631  1.9543
  260MOL0     H35079   0.266   5.670   6.461  0.8416  2.4351  1.3087
  260MOL0     H35080   0.439   6.486   5.765  1.2382  1.1131  0.5615
  260MOL0     H35081   0.616   6.635   5.670  5.5602  0.0449 -1.2545
  260MOL0     H35082   1.016   6.671   5.301 -1.6508 -0.4141 -0.3703
  260MOL0     H35083   1.203   6.819   5.261 -3.2679 -0.3781 -0.1777
  260MOL0     H35084   2.382   7.918   6.156  2.4239  0.9403  1.2827
  260MOL0     H35085   2.377   8.094   6.290  2.3872 -1.0190  0.4912
  260MOL0     H35086   2.612   8.365   6.583 -0.0227 -1.1478 -2.3530
  260MOL0     H35087   2.700   8.556   6.699 -1.9910 -0.4431  1.3475
  260MOL0     H35088   2.650   8.841   6.845  1.9101 -2.6634 -0.6409
  260MOL0     H35089   2.548   8.714   6.805 -2.6217  0.6249  1.5146
  260MOL0     H35090   2.385   8.811   6.708 -2.4577  0.3639  1.9572
  260MOL0     H35091   2.450   8.979   6.700 -2.3518 -1.2966 -1.9439
  260MOL0     H35092   2.474   8.978   6.942 -0.9658  2.3953  0.0585
  260MOL0     H35093   2.370   8.827   6.941 -1.5575  0.5211 -0.4620
  260MOL0     H35094   2.240   9.014   7.003 -0.8109  2.0782  0.2010
  260MOL0     H35095   2.285   9.114   6.869  1.3611  0.5801  2.8009
  260MOL0     H35096   1.978   8.867   6.725 -0.2702  2.2790 -1.4205
  260MOL0     H35097   2.520   8.820   6.419  0.7095 -0.0701 -2.3810
  260MOL0     H35098   2.443   8.593   6.166  2.6739  0.1538  0.4390
  260MOL0     H35099   2.292   8.614   6.270 -0.8567 -0.5321 -2.8159
  260MOL0     H35100   2.396   8.748   6.220 -3.9272 -0.0284  1.5251
  261MOL0     O35101   6.481   8.075   6.137 -0.2333 -0.1743 -0.1605
  261MOL0     C35102   6.458   7.962   6.130 -0.3516  0.8273  0.6325
  261MOL0     O35103   6.335   7.907   6.088 -0.3038  0.1415  0.2865
  261MOL0     C35104   6.226   7.992   6.086 -0.3314 -0.3547 -0.6112
  261MOL0     C35105   6.198   8.038   5.957  0.2210  0.1199  0.4893
  261MOL0     C35106   6.092   8.127   5.943 -0.7337  0.3517 -0.6680
  261MOL0     C35107   6.014   8.170   6.047 -0.8365  0.8626  0.1734
  261MOL0     O35108   5.906   8.252   6.036  0.5518 -0.6149 -0.0352
  261MOL0     C35109   5.833   8.227   5.912  1.1288 -0.2926 -0.7952
  261MOL0     C35110   5.703   8.302   5.927 -0.4018 -0.0120 -0.6880
  261MOL0     C35111   5.606   8.229   6.030 -0.6004  0.0698  0.9866
  261MOL0     C35112   5.502   8.330   6.055  0.8309 -0.3808 -0.1067
  261MOL0     C35113   5.360   8.274   6.080 -0.2077  0.9646  0.2357
  261MOL0     C35114   5.261   8.376   6.141  1.4946  0.3034  0.8982
  261MOL0     C35115   5.217   8.485   6.037  0.0087 -0.3745 -0.0214
  261MOL0     C35116   5.088   8.448   5.953  0.1643  0.2472 -0.1289
  261MOL0     N35117   4.972   8.433   6.038 -0.0315  0.4460  0.1153
  261MOL0     C35118   4.902   8.532   6.099 -0.5688  0.2184  0.1351
  261MOL0     C35119   4.793   8.477   6.152 -0.5230  1.6961  0.2343
  261MOL0     C35120   4.683   8.542   6.234 -0.2442  0.0773 -0.2883
  261MOL0     C35121   4.556   8.554   6.153 -0.4189 -0.2484 -0.3052
  261MOL0     C35122   4.469   8.663   6.215  0.3458  0.5246  0.1849
  261MOL0     C35123   4.380   8.727   6.108 -0.3254  0.0112  0.4327
  261MOL0     O35124   4.267   8.645   6.080  0.1777 -0.5594  0.0469
  261MOL0     C35125   4.198   8.688   5.971  1.1922 -0.0273  0.1943
  261MOL0     C35126   4.207   8.805   5.894 -0.8233 -0.6466 -0.4189
  261MOL0     C35127   4.125   8.835   5.792  0.3015 -0.5784  0.2702
  261MOL0     C35128   4.033   8.741   5.746  0.0511  1.0029 -0.3015
  261MOL0     C35129   3.939   8.780   5.635 -0.4360  0.5847 -0.3303
  261MOL0     O35130   3.834   8.706   5.626  0.2113  0.5952  0.4048
  261MOL0     C35131   3.724   8.733   5.552  0.0408  0.2490 -0.3616
  261MOL0     C35132   3.724   8.827   5.443  0.0539  0.9562  0.6154
  261MOL0     C35133   3.606   8.852   5.369  0.1388  0.7670 -0.3627
  261MOL0     C35134   3.489   8.790   5.407  0.5534  1.0339  0.2860
  261MOL0     O35135   3.360   8.807   5.360  0.4182  0.2385 -0.0033
  261MOL0     C35136   3.322   8.929   5.306 -0.3652 -0.3505 -0.7143
  261MOL0     C35137   3.175   8.923   5.263 -0.2263  0.2080 -0.0350
  261MOL0     C35138   3.086   8.872   5.378  0.2665  0.6395  0.9961
  261MOL0     C35139   2.947   8.900   5.322  0.2928 -0.4275 -0.4170
  261MOL0     C35140   2.840   8.830   5.401 -0.2913 -0.6699 -0.3113
  261MOL0     C35141   2.708   8.831   5.331  0.3751 -0.2776 -0.5260
  261MOL0     C35142   2.580   8.811   5.423 -1.4229 -0.6018  0.3930
  261MOL0     C35143   2.446   8.868   5.374  0.8267  0.3146 -0.5078
  261MOL0    Cl35144   2.407   8.740   5.249  0.1759 -0.1119 -0.0799
  261MOL0     C35145   3.483   8.693   5.515  0.2173  0.7256 -0.5851
  261MOL0     C35146   3.605   8.667   5.580  0.6091 -0.1479 -0.2104
  261MOL0     O35147   3.962   8.885   5.582 -0.1596  0.4351 -0.3548
  261MOL0     C35148   4.026   8.625   5.820 -0.3305 -0.2308 -0.5152
  261MOL0     C35149   4.112   8.589   5.926 -0.6657  0.0756 -0.1544
  261MOL0     N35150   4.796   8.343   6.121 -0.8098 -0.0558  1.5799
  261MOL0     N35151   4.899   8.314   6.048 -0.6087  0.2520  0.4651
  261MOL0     C35152   6.045   8.119   6.172 -0.2094  0.1142 -0.0169
  261MOL0     C35153   6.163   8.037   6.202  0.1087 -0.0090 -0.2862
  261MOL0     C35154   6.571   7.865   6.155 -0.5870  0.3546 -0.0308
  261MOL0     C35155   6.533   7.722   6.160  0.1407  0.4117  0.1767
  261MOL0     C35156   6.632   7.623   6.181 -0.3376  0.0004 -0.6029
  261MOL0     C35157   6.770   7.647   6.189  0.2651 -0.3642  0.6399
  261MOL0     O35158   6.872   7.560   6.203  0.2813 -0.9723  0.4826
  261MOL0     C35159   6.850   7.420   6.237 -0.0371 -0.1672 -1.6253
  261MOL0     C35160   6.815   7.415   6.386 -0.3772  0.1776  0.6001
  261MOL0     C35161   6.938   7.431   6.472  0.2532  1.1068  0.3559
  261MOL0     C35162   7.003   7.293   6.512  1.5869  0.0344  0.2020
  261MOL0     C35163   7.140   7.314   6.559  0.7040  0.8889 -0.4014
  261MOL0     C35164   7.256   7.307   6.584 -0.7590 -0.6576  0.3756
  261MOL0     C35165   6.806   7.784   6.184 -0.3003  0.2019  0.4649
  261MOL0     C35166   6.713   7.887   6.173 -0.4138 -0.5257  0.0104
  261MOL0     C35167   6.784   8.033   6.182 -0.2024  0.3812 -0.2057
  261MOL0     H35168   6.247   8.008   5.865 -2.8422 -1.3629 -0.7840
  261MOL0     H35169   6.075   8.147   5.837  0.2368 -0.4423 -0.9885
  261MOL0     H35170   5.885   8.263   5.824  3.3200 -0.7857  0.2332
  261MOL0     H35171   5.806   8.123   5.895 -2.0730  0.7569 -3.0713
  261MOL0     H35172   5.666   8.315   5.825  0.1801 -1.0318 -1.0367
  261MOL0     H35173   5.730   8.400   5.967 -0.0815 -0.8444  1.2387
  261MOL0     H35174   5.663   8.212   6.122 -0.4269  1.3586  1.1360
  261MOL0     H35175   5.562   8.131   6.012 -0.2534 -0.2064  1.6352
  261MOL0     H35176   5.525   8.389   6.144 -2.9793  2.3951 -0.7009
  261MOL0     H35177   5.491   8.397   5.969  2.1281 -0.1659 -0.1204
  261MOL0     H35178   5.320   8.222   5.993  2.0761 -2.2309  0.9012
  261MOL0     H35179   5.368   8.202   6.162 -1.8187  1.0371  0.4900
  261MOL0     H35180   5.177   8.314   6.173 -1.1965  1.2105 -3.6098
  261MOL0     H35181   5.305   8.417   6.233  1.8668  1.4377  0.2407
  261MOL0     H35182   5.301   8.504   5.970 -0.6730 -0.0407 -0.7889
  261MOL0     H35183   5.203   8.582   6.085 -3.0164 -1.2641  1.0907
  261MOL0     H35184   5.068   8.528   5.881 -3.9769 -1.3957 -1.0687
  261MOL0     H35185   5.091   8.363   5.884  1.5005 -0.8380  1.2071
  261MOL0     H35186   4.929   8.637   6.096 -2.0195  0.5909 -1.4381
  261MOL0     H35187   4.658   8.482   6.322 -1.8638  2.1067  0.7331
  261MOL0     H35188   4.719   8.638   6.272 -1.2513  0.4339 -0.1989
  261MOL0     H35189   4.581   8.599   6.056 -0.4401 -3.9488 -2.2115
  261MOL0     H35190   4.504   8.461   6.128 -0.6692 -1.1918  3.2548
  261MOL0     H35191   4.530   8.742   6.259  0.6228  0.0994  0.5841
  261MOL0     H35192   4.397   8.626   6.289 -1.3636 -0.0547 -1.6617
  261MOL0     H35193   4.439   8.756   6.020 -0.6213 -3.2919 -1.0027
  261MOL0     H35194   4.350   8.821   6.153  0.6224  0.1780  0.7364
  261MOL0     H35195   4.286   8.877   5.912 -2.8190  1.7733 -0.7923
  261MOL0     H35196   4.138   8.937   5.757 -0.1329 -0.2995  0.8935
  261MOL0     H35197   3.815   8.874   5.407 -0.6710  1.5460 -0.5048
  261MOL0     H35198   3.599   8.914   5.280 -0.3542  1.8753  0.4249
  261MOL0     H35199   3.330   9.007   5.381 -3.0326 -1.5558  0.9663
  261MOL0     H35200   3.384   8.957   5.220 -1.2329 -0.0445 -1.2487
  261MOL0     H35201   3.143   9.026   5.245  3.2173  1.0415 -2.4784
  261MOL0     H35202   3.164   8.864   5.171 -1.7159  2.7751 -1.6179
  261MOL0     H35203   3.098   8.767   5.405 -2.1861 -0.3891 -1.4951
  261MOL0     H35204   3.100   8.941   5.462  1.9312 -1.1215  2.2401
  261MOL0     H35205   2.943   8.837   5.232  2.8742 -0.4649 -0.5744
  261MOL0     H35206   2.933   9.008   5.308  1.2736 -0.4336 -1.6564
  261MOL0     H35207   2.834   8.887   5.494 -0.3336  3.4030 -2.5626
  261MOL0     H35208   2.851   8.723   5.423 -0.6703 -0.3662  1.4648
  261MOL0     H35209   2.707   8.925   5.276 -0.3953 -1.0897 -1.9811
  261MOL0     H35210   2.699   8.756   5.251 -2.7896  0.0264 -0.6000
  261MOL0     H35211   2.592   8.869   5.515 -2.6432  1.3020 -0.5682
  261MOL0     H35212   2.571   8.705   5.448 -1.5115 -0.8566 -0.6881
  261MOL0     H35213   2.371   8.866   5.454 -0.2977  3.7428 -1.2987
  261MOL0     H35214   2.451   8.970   5.333 -2.1895  2.3246  3.4634
  261MOL0     H35215   3.391   8.648   5.551 -1.7988  2.6521 -3.0066
  261MOL0     H35216   3.610   8.592   5.659 -2.2169 -0.4584 -0.2457
  261MOL0     H35217   3.966   8.545   5.779 -0.1875  0.6081 -2.4595
  261MOL0     H35218   4.121   8.489   5.967 -0.0795 -0.3665 -1.3122
  261MOL0     H35219   5.980   8.150   6.254 -1.0376 -0.7284 -0.3388
  261MOL0     H35220   6.190   7.994   6.298 -3.2739 -2.1286 -0.1055
  261MOL0     H35221   6.435   7.685   6.130  1.0351  0.6501 -3.5758
  261MOL0     H35222   6.593   7.522   6.176 -1.2855  0.1953  1.5650
  261MOL0     H35223   6.942   7.362   6.225 -0.9171 -1.7922 -0.8747
  261MOL0     H35224   6.775   7.373   6.173 -2.3692 -0.0744  0.8680
  261MOL0     H35225   6.770   7.317   6.399 -0.7548  0.5289  2.1031
  261MOL0     H35226   6.739   7.487   6.418 -0.6061  0.3134 -0.2163
  261MOL0     H35227   6.907   7.476   6.567 -0.4961  2.0214 -0.3008
  261MOL0     H35228   7.007   7.492   6.413 -0.5677  0.6394 -1.1322
  261MOL0     H35229   6.944   7.234   6.583  2.0193 -2.5702 -1.4910
  261MOL0     H35230   7.012   7.228   6.425 -2.4395 -0.2977 -0.1803
  261MOL0     H35231   7.361   7.299   6.604 -0.4649 -2.7510 -1.5331
  261MOL0     H35232   6.912   7.803   6.195  0.2402 -2.7995  1.6393
  261MOL0     H35233   6.737   8.075   6.271 -0.9543 -1.0299  0.1016
  261MOL0     H35234   6.893   8.037   6.195 -0.5460  3.4092  3.1441
  261MOL0     H35235   6.771   8.080   6.084  1.3240  2.1779  0.3921
  262MOL0     O35236  10.249   3.591   7.550  0.0172 -0.8349 -0.4878
  262MOL0     C35237  10.348   3.633   7.615  0.1832 -0.0867 -0.5044
  262MOL0     O35238  10.469   3.671   7.562  0.2944 -0.1619 -0.0386
  262MOL0     C35239  10.488   3.667   7.423  0.0005 -0.4646  0.5514
  262MOL0     C35240  10.587   3.758   7.392  0.2528 -0.7193 -0.3083
  262MOL0     C35241  10.613   3.786   7.253 -0.0521  0.1919 -0.2189
  262MOL0     C35242  10.549   3.707   7.153 -0.8346  0.6166 -0.8326
  262MOL0     O35243  10.575   3.717   7.018  0.4758  0.2557 -0.3807
  262MOL0     C35244  10.665   3.816   6.961 -0.2938  0.7890  0.3768
  262MOL0     C35245  10.805   3.767   6.963 -0.3186 -0.3471 -0.4212
  262MOL0     C35246  10.840   3.660   6.857  0.2677  0.4542 -0.8995
  262MOL0     C35247  10.992   3.627   6.869  0.4045 -0.3670  0.4312
  262MOL0     C35248  11.028   3.500   6.801 -0.5928 -0.3472  0.1321
  262MOL0     C35249  11.186   3.471   6.793  0.0304  0.7631 -0.1713
  262MOL0     C35250  11.208   3.330   6.749 -0.2717  0.1212 -0.4632
  262MOL0     C35251  11.346   3.293   6.799 -0.0064  0.1746  0.1010
  262MOL0     N35252  11.384   3.171   6.734 -0.3206 -0.1592  0.0667
  262MOL0     C35253  11.471   3.156   6.625 -0.5603  0.0986  0.5779
  262MOL0     C35254  11.482   3.019   6.604 -0.2433  0.8364  0.0268
  262MOL0     C35255  11.556   2.942   6.494 -0.5087 -0.3910 -0.2320
  262MOL0     C35256  11.709   2.988   6.486 -0.4608 -0.8030  1.1563
  262MOL0     C35257  11.782   2.904   6.374  0.8467  0.2635  0.2380
  262MOL0     C35258  11.927   2.947   6.353  0.1209  0.7268 -0.3938
  262MOL0     O35259  11.997   2.935   6.475  0.7762  0.1086  0.8171
  262MOL0     C35260  12.085   2.837   6.473  0.0819  0.4145  0.3802
  262MOL0     C35261  12.111   2.764   6.590  0.9528 -0.2038  0.1159
  262MOL0     C35262  12.195   2.650   6.599  0.8170 -0.3385 -0.1947
  262MOL0     C35263  12.278   2.617   6.488  0.5968  0.5557  0.6084
  262MOL0     C35264  12.392   2.506   6.496  0.5337 -0.7974  0.3071
  262MOL0     O35265  12.396   2.439   6.610  0.3390 -0.1162  0.7709
  262MOL0     C35266  12.502   2.347   6.616 -0.5801 -0.1186 -0.4739
  262MOL0     C35267  12.479   2.209   6.594 -0.3674 -0.3956 -0.5484
  262MOL0     C35268  12.591   2.114   6.596  0.2454 -0.2139  0.7334
  262MOL0     C35269  12.717   2.155   6.630 -0.6740 -0.1566  0.3219
  262MOL0     O35270  12.820   2.056   6.634  0.5454  0.3653 -0.3071
  262MOL0     C35271  12.953   2.090   6.657 -0.1314  1.3112 -0.6173
  262MOL0     C35272  13.020   2.138   6.533  1.0873 -0.1931  0.0144
  262MOL0     C35273  13.175   2.132   6.548 -0.1407 -0.4803 -0.6103
  262MOL0     C35274  13.248   2.103   6.419 -0.2480  0.3364  0.3642
  262MOL0     C35275  13.394   2.063   6.448  0.6676  0.3936  0.1362
  262MOL0     C35276  13.475   2.161   6.515 -0.7896  0.5095  0.9613
  262MOL0     C35277  13.593   2.081   6.574  0.4202 -0.0953 -0.6665
  262MOL0     C35278  13.680   2.188   6.640 -0.1437 -0.1150 -0.4221
  262MOL0    Cl35279  13.803   2.098   6.752  0.6590  0.0351 -0.2001
  262MOL0     C35280  12.736   2.294   6.652 -0.6378 -0.2786 -1.4395
  262MOL0     C35281  12.634   2.388   6.634 -0.6994 -0.0512  0.0808
  262MOL0     O35282  12.474   2.496   6.407  0.1713 -0.9358  0.4543
  262MOL0     C35283  12.281   2.715   6.388  0.6270 -0.1043  0.8194
  262MOL0     C35284  12.186   2.817   6.377  0.4297  1.2175 -0.0460
  262MOL0     N35285  11.408   2.957   6.708 -0.4913 -0.5203  0.6153
  262MOL0     N35286  11.352   3.047   6.776 -0.6612  0.9843  0.3876
  262MOL0     C35287  10.457   3.609   7.192  0.6156 -0.0314 -0.1025
  262MOL0     C35288  10.429   3.585   7.326 -0.4628 -0.1478 -0.0620
  262MOL0     C35289  10.341   3.630   7.759  0.2252  0.0589  0.1489
  262MOL0     C35290  10.455   3.610   7.834 -0.3703  0.0986 -0.4952
  262MOL0     C35291  10.443   3.594   7.968  0.6547  0.6941 -0.5309
  262MOL0     C35292  10.327   3.601   8.039  0.4569 -0.3624 -0.8273
  262MOL0     O35293  10.325   3.570   8.178 -0.4041 -0.0546 -0.2367
  262MOL0     C35294  10.196   3.598   8.239  0.0623 -0.2614 -0.0694
  262MOL0     C35295  10.217   3.579   8.397 -0.5997 -0.2855  0.2222
  262MOL0     C35296  10.083   3.566   8.467 -0.2762 -0.4765  0.3147
  262MOL0     C35297  10.085   3.480   8.599 -0.1271 -1.0590  0.1607
  262MOL0     C35298  10.129   3.347   8.574 -0.4547 -0.5175  0.5900
  262MOL0     C35299  10.168   3.229   8.576 -0.4241 -1.3427  0.7437
  262MOL0     C35300  10.207   3.631   7.967  0.4475 -1.1232 -0.6180
  262MOL0     C35301  10.212   3.635   7.828  0.2588 -0.7949 -0.3411
  262MOL0     C35302  10.073   3.676   7.780 -0.6320  0.4456  1.1859
  262MOL0     H35303  10.622   3.823   7.472 -2.4024 -3.8516  3.8433
  262MOL0     H35304  10.681   3.867   7.230 -2.1346  1.7235 -1.4138
  262MOL0     H35305  10.651   3.832   6.854  1.6205 -0.1714 -0.0621
  262MOL0     H35306  10.653   3.913   7.010  1.6854  1.5987 -0.6639
  262MOL0     H35307  10.828   3.736   7.066 -1.5657  0.4436  0.1124
  262MOL0     H35308  10.867   3.854   6.942  1.7427 -0.0399  5.1852
  262MOL0     H35309  10.817   3.694   6.756 -2.1554 -0.5339 -0.7472
  262MOL0     H35310  10.779   3.577   6.894  0.8573  0.8795  1.1611
  262MOL0     H35311  11.054   3.712   6.841  0.7174 -0.1652  1.6582
  262MOL0     H35312  11.002   3.616   6.978 -0.8124  0.1209  0.6114
  262MOL0     H35313  10.988   3.415   6.857  0.1234 -2.2100 -2.0546
  262MOL0     H35314  10.997   3.501   6.696  1.7967  2.9209 -0.7151
  262MOL0     H35315  11.236   3.544   6.729 -0.9280 -0.2965 -2.2348
  262MOL0     H35316  11.222   3.486   6.895  0.6699 -1.7171  0.0337
  262MOL0     H35317  11.211   3.333   6.640 -0.3845 -2.5523 -0.6153
  262MOL0     H35318  11.132   3.259   6.783  1.1982 -2.0353 -1.4490
  262MOL0     H35319  11.411   3.374   6.764  0.4030 -0.6295 -1.0577
  262MOL0     H35320  11.338   3.282   6.907 -1.1214  2.1177  0.2597
  262MOL0     H35321  11.521   3.224   6.557 -3.0585 -0.3400 -1.8525
  262MOL0     H35322  11.558   2.836   6.521  1.7230 -0.7961 -1.7407
  262MOL0     H35323  11.497   2.955   6.403 -0.1181 -2.1253 -0.7717
  262MOL0     H35324  11.717   3.090   6.447 -2.2284 -1.2335 -0.5066
  262MOL0     H35325  11.754   2.989   6.586  4.7512  3.4553 -0.7822
  262MOL0     H35326  11.727   2.912   6.279 -0.6861 -1.4924  0.9358
  262MOL0     H35327  11.783   2.801   6.409  1.5821  0.3388  0.4590
  262MOL0     H35328  11.922   3.051   6.317  1.3315  0.0902 -2.5744
  262MOL0     H35329  11.969   2.890   6.270 -4.4583  0.0338 -2.5644
  262MOL0     H35330  12.056   2.790   6.679  4.7821 -2.7316  3.5972
  262MOL0     H35331  12.194   2.597   6.694 -1.9221  1.1884  0.7214
  262MOL0     H35332  12.376   2.181   6.575 -1.2616  2.3307 -0.1614
  262MOL0     H35333  12.585   2.014   6.554  3.1452 -1.1800  2.3312
  262MOL0     H35334  12.968   2.156   6.744 -4.1864  2.2513 -0.4083
  262MOL0     H35335  13.000   1.995   6.683 -0.2175  0.6736 -2.6356
  262MOL0     H35336  12.983   2.087   6.443 -0.4402 -1.8881  1.5071
  262MOL0     H35337  12.995   2.244   6.524 -0.0102 -0.5092 -1.0348
  262MOL0     H35338  13.205   2.220   6.605 -2.6374 -1.4011  2.4222
  262MOL0     H35339  13.199   2.042   6.605 -2.0983 -0.7886 -0.2028
  262MOL0     H35340  13.245   2.194   6.358 -1.1286 -0.9716 -1.6584
  262MOL0     H35341  13.190   2.026   6.367  0.5356 -1.1499  1.6152
  262MOL0     H35342  13.446   2.035   6.356 -0.1439  2.4460 -1.0071
  262MOL0     H35343  13.371   1.976   6.510 -1.8249  1.9889  1.6544
  262MOL0     H35344  13.509   2.235   6.442 -0.6769 -1.1014 -0.6950
  262MOL0     H35345  13.427   2.220   6.594 -0.7081  1.8667  0.0281
  262MOL0     H35346  13.654   2.038   6.494  0.2150 -0.3226 -0.7035
  262MOL0     H35347  13.558   2.008   6.648  2.5474 -1.4089 -0.8615
  262MOL0     H35348  13.737   2.250   6.570  2.1858 -0.3181  1.1697
  262MOL0     H35349  13.615   2.259   6.693 -0.3968  0.9935 -2.1510
  262MOL0     H35350  12.838   2.324   6.675 -0.5883 -0.3789 -1.5255
  262MOL0     H35351  12.654   2.494   6.648 -2.6258  0.6517 -1.8609
  262MOL0     H35352  12.350   2.716   6.305 -1.8662  2.0012 -1.4362
  262MOL0     H35353  12.192   2.896   6.303  1.6732  3.3958  2.2675
  262MOL0     H35354  10.410   3.567   7.103  1.9471 -2.3821  0.2345
  262MOL0     H35355  10.364   3.504   7.356  3.0525 -2.7186  1.2230
  262MOL0     H35356  10.549   3.598   7.780  0.6226 -2.6660  1.5813
  262MOL0     H35357  10.532   3.572   8.026  1.6706  1.4728 -1.7232
  262MOL0     H35358  10.117   3.535   8.197 -0.6928  0.1909  0.6349
  262MOL0     H35359  10.160   3.700   8.219 -2.6543 -1.9986 -6.8939
  262MOL0     H35360  10.279   3.660   8.435 -0.0614 -0.6762  0.1842
  262MOL0     H35361  10.275   3.490   8.422  2.2252  1.1602 -0.8312
  262MOL0     H35362  10.016   3.513   8.398 -0.3189 -2.0119  1.4749
  262MOL0     H35363  10.045   3.667   8.482 -0.3906 -0.2510 -1.3260
  262MOL0     H35364  10.152   3.531   8.670 -1.4953 -0.4340  1.0336
  262MOL0     H35365   9.995   3.479   8.661  0.7697  2.3028  1.7881
  262MOL0     H35366  10.194   3.126   8.585  1.5861 -0.9821 -0.3360
  262MOL0     H35367  10.116   3.642   8.025 -0.5312 -0.3043 -2.2178
  262MOL0     H35368  10.005   3.700   7.862 -2.0050 -0.3580  0.3425
  262MOL0     H35369  10.079   3.765   7.716 -2.3471  0.8560  1.5315
  262MOL0     H35370  10.031   3.599   7.714 -2.0002  1.8921  0.2994
  263MOL0     O35371   3.394   4.235   1.456  0.0185  0.2306 -0.0807
  263MOL0     C35372   3.288   4.198   1.504  0.1054  0.3407 -0.2138
  263MOL0     O35373   3.182   4.279   1.534 -0.6501 -0.3261 -0.4480
  263MOL0     C35374   3.183   4.412   1.492  0.2875  0.2620  0.6701
  263MOL0     C35375   3.233   4.449   1.367 -0.3234  0.1238 -0.1534
  263MOL0     C35376   3.235   4.586   1.334 -0.1603  0.5495  0.7051
  263MOL0     C35377   3.173   4.678   1.418  1.1219 -0.2777 -0.0442
  263MOL0     O35378   3.182   4.809   1.379  0.0369  0.1377  0.3132
  263MOL0     C35379   3.161   4.917   1.472  0.7109 -0.0680 -0.2350
  263MOL0     C35380   3.166   5.059   1.404 -0.3592  0.2729 -0.2295
  263MOL0     C35381   3.044   5.105   1.337 -0.4092  0.8657  0.4458
  263MOL0     C35382   3.039   5.252   1.309 -1.3508  0.1371 -0.0887
  263MOL0     C35383   2.907   5.299   1.236  0.4911  0.0483 -0.5191
  263MOL0     C35384   2.867   5.441   1.282  0.0315  0.4148  0.6125
  263MOL0     C35385   2.717   5.456   1.277 -0.9612  0.5774  0.6571
  263MOL0     C35386   2.673   5.594   1.309 -0.3797  0.5107  0.2952
  263MOL0     N35387   2.535   5.597   1.346 -0.5885  0.6280  0.4466
  263MOL0     C35388   2.440   5.541   1.265  0.7589 -0.4627 -0.4914
  263MOL0     C35389   2.333   5.554   1.339 -0.2812 -0.4960  0.3543
  263MOL0     C35390   2.193   5.529   1.293 -0.2551  0.0202  0.3671
  263MOL0     C35391   2.156   5.381   1.314 -0.6636 -0.7863  0.4601
  263MOL0     C35392   2.012   5.356   1.269  0.1588  0.6284  0.2993
  263MOL0     C35393   2.011   5.337   1.125 -1.0931  0.1528  0.1114
  263MOL0     O35394   1.899   5.412   1.080 -0.3069 -0.6125  0.0487
  263MOL0     C35395   1.860   5.412   0.944  0.7738 -1.0620 -0.7796
  263MOL0     C35396   1.851   5.289   0.872  0.9870 -0.6383 -0.0444
  263MOL0     C35397   1.818   5.281   0.740  0.2159 -0.7488  0.3302
  263MOL0     C35398   1.813   5.399   0.668  0.7714 -0.3807  1.2030
  263MOL0     C35399   1.775   5.403   0.522  0.4576 -0.6192  0.9439
  263MOL0     O35400   1.718   5.286   0.471  0.3557  0.9405  0.0773
  263MOL0     C35401   1.699   5.275   0.335 -0.9774 -0.8361 -0.6677
  263MOL0     C35402   1.562   5.273   0.305 -0.3255 -0.7125 -0.2174
  263MOL0     C35403   1.509   5.250   0.183 -0.2390  0.6022 -0.0544
  263MOL0     C35404   1.594   5.226   0.079 -0.0216 -0.4582  0.3625
  263MOL0     O35405   1.573   5.218  -0.055 -0.1780  0.0457  0.6867
  263MOL0     C35406   1.437   5.184  -0.095 -0.1385  0.0431  0.5759
  263MOL0     C35407   1.429   5.168  -0.251 -1.1885  0.0835  0.4559
  263MOL0     C35408   1.293   5.167  -0.299  0.2540  0.4402  0.3950
  263MOL0     C35409   1.305   5.132  -0.448  0.6859 -0.2474  0.5775
  263MOL0     C35410   1.178   5.123  -0.526  1.3619 -0.2810 -0.4204
  263MOL0     C35411   1.198   5.073  -0.666  0.5222  0.1098 -0.4032
  263MOL0     C35412   1.063   5.052  -0.739 -0.8493  0.3089 -0.7397
  263MOL0     C35413   0.991   4.924  -0.706 -0.4970 -0.0737 -0.5579
  263MOL0    Cl35414   1.083   4.776  -0.736 -0.1868  0.3303  0.2290
  263MOL0     C35415   1.724   5.215   0.108 -0.7368  0.0468 -0.5328
  263MOL0     C35416   1.781   5.239   0.234 -0.3343 -0.8121 -0.1394
  263MOL0     O35417   1.810   5.501   0.449  0.6636  1.0471 -0.2715
  263MOL0     C35418   1.817   5.518   0.737  0.0961  0.0647  0.6758
  263MOL0     C35419   1.836   5.526   0.876  0.4099  0.0132 -0.4622
  263MOL0     N35420   2.357   5.612   1.460  0.6802 -0.0144 -0.5637
  263MOL0     N35421   2.482   5.638   1.465 -0.7358  0.4290  0.7284
  263MOL0     C35422   3.112   4.645   1.539  0.4384  0.5902  0.0428
  263MOL0     C35423   3.118   4.510   1.571  0.1132  0.1226  0.5770
  263MOL0     C35424   3.275   4.051   1.546  0.2573  0.4965  0.3036
  263MOL0     C35425   3.393   3.971   1.550 -0.3554  0.3811 -0.2513
  263MOL0     C35426   3.384   3.839   1.580  0.4397 -0.1098  0.2336
  263MOL0     C35427   3.263   3.767   1.606  0.2511 -0.8462 -0.5874
  263MOL0     O35428   3.280   3.637   1.632 -0.0739 -0.4568  0.1881
  263MOL0     C35429   3.174   3.539   1.652  0.1475  0.0257 -0.2108
  263MOL0     C35430   3.135   3.482   1.519 -0.4069 -0.8403 -0.2286
  263MOL0     C35431   3.253   3.455   1.420  0.7688  0.1387 -0.4290
  263MOL0     C35432   3.343   3.333   1.451  0.2310  0.0238 -0.0148
  263MOL0     C35433   3.421   3.308   1.326 -0.6589  0.4803  0.2216
  263MOL0     C35434   3.498   3.301   1.229  1.0264 -0.7106 -0.4219
  263MOL0     C35435   3.146   3.848   1.602  0.7776  0.5123  0.3429
  263MOL0     C35436   3.147   3.986   1.580 -0.3565  0.8039  0.7067
  263MOL0     C35437   3.020   4.059   1.584 -0.1970  0.0793 -0.9128
  263MOL0     H35438   3.281   4.374   1.303 -2.3935 -0.2734 -1.3427
  263MOL0     H35439   3.290   4.613   1.244 -1.0317 -0.3231 -0.1227
  263MOL0     H35440   3.060   4.910   1.513  0.1398  1.7233 -1.2165
  263MOL0     H35441   3.228   4.906   1.558 -0.6175  1.6648  1.0993
  263MOL0     H35442   3.248   5.051   1.331  0.2919  0.5922  0.4587
  263MOL0     H35443   3.194   5.125   1.486  1.1569 -1.9444  1.1318
  263MOL0     H35444   2.962   5.091   1.408  0.8118 -2.0001  1.4570
  263MOL0     H35445   3.028   5.043   1.248  0.3536  1.4039 -0.0860
  263MOL0     H35446   3.052   5.288   1.412  0.9653  0.7845 -0.5399
  263MOL0     H35447   3.126   5.286   1.253 -1.3488 -1.5894 -1.2085
  263MOL0     H35448   2.922   5.292   1.128 -0.9834 -1.4673 -0.6661
  263MOL0     H35449   2.828   5.227   1.261 -0.0323 -0.7129 -3.8828
  263MOL0     H35450   2.898   5.448   1.386  2.0165  1.1427  0.0189
  263MOL0     H35451   2.919   5.525   1.235 -1.6454  1.2413  0.1347
  263MOL0     H35452   2.685   5.382   1.351  3.3535  0.0186  2.2644
  263MOL0     H35453   2.673   5.441   1.178 -1.0503  1.4994  0.5492
  263MOL0     H35454   2.727   5.627   1.398 -0.2043  0.4868  0.1972
  263MOL0     H35455   2.678   5.656   1.220 -2.5072  0.6234  0.2075
  263MOL0     H35456   2.443   5.509   1.161 -0.7878 -0.7559 -0.4805
  263MOL0     H35457   2.116   5.587   1.345  1.1771  0.4311  2.1286
  263MOL0     H35458   2.189   5.558   1.188  1.1699 -0.6630  0.1029
  263MOL0     H35459   2.224   5.336   1.241  0.2192 -1.1007  1.4540
  263MOL0     H35460   2.174   5.350   1.417 -0.1182 -2.6402 -0.1517
  263MOL0     H35461   1.952   5.443   1.297  0.2292  0.9947 -0.6243
  263MOL0     H35462   1.968   5.265   1.310  1.0952 -0.2964 -0.6853
  263MOL0     H35463   2.002   5.232   1.095  0.1277  0.9005 -3.2848
  263MOL0     H35464   2.100   5.374   1.072 -0.4279  1.5387  2.0844
  263MOL0     H35465   1.858   5.196   0.927 -0.8084 -0.2576  0.8928
  263MOL0     H35466   1.797   5.183   0.700 -4.0557  0.9787 -2.4028
  263MOL0     H35467   1.495   5.286   0.390 -0.4793  2.1504 -0.6830
  263MOL0     H35468   1.402   5.254   0.167 -0.3253 -3.3720 -1.6569
  263MOL0     H35469   1.425   5.082  -0.058  3.1901 -0.4649  0.5363
  263MOL0     H35470   1.360   5.257  -0.065  0.3670  1.2445 -0.8740
  263MOL0     H35471   1.483   5.250  -0.300  1.8205 -2.2561 -0.4432
  263MOL0     H35472   1.481   5.076  -0.278  0.7078  0.7326  1.6843
  263MOL0     H35473   1.230   5.093  -0.248 -0.7947 -1.8123 -3.6970
  263MOL0     H35474   1.250   5.267  -0.292 -0.2963  0.4787 -2.3409
  263MOL0     H35475   1.364   5.041  -0.459  1.1861  0.2259 -1.0119
  263MOL0     H35476   1.365   5.210  -0.497 -3.1263  1.2922 -2.1906
  263MOL0     H35477   1.136   5.224  -0.522 -0.6156 -1.1011  2.6931
  263MOL0     H35478   1.105   5.068  -0.466  0.2582  0.8850 -0.6581
  263MOL0     H35479   1.250   5.150  -0.724  0.4011  0.2801 -0.2861
  263MOL0     H35480   1.252   4.979  -0.650  0.4886  0.4579  2.0516
  263MOL0     H35481   1.090   5.058  -0.845 -0.5396  1.2642 -0.6162
  263MOL0     H35482   1.001   5.140  -0.721  3.2152  3.1516  0.7910
  263MOL0     H35483   0.951   4.915  -0.605 -0.3019  1.4185 -0.3172
  263MOL0     H35484   0.897   4.916  -0.762 -0.7590  0.8057 -0.2673
  263MOL0     H35485   1.804   5.193   0.038 -0.5389 -4.2520  0.7467
  263MOL0     H35486   1.887   5.246   0.256 -0.7213 -0.2446  1.6847
  263MOL0     H35487   1.798   5.613   0.690  0.0653 -0.4180 -0.3160
  263MOL0     H35488   1.837   5.620   0.931  2.3103 -0.0247 -0.3506
  263MOL0     H35489   3.066   4.709   1.613 -0.3245 -0.2841  0.3466
  263MOL0     H35490   3.069   4.467   1.658  0.5150 -1.1338  0.2038
  263MOL0     H35491   3.494   4.010   1.545  0.8439 -1.8873  2.6911
  263MOL0     H35492   3.479   3.787   1.587  1.3227  1.5302  1.0710
  263MOL0     H35493   3.086   3.577   1.706  0.6538  0.1108  0.5694
  263MOL0     H35494   3.213   3.460   1.717 -1.3021 -0.7815 -0.2842
  263MOL0     H35495   3.065   3.552   1.473 -0.8429 -2.1978 -1.7012
  263MOL0     H35496   3.079   3.388   1.534  0.6005 -1.0533  3.2366
  263MOL0     H35497   3.324   3.538   1.431  2.0013 -1.2355  5.3047
  263MOL0     H35498   3.218   3.460   1.317  0.2680  0.0163 -0.2684
  263MOL0     H35499   3.404   3.361   1.537  0.2201  1.4646 -0.4567
  263MOL0     H35500   3.282   3.243   1.468 -1.2751  0.1039 -3.8169
  263MOL0     H35501   3.558   3.294   1.141 -0.4600 -2.6399 -1.3530
  263MOL0     H35502   3.054   3.794   1.622  1.7937 -1.5859 -0.2728
  263MOL0     H35503   2.997   4.126   1.500  0.5798  1.0056 -0.4059
  263MOL0     H35504   2.940   3.985   1.591 -1.3307  1.4033  0.9130
  263MOL0     H35505   3.028   4.120   1.674  1.3571  2.4652 -2.5294
  264MOL0     O35506   7.048   5.689  11.004 -0.6977 -0.3073 -0.0519
  264MOL0     C35507   6.949   5.732  11.054 -0.1150  0.4244 -0.1215
  264MOL0     O35508   6.937   5.850  11.126  0.2095 -0.3059 -0.3635
  264MOL0     C35509   7.033   5.944  11.134 -0.0277 -0.4930  0.1391
  264MOL0     C35510   7.139   5.961  11.046 -0.6879  0.5802 -0.0585
  264MOL0     C35511   7.226   6.075  11.052  0.6221 -0.2926 -0.0559
  264MOL0     C35512   7.212   6.168  11.154  0.2438  0.6118 -0.7214
  264MOL0     O35513   7.312   6.257  11.162  0.0602  0.0732  0.5096
  264MOL0     C35514   7.295   6.356  11.263  0.5145  0.3358  0.1634
  264MOL0     C35515   7.192   6.471  11.224  0.5030 -0.5057  0.5759
  264MOL0     C35516   7.247   6.551  11.105 -0.4964 -0.1028 -0.8839
  264MOL0     C35517   7.148   6.662  11.080  0.9229 -0.5506 -0.2135
  264MOL0     C35518   7.186   6.744  10.965  0.0001 -0.5536 -0.2948
  264MOL0     C35519   7.289   6.847  11.007  0.5970 -0.3410  0.0926
  264MOL0     C35520   7.285   6.971  10.909  0.7326  0.3698 -0.4060
  264MOL0     C35521   7.376   6.952  10.788 -0.4198  0.4932  0.4546
  264MOL0     N35522   7.354   6.840  10.703 -1.1285 -0.4476 -0.6322
  264MOL0     C35523   7.253   6.808  10.610  0.3014 -1.0401 -0.2384
  264MOL0     C35524   7.297   6.685  10.558 -0.7876 -0.7101 -0.9489
  264MOL0     C35525   7.226   6.594  10.468  0.3101  0.1956 -0.1121
  264MOL0     C35526   7.128   6.506  10.548  0.1085 -1.0931  0.3058
  264MOL0     C35527   6.999   6.582  10.613 -0.3263  1.2128  0.5522
  264MOL0     C35528   6.858   6.547  10.558  0.1661  0.8009 -0.3029
  264MOL0     O35529   6.828   6.406  10.547  0.1226 -0.1092  0.5924
  264MOL0     C35530   6.841   6.337  10.430 -0.4459 -0.0640 -0.2048
  264MOL0     C35531   6.823   6.202  10.458  0.1561  0.7234  0.2636
  264MOL0     C35532   6.845   6.098  10.361  0.6759 -0.8346 -0.0004
  264MOL0     C35533   6.889   6.131  10.225 -1.0467  0.4590 -0.6768
  264MOL0     C35534   6.916   6.026  10.120  0.0074  0.4873  0.1614
  264MOL0     O35535   7.002   6.053  10.016 -0.5077 -0.1725  0.4249
  264MOL0     C35536   7.047   5.958   9.930 -0.4624  0.1169 -0.2281
  264MOL0     C35537   7.079   5.827   9.960  0.1298 -0.4457  0.6902
  264MOL0     C35538   7.131   5.747   9.858  0.3921  0.8208  0.7598
  264MOL0     C35539   7.165   5.791   9.731 -0.5232  0.2377  0.8944
  264MOL0     O35540   7.209   5.698   9.642  0.0893 -0.0570  0.5646
  264MOL0     C35541   7.241   5.728   9.507  0.1894 -0.1285  0.7290
  264MOL0     C35542   7.254   5.601   9.426  1.3344 -0.3470  0.4052
  264MOL0     C35543   7.213   5.625   9.281  0.4110 -0.5057  0.4336
  264MOL0     C35544   7.245   5.498   9.196 -0.2158  0.5680  0.9216
  264MOL0     C35545   7.359   5.527   9.102 -0.4022 -0.0275 -0.8249
  264MOL0     C35546   7.313   5.632   8.987  0.6018  0.1749 -0.3141
  264MOL0     C35547   7.380   5.596   8.850  0.3521 -0.7864 -0.0315
  264MOL0     C35548   7.320   5.671   8.729 -0.3157  0.0578 -1.4228
  264MOL0    Cl35549   7.388   5.594   8.577 -0.5183 -0.1334 -0.6157
  264MOL0     C35550   7.157   5.929   9.711 -0.0753  0.1570 -0.0350
  264MOL0     C35551   7.091   6.006   9.807 -0.5105  0.4273  0.2662
  264MOL0     O35552   6.862   5.918  10.139  0.2078 -0.8776  0.3844
  264MOL0     C35553   6.899   6.274  10.197 -0.3087  0.6627  0.0277
  264MOL0     C35554   6.880   6.374  10.295  0.1160 -0.5278 -0.0524
  264MOL0     N35555   7.418   6.650  10.629  0.7826 -0.1146 -0.5316
  264MOL0     N35556   7.447   6.744  10.707  0.2950 -0.2315  0.0339
  264MOL0     C35557   7.100   6.151  11.241  0.0033 -0.3674  0.6802
  264MOL0     C35558   7.012   6.046  11.225  0.5128 -0.5581 -0.8815
  264MOL0     C35559   6.839   5.643  11.037  0.6272 -0.5909 -0.4611
  264MOL0     C35560   6.726   5.664  11.123 -0.5220 -0.9223  0.4622
  264MOL0     C35561   6.623   5.574  11.125  0.7323  0.0884  0.2194
  264MOL0     C35562   6.615   5.474  11.035  0.3972 -0.1874  0.3544
  264MOL0     O35563   6.506   5.389  11.027 -0.1371 -0.7429  0.0565
  264MOL0     C35564   6.424   5.368  11.151 -0.0470 -0.6232  0.1887
  264MOL0     C35565   6.339   5.237  11.135 -0.0544  0.0940  0.8946
  264MOL0     C35566   6.292   5.165  11.273 -0.4180  0.2560  0.7326
  264MOL0     C35567   6.166   5.226  11.334 -0.4519  0.8939 -0.2624
  264MOL0     C35568   6.190   5.347  11.406 -0.0435 -0.3492 -0.6379
  264MOL0     C35569   6.212   5.434  11.482 -0.7736 -0.8366 -0.0195
  264MOL0     C35570   6.720   5.443  10.949 -0.5795  0.1610 -0.6183
  264MOL0     C35571   6.829   5.532  10.942 -0.0329  0.3895 -0.4045
  264MOL0     C35572   6.927   5.494  10.843 -0.2266  0.2225 -0.0746
  264MOL0     H35573   7.159   5.897  10.961 -2.1117 -0.6616  0.5054
  264MOL0     H35574   7.305   6.089  10.979  0.3329  1.9940  0.0173
  264MOL0     H35575   7.262   6.308  11.355  2.1895  1.2524  1.2856
  264MOL0     H35576   7.392   6.404  11.282  0.1359  1.5147 -0.7171
  264MOL0     H35577   7.187   6.540  11.309 -1.2979  0.0237  0.0759
  264MOL0     H35578   7.094   6.435  11.193 -0.2659  1.6491  0.3809
  264MOL0     H35579   7.254   6.494  11.012 -2.0196 -1.0537 -0.4615
  264MOL0     H35580   7.344   6.594  11.129 -0.6128 -0.8907  1.2756
  264MOL0     H35581   7.055   6.615  11.046  0.8964  0.0773 -1.0187
  264MOL0     H35582   7.136   6.711  11.177  0.2268 -3.3128  1.2301
  264MOL0     H35583   7.221   6.690  10.877 -0.0453 -1.2219  0.0951
  264MOL0     H35584   7.096   6.799  10.935 -0.8630 -1.2849  0.8426
  264MOL0     H35585   7.268   6.885  11.107 -1.2942  1.5617 -0.9420
  264MOL0     H35586   7.386   6.797  11.010  0.0731 -1.3695  0.4175
  264MOL0     H35587   7.301   7.067  10.960 -2.7994  1.9018 -1.8227
  264MOL0     H35588   7.181   6.980  10.876  0.3544 -0.7427  0.4349
  264MOL0     H35589   7.365   7.038  10.721 -0.4825  0.3419  0.2737
  264MOL0     H35590   7.476   6.964  10.833 -0.5439 -1.5925  1.3847
  264MOL0     H35591   7.171   6.872  10.583  0.1661 -1.6023 -1.1896
  264MOL0     H35592   7.164   6.650  10.397 -0.5502 -0.4013  0.1542
  264MOL0     H35593   7.307   6.533  10.428  1.3286 -0.8168  3.1514
  264MOL0     H35594   7.099   6.432  10.473 -1.3987  1.8055 -2.2032
  264MOL0     H35595   7.200   6.467  10.621  0.3751 -2.2881 -0.5581
  264MOL0     H35596   7.004   6.689  10.594  3.7886  0.9558 -0.7742
  264MOL0     H35597   7.010   6.547  10.716 -0.7712 -1.4848 -0.2413
  264MOL0     H35598   6.845   6.591  10.459 -0.4223 -2.5984 -1.8775
  264MOL0     H35599   6.793   6.583  10.639  2.5956 -2.5222  3.5734
  264MOL0     H35600   6.788   6.178  10.558 -0.6480 -0.2889 -0.2454
  264MOL0     H35601   6.815   5.997  10.389 -0.5829 -1.8805 -4.3089
  264MOL0     H35602   7.060   5.794  10.061 -4.1180  1.5921  0.7671
  264MOL0     H35603   7.126   5.639   9.867 -3.8700  0.6419 -1.2770
  264MOL0     H35604   7.163   5.784   9.455  0.2899 -1.2489 -0.7034
  264MOL0     H35605   7.329   5.790   9.486 -1.2421  0.8771 -3.2675
  264MOL0     H35606   7.358   5.570   9.431  1.4253  0.0247  0.8784
  264MOL0     H35607   7.185   5.529   9.472 -0.4259  1.0995  0.1676
  264MOL0     H35608   7.108   5.650   9.262 -0.1854 -1.8382  1.7783
  264MOL0     H35609   7.273   5.705   9.237 -1.5737  1.6129  1.3900
  264MOL0     H35610   7.160   5.474   9.132 -0.4966  0.1700  1.4315
  264MOL0     H35611   7.272   5.404   9.246  2.3584 -0.3261 -1.8697
  264MOL0     H35612   7.392   5.432   9.058 -0.9290 -0.0343 -1.2110
  264MOL0     H35613   7.443   5.569   9.158  0.3584 -2.3414 -0.0968
  264MOL0     H35614   7.205   5.643   8.981  0.4428 -1.5209 -1.1726
  264MOL0     H35615   7.358   5.727   9.017  2.7064 -1.2043  1.2026
  264MOL0     H35616   7.353   5.492   8.831  0.3258 -0.4167 -2.3194
  264MOL0     H35617   7.488   5.612   8.857  0.0751  1.8506 -0.7297
  264MOL0     H35618   7.211   5.663   8.717 -0.0757 -1.9787 -2.8731
  264MOL0     H35619   7.332   5.778   8.747  0.8559 -0.5467  2.0640
  264MOL0     H35620   7.183   5.965   9.612  3.1830  2.2142  1.4107
  264MOL0     H35621   7.072   6.106   9.771  1.4179  0.7520  0.0223
  264MOL0     H35622   6.934   6.299  10.098  0.1713 -0.6755 -0.1709
  264MOL0     H35623   6.897   6.480  10.281 -3.8977  0.1103 -1.4402
  264MOL0     H35624   7.068   6.212  11.326  1.2227 -0.2038  1.0328
  264MOL0     H35625   6.926   6.034  11.289  1.7599 -1.3547  0.7217
  264MOL0     H35626   6.708   5.744  11.194 -1.3613  1.6375 -2.4499
  264MOL0     H35627   6.538   5.592  11.191  0.4329 -1.7344  0.3893
  264MOL0     H35628   6.357   5.452  11.174  1.1426  0.1225  1.0568
  264MOL0     H35629   6.487   5.363  11.240 -1.9183  1.9087  1.8189
  264MOL0     H35630   6.401   5.168  11.077 -0.6501  2.6655 -3.0968
  264MOL0     H35631   6.247   5.255  11.079 -0.2419  1.0370  1.4903
  264MOL0     H35632   6.380   5.170  11.337  2.6916 -3.0640 -2.7857
  264MOL0     H35633   6.286   5.057  11.259  2.7228 -0.0309  0.8147
  264MOL0     H35634   6.090   5.249  11.258 -1.4869  1.3061  0.8569
  264MOL0     H35635   6.124   5.143  11.393 -2.7303  3.0055  1.2910
  264MOL0     H35636   6.219   5.515  11.552 -1.0873 -0.6737 -0.1748
  264MOL0     H35637   6.713   5.357  10.883 -2.5283 -2.7083  2.9637
  264MOL0     H35638   6.998   5.574  10.819  1.3353 -1.3906 -1.0605
  264MOL0     H35639   6.987   5.412  10.883 -0.3858  0.2925  0.3064
  264MOL0     H35640   6.880   5.451  10.754  2.2113 -2.2877 -0.2776
  265MOL0     O35641   7.960  10.714   4.039  0.2309 -0.1492 -0.0464
  265MOL0     C35642   7.905  10.792   3.955 -0.7957  0.1170  0.0102
  265MOL0     O35643   7.912  10.771   3.821 -0.6457  0.7168  0.4092
  265MOL0     C35644   7.975  10.664   3.760  0.1943  0.1615 -0.1923
  265MOL0     C35645   8.029  10.550   3.809 -1.0167  0.6784  0.4330
  265MOL0     C35646   8.090  10.456   3.723 -0.3805  0.0740 -0.3294
  265MOL0     C35647   8.103  10.487   3.586  0.7610  0.2123  0.1033
  265MOL0     O35648   8.155  10.408   3.489  0.4133  0.4705 -0.1256
  265MOL0     C35649   8.147  10.270   3.526 -0.1250  0.2714  0.9352
  265MOL0     C35650   8.168  10.197   3.391 -0.0913  0.0025 -0.1557
  265MOL0     C35651   8.053  10.107   3.344 -0.1784 -0.1839  0.5601
  265MOL0     C35652   8.097   9.991   3.244 -0.2287 -0.0752  0.0483
  265MOL0     C35653   8.103  10.024   3.092 -0.5696 -0.4948  0.3024
  265MOL0     C35654   8.232  10.102   3.041  0.0274 -0.5254 -0.2156
  265MOL0     C35655   8.245  10.092   2.882  0.1471 -0.4309  0.4568
  265MOL0     C35656   8.376  10.151   2.829  0.0270 -0.3453 -0.5042
  265MOL0     N35657   8.387  10.170   2.691  0.1249  0.0628  0.0486
  265MOL0     C35658   8.506  10.194   2.622 -0.5887  0.8602  0.0104
  265MOL0     C35659   8.470  10.189   2.489 -0.8245  0.6105 -0.5397
  265MOL0     C35660   8.567  10.210   2.377 -0.4063  0.0421 -0.2316
  265MOL0     C35661   8.518  10.186   2.233 -0.6064  1.0624 -0.3930
  265MOL0     C35662   8.430  10.309   2.194 -0.2746 -1.1148 -0.1767
  265MOL0     C35663   8.311  10.262   2.121 -1.3164  0.6980  0.2042
  265MOL0     O35664   8.208  10.357   2.113  0.2892  0.4580  0.4394
  265MOL0     C35665   8.104  10.373   2.208 -0.3627  0.3594 -1.1899
  265MOL0     C35666   8.016  10.478   2.195  0.9488  0.0035 -0.0656
  265MOL0     C35667   7.916  10.514   2.296 -0.3064 -0.2398  0.3622
  265MOL0     C35668   7.905  10.417   2.397 -0.1419 -0.3002 -0.1125
  265MOL0     C35669   7.794  10.448   2.490  0.4173  1.3941  0.9360
  265MOL0     O35670   7.724  10.559   2.472 -0.3453 -0.3164 -0.8456
  265MOL0     C35671   7.634  10.584   2.577 -0.0799 -0.0920  0.9874
  265MOL0     C35672   7.656  10.613   2.703  0.0729  0.3132 -0.3118
  265MOL0     C35673   7.563  10.660   2.795  0.0913  0.5112 -0.3816
  265MOL0     C35674   7.433  10.673   2.749  0.0500 -0.1599  0.0530
  265MOL0     O35675   7.344  10.734   2.825 -0.3010  0.6917 -0.9537
  265MOL0     C35676   7.292  10.859   2.799  0.7419  0.2638 -0.5022
  265MOL0     C35677   7.231  10.909   2.929  1.6701 -0.6002 -0.8774
  265MOL0     C35678   7.227  11.062   2.926  0.6562 -0.2404 -0.0381
  265MOL0     C35679   7.093  11.096   2.855 -0.0277  0.2287 -0.0292
  265MOL0     C35680   7.073  11.243   2.837  0.2188 -0.2734  0.1136
  265MOL0     C35681   6.926  11.269   2.797  0.1720 -0.3103  0.8126
  265MOL0     C35682   6.908  11.422   2.795 -0.1578 -0.6918 -0.8888
  265MOL0     C35683   6.864  11.473   2.662  0.2160  1.7174 -0.3869
  265MOL0    Cl35684   6.695  11.403   2.630  0.2994  0.5119  0.1408
  265MOL0     C35685   7.402  10.641   2.620 -0.3196 -0.7193 -0.0979
  265MOL0     C35686   7.503  10.602   2.537 -0.4973 -0.1826  0.5034
  265MOL0     O35687   7.769  10.355   2.571  0.4045 -0.5077  0.5579
  265MOL0     C35688   7.988  10.305   2.401 -0.5745 -0.6043  0.0850
  265MOL0     C35689   8.082  10.283   2.312 -0.0213 -0.5246 -0.6348
  265MOL0     N35690   8.334  10.179   2.491  0.0964  0.6065  0.7521
  265MOL0     N35691   8.284  10.169   2.609 -0.3454  0.6130 -0.4002
  265MOL0     C35692   8.051  10.607   3.540 -0.1540 -0.5599 -0.0926
  265MOL0     C35693   7.985  10.694   3.625  0.2689  0.1015  0.2521
  265MOL0     C35694   7.829  10.914   4.008 -0.0372  1.0273 -0.3775
  265MOL0     C35695   7.721  10.965   3.920 -0.0344 -0.2735 -0.4754
  265MOL0     C35696   7.633  11.066   3.963 -0.4739  0.8631  0.4709
  265MOL0     C35697   7.640  11.123   4.088 -0.5277  0.2446  0.5555
  265MOL0     O35698   7.555  11.214   4.144  0.0378 -0.4831  0.3657
  265MOL0     C35699   7.433  11.252   4.064 -0.2129  0.0285 -0.1740
  265MOL0     C35700   7.358  11.368   4.147 -0.0023  0.1902  0.0066
  265MOL0     C35701   7.242  11.413   4.052  0.2719  1.1398  0.2297
  265MOL0     C35702   7.277  11.496   3.931  0.0008 -0.1460 -0.0332
  265MOL0     C35703   7.332  11.626   3.981  0.7703 -1.2677  0.2829
  265MOL0     C35704   7.378  11.727   4.030 -0.2338 -0.7351  0.2156
  265MOL0     C35705   7.750  11.083   4.167 -0.3277 -0.4446  0.6638
  265MOL0     C35706   7.844  10.981   4.134  0.9033 -0.8368 -0.5972
  265MOL0     C35707   7.970  10.962   4.224 -0.9815 -1.0216 -0.6164
  265MOL0     H35708   8.008  10.515   3.910 -2.4409  1.3868  0.3962
  265MOL0     H35709   8.122  10.360   3.762  0.3091  0.6312  0.5265
  265MOL0     H35710   8.221  10.231   3.597 -0.3668 -2.2773 -0.0854
  265MOL0     H35711   8.044  10.237   3.544 -1.0701  1.4613 -1.7664
  265MOL0     H35712   8.246  10.122   3.406  0.4485 -0.2232 -3.3165
  265MOL0     H35713   8.204  10.268   3.315  0.6982 -0.2764 -0.0484
  265MOL0     H35714   7.975  10.172   3.303 -0.9923 -0.2711  1.9231
  265MOL0     H35715   8.004  10.057   3.428 -2.7948 -3.0690 -2.4146
  265MOL0     H35716   8.186   9.933   3.270 -0.9283 -1.9280 -1.4725
  265MOL0     H35717   8.009   9.929   3.259 -1.3384  1.0692 -1.3551
  265MOL0     H35718   8.094   9.930   3.037 -0.8528 -1.1005  1.3428
  265MOL0     H35719   8.018  10.086   3.062  1.3559  1.6880 -1.0075
  265MOL0     H35720   8.221  10.199   3.090  0.9944 -1.3646  1.8017
  265MOL0     H35721   8.318  10.055   3.090  0.0316 -1.0941 -0.7607
  265MOL0     H35722   8.170  10.153   2.830  1.7794  0.2460 -1.2118
  265MOL0     H35723   8.235   9.986   2.858 -1.2927 -0.2961  0.3453
  265MOL0     H35724   8.375  10.252   2.871 -0.2598 -0.9630  1.0127
  265MOL0     H35725   8.463  10.090   2.857  1.4628  1.6140 -0.4508
  265MOL0     H35726   8.604  10.196   2.670  0.0649  0.3509 -1.2525
  265MOL0     H35727   8.607  10.312   2.386  1.7786 -0.7599 -0.2422
  265MOL0     H35728   8.645  10.135   2.393  1.9983  2.0863 -1.6405
  265MOL0     H35729   8.600  10.165   2.165 -0.9701  0.4256 -0.6362
  265MOL0     H35730   8.470  10.088   2.232  3.0753 -0.9456  1.5288
  265MOL0     H35731   8.492  10.386   2.146 -0.0702 -2.3008 -1.8970
  265MOL0     H35732   8.393  10.366   2.280  0.1748  4.9633 -3.4403
  265MOL0     H35733   8.281  10.163   2.157  2.1530 -0.1719  1.0300
  265MOL0     H35734   8.347  10.254   2.018 -1.7622 -2.6955  0.1970
  265MOL0     H35735   8.032  10.539   2.106 -1.1112 -2.2572 -2.1121
  265MOL0     H35736   7.857  10.601   2.267  1.8908  0.8020 -1.3596
  265MOL0     H35737   7.756  10.599   2.742  1.4680  1.9017 -3.0061
  265MOL0     H35738   7.598  10.676   2.896  0.1268 -2.0750  0.1007
  265MOL0     H35739   7.370  10.928   2.765 -0.2184  1.5905 -0.0550
  265MOL0     H35740   7.217  10.847   2.721 -0.3829  0.9800  0.4471
  265MOL0     H35741   7.134  10.862   2.944 -0.0193  2.5415 -1.0350
  265MOL0     H35742   7.301  10.877   3.007  2.0801 -2.5843 -1.9952
  265MOL0     H35743   7.229  11.101   3.028 -0.2884 -2.9794  1.1318
  265MOL0     H35744   7.298  11.111   2.858  0.9611  0.5815  0.8572
  265MOL0     H35745   7.012  11.054   2.914  0.8952 -2.1708 -0.3742
  265MOL0     H35746   7.099  11.053   2.754  1.7370 -4.1090  1.6719
  265MOL0     H35747   7.136  11.282   2.757  0.9724 -0.9830  0.3515
  265MOL0     H35748   7.099  11.290   2.933 -0.5202 -0.1591  0.2685
  265MOL0     H35749   6.909  11.220   2.701  3.6718  2.8921 -1.6979
  265MOL0     H35750   6.869  11.228   2.881  2.6198 -4.1324  0.8906
  265MOL0     H35751   6.999  11.476   2.823 -0.0626 -0.2571 -1.9951
  265MOL0     H35752   6.837  11.442   2.875  0.8811 -2.0625  0.4280
  265MOL0     H35753   6.858  11.581   2.673 -0.5699  1.8403 -1.8099
  265MOL0     H35754   6.938  11.442   2.588  0.9067  1.9933  0.1779
  265MOL0     H35755   7.307  10.664   2.572  0.6657  1.5879 -1.1150
  265MOL0     H35756   7.484  10.586   2.431 -0.5876  1.7680  0.1884
  265MOL0     H35757   7.981  10.232   2.480 -1.0918  2.4217  3.0923
  265MOL0     H35758   8.141  10.192   2.307 -0.3678 -0.8240  0.4204
  265MOL0     H35759   8.041  10.634   3.435  1.0164 -0.0929 -0.0942
  265MOL0     H35760   7.952  10.785   3.575  0.2689 -0.3810 -0.6544
  265MOL0     H35761   7.691  10.933   3.821 -0.0029  1.0419 -0.9256
  265MOL0     H35762   7.562  11.109   3.893 -1.0675  0.8758  1.0710
  265MOL0     H35763   7.361  11.171   4.050  2.2428 -2.0064 -1.8395
  265MOL0     H35764   7.451  11.289   3.963  0.8048 -2.6044 -1.0241
  265MOL0     H35765   7.423  11.451   4.176 -1.8891  1.2741  1.4348
  265MOL0     H35766   7.324  11.331   4.245 -1.3833  3.3866  0.8875
  265MOL0     H35767   7.167  11.467   4.111  0.0466  1.3492 -0.2459
  265MOL0     H35768   7.187  11.324   4.019  2.7843  0.4933 -2.6326
  265MOL0     H35769   7.359  11.450   3.875  1.3829  0.9922  0.9658
  265MOL0     H35770   7.186  11.512   3.873  0.1918 -2.8048 -1.2305
  265MOL0     H35771   7.400  11.831   4.048 -1.1051 -0.6342  0.7307
  265MOL0     H35772   7.768  11.131   4.263  0.0099 -0.6506  0.7070
  265MOL0     H35773   8.064  10.981   4.172 -0.8821  3.4876  0.8086
  265MOL0     H35774   7.965  11.027   4.312  2.1479 -1.4780 -0.0025
  265MOL0     H35775   7.981  10.860   4.262  0.7514 -0.1091  1.5424
  266MOL0     O35776   0.603   7.731   8.801 -0.6626  0.7239 -0.8987
  266MOL0     C35777   0.552   7.738   8.690  1.0682  0.3276  0.5682
  266MOL0     O35778   0.414   7.733   8.664 -0.5265  0.1841 -1.1501
  266MOL0     C35779   0.317   7.740   8.767 -0.1956 -0.2795  0.1504
  266MOL0     C35780   0.206   7.824   8.762 -0.6759 -0.4896 -0.0247
  266MOL0     C35781   0.099   7.813   8.851  0.5402  0.5381  0.1722
  266MOL0     C35782   0.105   7.712   8.950 -0.3068 -0.3444  0.3992
  266MOL0     O35783   0.006   7.673   9.038  0.7530 -0.0739  0.0234
  266MOL0     C35784  -0.125   7.731   9.024 -1.0560 -0.6596  0.4343
  266MOL0     C35785  -0.220   7.644   9.118 -0.0687 -0.8243 -0.9103
  266MOL0     C35786  -0.361   7.683   9.092  0.0592 -0.5016  0.6070
  266MOL0     C35787  -0.453   7.616   9.196  0.6034  0.4485 -0.0679
  266MOL0     C35788  -0.445   7.681   9.329 -0.3350  0.3917 -1.0545
  266MOL0     C35789  -0.576   7.679   9.417  0.8352 -1.1497  0.6051
  266MOL0     C35790  -0.584   7.530   9.466  0.9037 -1.1794 -0.9507
  266MOL0     C35791  -0.731   7.487   9.464  0.1797 -0.4216  0.4210
  266MOL0     N35792  -0.821   7.587   9.536 -0.8591  0.6375 -0.4998
  266MOL0     C35793  -0.920   7.657   9.479  0.1903 -1.0991 -0.3652
  266MOL0     C35794  -0.981   7.729   9.570 -0.2061 -1.2646  0.1696
  266MOL0     C35795  -1.089   7.832   9.542 -0.0938 -0.7345  0.5659
  266MOL0     C35796  -1.213   7.832   9.632 -0.1941 -0.1632  0.3965
  266MOL0     C35797  -1.315   7.931   9.593 -0.1132  0.7390  0.0157
  266MOL0     C35798  -1.450   7.891   9.655  0.0464  0.5079 -0.2550
  266MOL0     O35799  -1.477   7.944   9.789 -0.1291  0.1668  1.2592
  266MOL0     C35800  -1.606   7.984   9.816 -0.1714 -0.4371  0.7610
  266MOL0     C35801  -1.717   7.938   9.749  0.0010  0.0231  0.0099
  266MOL0     C35802  -1.851   7.974   9.789 -1.3263 -0.7827 -0.0289
  266MOL0     C35803  -1.860   8.073   9.892  0.1230 -0.6435 -0.3336
  266MOL0     C35804  -1.993   8.110   9.937 -0.0091 -1.0658  0.3457
  266MOL0     O35805  -2.020   8.230  10.004  0.4024 -0.2075 -0.3093
  266MOL0     C35806  -2.107   8.227  10.111  0.8772  0.4014 -0.4854
  266MOL0     C35807  -2.242   8.205  10.078 -0.0554 -0.5539 -0.1226
  266MOL0     C35808  -2.338   8.201  10.184 -0.8181  0.7288 -0.3394
  266MOL0     C35809  -2.297   8.234  10.319 -0.6667  0.4610  0.1439
  266MOL0     O35810  -2.397   8.242  10.408 -0.8013  0.8853  0.6026
  266MOL0     C35811  -2.399   8.353  10.495  0.8755 -0.5782  0.1697
  266MOL0     C35812  -2.536   8.379  10.559 -0.0448 -0.1817 -0.3928
  266MOL0     C35813  -2.557   8.267  10.665  0.0092  0.4718  0.2760
  266MOL0     C35814  -2.674   8.307  10.756  0.0036 -0.3718  0.5126
  266MOL0     C35815  -2.715   8.209  10.874 -0.7286 -0.1340  0.6376
  266MOL0     C35816  -2.747   8.075  10.831 -0.5138 -0.1830 -0.8786
  266MOL0     C35817  -2.874   8.070  10.749  0.0786 -0.5970 -0.6102
  266MOL0     C35818  -2.854   8.073  10.603 -0.3667 -0.1407  1.0374
  266MOL0    Cl35819  -2.786   7.923  10.540  0.2197 -0.0436  0.0424
  266MOL0     C35820  -2.158   8.247  10.343 -0.7874  0.2597 -0.4255
  266MOL0     C35821  -2.064   8.241  10.242  0.1682 -1.3164 -0.2561
  266MOL0     O35822  -2.071   8.018   9.934  0.0171  0.1977 -0.5269
  266MOL0     C35823  -1.740   8.130   9.942  0.1960  0.4858 -0.1138
  266MOL0     C35824  -1.614   8.077   9.917  0.3124  0.8102  0.3425
  266MOL0     N35825  -0.916   7.698   9.685  0.3077 -0.7850 -0.2369
  266MOL0     N35826  -0.817   7.622   9.666  0.5672 -0.1572  0.7235
  266MOL0     C35827   0.223   7.641   8.963 -0.3535  0.1755 -0.4811
  266MOL0     C35828   0.337   7.654   8.884 -0.1623 -0.2501 -0.5038
  266MOL0     C35829   0.626   7.761   8.558  0.1460 -0.3554  0.0167
  266MOL0     C35830   0.550   7.770   8.436 -0.1781 -0.4323 -0.8513
  266MOL0     C35831   0.624   7.778   8.321  0.3270  0.6771 -0.3684
  266MOL0     C35832   0.759   7.789   8.311  0.4619 -0.0570 -0.4809
  266MOL0     O35833   0.803   7.820   8.190  0.2478 -0.7375  0.3207
  266MOL0     C35834   0.941   7.856   8.171 -0.1724  0.7062 -0.4876
  266MOL0     C35835   0.962   7.895   8.024 -0.1162 -0.1687 -0.5674
  266MOL0     C35836   0.925   8.050   7.998  0.2732 -0.4316 -0.6439
  266MOL0     C35837   0.998   8.108   7.874  0.6776  0.0890 -0.0513
  266MOL0     C35838   0.957   8.046   7.748  0.0802 -0.2082 -0.4763
  266MOL0     C35839   0.917   8.000   7.648 -0.0070  0.0945  0.7658
  266MOL0     C35840   0.828   7.783   8.434 -0.3539 -0.5360  0.1281
  266MOL0     C35841   0.771   7.768   8.556 -0.7453  0.0072  0.1336
  266MOL0     C35842   0.852   7.766   8.682  0.0482 -0.2974 -0.1454
  266MOL0     H35843   0.203   7.896   8.681 -2.8189  1.6323  1.8045
  266MOL0     H35844   0.019   7.884   8.834 -1.9386 -2.3085 -0.8769
  266MOL0     H35845  -0.139   7.833   9.063 -0.3362 -1.5146  3.1867
  266MOL0     H35846  -0.170   7.728   8.924 -2.0416 -0.3122  0.8475
  266MOL0     H35847  -0.186   7.647   9.222  1.0045 -1.2367 -1.2310
  266MOL0     H35848  -0.207   7.542   9.081  1.0072 -1.2513  0.5561
  266MOL0     H35849  -0.375   7.645   8.990 -0.7123  2.3631 -0.4497
  266MOL0     H35850  -0.385   7.789   9.079 -3.2893 -1.3333 -1.0025
  266MOL0     H35851  -0.555   7.634   9.162 -0.3335 -1.2587  1.6256
  266MOL0     H35852  -0.425   7.512   9.217 -0.6124  0.5264  2.3067
  266MOL0     H35853  -0.359   7.637   9.380  0.9282  1.4592 -2.1916
  266MOL0     H35854  -0.423   7.787   9.314 -0.0368  0.2036 -2.0719
  266MOL0     H35855  -0.576   7.749   9.501 -0.7363 -0.1926 -0.1358
  266MOL0     H35856  -0.655   7.716   9.352  1.2028  0.4446  1.0304
  266MOL0     H35857  -0.558   7.534   9.572  2.2531 -3.7761 -1.1059
  266MOL0     H35858  -0.511   7.463   9.419  2.3543 -0.5995  0.3623
  266MOL0     H35859  -0.760   7.474   9.359 -0.4676 -0.7279  0.6254
  266MOL0     H35860  -0.741   7.395   9.523  1.5103  3.0331  6.9437
  266MOL0     H35861  -0.954   7.658   9.376 -1.5797  0.0946  0.1735
  266MOL0     H35862  -1.050   7.932   9.565  1.5699 -1.2603  0.2020
  266MOL0     H35863  -1.120   7.825   9.437 -0.5490 -0.8593  0.7076
  266MOL0     H35864  -1.249   7.731   9.610 -0.0919 -0.0692 -0.2056
  266MOL0     H35865  -1.182   7.846   9.736 -2.4640 -2.7417  1.5744
  266MOL0     H35866  -1.314   7.928   9.484 -1.2799 -1.1488  0.0059
  266MOL0     H35867  -1.297   8.030   9.635 -0.8890  0.1085  1.9458
  266MOL0     H35868  -1.439   7.782   9.657 -1.0354  0.3908 -0.1745
  266MOL0     H35869  -1.522   7.915   9.577  0.4027  0.6833 -0.5333
  266MOL0     H35870  -1.707   7.873   9.663  0.6550 -1.5802  1.2416
  266MOL0     H35871  -1.945   7.946   9.742 -1.6671  0.6799 -0.2628
  266MOL0     H35872  -2.267   8.182   9.975 -0.4500  0.3839 -0.2490
  266MOL0     H35873  -2.443   8.175  10.174 -0.4165 -1.8949  1.1066
  266MOL0     H35874  -2.326   8.334  10.574  2.3408 -1.8202 -1.4152
  266MOL0     H35875  -2.375   8.440  10.433  3.9839  0.0246  1.9801
  266MOL0     H35876  -2.539   8.478  10.605  0.3469 -1.3514  2.3830
  266MOL0     H35877  -2.610   8.380  10.479  1.3390  0.5427 -1.7233
  266MOL0     H35878  -2.581   8.171  10.618  2.3144 -1.7189  3.1150
  266MOL0     H35879  -2.468   8.247  10.727 -0.1787  1.0592  0.7356
  266MOL0     H35880  -2.757   8.332  10.689  0.6379 -1.1050 -0.5746
  266MOL0     H35881  -2.647   8.398  10.810  0.1331 -0.4811  0.6348
  266MOL0     H35882  -2.802   8.259  10.917 -1.2515  2.0003 -2.5255
  266MOL0     H35883  -2.625   8.200  10.935 -0.9165 -0.0510  0.9236
  266MOL0     H35884  -2.656   8.030  10.788  1.0412 -0.5697  2.4975
  266MOL0     H35885  -2.762   8.018  10.923 -1.9767  1.2255 -0.2090
  266MOL0     H35886  -2.937   8.157  10.770  2.4304  0.7941  1.2051
  266MOL0     H35887  -2.922   7.975  10.773 -0.5341  0.0697  0.9180
  266MOL0     H35888  -2.954   8.095  10.563 -0.6674 -3.3247 -0.1996
  266MOL0     H35889  -2.788   8.157  10.580 -0.9359  0.5854  1.9397
  266MOL0     H35890  -2.151   8.247  10.451 -1.2836  2.4587 -0.3556
  266MOL0     H35891  -1.959   8.218  10.256 -0.1065 -3.5468 -1.5203
  266MOL0     H35892  -1.753   8.212  10.012 -3.6151 -1.9126  2.3490
  266MOL0     H35893  -1.524   8.125   9.955  1.4979 -1.6257  0.8194
  266MOL0     H35894   0.226   7.567   9.042 -1.8070  1.1529  0.5443
  266MOL0     H35895   0.426   7.593   8.895 -0.3271 -0.4140 -0.0451
  266MOL0     H35896   0.441   7.761   8.436 -0.2994  0.5664  1.1198
  266MOL0     H35897   0.575   7.780   8.224  0.5911  0.0295 -0.5177
  266MOL0     H35898   1.003   7.767   8.184  0.9170  1.5748  0.3624
  266MOL0     H35899   0.970   7.929   8.246 -1.9019  1.9307 -0.9526
  266MOL0     H35900   0.891   7.834   7.968 -3.6226  1.6337  1.5290
  266MOL0     H35901   1.064   7.872   7.993 -0.3489 -3.1724  0.5871
  266MOL0     H35902   0.947   8.111   8.085 -1.6774 -0.5599 -0.0307
  266MOL0     H35903   0.817   8.056   8.010  0.3050 -3.3484  2.8899
  266MOL0     H35904   0.971   8.214   7.876  0.3111  0.0088 -0.6179
  266MOL0     H35905   1.108   8.106   7.875  0.6751 -0.2138 -0.0615
  266MOL0     H35906   0.860   7.963   7.566 -3.4217 -0.2900  3.1053
  266MOL0     H35907   0.936   7.786   8.420 -0.4874 -0.6965 -1.0209
  266MOL0     H35908   0.832   7.673   8.737  0.9675 -1.5347 -1.7876
  266MOL0     H35909   0.959   7.781   8.668 -0.3478  1.7372 -1.3910
  266MOL0     H35910   0.827   7.853   8.742  2.0059  2.3944 -2.9439
  267MOL0     O35911  10.192   6.684   8.497  0.9446 -0.3480  0.5030
  267MOL0     C35912  10.303   6.691   8.450 -0.3614  0.0398 -0.0693
  267MOL0     O35913  10.333   6.635   8.328 -0.1245 -0.2826 -0.6073
  267MOL0     C35914  10.243   6.557   8.261 -0.4226 -0.1223  0.9485
  267MOL0     C35915  10.254   6.418   8.226 -0.1614  0.2534 -0.0604
  267MOL0     C35916  10.169   6.344   8.146 -0.3078  0.6700 -0.6097
  267MOL0     C35917  10.041   6.401   8.106  0.3354 -0.0382 -0.5007
  267MOL0     O35918   9.935   6.332   8.044 -0.7597  0.2243  0.0159
  267MOL0     C35919   9.874   6.401   7.924  0.5826  0.2095 -0.1397
  267MOL0     C35920   9.773   6.302   7.862  0.2005  0.4215 -0.1223
  267MOL0     C35921   9.676   6.380   7.763 -0.2589  0.3487  0.4081
  267MOL0     C35922   9.527   6.379   7.794  0.7229  0.4131  0.1576
  267MOL0     C35923   9.489   6.479   7.903 -0.0706 -0.5824 -1.0653
  267MOL0     C35924   9.424   6.612   7.843  1.1874 -0.1870  0.4480
  267MOL0     C35925   9.371   6.705   7.958  0.6754 -0.7449 -0.6512
  267MOL0     C35926   9.303   6.818   7.886  0.3317 -0.2044 -0.1259
  267MOL0     N35927   9.252   6.919   7.982 -0.8758 -0.1425 -0.2525
  267MOL0     C35928   9.324   6.961   8.093  0.4414  0.8015 -0.7543
  267MOL0     C35929   9.240   7.054   8.149  0.9728 -0.3563  0.4883
  267MOL0     C35930   9.264   7.132   8.281  1.0954  1.5244  0.1098
  267MOL0     C35931   9.270   7.043   8.407  0.0794 -0.0045  0.4996
  267MOL0     C35932   9.134   6.984   8.442 -0.4279 -0.8284 -0.4597
  267MOL0     C35933   9.153   6.880   8.550 -0.3304 -0.2638  0.9338
  267MOL0     O35934   9.025   6.858   8.605  0.2678 -0.0359 -0.2233
  267MOL0     C35935   9.009   6.771   8.710 -0.6268 -0.8358  0.1965
  267MOL0     C35936   8.883   6.743   8.756  0.6815 -0.1399 -0.1272
  267MOL0     C35937   8.854   6.671   8.872  0.1653  0.2908  0.1621
  267MOL0     C35938   8.958   6.604   8.937  0.5161 -0.3274  0.8788
  267MOL0     C35939   8.941   6.528   9.067 -0.5991 -0.0789  0.8812
  267MOL0     O35940   9.048   6.528   9.154 -0.0451 -0.1047  0.5887
  267MOL0     C35941   9.064   6.422   9.244 -0.3461  0.4980 -0.1037
  267MOL0     C35942   9.159   6.441   9.350 -0.7354  0.3558 -0.3252
  267MOL0     C35943   9.180   6.348   9.456  1.8948  1.0518 -1.0416
  267MOL0     C35944   9.108   6.226   9.456  0.6372  0.3052  0.3566
  267MOL0     O35945   9.118   6.124   9.548 -0.2954  0.4446  0.5454
  267MOL0     C35946   9.256   6.113   9.597 -0.1404  0.0396 -0.6053
  267MOL0     C35947   9.285   5.983   9.648 -0.3181  0.0845 -0.7077
  267MOL0     C35948   9.244   5.874   9.547 -1.2036  1.0238  0.6303
  267MOL0     C35949   9.260   5.727   9.608  0.0944 -0.3499 -0.2937
  267MOL0     C35950   9.140   5.683   9.690  0.1124  0.1976 -0.3464
  267MOL0     C35951   9.157   5.552   9.761 -0.3319 -0.4629 -0.1978
  267MOL0     C35952   9.030   5.502   9.844 -0.1325  0.8233  0.6030
  267MOL0     C35953   8.978   5.595   9.952 -0.3717 -0.1467 -0.3258
  267MOL0    Cl35954   9.087   5.591  10.096  0.0360 -0.2708  0.0088
  267MOL0     C35955   9.014   6.201   9.354 -0.2860 -0.4351  0.1758
  267MOL0     C35956   8.989   6.297   9.244 -0.0735 -0.1184 -0.0103
  267MOL0     O35957   8.830   6.494   9.094 -0.5286  0.3397 -0.1680
  267MOL0     C35958   9.084   6.620   8.885  0.0109 -0.7356 -1.0805
  267MOL0     C35959   9.112   6.710   8.777 -0.0246  0.4207  0.4277
  267MOL0     N35960   9.120   7.054   8.073 -0.4476  1.4071 -0.7908
  267MOL0     N35961   9.133   6.978   7.963  0.6986  0.7641 -0.3885
  267MOL0     C35962  10.025   6.540   8.137  0.6662  0.1461 -0.1122
  267MOL0     C35963  10.125   6.614   8.207  0.4115  0.6671 -0.6995
  267MOL0     C35964  10.414   6.759   8.526  0.0969 -0.4543  0.6777
  267MOL0     C35965  10.533   6.789   8.457 -0.7587  0.1050  1.0995
  267MOL0     C35966  10.641   6.846   8.524  0.9148  0.1385  0.3943
  267MOL0     C35967  10.641   6.866   8.662  0.2789  0.1274  0.1389
  267MOL0     O35968  10.746   6.933   8.729 -0.7618  0.0751  0.7750
  267MOL0     C35969  10.849   6.835   8.769 -0.1426  0.0499  0.1452
  267MOL0     C35970  10.910   6.866   8.901  0.8706  0.0592  0.3174
  267MOL0     C35971  10.943   7.015   8.917  0.1873  0.3388  0.0003
  267MOL0     C35972  11.057   7.069   8.831 -0.5320 -0.0882 -0.4087
  267MOL0     C35973  11.120   7.189   8.898 -1.0983 -0.3869 -0.6727
  267MOL0     C35974  11.163   7.292   8.944 -0.7213  0.4229 -0.8991
  267MOL0     C35975  10.525   6.838   8.732  0.1527  1.3419 -0.4307
  267MOL0     C35976  10.409   6.783   8.677 -0.7070  0.1532 -0.4809
  267MOL0     C35977  10.296   6.726   8.764  0.7764 -0.5489 -0.5500
  267MOL0     H35978  10.343   6.364   8.258 -1.7881 -2.8273 -0.3883
  267MOL0     H35979  10.199   6.241   8.127 -0.2962  0.6155 -0.2985
  267MOL0     H35980   9.815   6.489   7.953 -2.7471 -1.7907 -0.2637
  267MOL0     H35981   9.954   6.427   7.854 -1.0689  0.9218 -1.8511
  267MOL0     H35982   9.703   6.260   7.934 -1.7695  0.2850 -1.9920
  267MOL0     H35983   9.824   6.220   7.811 -1.6070 -1.7312  1.3736
  267MOL0     H35984   9.678   6.327   7.668  0.7275  2.6027 -0.9030
  267MOL0     H35985   9.713   6.481   7.740 -1.2679  0.5681 -0.3274
  267MOL0     H35986   9.466   6.403   7.706  0.3248 -0.2782  0.2368
  267MOL0     H35987   9.490   6.279   7.818  5.7989 -1.4563  1.2770
  267MOL0     H35988   9.415   6.438   7.972 -1.2941 -0.7165 -2.4237
  267MOL0     H35989   9.575   6.493   7.969 -0.8263 -2.5264  0.4116
  267MOL0     H35990   9.503   6.661   7.786  1.0120 -2.8948 -2.3951
  267MOL0     H35991   9.342   6.606   7.772  0.2518  4.7356  0.7609
  267MOL0     H35992   9.443   6.731   8.036 -0.8472  0.2543  0.4878
  267MOL0     H35993   9.302   6.653   8.024  1.0213 -0.4212 -0.0271
  267MOL0     H35994   9.367   6.864   7.810 -1.2346  0.6703 -0.9727
  267MOL0     H35995   9.219   6.771   7.834  0.9122  0.0127 -1.2855
  267MOL0     H35996   9.411   6.916   8.139 -1.7076 -2.1343  0.7986
  267MOL0     H35997   9.365   7.170   8.264  0.3050  2.5072 -3.2315
  267MOL0     H35998   9.206   7.223   8.298  0.1889  1.5604 -2.6350
  267MOL0     H35999   9.342   6.962   8.390 -0.2267 -0.5506  1.7147
  267MOL0     H36000   9.318   7.098   8.488  2.1339  0.7710 -1.1285
  267MOL0     H36001   9.091   6.931   8.356 -2.2923 -0.2296  0.0616
  267MOL0     H36002   9.073   7.066   8.480 -1.0138 -2.0190  1.3273
  267MOL0     H36003   9.223   6.914   8.628 -0.2902 -0.2379  0.8871
  267MOL0     H36004   9.209   6.796   8.509 -0.9335 -1.4249  2.3971
  267MOL0     H36005   8.794   6.777   8.705 -0.0683  2.6237  2.6846
  267MOL0     H36006   8.755   6.663   8.915 -0.0837  0.4947 -0.3779
  267MOL0     H36007   9.224   6.528   9.351 -0.8957  0.4758 -0.3338
  267MOL0     H36008   9.244   6.374   9.540  1.7246  2.4761 -1.3332
  267MOL0     H36009   9.324   6.142   9.516  1.0475  1.4028  0.8227
  267MOL0     H36010   9.272   6.190   9.673  0.6778 -0.6795 -0.0278
  267MOL0     H36011   9.382   5.958   9.691 -0.7156 -1.3949 -0.6202
  267MOL0     H36012   9.220   5.968   9.735 -1.9982  3.3852 -1.2131
  267MOL0     H36013   9.139   5.877   9.517 -1.7522 -0.7121  2.1761
  267MOL0     H36014   9.295   5.900   9.454 -0.5309  1.8436  1.2185
  267MOL0     H36015   9.345   5.713   9.676 -0.5730 -1.9123  0.2703
  267MOL0     H36016   9.271   5.664   9.519 -1.5256  0.1522 -0.8823
  267MOL0     H36017   9.050   5.686   9.628 -0.6220  0.0097  0.6853
  267MOL0     H36018   9.141   5.767   9.760  0.3652  0.7637 -1.0131
  267MOL0     H36019   9.168   5.470   9.689  0.7597 -0.2973 -0.2289
  267MOL0     H36020   9.245   5.549   9.826  0.6446 -1.3598 -1.5043
  267MOL0     H36021   9.055   5.406   9.891  1.6781  1.0265  0.1196
  267MOL0     H36022   8.947   5.496   9.773  0.5935  0.4782 -0.2430
  267MOL0     H36023   8.959   5.700   9.925 -0.7020  0.9809  3.6464
  267MOL0     H36024   8.885   5.556   9.994  0.3525 -0.9027  0.6136
  267MOL0     H36025   8.960   6.107   9.353 -3.4549  1.2377 -0.7189
  267MOL0     H36026   8.917   6.268   9.168  2.3813  0.5598 -2.8084
  267MOL0     H36027   9.167   6.587   8.947  0.8080  4.0312  0.8308
  267MOL0     H36028   9.213   6.735   8.743 -1.0232  1.3716 -2.0702
  267MOL0     H36029   9.939   6.604   8.122  2.8945  2.6511 -3.7999
  267MOL0     H36030  10.091   6.714   8.228 -1.8088  0.3503 -2.3917
  267MOL0     H36031  10.542   6.771   8.351  0.2598  1.7391  0.8622
  267MOL0     H36032  10.731   6.880   8.473 -0.3216  1.5639 -0.9428
  267MOL0     H36033  10.926   6.836   8.691 -0.9227 -0.8438 -0.6653
  267MOL0     H36034  10.820   6.730   8.781  1.6374 -0.1488  5.3704
  267MOL0     H36035  11.007   6.818   8.913  1.3848  1.1853  0.7740
  267MOL0     H36036  10.844   6.830   8.980  2.1027  1.0471  1.8602
  267MOL0     H36037  10.988   7.026   9.016 -0.2237  0.8247  0.1366
  267MOL0     H36038  10.854   7.078   8.910  0.6787  1.0823  0.3617
  267MOL0     H36039  11.138   6.996   8.827  3.0577  3.3131  2.2151
  267MOL0     H36040  11.016   7.088   8.732 -1.8875 -1.7934 -0.2144
  267MOL0     H36041  11.210   7.380   8.982 -1.6153 -0.2967  2.1809
  267MOL0     H36042  10.524   6.860   8.838  1.0492  0.6392 -0.2656
  267MOL0     H36043  10.192   6.753   8.747  0.9123  0.4645  0.1136
  267MOL0     H36044  10.308   6.618   8.754  1.2359 -0.3070 -3.3080
  267MOL0     H36045  10.312   6.752   8.869 -1.6597 -2.0845  0.2821
  268MOL0     O36046   0.269   3.981   5.616  0.8305  0.2401 -0.2819
  268MOL0     C36047   0.217   3.998   5.503 -0.1014  0.2493  0.4294
  268MOL0     O36048   0.241   3.915   5.388  0.3177 -0.2474  0.5638
  268MOL0     C36049   0.260   3.782   5.420 -0.3865 -0.5420  0.4858
  268MOL0     C36050   0.145   3.699   5.419 -0.4305 -0.7065  0.1188
  268MOL0     C36051   0.158   3.564   5.457 -0.1557  0.6928 -0.3898
  268MOL0     C36052   0.287   3.513   5.479 -0.8329  0.2373  0.0375
  268MOL0     O36053   0.304   3.377   5.497 -0.3264 -1.1854  0.7905
  268MOL0     C36054   0.413   3.322   5.424 -0.0273 -0.8679 -0.7266
  268MOL0     C36055   0.400   3.174   5.405 -0.1195 -0.3274 -0.0442
  268MOL0     C36056   0.276   3.127   5.321  0.0839 -0.2382  0.4495
  268MOL0     C36057   0.302   3.142   5.178 -0.4820 -0.6538 -0.4772
  268MOL0     C36058   0.175   3.109   5.093 -0.0980  0.0145  0.9074
  268MOL0     C36059   0.226   3.084   4.948 -0.5497 -0.0101 -0.1097
  268MOL0     C36060   0.127   3.042   4.841 -0.2189 -0.9675 -0.0350
  268MOL0     C36061   0.171   3.068   4.701 -0.1247  0.3820 -0.3842
  268MOL0     N36062   0.240   2.956   4.639 -0.2161 -0.4574  0.3981
  268MOL0     C36063   0.365   2.909   4.677 -0.6822  0.5281 -0.8310
  268MOL0     C36064   0.394   2.806   4.600 -0.5458 -0.0159  0.6557
  268MOL0     C36065   0.524   2.728   4.595 -0.5487  0.0474  0.6292
  268MOL0     C36066   0.511   2.606   4.672 -0.7019 -0.2483 -1.2116
  268MOL0     C36067   0.628   2.511   4.666  1.0774 -0.5746  0.6394
  268MOL0     C36068   0.641   2.405   4.770 -0.7672  0.1193  0.1145
  268MOL0     O36069   0.670   2.491   4.883 -0.0581  0.4598  0.0050
  268MOL0     C36070   0.794   2.504   4.940 -0.6211 -0.1273  0.0315
  268MOL0     C36071   0.897   2.419   4.923  0.0081  0.2449  0.2907
  268MOL0     C36072   1.007   2.422   5.001  0.0306  0.2012 -0.5478
  268MOL0     C36073   1.019   2.519   5.106  0.7863 -1.0914  0.0818
  268MOL0     C36074   1.143   2.539   5.187 -0.0170  0.8404  0.2488
  268MOL0     O36075   1.256   2.490   5.136 -0.2175  0.3199 -0.9632
  268MOL0     C36076   1.378   2.514   5.195 -0.7389  0.0692  0.0420
  268MOL0     C36077   1.469   2.599   5.125  0.4217 -0.7435  0.2733
  268MOL0     C36078   1.591   2.622   5.188  0.1858 -0.5822  0.0942
  268MOL0     C36079   1.630   2.560   5.307 -0.6260  0.0158  0.0395
  268MOL0     O36080   1.765   2.580   5.336  0.0609 -0.2099  0.0139
  268MOL0     C36081   1.833   2.499   5.436  0.8168 -0.0624  0.3200
  268MOL0     C36082   1.870   2.590   5.556 -0.3695 -0.2212  0.9434
  268MOL0     C36083   2.017   2.600   5.589 -0.0665 -0.7360  0.0862
  268MOL0     C36084   2.083   2.466   5.642 -0.2231  0.0554 -0.5349
  268MOL0     C36085   2.230   2.466   5.612  0.4631  0.2589 -0.0443
  268MOL0     C36086   2.297   2.336   5.659  0.8058  0.3198 -0.6813
  268MOL0     C36087   2.449   2.320   5.628  0.2931 -0.7729  0.3522
  268MOL0     C36088   2.515   2.201   5.687  1.0463  0.6286  0.1654
  268MOL0    Cl36089   2.481   2.189   5.863  0.0524 -0.0532  0.1573
  268MOL0     C36090   1.534   2.493   5.382 -0.3729  0.7069 -0.4918
  268MOL0     C36091   1.415   2.461   5.317  0.1788 -0.3875 -0.1169
  268MOL0     O36092   1.138   2.616   5.286  0.6964 -0.6237 -0.0816
  268MOL0     C36093   0.924   2.622   5.113 -0.8540  0.0967 -0.1774
  268MOL0     C36094   0.804   2.606   5.035 -0.6757 -0.4011 -0.2556
  268MOL0     N36095   0.295   2.788   4.507  0.2145  0.8138  0.3587
  268MOL0     N36096   0.204   2.885   4.523 -0.1261 -0.2165 -0.7205
  268MOL0     C36097   0.397   3.597   5.485  0.0544  0.5235  0.5967
  268MOL0     C36098   0.385   3.732   5.459 -0.0016 -0.3784 -0.9448
  268MOL0     C36099   0.103   4.102   5.512 -0.5148  0.0200 -0.0191
  268MOL0     C36100   0.084   4.180   5.623  0.4017  0.0911 -0.0364
  268MOL0     C36101  -0.013   4.272   5.643  0.4368  0.4805  0.3171
  268MOL0     C36102  -0.110   4.292   5.543 -0.7068  0.0577  0.3861
  268MOL0     O36103  -0.196   4.398   5.542 -0.5281  0.4392 -0.3351
  268MOL0     C36104  -0.212   4.481   5.660  0.8997  1.4777  0.5805
  268MOL0     C36105  -0.110   4.603   5.664 -0.0612  0.2699  0.9396
  268MOL0     C36106  -0.128   4.692   5.788 -0.4593  0.3083  0.3450
  268MOL0     C36107  -0.164   4.837   5.755 -0.6887 -0.0695  0.1489
  268MOL0     C36108  -0.070   4.930   5.817 -0.0583 -0.6887 -1.2597
  268MOL0     C36109   0.001   4.998   5.881 -0.5417 -0.0861  0.1239
  268MOL0     C36110  -0.092   4.230   5.423 -0.0183 -0.3350  0.8511
  268MOL0     C36111   0.019   4.144   5.401  0.4841  0.6000 -0.0351
  268MOL0     C36112   0.036   4.074   5.267 -0.1791 -0.0328  0.1422
  268MOL0     H36113   0.046   3.740   5.401  0.3136  1.0507 -0.1344
  268MOL0     H36114   0.068   3.504   5.460  0.5902 -0.4933 -0.8615
  268MOL0     H36115   0.418   3.358   5.321  3.9916  1.0442 -0.0695
  268MOL0     H36116   0.510   3.345   5.468  0.1489  0.2900 -1.6682
  268MOL0     H36117   0.388   3.132   5.506  1.8077  1.0731  0.8327
  268MOL0     H36118   0.491   3.137   5.357  0.3228 -0.5740  0.9448
  268MOL0     H36119   0.192   3.194   5.344  1.2905  0.3181  3.7627
  268MOL0     H36120   0.243   3.026   5.344 -0.4241 -0.6527 -1.8201
  268MOL0     H36121   0.338   3.243   5.159  1.5766 -1.5215 -1.5611
  268MOL0     H36122   0.377   3.068   5.149 -1.0900 -0.8454 -1.6166
  268MOL0     H36123   0.113   3.027   5.127 -1.0491  0.8422  1.1943
  268MOL0     H36124   0.113   3.199   5.091  0.6621  0.5433  0.0570
  268MOL0     H36125   0.283   3.170   4.912  0.6482 -0.9238 -0.4773
  268MOL0     H36126   0.300   3.004   4.959 -1.4495 -0.6617  1.6746
  268MOL0     H36127   0.034   3.095   4.865  0.8075  0.5561  0.7401
  268MOL0     H36128   0.109   2.935   4.852 -0.4796 -0.8095  1.2052
  268MOL0     H36129   0.077   3.079   4.647 -0.4600 -0.0805  0.0916
  268MOL0     H36130   0.227   3.161   4.692 -2.2056  1.7315 -0.0115
  268MOL0     H36131   0.436   2.963   4.739  2.9829 -3.8971 -0.6341
  268MOL0     H36132   0.557   2.721   4.491  1.2851 -1.7820  1.2812
  268MOL0     H36133   0.599   2.794   4.640 -2.1367  0.3380  3.0897
  268MOL0     H36134   0.493   2.635   4.776  0.5867 -1.3549 -0.6523
  268MOL0     H36135   0.416   2.565   4.637 -0.5277 -0.6618 -1.2033
  268MOL0     H36136   0.720   2.569   4.661  0.5776  0.1976  0.2517
  268MOL0     H36137   0.607   2.462   4.570 -0.0443 -2.8066  1.9362
  268MOL0     H36138   0.720   2.332   4.748 -0.4772  0.8205 -1.2903
  268MOL0     H36139   0.544   2.354   4.780 -0.5566 -0.5906 -1.2206
  268MOL0     H36140   0.894   2.352   4.837 -0.2174 -1.2506  1.4253
  268MOL0     H36141   1.082   2.345   4.986  0.0752  0.2989 -0.8329
  268MOL0     H36142   1.438   2.651   5.035 -1.0187  0.8220  1.5962
  268MOL0     H36143   1.663   2.677   5.128  0.9218 -0.3071  1.2214
  268MOL0     H36144   1.769   2.415   5.464 -0.5339  1.3291  1.6629
  268MOL0     H36145   1.926   2.456   5.400  2.6918  2.0812  2.2734
  268MOL0     H36146   1.831   2.688   5.527  1.1679  0.2477  0.3674
  268MOL0     H36147   1.818   2.558   5.646  1.1389  1.9764  2.6915
  268MOL0     H36148   2.068   2.643   5.502  0.4348  0.4868  0.9654
  268MOL0     H36149   2.015   2.685   5.658 -0.9265  1.1699 -2.1428
  268MOL0     H36150   2.047   2.382   5.581  0.6279  0.1888 -1.2481
  268MOL0     H36151   2.057   2.453   5.747  2.3014 -3.2575 -0.1220
  268MOL0     H36152   2.278   2.551   5.660  0.1341 -0.8872  2.4447
  268MOL0     H36153   2.242   2.465   5.503  0.4009 -0.7862 -0.0569
  268MOL0     H36154   2.287   2.349   5.767 -1.1680  1.0393 -0.9231
  268MOL0     H36155   2.246   2.246   5.626 -1.8933  1.5210 -0.0329
  268MOL0     H36156   2.497   2.413   5.660  0.5822 -0.8748  0.2184
  268MOL0     H36157   2.455   2.311   5.519  2.9981  1.1096  0.2653
  268MOL0     H36158   2.469   2.109   5.650 -2.2143  0.8321  3.1449
  268MOL0     H36159   2.622   2.210   5.667  1.3340 -2.3220 -0.1293
  268MOL0     H36160   1.551   2.446   5.478 -2.0198 -0.1360 -0.5719
  268MOL0     H36161   1.341   2.400   5.366 -0.4801  0.2326 -0.3258
  268MOL0     H36162   0.915   2.698   5.190  0.7991  0.3150 -0.1714
  268MOL0     H36163   0.728   2.683   5.030 -0.5451 -0.3494 -1.9531
  268MOL0     H36164   0.496   3.560   5.512  0.0954  1.1318  1.3121
  268MOL0     H36165   0.474   3.792   5.472 -0.6607  0.3564  0.4349
  268MOL0     H36166   0.138   4.151   5.713  3.2175  2.8477 -0.6522
  268MOL0     H36167  -0.013   4.326   5.737  2.5699 -0.4928  0.9239
  268MOL0     H36168  -0.193   4.418   5.748  1.6439 -1.8128 -1.7303
  268MOL0     H36169  -0.316   4.514   5.654 -0.8865 -3.2533  1.0355
  268MOL0     H36170  -0.114   4.642   5.562  1.4514 -0.3250  0.6226
  268MOL0     H36171  -0.005   4.575   5.680  0.2471  0.0612 -1.1940
  268MOL0     H36172  -0.033   4.683   5.842 -1.0535 -2.2440  1.0984
  268MOL0     H36173  -0.201   4.647   5.857  0.4240 -2.3246 -0.3083
  268MOL0     H36174  -0.168   4.863   5.649 -0.4426  2.5911  0.7244
  268MOL0     H36175  -0.268   4.847   5.789 -1.5304  1.1005 -2.5087
  268MOL0     H36176   0.063   5.067   5.935 -2.4566  1.6796  0.1864
  268MOL0     H36177  -0.148   4.245   5.332  0.8397 -1.0717  0.1910
  268MOL0     H36178  -0.044   4.099   5.197  0.6455  0.7442 -0.5453
  268MOL0     H36179   0.131   4.099   5.220  0.2405 -2.9310 -0.7261
  268MOL0     H36180   0.028   3.966   5.285  2.2980 -0.9148 -3.0588
  269MOL0     O36181  10.854   6.252   8.882  0.1853 -0.2369  0.6120
  269MOL0     C36182  10.821   6.353   8.815 -0.5060 -0.4460 -1.4131
  269MOL0     O36183  10.893   6.462   8.797  0.3024  0.2693  0.3843
  269MOL0     C36184  11.010   6.483   8.868  0.1148  0.2834 -0.0160
  269MOL0     C36185  11.118   6.537   8.800  0.0304 -0.6870 -0.7783
  269MOL0     C36186  11.234   6.580   8.866  0.5753 -0.8105  0.5404
  269MOL0     C36187  11.245   6.572   9.006 -0.9062 -0.3089  0.9029
  269MOL0     O36188  11.364   6.592   9.057  0.0187  0.2795  0.0936
  269MOL0     C36189  11.369   6.588   9.200  0.0984  0.1425  0.2913
  269MOL0     C36190  11.515   6.611   9.234 -0.0318 -0.3886  0.5249
  269MOL0     C36191  11.598   6.489   9.182  0.7082 -0.0474 -0.1186
  269MOL0     C36192  11.742   6.490   9.227  0.3423  0.8671 -0.3289
  269MOL0     C36193  11.771   6.470   9.378 -0.0219 -0.3172 -0.0478
  269MOL0     C36194  11.916   6.430   9.407 -0.3592 -0.1349 -0.3547
  269MOL0     C36195  12.024   6.519   9.347  0.7983 -0.2340 -0.3522
  269MOL0     C36196  12.066   6.487   9.203  0.1909 -0.6069  0.1070
  269MOL0     N36197  12.164   6.593   9.160  0.5530 -0.3737  0.0068
  269MOL0     C36198  12.299   6.607   9.207  0.7561  0.1407  0.6668
  269MOL0     C36199  12.332   6.733   9.167  1.2182  0.2767 -1.2320
  269MOL0     C36200  12.467   6.786   9.180  0.3985  0.3385 -0.8584
  269MOL0     C36201  12.507   6.795   9.325 -0.2056 -0.0146 -0.2114
  269MOL0     C36202  12.647   6.877   9.346  0.3397  0.4647  0.2725
  269MOL0     C36203  12.754   6.835   9.239  0.2074  0.1472  0.2157
  269MOL0     O36204  12.770   6.699   9.213 -0.0403  0.5215 -0.6312
  269MOL0     C36205  12.802   6.622   9.322 -0.2238  0.7115 -0.5827
  269MOL0     C36206  12.860   6.653   9.445  0.2807  0.3760 -0.1652
  269MOL0     C36207  12.875   6.560   9.555 -0.6165 -0.2381  0.1289
  269MOL0     C36208  12.825   6.432   9.548 -0.0802  1.0448  0.3879
  269MOL0     C36209  12.857   6.341   9.653  1.3530  0.4710 -0.5008
  269MOL0     O36210  12.947   6.390   9.746 -0.0693 -0.5646 -0.7066
  269MOL0     C36211  12.948   6.336   9.877  0.4976  0.1874  0.9826
  269MOL0     C36212  12.830   6.313   9.947  0.1485  0.2438 -0.0294
  269MOL0     C36213  12.843   6.256  10.075  0.9248 -0.0195 -0.1013
  269MOL0     C36214  12.961   6.213  10.135 -0.4801  0.4165 -0.2702
  269MOL0     O36215  12.964   6.142  10.254 -0.2766  0.0322 -0.3860
  269MOL0     C36216  13.072   6.059  10.296  0.8982  0.3408 -0.8413
  269MOL0     C36217  13.036   5.985  10.421  0.8060  0.4886 -0.1996
  269MOL0     C36218  12.975   5.841  10.393 -0.1202  0.5985 -0.3480
  269MOL0     C36219  12.832   5.836  10.336  0.7356  1.5040  0.0433
  269MOL0     C36220  12.812   5.697  10.273 -0.2205 -0.1026 -0.3045
  269MOL0     C36221  12.821   5.581  10.379 -0.2234 -0.1420  0.7938
  269MOL0     C36222  12.808   5.454  10.305  0.9505  0.4264 -0.1614
  269MOL0     C36223  12.793   5.349  10.415  0.2543  0.3841  0.1286
  269MOL0    Cl36224  12.949   5.308  10.502 -0.3591  0.0451  0.7100
  269MOL0     C36225  13.076   6.235  10.062  0.1349 -0.1052  0.1600
  269MOL0     C36226  13.070   6.286   9.930 -0.4918  0.1932 -0.1637
  269MOL0     O36227  12.798   6.232   9.661  1.0262  0.0423  0.4889
  269MOL0     C36228  12.758   6.393   9.428 -0.1859  0.1855 -0.2173
  269MOL0     C36229  12.751   6.488   9.321 -0.1843 -0.1514  0.5090
  269MOL0     N36230  12.224   6.787   9.110  0.6068 -0.2223  0.5607
  269MOL0     N36231  12.122   6.712   9.107 -0.5111  0.9996  0.5044
  269MOL0     C36232  11.126   6.545   9.074  0.9599 -0.0715  0.6334
  269MOL0     C36233  11.009   6.495   9.009  0.4558 -0.2584  0.1822
  269MOL0     C36234  10.693   6.345   8.755 -0.6331  0.2378 -0.1807
  269MOL0     C36235  10.588   6.277   8.817 -0.0538 -0.7208 -0.9994
  269MOL0     C36236  10.462   6.267   8.771  0.3121  0.1891  0.2878
  269MOL0     C36237  10.425   6.324   8.644  0.6561  0.0686  0.3422
  269MOL0     O36238  10.303   6.303   8.581  0.9270 -0.4648 -0.0560
  269MOL0     C36239  10.213   6.220   8.650 -1.0583  0.1645  1.0555
  269MOL0     C36240  10.086   6.217   8.563 -0.9281 -0.6339 -0.5674
  269MOL0     C36241  10.006   6.089   8.594 -1.1849 -0.6243  1.0474
  269MOL0     C36242   9.872   6.062   8.506  0.0652 -0.2748 -0.4590
  269MOL0     C36243   9.888   6.076   8.368 -0.4594  0.0746 -0.6985
  269MOL0     C36244   9.905   6.100   8.249 -0.6378 -0.1593  0.0647
  269MOL0     C36245  10.526   6.387   8.574 -0.1010  1.0173  0.1789
  269MOL0     C36246  10.657   6.394   8.622 -0.8769 -0.2310 -0.7746
  269MOL0     C36247  10.768   6.451   8.534 -0.1896 -0.4398 -0.1783
  269MOL0     H36248  11.131   6.539   8.692  3.1564  0.3172 -0.4647
  269MOL0     H36249  11.309   6.623   8.801 -1.1361  0.3764 -0.7213
  269MOL0     H36250  11.314   6.672   9.243  0.2753  0.4351 -0.0414
  269MOL0     H36251  11.345   6.492   9.246  0.4211 -0.7146 -1.2409
  269MOL0     H36252  11.524   6.624   9.342 -2.0962  0.7778  0.6250
  269MOL0     H36253  11.550   6.709   9.200  1.5016 -0.7002  1.1357
  269MOL0     H36254  11.581   6.476   9.075 -1.1343 -1.2464  0.2760
  269MOL0     H36255  11.557   6.394   9.219 -0.4243 -0.0753 -1.3606
  269MOL0     H36256  11.789   6.412   9.166 -0.7290 -0.2611  0.2411
  269MOL0     H36257  11.781   6.587   9.195 -1.8937  1.3955 -1.6030
  269MOL0     H36258  11.745   6.552   9.446 -0.5864 -1.4800  1.2059
  269MOL0     H36259  11.713   6.382   9.410  1.7930 -1.7859 -0.6231
  269MOL0     H36260  11.935   6.438   9.514 -0.4599  3.0462 -0.4760
  269MOL0     H36261  11.933   6.327   9.375 -0.9038 -0.9176  1.7606
  269MOL0     H36262  12.112   6.507   9.410  0.6538 -4.4876 -0.6418
  269MOL0     H36263  11.991   6.621   9.364 -1.5562 -1.4359  3.6132
  269MOL0     H36264  12.102   6.384   9.197  0.2442 -0.6759  1.3547
  269MOL0     H36265  11.982   6.486   9.132  0.3496 -2.2593 -0.1015
  269MOL0     H36266  12.348   6.529   9.264  1.3904  0.5079  0.6364
  269MOL0     H36267  12.535   6.730   9.114  0.3038  1.4316 -1.9370
  269MOL0     H36268  12.475   6.889   9.144 -0.3684  1.0371  0.8726
  269MOL0     H36269  12.425   6.840   9.380 -1.3303  1.5044 -2.9399
  269MOL0     H36270  12.522   6.698   9.374  2.5956 -0.3715 -1.5336
  269MOL0     H36271  12.682   6.850   9.447 -0.8285  0.3636  0.6732
  269MOL0     H36272  12.622   6.983   9.334  0.5728  0.2968 -1.9245
  269MOL0     H36273  12.851   6.873   9.273  0.5567  0.5482 -1.1794
  269MOL0     H36274  12.729   6.881   9.143  0.9502  0.6630  0.2570
  269MOL0     H36275  12.884   6.758   9.449  0.4291  0.5043 -2.7281
  269MOL0     H36276  12.921   6.602   9.644  1.0848 -0.1380 -0.7539
  269MOL0     H36277  12.733   6.358   9.926  1.4533  2.6643 -1.3631
  269MOL0     H36278  12.747   6.246  10.125  1.4195  1.3087  1.1730
  269MOL0     H36279  13.093   5.982  10.222 -2.9463 -0.7769 -0.9747
  269MOL0     H36280  13.167   6.112  10.310 -0.4854  2.6246  0.4888
  269MOL0     H36281  13.124   5.976  10.485  2.8351  0.1838 -2.8620
  269MOL0     H36282  12.962   6.048  10.472 -0.3753  2.8088 -4.2904
  269MOL0     H36283  13.044   5.780  10.334  1.4780  1.8430  0.1439
  269MOL0     H36284  12.968   5.787  10.488  0.7474  1.1190  0.0274
  269MOL0     H36285  12.829   5.920  10.265  1.5752  1.0244 -0.5776
  269MOL0     H36286  12.760   5.861  10.414  1.1333  0.5201  0.7400
  269MOL0     H36287  12.877   5.683  10.186 -3.3873 -0.1204 -2.8150
  269MOL0     H36288  12.713   5.688  10.228 -1.7961  3.7788  1.9121
  269MOL0     H36289  12.908   5.572  10.444  0.3852 -0.7505 -0.0925
  269MOL0     H36290  12.743   5.604  10.452 -0.8304 -0.8198  0.3699
  269MOL0     H36291  12.893   5.436  10.240  0.3888 -2.1722 -0.2719
  269MOL0     H36292  12.716   5.453  10.245  1.5181 -0.6297 -1.0533
  269MOL0     H36293  12.706   5.371  10.477  0.9469 -1.8127  2.0288
  269MOL0     H36294  12.771   5.263  10.351 -1.5653 -0.1523  1.4065
  269MOL0     H36295  13.173   6.193  10.087 -0.1413 -3.1850 -3.1182
  269MOL0     H36296  13.154   6.281   9.862 -2.7417 -1.1937 -3.0738
  269MOL0     H36297  12.716   6.293   9.425 -0.0461  0.1064  0.3495
  269MOL0     H36298  12.698   6.456   9.232  2.6955 -1.4150 -0.8550
  269MOL0     H36299  11.111   6.548   9.182 -2.8617  1.5476  0.1937
  269MOL0     H36300  10.927   6.466   9.074  0.8216 -0.5582  0.5187
  269MOL0     H36301  10.609   6.244   8.919  1.1128  0.2966 -0.8943
  269MOL0     H36302  10.387   6.210   8.826 -1.3711  0.1668 -1.9053
  269MOL0     H36303  10.179   6.255   8.748 -0.6954 -0.0234  1.2495
  269MOL0     H36304  10.261   6.125   8.674 -1.1730  0.5103  2.8042
  269MOL0     H36305  10.113   6.211   8.457 -1.5963  4.6283 -1.3140
  269MOL0     H36306  10.032   6.312   8.563  0.7555  0.3882  1.0802
  269MOL0     H36307   9.987   6.110   8.700 -1.5040  1.8076  0.5620
  269MOL0     H36308  10.083   6.011   8.591  1.5462  1.9161 -0.1748
  269MOL0     H36309   9.815   5.974   8.538  1.4229 -0.7200  0.8468
  269MOL0     H36310   9.812   6.147   8.539 -0.2299  0.2080 -2.1563
  269MOL0     H36311   9.929   6.105   8.145  0.9362 -0.0449  0.4014
  269MOL0     H36312  10.494   6.408   8.472 -0.1415 -0.3316 -0.1043
  269MOL0     H36313  10.738   6.486   8.434 -3.2072  0.3190  0.8942
  269MOL0     H36314  10.807   6.539   8.587 -1.6804 -0.0304  0.2868
  269MOL0     H36315  10.852   6.383   8.524 -2.1334 -2.8375 -1.1848
  270MOL0     O36316  10.635   7.764   8.007  0.7648 -0.3135  0.5756
  270MOL0     C36317  10.742   7.709   7.998  0.2853  0.4291 -0.1377
  270MOL0     O36318  10.868   7.762   8.012  0.3578 -0.8206 -0.4742
  270MOL0     C36319  10.873   7.900   8.026  0.4853 -0.0313  0.0160
  270MOL0     C36320  10.896   7.980   7.912  0.2219  0.5136  0.0956
  270MOL0     C36321  10.909   8.121   7.924 -0.1093 -0.3712  0.1013
  270MOL0     C36322  10.877   8.180   8.048  0.6645 -0.2528 -0.2299
  270MOL0     O36323  10.870   8.317   8.048 -0.0924 -0.5168 -0.3561
  270MOL0     C36324  10.747   8.368   8.106 -0.0831 -0.3894  0.2444
  270MOL0     C36325  10.754   8.522   8.094 -0.7545  0.2759 -0.5941
  270MOL0     C36326  10.780   8.586   7.944  0.6747 -0.1223 -0.0911
  270MOL0     C36327  10.775   8.733   7.940  0.4732  0.6858  0.3223
  270MOL0     C36328  10.781   8.798   7.797 -0.1806  0.8214  0.4905
  270MOL0     C36329  10.918   8.787   7.720 -0.8603 -0.3439  0.4511
  270MOL0     C36330  11.041   8.806   7.811 -0.2176  0.1051  0.4406
  270MOL0     C36331  11.169   8.855   7.737 -0.3047  0.3983  0.3165
  270MOL0     N36332  11.234   8.749   7.648 -0.0527  1.0511 -0.9006
  270MOL0     C36333  11.190   8.716   7.526  0.5926  1.3921 -0.0139
  270MOL0     C36334  11.286   8.642   7.466 -0.0226  0.3802 -0.9526
  270MOL0     C36335  11.277   8.584   7.336 -0.5064  0.4237  0.3637
  270MOL0     C36336  11.362   8.659   7.246  0.1949 -0.1015 -1.0289
  270MOL0     C36337  11.372   8.598   7.107 -0.4327  0.6333  0.3938
  270MOL0     C36338  11.485   8.667   7.021  0.1864  0.2101  0.0576
  270MOL0     O36339  11.447   8.802   7.009 -0.6071  0.2921 -0.7504
  270MOL0     C36340  11.538   8.896   6.971  0.3094 -0.7432 -0.6340
  270MOL0     C36341  11.671   8.876   6.941 -0.7216 -0.1469  0.2905
  270MOL0     C36342  11.759   8.983   6.921 -0.0896 -0.1259  0.5993
  270MOL0     C36343  11.712   9.116   6.918 -0.0180 -0.6673 -0.0804
  270MOL0     C36344  11.798   9.227   6.889  0.3919 -0.1754  0.3649
  270MOL0     O36345  11.931   9.197   6.885  0.0175  0.1073 -0.8957
  270MOL0     C36346  12.017   9.299   6.866 -0.9753 -0.3799 -0.7408
  270MOL0     C36347  12.086   9.367   6.975  0.2336  0.4190  0.0164
  270MOL0     C36348  12.172   9.475   6.947  0.1403 -0.6706  0.4872
  270MOL0     C36349  12.194   9.510   6.814 -0.8260 -0.2140  0.7552
  270MOL0     O36350  12.291   9.607   6.804  0.0846 -0.5132  0.6037
  270MOL0     C36351  12.320   9.666   6.673  0.0156  0.5213 -0.1043
  270MOL0     C36352  12.458   9.742   6.688 -0.2318 -0.1497 -0.1144
  270MOL0     C36353  12.501   9.802   6.551  0.1148  0.6750 -0.3793
  270MOL0     C36354  12.621   9.890   6.560 -0.1663 -0.1879  0.1748
  270MOL0     C36355  12.759   9.835   6.594 -0.3776  0.9237 -0.6294
  270MOL0     C36356  12.874   9.923   6.552  0.2537 -0.1331 -0.2703
  270MOL0     C36357  13.011   9.847   6.546  0.0938  0.5777  0.2026
  270MOL0     C36358  13.128   9.933   6.588  0.0470  0.0859  0.0874
  270MOL0    Cl36359  13.193  10.005   6.448 -0.2268  0.4725  0.2310
  270MOL0     C36360  12.123   9.450   6.714  0.2375  0.2190  0.6861
  270MOL0     C36361  12.037   9.338   6.735 -0.2248 -0.0163  0.2374
  270MOL0     O36362  11.749   9.343   6.884  0.0600 -0.1908  0.2529
  270MOL0     C36363  11.572   9.132   6.915  0.2686  0.7578 -0.9585
  270MOL0     C36364  11.492   9.021   6.947  0.8369 -0.2439 -0.7518
  270MOL0     N36365  11.388   8.619   7.556 -0.6416  1.0062 -0.5683
  270MOL0     N36366  11.359   8.685   7.664 -1.0040 -0.0285 -0.1732
  270MOL0     C36367  10.847   8.105   8.160 -0.5192  0.7476 -0.4806
  270MOL0     C36368  10.866   7.961   8.154  0.3026  0.6292  0.2882
  270MOL0     C36369  10.738   7.561   7.974  0.0666  0.4288  0.0545
  270MOL0     C36370  10.632   7.491   8.025 -0.0091  0.1027  0.1455
  270MOL0     C36371  10.607   7.362   7.994  0.5146 -0.0630 -0.5998
  270MOL0     C36372  10.674   7.289   7.901 -1.5498 -0.7719  0.2816
  270MOL0     O36373  10.625   7.167   7.859  0.1567 -0.6387 -0.3854
  270MOL0     C36374  10.656   7.102   7.734  0.2563  0.4001  1.1721
  270MOL0     C36375  10.559   6.975   7.712 -0.2079 -0.1553 -0.1778
  270MOL0     C36376  10.418   7.004   7.731  0.0985  0.0211  1.8149
  270MOL0     C36377  10.331   6.881   7.710 -0.1130  0.3264  0.4156
  270MOL0     C36378  10.327   6.831   7.565  0.4703 -0.3395  0.3690
  270MOL0     C36379  10.317   6.786   7.451 -0.2295 -0.3790  0.8412
  270MOL0     C36380  10.792   7.354   7.853 -0.4168 -0.9294 -0.5141
  270MOL0     C36381  10.826   7.484   7.889  0.4151 -0.2027  0.3678
  270MOL0     C36382  10.943   7.536   7.809  0.3566 -0.1565 -1.0860
  270MOL0     H36383  10.909   7.931   7.817 -4.8736  0.1711 -0.6603
  270MOL0     H36384  10.938   8.182   7.839  0.8787  1.1375  1.4653
  270MOL0     H36385  10.665   8.331   8.044 -0.3514  1.5015 -0.5934
  270MOL0     H36386  10.744   8.356   8.215 -4.3997 -0.1151  0.3388
  270MOL0     H36387  10.828   8.556   8.166 -3.0731 -1.5098  2.9113
  270MOL0     H36388  10.657   8.565   8.120  0.5624  2.8894  0.3312
  270MOL0     H36389  10.697   8.552   7.883 -0.5173 -1.1861  2.0189
  270MOL0     H36390  10.874   8.552   7.898 -1.4829 -3.5598 -2.4052
  270MOL0     H36391  10.680   8.774   7.977  0.4996  1.4308 -0.4018
  270MOL0     H36392  10.851   8.778   8.004  1.2086  0.2285 -0.2077
  270MOL0     H36393  10.705   8.752   7.732 -0.1090 -0.8289  1.5003
  270MOL0     H36394  10.750   8.899   7.826  0.7947  0.5543  2.6135
  270MOL0     H36395  10.933   8.684   7.687  0.9167  0.5142 -1.6631
  270MOL0     H36396  10.914   8.860   7.640 -1.3992 -0.2933  0.5205
  270MOL0     H36397  11.051   8.708   7.860 -1.6259 -0.6349 -0.6580
  270MOL0     H36398  11.025   8.885   7.884  2.5093 -0.3595  1.6380
  270MOL0     H36399  11.151   8.949   7.684  0.2918  0.0645 -0.5018
  270MOL0     H36400  11.239   8.880   7.817  0.9598 -2.8683  0.3974
  270MOL0     H36401  11.098   8.735   7.471 -2.8317 -5.0795  2.4196
  270MOL0     H36402  11.301   8.477   7.343  0.7692  0.7468  1.4938
  270MOL0     H36403  11.173   8.591   7.305 -0.0555  1.1702 -1.0272
  270MOL0     H36404  11.330   8.763   7.248  1.6895  0.3770 -0.8070
  270MOL0     H36405  11.465   8.653   7.280  0.8126 -0.4822 -2.8520
  270MOL0     H36406  11.280   8.602   7.048  0.4972  2.3772 -1.0390
  270MOL0     H36407  11.403   8.494   7.109  0.9787  0.8313 -3.3672
  270MOL0     H36408  11.500   8.621   6.923 -0.6800 -0.2734  0.1439
  270MOL0     H36409  11.582   8.668   7.071  0.0068 -1.0016  0.4561
  270MOL0     H36410  11.715   8.778   6.924 -3.9015 -1.6410  0.0258
  270MOL0     H36411  11.863   8.952   6.922  0.1550  0.5548 -0.9357
  270MOL0     H36412  12.059   9.339   7.076 -1.8760  2.4670  0.0917
  270MOL0     H36413  12.224   9.537   7.019  1.6842  1.4207 -2.2021
  270MOL0     H36414  12.329   9.592   6.593 -0.6195 -2.3280  2.2585
  270MOL0     H36415  12.249   9.749   6.662 -0.5702  0.1433  0.6996
  270MOL0     H36416  12.457   9.809   6.774 -0.5505  1.1341 -1.0862
  270MOL0     H36417  12.532   9.662   6.697 -1.0493 -0.8824  0.4099
  270MOL0     H36418  12.530   9.722   6.482 -1.5897 -0.1454 -0.2197
  270MOL0     H36419  12.419   9.853   6.499 -2.3303 -1.7664  0.7910
  270MOL0     H36420  12.588   9.969   6.627 -0.5028 -1.0231  1.0059
  270MOL0     H36421  12.619   9.924   6.456 -0.5828 -2.0443 -0.4637
  270MOL0     H36422  12.771   9.741   6.538 -0.5723  1.5025 -1.6761
  270MOL0     H36423  12.757   9.814   6.701 -1.8443  0.9953 -0.6239
  270MOL0     H36424  12.850   9.957   6.451  0.5064 -2.8625 -1.3402
  270MOL0     H36425  12.889  10.009   6.618  1.6623  0.7233 -1.6353
  270MOL0     H36426  13.022   9.807   6.445 -0.0727  2.6820 -0.6813
  270MOL0     H36427  13.007   9.759   6.611 -1.7367  0.9266  0.6045
  270MOL0     H36428  13.118  10.002   6.672  0.4259 -1.8044  1.7382
  270MOL0     H36429  13.208   9.863   6.613  0.9194  0.9516 -0.2336
  270MOL0     H36430  12.122   9.492   6.613 -1.5133 -1.5986 -0.1135
  270MOL0     H36431  11.974   9.303   6.654 -4.9441  2.2535  2.5021
  270MOL0     H36432  11.531   9.228   6.886 -1.3741  0.4326  0.1618
  270MOL0     H36433  11.385   9.035   6.961  0.7089 -2.6358  1.5659
  270MOL0     H36434  10.823   8.144   8.258  2.3257  1.2773  0.0695
  270MOL0     H36435  10.820   7.908   8.237  0.2187 -1.0472 -0.7697
  270MOL0     H36436  10.559   7.542   8.087  1.2515 -0.3369  2.0477
  270MOL0     H36437  10.514   7.314   8.020 -0.9122  0.7792 -3.6160
  270MOL0     H36438  10.758   7.064   7.741 -0.3935 -1.2038  2.7111
  270MOL0     H36439  10.632   7.164   7.647  0.2000 -0.7909  0.3135
  270MOL0     H36440  10.566   6.896   7.787 -1.5224 -0.2923 -0.1887
  270MOL0     H36441  10.583   6.928   7.617 -3.4054 -2.7044  0.1383
  270MOL0     H36442  10.390   7.077   7.654  2.2310 -1.6538 -0.7083
  270MOL0     H36443  10.393   7.054   7.825 -2.1837  4.2574 -0.6633
  270MOL0     H36444  10.353   6.803   7.783  1.3170  0.4257  0.1152
  270MOL0     H36445  10.227   6.903   7.737 -0.9527 -2.6108 -0.0838
  270MOL0     H36446  10.305   6.757   7.348 -0.5216  1.7705  0.2156
  270MOL0     H36447  10.849   7.289   7.786 -0.1900 -2.2253  0.8668
  270MOL0     H36448  10.933   7.494   7.709  0.3252 -0.3255 -1.0122
  270MOL0     H36449  10.967   7.643   7.801  3.2143 -0.6705 -0.2573
  270MOL0     H36450  11.037   7.503   7.855  1.1513 -0.0949 -2.6118
  271MOL0     O36451   0.076   4.220   6.774 -0.0416 -0.1600  0.6964
  271MOL0     C36452   0.001   4.231   6.676 -0.6204 -0.0215 -0.4028
  271MOL0     O36453   0.020   4.184   6.551 -0.3741  0.4693 -0.2251
  271MOL0     C36454   0.141   4.118   6.533 -0.4535  0.0985  0.2283
  271MOL0     C36455   0.249   4.201   6.518 -0.6362 -0.7048  0.3650
  271MOL0     C36456   0.379   4.156   6.497  0.5065  0.5395 -0.5858
  271MOL0     C36457   0.404   4.019   6.489  0.7575  0.5103 -0.6080
  271MOL0     O36458   0.542   3.987   6.474  0.1744 -0.3843 -0.1173
  271MOL0     C36459   0.584   3.849   6.447  0.0494  0.2516  0.7095
  271MOL0     C36460   0.737   3.846   6.411  0.6809 -1.3386  0.4900
  271MOL0     C36461   0.821   3.918   6.510  0.3516 -0.2662 -0.3682
  271MOL0     C36462   0.943   3.974   6.444  0.1922  0.6428 -0.4384
  271MOL0     C36463   0.916   4.098   6.352  0.0904 -1.7950 -0.2264
  271MOL0     C36464   0.872   4.219   6.430  0.4868  0.4068 -0.5184
  271MOL0     C36465   0.833   4.339   6.342 -0.5841 -0.5382 -0.3834
  271MOL0     C36466   0.944   4.434   6.287  0.5787 -0.3087 -0.3439
  271MOL0     N36467   0.985   4.402   6.148 -0.4222 -1.0746 -0.0822
  271MOL0     C36468   0.979   4.492   6.040 -0.8587  0.9484 -0.2252
  271MOL0     C36469   1.054   4.426   5.940 -0.9334  0.3005  1.2868
  271MOL0     C36470   1.063   4.471   5.795 -0.6312  0.1473  0.5196
  271MOL0     C36471   1.201   4.491   5.733  0.0624  0.7037 -0.1873
  271MOL0     C36472   1.197   4.550   5.591 -0.1746  0.7349  0.1223
  271MOL0     C36473   1.326   4.513   5.516 -0.5912  0.0122  0.9199
  271MOL0     O36474   1.421   4.615   5.515 -0.0268 -0.5331  0.1664
  271MOL0     C36475   1.513   4.623   5.409 -0.0241  0.1501 -0.6514
  271MOL0     C36476   1.583   4.738   5.378  0.2003 -0.2695 -0.0585
  271MOL0     C36477   1.674   4.737   5.272  0.9012 -0.0801  0.2071
  271MOL0     C36478   1.691   4.626   5.192 -0.0900 -0.4424  0.1713
  271MOL0     C36479   1.785   4.641   5.071  0.1748  0.0053 -0.3223
  271MOL0     O36480   1.813   4.524   5.012 -0.4668 -0.5667 -0.9338
  271MOL0     C36481   1.842   4.516   4.879  0.3442 -1.6676 -0.4247
  271MOL0     C36482   1.963   4.459   4.843  0.5482 -0.8426 -0.3725
  271MOL0     C36483   1.990   4.441   4.702  0.4235  0.0541 -0.1884
  271MOL0     C36484   1.900   4.486   4.608 -0.4315 -0.3799 -0.3369
  271MOL0     O36485   1.933   4.460   4.475  0.2437 -0.1847 -0.4770
  271MOL0     C36486   1.840   4.499   4.371  0.1259 -0.5731  0.1515
  271MOL0     C36487   1.891   4.478   4.231  0.2110  0.3363  0.4721
  271MOL0     C36488   1.904   4.329   4.195  0.8958 -0.1239  0.0658
  271MOL0     C36489   1.889   4.307   4.033  0.4267 -0.3777 -1.1927
  271MOL0     C36490   1.947   4.171   3.977 -0.2549  0.1055  0.7858
  271MOL0     C36491   1.842   4.074   3.924  0.8632  1.2592  0.0735
  271MOL0     C36492   1.899   3.931   3.892  0.3982 -0.6849 -0.4169
  271MOL0     C36493   1.995   3.940   3.770  0.0818 -0.1276 -0.6784
  271MOL0    Cl36494   2.007   3.781   3.689  0.1512 -0.1378 -0.1724
  271MOL0     C36495   1.780   4.559   4.648 -1.1426 -0.5886  0.3557
  271MOL0     C36496   1.753   4.569   4.785  0.0014  0.2100  0.0662
  271MOL0     O36497   1.813   4.753   5.028  0.2586 -0.3232  0.1965
  271MOL0     C36498   1.635   4.512   5.232  0.7436 -0.2372  0.3314
  271MOL0     C36499   1.552   4.503   5.343  0.2268  0.2750 -0.7598
  271MOL0     N36500   1.107   4.312   5.995  0.2162 -0.5558 -0.5910
  271MOL0     N36501   1.068   4.300   6.119 -0.0278  0.6793 -0.6003
  271MOL0     C36502   0.286   3.931   6.489 -0.4986 -0.2809  0.4497
  271MOL0     C36503   0.161   3.985   6.514 -0.4402  0.1416  0.0523
  271MOL0     C36504  -0.127   4.306   6.703 -0.4268  0.0958  0.4055
  271MOL0     C36505  -0.180   4.309   6.833 -0.0909  0.6058  0.8014
  271MOL0     C36506  -0.301   4.365   6.865  0.2266 -0.0761  0.3639
  271MOL0     C36507  -0.392   4.395   6.775 -0.2922 -0.9001  0.6088
  271MOL0     O36508  -0.523   4.442   6.779 -0.6420 -1.2154 -0.2636
  271MOL0     C36509  -0.578   4.488   6.904  0.1828  0.9850  0.8303
  271MOL0     C36510  -0.630   4.364   6.984 -0.6960  0.6948  0.2791
  271MOL0     C36511  -0.700   4.400   7.108  0.1965 -0.3991  0.3787
  271MOL0     C36512  -0.808   4.292   7.135 -0.0203 -0.1432 -0.0539
  271MOL0     C36513  -0.930   4.298   7.050  0.3746 -0.5868 -0.5773
  271MOL0     C36514  -1.037   4.316   6.989  0.1275  0.0606 -0.6514
  271MOL0     C36515  -0.352   4.381   6.639 -0.3110 -0.2160  0.1284
  271MOL0     C36516  -0.221   4.349   6.604 -0.2349 -0.5837  0.0867
  271MOL0     C36517  -0.178   4.375   6.463 -0.1549  0.2960  0.2752
  271MOL0     H36518   0.237   4.309   6.519 -1.5026 -0.7765 -0.5329
  271MOL0     H36519   0.451   4.235   6.477  0.2532  0.3618 -2.4636
  271MOL0     H36520   0.575   3.795   6.542  0.4257  1.2331  1.3180
  271MOL0     H36521   0.518   3.809   6.370  0.3730  2.3350 -0.7382
  271MOL0     H36522   0.749   3.876   6.307 -2.0604  0.3288  0.5503
  271MOL0     H36523   0.774   3.743   6.398  1.3933 -0.8510 -1.7073
  271MOL0     H36524   0.854   3.857   6.595 -0.4949  0.1430  0.2703
  271MOL0     H36525   0.757   3.993   6.558 -0.9348  0.1626 -2.6257
  271MOL0     H36526   1.033   3.999   6.502  0.4985  0.1435 -0.6917
  271MOL0     H36527   0.989   3.899   6.379  0.7477  0.3684  0.2541
  271MOL0     H36528   1.007   4.136   6.306  0.7381 -0.5498  1.9837
  271MOL0     H36529   0.846   4.075   6.271 -3.5425  4.7865  0.3180
  271MOL0     H36530   0.784   4.192   6.488  1.2362  1.9406  1.4119
  271MOL0     H36531   0.945   4.255   6.503  0.2289 -2.2386  1.2038
  271MOL0     H36532   0.764   4.402   6.399 -1.7986 -1.5303 -0.7037
  271MOL0     H36533   0.768   4.310   6.259  1.5734 -0.7518 -2.0843
  271MOL0     H36534   0.895   4.532   6.289  1.5715  0.1851  1.4935
  271MOL0     H36535   1.028   4.447   6.355 -0.2630 -0.0318  0.6828
  271MOL0     H36536   0.916   4.580   6.044 -3.1113 -0.5333 -0.9432
  271MOL0     H36537   1.007   4.393   5.742 -0.3606  0.6265 -0.4919
  271MOL0     H36538   1.003   4.562   5.785  1.8435  1.6345 -3.5371
  271MOL0     H36539   1.270   4.547   5.796  1.3992 -3.0689  2.0419
  271MOL0     H36540   1.250   4.394   5.724 -0.5022  0.4574 -0.6978
  271MOL0     H36541   1.209   4.659   5.591  0.7504  0.6437 -0.7732
  271MOL0     H36542   1.114   4.521   5.525 -0.1205 -1.0778  0.8028
  271MOL0     H36543   1.296   4.508   5.411 -1.0171  2.6686  0.8578
  271MOL0     H36544   1.360   4.416   5.554 -1.9087  0.1419  2.5390
  271MOL0     H36545   1.558   4.838   5.411  2.0031 -0.1360  1.0176
  271MOL0     H36546   1.727   4.830   5.253 -1.4600  1.8156  2.2471
  271MOL0     H36547   2.036   4.430   4.917  0.2438  0.4648  0.4575
  271MOL0     H36548   2.091   4.417   4.673  1.5510 -0.1213  3.4110
  271MOL0     H36549   1.750   4.442   4.393 -0.5695 -0.3090 -1.8662
  271MOL0     H36550   1.830   4.608   4.377  1.8039 -0.1001 -3.4010
  271MOL0     H36551   1.815   4.526   4.169 -0.5736  1.4708  2.2454
  271MOL0     H36552   1.990   4.523   4.223  0.0028  0.7902  0.4452
  271MOL0     H36553   2.004   4.292   4.222  0.6499 -1.4084 -0.6862
  271MOL0     H36554   1.818   4.277   4.238  1.2058 -1.7620 -1.1686
  271MOL0     H36555   1.937   4.393   3.985  2.8274 -0.2077  1.3053
  271MOL0     H36556   1.783   4.316   4.005  0.3344 -0.6957 -0.9446
  271MOL0     H36557   2.013   4.123   4.050  1.5408  0.8419 -0.2771
  271MOL0     H36558   2.004   4.207   3.890 -1.2020  1.8283  0.8478
  271MOL0     H36559   1.767   4.065   4.003 -1.9862  3.5140 -2.1747
  271MOL0     H36560   1.791   4.114   3.836 -1.3355 -0.8951  0.2529
  271MOL0     H36561   1.816   3.863   3.871 -0.6714  0.0309  1.2726
  271MOL0     H36562   1.951   3.886   3.977  3.1783  2.8666 -0.0078
  271MOL0     H36563   1.967   4.023   3.705 -4.0406  0.8105  1.8923
  271MOL0     H36564   2.092   3.971   3.810 -1.7390  1.7464  2.7884
  271MOL0     H36565   1.700   4.596   4.584  0.1382 -0.3539 -1.1912
  271MOL0     H36566   1.663   4.615   4.826 -0.5082 -0.0731 -0.7123
  271MOL0     H36567   1.663   4.421   5.181  1.4262  0.6232 -0.8777
  271MOL0     H36568   1.522   4.402   5.369 -0.7512  1.0554  1.3439
  271MOL0     H36569   0.300   3.827   6.463 -0.5897  0.3397 -2.4499
  271MOL0     H36570   0.077   3.916   6.520 -0.8169  0.7054  1.7712
  271MOL0     H36571  -0.117   4.262   6.908  0.3924  1.6603  1.0851
  271MOL0     H36572  -0.329   4.370   6.970 -1.0133 -1.4111  0.1239
  271MOL0     H36573  -0.668   4.545   6.877 -0.6743 -1.0592 -0.9411
  271MOL0     H36574  -0.511   4.555   6.959  0.9333 -1.5184  3.1607
  271MOL0     H36575  -0.539   4.305   7.004 -1.1312 -0.0665  0.0638
  271MOL0     H36576  -0.692   4.304   6.917 -0.4700 -1.7368  2.1004
  271MOL0     H36577  -0.755   4.494   7.098 -0.1108 -0.6845 -0.7731
  271MOL0     H36578  -0.633   4.413   7.194 -1.6820 -1.4698  2.1012
  271MOL0     H36579  -0.774   4.188   7.139 -3.4261 -1.3871  4.0668
  271MOL0     H36580  -0.835   4.308   7.239 -0.6462  1.2343 -0.4104
  271MOL0     H36581  -1.129   4.339   6.939 -0.2053 -0.0329 -0.0871
  271MOL0     H36582  -0.428   4.402   6.565 -1.3105  1.7115  1.6103
  271MOL0     H36583  -0.075   4.403   6.444  0.4197 -1.7508  0.1088
  271MOL0     H36584  -0.177   4.280   6.408 -1.9106 -0.1552  0.9197
  271MOL0     H36585  -0.241   4.453   6.420 -0.2654  1.9198  3.1120
  272MOL0     O36586   2.387   6.221   4.537  0.1648 -0.6810  0.5185
  272MOL0     C36587   2.276   6.178   4.558 -0.0611  0.1581  0.2270
  272MOL0     O36588   2.247   6.052   4.592 -0.4820 -0.2602  0.1436
  272MOL0     C36589   2.337   5.950   4.617  0.9140  0.2380  0.4067
  272MOL0     C36590   2.431   5.959   4.719  0.4644 -0.0802  1.0172
  272MOL0     C36591   2.499   5.844   4.759 -0.0504 -0.7234  0.8400
  272MOL0     C36592   2.475   5.715   4.690  0.1091 -0.6133  0.4125
  272MOL0     O36593   2.548   5.605   4.724  0.5369 -0.7065  0.4398
  272MOL0     C36594   2.608   5.593   4.856  1.0827  0.5059 -0.1088
  272MOL0     C36595   2.642   5.442   4.888 -0.8226  0.2674  0.2051
  272MOL0     C36596   2.715   5.417   5.018 -0.0634 -1.4622  0.0981
  272MOL0     C36597   2.740   5.259   5.036  0.3965 -0.5515 -1.0837
  272MOL0     C36598   2.773   5.204   5.171  0.0335 -0.8183 -0.4583
  272MOL0     C36599   2.920   5.226   5.198 -0.3907 -0.1881  0.1671
  272MOL0     C36600   2.962   5.205   5.341 -0.6917  0.5810  0.1339
  272MOL0     C36601   2.925   5.325   5.434 -0.3751 -1.2090 -0.1833
  272MOL0     N36602   3.009   5.448   5.408  0.3241  0.1623 -1.2828
  272MOL0     C36603   2.948   5.568   5.369  0.3269 -0.2587  0.0717
  272MOL0     C36604   3.031   5.659   5.418 -0.7488 -0.5916  0.8430
  272MOL0     C36605   3.011   5.803   5.389 -0.0691  0.1125  0.1886
  272MOL0     C36606   3.146   5.866   5.353 -0.6353  0.6428 -0.1595
  272MOL0     C36607   3.153   6.015   5.364 -0.4605  0.0389 -0.4867
  272MOL0     C36608   3.036   6.096   5.295  0.1398  0.1959 -1.3633
  272MOL0     O36609   2.908   6.072   5.366 -0.4745 -0.1685  0.0406
  272MOL0     C36610   2.812   6.168   5.366 -0.1359  0.0508 -0.2436
  272MOL0     C36611   2.695   6.129   5.428 -0.1516 -0.5872 -0.1248
  272MOL0     C36612   2.577   6.200   5.414  0.0952  0.1522  0.4499
  272MOL0     C36613   2.574   6.323   5.333 -0.3227 -0.5372 -0.4769
  272MOL0     C36614   2.452   6.404   5.318  0.1667  0.1739 -0.0231
  272MOL0     O36615   2.331   6.334   5.335  0.3366  1.1139 -0.2920
  272MOL0     C36616   2.210   6.410   5.326 -0.1534 -0.0345  0.3502
  272MOL0     C36617   2.190   6.544   5.345 -0.1298 -0.3861  0.1738
  272MOL0     C36618   2.062   6.609   5.330 -0.2860  0.3915 -0.3944
  272MOL0     C36619   1.953   6.529   5.281  0.4526 -0.3202 -0.1524
  272MOL0     O36620   1.831   6.588   5.255 -0.3756  0.3912 -0.1228
  272MOL0     C36621   1.717   6.571   5.336 -0.3045  0.0140 -0.2208
  272MOL0     C36622   1.613   6.496   5.264 -0.3337 -0.4734 -0.6169
  272MOL0     C36623   1.531   6.583   5.171  1.4211  0.9012  0.4430
  272MOL0     C36624   1.432   6.502   5.073 -0.3669 -0.0536  0.0200
  272MOL0     C36625   1.307   6.585   5.044  0.2578  0.4387 -0.3335
  272MOL0     C36626   1.216   6.525   4.928 -1.2399  0.2532  0.0526
  272MOL0     C36627   1.146   6.394   4.963  0.8974  0.9197  0.2623
  272MOL0     C36628   1.026   6.377   4.860 -0.3491  0.2086  0.0135
  272MOL0    Cl36629   1.089   6.410   4.697  0.2521  0.0692 -0.0904
  272MOL0     C36630   1.966   6.395   5.268 -0.4423  0.3770 -0.4953
  272MOL0     C36631   2.094   6.338   5.289 -0.2440  0.1913 -0.5693
  272MOL0     O36632   2.461   6.522   5.282 -0.6801 -0.6191 -0.0524
  272MOL0     C36633   2.696   6.367   5.279  0.5208 -1.2417  0.2805
  272MOL0     C36634   2.808   6.284   5.282  0.1688 -0.0819 -0.6492
  272MOL0     N36635   3.140   5.601   5.478 -0.3124  0.5893 -0.8041
  272MOL0     N36636   3.128   5.475   5.477  0.2751 -0.8187 -0.0881
  272MOL0     C36637   2.383   5.712   4.583  0.6708 -0.0259 -0.3316
  272MOL0     C36638   2.316   5.829   4.547  0.1667  0.3498 -0.1567
  272MOL0     C36639   2.165   6.266   4.526  0.0320 -0.3558  1.3592
  272MOL0     C36640   2.040   6.217   4.496 -0.2892  0.4179  0.4117
  272MOL0     C36641   1.929   6.282   4.449  0.0366 -0.1772  0.8860
  272MOL0     C36642   1.934   6.418   4.425  0.0332  0.8834 -0.3475
  272MOL0     O36643   1.835   6.494   4.386  0.4092 -0.7026 -0.2826
  272MOL0     C36644   1.737   6.432   4.295  0.7941  0.3695 -0.7233
  272MOL0     C36645   1.789   6.395   4.154 -1.1199 -0.3039  0.5840
  272MOL0     C36646   1.854   6.509   4.066  0.0508 -0.4910 -0.3837
  272MOL0     C36647   1.866   6.466   3.915  0.2767  0.4003  0.5727
  272MOL0     C36648   1.951   6.352   3.882  0.5664 -0.0229  0.9170
  272MOL0     C36649   2.009   6.250   3.851  0.1055  0.2470  0.3307
  272MOL0     C36650   2.052   6.483   4.471  0.0157  0.2854  0.1990
  272MOL0     C36651   2.171   6.412   4.501 -0.7416  0.0376 -0.9612
  272MOL0     C36652   2.296   6.505   4.524 -1.1815  0.6208  0.1765
  272MOL0     H36653   2.450   6.057   4.762 -0.3655  0.7309 -0.3845
  272MOL0     H36654   2.572   5.858   4.839  0.0015  1.9539  0.4326
  272MOL0     H36655   2.705   5.644   4.858 -1.0812  5.2688  3.9769
  272MOL0     H36656   2.542   5.639   4.930 -2.3135 -0.2841 -2.3742
  272MOL0     H36657   2.706   5.406   4.807  3.0255  2.0393  2.1952
  272MOL0     H36658   2.550   5.382   4.883 -0.8903 -0.0226  3.1908
  272MOL0     H36659   2.651   5.456   5.098  2.5642  0.7618  1.3325
  272MOL0     H36660   2.798   5.489   5.019 -0.7441 -0.5472 -2.5536
  272MOL0     H36661   2.649   5.209   5.001 -0.6170  0.8274 -0.5096
  272MOL0     H36662   2.827   5.231   4.975  3.0349  1.4669  1.4625
  272MOL0     H36663   2.705   5.238   5.249 -0.2161 -1.0995 -0.5535
  272MOL0     H36664   2.750   5.098   5.165 -0.0554 -0.8759  0.6796
  272MOL0     H36665   2.980   5.152   5.144  1.9279  0.3981  1.7666
  272MOL0     H36666   2.947   5.326   5.164 -0.0134 -0.9291 -1.8773
  272MOL0     H36667   3.071   5.200   5.336 -0.6960 -4.7182 -0.3432
  272MOL0     H36668   2.931   5.110   5.386 -3.4502  1.1410 -0.3796
  272MOL0     H36669   2.817   5.331   5.413 -0.4196 -0.8758  0.1242
  272MOL0     H36670   2.939   5.288   5.536 -2.1813 -1.4497  0.0247
  272MOL0     H36671   2.854   5.577   5.315  0.2732 -4.9640 -1.1064
  272MOL0     H36672   2.940   5.814   5.307 -1.0615  1.6568  1.1901
  272MOL0     H36673   2.956   5.848   5.472  0.4380 -0.0889  0.6419
  272MOL0     H36674   3.224   5.822   5.416  0.4799 -0.3503 -2.0980
  272MOL0     H36675   3.183   5.819   5.261  3.2152  1.9567  0.5175
  272MOL0     H36676   3.251   6.048   5.329 -1.4892  1.5802 -2.0655
  272MOL0     H36677   3.164   6.037   5.471  2.4228 -0.0922 -0.6991
  272MOL0     H36678   3.028   6.066   5.190  0.1296 -0.2722 -1.2304
  272MOL0     H36679   3.052   6.204   5.300  1.5635  0.2628 -4.5277
  272MOL0     H36680   2.708   6.041   5.490 -0.3284  0.6324  1.7030
  272MOL0     H36681   2.484   6.162   5.454 -0.7110  0.3701 -1.1180
  272MOL0     H36682   2.275   6.606   5.372  0.2747 -0.1212 -1.5617
  272MOL0     H36683   2.042   6.716   5.334 -1.0999  0.2173  0.6417
  272MOL0     H36684   1.762   6.528   5.426  0.9383 -0.0306 -0.8273
  272MOL0     H36685   1.680   6.671   5.358  1.9113  1.1068 -1.0894
  272MOL0     H36686   1.667   6.421   5.206  3.7279  1.0882  0.7779
  272MOL0     H36687   1.548   6.457   5.343 -0.0197 -0.1623 -0.1940
  272MOL0     H36688   1.476   6.651   5.236  2.9718  1.0662  1.6145
  272MOL0     H36689   1.596   6.650   5.115  1.9715  1.1343  1.3434
  272MOL0     H36690   1.403   6.408   5.121  2.0492 -1.1530 -0.5815
  272MOL0     H36691   1.479   6.475   4.978  0.1259  2.0330 -0.3871
  272MOL0     H36692   1.328   6.689   5.020 -5.0665  2.6663  2.8176
  272MOL0     H36693   1.250   6.568   5.136  2.2788 -0.9924  0.7515
  272MOL0     H36694   1.142   6.592   4.883 -1.3074 -1.7177 -3.0896
  272MOL0     H36695   1.284   6.499   4.846 -4.5190  0.5964 -2.9994
  272MOL0     H36696   1.098   6.406   5.060 -1.4102  0.2389 -0.7282
  272MOL0     H36697   1.209   6.305   4.947 -2.0742 -1.3417  0.3067
  272MOL0     H36698   0.996   6.272   4.863  0.1858  0.0297 -0.6349
  272MOL0     H36699   0.941   6.442   4.886 -1.5091 -1.5412  0.7956
  272MOL0     H36700   1.879   6.342   5.230 -0.1319  0.4828 -1.3759
  272MOL0     H36701   2.109   6.231   5.278  1.0702  0.2859 -0.0041
  272MOL0     H36702   2.703   6.458   5.220 -4.1186 -0.9776 -0.2645
  272MOL0     H36703   2.892   6.323   5.226  0.5365  1.3845  0.8393
  272MOL0     H36704   2.357   5.621   4.530 -2.5392  1.2958 -1.2991
  272MOL0     H36705   2.252   5.827   4.460  1.6171  0.9407 -1.2850
  272MOL0     H36706   2.017   6.114   4.522  0.8882  0.3604  1.3126
  272MOL0     H36707   1.841   6.219   4.446 -0.1591  0.1323 -0.2078
  272MOL0     H36708   1.651   6.500   4.304 -1.5803 -2.6560  1.7602
  272MOL0     H36709   1.693   6.339   4.333  2.8943 -0.3563  0.0573
  272MOL0     H36710   1.698   6.358   4.106 -0.8132  0.2668 -0.4670
  272MOL0     H36711   1.861   6.314   4.169 -0.4464  0.1210 -0.2288
  272MOL0     H36712   1.951   6.520   4.114 -0.5701 -1.0064  1.0493
  272MOL0     H36713   1.795   6.600   4.076  0.8322 -0.1591  1.7937
  272MOL0     H36714   1.762   6.444   3.890 -0.2242  0.2423  2.6666
  272MOL0     H36715   1.911   6.549   3.860 -0.3233  1.2884  1.3869
  272MOL0     H36716   2.059   6.161   3.821  3.8914  2.3957 -0.3221
  272MOL0     H36717   2.047   6.592   4.468 -1.3235  0.3073  1.8488
  272MOL0     H36718   2.380   6.475   4.461  0.6587  0.4413  2.5906
  272MOL0     H36719   2.284   6.614   4.519  0.6960  0.9300  1.4781
  272MOL0     H36720   2.341   6.475   4.619  0.1974  0.8140 -0.3938
  273MOL0     O36721   3.764   3.864   1.985  0.3871 -0.2383 -0.2866
  273MOL0     C36722   3.745   3.760   2.048  0.0277 -0.7215  1.2221
  273MOL0     O36723   3.697   3.641   1.990 -0.6706 -0.5256  0.0528
  273MOL0     C36724   3.708   3.624   1.853 -0.2334  0.5993 -0.0316
  273MOL0     C36725   3.836   3.626   1.799  0.5181  0.3772 -0.3209
  273MOL0     C36726   3.858   3.584   1.669  0.4055  0.2440  1.4345
  273MOL0     C36727   3.747   3.551   1.585 -0.1757  0.5405  0.5920
  273MOL0     O36728   3.776   3.501   1.455 -0.0362  0.3877 -0.6536
  273MOL0     C36729   3.798   3.609   1.369  0.6748  0.7441 -0.5409
  273MOL0     C36730   3.693   3.615   1.247  0.1659 -0.4899 -0.3066
  273MOL0     C36731   3.571   3.687   1.295  1.4493 -0.3598 -0.2353
  273MOL0     C36732   3.472   3.673   1.182 -0.7150 -0.4005  1.0553
  273MOL0     C36733   3.348   3.761   1.192 -0.0471  0.8203  0.0802
  273MOL0     C36734   3.267   3.773   1.065 -0.4281 -0.5177  0.0604
  273MOL0     C36735   3.140   3.852   1.081  0.5083  0.6077  0.1756
  273MOL0     C36736   3.136   3.971   1.172  0.0857 -0.0591  0.6194
  273MOL0     N36737   3.012   4.052   1.164 -0.9341  0.3485 -0.2069
  273MOL0     C36738   2.997   4.177   1.215  0.1099 -0.5352 -0.0232
  273MOL0     C36739   2.864   4.200   1.224 -0.3736 -0.5753  0.3923
  273MOL0     C36740   2.797   4.324   1.281 -0.2582  0.7052  0.1100
  273MOL0     C36741   2.840   4.456   1.219 -0.8324 -0.6786 -0.1271
  273MOL0     C36742   2.755   4.500   1.102  0.3907 -0.2691 -0.3663
  273MOL0     C36743   2.767   4.655   1.068 -0.5652 -0.4456  0.3251
  273MOL0     O36744   2.679   4.727   1.146  0.0802  0.9004 -0.2587
  273MOL0     C36745   2.672   4.857   1.100 -0.6809  0.3715 -0.4145
  273MOL0     C36746   2.543   4.910   1.117 -0.1943 -0.1419 -0.8446
  273MOL0     C36747   2.521   5.039   1.081 -0.1419 -0.2065 -0.4535
  273MOL0     C36748   2.618   5.131   1.030 -0.3463  0.2505 -0.1485
  273MOL0     C36749   2.574   5.252   0.967 -0.0625 -0.6441 -0.5317
  273MOL0     O36750   2.639   5.283   0.850 -0.2942 -0.1926 -0.1000
  273MOL0     C36751   2.636   5.412   0.823 -0.4497  0.1836 -0.4615
  273MOL0     C36752   2.715   5.507   0.896  0.1937 -0.2787  0.2172
  273MOL0     C36753   2.728   5.637   0.847  0.5149 -0.9646 -0.7947
  273MOL0     C36754   2.663   5.680   0.733 -0.0925  0.2289 -0.9588
  273MOL0     O36755   2.669   5.812   0.724 -0.6026 -0.2530  0.7512
  273MOL0     C36756   2.641   5.860   0.588 -0.1507  1.0259 -0.2162
  273MOL0     C36757   2.699   5.999   0.563  0.5360  0.2255 -0.0400
  273MOL0     C36758   2.849   6.006   0.527  0.1634  0.1257  0.9471
  273MOL0     C36759   2.873   6.153   0.494 -0.4244 -0.2687 -0.3180
  273MOL0     C36760   3.023   6.196   0.496  0.3278 -0.3727 -0.2338
  273MOL0     C36761   3.089   6.182   0.638  0.1289 -0.1339 -0.4973
  273MOL0     C36762   3.196   6.293   0.654 -0.2441  0.7473 -1.4409
  273MOL0     C36763   3.288   6.254   0.769 -0.0697 -0.5345  0.2695
  273MOL0    Cl36764   3.187   6.252   0.906 -0.0782 -0.1080 -0.1374
  273MOL0     C36765   2.600   5.591   0.648  0.5959 -0.0631 -0.9253
  273MOL0     C36766   2.585   5.457   0.694 -0.1520 -0.9835 -0.4594
  273MOL0     O36767   2.481   5.314   1.015  0.4903 -1.1342  0.2505
  273MOL0     C36768   2.751   5.082   1.031 -0.1717  0.1817  0.0832
  273MOL0     C36769   2.772   4.943   1.054 -0.0275  1.2135 -0.6703
  273MOL0     N36770   2.802   4.093   1.157 -0.5330 -0.3728 -0.4180
  273MOL0     N36771   2.891   4.005   1.128  1.1582 -0.6240  0.3056
  273MOL0     C36772   3.619   3.558   1.636  0.1527 -0.0280 -0.9662
  273MOL0     C36773   3.598   3.589   1.780 -0.5131  1.2153  1.5497
  273MOL0     C36774   3.768   3.759   2.198 -0.8629 -1.3183  0.0844
  273MOL0     C36775   3.731   3.639   2.262  0.2680  0.3037 -0.2607
  273MOL0     C36776   3.760   3.632   2.397 -0.3671  0.8919  0.2776
  273MOL0     C36777   3.824   3.730   2.472 -0.3938  0.2861  0.2607
  273MOL0     O36778   3.843   3.721   2.613  0.0601 -0.4253 -0.0714
  273MOL0     C36779   3.801   3.604   2.690  0.1661 -0.1482  0.1838
  273MOL0     C36780   3.879   3.479   2.652 -0.2557  0.4483 -0.5593
  273MOL0     C36781   4.011   3.477   2.725 -0.3146  0.2237  0.2858
  273MOL0     C36782   4.079   3.346   2.702 -1.4449  0.5947 -0.4945
  273MOL0     C36783   4.200   3.328   2.791 -0.1753  0.4594  0.9323
  273MOL0     C36784   4.300   3.300   2.858 -0.0273 -0.6018  0.1283
  273MOL0     C36785   3.850   3.852   2.403 -0.1886  0.0354  0.5639
  273MOL0     C36786   3.836   3.867   2.265 -0.1717 -0.3262  0.5061
  273MOL0     C36787   3.888   3.991   2.205 -0.6251 -1.2007 -0.3663
  273MOL0     H36788   3.925   3.660   1.850 -0.0303  0.8190  0.3701
  273MOL0     H36789   3.962   3.585   1.637 -0.1090  0.8096 -0.3334
  273MOL0     H36790   3.795   3.710   1.411  0.3318  0.3756  0.3371
  273MOL0     H36791   3.892   3.583   1.318  0.4775 -1.4378  0.1207
  273MOL0     H36792   3.664   3.516   1.210 -0.6493 -0.2939 -0.2071
  273MOL0     H36793   3.727   3.677   1.163 -0.0423  1.5018  1.0338
  273MOL0     H36794   3.595   3.793   1.307  1.2244 -0.1218 -1.7271
  273MOL0     H36795   3.518   3.649   1.383 -1.3111  0.4553 -1.4321
  273MOL0     H36796   3.515   3.698   1.085 -2.3769  2.3261  0.9180
  273MOL0     H36797   3.441   3.568   1.185  1.4390 -1.0783  3.4535
  273MOL0     H36798   3.291   3.716   1.274 -0.6583  1.2606 -0.0911
  273MOL0     H36799   3.371   3.861   1.231 -2.0907  1.0995  0.6987
  273MOL0     H36800   3.339   3.803   0.988  3.9663 -4.3084  2.2294
  273MOL0     H36801   3.248   3.666   1.048  1.0886 -0.8111  0.0679
  273MOL0     H36802   3.073   3.775   1.121  0.1620  1.3565  1.0629
  273MOL0     H36803   3.106   3.878   0.980 -0.8808 -0.7747  0.2531
  273MOL0     H36804   3.156   3.932   1.273  0.0978 -0.3237  0.5167
  273MOL0     H36805   3.218   4.035   1.140  0.6674 -1.3066 -0.4517
  273MOL0     H36806   3.074   4.247   1.245 -1.7490  1.9453 -0.7894
  273MOL0     H36807   2.688   4.326   1.291 -0.4310  2.5013 -1.4744
  273MOL0     H36808   2.835   4.321   1.383  1.7108  1.2719 -0.5477
  273MOL0     H36809   2.836   4.536   1.294 -1.3297 -0.6584 -0.1740
  273MOL0     H36810   2.944   4.435   1.191 -0.2492 -2.2484  2.8174
  273MOL0     H36811   2.648   4.480   1.117  0.3349 -0.6572 -1.1958
  273MOL0     H36812   2.773   4.433   1.017 -2.2508 -0.6668 -0.7063
  273MOL0     H36813   2.744   4.652   0.961  0.4497 -1.8488  0.1214
  273MOL0     H36814   2.867   4.692   1.091 -1.0369  0.3156  1.2102
  273MOL0     H36815   2.468   4.848   1.164  0.7412 -1.3385 -0.8614
  273MOL0     H36816   2.420   5.079   1.083  1.1607  3.4238  0.4673
  273MOL0     H36817   2.763   5.481   0.989  0.4414 -0.2238  0.1048
  273MOL0     H36818   2.784   5.705   0.911  0.2110 -0.3342 -1.1924
  273MOL0     H36819   2.664   5.784   0.513 -1.7584 -0.4288  0.6699
  273MOL0     H36820   2.532   5.870   0.590 -0.1714  0.7914  0.0000
  273MOL0     H36821   2.640   6.055   0.489 -1.7827 -0.1731  1.4143
  273MOL0     H36822   2.693   6.049   0.660  1.7261 -0.0765  0.2078
  273MOL0     H36823   2.906   5.969   0.613  1.8580 -0.1919 -0.2787
  273MOL0     H36824   2.883   5.940   0.447 -2.1046 -1.8364  1.4556
  273MOL0     H36825   2.818   6.206   0.573 -1.6936 -1.3344 -0.4401
  273MOL0     H36826   2.843   6.179   0.392 -3.5290 -0.8519  0.3430
  273MOL0     H36827   3.040   6.300   0.470 -0.2406 -0.0719  0.5488
  273MOL0     H36828   3.076   6.134   0.424 -1.7607 -0.8284 -1.4787
  273MOL0     H36829   3.016   6.179   0.719  1.9265  3.9787  1.5561
  273MOL0     H36830   3.152   6.094   0.650  2.9645  2.0207  1.6887
  273MOL0     H36831   3.149   6.390   0.674  0.2964  1.0332 -1.5568
  273MOL0     H36832   3.256   6.308   0.564  0.8940 -3.9239 -1.7495
  273MOL0     H36833   3.334   6.155   0.757 -3.0694 -1.8616 -1.5594
  273MOL0     H36834   3.377   6.317   0.781 -0.4972  0.3702 -1.0586
  273MOL0     H36835   2.541   5.618   0.562 -0.0983  0.4969 -0.2901
  273MOL0     H36836   2.532   5.387   0.631  1.1634 -0.1271 -2.6401
  273MOL0     H36837   2.827   5.143   0.982 -1.5730 -0.0980 -2.6605
  273MOL0     H36838   2.875   4.910   1.038 -0.1743  1.5882 -2.7385
  273MOL0     H36839   3.534   3.529   1.576  0.6355  1.4460 -2.4185
  273MOL0     H36840   3.498   3.602   1.822 -0.8694  1.0386  0.7686
  273MOL0     H36841   3.682   3.555   2.213  0.7549 -0.0005 -0.2314
  273MOL0     H36842   3.718   3.540   2.436 -4.8812  2.8766  0.8367
  273MOL0     H36843   3.696   3.586   2.665 -0.0362  1.4572 -0.2103
  273MOL0     H36844   3.809   3.626   2.797 -0.9377  2.5418 -0.1858
  273MOL0     H36845   3.889   3.465   2.543 -0.4670  2.2368 -0.8333
  273MOL0     H36846   3.814   3.397   2.683 -0.3480  0.7274 -0.0116
  273MOL0     H36847   3.985   3.478   2.831 -4.8100 -3.4532 -0.4296
  273MOL0     H36848   4.072   3.561   2.693  1.5023 -1.1652 -0.0488
  273MOL0     H36849   4.010   3.262   2.719 -0.7020  0.0739  0.0466
  273MOL0     H36850   4.108   3.339   2.597  0.0799  0.2087 -0.0730
  273MOL0     H36851   4.382   3.279   2.923  1.0620 -1.3206 -1.4316
  273MOL0     H36852   3.897   3.931   2.461 -2.8571  0.4273  2.4188
  273MOL0     H36853   3.940   4.053   2.279 -1.0890 -2.2559  0.8916
  273MOL0     H36854   3.959   3.972   2.125  0.9200  2.6221 -0.0958
  273MOL0     H36855   3.818   4.062   2.158  1.3831  1.0873 -0.0797
  274MOL0     O36856   1.160   7.332   0.176 -1.0015 -0.1122 -0.2975
  274MOL0     C36857   1.264   7.366   0.124 -1.6337  0.0514  0.4527
  274MOL0     O36858   1.382   7.381   0.189 -0.7036 -0.9632 -0.8050
  274MOL0     C36859   1.398   7.314   0.304  1.4122 -0.0500  0.9236
  274MOL0     C36860   1.363   7.371   0.422  0.0589 -1.3734 -0.4303
  274MOL0     C36861   1.362   7.302   0.544 -0.1847 -0.5014 -0.2766
  274MOL0     C36862   1.401   7.165   0.546 -0.0781 -0.1910 -0.4240
  274MOL0     O36863   1.363   7.085   0.654 -0.3362 -0.7045  0.4164
  274MOL0     C36864   1.280   6.971   0.616 -0.5621  1.2489  0.3678
  274MOL0     C36865   1.356   6.836   0.620  0.0587 -0.3246 -0.4047
  274MOL0     C36866   1.497   6.846   0.687  0.2803  0.2648 -0.7036
  274MOL0     C36867   1.585   6.726   0.646 -0.4152  0.3942  0.7985
  274MOL0     C36868   1.720   6.745   0.704 -1.1078  0.3447  0.2069
  274MOL0     C36869   1.819   6.632   0.670  0.1681 -0.1283 -0.2647
  274MOL0     C36870   1.958   6.637   0.732 -1.0854  0.9303  0.2617
  274MOL0     C36871   1.955   6.660   0.883  0.4712  0.2473 -0.4502
  274MOL0     N36872   2.087   6.717   0.930 -0.2448  0.6852 -0.6503
  274MOL0     C36873   2.210   6.654   0.941 -0.2304 -1.5461  1.0557
  274MOL0     C36874   2.283   6.731   1.031  0.4262  0.2610 -0.4338
  274MOL0     C36875   2.422   6.711   1.093  0.2238 -0.7004  0.6270
  274MOL0     C36876   2.448   6.572   1.156  0.2586  0.8058 -0.3746
  274MOL0     C36877   2.592   6.561   1.205  0.0614 -0.8782  0.4181
  274MOL0     C36878   2.660   6.430   1.182  0.3309 -0.4948 -0.2397
  274MOL0     O36879   2.622   6.318   1.267 -0.0858 -0.2186  0.1067
  274MOL0     C36880   2.653   6.320   1.398 -0.0188  0.1885  0.2543
  274MOL0     C36881   2.613   6.209   1.474 -0.5326 -0.0866  0.2863
  274MOL0     C36882   2.655   6.212   1.602 -0.3569  0.3555 -0.4207
  274MOL0     C36883   2.745   6.297   1.666 -0.1257  0.1836  0.4514
  274MOL0     C36884   2.778   6.289   1.810  0.5849 -0.3490 -0.3158
  274MOL0     O36885   2.890   6.357   1.860 -0.2303 -0.4809 -0.5666
  274MOL0     C36886   2.930   6.344   1.990 -0.1532  0.9237 -0.1482
  274MOL0     C36887   2.999   6.226   2.037 -0.3145  0.0163  0.0682
  274MOL0     C36888   3.047   6.221   2.169  1.0013 -0.0283  0.3335
  274MOL0     C36889   3.034   6.327   2.258  1.1283  0.9321 -0.6067
  274MOL0     O36890   3.097   6.323   2.385 -0.0172  0.1566  0.1792
  274MOL0     C36891   3.141   6.439   2.452  0.3486 -0.1503 -0.0370
  274MOL0     C36892   3.194   6.401   2.589  0.1240  0.3321  0.5464
  274MOL0     C36893   3.320   6.312   2.574  0.3254 -0.2610 -0.0328
  274MOL0     C36894   3.386   6.304   2.701  0.2389 -0.6312 -0.5759
  274MOL0     C36895   3.462   6.183   2.731 -0.5334  0.0164  0.6244
  274MOL0     C36896   3.534   6.175   2.872  0.6333 -0.1664  0.6984
  274MOL0     C36897   3.606   6.038   2.879  0.1949 -0.3732  0.1059
  274MOL0     C36898   3.671   6.010   3.016  0.4466  0.0739  0.3497
  274MOL0    Cl36899   3.703   5.827   3.032  0.1732 -0.3280 -0.4380
  274MOL0     C36900   2.950   6.434   2.217  0.3790 -0.6289 -0.0119
  274MOL0     C36901   2.903   6.440   2.089 -0.3579 -0.1215 -0.2038
  274MOL0     O36902   2.702   6.219   1.878 -0.5237  0.5074  0.1794
  274MOL0     C36903   2.795   6.401   1.585 -0.0985 -0.0549  0.6753
  274MOL0     C36904   2.751   6.415   1.451 -0.1391  2.0070  0.5684
  274MOL0     N36905   2.213   6.838   1.053 -0.0669 -1.0766  0.0262
  274MOL0     N36906   2.097   6.834   1.001  0.5348 -0.6879  0.4183
  274MOL0     C36907   1.463   7.117   0.429 -0.3485 -0.0955 -0.2909
  274MOL0     C36908   1.463   7.187   0.305  0.0241 -0.3200  0.4069
  274MOL0     C36909   1.243   7.416  -0.010 -0.1601 -0.1642  0.4942
  274MOL0     C36910   1.336   7.513  -0.067  0.4650  1.0693  0.6475
  274MOL0     C36911   1.335   7.558  -0.194  0.6891 -0.6226  0.0961
  274MOL0     C36912   1.233   7.504  -0.283 -0.0272  0.4041 -0.8767
  274MOL0     O36913   1.231   7.533  -0.419  0.0663 -0.2264 -0.1332
  274MOL0     C36914   1.308   7.641  -0.471 -0.0262 -0.9044 -0.1334
  274MOL0     C36915   1.270   7.657  -0.622 -0.3027  0.0362  0.5259
  274MOL0     C36916   1.262   7.530  -0.701 -0.1927  0.0249 -0.0207
  274MOL0     C36917   1.384   7.432  -0.676 -0.4196  0.3050  0.1943
  274MOL0     C36918   1.501   7.487  -0.730 -0.9128 -0.0320  0.8821
  274MOL0     C36919   1.603   7.534  -0.780  0.3887  0.6146 -0.0694
  274MOL0     C36920   1.143   7.418  -0.229  0.0603 -0.5906 -0.2387
  274MOL0     C36921   1.136   7.376  -0.097 -0.2850  0.1466  0.7589
  274MOL0     C36922   1.028   7.269  -0.072  0.6033 -0.1669  0.4354
  274MOL0     H36923   1.316   7.468   0.433 -1.9025 -2.2725 -0.5011
  274MOL0     H36924   1.324   7.338   0.638  0.0667 -1.7559  0.3355
  274MOL0     H36925   1.194   6.972   0.683  0.6032  4.7953  2.1003
  274MOL0     H36926   1.238   6.983   0.516  3.2215  1.6268 -1.3406
  274MOL0     H36927   1.374   6.801   0.518  2.3148 -0.1532 -0.1245
  274MOL0     H36928   1.295   6.764   0.675  0.7548 -1.5534 -1.1645
  274MOL0     H36929   1.486   6.853   0.796 -3.1233  5.4429 -0.9902
  274MOL0     H36930   1.548   6.941   0.665  0.3463  1.0055  2.1880
  274MOL0     H36931   1.534   6.634   0.678 -1.5997  0.9891  0.6620
  274MOL0     H36932   1.591   6.724   0.537 -1.7503  0.2769  0.7003
  274MOL0     H36933   1.757   6.836   0.657 -1.2827  0.4354  0.2459
  274MOL0     H36934   1.711   6.755   0.812 -1.1086  1.9177  0.0814
  274MOL0     H36935   1.774   6.539   0.706 -1.5822  0.9228  0.3924
  274MOL0     H36936   1.816   6.622   0.561 -0.5232 -0.2092 -0.2458
  274MOL0     H36937   2.017   6.711   0.677  1.1362 -1.9322 -1.4874
  274MOL0     H36938   2.009   6.542   0.712  2.4514  2.8170 -0.5230
  274MOL0     H36939   1.881   6.737   0.908 -0.3594 -0.1300 -1.6656
  274MOL0     H36940   1.930   6.570   0.940 -1.3263 -0.0578 -1.6358
  274MOL0     H36941   2.250   6.568   0.888  1.8128  0.4566 -0.8963
  274MOL0     H36942   2.486   6.730   1.006 -5.3741  3.9936 -3.2520
  274MOL0     H36943   2.434   6.791   1.166 -1.4739  2.6093 -2.3746
  274MOL0     H36944   2.383   6.554   1.242 -1.3643 -0.2668 -1.7650
  274MOL0     H36945   2.440   6.496   1.078  0.3218  1.0289 -0.5997
  274MOL0     H36946   2.614   6.597   1.307  0.6839 -1.4832  0.5075
  274MOL0     H36947   2.662   6.619   1.144 -1.2181  0.0030 -0.2429
  274MOL0     H36948   2.766   6.452   1.201 -0.2340  0.3760  2.3420
  274MOL0     H36949   2.645   6.397   1.079 -0.4940  0.4016 -0.4215
  274MOL0     H36950   2.538   6.138   1.441  0.6945 -0.4729 -1.8664
  274MOL0     H36951   2.613   6.139   1.670 -3.2049 -0.3189 -2.7253
  274MOL0     H36952   3.031   6.161   1.957 -1.6510  0.5750 -0.9511
  274MOL0     H36953   3.100   6.128   2.188  2.0802  0.5902  0.4634
  274MOL0     H36954   3.222   6.488   2.397 -0.6648  0.0817 -1.3875
  274MOL0     H36955   3.070   6.522   2.462 -1.1726 -0.9877 -2.7130
  274MOL0     H36956   3.208   6.490   2.651 -1.6389 -0.3164  1.9708
  274MOL0     H36957   3.119   6.333   2.630  1.0536 -1.0136  0.0774
  274MOL0     H36958   3.290   6.219   2.525  2.7331 -0.3660 -1.4856
  274MOL0     H36959   3.387   6.353   2.498  0.4663  0.0058  0.2315
  274MOL0     H36960   3.306   6.314   2.774 -0.3398  2.7649 -1.5354
  274MOL0     H36961   3.443   6.396   2.718 -2.4016  0.9754  0.1537
  274MOL0     H36962   3.543   6.174   2.659 -0.7108 -0.2946  0.4603
  274MOL0     H36963   3.400   6.096   2.707 -2.5805  2.0994 -2.2744
  274MOL0     H36964   3.610   6.253   2.884  1.0788 -0.5556  0.4174
  274MOL0     H36965   3.456   6.182   2.949  0.8406 -1.8268  1.1092
  274MOL0     H36966   3.672   6.026   2.793  2.5377 -1.6104  1.9697
  274MOL0     H36967   3.533   5.957   2.883  1.5780 -1.6233  3.0393
  274MOL0     H36968   3.760   6.073   3.028  0.7771  0.1747 -2.1357
  274MOL0     H36969   3.599   6.042   3.092 -1.1196  2.3024 -1.9100
  274MOL0     H36970   2.922   6.512   2.288 -1.9270  0.8074 -2.3065
  274MOL0     H36971   2.840   6.523   2.054 -4.2034 -3.1499 -1.2246
  274MOL0     H36972   2.860   6.472   1.634  0.0455  1.1933 -1.2021
  274MOL0     H36973   2.799   6.492   1.392 -0.5651  0.6096 -1.7166
  274MOL0     H36974   1.520   7.025   0.435  0.3685  0.3032 -0.7674
  274MOL0     H36975   1.502   7.130   0.222  2.0425  3.9678 -1.9602
  274MOL0     H36976   1.429   7.550  -0.024  2.0629 -0.0127 -1.6624
  274MOL0     H36977   1.411   7.625  -0.234 -0.5657  0.5099 -0.4654
  274MOL0     H36978   1.415   7.619  -0.469  0.5586  1.3550 -1.7416
  274MOL0     H36979   1.278   7.724  -0.406  1.8509 -0.2830  0.0255
  274MOL0     H36980   1.341   7.719  -0.679  1.0354 -0.6402  1.4214
  274MOL0     H36981   1.174   7.709  -0.618 -0.4512 -0.2551  0.7928
  274MOL0     H36982   1.261   7.562  -0.805  1.5162  0.4852  0.0727
  274MOL0     H36983   1.166   7.479  -0.686  0.8044 -1.5692  1.3913
  274MOL0     H36984   1.402   7.399  -0.573 -1.5676  1.0258  0.6476
  274MOL0     H36985   1.359   7.346  -0.739 -0.2260  0.6026 -0.2913
  274MOL0     H36986   1.693   7.579  -0.817  1.2043 -0.5698  0.4117
  274MOL0     H36987   1.063   7.380  -0.291  0.5335  0.5592 -1.5992
  274MOL0     H36988   1.077   7.171  -0.065  0.6728 -0.4091 -2.2927
  274MOL0     H36989   0.969   7.299   0.014  0.3306  3.3223 -0.7994
  274MOL0     H36990   0.961   7.266  -0.158 -1.0794  6.2581  1.0675
  275MOL0     O36991   1.869   5.713   1.558  0.1102  0.5057  0.2725
  275MOL0     C36992   1.933   5.818   1.544  0.7937  0.5089  0.8884
  275MOL0     O36993   1.930   5.929   1.631  0.6075 -0.0298 -0.4046
  275MOL0     C36994   1.842   5.925   1.738 -1.3185 -1.1297 -0.8338
  275MOL0     C36995   1.785   6.045   1.789  0.2040 -0.1142  0.1295
  275MOL0     C36996   1.693   6.051   1.901 -0.1958 -0.9043  0.4774
  275MOL0     C36997   1.675   5.938   1.985  0.7554 -0.5030  0.4723
  275MOL0     O36998   1.602   5.948   2.099  0.8180 -0.6159 -0.0222
  275MOL0     C36999   1.540   5.825   2.150 -0.1977 -0.3759 -0.5382
  275MOL0     C37000   1.444   5.856   2.267  0.1507  0.1651 -0.3484
  275MOL0     C37001   1.359   5.733   2.316  0.7070  0.7605 -0.1867
  275MOL0     C37002   1.448   5.615   2.370  1.1207 -0.0937  0.5380
  275MOL0     C37003   1.351   5.493   2.412 -0.3370 -0.2919  0.3586
  275MOL0     C37004   1.437   5.370   2.407  0.2363  0.6525 -0.3120
  275MOL0     C37005   1.357   5.249   2.465  0.6737 -0.0284 -0.1142
  275MOL0     C37006   1.427   5.109   2.448 -0.6475 -0.2580  0.6767
  275MOL0     N37007   1.471   5.051   2.571  0.2217 -0.3561 -0.1096
  275MOL0     C37008   1.404   4.962   2.650  0.6986 -1.0619 -0.0854
  275MOL0     C37009   1.492   4.944   2.754  0.5004  0.3378 -0.2913
  275MOL0     C37010   1.457   4.851   2.873  0.5339  0.2582  0.7797
  275MOL0     C37011   1.585   4.823   2.956  0.5273  0.7362  0.1811
  275MOL0     C37012   1.546   4.727   3.073 -0.7298 -0.4558 -0.6625
  275MOL0     C37013   1.674   4.645   3.120  0.6541 -0.5448  0.4905
  275MOL0     O37014   1.764   4.740   3.175  0.8873  0.6881  0.5176
  275MOL0     C37015   1.896   4.693   3.199 -0.2056 -0.7906  0.3563
  275MOL0     C37016   1.952   4.568   3.164 -1.5246  0.4888  0.4054
  275MOL0     C37017   2.081   4.543   3.206 -0.1038 -0.4824 -0.3852
  275MOL0     C37018   2.158   4.636   3.276 -0.1110 -0.2469 -0.3860
  275MOL0     C37019   2.297   4.604   3.322  0.4845  0.7682 -0.0819
  275MOL0     O37020   2.358   4.709   3.376 -0.0010 -0.1540  0.3884
  275MOL0     C37021   2.485   4.703   3.405 -0.5710 -0.0117 -0.7804
  275MOL0     C37022   2.523   4.715   3.545 -0.9302 -0.4257  0.6002
  275MOL0     C37023   2.660   4.686   3.578  0.2275  1.1084 -0.6232
  275MOL0     C37024   2.752   4.658   3.479 -0.2275 -0.4675 -0.7137
  275MOL0     O37025   2.878   4.612   3.518 -0.0198  0.1015  0.0797
  275MOL0     C37026   2.949   4.508   3.443  0.0731  0.1296  0.2660
  275MOL0     C37027   3.085   4.482   3.506  1.1814  0.0194 -0.2982
  275MOL0     C37028   3.171   4.407   3.419 -0.6553 -0.5292 -0.9532
  275MOL0     C37029   3.305   4.391   3.507  0.0475 -0.5865  0.1090
  275MOL0     C37030   3.356   4.512   3.586 -0.2774 -0.7397 -1.2317
  275MOL0     C37031   3.498   4.488   3.626  0.3614 -0.4454 -0.6777
  275MOL0     C37032   3.562   4.620   3.678 -0.4845 -0.2654  0.9810
  275MOL0     C37033   3.710   4.601   3.667  0.1224 -0.2346  0.1430
  275MOL0    Cl37034   3.781   4.727   3.759 -0.0653 -0.5144  0.3549
  275MOL0     C37035   2.713   4.658   3.343 -0.0874 -0.0023 -1.4179
  275MOL0     C37036   2.586   4.688   3.311  1.0288  0.0935  0.1969
  275MOL0     O37037   2.341   4.496   3.303 -0.1739  0.2149  0.1120
  275MOL0     C37038   2.106   4.760   3.306  0.0299 -0.0020  0.0464
  275MOL0     C37039   1.974   4.791   3.266  0.3187  0.4610  0.2992
  275MOL0     N37040   1.598   5.028   2.743 -0.5463  0.4449  0.5661
  275MOL0     N37041   1.588   5.084   2.630  0.2887 -0.8428 -0.0865
  275MOL0     C37042   1.745   5.819   1.939  0.1528  0.2480  1.1542
  275MOL0     C37043   1.815   5.814   1.823 -0.4951 -0.6546 -0.0865
  275MOL0     C37044   2.006   5.842   1.418  0.2274 -0.2538 -0.4503
  275MOL0     C37045   1.937   5.832   1.296 -0.1047  0.4876  0.3433
  275MOL0     C37046   2.007   5.855   1.175 -1.6968  0.4495 -0.2264
  275MOL0     C37047   2.144   5.891   1.182 -0.2027  0.4224  0.2112
  275MOL0     O37048   2.222   5.910   1.075 -0.6598  0.0426  0.3117
  275MOL0     C37049   2.320   5.804   1.052 -0.0151 -0.3118  0.3906
  275MOL0     C37050   2.291   5.724   0.922 -0.2531 -0.6115  0.8397
  275MOL0     C37051   2.325   5.806   0.794  0.4504  1.1849 -0.2382
  275MOL0     C37052   2.210   5.895   0.759  0.3018 -0.2652  0.1075
  275MOL0     C37053   2.233   5.985   0.649  0.1659  0.4739  0.4356
  275MOL0     C37054   2.242   6.061   0.553 -0.1706 -0.0142 -0.1617
  275MOL0     C37055   2.203   5.915   1.303  0.6684 -0.4215  0.6310
  275MOL0     C37056   2.136   5.892   1.417 -1.0850 -0.1055 -0.1188
  275MOL0     C37057   2.219   5.918   1.548  0.4055 -0.0961 -0.3277
  275MOL0     H37058   1.810   6.128   1.723  3.9115  1.0934  2.7385
  275MOL0     H37059   1.647   6.149   1.912  1.9598  0.0291  1.8425
  275MOL0     H37060   1.483   5.769   2.075 -1.6694  2.9701 -2.1595
  275MOL0     H37061   1.615   5.751   2.179 -1.4247 -0.6710  2.1395
  275MOL0     H37062   1.384   5.945   2.245 -0.7287 -0.2422  0.3495
  275MOL0     H37063   1.505   5.897   2.348  0.9054 -0.6539 -0.4862
  275MOL0     H37064   1.296   5.688   2.239  2.5091  0.0039 -1.2877
  275MOL0     H37065   1.286   5.771   2.388 -2.1483 -0.6248 -2.1202
  275MOL0     H37066   1.507   5.578   2.285 -2.2515 -1.6566 -1.3122
  275MOL0     H37067   1.519   5.643   2.448  1.2315  1.8727 -0.2156
  275MOL0     H37068   1.308   5.510   2.512 -0.0067  3.4381  0.0049
  275MOL0     H37069   1.271   5.484   2.338 -0.6664  1.3741  0.4631
  275MOL0     H37070   1.470   5.348   2.305  1.5762 -0.7507  0.3854
  275MOL0     H37071   1.527   5.384   2.468  1.8410 -3.0967 -1.5321
  275MOL0     H37072   1.271   5.241   2.397  1.0944 -0.6476 -0.5751
  275MOL0     H37073   1.324   5.269   2.567  2.1435 -0.2453  0.4196
  275MOL0     H37074   1.360   5.035   2.403  2.3173 -1.7971 -1.4695
  275MOL0     H37075   1.509   5.117   2.377 -0.9168 -0.0992  0.3837
  275MOL0     H37076   1.306   4.919   2.638  0.4311 -0.1099 -1.6040
  275MOL0     H37077   1.380   4.892   2.940 -0.2950 -0.1864  0.1262
  275MOL0     H37078   1.401   4.763   2.840 -2.5257  2.2334  0.2802
  275MOL0     H37079   1.657   4.774   2.890  1.7237  4.1429 -1.2739
  275MOL0     H37080   1.625   4.914   3.003 -2.3542  0.2912  3.9503
  275MOL0     H37081   1.464   4.661   3.045 -1.0914 -0.8729  1.2523
  275MOL0     H37082   1.516   4.778   3.165 -0.0367 -2.6024  0.8188
  275MOL0     H37083   1.726   4.597   3.036 -0.9974 -0.5516 -0.5768
  275MOL0     H37084   1.655   4.565   3.192 -1.3729 -2.6269 -2.1414
  275MOL0     H37085   1.886   4.492   3.125  0.2735 -1.8887  1.7478
  275MOL0     H37086   2.116   4.447   3.170  1.1020  0.0679 -0.7397
  275MOL0     H37087   2.453   4.751   3.620 -1.0683  0.5462  0.0242
  275MOL0     H37088   2.683   4.695   3.684  0.8436 -0.8206 -0.5614
  275MOL0     H37089   2.890   4.416   3.444 -2.8888  1.8915 -0.8172
  275MOL0     H37090   2.967   4.535   3.339  0.1645 -0.2139  0.1907
  275MOL0     H37091   3.130   4.579   3.528  0.6572 -0.3082  2.7201
  275MOL0     H37092   3.077   4.438   3.606  0.2085  4.0649  1.6083
  275MOL0     H37093   3.151   4.307   3.380 -0.1948 -0.8413 -0.4066
  275MOL0     H37094   3.204   4.459   3.329 -1.6482  0.1105 -0.9543
  275MOL0     H37095   3.381   4.356   3.436  0.1519  0.2460 -0.2033
  275MOL0     H37096   3.303   4.309   3.580  0.9968  0.2181  1.0687
  275MOL0     H37097   3.301   4.535   3.678  0.9510  0.1096 -0.6701
  275MOL0     H37098   3.336   4.601   3.525 -1.2551 -1.5813 -2.1873
  275MOL0     H37099   3.492   4.426   3.716 -2.1354  2.4533  1.3558
  275MOL0     H37100   3.555   4.436   3.549 -0.3396 -0.4116 -1.2290
  275MOL0     H37101   3.548   4.641   3.784 -0.5333 -0.3637  0.9943
  275MOL0     H37102   3.520   4.701   3.618  0.7942 -1.1957 -1.2974
  275MOL0     H37103   3.738   4.511   3.723  1.6408 -0.7319 -1.3329
  275MOL0     H37104   3.751   4.586   3.567  2.1050  0.5294  0.7863
  275MOL0     H37105   2.770   4.647   3.251 -1.2554  1.6240 -2.3920
  275MOL0     H37106   2.570   4.695   3.203 -0.5793 -2.3777  0.1686
  275MOL0     H37107   2.159   4.837   3.362 -0.0792 -2.2099  3.4278
  275MOL0     H37108   1.915   4.878   3.293 -0.9244 -0.9317  2.3454
  275MOL0     H37109   1.755   5.732   2.002 -0.4746  0.0168  0.9411
  275MOL0     H37110   1.862   5.718   1.808  0.0481 -0.7085  1.7309
  275MOL0     H37111   1.837   5.794   1.314  0.0049  1.0651  2.3670
  275MOL0     H37112   1.951   5.849   1.082 -0.5692 -0.7088 -0.8602
  275MOL0     H37113   2.326   5.734   1.136  1.6692 -0.4740  0.1687
  275MOL0     H37114   2.422   5.842   1.053 -0.3009  1.0964 -3.8820
  275MOL0     H37115   2.183   5.709   0.914 -0.3169 -0.0550  0.6188
  275MOL0     H37116   2.337   5.625   0.913  0.4443 -0.0935 -4.2623
  275MOL0     H37117   2.336   5.736   0.711  0.5868  1.5939 -0.5682
  275MOL0     H37118   2.420   5.854   0.821  2.3926 -2.5109  0.2469
  275MOL0     H37119   2.121   5.835   0.738 -1.0602  1.8938 -0.6941
  275MOL0     H37120   2.180   5.958   0.844 -1.7235  0.8404 -1.3317
  275MOL0     H37121   2.250   6.125   0.468  0.1231 -1.5516 -1.3362
  275MOL0     H37122   2.307   5.941   1.321  0.8797 -1.2071  0.5968
  275MOL0     H37123   2.324   5.913   1.519  0.6904  1.3665  0.3684
  275MOL0     H37124   2.210   6.019   1.588  1.1461  0.4622 -1.5087
  275MOL0     H37125   2.201   5.844   1.627  1.0429  0.7291  0.6103
  276MOL0     O37126   6.657   8.342   0.826  0.1209 -0.0908  0.1313
  276MOL0     C37127   6.532   8.323   0.832  0.5335 -0.1686  0.1414
  276MOL0     O37128   6.450   8.431   0.824  0.2058 -0.5451 -0.5893
  276MOL0     C37129   6.499   8.561   0.842 -0.4969  0.4025 -0.2964
  276MOL0     C37130   6.429   8.658   0.774  0.2200  0.5361  0.2972
  276MOL0     C37131   6.485   8.787   0.752  0.3917  0.4532  0.3146
  276MOL0     C37132   6.603   8.827   0.819  0.0185 -0.1672 -0.1633
  276MOL0     O37133   6.665   8.953   0.817  0.1539 -0.3126 -0.4748
  276MOL0     C37134   6.602   9.055   0.738 -0.4639 -0.0979  0.1905
  276MOL0     C37135   6.477   9.121   0.796  0.4929  0.2144  0.2340
  276MOL0     C37136   6.400   9.201   0.683  0.8475 -0.7729 -0.1277
  276MOL0     C37137   6.263   9.252   0.735  1.2881  0.0414 -0.5942
  276MOL0     C37138   6.206   9.358   0.641  0.4349  0.7622  0.3375
  276MOL0     C37139   6.054   9.341   0.610 -0.1555  0.1241  0.0634
  276MOL0     C37140   5.988   9.464   0.556  0.0501  0.1476  0.1018
  276MOL0     C37141   5.835   9.442   0.542  0.0509  0.8706  0.1446
  276MOL0     N37142   5.807   9.327   0.452 -0.5333  0.1125 -0.0853
  276MOL0     C37143   5.807   9.194   0.485 -0.4844  0.7802 -0.3630
  276MOL0     C37144   5.828   9.124   0.377 -0.4190 -0.1138  0.5203
  276MOL0     C37145   5.829   8.976   0.353  0.6355 -1.6486  0.0766
  276MOL0     C37146   5.924   8.919   0.252 -0.8619 -0.3479  1.5348
  276MOL0     C37147   6.073   8.961   0.273 -0.4294 -0.2679 -0.7167
  276MOL0     C37148   6.129   8.881   0.390 -0.0329 -0.1461  0.2321
  276MOL0     O37149   6.260   8.926   0.438  0.7624  0.3445  0.5504
  276MOL0     C37150   6.374   8.890   0.375  0.3875 -0.5846 -0.1815
  276MOL0     C37151   6.464   8.976   0.313  0.0583 -0.1403 -0.0007
  276MOL0     C37152   6.596   8.934   0.273 -0.2008 -0.0112  0.4751
  276MOL0     C37153   6.634   8.804   0.306 -0.4150 -0.1312 -1.2753
  276MOL0     C37154   6.768   8.763   0.285  0.3674  1.2350  0.3105
  276MOL0     O37155   6.853   8.861   0.326 -0.1803  0.7406  0.4727
  276MOL0     C37156   6.987   8.845   0.314 -0.1282  0.0328 -0.2894
  276MOL0     C37157   7.053   8.922   0.409  0.3819  0.2783  0.5223
  276MOL0     C37158   7.187   8.915   0.432 -0.1730 -0.5831  0.0675
  276MOL0     C37159   7.269   8.834   0.351  0.4080 -1.0064  0.9633
  276MOL0     O37160   7.402   8.805   0.362  0.8092  0.0587  0.1683
  276MOL0     C37161   7.477   8.875   0.457  0.2501  0.1155  0.4251
  276MOL0     C37162   7.625   8.837   0.466  1.0260  0.9022  0.4180
  276MOL0     C37163   7.710   8.856   0.348 -0.0742  0.2831 -0.8433
  276MOL0     C37164   7.666   8.777   0.216  0.8916  0.6623 -0.6684
  276MOL0     C37165   7.756   8.831   0.102 -0.2881  0.2243  0.8967
  276MOL0     C37166   7.690   8.799  -0.040  0.3993 -0.0819 -0.5467
  276MOL0     C37167   7.767   8.854  -0.166  0.8900  0.2752  0.0635
  276MOL0     C37168   7.693   8.834  -0.296  0.1120  0.0549  0.5264
  276MOL0    Cl37169   7.780   8.893  -0.442  0.0055 -0.1879  0.3294
  276MOL0     C37170   7.207   8.761   0.243 -0.6507  0.0856 -1.4315
  276MOL0     C37171   7.071   8.771   0.222 -0.6560 -0.0124 -0.1838
  276MOL0     O37172   6.800   8.646   0.247  0.0915 -0.7171 -0.3606
  276MOL0     C37173   6.545   8.714   0.368  0.3988 -1.2686 -0.6556
  276MOL0     C37174   6.412   8.762   0.392 -0.5967  0.3549 -0.0376
  276MOL0     N37175   5.836   9.206   0.264  0.0719  0.5583  0.2228
  276MOL0     N37176   5.823   9.319   0.315 -0.3102 -0.1903 -0.5509
  276MOL0     C37177   6.667   8.725   0.896  1.1122  0.0869  0.3489
  276MOL0     C37178   6.616   8.595   0.903  0.0530 -0.0560  0.4827
  276MOL0     C37179   6.466   8.186   0.870 -0.4047  0.7864  0.4067
  276MOL0     C37180   6.334   8.187   0.857 -0.1601 -0.3470  0.8568
  276MOL0     C37181   6.258   8.067   0.869 -0.7145 -0.3816  0.1050
  276MOL0     C37182   6.327   7.946   0.902 -0.1577 -0.4507 -0.1727
  276MOL0     O37183   6.267   7.832   0.881  0.5320  0.7305  0.3663
  276MOL0     C37184   6.248   7.749   1.002  0.4301  1.0224  0.5374
  276MOL0     C37185   6.103   7.780   1.050  0.2070 -0.2788  0.2079
  276MOL0     C37186   5.993   7.757   0.942  0.3975 -0.5055  0.5796
  276MOL0     C37187   5.864   7.705   1.006 -0.0010 -0.7943 -0.1975
  276MOL0     C37188   5.743   7.706   0.930  0.5414  0.0762 -0.0294
  276MOL0     C37189   5.639   7.719   0.876  0.9227 -0.5746 -0.6050
  276MOL0     C37190   6.459   7.945   0.931 -0.3741 -0.8302  0.2826
  276MOL0     C37191   6.537   8.067   0.918 -0.7392  1.0379  0.6769
  276MOL0     C37192   6.680   8.073   0.939 -0.5650 -0.0533 -0.9215
  276MOL0     H37193   6.330   8.640   0.733 -1.2667  3.9130  2.0070
  276MOL0     H37194   6.413   8.846   0.696 -1.3941 -2.1065 -0.2672
  276MOL0     H37195   6.673   9.137   0.729  0.2920 -0.8076 -0.5262
  276MOL0     H37196   6.582   9.014   0.638  3.1765  1.4664 -1.3739
  276MOL0     H37197   6.500   9.187   0.880 -1.6004  1.4462 -0.0602
  276MOL0     H37198   6.410   9.046   0.839 -0.6898  0.0325 -1.7491
  276MOL0     H37199   6.387   9.133   0.598  0.8051 -0.9753  0.0405
  276MOL0     H37200   6.457   9.288   0.649  1.0793  0.3425  2.8241
  276MOL0     H37201   6.186   9.174   0.734 -1.0743  2.1063  2.4165
  276MOL0     H37202   6.252   9.284   0.839 -3.5241  1.0699 -1.1802
  276MOL0     H37203   6.215   9.459   0.681  1.2171  2.0022 -2.7068
  276MOL0     H37204   6.252   9.360   0.543 -2.9070  1.4110 -1.3832
  276MOL0     H37205   6.022   9.253   0.553 -1.4035  2.2467 -2.7081
  276MOL0     H37206   6.007   9.334   0.709  0.3964  0.0045  0.3251
  276MOL0     H37207   6.025   9.484   0.455 -0.9210 -1.2373 -0.5531
  276MOL0     H37208   5.990   9.557   0.613 -3.0110  0.7740 -0.6424
  276MOL0     H37209   5.801   9.423   0.644  4.2549 -1.2925  1.3842
  276MOL0     H37210   5.785   9.519   0.483 -0.7626  0.0903 -0.1876
  276MOL0     H37211   5.824   9.157   0.585 -0.3262 -0.1288 -0.7162
  276MOL0     H37212   5.851   8.930   0.449 -0.7617 -0.8355  0.8225
  276MOL0     H37213   5.725   8.952   0.327  0.3157  0.8868 -1.3773
  276MOL0     H37214   5.910   8.812   0.231 -0.3254 -0.0846 -0.3606
  276MOL0     H37215   5.889   8.969   0.161 -1.0780  0.7137  2.1901
  276MOL0     H37216   6.084   9.068   0.296  3.6938 -0.5163 -0.8050
  276MOL0     H37217   6.113   8.942   0.174 -0.8099 -0.5627 -0.8149
  276MOL0     H37218   6.123   8.776   0.361 -5.8205 -0.1350  0.2703
  276MOL0     H37219   6.060   8.895   0.473 -0.0892  2.0789 -0.1381
  276MOL0     H37220   6.435   9.080   0.304 -2.1705 -0.8640 -2.3489
  276MOL0     H37221   6.655   9.011   0.225 -0.2185 -1.1695 -1.5051
  276MOL0     H37222   6.992   8.986   0.472  2.0768  1.9703  0.5321
  276MOL0     H37223   7.235   8.962   0.517  0.8491  0.1108 -0.8753
  276MOL0     H37224   7.465   8.981   0.429  3.5112  0.2370 -0.9613
  276MOL0     H37225   7.444   8.867   0.561  2.6574  0.9124  1.3233
  276MOL0     H37226   7.652   8.896   0.554 -0.2529  0.5986  1.0268
  276MOL0     H37227   7.634   8.734   0.502  2.6812  1.0206  0.4195
  276MOL0     H37228   7.710   8.964   0.329 -1.9887  1.4357  4.2469
  276MOL0     H37229   7.812   8.825   0.372 -0.9616 -0.0486  3.2369
  276MOL0     H37230   7.558   8.783   0.195  1.2849  0.7978 -2.9210
  276MOL0     H37231   7.683   8.670   0.231 -2.0827  0.4361  2.2682
  276MOL0     H37232   7.855   8.784   0.104 -1.3702 -2.1870  1.1351
  276MOL0     H37233   7.763   8.939   0.118 -1.2579  0.4346 -0.0032
  276MOL0     H37234   7.655   8.696  -0.053 -1.8429  0.6152 -0.4899
  276MOL0     H37235   7.597   8.856  -0.029 -0.6928 -2.2382  2.7047
  276MOL0     H37236   7.858   8.799  -0.191 -0.0463 -2.5542  2.2053
  276MOL0     H37237   7.796   8.955  -0.137 -0.9246  0.3577  1.8053
  276MOL0     H37238   7.663   8.730  -0.312 -2.2764  1.0759 -2.9700
  276MOL0     H37239   7.604   8.898  -0.299  1.4853  2.0786  0.8034
  276MOL0     H37240   7.266   8.697   0.179  1.2469  3.1398 -2.9846
  276MOL0     H37241   7.008   8.715   0.152 -2.9892  2.4537 -0.2469
  276MOL0     H37242   6.589   8.617   0.390 -0.1741 -1.3766  0.0200
  276MOL0     H37243   6.337   8.699   0.440 -0.3230  0.6148  0.7542
  276MOL0     H37244   6.758   8.745   0.952  0.9587 -0.3964  0.7780
  276MOL0     H37245   6.681   8.525   0.955 -1.4645 -0.4801  1.8855
  276MOL0     H37246   6.285   8.273   0.814 -0.3560 -0.5749  0.6233
  276MOL0     H37247   6.154   8.062   0.838 -0.6950  4.2574 -1.4518
  276MOL0     H37248   6.320   7.772   1.080 -1.7150  0.8808  2.6820
  276MOL0     H37249   6.258   7.645   0.967 -2.2087  0.9185 -0.1479
  276MOL0     H37250   6.111   7.887   1.072  0.2760 -0.2918  0.2476
  276MOL0     H37251   6.070   7.739   1.146  3.4612  1.2070  2.1563
  276MOL0     H37252   6.031   7.698   0.858  0.8707 -0.4654  0.7625
  276MOL0     H37253   5.973   7.854   0.897 -2.9739 -2.1016 -1.7990
  276MOL0     H37254   5.892   7.606   1.046  3.7024 -0.3732 -1.4213
  276MOL0     H37255   5.845   7.777   1.086  1.1398  1.8978 -2.2102
  276MOL0     H37256   5.549   7.724   0.818  1.7025 -1.3110 -1.9190
  276MOL0     H37257   6.514   7.855   0.955  2.6964  0.2336 -2.0772
  276MOL0     H37258   6.713   7.969   0.943 -1.2254 -0.2317  0.9323
  276MOL0     H37259   6.726   8.100   0.843 -1.8620  1.1376 -1.2357
  276MOL0     H37260   6.704   8.137   1.023 -2.8132  1.5284 -1.3930
  277MOL0     O37261   2.464   2.971   8.057 -1.2778 -0.3105  0.1872
  277MOL0     C37262   2.475   2.855   8.008  0.2980  0.4372  0.3561
  277MOL0     O37263   2.509   2.742   8.071  0.6717 -0.4598  0.5675
  277MOL0     C37264   2.521   2.733   8.206  0.0975 -0.3243 -0.3518
  277MOL0     C37265   2.611   2.644   8.257  0.9210  0.9885  0.9396
  277MOL0     C37266   2.626   2.624   8.389  1.2356  0.8925 -0.5098
  277MOL0     C37267   2.534   2.678   8.478 -0.9205  0.1301  0.2648
  277MOL0     O37268   2.542   2.668   8.609  0.2595 -0.4835 -0.4047
  277MOL0     C37269   2.664   2.670   8.673 -0.6303  0.1781  0.1680
  277MOL0     C37270   2.719   2.813   8.692  0.0587  0.8788  0.5641
  277MOL0     C37271   2.837   2.826   8.778 -0.1868 -0.8684 -0.9946
  277MOL0     C37272   2.872   2.974   8.799 -0.6177 -0.1393  0.0212
  277MOL0     C37273   3.029   2.984   8.829  0.3576 -0.4020 -1.4074
  277MOL0     C37274   3.051   3.117   8.899 -0.1561 -0.4220 -0.4575
  277MOL0     C37275   3.199   3.114   8.949 -0.6655 -0.4922  0.6563
  277MOL0     C37276   3.231   3.258   9.007 -0.3768  0.8001  0.2400
  277MOL0     N37277   3.371   3.273   9.050  0.0218 -0.7452  0.5851
  277MOL0     C37278   3.410   3.354   9.159 -0.5668 -0.6609  0.3612
  277MOL0     C37279   3.549   3.341   9.149  0.3524 -0.5645 -0.7621
  277MOL0     C37280   3.639   3.410   9.248  0.5392 -0.0443 -0.1193
  277MOL0     C37281   3.678   3.541   9.195 -0.2963  1.1433  1.1075
  277MOL0     C37282   3.743   3.608   9.319  0.3056 -0.0552 -0.6664
  277MOL0     C37283   3.817   3.730   9.268  0.3920  0.3835  0.8885
  277MOL0     O37284   3.730   3.811   9.188 -0.7055  0.1591 -0.5771
  277MOL0     C37285   3.784   3.878   9.080  0.6765  0.1134  0.1481
  277MOL0     C37286   3.724   4.000   9.035  1.0429  0.4633 -0.2132
  277MOL0     C37287   3.747   4.057   8.911 -0.4499  0.9028 -1.3656
  277MOL0     C37288   3.833   3.985   8.820 -0.3282  0.2495  0.5643
  277MOL0     C37289   3.875   4.053   8.698  1.1666 -0.1593  0.6086
  277MOL0     O37290   3.867   4.187   8.699  0.9819 -0.5750  0.0511
  277MOL0     C37291   3.924   4.265   8.606  0.5149 -0.1186 -0.5693
  277MOL0     C37292   4.045   4.322   8.628  0.2124  0.3641 -0.2932
  277MOL0     C37293   4.117   4.392   8.529 -0.0404 -0.2355 -0.5851
  277MOL0     C37294   4.058   4.421   8.408 -0.0905  0.5176  0.8415
  277MOL0     O37295   4.138   4.491   8.317  0.1478  0.2264 -0.4273
  277MOL0     C37296   4.089   4.523   8.189 -0.0076 -0.9391  0.8275
  277MOL0     C37297   4.204   4.576   8.107 -0.3224  0.5509  0.9034
  277MOL0     C37298   4.251   4.708   8.180  1.1253 -0.9586 -0.2300
  277MOL0     C37299   4.315   4.805   8.084  0.1212 -0.6789  0.5431
  277MOL0     C37300   4.442   4.756   8.013  0.1923 -0.0420  0.2945
  277MOL0     C37301   4.525   4.863   7.939 -0.7499 -0.2127 -0.2667
  277MOL0     C37302   4.649   4.803   7.898 -0.2065  0.0337  0.1955
  277MOL0     C37303   4.718   4.883   7.784  0.7118  1.1263 -0.6595
  277MOL0    Cl37304   4.868   4.801   7.756 -0.4297  0.0213  0.1594
  277MOL0     C37305   3.926   4.365   8.383  0.0981 -0.4928 -0.3503
  277MOL0     C37306   3.861   4.285   8.478 -0.6366 -0.9199  0.0048
  277MOL0     O37307   3.924   3.984   8.606  0.1727 -0.1828 -0.2583
  277MOL0     C37308   3.889   3.862   8.863 -0.2048  0.0372  0.4542
  277MOL0     C37309   3.859   3.816   8.988 -0.3302  1.0911  0.2907
  277MOL0     N37310   3.586   3.259   9.043  0.1342 -0.0378 -0.0006
  277MOL0     N37311   3.477   3.227   8.984  0.7567  1.0153 -0.0985
  277MOL0     C37312   2.434   2.758   8.429 -0.5613 -0.3312  0.0217
  277MOL0     C37313   2.431   2.791   8.291  0.8733 -0.7162 -0.2304
  277MOL0     C37314   2.427   2.841   7.859 -0.6616 -0.5096 -0.9077
  277MOL0     C37315   2.452   2.713   7.795  0.3149 -0.3152 -0.1843
  277MOL0     C37316   2.422   2.700   7.657 -0.4838 -0.1347  0.8314
  277MOL0     C37317   2.386   2.812   7.580 -0.1608  0.2502  0.5393
  277MOL0     O37318   2.358   2.810   7.449 -0.2892  0.1082 -0.3405
  277MOL0     C37319   2.299   2.692   7.395 -1.5990  0.2104 -0.7128
  277MOL0     C37320   2.408   2.608   7.324 -0.2229  0.4905  0.3103
  277MOL0     C37321   2.351   2.470   7.294  0.7072  0.0472 -0.0117
  277MOL0     C37322   2.389   2.409   7.156 -0.7908 -0.1581  0.4643
  277MOL0     C37323   2.354   2.267   7.161 -1.0116  0.0644  0.4855
  277MOL0     C37324   2.320   2.145   7.161 -0.1527  0.6714  0.1955
  277MOL0     C37325   2.366   2.927   7.643  0.1018 -0.8244 -0.3038
  277MOL0     C37326   2.369   2.947   7.786 -0.6667  0.2190  0.4288
  277MOL0     C37327   2.319   3.084   7.826  0.7808 -0.4384 -0.3522
  277MOL0     H37328   2.683   2.595   8.192  0.8710  1.3886  0.5832
  277MOL0     H37329   2.707   2.567   8.433  1.6625  1.3332 -0.7141
  277MOL0     H37330   2.644   2.628   8.772 -1.9256  0.8409  0.2120
  277MOL0     H37331   2.748   2.619   8.624  0.3362  2.5176 -0.7435
  277MOL0     H37332   2.648   2.874   8.749  3.5408  2.1865  3.9705
  277MOL0     H37333   2.743   2.854   8.594 -1.0168  0.7592  0.2374
  277MOL0     H37334   2.907   2.767   8.719 -1.2818 -1.5162 -1.6845
  277MOL0     H37335   2.810   2.783   8.875  0.2821  2.0341  0.5434
  277MOL0     H37336   2.848   3.030   8.708 -2.2903 -0.5595  0.1793
  277MOL0     H37337   2.810   3.011   8.881  0.3923  0.8169  0.3834
  277MOL0     H37338   3.055   2.910   8.906 -1.7230  0.1552 -0.0665
  277MOL0     H37339   3.090   2.977   8.739  2.8943 -0.5738  0.2039
  277MOL0     H37340   3.028   3.193   8.823 -0.9493 -5.2880 -5.7290
  277MOL0     H37341   2.981   3.124   8.983 -2.0035 -0.8430 -1.8906
  277MOL0     H37342   3.265   3.087   8.866 -1.6490 -0.7071 -0.0812
  277MOL0     H37343   3.217   3.043   9.030 -2.5587  0.1090  1.6736
  277MOL0     H37344   3.183   3.319   8.930  0.3324 -1.2994 -1.9977
  277MOL0     H37345   3.178   3.267   9.102  2.1157 -0.7801  1.8747
  277MOL0     H37346   3.349   3.403   9.235  0.5581  1.8471 -0.2386
  277MOL0     H37347   3.578   3.419   9.339 -4.1531 -0.8873 -2.8683
  277MOL0     H37348   3.728   3.352   9.275  1.4109  1.0301 -0.6212
  277MOL0     H37349   3.757   3.530   9.120  0.7328  2.6977  1.9008
  277MOL0     H37350   3.592   3.595   9.157 -2.1568 -2.5351 -0.4264
  277MOL0     H37351   3.818   3.546   9.369  0.0498 -1.1594 -1.5855
  277MOL0     H37352   3.661   3.625   9.389  1.3430  0.3411  0.4814
  277MOL0     H37353   3.909   3.695   9.222  0.9933  3.1215 -0.1833
  277MOL0     H37354   3.850   3.790   9.353  1.2826  1.3837 -0.1255
  277MOL0     H37355   3.639   4.041   9.088 -0.5101 -0.5061 -1.8275
  277MOL0     H37356   3.683   4.140   8.882 -1.3198  0.9533  0.5900
  277MOL0     H37357   4.095   4.308   8.724 -3.1720 -1.3032  1.3998
  277MOL0     H37358   4.218   4.430   8.541 -0.1350 -0.7306  2.4433
  277MOL0     H37359   4.045   4.431   8.149  1.9331 -1.2213 -0.8775
  277MOL0     H37360   4.023   4.610   8.191  1.0352 -0.1481  1.9026
  277MOL0     H37361   4.283   4.501   8.100 -1.7029 -0.9641  0.7992
  277MOL0     H37362   4.169   4.594   8.005 -0.8311  1.5954  1.2485
  277MOL0     H37363   4.168   4.765   8.224  0.9335  0.5185 -2.3400
  277MOL0     H37364   4.323   4.686   8.260  3.7698 -0.4150 -2.3143
  277MOL0     H37365   4.326   4.904   8.130 -1.6397  0.1415 -0.7166
  277MOL0     H37366   4.245   4.829   8.004 -0.4802  2.4903  1.8755
  277MOL0     H37367   4.404   4.681   7.943 -2.0499  0.4321  0.9222
  277MOL0     H37368   4.510   4.716   8.089  0.1583 -1.0642 -0.1963
  277MOL0     H37369   4.472   4.905   7.853  2.9523 -1.6521 -3.5855
  277MOL0     H37370   4.552   4.953   7.994 -1.3583  0.6132 -1.2931
  277MOL0     H37371   4.637   4.694   7.890  0.7066 -0.2471  2.0008
  277MOL0     H37372   4.719   4.810   7.982  0.4275 -0.5736 -0.2638
  277MOL0     H37373   4.661   4.877   7.691 -2.4258 -0.6483  1.2146
  277MOL0     H37374   4.738   4.986   7.815 -2.9537  1.7264  0.1601
  277MOL0     H37375   3.879   4.384   8.287  0.1034  1.8856  0.0435
  277MOL0     H37376   3.767   4.239   8.452 -1.3785  0.2828  0.4826
  277MOL0     H37377   3.948   3.793   8.804 -1.1340 -1.8057  1.5820
  277MOL0     H37378   3.904   3.722   9.020 -2.1250  0.8101  2.1714
  277MOL0     H37379   2.364   2.790   8.506 -1.1006 -2.2481  0.3687
  277MOL0     H37380   2.355   2.861   8.258  2.3393  1.3789  0.6693
  277MOL0     H37381   2.482   2.630   7.858 -1.0528 -0.6154  0.1014
  277MOL0     H37382   2.441   2.603   7.613 -0.3879 -1.0830  2.8246
  277MOL0     H37383   2.236   2.732   7.315 -0.2941  3.5743 -0.2585
  277MOL0     H37384   2.252   2.634   7.474  2.8213 -1.9478  0.6595
  277MOL0     H37385   2.489   2.586   7.395 -2.4781  1.8644  3.5888
  277MOL0     H37386   2.453   2.661   7.239 -0.2661 -0.4744 -0.3238
  277MOL0     H37387   2.242   2.478   7.290  0.4774 -2.7651 -2.7020
  277MOL0     H37388   2.387   2.401   7.371 -2.1913  0.5942  1.9970
  277MOL0     H37389   2.344   2.459   7.070 -2.5775  2.4551  2.7154
  277MOL0     H37390   2.497   2.420   7.149 -1.1256  3.2948 -3.1739
  277MOL0     H37391   2.341   2.039   7.157 -1.0710  0.4530  1.0726
  277MOL0     H37392   2.338   3.010   7.579 -0.3071  0.0371  0.9482
  277MOL0     H37393   2.305   3.156   7.744  0.5812  1.6774  1.4508
  277MOL0     H37394   2.221   3.070   7.873  1.2859 -1.8248  0.3456
  277MOL0     H37395   2.378   3.137   7.900 -2.6956 -0.3830  2.6603
  278MOL0     O37396   6.494   3.305   1.071  0.2629  0.3824  1.0953
  278MOL0     C37397   6.525   3.225   0.978  0.2542  0.0044  0.0582
  278MOL0     O37398   6.448   3.204   0.862 -0.3682 -0.2097 -0.7603
  278MOL0     C37399   6.335   3.283   0.854 -1.2095  0.2215 -0.4897
  278MOL0     C37400   6.341   3.421   0.851  0.0568 -0.2348 -1.9919
  278MOL0     C37401   6.223   3.504   0.840 -0.9511 -0.1293  0.0745
  278MOL0     C37402   6.095   3.447   0.829 -0.1613  0.7414  0.1919
  278MOL0     O37403   5.995   3.534   0.816  1.3004 -0.6949 -0.5644
  278MOL0     C37404   5.850   3.490   0.815 -0.1543  0.5562  0.3161
  278MOL0     C37405   5.759   3.604   0.826  0.1937  0.5568  0.0368
  278MOL0     C37406   5.722   3.664   0.693  1.1938 -0.2340  1.1304
  278MOL0     C37407   5.681   3.810   0.712 -1.1901  0.1872  0.9475
  278MOL0     C37408   5.632   3.848   0.571  0.3901 -0.2452 -0.1021
  278MOL0     C37409   5.578   3.991   0.570  1.1466 -0.4920  0.4315
  278MOL0     C37410   5.514   4.032   0.434 -0.1839  0.3352 -1.1119
  278MOL0     C37411   5.459   4.177   0.422  0.3242 -0.9482 -0.5162
  278MOL0     N37412   5.563   4.278   0.418 -0.4591 -0.2703 -0.3544
  278MOL0     C37413   5.644   4.315   0.308  0.3414  0.5645 -0.3106
  278MOL0     C37414   5.712   4.429   0.352  0.2984  0.7607 -0.1008
  278MOL0     C37415   5.803   4.519   0.277 -0.0883  0.4877 -0.8136
  278MOL0     C37416   5.947   4.503   0.311  0.3300 -0.4703  0.9108
  278MOL0     C37417   5.998   4.358   0.293  0.3550  0.6333 -0.5687
  278MOL0     C37418   6.148   4.348   0.284  0.3654  0.9552 -0.5305
  278MOL0     O37419   6.210   4.375   0.413  0.3643  0.0307 -0.3658
  278MOL0     C37420   6.343   4.347   0.433 -0.7061  0.6703 -0.3422
  278MOL0     C37421   6.394   4.385   0.560  0.4499 -0.7909  0.6312
  278MOL0     C37422   6.523   4.337   0.608 -0.1721 -0.4912  0.0873
  278MOL0     C37423   6.603   4.260   0.520 -0.1660 -0.7159 -0.4824
  278MOL0     C37424   6.739   4.212   0.572  0.2719  1.3572 -0.1236
  278MOL0     O37425   6.791   4.094   0.497  0.1828 -0.2654 -0.7157
  278MOL0     C37426   6.921   4.062   0.499 -0.6004 -0.0261  0.2827
  278MOL0     C37427   7.027   4.146   0.542 -0.0957  0.6771 -0.4942
  278MOL0     C37428   7.157   4.093   0.538 -0.5442 -0.1506 -0.1706
  278MOL0     C37429   7.193   3.968   0.487  0.3268 -0.2339  0.0059
  278MOL0     O37430   7.325   3.918   0.486  0.5873 -0.1041  0.6533
  278MOL0     C37431   7.363   3.864   0.609 -0.1725  0.0881  0.4786
  278MOL0     C37432   7.439   3.736   0.587  0.6647 -0.2357  0.2714
  278MOL0     C37433   7.473   3.679   0.719  0.7746  0.2685  0.1745
  278MOL0     C37434   7.570   3.575   0.715  0.6790  0.0348 -0.3273
  278MOL0     C37435   7.595   3.500   0.851 -0.0752 -0.9031  0.5773
  278MOL0     C37436   7.735   3.435   0.875 -0.5011  0.0851  0.1887
  278MOL0     C37437   7.767   3.311   0.787 -0.4829  0.4992 -0.0554
  278MOL0     C37438   7.915   3.302   0.749  0.5214 -0.9138  0.4464
  278MOL0    Cl37439   8.017   3.280   0.894  0.2594  0.4866  0.2069
  278MOL0     C37440   7.087   3.893   0.442 -0.3637  0.0665 -0.0061
  278MOL0     C37441   6.951   3.929   0.457 -0.0597 -0.6435 -0.8380
  278MOL0     O37442   6.789   4.253   0.676 -0.5286 -0.1435 -0.2155
  278MOL0     C37443   6.556   4.230   0.386 -0.4415 -0.2920 -0.8456
  278MOL0     C37444   6.431   4.274   0.349  0.5807 -0.2540  0.1773
  278MOL0     N37445   5.682   4.451   0.483 -0.2746 -0.1710 -0.3193
  278MOL0     N37446   5.596   4.364   0.522 -0.1440  0.8721  0.2361
  278MOL0     C37447   6.096   3.304   0.834  0.7903 -0.5494  0.5885
  278MOL0     C37448   6.211   3.223   0.846 -0.5939  0.8103  0.3202
  278MOL0     C37449   6.654   3.149   0.994 -0.6056 -0.3909  0.9231
  278MOL0     C37450   6.662   3.026   0.934  0.2603  0.1416 -0.1568
  278MOL0     C37451   6.768   2.934   0.961  0.3348 -0.8632 -0.7479
  278MOL0     C37452   6.873   2.978   1.035  0.2069 -0.0770 -0.3527
  278MOL0     O37453   6.987   2.920   1.061  0.1359 -0.2188  0.0545
  278MOL0     C37454   7.001   2.780   1.067 -0.2746 -0.2843  0.6212
  278MOL0     C37455   7.020   2.741   1.210 -0.4998  0.9611  0.6748
  278MOL0     C37456   6.915   2.785   1.314  0.6082  0.0430  0.3209
  278MOL0     C37457   6.975   2.781   1.457  0.7647  0.6756 -0.6245
  278MOL0     C37458   7.052   2.651   1.481  0.3162  0.1710  0.7029
  278MOL0     C37459   7.099   2.544   1.510  0.2936  0.6046 -0.3715
  278MOL0     C37460   6.876   3.105   1.082  0.2343 -0.6639 -0.7999
  278MOL0     C37461   6.767   3.190   1.064 -0.1223  0.2428 -0.4495
  278MOL0     C37462   6.767   3.330   1.131  0.5378  0.2132  0.0203
  278MOL0     H37463   6.438   3.468   0.866 -0.8685  2.4270 -3.6790
  278MOL0     H37464   6.230   3.613   0.840  1.9209 -0.2394  0.1039
  278MOL0     H37465   5.828   3.429   0.728 -1.1801 -0.5156  1.2857
  278MOL0     H37466   5.841   3.428   0.905  1.5326  1.6476  1.2959
  278MOL0     H37467   5.798   3.675   0.899 -1.9343 -0.0577  1.8946
  278MOL0     H37468   5.668   3.560   0.867  0.4276  0.0638  0.0405
  278MOL0     H37469   5.647   3.599   0.647 -0.9111  2.1253  1.0140
  278MOL0     H37470   5.813   3.676   0.633  1.4256  2.5147  1.8787
  278MOL0     H37471   5.610   3.821   0.795 -0.9880  1.2632  0.9812
  278MOL0     H37472   5.767   3.876   0.722 -1.5931  0.4250  3.5543
  278MOL0     H37473   5.722   3.848   0.510 -0.2699 -0.0882 -1.0902
  278MOL0     H37474   5.555   3.784   0.527  0.5719 -1.1999  0.9306
  278MOL0     H37475   5.504   4.002   0.649  0.1621 -2.0289 -0.2282
  278MOL0     H37476   5.657   4.066   0.584  0.1491  0.9170 -1.0589
  278MOL0     H37477   5.441   3.953   0.416  0.2311 -0.4188  0.3702
  278MOL0     H37478   5.584   4.031   0.350 -0.9313 -2.7746 -1.7969
  278MOL0     H37479   5.403   4.191   0.329 -0.6318 -3.4668 -0.3887
  278MOL0     H37480   5.379   4.198   0.493  0.9491  0.4214 -0.1691
  278MOL0     H37481   5.634   4.270   0.209  1.4845  0.1575 -0.2628
  278MOL0     H37482   5.786   4.489   0.173  1.2961 -0.0021 -0.9115
  278MOL0     H37483   5.782   4.624   0.297 -0.2041  0.1911  0.8106
  278MOL0     H37484   6.003   4.554   0.232  0.4139 -1.4005  0.3696
  278MOL0     H37485   5.971   4.548   0.408 -0.4817  1.0569  0.4505
  278MOL0     H37486   5.966   4.308   0.201  1.4209 -1.7737  0.2647
  278MOL0     H37487   5.958   4.294   0.372  1.9077  1.9596  1.4035
  278MOL0     H37488   6.175   4.426   0.212 -1.0363  2.5140  0.5531
  278MOL0     H37489   6.173   4.246   0.253  1.6643  1.7758 -2.3816
  278MOL0     H37490   6.325   4.444   0.620 -1.1130 -2.4676  0.6017
  278MOL0     H37491   6.553   4.361   0.710 -2.5915  2.4411  0.2361
  278MOL0     H37492   7.010   4.247   0.576 -1.9613  0.5096 -0.7877
  278MOL0     H37493   7.243   4.151   0.570 -0.2253  1.2417 -3.1828
  278MOL0     H37494   7.420   3.943   0.659  0.2232 -0.8219  1.4810
  278MOL0     H37495   7.282   3.818   0.666  0.0362 -2.8850 -1.4191
  278MOL0     H37496   7.377   3.669   0.527  1.7415 -1.3873  0.3913
  278MOL0     H37497   7.535   3.767   0.545  1.7982 -2.4480  1.0655
  278MOL0     H37498   7.496   3.749   0.799 -0.2997  0.9216 -0.0617
  278MOL0     H37499   7.378   3.632   0.748  0.1766  0.6204 -1.1397
  278MOL0     H37500   7.667   3.619   0.691  0.5729 -0.0206 -0.8678
  278MOL0     H37501   7.557   3.508   0.631 -0.9711 -0.2168  0.0875
  278MOL0     H37502   7.533   3.410   0.861 -0.9723 -0.1891  1.6203
  278MOL0     H37503   7.570   3.574   0.928 -1.0645 -0.9086  0.2797
  278MOL0     H37504   7.807   3.509   0.840 -3.2107  2.2387 -1.2379
  278MOL0     H37505   7.746   3.413   0.982  0.1443  1.5330  0.4419
  278MOL0     H37506   7.716   3.311   0.690 -1.4173 -2.5698  0.3269
  278MOL0     H37507   7.742   3.224   0.847 -3.8261  1.7515  0.5677
  278MOL0     H37508   7.933   3.213   0.688 -0.0416 -0.3081 -0.6290
  278MOL0     H37509   7.954   3.388   0.694  4.1186 -2.5127  0.2178
  278MOL0     H37510   7.107   3.790   0.415 -1.7289 -0.0327 -0.7202
  278MOL0     H37511   6.869   3.863   0.431 -1.0422  1.4286 -3.4965
  278MOL0     H37512   6.608   4.160   0.321  0.5767  1.3938 -1.9318
  278MOL0     H37513   6.375   4.246   0.260  1.7391  1.5579 -1.1803
  278MOL0     H37514   5.999   3.255   0.824  1.0152 -0.6246 -1.9858
  278MOL0     H37515   6.204   3.115   0.857 -0.5855  0.6844 -0.8150
  278MOL0     H37516   6.576   3.008   0.870 -0.0893  0.4693  0.2178
  278MOL0     H37517   6.779   2.837   0.913 -1.0215 -1.4773  0.1315
  278MOL0     H37518   7.092   2.753   1.012  0.0757  5.9756 -2.6816
  278MOL0     H37519   6.921   2.729   1.012  0.9589  0.7651 -2.3624
  278MOL0     H37520   7.120   2.777   1.235 -0.3581  1.1700 -0.1414
  278MOL0     H37521   7.019   2.632   1.212 -1.5381  0.8213 -2.1604
  278MOL0     H37522   6.836   2.709   1.316  0.6707 -0.0897 -1.2773
  278MOL0     H37523   6.872   2.881   1.286 -0.2193 -0.9124 -1.9456
  278MOL0     H37524   7.033   2.873   1.469  2.5059 -0.4898  0.3707
  278MOL0     H37525   6.899   2.785   1.536  0.1912  1.8862 -1.2134
  278MOL0     H37526   7.136   2.446   1.534 -1.8040 -0.3547 -0.8631
  278MOL0     H37527   6.959   3.142   1.141 -0.8051 -1.8749  1.5792
  278MOL0     H37528   6.688   3.343   1.205 -0.7037 -1.7660 -0.8627
  278MOL0     H37529   6.864   3.356   1.174  1.4576 -0.5107 -1.5253
  278MOL0     H37530   6.750   3.406   1.054  0.2797 -1.2751 -1.4546
  279MOL0     O37531   3.394   6.701   1.105 -0.7806 -0.1504 -0.0498
  279MOL0     C37532   3.447   6.807   1.142 -0.5552  0.3062  0.6702
  279MOL0     O37533   3.414   6.893   1.233  0.3994 -0.5728  0.5992
  279MOL0     C37534   3.279   6.895   1.270 -0.0080  0.3989 -0.0631
  279MOL0     C37535   3.246   6.860   1.401  0.3182  1.0881 -0.5472
  279MOL0     C37536   3.111   6.864   1.448 -0.6329 -0.2529  0.3735
  279MOL0     C37537   3.004   6.896   1.369 -0.0667  0.2012 -0.2656
  279MOL0     O37538   2.881   6.917   1.425  0.0092 -0.0218  0.5203
  279MOL0     C37539   2.780   6.838   1.352 -0.0440 -0.2949  0.0076
  279MOL0     C37540   2.634   6.892   1.379 -0.1635 -0.4835  0.8491
  279MOL0     C37541   2.604   7.003   1.284 -0.1583  0.2443  0.5962
  279MOL0     C37542   2.478   7.085   1.309  0.1121 -0.6085 -0.1318
  279MOL0     C37543   2.445   7.159   1.179 -0.0835  0.9677  0.9329
  279MOL0     C37544   2.333   7.262   1.192 -0.4747  0.1161  0.0755
  279MOL0     C37545   2.192   7.200   1.202 -1.6731 -0.2046  0.4588
  279MOL0     C37546   2.082   7.294   1.157 -0.3753 -1.3697  0.3333
  279MOL0     N37547   2.081   7.298   1.008 -0.1666  0.3397  0.8453
  279MOL0     C37548   2.053   7.182   0.932 -1.1141  0.2616  0.6234
  279MOL0     C37549   2.018   7.242   0.811 -0.7795 -0.0338 -0.0166
  279MOL0     C37550   1.965   7.140   0.704 -0.4738 -1.0267 -0.3964
  279MOL0     C37551   1.818   7.157   0.674 -0.6831 -0.3257 -1.0395
  279MOL0     C37552   1.743   7.289   0.703 -1.0643 -0.0219  0.0512
  279MOL0     C37553   1.777   7.393   0.601  0.5619  0.0173  0.4255
  279MOL0     O37554   1.747   7.526   0.656  0.0990 -0.2363 -0.3367
  279MOL0     C37555   1.787   7.631   0.576 -0.0144  1.3527 -0.5921
  279MOL0     C37556   1.700   7.691   0.484  0.6504  1.0442 -0.9818
  279MOL0     C37557   1.745   7.776   0.385 -0.7036  0.5170  0.1709
  279MOL0     C37558   1.886   7.804   0.373 -0.2395  0.2541 -0.6340
  279MOL0     C37559   1.931   7.891   0.255  0.1371  0.2265 -0.3828
  279MOL0     O37560   1.842   7.916   0.148 -0.1741  0.2904 -0.6175
  279MOL0     C37561   1.883   7.982   0.038  0.7010  0.1140 -1.1261
  279MOL0     C37562   1.945   7.909  -0.057 -0.6611 -0.1140 -0.3821
  279MOL0     C37563   2.009   7.972  -0.165 -0.0359  0.3456 -0.3152
  279MOL0     C37564   2.001   8.106  -0.183  0.2686  0.7653 -0.6926
  279MOL0     O37565   2.069   8.177  -0.277  0.0171 -0.1524  0.5827
  279MOL0     C37566   2.093   8.320  -0.271 -0.1498  0.4079 -0.8723
  279MOL0     C37567   2.007   8.385  -0.373  0.0082 -0.1092 -0.5643
  279MOL0     C37568   1.861   8.344  -0.365  1.0808 -0.4780  0.2046
  279MOL0     C37569   1.769   8.434  -0.469 -0.9456  0.0151 -0.5380
  279MOL0     C37570   1.624   8.394  -0.459 -0.2925  0.0151  0.0870
  279MOL0     C37571   1.540   8.500  -0.526  1.5039 -0.7407 -0.2419
  279MOL0     C37572   1.390   8.489  -0.489 -0.2111  0.7579 -0.6218
  279MOL0     C37573   1.279   8.488  -0.611 -0.0127 -0.2581  0.3218
  279MOL0    Cl37574   1.114   8.507  -0.551  0.2341 -0.0748 -0.1818
  279MOL0     C37575   1.915   8.176  -0.087 -0.0231 -0.1815 -0.0076
  279MOL0     C37576   1.852   8.118   0.023 -0.0915 -0.1116 -0.2290
  279MOL0     O37577   2.033   7.954   0.275 -0.1970  0.0303 -0.2483
  279MOL0     C37578   1.975   7.753   0.474 -0.3657 -0.5530  0.9200
  279MOL0     C37579   1.925   7.670   0.581  0.6274 -0.9048 -0.2890
  279MOL0     N37580   2.031   7.379   0.811 -1.5107  0.2841 -0.0878
  279MOL0     N37581   2.072   7.408   0.928 -0.4296  0.7088 -0.0863
  279MOL0     C37582   3.045   6.929   1.237  0.1113  0.3562 -0.4456
  279MOL0     C37583   3.178   6.929   1.182 -0.4422  0.5805  0.3582
  279MOL0     C37584   3.561   6.840   1.070 -0.2709 -0.1172  0.1939
  279MOL0     C37585   3.674   6.843   1.144 -0.0854 -0.8517  0.4881
  279MOL0     C37586   3.801   6.835   1.089  1.1861  0.0771  0.2095
  279MOL0     C37587   3.816   6.821   0.945  0.5927  0.1440 -0.7608
  279MOL0     O37588   3.939   6.806   0.890 -0.2118  0.0674 -0.7957
  279MOL0     C37589   3.973   6.665   0.889  0.3414  1.2729 -0.7078
  279MOL0     C37590   4.064   6.627   1.008 -0.1339 -0.2626  0.3124
  279MOL0     C37591   4.192   6.705   1.029  0.6025 -0.1391 -0.4996
  279MOL0     C37592   4.256   6.663   1.160  0.6861  0.3134 -0.1111
  279MOL0     C37593   4.358   6.745   1.211 -0.0405 -0.7810 -0.8072
  279MOL0     C37594   4.453   6.788   1.274 -0.1029  0.4904  0.5704
  279MOL0     C37595   3.702   6.841   0.874  0.1246 -0.4583 -0.2611
  279MOL0     C37596   3.573   6.847   0.924 -0.6207  0.4507  0.2198
  279MOL0     C37597   3.455   6.834   0.828 -0.9400 -1.0453  0.5165
  279MOL0     H37598   3.329   6.828   1.463  0.1869 -1.3512 -1.5325
  279MOL0     H37599   3.100   6.848   1.555 -0.3204  1.8931  0.7785
  279MOL0     H37600   2.799   6.834   1.245  0.6449 -1.2410  0.1473
  279MOL0     H37601   2.781   6.731   1.379 -0.0663 -0.0181  1.1795
  279MOL0     H37602   2.628   6.941   1.477  0.3764  3.0961 -0.7579
  279MOL0     H37603   2.559   6.814   1.363 -0.5627  0.3450 -1.6678
  279MOL0     H37604   2.599   6.964   1.182  0.8066  0.8623  0.2981
  279MOL0     H37605   2.689   7.072   1.282  1.6266 -1.8436  0.0623
  279MOL0     H37606   2.403   7.020   1.354  0.3378 -1.3926 -0.8538
  279MOL0     H37607   2.510   7.169   1.370 -1.2493 -1.2756  1.5744
  279MOL0     H37608   2.538   7.206   1.145  2.9938 -3.0765  2.8325
  279MOL0     H37609   2.419   7.076   1.114 -0.2513  2.3408 -0.8133
  279MOL0     H37610   2.364   7.332   1.269 -2.2121 -0.0131  0.9283
  279MOL0     H37611   2.337   7.316   1.097  1.7119  1.3887  0.8197
  279MOL0     H37612   2.193   7.185   1.310  3.8888 -0.8662  0.6020
  279MOL0     H37613   2.182   7.110   1.140 -1.3734  3.7964 -6.5173
  279MOL0     H37614   1.986   7.269   1.202  0.4163 -0.2429  2.8396
  279MOL0     H37615   2.111   7.387   1.206 -1.5663 -1.7868  1.9219
  279MOL0     H37616   2.040   7.077   0.956 -2.2808  0.3008  0.2361
  279MOL0     H37617   2.006   7.171   0.607  0.9793  1.1964  0.8269
  279MOL0     H37618   1.979   7.032   0.719 -1.9266 -0.9619  1.8212
  279MOL0     H37619   1.793   7.130   0.570  1.4936 -2.6156 -1.0662
  279MOL0     H37620   1.777   7.074   0.731  0.6289 -0.3971 -0.1699
  279MOL0     H37621   1.763   7.316   0.807  0.2010 -1.6799  0.2762
  279MOL0     H37622   1.635   7.280   0.688 -1.2261  1.5696  0.0932
  279MOL0     H37623   1.712   7.373   0.516  0.2148  1.7424  0.2541
  279MOL0     H37624   1.880   7.404   0.566  0.3124  1.3191  0.0348
  279MOL0     H37625   1.596   7.661   0.479  0.6565  0.4142  1.4064
  279MOL0     H37626   1.682   7.823   0.311 -0.7102 -0.3735 -0.4096
  279MOL0     H37627   1.953   7.801  -0.056 -0.2914 -0.1109 -1.5336
  279MOL0     H37628   2.063   7.910  -0.236  2.3091  1.1445  0.6749
  279MOL0     H37629   2.078   8.365  -0.172 -1.2617  0.7407 -1.1780
  279MOL0     H37630   2.196   8.337  -0.301  0.9321 -1.1889  1.6184
  279MOL0     H37631   2.022   8.493  -0.362 -3.6812  0.4733  0.2512
  279MOL0     H37632   2.046   8.364  -0.472 -3.6256 -1.4323 -1.8934
  279MOL0     H37633   1.852   8.239  -0.392  0.9008  0.1135 -2.3293
  279MOL0     H37634   1.820   8.357  -0.264  3.4077 -1.6701  1.3833
  279MOL0     H37635   1.814   8.424  -0.568 -2.4228  2.5539 -1.5281
  279MOL0     H37636   1.775   8.538  -0.436 -0.7058  0.0288 -0.6181
  279MOL0     H37637   1.598   8.371  -0.355  0.9685 -1.0838  0.1852
  279MOL0     H37638   1.603   8.300  -0.512  0.8311  0.3550 -1.0074
  279MOL0     H37639   1.571   8.604  -0.508 -2.5100  0.6423 -0.4208
  279MOL0     H37640   1.549   8.466  -0.629 -1.0909 -5.6031  0.8514
  279MOL0     H37641   1.368   8.558  -0.408 -0.3512 -2.1056  1.9359
  279MOL0     H37642   1.382   8.391  -0.442  2.7392  0.5975 -0.3156
  279MOL0     H37643   1.304   8.560  -0.690  0.4689 -1.2031 -0.4118
  279MOL0     H37644   1.297   8.389  -0.653  4.6014  0.2563  0.5576
  279MOL0     H37645   1.905   8.284  -0.090  0.0892 -0.1893 -0.9905
  279MOL0     H37646   1.792   8.173   0.096  0.1902  1.4878 -1.1516
  279MOL0     H37647   2.080   7.780   0.472 -0.3029 -0.6961 -1.9437
  279MOL0     H37648   1.995   7.637   0.658 -0.0007 -3.1212 -0.5960
  279MOL0     H37649   2.963   6.965   1.175  0.8848 -1.2149 -2.4600
  279MOL0     H37650   3.197   6.969   1.083 -1.3741  0.7434  0.2343
  279MOL0     H37651   3.683   6.835   1.252  1.6864  0.0235  0.4352
  279MOL0     H37652   3.882   6.845   1.162  0.9078 -0.9409  0.6775
  279MOL0     H37653   4.024   6.642   0.796  0.5131  1.6886 -0.7198
  279MOL0     H37654   3.885   6.601   0.894 -1.1612  3.2657 -0.4273
  279MOL0     H37655   4.100   6.528   0.977 -1.7831  0.2436 -3.8783
  279MOL0     H37656   3.997   6.629   1.095 -1.8387 -3.1810 -0.8015
  279MOL0     H37657   4.163   6.809   1.051  0.1682  0.8356 -4.8413
  279MOL0     H37658   4.257   6.710   0.942  0.5656  0.9135 -0.4810
  279MOL0     H37659   4.170   6.659   1.228 -2.1163  0.1607 -3.3644
  279MOL0     H37660   4.288   6.559   1.145  1.4887  0.7867 -1.9458
  279MOL0     H37661   4.530   6.833   1.334  0.7561  1.1303 -0.9273
  279MOL0     H37662   3.705   6.827   0.767 -6.2842  0.4116 -0.9720
  279MOL0     H37663   3.439   6.727   0.813 -2.2961 -0.7981  0.0799
  279MOL0     H37664   3.368   6.890   0.863 -0.7289 -0.5151  0.2041
  279MOL0     H37665   3.473   6.868   0.726  1.6940 -2.4408  0.4230
  280MOL0     O37666   9.597  10.396   0.195 -0.0290 -0.4711 -0.0888
  280MOL0     C37667   9.604  10.276   0.157  0.0742 -0.0261 -0.4354
  280MOL0     O37668   9.497  10.197   0.123 -0.4001  0.5044 -0.3953
  280MOL0     C37669   9.371  10.245   0.137 -0.1201  0.3285  0.0828
  280MOL0     C37670   9.323  10.366   0.088  0.7756 -1.2648  0.6627
  280MOL0     C37671   9.184  10.398   0.076  0.8229 -0.7380 -0.2234
  280MOL0     C37672   9.094  10.316   0.134 -1.3791  0.2269 -0.9097
  280MOL0     O37673   8.963  10.341   0.127 -1.2848  0.0200  0.2532
  280MOL0     C37674   8.870  10.240   0.156 -0.5819  0.1174 -0.8652
  280MOL0     C37675   8.734  10.286   0.118  0.1781  0.1393  0.0751
  280MOL0     C37676   8.675  10.368   0.233 -0.7220 -0.5966  0.1128
  280MOL0     C37677   8.526  10.411   0.208  0.7380 -0.4399 -0.7575
  280MOL0     C37678   8.523  10.564   0.166  0.6387  0.0621 -0.3812
  280MOL0     C37679   8.537  10.661   0.290 -0.1509  0.8702  0.3918
  280MOL0     C37680   8.404  10.666   0.373 -0.0642  0.9149  0.5859
  280MOL0     C37681   8.431  10.745   0.504 -0.4338  0.4057 -0.5102
  280MOL0     N37682   8.316  10.798   0.567  0.3261  0.4975 -0.3273
  280MOL0     C37683   8.235  10.903   0.535 -0.0602 -0.0531  0.6086
  280MOL0     C37684   8.150  10.913   0.638  0.8436  0.6314 -0.1986
  280MOL0     C37685   8.050  11.026   0.662 -0.6998  0.0355  0.4900
  280MOL0     C37686   8.118  11.157   0.701 -0.1137 -0.5166  0.2939
  280MOL0     C37687   8.021  11.263   0.741  0.8550  0.2950  0.4921
  280MOL0     C37688   8.090  11.375   0.825  0.2150 -0.5202  0.3006
  280MOL0     O37689   7.994  11.469   0.875 -0.7694 -0.6165 -0.2954
  280MOL0     C37690   7.881  11.428   0.942  0.2251  0.4659  0.6396
  280MOL0     C37691   7.870  11.309   1.011 -0.2159 -0.0961  0.6858
  280MOL0     C37692   7.749  11.266   1.063 -0.5768  0.5275  0.2846
  280MOL0     C37693   7.639  11.349   1.060  0.1786 -0.2530  0.5006
  280MOL0     C37694   7.509  11.308   1.108  0.0975  0.6504 -0.3183
  280MOL0     O37695   7.400  11.374   1.073 -0.0951  0.2621  0.2374
  280MOL0     C37696   7.283  11.302   1.092 -0.2060  0.6384 -0.3194
  280MOL0     C37697   7.179  11.368   1.170  0.0771 -0.2418  1.2697
  280MOL0     C37698   7.064  11.292   1.196  0.0597 -0.5612  0.1051
  280MOL0     C37699   7.040  11.162   1.156  0.4014  0.3660  1.0202
  280MOL0     O37700   6.912  11.124   1.178  0.5070 -0.1213  0.0232
  280MOL0     C37701   6.895  11.023   1.278  0.1985 -0.5580 -0.0012
  280MOL0     C37702   6.867  10.885   1.215  0.6565 -0.4422  0.1694
  280MOL0     C37703   6.775  10.796   1.298  0.2479 -0.1772 -0.1754
  280MOL0     C37704   6.794  10.781   1.448  0.0363  0.1882 -1.1345
  280MOL0     C37705   6.928  10.715   1.487 -0.3861 -0.1525  0.2790
  280MOL0     C37706   6.908  10.640   1.619  0.2051 -0.7884  0.3364
  280MOL0     C37707   7.037  10.562   1.650  0.4843  1.1998  0.5645
  280MOL0     C37708   7.041  10.522   1.795 -0.2008  1.1688 -0.7741
  280MOL0    Cl37709   6.944  10.372   1.828  0.0124 -0.0023  0.1410
  280MOL0     C37710   7.133  11.100   1.067 -0.0016 -0.3415  0.8483
  280MOL0     C37711   7.258  11.163   1.041  0.9599  0.1996  0.3985
  280MOL0     O37712   7.508  11.202   1.165 -0.3955 -0.1561  0.2235
  280MOL0     C37713   7.639  11.469   0.992 -0.4925  0.3633 -0.2691
  280MOL0     C37714   7.764  11.511   0.933  1.3005 -0.8025 -0.8762
  280MOL0     N37715   8.183  10.811   0.732 -0.3502 -0.7173 -0.0406
  280MOL0     N37716   8.283  10.743   0.686  0.3462 -0.4367 -0.2097
  280MOL0     C37717   9.144  10.199   0.202 -0.0145 -0.6264 -0.6870
  280MOL0     C37718   9.275  10.160   0.195 -1.0970 -0.3315 -0.3016
  280MOL0     C37719   9.745  10.214   0.151 -0.1644 -0.6350 -0.5065
  280MOL0     C37720   9.768  10.123   0.050  0.1668 -1.0225  0.3634
  280MOL0     C37721   9.881  10.037   0.044  0.1721 -0.7970  0.2774
  280MOL0     C37722   9.983  10.061   0.138  0.3057 -0.3334  0.2601
  280MOL0     O37723  10.097   9.979   0.126  0.7924 -0.4977  0.7962
  280MOL0     C37724  10.193   9.963   0.231 -0.2223  0.1998 -0.1083
  280MOL0     C37725  10.149   9.890   0.354 -0.6062  0.3210 -0.9750
  280MOL0     C37726  10.269   9.898   0.455 -0.0601 -0.0008  1.0829
  280MOL0     C37727  10.241  10.006   0.554  0.6710 -0.3430  0.1727
  280MOL0     C37728  10.354  10.041   0.639 -0.1925  0.2590 -0.6475
  280MOL0     C37729  10.454  10.083   0.691 -0.3500  0.0494 -0.5346
  280MOL0     C37730   9.962  10.154   0.241 -0.2531 -0.5972  0.4642
  280MOL0     C37731   9.838  10.225   0.259  0.4216  0.1773 -0.0062
  280MOL0     C37732   9.820  10.318   0.376  0.1834 -0.4284 -0.2587
  280MOL0     H37733   9.404  10.421   0.040  1.0991 -1.2835  1.1733
  280MOL0     H37734   9.149  10.487   0.024 -0.3923 -0.9125  0.2635
  280MOL0     H37735   8.887  10.150   0.096 -2.9043  0.0813 -1.5757
  280MOL0     H37736   8.876  10.215   0.262  2.7595 -0.8626 -1.1807
  280MOL0     H37737   8.657  10.208   0.115 -3.4641  3.5010 -2.6421
  280MOL0     H37738   8.744  10.336   0.022  1.9412  1.1463  0.7353
  280MOL0     H37739   8.730  10.461   0.250 -3.2032  0.5565  2.6923
  280MOL0     H37740   8.671  10.330   0.335  0.8761  3.2957  1.7961
  280MOL0     H37741   8.477  10.345   0.136 -0.4752  0.4751 -0.8143
  280MOL0     H37742   8.479  10.398   0.306  1.1839 -2.9919 -0.8150
  280MOL0     H37743   8.611  10.590   0.107  0.9502  0.7078  0.3488
  280MOL0     H37744   8.436  10.584   0.104  2.2252  0.1233 -2.6935
  280MOL0     H37745   8.616  10.625   0.356  2.7247  2.4407 -1.9176
  280MOL0     H37746   8.568  10.765   0.273  0.4095  1.2952  3.4866
  280MOL0     H37747   8.385  10.563   0.405  1.6090 -0.7530 -3.2308
  280MOL0     H37748   8.324  10.712   0.314 -1.2537  1.9072  2.8090
  280MOL0     H37749   8.484  10.676   0.571  1.5495  1.6300 -0.7094
  280MOL0     H37750   8.495  10.832   0.489 -0.8531  0.8845  0.4225
  280MOL0     H37751   8.246  10.987   0.467 -0.1570  1.1294  2.0032
  280MOL0     H37752   7.994  11.034   0.568  0.5480 -0.0249 -0.2827
  280MOL0     H37753   7.983  10.993   0.742 -0.1652  0.7514  1.2501
  280MOL0     H37754   8.188  11.139   0.783  1.8827  0.6035 -1.0629
  280MOL0     H37755   8.178  11.199   0.619  1.7312 -1.3322  1.1758
  280MOL0     H37756   7.939  11.213   0.793 -1.3040  2.5646 -0.5582
  280MOL0     H37757   7.968  11.305   0.655  2.9450  2.8800  0.3303
  280MOL0     H37758   8.150  11.434   0.756 -0.0369  0.0393  0.5567
  280MOL0     H37759   8.152  11.350   0.911 -0.1258  1.8977  1.3202
  280MOL0     H37760   7.958  11.246   1.001 -0.4891 -0.1103 -2.6519
  280MOL0     H37761   7.751  11.171   1.117 -1.7127 -0.2385 -0.9690
  280MOL0     H37762   7.191  11.469   1.208 -1.7211  0.2962  0.4522
  280MOL0     H37763   6.987  11.343   1.254  2.0924  2.8827  0.0550
  280MOL0     H37764   6.988  11.011   1.334 -0.4798  0.2804  1.3749
  280MOL0     H37765   6.820  11.050   1.354 -1.7361 -2.5076 -1.1073
  280MOL0     H37766   6.810  10.893   1.122  2.5977 -2.7926 -1.3505
  280MOL0     H37767   6.962  10.836   1.193 -0.3638 -1.6701 -1.7659
  280MOL0     H37768   6.678  10.847   1.292 -1.2158 -2.4665  1.8741
  280MOL0     H37769   6.776  10.695   1.255 -1.1951 -0.4622  0.4046
  280MOL0     H37770   6.718  10.715   1.491  0.9070 -0.7238 -0.9373
  280MOL0     H37771   6.793  10.884   1.485  1.8519  0.1352 -0.8328
  280MOL0     H37772   7.018  10.776   1.489 -0.0817 -0.5864  0.0066
  280MOL0     H37773   6.951  10.643   1.408  0.8375 -1.0831  1.4484
  280MOL0     H37774   6.878  10.717   1.691  0.9829  0.6494 -0.8296
  280MOL0     H37775   6.823  10.572   1.609  0.5680 -1.5237  1.9190
  280MOL0     H37776   7.128  10.614   1.621  1.1014  0.1073  0.4944
  280MOL0     H37777   7.032  10.467   1.598 -1.2209  2.6611 -2.1765
  280MOL0     H37778   7.146  10.500   1.813 -0.1739  0.1573 -2.0500
  280MOL0     H37779   7.008  10.607   1.856  0.8500  1.8773 -1.1569
  280MOL0     H37780   7.096  11.007   1.025  0.0970 -1.8018  3.7347
  280MOL0     H37781   7.317  11.104   0.971 -0.3612 -1.1585  0.3855
  280MOL0     H37782   7.552  11.528   0.966 -0.1086  0.2168 -1.9509
  280MOL0     H37783   7.774  11.601   0.874 -3.3832  0.9281  0.5379
  280MOL0     H37784   9.075  10.132   0.252 -1.4642 -0.3936 -2.3008
  280MOL0     H37785   9.305  10.068   0.244 -4.2026 -1.3024  0.0080
  280MOL0     H37786   9.691  10.123  -0.027  2.0603  0.0518 -1.6623
  280MOL0     H37787   9.891   9.950  -0.020  1.2634  0.4182 -1.3011
  280MOL0     H37788  10.251  10.053   0.251  0.9577 -0.4178 -0.6845
  280MOL0     H37789  10.257   9.888   0.184  1.5780  0.2831  2.0436
  280MOL0     H37790  10.117   9.787   0.338  1.2873 -0.6402  0.9930
  280MOL0     H37791  10.067   9.953   0.389  0.5250 -0.2472  3.2569
  280MOL0     H37792  10.362   9.918   0.402  0.0062  0.6017  1.4126
  280MOL0     H37793  10.277   9.806   0.515 -2.1696  1.0491  3.1404
  280MOL0     H37794  10.220  10.101   0.506 -0.0626 -0.9386 -0.7179
  280MOL0     H37795  10.145   9.990   0.603  0.6381  1.1956  0.6639
  280MOL0     H37796  10.548  10.107   0.736 -1.5851 -0.9046  2.8855
  280MOL0     H37797  10.044  10.167   0.311  2.1563  2.7980 -2.6275
  280MOL0     H37798   9.881  10.285   0.461 -2.5444 -1.4902  1.4210
  280MOL0     H37799   9.837  10.421   0.342  0.3806  0.0151  1.0963
  280MOL0     H37800   9.715  10.322   0.406 -0.1361  0.9837 -1.4447
  281MOL0     O37801   3.135   9.613   6.170  0.6088 -0.0072  0.3519
  281MOL0     C37802   3.248   9.569   6.142  0.2804 -0.6266  0.8334
  281MOL0     O37803   3.340   9.638   6.071  0.3403 -0.0992 -0.6060
  281MOL0     C37804   3.340   9.774   6.037 -0.0047 -1.3581 -0.6625
  281MOL0     C37805   3.222   9.854   6.043  0.3850  1.5570 -0.3079
  281MOL0     C37806   3.225   9.986   6.021  0.3358 -0.4190  0.0306
  281MOL0     C37807   3.344  10.050   5.981 -0.1743 -0.3204 -0.4109
  281MOL0     O37808   3.338  10.192   5.952  0.1519  0.7446 -0.3850
  281MOL0     C37809   3.458  10.269   5.966  0.2875 -0.1355 -0.7521
  281MOL0     C37810   3.478  10.311   6.111  0.5283  0.3985 -0.2091
  281MOL0     C37811   3.609  10.383   6.137 -0.0916 -0.6840 -0.3172
  281MOL0     C37812   3.638  10.519   6.065  0.5456 -0.1031  0.1207
  281MOL0     C37813   3.707  10.621   6.155  0.6736  0.2858  0.2911
  281MOL0     C37814   3.742  10.755   6.103  0.2844  0.6104  0.9778
  281MOL0     C37815   3.648  10.815   5.994  0.4445 -0.5071  0.2018
  281MOL0     C37816   3.510  10.866   6.050  1.7812 -0.8776  0.9579
  281MOL0     N37817   3.406  10.897   5.943 -0.6595  0.5322 -0.4347
  281MOL0     C37818   3.422  10.930   5.808  0.2053 -1.2007  0.6757
  281MOL0     C37819   3.289  10.911   5.758 -0.6483 -0.2662  0.7122
  281MOL0     C37820   3.237  10.910   5.617  1.1299  0.4276  0.4893
  281MOL0     C37821   3.316  11.006   5.528  0.3546  0.9477 -0.1178
  281MOL0     C37822   3.261  11.017   5.383  0.3419  0.2289  0.8596
  281MOL0     C37823   3.349  11.096   5.289  0.6883  1.1576 -1.0621
  281MOL0     O37824   3.337  11.046   5.154  0.0956  0.5915 -0.0126
  281MOL0     C37825   3.386  11.110   5.041 -0.4340 -0.2443  0.9018
  281MOL0     C37826   3.343  11.059   4.917  0.4449 -0.9610  0.0673
  281MOL0     C37827   3.387  11.117   4.795 -0.6474 -0.2892  0.1089
  281MOL0     C37828   3.493  11.210   4.790  0.5892  0.6114  0.0130
  281MOL0     C37829   3.540  11.274   4.665  0.6299 -0.1899  0.0845
  281MOL0     O37830   3.514  11.213   4.543 -0.1177 -0.2253  0.1553
  281MOL0     C37831   3.550  11.293   4.429 -0.0531 -0.8587 -0.4067
  281MOL0     C37832   3.674  11.292   4.378 -0.6217  0.0837 -0.6358
  281MOL0     C37833   3.708  11.362   4.260  0.3868  0.0561  0.1788
  281MOL0     C37834   3.611  11.444   4.206  0.3553  0.0698  0.9552
  281MOL0     O37835   3.652  11.502   4.084 -2.0443  0.3237 -0.3858
  281MOL0     C37836   3.569  11.596   4.021  0.4067 -0.3318  0.2048
  281MOL0     C37837   3.647  11.643   3.901  0.4184  0.0507  0.4816
  281MOL0     C37838   3.548  11.715   3.799  0.2982  0.1075  0.0902
  281MOL0     C37839   3.629  11.774   3.675 -0.2310  0.9267 -0.3643
  281MOL0     C37840   3.534  11.879   3.601 -0.7328 -1.0105 -0.5069
  281MOL0     C37841   3.624  11.994   3.544  0.5503 -1.0259 -0.5611
  281MOL0     C37842   3.560  12.133   3.520 -0.9495  0.6674 -0.5289
  281MOL0     C37843   3.421  12.161   3.459 -0.9802  1.0165 -0.1701
  281MOL0    Cl37844   3.419  12.127   3.290 -0.1451  0.4685  0.1047
  281MOL0     C37845   3.482  11.453   4.258  1.1525  1.4465  0.2318
  281MOL0     C37846   3.451  11.370   4.363  0.5728  0.3043 -0.4960
  281MOL0     O37847   3.569  11.389   4.678 -0.1934  0.0407  0.6734
  281MOL0     C37848   3.531  11.260   4.915 -0.4059 -0.2868  0.1550
  281MOL0     C37849   3.477  11.216   5.037 -0.1060 -0.0706 -0.1428
  281MOL0     N37850   3.204  10.890   5.863 -0.0139 -0.1790 -0.1932
  281MOL0     N37851   3.279  10.878   5.974 -0.0731 -0.9486 -0.1607
  281MOL0     C37852   3.463   9.977   5.980  0.2852 -0.8507 -0.3116
  281MOL0     C37853   3.457   9.839   6.008 -0.6033  0.2228 -0.2346
  281MOL0     C37854   3.293   9.440   6.204  0.0208 -0.0580  0.9123
  281MOL0     C37855   3.425   9.399   6.185 -0.8201 -0.4138  0.6765
  281MOL0     C37856   3.473   9.275   6.227  0.1586  0.8363  0.4471
  281MOL0     C37857   3.386   9.174   6.276 -1.3031 -0.2143 -0.2521
  281MOL0     O37858   3.448   9.051   6.311 -0.0813 -0.1302 -0.0269
  281MOL0     C37859   3.380   8.926   6.310 -0.1965  0.4858  0.9372
  281MOL0     C37860   3.400   8.858   6.170 -0.2659 -0.3844  0.2138
  281MOL0     C37861   3.547   8.815   6.149 -0.8877  0.3276  0.8774
  281MOL0     C37862   3.558   8.734   6.024 -0.2191  0.3714 -0.8231
  281MOL0     C37863   3.693   8.675   6.021  0.5305 -0.2055  0.6416
  281MOL0     C37864   3.799   8.616   6.039  0.4167 -0.2716 -0.7012
  281MOL0     C37865   3.253   9.211   6.312 -0.3144  0.0164  0.5406
  281MOL0     C37866   3.206   9.340   6.273 -0.0506  0.5021 -0.5181
  281MOL0     C37867   3.058   9.359   6.315  0.2881 -0.0310  0.7243
  281MOL0     H37868   3.120   9.817   6.055  1.0849 -0.7420 -0.9928
  281MOL0     H37869   3.137  10.047   6.036  2.0862  1.6851  2.6551
  281MOL0     H37870   3.543  10.215   5.925 -0.1709  0.0194 -1.9330
  281MOL0     H37871   3.447  10.361   5.907 -4.6303 -0.3769 -0.6661
  281MOL0     H37872   3.474  10.225   6.179 -1.7802  1.2073  0.7794
  281MOL0     H37873   3.384  10.363   6.132 -0.2024 -0.4039 -1.4382
  281MOL0     H37874   3.690  10.313   6.115  1.8901  2.0184 -2.4142
  281MOL0     H37875   3.605  10.405   6.244 -0.7780  0.5922 -0.5791
  281MOL0     H37876   3.694  10.495   5.974  1.0791 -4.6335  1.4221
  281MOL0     H37877   3.552  10.569   6.020  1.6042 -0.9369 -3.1012
  281MOL0     H37878   3.639  10.634   6.240 -0.2063  1.0610 -0.5039
  281MOL0     H37879   3.801  10.584   6.197  2.2568  1.1092 -2.3054
  281MOL0     H37880   3.730  10.823   6.188 -0.3432  0.4493  1.0236
  281MOL0     H37881   3.846  10.748   6.069  0.6231  1.2981  1.8375
  281MOL0     H37882   3.626  10.743   5.915 -0.3054  0.9476 -0.9727
  281MOL0     H37883   3.691  10.905   5.949 -1.9990  1.4341  1.4905
  281MOL0     H37884   3.460  10.793   6.113 -0.5361 -0.3573 -0.1942
  281MOL0     H37885   3.519  10.949   6.121  1.1090  0.8122 -0.8399
  281MOL0     H37886   3.511  10.930   5.746 -0.9923 -3.9293 -1.2312
  281MOL0     H37887   3.244  10.810   5.574  0.2753 -1.1561  3.7095
  281MOL0     H37888   3.131  10.937   5.627  1.0309  0.4422 -0.5712
  281MOL0     H37889   3.316  11.109   5.563 -1.2227  0.1706  2.4122
  281MOL0     H37890   3.418  10.965   5.531 -0.7005 -1.8620 -0.0235
  281MOL0     H37891   3.160  11.058   5.388 -0.4197 -1.4989  0.1433
  281MOL0     H37892   3.236  10.919   5.342 -2.7999  0.5622  1.7258
  281MOL0     H37893   3.453  11.093   5.320  0.7674  0.7605 -1.3539
  281MOL0     H37894   3.314  11.199   5.276 -0.1878  1.1695  0.9602
  281MOL0     H37895   3.252  11.001   4.923 -1.4094  1.7667 -0.0653
  281MOL0     H37896   3.342  11.106   4.696  1.1926 -1.4448 -0.6381
  281MOL0     H37897   3.756  11.240   4.427  0.1493  1.1824 -0.7117
  281MOL0     H37898   3.808  11.367   4.220  0.8924  2.8321  1.5669
  281MOL0     H37899   3.491  11.528   3.985 -0.5810  2.1053 -2.6354
  281MOL0     H37900   3.535  11.680   4.082 -1.2765 -2.4926  2.4734
  281MOL0     H37901   3.725  11.715   3.928 -0.1531  1.2814 -0.9850
  281MOL0     H37902   3.687  11.554   3.853  3.0957 -0.8209  3.9848
  281MOL0     H37903   3.472  11.652   3.752 -1.2618  3.6631 -2.6476
  281MOL0     H37904   3.479  11.777   3.856  0.2980 -1.5398  1.9800
  281MOL0     H37905   3.651  11.696   3.602 -0.8837 -1.1881  1.5647
  281MOL0     H37906   3.722  11.820   3.708 -0.8414  3.9406 -2.3751
  281MOL0     H37907   3.454  11.912   3.667  0.2499  1.7456 -0.5393
  281MOL0     H37908   3.484  11.836   3.514 -0.1251  0.8622 -1.8555
  281MOL0     H37909   3.707  12.005   3.615 -0.8798 -1.1166  1.1800
  281MOL0     H37910   3.645  11.961   3.442  1.7528  1.5556 -1.2318
  281MOL0     H37911   3.631  12.201   3.472 -1.7377  0.3499 -2.2166
  281MOL0     H37912   3.554  12.179   3.619 -0.9261 -0.0705 -0.1793
  281MOL0     H37913   3.348  12.094   3.505  3.1121 -2.4462  1.9101
  281MOL0     H37914   3.390  12.265   3.475 -2.3110  0.8406 -1.4076
  281MOL0     H37915   3.393  11.502   4.219  0.0762 -0.0447  0.7026
  281MOL0     H37916   3.346  11.363   4.391  0.5373  2.2107 -0.0310
  281MOL0     H37917   3.598  11.345   4.926  0.6830 -1.2431  1.1074
  281MOL0     H37918   3.518  11.252   5.131 -0.6873 -2.7188  1.2090
  281MOL0     H37919   3.565  10.009   5.961 -0.4502  0.8757 -1.7154
  281MOL0     H37920   3.555   9.793   6.004 -0.7041  0.1018 -2.9197
  281MOL0     H37921   3.491   9.470   6.135 -1.0424 -0.1113  0.8032
  281MOL0     H37922   3.577   9.247   6.213  0.4423  0.3833  3.0018
  281MOL0     H37923   3.275   8.945   6.334 -0.4834 -1.8126  1.8022
  281MOL0     H37924   3.429   8.872   6.392 -1.4451 -1.2698  0.5817
  281MOL0     H37925   3.362   8.919   6.087 -0.6616 -1.9804 -0.8395
  281MOL0     H37926   3.349   8.761   6.162 -0.0322 -0.5550  0.7433
  281MOL0     H37927   3.566   8.752   6.237  0.4458 -2.7983 -1.4763
  281MOL0     H37928   3.615   8.901   6.150  1.1844 -1.1599 -1.3654
  281MOL0     H37929   3.480   8.659   6.014  0.5931 -0.7123  0.6560
  281MOL0     H37930   3.546   8.805   5.941 -2.1211  0.2806 -0.6619
  281MOL0     H37931   3.887   8.558   6.053  1.0268 -0.1686 -3.5407
  281MOL0     H37932   3.191   9.138   6.363  0.0237  0.8126  2.1873
  281MOL0     H37933   3.015   9.292   6.390  1.4273 -2.0610 -0.3342
  281MOL0     H37934   3.039   9.462   6.346 -1.8701 -0.5342  1.2019
  281MOL0     H37935   3.007   9.332   6.222 -2.0665  1.8863  1.3792
  282MOL0     O37936   3.144   1.744   2.768 -0.1852  0.1056 -0.6629
  282MOL0     C37937   3.222   1.644   2.766  0.4218  0.2109 -0.0110
  282MOL0     O37938   3.241   1.565   2.662  0.6607 -0.3128 -0.4761
  282MOL0     C37939   3.200   1.611   2.535 -0.3696  0.6913  0.1691
  282MOL0     C37940   3.144   1.512   2.444  1.1218  0.1332  0.2525
  282MOL0     C37941   3.103   1.556   2.323  0.1866 -1.0213  0.4288
  282MOL0     C37942   3.107   1.690   2.275  0.2536  0.6889  0.8538
  282MOL0     O37943   3.062   1.728   2.152  0.3700 -0.0606  0.1447
  282MOL0     C37944   3.120   1.659   2.035 -0.0478  0.8433 -0.2239
  282MOL0     C37945   3.053   1.697   1.909  1.2562 -0.7379  0.2099
  282MOL0     C37946   3.112   1.641   1.780  0.0081  0.0238  0.4941
  282MOL0     C37947   3.016   1.645   1.668  0.5739  1.1822  0.0371
  282MOL0     C37948   3.068   1.582   1.538 -0.4732 -0.0277 -0.4357
  282MOL0     C37949   3.071   1.430   1.553 -0.1296  0.1460 -0.0679
  282MOL0     C37950   3.090   1.355   1.424 -0.1878 -0.0924  0.3286
  282MOL0     C37951   3.010   1.399   1.304  0.4413  0.6913 -0.5718
  282MOL0     N37952   3.035   1.318   1.194 -0.7426 -0.3084 -0.0477
  282MOL0     C37953   2.952   1.238   1.133  0.6161  0.4355  0.2132
  282MOL0     C37954   2.996   1.204   1.013  0.1962  0.1557 -0.2508
  282MOL0     C37955   2.913   1.128   0.920 -0.8768  0.5398  0.0977
  282MOL0     C37956   2.798   1.210   0.866 -0.6368 -0.2961  0.2153
  282MOL0     C37957   2.695   1.120   0.792 -0.2478  0.4212 -0.7206
  282MOL0     C37958   2.587   1.202   0.726  0.3575 -0.1904  0.4355
  282MOL0     O37959   2.495   1.121   0.659 -0.3747  0.0872 -0.1285
  282MOL0     C37960   2.396   1.170   0.579 -1.0709 -1.2199 -0.0468
  282MOL0     C37961   2.407   1.297   0.513  0.2069 -0.7408 -0.5438
  282MOL0     C37962   2.316   1.329   0.417 -0.8558  0.2008  0.3082
  282MOL0     C37963   2.216   1.244   0.376 -0.3437 -0.2352 -1.1346
  282MOL0     C37964   2.114   1.291   0.285  0.3477  0.8939  1.0338
  282MOL0     O37965   2.135   1.413   0.227 -1.1814 -0.0607  0.3522
  282MOL0     C37966   2.033   1.479   0.156 -0.2532 -0.1324 -0.1696
  282MOL0     C37967   1.974   1.419   0.046  0.2764 -0.2723 -0.3963
  282MOL0     C37968   1.872   1.493  -0.022  0.3747  0.4753  0.3145
  282MOL0     C37969   1.835   1.631   0.002  0.6416  0.1058  0.2847
  282MOL0     O37970   1.750   1.690  -0.088  0.3772 -0.0527  0.0387
  282MOL0     C37971   1.690   1.818  -0.034  0.3282  0.4203  0.2061
  282MOL0     C37972   1.579   1.846  -0.140 -1.2377  0.0775 -0.0577
  282MOL0     C37973   1.464   1.740  -0.145 -0.3083 -0.0381  0.0617
  282MOL0     C37974   1.386   1.719  -0.014  0.2419 -0.1480 -0.5551
  282MOL0     C37975   1.282   1.612  -0.029 -0.2411 -0.7347  0.0012
  282MOL0     C37976   1.187   1.603   0.099 -0.2061  0.6711  0.0892
  282MOL0     C37977   1.096   1.476   0.057 -0.1183 -0.0176 -0.8138
  282MOL0     C37978   1.003   1.457   0.180 -0.7129 -0.1598  0.0753
  282MOL0    Cl37979   1.104   1.436   0.335 -0.0017  0.2132 -0.3998
  282MOL0     C37980   1.909   1.682   0.111 -0.1796 -0.2174  0.5741
  282MOL0     C37981   2.003   1.611   0.178  0.6101 -0.0188 -0.5008
  282MOL0     O37982   2.013   1.223   0.261 -1.0070 -0.3684  0.4282
  282MOL0     C37983   2.207   1.122   0.441 -0.3825  0.7058 -0.8197
  282MOL0     C37984   2.299   1.082   0.536 -0.6165  0.3728 -0.0657
  282MOL0     N37985   3.121   1.260   1.005 -0.0229 -0.2041  0.1437
  282MOL0     N37986   3.148   1.317   1.114 -0.4147 -0.8535 -0.4893
  282MOL0     C37987   3.167   1.780   2.357 -0.0572 -0.1907 -0.0297
  282MOL0     C37988   3.203   1.744   2.490  0.2561 -1.2526 -0.1110
  282MOL0     C37989   3.287   1.596   2.897 -0.5070  0.0217 -0.1101
  282MOL0     C37990   3.295   1.452   2.920  0.4592 -0.3818  0.5202
  282MOL0     C37991   3.341   1.408   3.046 -0.7747 -0.3938  0.3040
  282MOL0     C37992   3.365   1.493   3.155 -0.4436  0.1660  0.3545
  282MOL0     O37993   3.408   1.437   3.268  0.4261 -0.6388 -0.3187
  282MOL0     C37994   3.391   1.522   3.393 -0.4271 -0.2998  0.1331
  282MOL0     C37995   3.240   1.545   3.420 -0.1694  0.3119 -0.2090
  282MOL0     C37996   3.196   1.457   3.540 -0.2747  0.2935 -0.1185
  282MOL0     C37997   3.044   1.434   3.554  0.1475 -0.9259 -0.4042
  282MOL0     C37998   2.976   1.568   3.565  0.1606  0.2905  0.1541
  282MOL0     C37999   2.920   1.681   3.573  0.0710 -0.0074  0.2213
  282MOL0     C38000   3.381   1.623   3.120 -0.7363  0.8134  0.6454
  282MOL0     C38001   3.344   1.684   2.996  0.3559  0.0905 -0.6787
  282MOL0     C38002   3.366   1.832   2.987 -0.7139 -0.3377  0.9626
  282MOL0     H38003   3.141   1.409   2.481 -1.5395  0.6327  1.6841
  282MOL0     H38004   3.074   1.478   2.254 -0.6791 -1.3031  1.1007
  282MOL0     H38005   3.226   1.684   2.041  0.0493  0.8460 -1.5874
  282MOL0     H38006   3.113   1.550   2.043 -0.3266  0.9633  1.6178
  282MOL0     H38007   3.056   1.805   1.890  0.3259 -0.9223 -1.1199
  282MOL0     H38008   2.946   1.680   1.921  0.8440  0.0989 -1.7601
  282MOL0     H38009   3.125   1.534   1.800 -1.6748  0.0385  1.9206
  282MOL0     H38010   3.210   1.686   1.761 -0.6719  1.4293  0.1893
  282MOL0     H38011   2.925   1.591   1.698  0.6965  1.3230  0.6904
  282MOL0     H38012   2.985   1.749   1.653  0.3709  1.4623  2.0472
  282MOL0     H38013   3.007   1.605   1.451 -0.4350  3.6228  0.3557
  282MOL0     H38014   3.164   1.628   1.513 -0.4371  0.4188  0.5063
  282MOL0     H38015   3.151   1.401   1.622  3.4425  1.2401 -3.3677
  282MOL0     H38016   2.974   1.406   1.597 -1.3401  0.5538 -2.3858
  282MOL0     H38017   3.059   1.250   1.433 -0.2979 -0.3639 -2.3323
  282MOL0     H38018   3.194   1.360   1.391 -0.1210 -0.3530  0.4919
  282MOL0     H38019   2.903   1.392   1.324  0.3580 -2.4558 -1.6712
  282MOL0     H38020   3.041   1.500   1.273  0.7917 -0.1137 -3.0776
  282MOL0     H38021   2.862   1.195   1.175 -0.0640  2.3908  0.8305
  282MOL0     H38022   2.977   1.097   0.837 -2.0034  1.5321 -1.1912
  282MOL0     H38023   2.870   1.035   0.959  0.8088 -1.6207 -2.7833
  282MOL0     H38024   2.739   1.259   0.945 -0.2495  0.6609 -0.0813
  282MOL0     H38025   2.832   1.289   0.799 -0.5667  0.1926  0.8211
  282MOL0     H38026   2.656   1.050   0.866  2.1254  2.1459  2.4487
  282MOL0     H38027   2.740   1.061   0.712 -0.2911 -1.3833  0.5323
  282MOL0     H38028   2.617   1.292   0.673 -2.3916  1.9457  2.2115
  282MOL0     H38029   2.534   1.256   0.804 -0.8280  2.1873 -1.8558
  282MOL0     H38030   2.479   1.366   0.554 -0.5511 -1.0249  1.3332
  282MOL0     H38031   2.336   1.430   0.384  2.2655 -1.0271 -1.9907
  282MOL0     H38032   2.006   1.320   0.016  1.2453 -1.2794  3.4387
  282MOL0     H38033   1.813   1.446  -0.101  0.8763  1.9656 -1.0177
  282MOL0     H38034   1.644   1.813   0.065 -3.0375 -0.0566 -1.2426
  282MOL0     H38035   1.765   1.897  -0.042  0.5043  0.1961 -0.3800
  282MOL0     H38036   1.527   1.939  -0.119  0.5479  1.3555 -1.0019
  282MOL0     H38037   1.623   1.861  -0.239  1.9865  2.2399  1.5091
  282MOL0     H38038   1.400   1.766  -0.229 -0.7402  1.0831  0.7041
  282MOL0     H38039   1.519   1.647  -0.157 -0.2658 -0.3239  2.0813
  282MOL0     H38040   1.332   1.811   0.014 -0.5101 -1.0750  1.2263
  282MOL0     H38041   1.460   1.708   0.066  0.4852 -0.3983 -0.8158
  282MOL0     H38042   1.332   1.515  -0.037 -0.3369 -1.0276  2.3106
  282MOL0     H38043   1.219   1.623  -0.118 -2.9335  0.6894  1.9401
  282MOL0     H38044   1.248   1.590   0.189 -0.2623  1.9106  0.3268
  282MOL0     H38045   1.128   1.694   0.113 -0.9218  0.1588  0.4933
  282MOL0     H38046   1.156   1.389   0.028 -0.3641  0.0406 -1.5072
  282MOL0     H38047   1.047   1.507  -0.036 -1.2307 -0.3513 -0.3537
  282MOL0     H38048   0.931   1.538   0.188  0.5018  1.1008 -1.1362
  282MOL0     H38049   0.943   1.366   0.167  1.6243 -2.4584  3.6355
  282MOL0     H38050   1.907   1.790   0.122  1.5399  0.1186 -1.6251
  282MOL0     H38051   2.067   1.668   0.244 -2.5273  1.1826  1.7993
  282MOL0     H38052   2.128   1.051   0.421  1.1836 -1.7176  1.0466
  282MOL0     H38053   2.288   0.985   0.583 -3.2351  1.6409  2.2241
  282MOL0     H38054   3.198   1.876   2.317 -0.4173  0.0173  0.1882
  282MOL0     H38055   3.249   1.819   2.553 -0.4872  1.5927 -2.7078
  282MOL0     H38056   3.264   1.387   2.839 -2.6697 -0.9892  2.0440
  282MOL0     H38057   3.336   1.300   3.057 -3.2769 -0.1474  2.8631
  282MOL0     H38058   3.445   1.616   3.381  1.9428 -1.6300 -0.1569
  282MOL0     H38059   3.431   1.464   3.476 -0.7586  0.1769  0.6297
  282MOL0     H38060   3.185   1.538   3.326 -0.9965  0.4371  0.2504
  282MOL0     H38061   3.245   1.646   3.461  0.9677  0.2246 -0.1049
  282MOL0     H38062   3.229   1.493   3.638  0.2960 -1.0869  0.2220
  282MOL0     H38063   3.239   1.356   3.537 -2.1464 -0.5435 -0.4031
  282MOL0     H38064   2.998   1.373   3.476 -1.1120 -0.3412 -0.1461
  282MOL0     H38065   3.018   1.392   3.651  2.6172  0.4802  0.9769
  282MOL0     H38066   2.888   1.782   3.587  2.1258  0.5712  1.0887
  282MOL0     H38067   3.425   1.683   3.199  1.4964  1.2000 -0.8000
  282MOL0     H38068   3.384   1.874   3.086  0.1783 -0.2149  0.7643
  282MOL0     H38069   3.446   1.849   2.914 -1.4829 -1.7584 -0.2600
  282MOL0     H38070   3.279   1.880   2.942  0.4993  1.3753  0.2863
  283MOL0     O38071   6.868   7.543   2.739 -1.3086 -0.7514  0.5961
  283MOL0     C38072   6.945   7.444   2.733 -0.1559 -0.2632 -0.2818
  283MOL0     O38073   6.925   7.337   2.811 -0.4812 -0.1185  0.1003
  283MOL0     C38074   6.802   7.331   2.879  0.5095  0.9849 -0.5025
  283MOL0     C38075   6.769   7.381   3.001 -0.0656  1.2616  0.6148
  283MOL0     C38076   6.647   7.363   3.055 -0.2313  0.1911 -0.1508
  283MOL0     C38077   6.542   7.297   2.984 -0.3140 -0.1850 -1.2741
  283MOL0     O38078   6.410   7.299   3.022  0.2929  0.6887 -0.2527
  283MOL0     C38079   6.376   7.383   3.129  0.0982  0.3971 -0.2353
  283MOL0     C38080   6.222   7.395   3.128  0.3410  0.3251 -0.8886
  283MOL0     C38081   6.153   7.267   3.185 -0.3651  0.1729  0.4069
  283MOL0     C38082   6.005   7.279   3.139 -0.2490 -0.1896 -0.1950
  283MOL0     C38083   5.901   7.182   3.210  0.5301  0.1918 -0.6980
  283MOL0     C38084   5.755   7.231   3.188  0.0993  0.6582  0.4996
  283MOL0     C38085   5.641   7.135   3.222  0.1752  0.5604 -0.5736
  283MOL0     C38086   5.577   7.056   3.100 -0.2882 -0.5172  0.5939
  283MOL0     N38087   5.439   7.024   3.134  0.6838 -0.2159 -0.1854
  283MOL0     C38088   5.391   6.904   3.177  0.4006  0.1181 -0.0997
  283MOL0     C38089   5.256   6.918   3.171 -0.1751 -0.4184  0.7145
  283MOL0     C38090   5.142   6.818   3.185 -0.5494  0.6234 -0.0350
  283MOL0     C38091   5.202   6.686   3.124 -0.3194  0.0437 -0.0845
  283MOL0     C38092   5.084   6.589   3.096  0.6731  0.6789  0.5939
  283MOL0     C38093   4.974   6.623   2.998  0.2554 -0.2032  0.4026
  283MOL0     O38094   4.866   6.529   3.005 -0.0170  0.4844  0.0318
  283MOL0     C38095   4.770   6.550   3.107  0.1100 -0.5910 -0.2905
  283MOL0     C38096   4.772   6.656   3.203 -0.0582 -0.4212  0.0996
  283MOL0     C38097   4.674   6.655   3.298 -0.3313  0.2601  0.3822
  283MOL0     C38098   4.579   6.550   3.330 -0.2063  0.5680  1.2612
  283MOL0     C38099   4.503   6.563   3.453  0.2509  0.3642 -0.0813
  283MOL0     O38100   4.443   6.454   3.507  0.1269 -0.1281  0.4918
  283MOL0     C38101   4.344   6.441   3.592  0.9778 -0.4876 -0.2409
  283MOL0     C38102   4.325   6.320   3.647  0.0102 -0.6430 -0.3409
  283MOL0     C38103   4.204   6.295   3.716 -0.2499  0.0321  0.4485
  283MOL0     C38104   4.108   6.390   3.743 -0.3213  0.5933 -0.1588
  283MOL0     O38105   3.992   6.370   3.821 -0.6129  0.8265  0.9927
  283MOL0     C38106   3.990   6.260   3.917 -0.0838  0.2882  0.6264
  283MOL0     C38107   3.847   6.216   3.924  0.2525  0.7624 -0.5823
  283MOL0     C38108   3.775   6.213   3.787 -0.0319  0.1862  0.6556
  283MOL0     C38109   3.634   6.148   3.811  0.1231 -0.8526 -0.0972
  283MOL0     C38110   3.537   6.195   3.701 -0.3500  0.6969 -0.3990
  283MOL0     C38111   3.579   6.167   3.554 -0.3916 -0.8250  0.3533
  283MOL0     C38112   3.472   6.208   3.449 -0.8721 -0.6750  0.0631
  283MOL0     C38113   3.477   6.360   3.408 -0.0175 -0.3156 -0.5846
  283MOL0    Cl38114   3.344   6.399   3.280  0.1756 -0.0880  0.1856
  283MOL0     C38115   4.141   6.521   3.707 -0.6667 -0.6931 -0.7377
  283MOL0     C38116   4.249   6.543   3.619 -0.9612 -0.0455 -0.1590
  283MOL0     O38117   4.512   6.671   3.510 -0.5193 -0.4442  0.3376
  283MOL0     C38118   4.571   6.456   3.230 -0.1342 -0.2560  0.9176
  283MOL0     C38119   4.663   6.454   3.124 -0.1016 -0.8159 -0.4171
  283MOL0     N38120   5.232   7.046   3.129  0.6824 -0.1977  0.8334
  283MOL0     N38121   5.342   7.111   3.104 -0.3988 -0.4491 -0.9561
  283MOL0     C38122   6.569   7.247   2.867 -0.7592 -0.5082  0.8713
  283MOL0     C38123   6.703   7.257   2.811  1.3639 -0.8493 -0.5181
  283MOL0     C38124   7.052   7.460   2.641 -0.0738 -0.2357  0.4659
  283MOL0     C38125   7.043   7.555   2.530  0.1907  0.0199 -0.2260
  283MOL0     C38126   7.134   7.562   2.430 -0.9081  0.4733  0.3206
  283MOL0     C38127   7.229   7.455   2.414  1.0378 -0.7743  0.0080
  283MOL0     O38128   7.300   7.440   2.298 -1.0254 -0.1452 -0.4333
  283MOL0     C38129   7.414   7.515   2.287 -0.8836 -0.8065  0.0661
  283MOL0     C38130   7.451   7.545   2.138 -0.5410 -0.5551  0.0800
  283MOL0     C38131   7.486   7.422   2.059  1.3576  0.5423  0.9451
  283MOL0     C38132   7.626   7.374   2.078 -0.2737  0.0259 -0.1055
  283MOL0     C38133   7.692   7.376   1.948 -0.3713 -0.0448 -0.7267
  283MOL0     C38134   7.738   7.370   1.833 -0.3753 -0.0058  0.0289
  283MOL0     C38135   7.240   7.370   2.524  0.2433 -0.2535 -0.5258
  283MOL0     C38136   7.168   7.378   2.640  0.0946 -1.0327  0.3183
  283MOL0     C38137   7.192   7.278   2.753  0.1812  0.7696 -0.4790
  283MOL0     H38138   6.839   7.429   3.069 -1.8995  2.3203  1.8416
  283MOL0     H38139   6.625   7.397   3.156  0.4288  0.4420 -0.0868
  283MOL0     H38140   6.409   7.338   3.223 -3.9745 -1.7913  0.3924
  283MOL0     H38141   6.408   7.486   3.113  0.5385  0.4523  0.9291
  283MOL0     H38142   6.188   7.399   3.024  2.7147 -0.9416 -1.7768
  283MOL0     H38143   6.198   7.482   3.190  1.8186 -0.6837  1.1728
  283MOL0     H38144   6.163   7.257   3.294 -0.3271  0.5862  0.4430
  283MOL0     H38145   6.195   7.176   3.140 -1.0858 -0.4775  1.0157
  283MOL0     H38146   5.965   7.381   3.151  1.1317  0.1513  2.0770
  283MOL0     H38147   6.001   7.266   3.030 -0.8568  1.0318 -0.3398
  283MOL0     H38148   5.916   7.085   3.162 -1.2489 -0.2600 -0.4126
  283MOL0     H38149   5.934   7.183   3.315  2.4261  1.1421 -1.2553
  283MOL0     H38150   5.740   7.327   3.238 -1.2551  0.1296  1.1636
  283MOL0     H38151   5.748   7.246   3.080 -2.6266  0.0209  0.5158
  283MOL0     H38152   5.567   7.205   3.263  1.8777 -0.1984  4.5808
  283MOL0     H38153   5.663   7.063   3.302 -0.3349 -0.3092 -1.1951
  283MOL0     H38154   5.576   7.120   3.011 -1.4134  1.1878  1.7505
  283MOL0     H38155   5.641   6.971   3.077  2.2770  1.7356 -1.1541
  283MOL0     H38156   5.447   6.821   3.219  0.9839  0.7851  0.4734
  283MOL0     H38157   5.110   6.810   3.289  4.3206  2.0147  1.8774
  283MOL0     H38158   5.058   6.860   3.129 -1.8283 -0.6249  0.8875
  283MOL0     H38159   5.257   6.703   3.032 -0.2610  0.0062 -0.0570
  283MOL0     H38160   5.282   6.644   3.186  0.4750 -0.7993 -1.6478
  283MOL0     H38161   5.036   6.565   3.191 -2.2840 -4.8264 -1.8061
  283MOL0     H38162   5.124   6.490   3.075 -0.5339 -0.4802  3.2684
  283MOL0     H38163   5.013   6.631   2.897  0.1561  1.2029  0.4574
  283MOL0     H38164   4.959   6.727   3.027 -1.2187 -1.0657  3.1018
  283MOL0     H38165   4.842   6.738   3.197 -3.5723  2.9797  1.4241
  283MOL0     H38166   4.688   6.737   3.368 -0.0539  1.8514 -1.4222
  283MOL0     H38167   4.396   6.241   3.624  1.7481  1.5634 -3.3329
  283MOL0     H38168   4.178   6.192   3.738 -2.2421  0.8080  2.0074
  283MOL0     H38169   4.044   6.171   3.881 -2.1750 -1.0663  0.6893
  283MOL0     H38170   4.026   6.286   4.017  3.3958  2.8753 -1.0804
  283MOL0     H38171   3.832   6.115   3.964 -0.8494  1.4764  0.8917
  283MOL0     H38172   3.800   6.284   3.996  1.0237  0.1686  0.5020
  283MOL0     H38173   3.753   6.315   3.751 -0.2093 -0.3140 -0.7281
  283MOL0     H38174   3.825   6.151   3.713 -2.4326 -1.0883 -0.0162
  283MOL0     H38175   3.602   6.188   3.908 -0.1614 -1.4590  0.0693
  283MOL0     H38176   3.642   6.040   3.829 -0.2102 -0.8061  0.3546
  283MOL0     H38177   3.507   6.299   3.712 -2.7674  0.5935 -4.0640
  283MOL0     H38178   3.440   6.149   3.723 -0.2298 -0.0806 -1.4112
  283MOL0     H38179   3.680   6.207   3.542 -0.5392 -0.2072  1.1456
  283MOL0     H38180   3.589   6.059   3.535  2.8918 -0.3735 -1.2068
  283MOL0     H38181   3.373   6.201   3.496 -1.0275  0.3066 -0.1041
  283MOL0     H38182   3.470   6.148   3.358  1.8199  1.3717 -1.4989
  283MOL0     H38183   3.470   6.424   3.496  2.3579 -0.8993  0.1075
  283MOL0     H38184   3.575   6.389   3.368 -0.8921 -0.3741 -2.8962
  283MOL0     H38185   4.070   6.599   3.733  1.6771  0.4776  3.0618
  283MOL0     H38186   4.259   6.635   3.562 -2.2706  0.2310  0.0281
  283MOL0     H38187   4.498   6.378   3.245  0.0177 -0.3739  1.0515
  283MOL0     H38188   4.661   6.370   3.055  0.4359 -2.9664  2.0088
  283MOL0     H38189   6.488   7.205   2.808 -1.3284 -3.1429  3.3016
  283MOL0     H38190   6.729   7.203   2.721  1.7831  0.4933 -1.2365
  283MOL0     H38191   6.973   7.637   2.522 -0.2048 -0.1147  1.4267
  283MOL0     H38192   7.133   7.643   2.358  0.2761 -1.0305 -1.4852
  283MOL0     H38193   7.501   7.459   2.321  0.6912  1.1536 -0.5421
  283MOL0     H38194   7.406   7.612   2.338 -0.3847  0.5645 -2.3168
  283MOL0     H38195   7.542   7.606   2.139 -1.0820  0.2482  0.8378
  283MOL0     H38196   7.367   7.589   2.085 -0.1768  2.6586  1.9114
  283MOL0     H38197   7.462   7.434   1.953 -1.8562 -3.9612  0.8735
  283MOL0     H38198   7.406   7.354   2.089 -0.9758  1.2018 -3.0992
  283MOL0     H38199   7.684   7.438   2.145 -2.0725 -0.1733  1.7392
  283MOL0     H38200   7.619   7.271   2.116  0.3873  0.7773  2.1768
  283MOL0     H38201   7.783   7.365   1.736  2.6049  0.7198  1.2770
  283MOL0     H38202   7.324   7.301   2.517 -0.5443 -1.9464  3.5617
  283MOL0     H38203   7.132   7.187   2.744  1.2672 -0.2907  2.0896
  283MOL0     H38204   7.297   7.247   2.755  0.0372  0.3106  1.4840
  283MOL0     H38205   7.177   7.322   2.852  1.2834  2.0069 -0.8289
  284MOL0     O38206   6.891   8.024   5.116 -0.0601 -0.5880 -0.5885
  284MOL0     C38207   6.894   8.113   5.201  0.7679  0.6571  0.2019
  284MOL0     O38208   6.782   8.180   5.234  0.7263  0.0694  0.3740
  284MOL0     C38209   6.652   8.161   5.196  0.4520 -0.1151  0.2186
  284MOL0     C38210   6.595   8.053   5.123 -0.6424 -0.2952  0.6657
  284MOL0     C38211   6.459   8.046   5.094 -0.1388 -0.0597  0.3849
  284MOL0     C38212   6.372   8.143   5.130  0.0926  0.7576  0.0877
  284MOL0     O38213   6.240   8.129   5.094  0.2770 -0.2932  0.0203
  284MOL0     C38214   6.133   8.206   5.141 -0.1494 -0.4725 -0.0747
  284MOL0     C38215   6.007   8.143   5.090  0.3509 -0.5134  0.7702
  284MOL0     C38216   5.880   8.217   5.097  1.0426 -0.7638  0.0116
  284MOL0     C38217   5.761   8.154   5.025 -0.7536 -1.2459  0.3747
  284MOL0     C38218   5.645   8.253   5.036 -0.0025  0.4941 -0.1513
  284MOL0     C38219   5.640   8.360   4.919 -0.7809 -0.3219 -0.1544
  284MOL0     C38220   5.500   8.419   4.903  0.1508 -0.3070  0.4522
  284MOL0     C38221   5.455   8.497   5.028  0.0543 -0.8402  0.3962
  284MOL0     N38222   5.533   8.622   5.028  0.2297 -0.4453 -0.7037
  284MOL0     C38223   5.642   8.641   5.108 -0.9207  0.2110  0.2326
  284MOL0     C38224   5.677   8.772   5.087  0.1302 -0.1481 -0.5389
  284MOL0     C38225   5.787   8.859   5.134 -0.0109 -0.2747 -0.3479
  284MOL0     C38226   5.855   8.801   5.254  0.3021 -0.2000 -0.4702
  284MOL0     C38227   5.982   8.887   5.290  0.0518 -1.0955 -0.5576
  284MOL0     C38228   6.049   8.856   5.428  0.3986  0.7605 -0.2326
  284MOL0     O38229   6.174   8.920   5.442 -0.2930  0.4715 -0.3677
  284MOL0     C38230   6.265   8.903   5.546  1.2275 -0.1463  0.6680
  284MOL0     C38231   6.371   8.990   5.558 -0.2829 -0.0971  0.3147
  284MOL0     C38232   6.448   8.990   5.674  0.2813 -0.4381  0.0101
  284MOL0     C38233   6.428   8.890   5.778  0.0386 -0.0433 -0.0648
  284MOL0     C38234   6.494   8.905   5.906  0.2868  0.8663 -0.7106
  284MOL0     O38235   6.548   9.028   5.940 -0.4025  0.4998  0.2689
  284MOL0     C38236   6.639   9.035   6.033 -0.1563 -0.3950  0.6594
  284MOL0     C38237   6.606   9.104   6.149 -0.8684 -0.2029 -0.0350
  284MOL0     C38238   6.706   9.115   6.255  0.1977  0.8453  0.2447
  284MOL0     C38239   6.823   9.049   6.248 -0.1040  0.3329 -1.0650
  284MOL0     O38240   6.918   9.051   6.346 -0.3059  0.4626 -0.5073
  284MOL0     C38241   6.929   9.161   6.429  1.5522 -0.2867  0.6238
  284MOL0     C38242   7.056   9.140   6.515 -1.0854 -0.0751  0.2211
  284MOL0     C38243   7.188   9.181   6.441  0.0268 -0.2549  0.9378
  284MOL0     C38244   7.312   9.146   6.529 -0.6620  0.3213  0.8311
  284MOL0     C38245   7.440   9.187   6.462 -0.4667 -0.1860  1.3572
  284MOL0     C38246   7.560   9.187   6.551 -0.5713  0.7073 -0.9873
  284MOL0     C38247   7.687   9.251   6.498  0.9826 -0.5507 -0.2022
  284MOL0     C38248   7.675   9.398   6.486  0.4329 -0.2880 -0.3317
  284MOL0    Cl38249   7.702   9.486   6.651 -0.1786 -0.1554  0.1047
  284MOL0     C38250   6.852   8.971   6.138 -0.2122 -0.6284  0.5932
  284MOL0     C38251   6.764   8.968   6.026 -0.5397  1.0591 -0.9429
  284MOL0     O38252   6.506   8.803   5.971 -0.1817  0.2305 -0.9753
  284MOL0     C38253   6.330   8.794   5.763  0.1125 -0.2888 -0.1228
  284MOL0     C38254   6.246   8.812   5.647 -0.5928 -0.9306 -0.5086
  284MOL0     N38255   5.580   8.823   4.996  0.3431 -0.0600 -0.1614
  284MOL0     N38256   5.491   8.729   4.968  1.1787 -0.1602  0.4967
  284MOL0     C38257   6.425   8.253   5.195  0.8176  0.2435  0.4789
  284MOL0     C38258   6.560   8.259   5.231  0.7731 -0.0701 -0.4198
  284MOL0     C38259   7.019   8.121   5.284 -0.1824 -0.3718 -0.0423
  284MOL0     C38260   7.123   8.031   5.269  0.3743 -0.6749  0.4937
  284MOL0     C38261   7.233   8.029   5.356 -0.2624  0.5841  0.1261
  284MOL0     C38262   7.253   8.124   5.449  0.0574 -0.3261 -0.1756
  284MOL0     O38263   7.372   8.102   5.514  0.2076  0.5514  0.3307
  284MOL0     C38264   7.368   8.020   5.640 -0.9815  0.2253 -0.3624
  284MOL0     C38265   7.344   8.115   5.759 -0.6619  0.4006  1.0626
  284MOL0     C38266   7.451   8.223   5.767  0.0885  0.2691  0.8703
  284MOL0     C38267   7.403   8.340   5.858 -0.1916  0.0322 -0.0141
  284MOL0     C38268   7.534   8.415   5.869  0.2806 -0.4433  0.7560
  284MOL0     C38269   7.646   8.460   5.878  0.3980 -0.7486 -0.1981
  284MOL0     C38270   7.158   8.219   5.469  0.3040 -0.4523  0.8445
  284MOL0     C38271   7.039   8.223   5.389 -0.7059  0.1640 -0.2591
  284MOL0     C38272   6.971   8.353   5.390 -0.2076 -0.2072 -0.0475
  284MOL0     H38273   6.663   7.972   5.097  1.2346  1.6575 -0.8583
  284MOL0     H38274   6.420   7.967   5.030  1.0453 -2.6716  2.6867
  284MOL0     H38275   6.123   8.224   5.249  2.2658  2.1013 -0.1882
  284MOL0     H38276   6.136   8.303   5.092 -3.4535  0.9245  2.0628
  284MOL0     H38277   5.995   8.063   5.163  2.3220 -0.7449  0.8729
  284MOL0     H38278   6.017   8.091   4.995  2.4668  1.1002  0.0447
  284MOL0     H38279   5.887   8.319   5.058  1.2153 -0.6341  0.3739
  284MOL0     H38280   5.849   8.228   5.201 -0.3094 -1.2837 -0.3192
  284MOL0     H38281   5.786   8.121   4.924 -1.6256  0.1774 -0.3340
  284MOL0     H38282   5.734   8.065   5.082  0.1633 -2.9399 -1.7186
  284MOL0     H38283   5.554   8.193   5.027  1.6724 -2.0231 -1.4082
  284MOL0     H38284   5.626   8.293   5.136 -2.1750 -0.1516 -0.2368
  284MOL0     H38285   5.720   8.434   4.933  0.3678 -1.4257 -0.6834
  284MOL0     H38286   5.659   8.312   4.823 -0.1910  0.1136 -0.2599
  284MOL0     H38287   5.421   8.352   4.868 -0.1576 -1.1538  2.6120
  284MOL0     H38288   5.501   8.482   4.813 -2.9062 -0.4844  0.1890
  284MOL0     H38289   5.352   8.535   5.028  0.7526  1.1710  0.7234
  284MOL0     H38290   5.469   8.438   5.119  2.0492 -0.3723  0.4235
  284MOL0     H38291   5.691   8.565   5.168  0.2338  0.1348 -0.7660
  284MOL0     H38292   5.857   8.870   5.051  0.7534  4.6593  0.6438
  284MOL0     H38293   5.755   8.962   5.153 -0.0748 -0.4163  0.3431
  284MOL0     H38294   5.784   8.811   5.336 -0.0505 -1.8015 -0.5495
  284MOL0     H38295   5.890   8.699   5.236  0.4172 -0.1372 -0.6043
  284MOL0     H38296   5.966   8.995   5.294  0.8186 -0.7615 -3.5532
  284MOL0     H38297   6.060   8.859   5.217  1.0483  0.0163  0.0319
  284MOL0     H38298   6.062   8.748   5.430  6.0105  1.1252 -0.2358
  284MOL0     H38299   5.983   8.881   5.511  2.5692  0.8972  1.5415
  284MOL0     H38300   6.378   9.062   5.477  1.2559  0.3700  0.8333
  284MOL0     H38301   6.523   9.068   5.681  1.2754 -0.7601 -4.2010
  284MOL0     H38302   6.513   9.159   6.157 -0.2331  0.6019  2.3480
  284MOL0     H38303   6.677   9.173   6.342  0.5040 -1.5027  1.9843
  284MOL0     H38304   6.934   9.254   6.372 -1.5319 -1.2488 -1.4645
  284MOL0     H38305   6.835   9.153   6.484 -0.9056 -1.5766 -3.2936
  284MOL0     H38306   7.048   9.198   6.607  0.9488 -0.0813  0.4579
  284MOL0     H38307   7.051   9.039   6.555  2.0366 -0.4399 -0.0480
  284MOL0     H38308   7.201   9.135   6.342  0.8958 -0.5080  1.1631
  284MOL0     H38309   7.192   9.289   6.427  1.7624 -0.6538 -3.2212
  284MOL0     H38310   7.308   9.037   6.539  1.0374  0.3091  1.5862
  284MOL0     H38311   7.305   9.206   6.621  0.9910 -1.2308  2.0334
  284MOL0     H38312   7.418   9.286   6.419  3.0398 -0.2260 -0.8578
  284MOL0     H38313   7.450   9.111   6.385  1.0898  1.6685 -0.3947
  284MOL0     H38314   7.532   9.245   6.640  1.9550 -0.6306  0.8269
  284MOL0     H38315   7.581   9.086   6.586 -2.0397  1.7068  3.3744
  284MOL0     H38316   7.700   9.195   6.404 -0.9090  0.4617 -1.1359
  284MOL0     H38317   7.761   9.221   6.573 -2.0140 -2.3515  2.2683
  284MOL0     H38318   7.766   9.417   6.428  2.0157  0.2184  2.1561
  284MOL0     H38319   7.584   9.426   6.432  0.7305 -2.7218 -2.3020
  284MOL0     H38320   6.942   8.912   6.146  0.4973  0.5223  1.4412
  284MOL0     H38321   6.789   8.909   5.938 -1.2194 -0.0840 -0.3983
  284MOL0     H38322   6.314   8.718   5.839  1.3332 -1.2103 -0.7552
  284MOL0     H38323   6.154   8.756   5.654 -0.6291 -0.6812  2.7853
  284MOL0     H38324   6.364   8.343   5.201  1.5068  0.8872 -1.5054
  284MOL0     H38325   6.591   8.352   5.277  1.3872 -1.4445  2.1247
  284MOL0     H38326   7.111   7.963   5.185 -1.3460  2.3440 -1.9191
  284MOL0     H38327   7.305   7.953   5.329  1.1365  0.5788  3.4000
  284MOL0     H38328   7.460   7.961   5.645  0.0935  1.6001 -2.2515
  284MOL0     H38329   7.287   7.948   5.625 -1.6516  1.2997 -2.2498
  284MOL0     H38330   7.342   8.058   5.853  0.8396  0.6355  1.2740
  284MOL0     H38331   7.243   8.150   5.737 -0.1163 -0.1439 -2.8964
  284MOL0     H38332   7.452   8.270   5.668 -3.4652  1.2028  1.1632
  284MOL0     H38333   7.543   8.175   5.802 -0.7584  0.6394  3.8347
  284MOL0     H38334   7.331   8.409   5.814 -1.8240 -0.8181  1.2152
  284MOL0     H38335   7.359   8.314   5.955  0.1620  0.9788  0.4125
  284MOL0     H38336   7.746   8.496   5.880  0.5862 -1.2716 -0.1336
  284MOL0     H38337   7.182   8.307   5.529  0.6916 -1.2617  1.8984
  284MOL0     H38338   6.890   8.346   5.463  1.1361 -1.5643  1.3982
  284MOL0     H38339   7.048   8.426   5.415 -0.6460  0.4916 -0.7173
  284MOL0     H38340   6.932   8.367   5.289 -0.7141 -3.4979 -0.4206
  285MOL0     O38341   0.297   3.046   2.297 -1.1507 -0.1344  0.6145
  285MOL0     C38342   0.222   2.976   2.359  0.5598 -1.0093  0.7564
  285MOL0     O38343   0.088   3.017   2.389 -0.8808 -0.0906  0.1332
  285MOL0     C38344   0.030   3.128   2.340  0.4652 -0.4774 -0.1675
  285MOL0     C38345  -0.070   3.180   2.428 -0.1422  0.5499 -1.2851
  285MOL0     C38346  -0.143   3.293   2.395  0.0569 -0.8806 -0.6901
  285MOL0     C38347  -0.124   3.369   2.283  0.1301  0.8187 -0.5861
  285MOL0     O38348  -0.182   3.487   2.276 -0.1868  0.2971 -0.4003
  285MOL0     C38349  -0.188   3.547   2.145  0.2918 -0.0045  0.0933
  285MOL0     C38350  -0.285   3.656   2.159 -0.2681 -0.2969 -1.3104
  285MOL0     C38351  -0.271   3.755   2.035 -0.3507  0.1966 -0.3884
  285MOL0     C38352  -0.403   3.824   2.012 -0.5274  0.1888  1.0792
  285MOL0     C38353  -0.399   3.898   1.874  0.3687  0.5536  0.2884
  285MOL0     C38354  -0.532   3.885   1.813 -0.2607  0.6952  0.4862
  285MOL0     C38355  -0.529   3.930   1.665 -0.3806 -0.2880 -0.5548
  285MOL0     C38356  -0.481   3.821   1.570  0.8948 -0.4929  0.2800
  285MOL0     N38357  -0.477   3.869   1.432 -0.0020  0.2155  1.8947
  285MOL0     C38358  -0.585   3.894   1.346  0.6090 -0.6008  0.5908
  285MOL0     C38359  -0.531   3.909   1.224 -0.0843  0.0663 -1.0945
  285MOL0     C38360  -0.610   3.938   1.096 -0.0138  0.2473 -0.3956
  285MOL0     C38361  -0.638   3.802   1.025  0.4497 -0.0627  0.6804
  285MOL0     C38362  -0.520   3.734   0.940 -0.1968 -0.1119  0.4697
  285MOL0     C38363  -0.524   3.579   0.946  0.2008 -0.1957  0.1975
  285MOL0     O38364  -0.649   3.538   0.894  0.1275  0.0789 -0.2215
  285MOL0     C38365  -0.691   3.406   0.921 -0.2802  0.3254  0.5542
  285MOL0     C38366  -0.609   3.307   0.970  0.1253 -0.4367 -0.1675
  285MOL0     C38367  -0.642   3.165   0.962 -0.0037 -0.5681 -0.2026
  285MOL0     C38368  -0.761   3.129   0.906  0.1544  0.0527 -0.3273
  285MOL0     C38369  -0.813   2.988   0.917 -0.2803 -0.4233 -0.1545
  285MOL0     O38370  -0.716   2.889   0.949 -0.4961 -0.2168  0.0298
  285MOL0     C38371  -0.758   2.758   0.969 -0.7612  0.4568  0.1702
  285MOL0     C38372  -0.806   2.733   1.096  0.4933  0.1987 -0.1779
  285MOL0     C38373  -0.835   2.607   1.138 -0.1858  0.0376  0.3033
  285MOL0     C38374  -0.828   2.499   1.047 -0.3011 -0.5595  0.5580
  285MOL0     O38375  -0.832   2.378   1.107 -0.0947 -0.3755  0.2583
  285MOL0     C38376  -0.902   2.288   1.023  0.6730 -0.8222  0.0462
  285MOL0     C38377  -0.946   2.168   1.109 -0.6652  0.9175 -0.8782
  285MOL0     C38378  -1.075   2.196   1.187 -1.0016  0.7773  0.0178
  285MOL0     C38379  -1.196   2.168   1.102  0.3482 -0.7681  0.4423
  285MOL0     C38380  -1.325   2.240   1.146 -0.5242  0.1219 -0.5261
  285MOL0     C38381  -1.454   2.189   1.086  0.4533  0.0434  0.8899
  285MOL0     C38382  -1.446   2.192   0.928  0.7212  0.2879 -0.6855
  285MOL0     C38383  -1.585   2.153   0.881  1.3017  0.6284 -0.3294
  285MOL0    Cl38384  -1.584   2.130   0.700  0.2142  0.6803  0.1074
  285MOL0     C38385  -0.781   2.525   0.912 -0.2621 -0.2649 -0.0164
  285MOL0     C38386  -0.739   2.650   0.874 -0.0615 -1.3198  0.0844
  285MOL0     O38387  -0.932   2.971   0.913 -0.1737 -0.0613 -0.4207
  285MOL0     C38388  -0.853   3.233   0.865  0.4644 -0.6376 -0.8556
  285MOL0     C38389  -0.818   3.368   0.879  0.0194 -0.0949  0.8584
  285MOL0     N38390  -0.394   3.891   1.232 -0.8838  0.1394 -0.5588
  285MOL0     N38391  -0.364   3.877   1.355  0.0649  0.4437 -0.4409
  285MOL0     C38392  -0.043   3.306   2.190 -0.1353 -1.2947  0.8339
  285MOL0     C38393   0.043   3.190   2.216  0.7579  0.4603  0.3069
  285MOL0     C38394   0.265   2.852   2.418 -0.7313  0.3736 -0.6070
  285MOL0     C38395   0.180   2.801   2.516 -0.3172  0.7092 -0.2785
  285MOL0     C38396   0.213   2.669   2.557 -0.3914 -0.1190 -0.4251
  285MOL0     C38397   0.314   2.590   2.500  0.5437  0.1060 -0.2474
  285MOL0     O38398   0.334   2.460   2.536 -0.4258  0.2918 -0.0765
  285MOL0     C38399   0.455   2.431   2.600 -0.5840  0.2309 -0.2748
  285MOL0     C38400   0.513   2.521   2.704 -0.3374  0.1429 -0.7385
  285MOL0     C38401   0.636   2.461   2.778  0.5680 -0.2695  0.2937
  285MOL0     C38402   0.745   2.573   2.812  0.0127  0.9660  0.4202
  285MOL0     C38403   0.689   2.674   2.906  0.4484  0.2891  0.3262
  285MOL0     C38404   0.647   2.729   3.003  0.1380  0.4542  0.2668
  285MOL0     C38405   0.402   2.657   2.421 -0.7703  0.0887 -0.4630
  285MOL0     C38406   0.385   2.790   2.381  0.1457  0.4522 -0.6828
  285MOL0     C38407   0.501   2.851   2.297  0.9892 -0.5493 -0.1153
  285MOL0     H38408  -0.079   3.139   2.528 -2.6426  2.0051 -0.8289
  285MOL0     H38409  -0.211   3.322   2.475  0.3378 -0.5215 -0.5777
  285MOL0     H38410  -0.091   3.586   2.111  0.4258  0.6730  1.2052
  285MOL0     H38411  -0.213   3.473   2.069  1.3525 -0.1476 -0.1336
  285MOL0     H38412  -0.271   3.716   2.250 -1.3106 -0.7666 -0.8257
  285MOL0     H38413  -0.390   3.627   2.168 -0.0657 -1.0308 -1.2402
  285MOL0     H38414  -0.242   3.705   1.942 -0.7442  2.1234 -1.5985
  285MOL0     H38415  -0.196   3.826   2.070  1.1207 -2.7965  3.0981
  285MOL0     H38416  -0.480   3.748   2.004 -2.0429  1.7677 -0.4191
  285MOL0     H38417  -0.434   3.907   2.076  2.7433  2.6529 -0.2354
  285MOL0     H38418  -0.369   4.003   1.884  1.6687  0.0083  3.1283
  285MOL0     H38419  -0.318   3.857   1.812  0.5713 -1.9354  2.0637
  285MOL0     H38420  -0.575   3.784   1.808  0.8876  0.2347 -0.4870
  285MOL0     H38421  -0.598   3.951   1.871  1.6762  0.6778  2.8617
  285MOL0     H38422  -0.471   4.022   1.656 -1.9434  1.1293  2.4526
  285MOL0     H38423  -0.633   3.951   1.635 -0.0360  0.7344 -1.0566
  285MOL0     H38424  -0.380   3.788   1.592  1.1901 -0.0822 -0.4031
  285MOL0     H38425  -0.544   3.732   1.580  1.6687 -0.9903  0.7963
  285MOL0     H38426  -0.684   3.925   1.376  0.9850 -0.2574  1.5296
  285MOL0     H38427  -0.704   3.988   1.121  1.9833  2.5473  3.2197
  285MOL0     H38428  -0.544   3.991   1.027  0.9446 -2.4879 -1.7542
  285MOL0     H38429  -0.681   3.732   1.098 -1.1038  1.1524  0.9666
  285MOL0     H38430  -0.717   3.809   0.950  3.7207 -1.0189 -3.1680
  285MOL0     H38431  -0.425   3.767   0.984  0.5481 -3.6605  1.8531
  285MOL0     H38432  -0.530   3.766   0.836 -1.3748  2.0432  1.1802
  285MOL0     H38433  -0.514   3.550   1.051  0.9009  4.1685  1.5515
  285MOL0     H38434  -0.439   3.532   0.895 -0.4931 -4.3088  2.4245
  285MOL0     H38435  -0.519   3.343   1.019 -1.0632  1.5791  0.6434
  285MOL0     H38436  -0.584   3.084   1.004 -1.3230 -0.8549  1.1501
  285MOL0     H38437  -0.800   2.810   1.173  1.4770 -1.1673  1.1800
  285MOL0     H38438  -0.864   2.584   1.240  2.2211  1.8745  1.5003
  285MOL0     H38439  -0.993   2.341   0.993  0.4680  1.3876  3.8291
  285MOL0     H38440  -0.848   2.255   0.934  2.3592  2.0784 -0.1377
  285MOL0     H38441  -0.961   2.076   1.051 -0.2604 -0.4866  1.1369
  285MOL0     H38442  -0.859   2.139   1.168 -1.6400  1.3908  0.8329
  285MOL0     H38443  -1.086   2.145   1.283  1.1219 -0.6555 -0.4287
  285MOL0     H38444  -1.070   2.299   1.221  1.4339  1.1269 -1.1645
  285MOL0     H38445  -1.221   2.062   1.087 -0.5841 -0.2395 -2.1385
  285MOL0     H38446  -1.183   2.200   0.998  2.7851 -0.6316  0.7272
  285MOL0     H38447  -1.305   2.345   1.125  3.2723 -0.9482 -3.1579
  285MOL0     H38448  -1.322   2.236   1.256  1.4046  1.5605 -0.4861
  285MOL0     H38449  -1.493   2.093   1.121  0.4993  0.3587  1.8232
  285MOL0     H38450  -1.529   2.261   1.119 -0.5998 -0.5427 -0.1568
  285MOL0     H38451  -1.372   2.119   0.896  1.4384  0.1248  1.2736
  285MOL0     H38452  -1.419   2.295   0.900 -1.9182  1.6586  1.3812
  285MOL0     H38453  -1.606   2.062   0.939 -0.4571 -1.0429 -3.3228
  285MOL0     H38454  -1.664   2.225   0.902  0.3631 -0.3384 -0.4798
  285MOL0     H38455  -0.776   2.443   0.841  0.5622 -3.1527  3.0939
  285MOL0     H38456  -0.713   2.685   0.775 -0.2287 -0.1156  0.4539
  285MOL0     H38457  -0.954   3.218   0.827  0.2830  0.4925 -0.8579
  285MOL0     H38458  -0.880   3.449   0.842  0.9652  0.0486 -0.4617
  285MOL0     H38459  -0.027   3.366   2.101 -1.2081 -1.3967  0.5606
  285MOL0     H38460   0.105   3.133   2.148 -0.5740 -1.1238  0.3535
  285MOL0     H38461   0.090   2.841   2.561 -0.0616  1.9329 -0.8146
  285MOL0     H38462   0.157   2.627   2.640 -1.9402  0.3007 -1.2179
  285MOL0     H38463   0.531   2.434   2.520 -2.5372  2.4568 -2.1996
  285MOL0     H38464   0.450   2.328   2.636  0.9467 -0.6005 -2.1859
  285MOL0     H38465   0.433   2.540   2.775 -1.0510 -1.6577 -1.0101
  285MOL0     H38466   0.544   2.612   2.652  3.0897 -0.9277 -0.8524
  285MOL0     H38467   0.688   2.399   2.704  1.6326 -0.8581  1.4859
  285MOL0     H38468   0.611   2.412   2.872  1.8376 -0.0709  0.7625
  285MOL0     H38469   0.841   2.534   2.845 -0.3857  0.0479  0.5351
  285MOL0     H38470   0.765   2.625   2.718  0.6778  0.0468  0.0451
  285MOL0     H38471   0.601   2.801   3.068 -0.1677  0.8337 -0.3611
  285MOL0     H38472   0.491   2.607   2.383 -1.2155  0.0235 -1.4412
  285MOL0     H38473   0.552   2.925   2.359 -1.6283 -0.9152  2.6846
  285MOL0     H38474   0.576   2.777   2.269  1.3473  0.0168 -0.6870
  285MOL0     H38475   0.466   2.902   2.206 -2.9459  1.2992  2.1763
  286MOL0     O38476   0.372   1.556  10.387  0.3968 -0.0478 -0.5321
  286MOL0     C38477   0.309   1.525  10.288 -0.8856 -0.3071  0.6452
  286MOL0     O38478   0.360   1.480  10.176 -0.2334  0.1842  0.7448
  286MOL0     C38479   0.490   1.436  10.168  0.2710 -0.2447 -0.5444
  286MOL0     C38480   0.516   1.311  10.109 -0.8701  0.0182 -0.0448
  286MOL0     C38481   0.641   1.257  10.104  0.8455  0.2047 -1.2850
  286MOL0     C38482   0.748   1.330  10.146 -0.4174  0.3750 -0.3034
  286MOL0     O38483   0.883   1.306  10.134  0.3027 -0.3671 -0.6127
  286MOL0     C38484   0.915   1.165  10.112 -0.1943  0.1220  0.2715
  286MOL0     C38485   1.073   1.161  10.131 -0.3256  0.2886  0.2731
  286MOL0     C38486   1.154   1.257  10.041  0.4940  0.1014  0.1352
  286MOL0     C38487   1.170   1.201   9.898  0.4265  0.1815 -1.3166
  286MOL0     C38488   1.237   1.314   9.813  0.1485 -0.2874 -0.2640
  286MOL0     C38489   1.174   1.351   9.676  0.4009  0.5418 -0.8417
  286MOL0     C38490   1.220   1.487   9.624  1.3357  0.0279  0.2504
  286MOL0     C38491   1.161   1.611   9.696 -0.3764 -1.0708 -0.1124
  286MOL0     N38492   1.013   1.633   9.676  0.4882  0.2958  0.4715
  286MOL0     C38493   0.958   1.714   9.579  0.2881 -0.1386 -0.7014
  286MOL0     C38494   0.830   1.720   9.610 -0.2438 -0.9703 -0.6283
  286MOL0     C38495   0.737   1.821   9.547  0.5975  0.3054  0.4468
  286MOL0     C38496   0.654   1.744   9.437 -0.0288  0.5798  0.3194
  286MOL0     C38497   0.703   1.779   9.295  0.2396  1.1360  0.2689
  286MOL0     C38498   0.682   1.921   9.254  0.4878  0.5449  0.3729
  286MOL0     O38499   0.539   1.940   9.237 -0.2813  0.3818  0.2901
  286MOL0     C38500   0.497   2.057   9.181  0.0244  0.1310  0.3406
  286MOL0     C38501   0.369   2.051   9.121  0.1497  0.9347 -1.2546
  286MOL0     C38502   0.315   2.159   9.055  0.1758  0.2098 -0.1882
  286MOL0     C38503   0.387   2.274   9.036  0.3506 -0.3251  0.4345
  286MOL0     C38504   0.325   2.392   8.967 -0.4289 -0.8372 -0.3211
  286MOL0     O38505   0.396   2.509   8.952 -0.1496  0.3717  0.1051
  286MOL0     C38506   0.325   2.616   8.905  0.7454 -0.2567  0.7407
  286MOL0     C38507   0.299   2.729   8.990 -0.4202  0.0439 -0.9805
  286MOL0     C38508   0.243   2.849   8.947 -1.0573  0.3148 -1.0316
  286MOL0     C38509   0.191   2.863   8.816 -0.0221  0.1578 -0.1699
  286MOL0     O38510   0.135   2.990   8.792 -0.3810  0.6363  0.1968
  286MOL0     C38511   0.094   3.003   8.653 -0.0275  0.8510  0.6814
  286MOL0     C38512   0.028   3.139   8.624 -0.5638  0.2302 -0.0635
  286MOL0     C38513   0.095   3.251   8.697 -0.2987  0.1034  0.0593
  286MOL0     C38514   0.039   3.381   8.646 -0.0287  0.4719 -0.3569
  286MOL0     C38515   0.102   3.495   8.725  0.4433 -0.4160 -0.9270
  286MOL0     C38516   0.052   3.634   8.673 -0.5829 -1.1821 -0.3302
  286MOL0     C38517   0.094   3.748   8.766 -0.5511 -0.8532 -0.5991
  286MOL0     C38518   0.124   3.890   8.710  0.2702 -0.0141 -0.1754
  286MOL0    Cl38519   0.259   3.897   8.595  0.2250  0.0848  0.0524
  286MOL0     C38520   0.211   2.749   8.735  0.2413  0.8948 -0.3705
  286MOL0     C38521   0.272   2.633   8.778  1.4634 -0.5762  0.0643
  286MOL0     O38522   0.218   2.378   8.911  0.4356 -0.4274 -0.4572
  286MOL0     C38523   0.511   2.286   9.106 -0.9591  0.1607 -0.5032
  286MOL0     C38524   0.567   2.180   9.180 -0.1145  0.4033  1.3371
  286MOL0     N38525   0.800   1.634   9.714 -0.5600  0.0756  0.2088
  286MOL0     N38526   0.914   1.582   9.753  1.3243 -0.2530  0.2798
  286MOL0     C38527   0.727   1.460  10.199  0.1585  0.3720 -0.1708
  286MOL0     C38528   0.597   1.511  10.215 -0.9434 -0.7223 -0.5734
  286MOL0     C38529   0.162   1.574  10.296  0.0682 -0.2167 -0.2829
  286MOL0     C38530   0.119   1.669  10.391 -0.8761  0.7761  0.7662
  286MOL0     C38531  -0.016   1.703  10.403  0.8917 -0.0076  0.3977
  286MOL0     C38532  -0.107   1.660  10.300 -0.1895  0.9421 -0.0492
  286MOL0     O38533  -0.237   1.699  10.290 -0.6316 -0.0237  0.7900
  286MOL0     C38534  -0.279   1.821  10.351  0.1180 -0.0778  0.0336
  286MOL0     C38535  -0.413   1.869  10.295 -0.0220 -0.0539 -0.5285
  286MOL0     C38536  -0.540   1.787  10.330 -0.5199  0.0403  0.0100
  286MOL0     C38537  -0.681   1.834  10.286 -0.2644  0.0471  0.3592
  286MOL0     C38538  -0.672   1.836  10.140 -1.2064 -0.7893  0.1420
  286MOL0     C38539  -0.679   1.856  10.018 -0.9912  0.0925 -0.5207
  286MOL0     C38540  -0.065   1.560  10.205 -0.1112 -0.4473  0.2112
  286MOL0     C38541   0.065   1.505  10.213 -0.8927 -0.2366  0.1150
  286MOL0     C38542   0.098   1.373  10.144  0.6021 -0.0516 -0.2758
  286MOL0     H38543   0.427   1.251  10.091 -0.3716 -0.8247  0.2465
  286MOL0     H38544   0.660   1.160  10.059  1.2718  0.5903 -1.9583
  286MOL0     H38545   0.863   1.106  10.188 -2.3446 -2.0629 -2.6675
  286MOL0     H38546   0.879   1.138  10.013 -3.1152 -4.9547  2.3414
  286MOL0     H38547   1.099   1.055  10.130  0.2603  0.4120 -1.8224
  286MOL0     H38548   1.084   1.203  10.232 -0.3878  0.7551  0.0880
  286MOL0     H38549   1.253   1.278  10.084 -0.1115 -1.8027  2.7347
  286MOL0     H38550   1.107   1.355  10.033 -1.7591 -0.8839  0.5307
  286MOL0     H38551   1.230   1.110   9.909  1.1670  0.9625  2.3695
  286MOL0     H38552   1.077   1.165   9.852  0.1187 -1.6276  0.5772
  286MOL0     H38553   1.233   1.403   9.877 -0.8281 -1.1634  0.9353
  286MOL0     H38554   1.341   1.285   9.796  0.1343  0.5093 -1.9013
  286MOL0     H38555   1.205   1.278   9.601  0.6979 -1.5414  1.2051
  286MOL0     H38556   1.066   1.353   9.690  0.3252 -0.4287 -1.1979
  286MOL0     H38557   1.191   1.484   9.518  0.8004 -3.9605  0.3316
  286MOL0     H38558   1.329   1.501   9.617  1.0704  1.8856 -0.7908
  286MOL0     H38559   1.167   1.601   9.805  0.2564 -0.0002 -0.0426
  286MOL0     H38560   1.218   1.697   9.661 -1.9619  0.5693  1.1473
  286MOL0     H38561   1.010   1.782   9.513 -0.7595  0.4556 -0.9468
  286MOL0     H38562   0.679   1.867   9.627  2.5206 -1.9286  3.3464
  286MOL0     H38563   0.801   1.901   9.509  0.9424 -0.0824  0.2026
  286MOL0     H38564   0.672   1.638   9.459 -0.0373  0.8427  1.6926
  286MOL0     H38565   0.548   1.768   9.451 -0.2884 -0.6570  0.5920
  286MOL0     H38566   0.655   1.711   9.223  3.8960 -1.6300  0.1529
  286MOL0     H38567   0.808   1.749   9.288  0.8967  3.1038  1.0981
  286MOL0     H38568   0.744   1.936   9.166  4.8877 -5.6717  1.7472
  286MOL0     H38569   0.720   1.989   9.331 -1.4346  0.7094  1.2350
  286MOL0     H38570   0.323   1.953   9.128  0.9265  0.5216 -1.7167
  286MOL0     H38571   0.217   2.135   9.014  0.4867 -1.6777  0.0648
  286MOL0     H38572   0.330   2.723   9.094  2.1388 -0.5578 -1.7032
  286MOL0     H38573   0.244   2.927   9.023  0.2610 -0.6621  0.0087
  286MOL0     H38574   0.188   3.008   8.597  0.1642  0.2209  0.9449
  286MOL0     H38575   0.033   2.919   8.620 -1.5474  1.9567  0.5916
  286MOL0     H38576   0.041   3.158   8.517 -0.6935 -1.5780 -0.4166
  286MOL0     H38577  -0.077   3.133   8.655 -0.0387 -4.7710  1.5349
  286MOL0     H38578   0.076   3.241   8.804 -2.2052 -1.2043 -0.3467
  286MOL0     H38579   0.202   3.271   8.684 -0.5092  1.8690  0.7630
  286MOL0     H38580  -0.070   3.388   8.652 -0.1957 -1.0761 -1.0497
  286MOL0     H38581   0.057   3.393   8.539 -2.5712 -2.0671 -1.1968
  286MOL0     H38582   0.211   3.499   8.734  0.2444  2.6903  3.5982
  286MOL0     H38583   0.072   3.488   8.830  0.9134 -5.5473 -0.8717
  286MOL0     H38584   0.101   3.654   8.577 -0.1759  4.0018  0.6485
  286MOL0     H38585  -0.057   3.640   8.662 -0.3616  0.7045 -2.1878
  286MOL0     H38586   0.185   3.714   8.815 -1.1876 -0.3518  1.0154
  286MOL0     H38587   0.029   3.756   8.854  2.0533 -0.4842  1.4115
  286MOL0     H38588   0.035   3.929   8.660  1.5338  0.8249 -1.8435
  286MOL0     H38589   0.140   3.959   8.793  0.7081  1.0650 -1.1360
  286MOL0     H38590   0.167   2.733   8.637 -3.0470  1.8472  0.8282
  286MOL0     H38591   0.274   2.540   8.721  1.5344 -0.1944 -0.5726
  286MOL0     H38592   0.574   2.374   9.115 -0.8630  0.0633 -0.1848
  286MOL0     H38593   0.661   2.191   9.233  0.0073  1.4287  0.9363
  286MOL0     H38594   0.810   1.526  10.220  0.6090 -0.6670  1.4879
  286MOL0     H38595   0.576   1.608  10.259  0.9125  0.3355 -1.8929
  286MOL0     H38596   0.185   1.716  10.463  0.4767 -0.9107  0.6838
  286MOL0     H38597  -0.060   1.759  10.485  2.3459  1.5066  0.2010
  286MOL0     H38598  -0.196   1.890  10.338  0.2694  0.1239  1.7787
  286MOL0     H38599  -0.289   1.801  10.458 -1.1164 -2.3027 -0.4303
  286MOL0     H38600  -0.408   1.883  10.187 -0.9761 -0.9929 -0.7094
  286MOL0     H38601  -0.422   1.968  10.340 -0.3959 -0.8960  1.3746
  286MOL0     H38602  -0.550   1.783  10.439 -3.0278  1.8510 -0.0551
  286MOL0     H38603  -0.525   1.695  10.271  0.9510  1.7604 -2.4914
  286MOL0     H38604  -0.761   1.770  10.324 -1.2151  0.7094 -0.4421
  286MOL0     H38605  -0.712   1.932  10.325 -3.2657 -1.0330  0.9891
  286MOL0     H38606  -0.711   1.879   9.919 -0.7799  0.6568 -0.4600
  286MOL0     H38607  -0.135   1.507  10.141  0.7902 -2.2084  0.6314
  286MOL0     H38608   0.009   1.310  10.138  0.6607 -0.1303 -0.3334
  286MOL0     H38609   0.118   1.392  10.038 -0.7050  4.2836  0.0609
  286MOL0     H38610   0.178   1.309  10.184  1.6181  1.7808  0.7564
  287MOL0     O38611   7.188   2.015  10.660 -0.2648 -0.6820  0.2467
  287MOL0     C38612   7.242   2.111  10.718  0.1230  0.4812 -0.0368
  287MOL0     O38613   7.197   2.164  10.836 -0.4879 -0.2901 -0.5782
  287MOL0     C38614   7.079   2.121  10.902 -0.1527 -0.5231 -1.2682
  287MOL0     C38615   6.952   2.112  10.832 -0.4234  0.1232 -0.3969
  287MOL0     C38616   6.843   2.075  10.905  0.1493  0.6340 -0.7135
  287MOL0     C38617   6.842   2.041  11.041 -0.2408 -0.4840 -0.6686
  287MOL0     O38618   6.718   2.019  11.091  0.5717  0.4086 -0.8418
  287MOL0     C38619   6.694   1.920  11.192  0.3082 -0.0362  0.9433
  287MOL0     C38620   6.659   2.001  11.307 -0.6418  0.3446  0.2472
  287MOL0     C38621   6.688   1.916  11.432 -0.4935  0.5776  0.5153
  287MOL0     C38622   6.585   1.800  11.458 -0.0963  0.3309  0.8521
  287MOL0     C38623   6.610   1.723  11.595 -0.2738 -0.3077  0.8970
  287MOL0     C38624   6.551   1.799  11.710  0.1743  0.7639 -0.2432
  287MOL0     C38625   6.569   1.714  11.839  0.3759  0.0456 -0.0874
  287MOL0     C38626   6.534   1.778  11.974 -0.7578  0.7513 -0.8611
  287MOL0     N38627   6.656   1.855  12.022  0.1308  0.1844  0.4092
  287MOL0     C38628   6.789   1.803  12.046  0.9641 -0.0931  0.2500
  287MOL0     C38629   6.878   1.902  12.061 -0.4893 -0.0311  0.1733
  287MOL0     C38630   7.030   1.886  12.084 -0.4209  0.0367 -1.1124
  287MOL0     C38631   7.111   2.023  12.099  0.9489  0.1288 -0.4516
  287MOL0     C38632   7.260   2.001  12.061 -0.2086 -0.7285 -0.5348
  287MOL0     C38633   7.357   2.063  12.166  0.5886  0.0300  0.4957
  287MOL0     O38634   7.334   2.205  12.180 -0.3136  0.4373  0.3834
  287MOL0     C38635   7.437   2.268  12.249  0.1181 -0.1765  2.0906
  287MOL0     C38636   7.441   2.403  12.221 -0.0962  0.9700  0.0535
  287MOL0     C38637   7.540   2.487  12.271 -0.1418  0.5292 -0.4985
  287MOL0     C38638   7.642   2.434  12.359 -0.7673 -0.5353  0.5059
  287MOL0     C38639   7.730   2.523  12.428 -0.0200  0.9780 -0.7251
  287MOL0     O38640   7.694   2.650  12.428  0.0993 -0.2588 -0.1424
  287MOL0     C38641   7.770   2.743  12.490 -0.5488 -0.1989 -0.0426
  287MOL0     C38642   7.832   2.722  12.618 -0.0846  0.8326  0.0128
  287MOL0     C38643   7.889   2.831  12.693 -0.0675  0.8162  0.0811
  287MOL0     C38644   7.909   2.966  12.644  0.8659  1.0646 -0.3575
  287MOL0     O38645   7.988   3.066  12.703  0.7231  1.0373 -0.1385
  287MOL0     C38646   8.065   3.032  12.826  1.1723  0.2212  0.2090
  287MOL0     C38647   8.113   3.159  12.893  0.1007 -0.2190 -0.8279
  287MOL0     C38648   8.250   3.183  12.842  0.7790 -0.3125 -0.7968
  287MOL0     C38649   8.322   3.307  12.894  0.1170  0.6452  0.4115
  287MOL0     C38650   8.279   3.441  12.840 -0.3488 -0.0159 -0.0687
  287MOL0     C38651   8.338   3.460  12.696 -0.0201  0.0549 -0.8338
  287MOL0     C38652   8.312   3.592  12.633  0.2829 -0.9420 -0.3347
  287MOL0     C38653   8.314   3.575  12.480 -0.8955 -0.3184  0.1500
  287MOL0    Cl38654   8.175   3.650  12.417 -0.4455 -0.9596 -0.3673
  287MOL0     C38655   7.843   2.977  12.522  0.2693 -0.8079 -0.1284
  287MOL0     C38656   7.776   2.877  12.446 -0.4700  0.3794  0.4998
  287MOL0     O38657   7.838   2.477  12.458 -0.6894 -0.2998  0.1490
  287MOL0     C38658   7.645   2.295  12.391  0.0293  0.5440  0.4668
  287MOL0     C38659   7.539   2.212  12.329 -0.3217  0.2964 -1.0037
  287MOL0     N38660   6.805   2.020  12.039 -0.2461 -0.2107 -0.1810
  287MOL0     N38661   6.684   1.988  12.005 -0.4117  0.5961  0.5541
  287MOL0     C38662   6.966   2.055  11.109  0.2482  0.6946 -0.8282
  287MOL0     C38663   7.076   2.103  11.037 -0.0622  0.2785  0.2880
  287MOL0     C38664   7.353   2.179  10.636  0.0363 -0.5189 -0.5121
  287MOL0     C38665   7.351   2.313  10.598  0.4733  0.2083 -0.5591
  287MOL0     C38666   7.453   2.372  10.529  0.1051 -0.1385  0.2077
  287MOL0     C38667   7.560   2.301  10.495 -0.4546  0.2240  0.0755
  287MOL0     O38668   7.652   2.364  10.413 -0.2454 -0.1273 -0.0144
  287MOL0     C38669   7.794   2.315  10.389 -0.0744  0.4538  0.6207
  287MOL0     C38670   7.883   2.309  10.512 -0.0089 -1.3691  0.0278
  287MOL0     C38671   7.892   2.446  10.582 -0.4438 -0.5501 -0.3273
  287MOL0     C38672   8.035   2.511  10.556  0.0399 -0.1213 -0.5142
  287MOL0     C38673   8.071   2.535  10.419  0.2196  0.0674  0.2005
  287MOL0     C38674   8.095   2.546  10.301 -0.3079  0.1349  0.0820
  287MOL0     C38675   7.575   2.168  10.544  0.1817  1.2671  0.2710
  287MOL0     C38676   7.467   2.099  10.614  0.0722 -1.2392  1.4104
  287MOL0     C38677   7.484   1.957  10.658  0.5017  0.0154  0.5554
  287MOL0     H38678   6.930   2.108  10.726 -0.0889 -4.0799 -0.5052
  287MOL0     H38679   6.752   2.046  10.853 -0.2560 -1.3632  0.9543
  287MOL0     H38680   6.609   1.855  11.169  0.4566 -0.2188  0.9091
  287MOL0     H38681   6.783   1.860  11.212  2.3488  2.4609 -0.0507
  287MOL0     H38682   6.557   2.039  11.296 -0.4107  0.1347 -3.9870
  287MOL0     H38683   6.732   2.082  11.310 -0.4590  0.2100 -0.4788
  287MOL0     H38684   6.688   1.988  11.515 -1.1740  1.6881 -0.4118
  287MOL0     H38685   6.790   1.878  11.427 -0.6201  0.2591  0.3194
  287MOL0     H38686   6.482   1.838  11.463 -0.1025  0.3933  0.3560
  287MOL0     H38687   6.596   1.722  11.383  3.4343  0.9951  0.5138
  287MOL0     H38688   6.558   1.627  11.584  0.5086 -1.1880  4.0353
  287MOL0     H38689   6.716   1.699  11.609 -0.2509 -0.8106 -0.0175
  287MOL0     H38690   6.598   1.896  11.724 -1.7086  1.5664  0.9844
  287MOL0     H38691   6.447   1.814  11.680  0.3987 -0.9808 -2.0635
  287MOL0     H38692   6.670   1.676  11.855 -0.3688 -1.6410  0.9399
  287MOL0     H38693   6.511   1.626  11.809  1.9061 -1.5787  1.4400
  287MOL0     H38694   6.458   1.857  11.968 -1.5884  0.4098  2.7787
  287MOL0     H38695   6.497   1.700  12.041  2.5230  0.6860  1.1032
  287MOL0     H38696   6.812   1.697  12.050 -2.8004 -1.0993 -0.6757
  287MOL0     H38697   7.059   1.819  12.166 -4.0341 -0.1920  0.1258
  287MOL0     H38698   7.071   1.849  11.989  2.5936 -1.0713  0.4703
  287MOL0     H38699   7.071   2.104  12.038 -0.0796 -0.9940 -1.3275
  287MOL0     H38700   7.097   2.047  12.204 -0.6699 -0.6006 -0.4778
  287MOL0     H38701   7.271   2.050  11.964 -0.6600 -1.2188 -0.8373
  287MOL0     H38702   7.271   1.892  12.070  0.5386 -0.4898  3.9700
  287MOL0     H38703   7.464   2.044  12.151  0.3989 -1.6858  1.0355
  287MOL0     H38704   7.330   2.002  12.253  0.5726 -0.8578 -0.1138
  287MOL0     H38705   7.365   2.451  12.161 -1.1498 -1.4222 -0.6435
  287MOL0     H38706   7.547   2.591  12.239 -0.0722  0.8389  0.4867
  287MOL0     H38707   7.816   2.629  12.673 -0.2761  1.7334  1.5514
  287MOL0     H38708   7.945   2.804  12.782  1.0960 -2.3242 -1.4108
  287MOL0     H38709   7.994   2.986  12.896  0.7538  1.5948  0.7085
  287MOL0     H38710   8.144   2.963  12.793 -0.0287 -0.1387 -2.1061
  287MOL0     H38711   8.045   3.242  12.870  1.0546  0.0911 -2.7942
  287MOL0     H38712   8.124   3.137  12.999 -2.8131  2.1906  0.1357
  287MOL0     H38713   8.313   3.099  12.874  0.6991 -0.0795  0.0032
  287MOL0     H38714   8.262   3.183  12.734  0.5367  2.0876 -0.8724
  287MOL0     H38715   8.431   3.299  12.882  0.1473 -1.8879  1.7296
  287MOL0     H38716   8.313   3.310  13.003 -1.8280  2.0470  0.2578
  287MOL0     H38717   8.324   3.520  12.899 -0.9302 -0.0783  0.4670
  287MOL0     H38718   8.170   3.450  12.830 -0.4191  0.4407  1.0524
  287MOL0     H38719   8.446   3.448  12.691  0.0207 -0.6458  0.9320
  287MOL0     H38720   8.284   3.384  12.639 -0.6392  0.7314 -1.1797
  287MOL0     H38721   8.394   3.659  12.662 -1.4036 -0.0781  2.9435
  287MOL0     H38722   8.225   3.643  12.675  2.3933  1.8165  1.1052
  287MOL0     H38723   8.399   3.632  12.443 -0.9043 -1.3441 -1.5445
  287MOL0     H38724   8.326   3.469  12.455  2.9088  0.1227 -0.4397
  287MOL0     H38725   7.831   3.079  12.488  0.9614 -0.3244  1.0205
  287MOL0     H38726   7.721   2.907  12.357  2.0211  1.1617 -0.8827
  287MOL0     H38727   7.722   2.250  12.453  0.6864 -1.8670 -1.9054
  287MOL0     H38728   7.533   2.106  12.350 -0.9654  0.8446  2.1037
  287MOL0     H38729   6.967   2.045  11.217 -0.8881  2.8440 -0.5688
  287MOL0     H38730   7.169   2.129  11.088  1.3149  1.6113 -2.6432
  287MOL0     H38731   7.275   2.386  10.624 -2.0778 -1.2104 -3.3607
  287MOL0     H38732   7.459   2.478  10.507  2.3404  0.0073  1.1988
  287MOL0     H38733   7.845   2.391  10.329  1.1900 -1.6527 -1.1372
  287MOL0     H38734   7.787   2.220  10.336 -1.2718 -1.0745  3.3164
  287MOL0     H38735   7.985   2.288  10.477  0.8104  1.9075  0.1039
  287MOL0     H38736   7.847   2.232  10.580 -2.8256 -0.2949 -0.1151
  287MOL0     H38737   7.887   2.423  10.689  0.1579  4.4768  1.0439
  287MOL0     H38738   7.813   2.518  10.560 -0.4669  0.3462  2.3397
  287MOL0     H38739   8.033   2.606  10.610  1.2628 -1.5088  2.1666
  287MOL0     H38740   8.105   2.444  10.608 -0.3964 -0.5665 -0.5030
  287MOL0     H38741   8.129   2.555  10.200 -0.7232 -0.2514 -0.0951
  287MOL0     H38742   7.663   2.111  10.517  0.4585  2.5355 -1.6821
  287MOL0     H38743   7.433   1.946  10.754 -0.4650  0.0409  0.0570
  287MOL0     H38744   7.442   1.885  10.587  1.7717  1.8610 -2.2368
  287MOL0     H38745   7.592   1.940  10.665  1.0172  0.9425 -2.9964
  288MOL0     O38746   7.876   0.378   5.565 -0.5259 -0.5472  0.0150
  288MOL0     C38747   7.857   0.422   5.678 -0.0140  0.6306 -0.6285
  288MOL0     O38748   7.740   0.469   5.713 -0.1373  0.2761  0.6831
  288MOL0     C38749   7.636   0.475   5.626 -1.1081 -0.1987  0.0302
  288MOL0     C38750   7.549   0.367   5.612 -0.5283 -0.1884  0.7864
  288MOL0     C38751   7.444   0.379   5.517  0.4754  0.0314  0.7167
  288MOL0     C38752   7.416   0.498   5.455  0.3798 -0.3488  0.2545
  288MOL0     O38753   7.309   0.519   5.370  0.2849  0.2440  0.4135
  288MOL0     C38754   7.287   0.424   5.268  1.1153 -0.5428 -0.3372
  288MOL0     C38755   7.177   0.486   5.174  0.2014 -0.3331 -0.0754
  288MOL0     C38756   7.034   0.486   5.228  0.0016 -0.6859 -0.1804
  288MOL0     C38757   6.989   0.345   5.262 -0.0842  0.3388 -1.2341
  288MOL0     C38758   6.846   0.319   5.308  0.6969 -0.1525  0.4997
  288MOL0     C38759   6.826   0.180   5.359  0.5060  0.2764  0.1483
  288MOL0     C38760   6.806   0.082   5.245 -0.7584  0.1008  0.1989
  288MOL0     C38761   6.659   0.038   5.241  1.0314 -0.3705  0.5209
  288MOL0     N38762   6.566   0.142   5.196 -0.3344 -0.4324  0.2038
  288MOL0     C38763   6.496   0.148   5.076  0.2267  0.4591  0.2311
  288MOL0     C38764   6.417   0.264   5.079 -0.6470  0.7995 -0.3815
  288MOL0     C38765   6.304   0.319   4.991 -0.2077  1.0551 -0.1044
  288MOL0     C38766   6.168   0.259   5.032 -0.2527 -0.2732 -0.6155
  288MOL0     C38767   6.063   0.309   4.933 -0.2116 -0.4795 -0.0652
  288MOL0     C38768   6.038   0.470   4.943  0.1475  0.4603 -0.8149
  288MOL0     O38769   6.002   0.504   5.077  0.1689 -0.2030  0.1081
  288MOL0     C38770   5.887   0.567   5.109  0.2424  0.4015 -0.9832
  288MOL0     C38771   5.816   0.652   5.024  0.8980 -0.1969  0.2615
  288MOL0     C38772   5.707   0.720   5.066  0.7566  0.7682  0.3823
  288MOL0     C38773   5.661   0.704   5.200  0.1419 -0.2284  0.1786
  288MOL0     C38774   5.544   0.784   5.251  0.6554 -0.9052  0.2281
  288MOL0     O38775   5.498   0.741   5.367 -1.1653  0.6035 -0.9021
  288MOL0     C38776   5.390   0.805   5.429 -0.4265 -0.0494  0.7252
  288MOL0     C38777   5.400   0.940   5.458 -0.3300 -0.5340  1.1606
  288MOL0     C38778   5.291   1.008   5.524 -0.5029  0.1455 -0.4252
  288MOL0     C38779   5.186   0.932   5.579  0.7112  0.5787 -0.6025
  288MOL0     O38780   5.078   0.992   5.625 -0.5424  0.1934  0.2715
  288MOL0     C38781   4.990   1.035   5.523  0.0422 -0.0642 -0.3371
  288MOL0     C38782   4.863   1.103   5.599  0.1976 -0.0629  0.0947
  288MOL0     C38783   4.807   1.027   5.719  0.2114  0.0291 -0.8272
  288MOL0     C38784   4.751   0.880   5.680 -1.2867 -0.0386 -0.0130
  288MOL0     C38785   4.754   0.797   5.812 -0.2466  0.3570  0.0509
  288MOL0     C38786   4.679   0.658   5.809 -0.3079  0.6714 -0.5129
  288MOL0     C38787   4.520   0.673   5.813  0.2954 -0.5743  0.0617
  288MOL0     C38788   4.443   0.538   5.815 -0.8483 -0.4828  0.0154
  288MOL0    Cl38789   4.495   0.454   5.661  0.2004 -0.1381  0.0019
  288MOL0     C38790   5.192   0.789   5.572 -0.7461  0.3334  0.6625
  288MOL0     C38791   5.300   0.729   5.504 -1.0055  0.1525 -0.7968
  288MOL0     O38792   5.504   0.885   5.189 -0.2577  0.1902 -0.7538
  288MOL0     C38793   5.727   0.612   5.284  0.4183 -0.6017  0.7297
  288MOL0     C38794   5.842   0.549   5.240 -0.2238 -0.8691 -0.0257
  288MOL0     N38795   6.436   0.310   5.209 -0.1247  0.4403  0.4757
  288MOL0     N38796   6.518   0.242   5.276 -0.1227  0.1586  0.2624
  288MOL0     C38797   7.496   0.607   5.477 -1.3476  0.7102  0.2332
  288MOL0     C38798   7.607   0.597   5.561  0.6695 -0.6164  0.4246
  288MOL0     C38799   7.968   0.423   5.779 -0.6239  0.0040 -0.6959
  288MOL0     C38800   8.100   0.437   5.734 -0.3771 -0.3426  0.2442
  288MOL0     C38801   8.206   0.449   5.824 -0.0034 -0.2305  0.7556
  288MOL0     C38802   8.183   0.445   5.956 -0.1121  0.0079 -1.1089
  288MOL0     O38803   8.283   0.449   6.048 -0.2115  0.9203  0.7351
  288MOL0     C38804   8.392   0.531   6.024 -0.8095 -0.6662  0.8791
  288MOL0     C38805   8.491   0.502   6.140 -0.9557 -0.7063  0.5919
  288MOL0     C38806   8.580   0.377   6.101  0.0058 -1.1676  0.9755
  288MOL0     C38807   8.714   0.413   6.035 -0.6516 -0.5320  0.0376
  288MOL0     C38808   8.810   0.465   6.135  0.8332  1.0539 -0.3470
  288MOL0     C38809   8.882   0.516   6.217  0.2718  0.3723  0.1576
  288MOL0     C38810   8.058   0.406   5.997  0.5963 -0.6451 -0.1292
  288MOL0     C38811   7.945   0.391   5.912 -0.3046  0.6243 -0.5312
  288MOL0     C38812   7.820   0.330   5.973  0.5386  0.5129  0.6745
  288MOL0     H38813   7.577   0.279   5.669  1.4825 -0.8075 -1.0539
  288MOL0     H38814   7.394   0.289   5.481  2.2348  0.0891 -2.1662
  288MOL0     H38815   7.384   0.417   5.219  1.3722 -0.7806  0.1925
  288MOL0     H38816   7.263   0.327   5.312 -1.9902  0.0398 -0.4526
  288MOL0     H38817   7.172   0.420   5.086 -2.3642 -2.6834  1.6369
  288MOL0     H38818   7.191   0.590   5.143 -1.1193  0.9186  3.1170
  288MOL0     H38819   6.959   0.520   5.156 -3.6132 -1.6187  2.8220
  288MOL0     H38820   7.024   0.558   5.310  2.3219 -1.1156  0.5581
  288MOL0     H38821   7.020   0.283   5.177 -0.3837 -2.3733  0.5147
  288MOL0     H38822   7.056   0.305   5.338 -1.4133 -0.1022 -0.2630
  288MOL0     H38823   6.818   0.376   5.397 -3.1989 -2.6580  1.1667
  288MOL0     H38824   6.789   0.348   5.219  0.9973 -0.8888  0.0561
  288MOL0     H38825   6.911   0.158   5.425  0.3311 -0.9092  0.0018
  288MOL0     H38826   6.744   0.165   5.429  0.7167 -2.0258 -0.0193
  288MOL0     H38827   6.868  -0.007   5.258  2.7013  2.2668 -0.0719
  288MOL0     H38828   6.834   0.131   5.151  1.3250  1.7851  1.5860
  288MOL0     H38829   6.640  -0.051   5.180 -0.2934  0.2641 -0.0237
  288MOL0     H38830   6.613   0.011   5.336 -1.3147 -0.2886 -0.5246
  288MOL0     H38831   6.484   0.072   5.000 -2.1004  0.6680  0.3009
  288MOL0     H38832   6.300   0.427   5.011 -1.8363  0.8285  1.0398
  288MOL0     H38833   6.333   0.300   4.887  1.6748  0.5858  0.4841
  288MOL0     H38834   6.171   0.150   5.022 -0.2106 -0.2929 -0.3942
  288MOL0     H38835   6.153   0.289   5.136 -0.8028 -0.5362 -0.6174
  288MOL0     H38836   5.966   0.259   4.931  1.1877 -3.4005 -0.9438
  288MOL0     H38837   6.107   0.291   4.834 -1.6057 -0.8583 -0.6381
  288MOL0     H38838   5.958   0.499   4.874  0.1814  2.8157  0.0477
  288MOL0     H38839   6.126   0.527   4.914 -0.0841  1.0108 -0.4658
  288MOL0     H38840   5.852   0.665   4.922  2.6786  0.2569  0.9116
  288MOL0     H38841   5.654   0.798   5.012 -2.3961 -0.0076  2.0752
  288MOL0     H38842   5.482   0.997   5.416  1.2164 -3.0411  0.5704
  288MOL0     H38843   5.302   1.115   5.539  2.5621  0.0982 -1.4843
  288MOL0     H38844   5.032   1.112   5.458 -2.3153  0.5409 -1.2382
  288MOL0     H38845   4.954   0.943   5.474  2.8232 -2.7262  2.1502
  288MOL0     H38846   4.890   1.201   5.641 -0.1122 -0.5295  1.4562
  288MOL0     H38847   4.779   1.110   5.529 -0.6304  2.1117  1.1942
  288MOL0     H38848   4.883   1.005   5.795  1.1009 -0.0245 -1.7177
  288MOL0     H38849   4.716   1.080   5.749 -1.0701 -1.0643 -2.6091
  288MOL0     H38850   4.808   0.830   5.601 -0.1632  0.6266  0.3633
  288MOL0     H38851   4.647   0.884   5.645 -1.3019 -3.6316 -0.8121
  288MOL0     H38852   4.707   0.856   5.891 -0.7588  0.7832 -0.5534
  288MOL0     H38853   4.856   0.779   5.844  0.1988 -0.1536 -1.5307
  288MOL0     H38854   4.708   0.609   5.716  1.9601 -0.3330  0.6443
  288MOL0     H38855   4.733   0.607   5.890 -1.2779 -1.1700 -0.9709
  288MOL0     H38856   4.497   0.730   5.723  3.1837  3.3750  1.5135
  288MOL0     H38857   4.499   0.736   5.899 -0.4574  2.5041 -2.2151
  288MOL0     H38858   4.463   0.487   5.910 -3.2788  0.0077  0.8782
  288MOL0     H38859   4.337   0.551   5.789 -0.5369 -2.4594 -2.6428
  288MOL0     H38860   5.112   0.734   5.619 -0.9017  0.5084  0.6015
  288MOL0     H38861   5.299   0.621   5.493 -0.2525  0.1612 -0.9970
  288MOL0     H38862   5.703   0.600   5.389 -2.0318  0.0692  0.3054
  288MOL0     H38863   5.900   0.470   5.286  1.7379 -0.3179 -1.4066
  288MOL0     H38864   7.480   0.705   5.433 -0.9897  0.4313 -0.5316
  288MOL0     H38865   7.667   0.684   5.584  1.5703 -1.7340  2.5206
  288MOL0     H38866   8.112   0.460   5.629 -4.9642 -1.2773 -0.6868
  288MOL0     H38867   8.308   0.464   5.789  0.0117 -0.1526  0.8342
  288MOL0     H38868   8.379   0.639   6.034  1.1408 -0.3352  0.3051
  288MOL0     H38869   8.443   0.513   5.929  2.0274  5.0398  0.9033
  288MOL0     H38870   8.439   0.474   6.232  0.5145 -2.6891  0.8862
  288MOL0     H38871   8.557   0.588   6.151  1.6942 -2.4374 -0.6890
  288MOL0     H38872   8.525   0.320   6.025  1.9223  1.3171 -2.5769
  288MOL0     H38873   8.599   0.314   6.188  1.9293  1.5718  2.6862
  288MOL0     H38874   8.755   0.324   5.987 -2.2709 -0.7097 -1.0977
  288MOL0     H38875   8.700   0.492   5.961 -2.6733 -1.6670 -0.8693
  288MOL0     H38876   8.932   0.570   6.296  0.0328 -0.5649  0.9692
  288MOL0     H38877   8.040   0.395   6.103 -0.7251 -3.0119 -0.5141
  288MOL0     H38878   7.739   0.403   5.964  2.3654  2.7863  1.7604
  288MOL0     H38879   7.775   0.246   5.919 -0.3402  0.7519  1.0091
  288MOL0     H38880   7.825   0.307   6.080 -1.7190 -0.1634  0.6820
  289MOL0     O38881   1.631  11.051   2.036 -0.2499 -0.1004 -0.1173
  289MOL0     C38882   1.621  11.149   2.107 -0.3737  0.6453 -0.2319
  289MOL0     O38883   1.670  11.270   2.082  0.1772 -0.6374 -0.4210
  289MOL0     C38884   1.787  11.285   2.022  1.1661 -0.4068 -0.8990
  289MOL0     C38885   1.882  11.183   2.010 -0.6211 -0.1691  0.3030
  289MOL0     C38886   2.000  11.211   1.940 -0.1449 -0.7721 -0.6161
  289MOL0     C38887   2.028  11.336   1.889 -0.4843  0.3951 -0.3540
  289MOL0     O38888   2.154  11.343   1.836  0.0786  0.7626  0.3612
  289MOL0     C38889   2.220  11.465   1.799 -0.4983 -0.4457  0.7451
  289MOL0     C38890   2.265  11.548   1.920  0.9710  0.3760  0.1429
  289MOL0     C38891   2.361  11.480   2.020  0.1532  0.1405 -0.8811
  289MOL0     C38892   2.505  11.456   1.959  0.0700  0.4083  0.1420
  289MOL0     C38893   2.601  11.405   2.063 -0.6747  0.0973 -0.5413
  289MOL0     C38894   2.731  11.349   1.994 -0.3631 -0.3330 -0.5879
  289MOL0     C38895   2.847  11.330   2.105  0.1984 -0.0937 -0.2583
  289MOL0     C38896   2.969  11.282   2.046  0.2545  0.4361  0.1521
  289MOL0     N38897   3.093  11.320   2.121 -0.1470 -1.0547 -0.3750
  289MOL0     C38898   3.169  11.240   2.206  1.3351 -0.4618 -0.3369
  289MOL0     C38899   3.237  11.322   2.288  0.9186  0.4226  1.0135
  289MOL0     C38900   3.336  11.288   2.394  0.2644 -0.5443 -0.4666
  289MOL0     C38901   3.396  11.422   2.443 -0.6616 -1.1707 -0.1768
  289MOL0     C38902   3.513  11.394   2.536 -0.0585  0.7349  1.0525
  289MOL0     C38903   3.637  11.330   2.470  0.0099  0.3296  1.0224
  289MOL0     O38904   3.677  11.404   2.351 -0.6585  0.4340 -0.1892
  289MOL0     C38905   3.789  11.338   2.304  0.3377  1.0888  0.0317
  289MOL0     C38906   3.793  11.300   2.171  0.5549  0.0211 -0.7729
  289MOL0     C38907   3.902  11.228   2.110  0.0895 -0.7024 -0.6426
  289MOL0     C38908   4.027  11.209   2.187  1.1928 -0.3096 -0.9333
  289MOL0     C38909   4.148  11.155   2.133 -0.4250 -0.4624  0.3490
  289MOL0     O38910   4.272  11.163   2.201  0.1816  0.5490 -0.2546
  289MOL0     C38911   4.401  11.128   2.153  0.0590 -0.1472 -0.6004
  289MOL0     C38912   4.511  11.164   2.234 -0.1288 -0.8207 -1.0218
  289MOL0     C38913   4.641  11.120   2.195  0.0052 -0.4160 -0.8377
  289MOL0     C38914   4.663  11.034   2.092 -0.4201  0.3096  1.2596
  289MOL0     O38915   4.783  10.975   2.072 -0.3329  0.2091 -0.1370
  289MOL0     C38916   4.892  11.061   2.087 -0.1932 -1.2833  0.4534
  289MOL0     C38917   5.007  11.028   2.002 -0.1740 -0.2937 -0.2830
  289MOL0     C38918   5.078  10.894   2.040  0.2240  0.0205 -0.2903
  289MOL0     C38919   5.181  10.865   1.933  0.0674 -0.7048 -0.3464
  289MOL0     C38920   5.283  10.747   1.973 -0.3978  0.1819 -0.1824
  289MOL0     C38921   5.221  10.616   1.941  0.8543  0.8955  0.8057
  289MOL0     C38922   5.305  10.505   1.958 -1.3436 -0.3290  0.2458
  289MOL0     C38923   5.280  10.375   1.875  0.4709 -0.7038  0.3294
  289MOL0    Cl38924   5.383  10.369   1.731 -0.1023  0.4568 -0.0625
  289MOL0     C38925   4.552  10.983   2.025  0.0267 -0.3566  0.4707
  289MOL0     C38926   4.424  11.036   2.054  0.0560 -0.4153  0.1789
  289MOL0     O38927   4.130  11.094   2.024 -0.2236 -0.0703  0.4383
  289MOL0     C38928   4.021  11.271   2.313  0.4235 -0.1231  0.3398
  289MOL0     C38929   3.909  11.330   2.372  0.6131  0.3479  0.4772
  289MOL0     N38930   3.206  11.452   2.250  0.0853 -0.0212  0.8433
  289MOL0     N38931   3.136  11.449   2.143 -0.1477 -0.2509  0.0023
  289MOL0     C38932   1.935  11.436   1.896 -0.2948  0.2740 -0.4489
  289MOL0     C38933   1.811  11.405   1.956 -0.6610  0.0180  0.0974
  289MOL0     C38934   1.514  11.136   2.208 -0.9780 -0.0905 -0.6791
  289MOL0     C38935   1.494  11.249   2.293 -0.2178 -0.4395 -0.4388
  289MOL0     C38936   1.394  11.252   2.393  0.0571  0.0661 -0.1444
  289MOL0     C38937   1.299  11.146   2.414 -0.1056 -0.2257  0.1901
  289MOL0     O38938   1.200  11.162   2.502  0.2444  0.5714 -0.2897
  289MOL0     C38939   1.065  11.127   2.465 -0.1406  1.1884 -0.7020
  289MOL0     C38940   0.990  11.239   2.397  0.4724  0.7677  0.5130
  289MOL0     C38941   0.973  11.351   2.500  0.2395 -0.2343 -0.3464
  289MOL0     C38942   0.862  11.320   2.601 -0.2454  0.1933 -0.6291
  289MOL0     C38943   0.836  11.441   2.685 -0.8014  0.4633  0.5577
  289MOL0     C38944   0.814  11.531   2.758 -0.3304 -0.2728  0.6910
  289MOL0     C38945   1.316  11.030   2.333  0.4252  0.1319  0.2155
  289MOL0     C38946   1.417  11.027   2.233 -0.4693  0.2714  0.3356
  289MOL0     C38947   1.414  10.901   2.145 -0.7727 -0.1857  0.5928
  289MOL0     H38948   1.868  11.088   2.061  1.0695 -0.1907  0.7881
  289MOL0     H38949   2.080  11.137   1.944  2.1232  1.5794  0.7911
  289MOL0     H38950   2.313  11.433   1.750  0.1746 -0.5152  2.0162
  289MOL0     H38951   2.157  11.521   1.730  0.7801  2.6895  1.9356
  289MOL0     H38952   2.178  11.594   1.969 -0.5473 -1.1147 -1.0620
  289MOL0     H38953   2.319  11.637   1.885 -0.0125  1.4265  1.2031
  289MOL0     H38954   2.321  11.388   2.063 -1.7765  1.2962 -0.0965
  289MOL0     H38955   2.372  11.561   2.093 -0.3731  0.8665 -1.5962
  289MOL0     H38956   2.502  11.391   1.871  3.1746 -0.7265  0.7623
  289MOL0     H38957   2.553  11.549   1.930 -1.5645  1.5287  0.8697
  289MOL0     H38958   2.627  11.490   2.128 -0.2484 -0.5610  0.1706
  289MOL0     H38959   2.564  11.327   2.131 -1.7151 -0.1581 -1.3837
  289MOL0     H38960   2.705  11.259   1.938 -0.1907 -0.6701 -0.1324
  289MOL0     H38961   2.764  11.418   1.916 -0.5866 -0.8210 -1.1185
  289MOL0     H38962   2.821  11.248   2.172  1.3914  0.9791  1.5763
  289MOL0     H38963   2.863  11.430   2.147  0.0885  0.0054 -0.4491
  289MOL0     H38964   2.966  11.173   2.029  1.2770  0.0593  2.1339
  289MOL0     H38965   2.978  11.343   1.956  0.7914  0.9439  0.5427
  289MOL0     H38966   3.159  11.132   2.204 -2.3045 -0.2949 -3.2698
  289MOL0     H38967   3.294  11.239   2.483 -1.8466 -0.3366 -1.2981
  289MOL0     H38968   3.407  11.218   2.350  1.3938 -1.4725  2.5571
  289MOL0     H38969   3.437  11.481   2.360  0.1278  2.4272  2.4975
  289MOL0     H38970   3.326  11.484   2.501 -0.7679 -0.4865 -1.0093
  289MOL0     H38971   3.478  11.336   2.621  2.2583 -0.4446  1.2789
  289MOL0     H38972   3.556  11.487   2.574  2.8621  0.6345 -1.5786
  289MOL0     H38973   3.609  11.228   2.441 -0.0964  0.1799  1.6574
  289MOL0     H38974   3.711  11.328   2.550  0.1398 -0.3580  0.8901
  289MOL0     H38975   3.697  11.315   2.123 -1.2101  0.2266  2.5694
  289MOL0     H38976   3.903  11.205   2.003 -0.0705  0.3270 -0.8754
  289MOL0     H38977   4.510  11.238   2.313 -1.0289  1.6124 -3.1765
  289MOL0     H38978   4.729  11.153   2.250 -0.3959  2.2074 -1.6387
  289MOL0     H38979   4.857  11.159   2.054 -0.2351 -0.7536  1.9974
  289MOL0     H38980   4.921  11.075   2.191 -0.1608 -2.4273  0.6081
  289MOL0     H38981   4.969  11.021   1.900  1.5929  1.1582 -1.1183
  289MOL0     H38982   5.079  11.110   2.011 -0.1901 -0.4823  3.7471
  289MOL0     H38983   5.135  10.902   2.133  0.8839 -1.7037 -0.5116
  289MOL0     H38984   5.006  10.813   2.051  1.1381 -0.7540  0.1076
  289MOL0     H38985   5.243  10.955   1.926  1.4161 -1.3220  2.3265
  289MOL0     H38986   5.129  10.846   1.839 -1.7077 -1.7020  0.7922
  289MOL0     H38987   5.306  10.773   2.076 -1.7635  0.9258 -0.0414
  289MOL0     H38988   5.374  10.749   1.913  0.0927  0.9244  0.5761
  289MOL0     H38989   5.126  10.599   1.994  0.1411 -1.0007 -0.9631
  289MOL0     H38990   5.207  10.614   1.833  2.0468  0.5644  0.6409
  289MOL0     H38991   5.273  10.474   2.058 -3.8163 -1.3735 -0.7928
  289MOL0     H38992   5.411  10.531   1.962 -1.6507  1.0702  0.0225
  289MOL0     H38993   5.301  10.286   1.936  1.8396 -2.1250 -2.0743
  289MOL0     H38994   5.174  10.384   1.848  0.2672 -0.7870  1.0570
  289MOL0     H38995   4.559  10.922   1.936  1.3333  1.9099 -1.0917
  289MOL0     H38996   4.337  11.001   2.000 -1.1964  2.3278  0.2488
  289MOL0     H38997   4.112  11.287   2.370 -0.1389 -0.8847  1.4791
  289MOL0     H38998   3.923  11.376   2.469 -1.1685  0.8267  0.5557
  289MOL0     H38999   1.943  11.532   1.845 -3.8567  0.6738 -0.5242
  289MOL0     H39000   1.734  11.479   1.939  1.6582  2.6649  0.3816
  289MOL0     H39001   1.559  11.336   2.289 -1.8612  0.9737  1.4874
  289MOL0     H39002   1.397  11.342   2.454 -0.0622  1.4674 -2.1100
  289MOL0     H39003   1.007  11.089   2.550  0.9423  1.5399  0.2210
  289MOL0     H39004   1.063  11.046   2.392 -4.5678  1.5257 -1.2093
  289MOL0     H39005   0.895  11.198   2.363  0.2768  1.4628  0.1907
  289MOL0     H39006   1.042  11.270   2.305 -0.1148 -0.9758 -0.4513
  289MOL0     H39007   0.960  11.441   2.440 -0.5021  0.7680  1.2820
  289MOL0     H39008   1.065  11.368   2.557 -1.0445  3.2330  0.8734
  289MOL0     H39009   0.773  11.284   2.548 -0.8067  1.3911 -0.5312
  289MOL0     H39010   0.906  11.244   2.666 -1.3488  2.1351  2.5687
  289MOL0     H39011   0.789  11.608   2.829  1.7764 -1.9695  3.4638
  289MOL0     H39012   1.256  10.941   2.344  1.4411 -0.8671 -1.8171
  289MOL0     H39013   1.342  10.824   2.173 -0.7404  1.0082  4.6986
  289MOL0     H39014   1.401  10.942   2.045  2.9525  0.7320  0.3227
  289MOL0     H39015   1.511  10.851   2.137 -2.3728 -3.5634  0.6700
  290MOL0     O39016   8.009   2.441  11.232 -0.2960  1.1268  0.5266
  290MOL0     C39017   7.941   2.366  11.148 -0.6920  0.6100 -0.1304
  290MOL0     O39018   7.953   2.375  11.010 -0.5507 -0.3261 -0.0100
  290MOL0     C39019   8.045   2.464  10.963 -0.0995 -0.0888 -0.4392
  290MOL0     C39020   8.182   2.437  10.943 -1.1308 -0.4735 -0.0716
  290MOL0     C39021   8.261   2.526  10.876  0.4810  0.0958 -0.1230
  290MOL0     C39022   8.219   2.656  10.842  0.3282  0.1735  0.1565
  290MOL0     O39023   8.311   2.742  10.790 -0.9607  0.5076  0.0669
  290MOL0     C39024   8.307   2.880  10.812 -0.2598 -0.2484 -0.0474
  290MOL0     C39025   8.439   2.957  10.758 -0.0418  0.7122  1.1443
  290MOL0     C39026   8.570   2.904  10.824 -1.2364 -0.4190 -0.3547
  290MOL0     C39027   8.556   2.831  10.956  0.3244  0.9433 -0.1862
  290MOL0     C39028   8.694   2.820  11.027 -0.1387 -0.1322  0.2387
  290MOL0     C39029   8.786   2.718  10.973 -0.7106 -0.2883  0.1744
  290MOL0     C39030   8.931   2.751  11.009  0.5618  0.0349 -0.9428
  290MOL0     C39031   9.024   2.639  10.961 -0.0371 -0.0711 -0.0095
  290MOL0     N39032   9.026   2.614  10.812 -0.2225  0.3884  0.3124
  290MOL0     C39033   9.081   2.705  10.725 -0.0488 -1.4471  0.5700
  290MOL0     C39034   9.101   2.627  10.614  0.0161  0.3431 -0.2417
  290MOL0     C39035   9.168   2.669  10.490 -0.0125 -0.0538 -0.1434
  290MOL0     C39036   9.117   2.610  10.361 -0.0123 -0.4030  0.9121
  290MOL0     C39037   9.208   2.615  10.241 -0.1911  0.0476 -0.0579
  290MOL0     C39038   9.130   2.597  10.121  0.6707  0.0815  0.6645
  290MOL0     O39039   9.059   2.471  10.118  0.2856  0.6963 -0.3312
  290MOL0     C39040   8.926   2.451  10.086  0.3112  0.2901  0.8486
  290MOL0     C39041   8.839   2.546  10.035 -0.6324 -0.7492 -0.8286
  290MOL0     C39042   8.702   2.522  10.020  0.2910 -0.6772  0.3488
  290MOL0     C39043   8.647   2.410  10.081 -0.0694 -0.9564 -0.1178
  290MOL0     C39044   8.503   2.405  10.108  0.0522 -0.3948  0.3348
  290MOL0     O39045   8.450   2.294  10.171 -0.2458  0.7082 -0.1551
  290MOL0     C39046   8.327   2.249  10.133 -0.3218  0.2249 -0.2958
  290MOL0     C39047   8.228   2.217  10.232  0.0985  0.0788 -0.3943
  290MOL0     C39048   8.091   2.194  10.199  0.0160 -0.5454  0.0576
  290MOL0     C39049   8.046   2.199  10.061  0.2816  0.5601  0.8867
  290MOL0     O39050   7.910   2.189  10.037  0.2594 -0.2615  0.6050
  290MOL0     C39051   7.853   2.149   9.911 -0.0285 -0.3872 -0.2240
  290MOL0     C39052   7.740   2.045   9.926 -1.0500 -0.1568  0.3692
  290MOL0     C39053   7.624   2.083  10.005 -0.3377  0.0725  0.6041
  290MOL0     C39054   7.554   1.967  10.068 -1.3055  0.6161 -0.2692
  290MOL0     C39055   7.474   2.005  10.197 -0.4516  0.0772  0.6388
  290MOL0     C39056   7.357   2.087  10.163  0.2069  0.2112  0.0550
  290MOL0     C39057   7.276   2.135  10.293  0.3760 -0.0896  1.1282
  290MOL0     C39058   7.132   2.138  10.262 -0.0339  0.4426  0.1063
  290MOL0    Cl39059   7.103   2.277  10.151 -0.3767  0.3305  0.6016
  290MOL0     C39060   8.149   2.224   9.968  0.8827  0.5325  0.1865
  290MOL0     C39061   8.288   2.246   9.999  0.2291  0.0739 -0.2468
  290MOL0     O39062   8.437   2.496  10.056  0.1419 -0.5979 -1.2886
  290MOL0     C39063   8.730   2.307  10.122 -0.0241 -0.7331  0.3909
  290MOL0     C39064   8.866   2.324  10.118 -0.1398  0.2051 -0.2447
  290MOL0     N39065   9.053   2.500  10.634 -0.3732 -0.2485 -0.0852
  290MOL0     N39066   9.012   2.487  10.754 -0.1598 -0.6416 -0.5733
  290MOL0     C39067   8.088   2.693  10.865  0.5607 -0.3469  1.0125
  290MOL0     C39068   8.008   2.599  10.934 -0.3683  0.0633 -0.0562
  290MOL0     C39069   7.842   2.271  11.202 -0.0835  0.9897 -0.4980
  290MOL0     C39070   7.799   2.279  11.342 -0.3301 -0.0984 -0.0053
  290MOL0     C39071   7.720   2.183  11.407  0.1286 -0.0243  0.3100
  290MOL0     C39072   7.670   2.086  11.326 -0.2134  1.0690 -1.0239
  290MOL0     O39073   7.591   1.987  11.376 -0.1395  0.9027 -0.3813
  290MOL0     C39074   7.672   1.865  11.400  0.3697  0.4800 -0.3541
  290MOL0     C39075   7.602   1.780  11.510  0.0728  0.2637 -0.0674
  290MOL0     C39076   7.623   1.834  11.648  0.0651 -0.1359  0.5686
  290MOL0     C39077   7.565   1.726  11.751 -0.5504 -0.9627  1.2656
  290MOL0     C39078   7.622   1.755  11.886 -0.5346  0.1547  0.4276
  290MOL0     C39079   7.642   1.780  12.001 -0.1417  0.0570 -1.1132
  290MOL0     C39080   7.699   2.073  11.190 -0.1537  0.1059 -0.7283
  290MOL0     C39081   7.782   2.170  11.125  0.2881 -0.4768  0.5918
  290MOL0     C39082   7.797   2.159  10.973  0.5913 -0.7111  0.1336
  290MOL0     H39083   8.223   2.347  10.988  0.4427  0.9034  1.3752
  290MOL0     H39084   8.364   2.494  10.864  1.0611  0.4124  3.0754
  290MOL0     H39085   8.217   2.918  10.763 -1.0535  0.4083  1.8562
  290MOL0     H39086   8.298   2.891  10.920  1.6808 -0.6801  0.2035
  290MOL0     H39087   8.430   3.065  10.772 -0.8990  1.1269 -1.9481
  290MOL0     H39088   8.445   2.944  10.650  0.2991 -0.7970  1.3234
  290MOL0     H39089   8.642   2.986  10.833  2.5603 -3.2215 -2.6244
  290MOL0     H39090   8.616   2.834  10.755  0.3033 -0.1961  0.4091
  290MOL0     H39091   8.487   2.892  11.014 -0.7711  0.4684 -0.9577
  290MOL0     H39092   8.518   2.730  10.937 -0.1868  0.7189  1.8328
  290MOL0     H39093   8.740   2.919  11.017 -0.9583  0.5555  2.7350
  290MOL0     H39094   8.678   2.794  11.132 -0.4582 -0.9006  0.0079
  290MOL0     H39095   8.752   2.618  11.002  0.3929 -1.3026 -1.8465
  290MOL0     H39096   8.788   2.709  10.864  0.5741 -2.1977  0.3195
  290MOL0     H39097   8.939   2.765  11.117  0.5252  0.2626 -0.9697
  290MOL0     H39098   8.959   2.848  10.968  0.1187  0.7074  0.3032
  290MOL0     H39099   9.128   2.651  10.992  0.2788  0.4075 -1.2138
  290MOL0     H39100   8.978   2.551  11.009  0.0527  0.6061  1.3797
  290MOL0     H39101   9.110   2.808  10.737  2.0885 -1.8031 -0.9784
  290MOL0     H39102   9.156   2.777  10.480  0.5361  0.0242  0.0316
  290MOL0     H39103   9.277   2.663  10.503  0.0544  1.2231  0.0007
  290MOL0     H39104   9.091   2.503  10.364 -2.1982 -0.1399 -2.7255
  290MOL0     H39105   9.028   2.674  10.361  1.5572  2.0577  4.1016
  290MOL0     H39106   9.272   2.527  10.244 -1.5577 -0.9799  2.2875
  290MOL0     H39107   9.267   2.707  10.236 -2.1930  1.3487 -3.5574
  290MOL0     H39108   9.183   2.597  10.025  0.2228 -0.9408  0.4054
  290MOL0     H39109   9.055   2.676  10.126 -2.8982 -2.7961 -2.0390
  290MOL0     H39110   8.885   2.640  10.005  1.1542 -2.4671 -3.9304
  290MOL0     H39111   8.651   2.607   9.977  0.8451 -0.6741 -0.3206
  290MOL0     H39112   8.237   2.211  10.340 -3.7562 -2.7121 -0.0167
  290MOL0     H39113   8.024   2.171  10.280  0.8242 -0.0718  0.8770
  290MOL0     H39114   7.813   2.241   9.867  3.9906  2.1001  0.8122
  290MOL0     H39115   7.932   2.101   9.852 -0.6361 -3.6342  1.3593
  290MOL0     H39116   7.706   2.021   9.825  1.0661 -0.5036 -0.3234
  290MOL0     H39117   7.784   1.965   9.987  1.8240  2.1103  1.4731
  290MOL0     H39118   7.669   2.153  10.076  1.3242  0.8839 -1.1645
  290MOL0     H39119   7.549   2.136   9.946  0.6718  0.6089 -0.2401
  290MOL0     H39120   7.627   1.891  10.096 -2.0510  0.7914  2.5223
  290MOL0     H39121   7.478   1.924  10.002 -0.0779 -2.4981  0.1848
  290MOL0     H39122   7.542   2.048  10.272 -0.9054  2.1611 -0.0685
  290MOL0     H39123   7.449   1.908  10.240  2.9845 -1.3243 -0.2077
  290MOL0     H39124   7.393   2.175  10.111 -0.0247  0.2710 -0.0051
  290MOL0     H39125   7.298   2.030  10.090 -0.0056  0.2905  0.1641
  290MOL0     H39126   7.318   2.232  10.322  0.2539  0.9522 -1.7923
  290MOL0     H39127   7.294   2.061  10.371 -2.9747 -0.3972  1.7544
  290MOL0     H39128   7.100   2.044  10.217 -1.3422  1.1301 -0.4440
  290MOL0     H39129   7.070   2.146  10.351  0.2730 -0.9782  0.4718
  290MOL0     H39130   8.120   2.211   9.864  0.3203 -0.1256  0.4274
  290MOL0     H39131   8.362   2.266   9.923  0.2918 -2.9076 -1.0813
  290MOL0     H39132   8.683   2.218  10.163 -0.2658  0.6829  3.4330
  290MOL0     H39133   8.933   2.247  10.154  0.7874  1.6040  1.1671
  290MOL0     H39134   8.059   2.791  10.827 -1.6961 -1.5523 -0.7067
  290MOL0     H39135   7.907   2.617  10.968 -0.2563 -2.0936  1.6346
  290MOL0     H39136   7.829   2.354  11.414  3.5823 -1.2545 -0.1960
  290MOL0     H39137   7.692   2.192  11.511 -0.0315  1.9720  0.1348
  290MOL0     H39138   7.776   1.887  11.426  0.8018 -1.8917  0.1463
  290MOL0     H39139   7.668   1.812  11.304 -1.8161 -0.2709  0.0755
  290MOL0     H39140   7.655   1.684  11.504  1.1128  0.6994  1.4871
  290MOL0     H39141   7.493   1.767  11.509  0.1518 -0.6100  0.8064
  290MOL0     H39142   7.563   1.924  11.666 -0.7260  0.0837 -2.5282
  290MOL0     H39143   7.722   1.873  11.671 -1.3617  3.6740  1.1574
  290MOL0     H39144   7.455   1.732  11.756 -0.6039 -1.0422  0.3440
  290MOL0     H39145   7.594   1.624  11.725 -2.8794 -1.3297 -0.2784
  290MOL0     H39146   7.639   1.798  12.106 -0.3498  0.9964 -1.2782
  290MOL0     H39147   7.659   2.000  11.122 -1.1585  1.4688 -1.6521
  290MOL0     H39148   7.772   2.254  10.924  4.6848 -1.0557 -3.1671
  290MOL0     H39149   7.897   2.129  10.939 -0.0544 -0.1519 -2.4700
  290MOL0     H39150   7.727   2.082  10.942 -0.6090 -1.3906  3.9767
  291MOL0     O39151   4.147   9.236   4.951 -0.5595 -0.5860 -0.2860
  291MOL0     C39152   4.125   9.352   4.906 -0.6550  0.2440  0.2224
  291MOL0     O39153   4.223   9.446   4.904 -0.3538  0.1900  0.7276
  291MOL0     C39154   4.345   9.405   4.938 -1.2082  0.3485 -0.0961
  291MOL0     C39155   4.444   9.416   4.838  0.5898  0.2815 -0.2007
  291MOL0     C39156   4.574   9.370   4.865 -0.0732 -0.0959  1.2491
  291MOL0     C39157   4.610   9.314   4.987 -0.0811  0.8490 -0.4728
  291MOL0     O39158   4.741   9.261   4.996 -0.1720  0.2302 -0.1390
  291MOL0     C39159   4.752   9.146   5.090 -0.6285 -0.1598  0.6919
  291MOL0     C39160   4.813   9.180   5.228 -0.3985 -0.2817  0.1621
  291MOL0     C39161   4.851   9.046   5.303 -0.1915  1.1313 -0.5027
  291MOL0     C39162   4.918   9.054   5.440 -0.4765  0.0681 -0.7598
  291MOL0     C39163   5.068   9.107   5.440  0.6518  0.5847  0.3654
  291MOL0     C39164   5.104   9.141   5.579 -0.2279  0.0704  0.5898
  291MOL0     C39165   5.241   9.197   5.590 -0.2649  0.5717  1.4630
  291MOL0     C39166   5.316   9.169   5.711  0.0674  0.4914 -0.1263
  291MOL0     N39167   5.266   9.230   5.829 -0.3253 -0.1052 -0.0688
  291MOL0     C39168   5.163   9.195   5.910  0.7577  0.4213  0.2305
  291MOL0     C39169   5.187   9.271   6.020  0.5369 -0.0910 -0.4533
  291MOL0     C39170   5.115   9.247   6.148 -0.1244  0.7483  0.1528
  291MOL0     C39171   4.962   9.258   6.149  0.5813  0.4930 -0.1922
  291MOL0     C39172   4.884   9.139   6.076 -0.5294 -1.2702 -0.3446
  291MOL0     C39173   4.736   9.130   6.110 -0.1726 -0.1661  0.8063
  291MOL0     O39174   4.725   9.095   6.245  0.4350 -0.3568 -0.5885
  291MOL0     C39175   4.598   9.106   6.294 -0.2051  0.1580  0.2296
  291MOL0     C39176   4.597   9.103   6.428  0.4192  0.3157 -0.4800
  291MOL0     C39177   4.478   9.138   6.496  0.3863  0.3455 -0.0850
  291MOL0     C39178   4.360   9.161   6.433  0.2666  0.9587 -0.3981
  291MOL0     C39179   4.229   9.203   6.500 -0.2491 -0.0432 -0.0004
  291MOL0     O39180   4.136   9.259   6.420  0.2421  0.2110  0.3000
  291MOL0     C39181   4.012   9.289   6.473  0.3913  0.1384  0.8087
  291MOL0     C39182   3.938   9.377   6.386 -0.1925  0.2708 -0.4367
  291MOL0     C39183   3.809   9.408   6.417  1.0312  1.1422 -0.1176
  291MOL0     C39184   3.744   9.355   6.523  0.0526  1.6398  0.6504
  291MOL0     O39185   3.610   9.394   6.539 -0.8698  0.3984  0.1245
  291MOL0     C39186   3.527   9.324   6.642 -0.1246 -0.1224 -0.1920
  291MOL0     C39187   3.383   9.363   6.637  0.8702 -0.7955  0.2399
  291MOL0     C39188   3.363   9.514   6.665  0.6682 -0.8222  0.6721
  291MOL0     C39189   3.217   9.570   6.647  0.6365 -0.8876 -0.8743
  291MOL0     C39190   3.202   9.712   6.691  0.0315  0.1274  0.3077
  291MOL0     C39191   3.294   9.808   6.611  0.3937 -0.2218 -0.1628
  291MOL0     C39192   3.268   9.812   6.461  0.0862 -0.2711 -0.7963
  291MOL0     C39193   3.352   9.917   6.392 -0.1943  0.4685 -0.6076
  291MOL0    Cl39194   3.523   9.872   6.396  0.0423 -0.1480 -0.3373
  291MOL0     C39195   3.810   9.262   6.604  0.1798 -0.8251 -0.9736
  291MOL0     C39196   3.942   9.227   6.576 -0.3589  0.5943  0.1686
  291MOL0     O39197   4.220   9.174   6.618 -0.3207  0.3221 -0.2527
  291MOL0     C39198   4.370   9.158   6.295 -0.6287 -0.0211  0.6959
  291MOL0     C39199   4.479   9.122   6.224 -0.0728  0.2880 -0.3727
  291MOL0     N39200   5.273   9.379   5.989 -0.1279  1.0647  0.2470
  291MOL0     N39201   5.319   9.344   5.872 -0.5891  0.0627  0.3174
  291MOL0     C39202   4.512   9.313   5.084  0.1289 -0.5154  0.5026
  291MOL0     C39203   4.383   9.360   5.062  0.8068  0.1967 -0.0592
  291MOL0     C39204   3.991   9.362   4.846  0.0720 -0.4253  0.0813
  291MOL0     C39205   3.891   9.279   4.902 -0.4800 -0.2466 -0.7877
  291MOL0     C39206   3.768   9.270   4.841  0.7776  0.9515  0.7177
  291MOL0     C39207   3.740   9.348   4.736  1.4404 -0.1378 -0.1913
  291MOL0     O39208   3.612   9.344   4.680 -0.5028 -0.5306 -0.3765
  291MOL0     C39209   3.523   9.228   4.693 -0.0037  0.0621  0.3326
  291MOL0     C39210   3.390   9.237   4.604 -0.1559  0.1436  0.5008
  291MOL0     C39211   3.306   9.121   4.637  0.7386  1.5043  0.4848
  291MOL0     C39212   3.218   9.078   4.510  0.4685 -0.8000  0.6291
  291MOL0     C39213   3.082   9.126   4.534  0.5020  0.2993  0.7957
  291MOL0     C39214   2.962   9.148   4.538  0.4970 -0.9659  0.3341
  291MOL0     C39215   3.833   9.435   4.680 -0.3359 -0.5944 -0.6472
  291MOL0     C39216   3.958   9.445   4.737  0.3857  0.2020 -0.3897
  291MOL0     C39217   4.056   9.541   4.669 -0.4175  0.0400  0.7289
  291MOL0     H39218   4.401   9.449   4.744 -1.7579  2.7364  1.5515
  291MOL0     H39219   4.654   9.374   4.792  0.0668  0.5229  1.4341
  291MOL0     H39220   4.652   9.100   5.091 -2.1354  2.8282  0.3250
  291MOL0     H39221   4.817   9.072   5.043 -1.1648  0.3805 -1.0132
  291MOL0     H39222   4.748   9.241   5.291  2.3056  2.5800  0.4418
  291MOL0     H39223   4.904   9.239   5.215  0.0232 -0.8881  0.2800
  291MOL0     H39224   4.905   8.976   5.239 -1.2542 -1.6138  1.4412
  291MOL0     H39225   4.759   8.992   5.327  0.1187 -0.5363 -2.7382
  291MOL0     H39226   4.863   9.127   5.499  1.3344 -0.5124  1.8048
  291MOL0     H39227   4.916   8.952   5.481  0.4153 -0.2986 -1.5742
  291MOL0     H39228   5.151   9.044   5.407 -0.5156 -0.5038 -0.5614
  291MOL0     H39229   5.070   9.193   5.371  1.9197 -2.9089 -4.5076
  291MOL0     H39230   5.035   9.212   5.627 -0.3824 -0.0674  0.5731
  291MOL0     H39231   5.109   9.048   5.636 -1.3806 -2.9579 -3.7782
  291MOL0     H39232   5.237   9.306   5.576  1.2716  0.3509 -1.6769
  291MOL0     H39233   5.296   9.170   5.499  2.0840  3.1369  1.9759
  291MOL0     H39234   5.329   9.062   5.724 -1.5350 -0.1325 -2.9158
  291MOL0     H39235   5.415   9.205   5.680  1.3054 -1.7157  1.0459
  291MOL0     H39236   5.104   9.104   5.916 -2.8483  2.4948 -0.2293
  291MOL0     H39237   5.136   9.142   6.173 -1.4016  0.0759 -1.4697
  291MOL0     H39238   5.161   9.309   6.226  0.5250  0.7590 -0.2320
  291MOL0     H39239   4.931   9.268   6.253 -1.2491  2.1890 -0.8142
  291MOL0     H39240   4.934   9.342   6.083  0.4538 -1.8290 -3.3495
  291MOL0     H39241   4.937   9.053   6.120  0.4465 -0.2448  0.5333
  291MOL0     H39242   4.895   9.138   5.967  3.3514 -0.1363 -0.1304
  291MOL0     H39243   4.693   9.064   6.035  4.1547  0.3784 -2.5288
  291MOL0     H39244   4.703   9.233   6.093  1.8985  0.5466  0.8273
  291MOL0     H39245   4.687   9.091   6.487  0.5985  1.0699 -0.5906
  291MOL0     H39246   4.466   9.172   6.598  1.7539 -0.1028  0.2379
  291MOL0     H39247   3.977   9.412   6.290  1.4461 -2.3306 -0.8090
  291MOL0     H39248   3.745   9.471   6.356  1.9332  2.1118 -0.0814
  291MOL0     H39249   3.532   9.215   6.629 -0.7548 -0.0266 -1.4230
  291MOL0     H39250   3.572   9.359   6.735  0.9237 -0.9003 -0.3924
  291MOL0     H39251   3.336   9.348   6.540  0.8146 -0.0927  0.1528
  291MOL0     H39252   3.326   9.316   6.719  0.4541  0.7028  0.8424
  291MOL0     H39253   3.391   9.542   6.767 -1.6058 -0.0268  1.1223
  291MOL0     H39254   3.432   9.569   6.600 -0.3680 -0.9908 -0.5883
  291MOL0     H39255   3.152   9.524   6.723 -2.3262  4.9582  0.7042
  291MOL0     H39256   3.174   9.554   6.548 -0.3879  4.1372 -1.4640
  291MOL0     H39257   3.220   9.727   6.798 -1.2001  1.3237  0.3656
  291MOL0     H39258   3.096   9.737   6.685 -0.5288 -1.3112  2.7189
  291MOL0     H39259   3.282   9.909   6.652 -1.9438 -1.3805  2.3394
  291MOL0     H39260   3.401   9.792   6.622  0.6071  1.1363  0.0212
  291MOL0     H39261   3.163   9.840   6.452 -0.4163 -1.5307  0.7838
  291MOL0     H39262   3.285   9.711   6.423  0.0184  0.1194 -1.9331
  291MOL0     H39263   3.318   9.948   6.292  1.2748  2.7716 -0.4565
  291MOL0     H39264   3.330  10.011   6.444 -2.4440 -0.6160  0.5612
  291MOL0     H39265   3.766   9.209   6.688  0.1838 -0.6307 -0.8509
  291MOL0     H39266   3.978   9.143   6.635  1.2821 -0.7028 -2.4901
  291MOL0     H39267   4.283   9.182   6.236  0.3957 -1.3761 -1.5025
  291MOL0     H39268   4.470   9.114   6.116  1.5524  3.2284 -0.8462
  291MOL0     H39269   4.534   9.262   5.178  1.3667  2.7172  2.1150
  291MOL0     H39270   4.309   9.325   5.133  0.8810 -0.3610 -0.2513
  291MOL0     H39271   3.911   9.207   4.980 -0.3770 -3.4394 -3.5274
  291MOL0     H39272   3.692   9.207   4.885  1.4656  0.5350  1.3226
  291MOL0     H39273   3.502   9.217   4.800  4.1663 -2.6351  1.1229
  291MOL0     H39274   3.578   9.137   4.665  0.1816  0.1371  0.4494
  291MOL0     H39275   3.419   9.245   4.499 -3.9790  1.2697 -0.6437
  291MOL0     H39276   3.345   9.333   4.632  0.8678  0.8696 -0.2648
  291MOL0     H39277   3.240   9.128   4.724 -0.5293 -0.6424 -0.2391
  291MOL0     H39278   3.369   9.032   4.646 -1.9288 -0.5183  0.2452
  291MOL0     H39279   3.257   9.124   4.419 -2.2439  2.8608  1.1038
  291MOL0     H39280   3.231   8.970   4.493 -0.2246 -0.7057 -0.6075
  291MOL0     H39281   2.861   9.184   4.546  0.2480 -1.5178 -0.2437
  291MOL0     H39282   3.807   9.500   4.597  3.4815  2.5548  0.3258
  291MOL0     H39283   4.062   9.627   4.737 -3.9674  2.4023 -1.5474
  291MOL0     H39284   4.155   9.502   4.646 -0.6303  0.2641 -0.6940
  291MOL0     H39285   4.016   9.575   4.573  1.5759 -1.7004 -0.7920
  292MOL0     O39286   3.240   1.306  10.868 -0.0069 -0.5841 -0.3307
  292MOL0     C39287   3.251   1.234  10.767 -0.6967 -0.2375 -0.0170
  292MOL0     O39288   3.318   1.114  10.749 -0.1253  0.6852 -1.0412
  292MOL0     C39289   3.379   1.067  10.866  0.5303  0.1641  0.5498
  292MOL0     C39290   3.302   1.030  10.980 -0.8929  1.0590 -0.5839
  292MOL0     C39291   3.353   0.976  11.093 -0.6074  1.0089 -0.0203
  292MOL0     C39292   3.491   0.982  11.103 -0.2781 -0.8379 -0.0987
  292MOL0     O39293   3.557   0.943  11.212  0.2297  0.2904  0.2850
  292MOL0     C39294   3.556   1.043  11.320 -0.3578 -0.4626 -0.0618
  292MOL0     C39295   3.605   1.184  11.268 -0.4948  0.1819  0.6161
  292MOL0     C39296   3.750   1.189  11.222  0.4806  0.0511  0.6824
  292MOL0     C39297   3.777   1.312  11.137  0.7423 -0.5560 -0.4512
  292MOL0     C39298   3.891   1.296  11.048 -0.0681  0.4119  0.6476
  292MOL0     C39299   4.013   1.289  11.134  0.6601 -0.1347 -0.1238
  292MOL0     C39300   4.149   1.334  11.068 -0.2894 -0.2807  0.4833
  292MOL0     C39301   4.270   1.329  11.163  0.0979  1.0645  0.3848
  292MOL0     N39302   4.362   1.436  11.118  0.5482  0.2885 -0.0651
  292MOL0     C39303   4.473   1.412  11.035 -0.6610 -0.1359 -0.4697
  292MOL0     C39304   4.543   1.524  11.031 -0.4599 -0.0642  0.7375
  292MOL0     C39305   4.672   1.544  10.961 -0.3090 -0.1573 -0.3049
  292MOL0     C39306   4.784   1.521  11.063  0.2645 -0.2585 -0.6693
  292MOL0     C39307   4.915   1.473  11.005 -0.2345  1.0617  0.1505
  292MOL0     C39308   4.972   1.550  10.887  0.7176 -0.0370  0.4664
  292MOL0     O39309   5.040   1.461  10.790 -0.0526  0.4082 -0.4874
  292MOL0     C39310   5.162   1.409  10.815  1.2722 -0.0343 -0.3550
  292MOL0     C39311   5.251   1.457  10.911  0.1760  0.0871 -0.1650
  292MOL0     C39312   5.367   1.392  10.930  0.4356  0.1469 -0.2284
  292MOL0     C39313   5.421   1.301  10.835  0.8783  0.6234  0.6212
  292MOL0     C39314   5.556   1.243  10.842  0.6845 -0.4520 -0.7373
  292MOL0     O39315   5.601   1.138  10.756  0.4980 -0.4867  0.6767
  292MOL0     C39316   5.724   1.083  10.779 -0.6857  0.3504  0.2612
  292MOL0     C39317   5.820   1.103  10.677 -0.9106 -0.0575 -0.9344
  292MOL0     C39318   5.950   1.060  10.686  1.1381 -0.4254 -0.3502
  292MOL0     C39319   5.986   0.990  10.801 -0.2222  0.1800  0.1325
  292MOL0     O39320   6.105   0.932  10.801 -0.7692  0.6269  0.4096
  292MOL0     C39321   6.197   0.977  10.901  0.6436  0.3418  0.3933
  292MOL0     C39322   6.336   0.954  10.842 -0.1504 -0.0899 -0.2084
  292MOL0     C39323   6.364   1.023  10.712  1.0973  0.1416  0.3280
  292MOL0     C39324   6.441   0.940  10.616 -0.3547 -0.2571  0.0492
  292MOL0     C39325   6.397   0.992  10.473  1.6327  0.4817  0.3103
  292MOL0     C39326   6.429   1.138  10.444 -0.2643  0.3840 -0.0594
  292MOL0     C39327   6.408   1.186  10.298 -0.7545  0.1926  0.1084
  292MOL0     C39328   6.340   1.325  10.280  0.6838  0.3603 -0.6345
  292MOL0    Cl39329   6.173   1.320  10.336  0.2818  0.1720  0.4100
  292MOL0     C39330   5.890   0.969  10.903 -0.0704 -0.9386  0.0850
  292MOL0     C39331   5.762   1.015  10.890  0.0799 -0.7679 -0.7442
  292MOL0     O39332   5.629   1.306  10.917  0.3866 -0.6546 -0.2219
  292MOL0     C39333   5.336   1.265  10.722 -0.2919  0.3075 -0.2858
  292MOL0     C39334   5.211   1.322  10.718 -0.5172  0.3038  0.0104
  292MOL0     N39335   4.473   1.614  11.112  0.6250  0.3087 -0.1639
  292MOL0     N39336   4.358   1.562  11.150 -0.0606 -0.8740 -0.8889
  292MOL0     C39337   3.569   1.013  10.992 -0.8887  0.3473 -0.4634
  292MOL0     C39338   3.516   1.051  10.869 -0.4594  0.4461 -0.0356
  292MOL0     C39339   3.164   1.275  10.650  1.7349 -0.2804 -0.4385
  292MOL0     C39340   3.124   1.178  10.551  0.4612  0.3070  0.0402
  292MOL0     C39341   3.038   1.200  10.445  0.6021  0.6134  0.0615
  292MOL0     C39342   2.989   1.328  10.429  0.2262  0.4356 -0.4270
  292MOL0     O39343   2.903   1.350  10.331  0.3413  0.9215  0.0686
  292MOL0     C39344   2.810   1.458  10.326 -0.6893 -0.3914  0.5219
  292MOL0     C39345   2.749   1.460  10.184 -0.2996 -0.3421  0.6010
  292MOL0     C39346   2.617   1.380  10.180  0.4950 -0.3711  0.0505
  292MOL0     C39347   2.565   1.337  10.036  0.3964  0.0341 -1.2450
  292MOL0     C39348   2.432   1.260  10.063 -0.1900 -0.7681  0.4153
  292MOL0     C39349   2.324   1.208  10.082  0.2279  0.5493  0.2801
  292MOL0     C39350   3.031   1.429  10.513 -0.1501 -1.0499  0.4200
  292MOL0     C39351   3.111   1.408  10.622 -0.0245 -0.6381 -0.7213
  292MOL0     C39352   3.142   1.533  10.695 -0.4042 -0.6337  0.7894
  292MOL0     H39353   3.193   1.033  10.980 -1.1748 -3.0730  1.3263
  292MOL0     H39354   3.295   0.955  11.182 -0.9235  2.2199  0.0658
  292MOL0     H39355   3.459   1.050  11.369 -1.3110  0.8567 -2.0165
  292MOL0     H39356   3.626   0.997  11.390  0.0829 -0.3762 -0.4403
  292MOL0     H39357   3.602   1.250  11.355  0.0911 -1.2168  1.7470
  292MOL0     H39358   3.527   1.217  11.199 -0.5648  1.1734  1.1587
  292MOL0     H39359   3.776   1.095  11.172  0.2943 -0.9457  2.3763
  292MOL0     H39360   3.811   1.195  11.313 -0.7826 -0.6458  1.6057
  292MOL0     H39361   3.687   1.338  11.081 -0.1377 -1.7541  0.3591
  292MOL0     H39362   3.798   1.391  11.210  1.2554 -1.2679  0.1804
  292MOL0     H39363   3.884   1.209  10.983 -0.0663  1.3410 -0.6302
  292MOL0     H39364   3.887   1.381  10.980  1.3099 -0.7709 -0.9954
  292MOL0     H39365   3.993   1.354  11.220 -2.8776 -2.3718  0.9823
  292MOL0     H39366   4.019   1.183  11.159 -1.5162 -0.6978 -1.7069
  292MOL0     H39367   4.136   1.434  11.025  2.2347 -0.6662 -1.3924
  292MOL0     H39368   4.183   1.269  10.987  2.6877 -0.4250  1.7197
  292MOL0     H39369   4.239   1.361  11.263  1.4227  0.7615  0.9121
  292MOL0     H39370   4.329   1.238  11.164 -2.4366 -0.6790  1.0870
  292MOL0     H39371   4.512   1.316  11.003 -1.6935 -1.3688  1.6881
  292MOL0     H39372   4.688   1.476  10.877  0.7698 -2.0692  1.3488
  292MOL0     H39373   4.677   1.637  10.904 -0.2782 -0.8035 -1.3799
  292MOL0     H39374   4.800   1.608  11.128 -1.8596 -0.7277  0.5552
  292MOL0     H39375   4.762   1.440  11.132 -1.3188  1.2822  0.7089
  292MOL0     H39376   4.902   1.367  10.983  1.1810  0.9103 -0.0491
  292MOL0     H39377   5.001   1.475  11.073  0.5304  1.3402 -0.7944
  292MOL0     H39378   5.045   1.625  10.918  1.8594 -0.5964 -0.7458
  292MOL0     H39379   4.898   1.599  10.824  1.8712 -1.0374 -1.7995
  292MOL0     H39380   5.220   1.529  10.985 -0.2853  0.4975 -0.7434
  292MOL0     H39381   5.422   1.424  11.018 -1.3072 -0.2439  1.0335
  292MOL0     H39382   5.803   1.169  10.593  1.2140  1.1823 -0.4544
  292MOL0     H39383   6.026   1.076  10.609  1.7350  0.9922  0.4878
  292MOL0     H39384   6.172   1.078  10.933 -0.3509 -0.2201  1.4541
  292MOL0     H39385   6.190   0.906  10.984  2.0346  1.3142  1.3817
  292MOL0     H39386   6.403   0.989  10.922 -0.9467  0.5360  0.2014
  292MOL0     H39387   6.365   0.848  10.834 -0.4791 -0.3191  1.3144
  292MOL0     H39388   6.271   1.054  10.663  0.4120  0.2761  1.6611
  292MOL0     H39389   6.414   1.117  10.737  1.1321 -0.2220  1.7352
  292MOL0     H39390   6.411   0.835  10.619 -1.3667  0.0369  2.3284
  292MOL0     H39391   6.549   0.957  10.619 -0.7334  2.6424  0.9070
  292MOL0     H39392   6.291   0.981  10.448  1.6137  4.3235 -2.0894
  292MOL0     H39393   6.460   0.930  10.409 -1.5958 -2.5714 -0.2465
  292MOL0     H39394   6.356   1.190  10.507 -2.2885 -0.4913 -1.5863
  292MOL0     H39395   6.532   1.150  10.481  1.1264 -3.5919 -2.0815
  292MOL0     H39396   6.375   1.101  10.237  0.6011 -0.4227  0.1937
  292MOL0     H39397   6.511   1.203  10.265 -1.3286  0.9657 -1.3444
  292MOL0     H39398   6.391   1.403  10.338 -0.0157  1.3320 -1.3102
  292MOL0     H39399   6.338   1.345  10.172  1.1462 -0.1829 -0.7505
  292MOL0     H39400   5.928   0.917  10.991  2.1863 -2.1906 -1.5014
  292MOL0     H39401   5.693   0.999  10.972  2.2281  0.9795  1.5455
  292MOL0     H39402   5.368   1.192  10.649  1.7825  0.4573  0.3969
  292MOL0     H39403   5.143   1.287  10.641 -0.1470 -1.8082  0.5800
  292MOL0     H39404   3.676   1.025  10.994 -0.3759 -3.3581 -0.4591
  292MOL0     H39405   3.579   1.064  10.782  1.6229  4.9929  1.8049
  292MOL0     H39406   3.153   1.073  10.548 -0.9068 -0.0947  0.2690
  292MOL0     H39407   3.024   1.124  10.369 -1.2534  0.1879  0.7742
  292MOL0     H39408   2.867   1.551  10.316  0.8439 -1.2541  0.8023
  292MOL0     H39409   2.738   1.456  10.408 -0.3171 -2.9824  0.8792
  292MOL0     H39410   2.817   1.431  10.103  2.0833  0.2284  2.2889
  292MOL0     H39411   2.713   1.562  10.168 -0.4864 -0.6557 -1.2395
  292MOL0     H39412   2.538   1.436  10.231  1.0971 -0.8618  1.5728
  292MOL0     H39413   2.615   1.293  10.246  0.0231 -0.1374  0.3456
  292MOL0     H39414   2.542   1.426   9.978 -1.4582 -0.4332 -1.2751
  292MOL0     H39415   2.636   1.272   9.984 -1.0964 -1.6617 -1.2773
  292MOL0     H39416   2.236   1.163  10.125 -0.1220  0.9461 -0.0186
  292MOL0     H39417   2.991   1.529  10.498  2.1277  0.0995  1.5256
  292MOL0     H39418   3.096   1.621  10.648 -3.8846 -2.5735  0.2831
  292MOL0     H39419   3.091   1.537  10.791 -2.1980  4.0904 -0.0993
  292MOL0     H39420   3.250   1.550  10.707 -0.5904  3.7849 -1.6513
  293MOL0     O39421   3.038   6.054   3.245 -0.0992 -0.1822  0.2524
  293MOL0     C39422   3.153   6.028   3.213 -0.2098  0.2633  0.8933
  293MOL0     O39423   3.209   6.031   3.086 -0.6885  0.2694 -0.7497
  293MOL0     C39424   3.134   6.093   2.996  0.3143 -0.0639  0.3040
  293MOL0     C39425   3.083   6.018   2.882  0.2821  0.2242 -0.8124
  293MOL0     C39426   2.999   6.085   2.789  0.0656  0.1691 -0.4117
  293MOL0     C39427   2.960   6.221   2.812 -0.4266  0.1261 -0.1450
  293MOL0     O39428   2.884   6.288   2.728 -0.1990 -0.6407  0.6164
  293MOL0     C39429   2.806   6.220   2.627  0.8321 -0.6757  0.7853
  293MOL0     C39430   2.703   6.315   2.564  0.2554 -1.0911 -0.0720
  293MOL0     C39431   2.561   6.312   2.623 -0.1086 -0.1396 -0.1945
  293MOL0     C39432   2.572   6.320   2.776 -0.3541 -0.5089  1.0797
  293MOL0     C39433   2.439   6.342   2.851 -0.4702 -0.8786  0.4579
  293MOL0     C39434   2.467   6.379   2.999  0.0585 -0.2427  0.2453
  293MOL0     C39435   2.508   6.262   3.092 -0.5248 -0.5102  0.4579
  293MOL0     C39436   2.492   6.301   3.234  0.1573  0.0164 -0.6477
  293MOL0     N39437   2.601   6.381   3.291 -0.2656 -0.7050 -0.3999
  293MOL0     C39438   2.734   6.356   3.276  0.7429 -0.0767  0.7145
  293MOL0     C39439   2.793   6.472   3.313 -0.8786  0.0375  0.5253
  293MOL0     C39440   2.943   6.487   3.302 -0.4004  0.6342  0.5748
  293MOL0     C39441   3.018   6.555   3.428 -0.4390 -0.2454  0.3957
  293MOL0     C39442   3.027   6.465   3.545 -0.2005 -0.2411  0.0990
  293MOL0     C39443   3.091   6.557   3.656 -0.4485  0.9300  0.5211
  293MOL0     O39444   3.058   6.508   3.788  0.4064  0.1081 -0.2023
  293MOL0     C39445   3.154   6.529   3.885  0.1353  1.0517 -0.2335
  293MOL0     C39446   3.258   6.442   3.880 -1.1953  0.1369  0.0913
  293MOL0     C39447   3.366   6.462   3.975 -0.0370 -0.3364  0.5044
  293MOL0     C39448   3.355   6.557   4.086  1.2270  0.3269  0.3431
  293MOL0     C39449   3.453   6.579   4.200 -0.3799  0.6609  0.1200
  293MOL0     O39450   3.438   6.664   4.304 -0.1297  0.0015 -0.5004
  293MOL0     C39451   3.519   6.684   4.408 -0.5708  0.4934  0.1156
  293MOL0     C39452   3.465   6.746   4.516 -0.5878  0.8208 -0.5864
  293MOL0     C39453   3.541   6.777   4.628  0.4469  0.0679 -0.3737
  293MOL0     C39454   3.682   6.767   4.630  0.5005  0.7835 -0.2022
  293MOL0     O39455   3.743   6.802   4.740  0.3623 -0.3526 -0.7963
  293MOL0     C39456   3.881   6.773   4.748 -0.0225  0.0683  0.3046
  293MOL0     C39457   3.938   6.822   4.888  0.8027 -0.5833  0.0576
  293MOL0     C39458   4.069   6.763   4.932  0.4600 -0.3308 -0.7396
  293MOL0     C39459   4.182   6.784   4.830 -0.7604  0.6834 -0.3748
  293MOL0     C39460   4.320   6.757   4.897 -0.0141 -0.0157  0.2836
  293MOL0     C39461   4.430   6.753   4.791 -0.0003  0.2199  0.4812
  293MOL0     C39462   4.419   6.625   4.711 -0.2078  0.7641  0.4205
  293MOL0     C39463   4.502   6.636   4.582 -0.6206  0.1942 -0.9033
  293MOL0    Cl39464   4.672   6.615   4.607  0.2377  0.1783  0.4156
  293MOL0     C39465   3.744   6.719   4.513  0.0813  0.1992  0.5118
  293MOL0     C39466   3.664   6.671   4.408  0.1166 -1.0625 -0.3050
  293MOL0     O39467   3.555   6.516   4.176  0.4698  0.6379  0.4670
  293MOL0     C39468   3.229   6.633   4.088  0.2625 -0.7163 -0.1904
  293MOL0     C39469   3.140   6.625   3.982 -1.1297  0.1682  0.1456
  293MOL0     N39470   2.702   6.561   3.368  0.0548 -0.2560  0.8927
  293MOL0     N39471   2.587   6.505   3.338  0.1807  0.0368  0.0098
  293MOL0     C39472   3.015   6.290   2.925  0.5716  0.0827 -1.0308
  293MOL0     C39473   3.105   6.232   3.013  0.6978  0.3768 -0.1844
  293MOL0     C39474   3.247   5.979   3.317 -0.2750  0.4724  0.1098
  293MOL0     C39475   3.364   5.908   3.281 -0.4724 -0.3332  0.1729
  293MOL0     C39476   3.441   5.851   3.382  0.5458  0.3091  0.2104
  293MOL0     C39477   3.414   5.859   3.524  0.8345 -0.0592  0.6701
  293MOL0     O39478   3.487   5.786   3.619  0.3809  0.7239 -0.2273
  293MOL0     C39479   3.421   5.728   3.731  0.1785 -0.2732  0.5429
  293MOL0     C39480   3.508   5.606   3.777 -0.1099 -0.1114  0.9957
  293MOL0     C39481   3.639   5.643   3.852  0.5274  1.1233 -0.2043
  293MOL0     C39482   3.723   5.517   3.842 -0.2317  0.2325  1.0965
  293MOL0     C39483   3.671   5.404   3.917 -0.7466  0.4494  0.8038
  293MOL0     C39484   3.593   5.328   3.970  0.6484 -0.0260  0.3992
  293MOL0     C39485   3.299   5.922   3.553  0.3866 -0.0821 -1.0576
  293MOL0     C39486   3.225   5.995   3.459  0.7819  0.0303  0.5931
  293MOL0     C39487   3.114   6.087   3.521 -0.9359 -0.1718 -0.2603
  293MOL0     H39488   3.103   5.912   2.870  2.0897 -0.2131  3.9573
  293MOL0     H39489   2.971   6.034   2.697 -0.3741  0.7298 -0.5910
  293MOL0     H39490   2.887   6.184   2.562 -0.0275 -1.3383  0.0628
  293MOL0     H39491   2.754   6.137   2.676 -3.1670  1.8934  1.3273
  293MOL0     H39492   2.695   6.287   2.458  3.0436 -3.0035  0.0840
  293MOL0     H39493   2.746   6.415   2.559  3.6778 -2.4584 -0.7566
  293MOL0     H39494   2.505   6.226   2.584 -1.9098  1.0362 -0.3114
  293MOL0     H39495   2.497   6.391   2.583 -0.9464 -1.3091 -1.2777
  293MOL0     H39496   2.614   6.230   2.822  0.9253  0.4888  1.9031
  293MOL0     H39497   2.651   6.390   2.806  0.5691 -1.3800  0.7350
  293MOL0     H39498   2.384   6.423   2.800  1.1693 -1.0382 -1.7039
  293MOL0     H39499   2.376   6.253   2.841  1.0022 -1.7712 -1.6885
  293MOL0     H39500   2.540   6.460   3.007  1.0232 -1.1520  0.8061
  293MOL0     H39501   2.371   6.409   3.042  0.9782 -0.0340  2.2415
  293MOL0     H39502   2.609   6.226   3.069 -0.3795  0.1251  0.0519
  293MOL0     H39503   2.436   6.180   3.084 -3.7117  1.7651  3.1830
  293MOL0     H39504   2.397   6.351   3.255 -1.3383 -2.3737 -1.3717
  293MOL0     H39505   2.491   6.209   3.293 -0.7436  0.6628  0.3842
  293MOL0     H39506   2.776   6.271   3.222  1.5966 -1.5202  3.4595
  293MOL0     H39507   2.994   6.392   3.288 -1.0294  0.0463  2.1250
  293MOL0     H39508   2.972   6.549   3.216  3.7349  0.7106  1.8281
  293MOL0     H39509   3.120   6.557   3.390 -0.9302 -0.6261 -1.0143
  293MOL0     H39510   2.983   6.656   3.450  0.0575  0.4907 -1.9411
  293MOL0     H39511   3.090   6.377   3.528 -1.9516 -1.0377 -2.9573
  293MOL0     H39512   2.926   6.435   3.574 -0.3385 -0.7932 -0.9165
  293MOL0     H39513   3.037   6.652   3.651 -2.1830 -0.1048 -2.8420
  293MOL0     H39514   3.199   6.572   3.649  0.0056 -0.3893  3.2104
  293MOL0     H39515   3.265   6.365   3.804 -0.0758 -0.1944  0.5117
  293MOL0     H39516   3.458   6.406   3.961  0.1321 -0.1562  0.8835
  293MOL0     H39517   3.361   6.772   4.532 -0.3975  1.9474 -1.0298
  293MOL0     H39518   3.479   6.808   4.712 -0.2464 -0.9431 -0.4828
  293MOL0     H39519   3.887   6.664   4.738  2.3432  0.3590 -3.2707
  293MOL0     H39520   3.928   6.824   4.664 -0.2200 -0.2656 -0.0133
  293MOL0     H39521   3.959   6.929   4.898  0.6265 -0.6461  1.2307
  293MOL0     H39522   3.857   6.798   4.956 -1.5579  0.0176 -2.3569
  293MOL0     H39523   4.091   6.809   5.029 -1.3787  1.8484 -1.2682
  293MOL0     H39524   4.050   6.656   4.943  2.1189 -0.7785 -1.8295
  293MOL0     H39525   4.180   6.888   4.796 -1.9478 -0.5621 -4.7710
  293MOL0     H39526   4.161   6.724   4.741  1.6069 -3.0950  1.3467
  293MOL0     H39527   4.321   6.664   4.955 -2.9647 -0.0585  0.4170
  293MOL0     H39528   4.346   6.843   4.959 -1.2235 -0.3761  1.3384
  293MOL0     H39529   4.416   6.841   4.729 -0.0402 -1.0568 -1.4093
  293MOL0     H39530   4.530   6.757   4.836 -0.2595 -2.7026  1.5590
  293MOL0     H39531   4.316   6.610   4.676 -1.0035 -0.0924  2.9252
  293MOL0     H39532   4.444   6.539   4.772 -0.8606 -2.7994 -3.7898
  293MOL0     H39533   4.469   6.553   4.518 -2.0288  0.0248  0.0098
  293MOL0     H39534   4.474   6.738   4.555 -1.5957  0.9528  2.5345
  293MOL0     H39535   3.852   6.725   4.499  0.0055  1.8052  0.4324
  293MOL0     H39536   3.699   6.648   4.308 -0.5772 -0.8666 -0.5992
  293MOL0     H39537   3.219   6.708   4.166 -0.9626 -0.6345 -0.4023
  293MOL0     H39538   3.051   6.687   3.985 -3.5659 -3.1249  1.0392
  293MOL0     H39539   3.008   6.396   2.945  1.3357 -0.2217  1.2207
  293MOL0     H39540   3.146   6.302   3.085 -1.8920  0.0634  1.7195
  293MOL0     H39541   3.400   5.889   3.180 -2.2500  0.9970 -0.7578
  293MOL0     H39542   3.528   5.798   3.344 -1.0353 -1.2385 -1.4036
  293MOL0     H39543   3.319   5.694   3.711 -0.4495  1.0764  1.2822
  293MOL0     H39544   3.420   5.802   3.812  2.5056  0.2683  0.1338
  293MOL0     H39545   3.550   5.566   3.684  3.9757  1.7219  1.8249
  293MOL0     H39546   3.449   5.532   3.832  0.5441 -0.9630  0.5712
  293MOL0     H39547   3.618   5.668   3.956 -2.8444 -4.2283  0.7759
  293MOL0     H39548   3.694   5.725   3.805  2.7539 -0.0590  0.1823
  293MOL0     H39549   3.740   5.486   3.739 -1.1293 -0.9398  1.2850
  293MOL0     H39550   3.827   5.535   3.871  0.0183  1.9294 -0.6784
  293MOL0     H39551   3.529   5.250   4.007  0.9559  0.9706  3.3439
  293MOL0     H39552   3.261   5.923   3.654  0.8554  2.1159 -0.8453
  293MOL0     H39553   3.013   6.051   3.500 -1.6439  2.3284 -1.5560
  293MOL0     H39554   3.129   6.101   3.628 -4.0062 -0.9430  0.3508
  293MOL0     H39555   3.121   6.183   3.469  1.3641 -0.0301  0.1909
  294MOL0     O39556   8.020   2.606   2.429  0.9030  0.0973 -0.8389
  294MOL0     C39557   8.094   2.517   2.392 -0.2334 -0.5608  0.1262
  294MOL0     O39558   8.061   2.384   2.392 -0.5601 -0.3181 -0.0127
  294MOL0     C39559   7.955   2.340   2.465  0.2816 -0.6880 -0.5068
  294MOL0     C39560   7.929   2.396   2.594 -0.1477  0.6135 -0.3670
  294MOL0     C39561   7.831   2.331   2.668 -0.0521 -0.4617 -0.0251
  294MOL0     C39562   7.774   2.214   2.634  0.4389  0.1599  0.6664
  294MOL0     O39563   7.673   2.172   2.721 -0.2174  0.2185 -0.0094
  294MOL0     C39564   7.593   2.054   2.689 -0.1335 -0.4929 -0.5510
  294MOL0     C39565   7.585   1.938   2.793 -0.0953 -0.6534 -0.0116
  294MOL0     C39566   7.589   1.985   2.936 -0.2327 -0.6491 -0.2211
  294MOL0     C39567   7.567   1.877   3.042  0.4859  0.7244  0.2675
  294MOL0     C39568   7.434   1.803   3.009  0.2409  1.0172 -0.7814
  294MOL0     C39569   7.393   1.738   3.138 -0.0314  0.4774  0.3595
  294MOL0     C39570   7.270   1.647   3.115 -0.5093  0.7467 -0.1524
  294MOL0     C39571   7.141   1.718   3.066 -0.7401 -0.1285 -0.4351
  294MOL0     N39572   7.018   1.634   3.068 -0.2450 -0.0792 -1.3668
  294MOL0     C39573   6.896   1.676   3.033  0.4359  0.4239  0.3713
  294MOL0     C39574   6.814   1.579   3.049  0.2549  0.0584  1.4093
  294MOL0     C39575   6.659   1.583   3.012 -0.1756  0.2891 -0.5425
  294MOL0     C39576   6.575   1.610   3.139 -0.5599  1.1165 -0.0012
  294MOL0     C39577   6.425   1.615   3.114  0.1160 -0.2548  0.1392
  294MOL0     C39578   6.355   1.684   3.234 -0.2469 -0.8097  0.5946
  294MOL0     O39579   6.371   1.590   3.344  0.7246  0.1764 -0.2066
  294MOL0     C39580   6.353   1.624   3.476 -0.2820 -0.3778  0.5188
  294MOL0     C39581   6.365   1.515   3.562 -0.9519 -0.1662 -0.8998
  294MOL0     C39582   6.345   1.538   3.700  0.1459 -0.2511 -0.7828
  294MOL0     C39583   6.302   1.662   3.749  0.3169 -0.4639 -0.2695
  294MOL0     C39584   6.282   1.677   3.892  1.1075 -0.0969  0.3127
  294MOL0     O39585   6.268   1.806   3.935  0.0707 -0.2148  0.1394
  294MOL0     C39586   6.266   1.839   4.066 -0.6164  0.5877 -0.3024
  294MOL0     C39587   6.340   1.774   4.167  0.1053  0.4710 -0.1224
  294MOL0     C39588   6.324   1.814   4.295 -0.1119 -0.1304 -0.6056
  294MOL0     C39589   6.230   1.921   4.326 -0.1412 -0.5207 -0.5773
  294MOL0     O39590   6.182   1.947   4.446  0.2724 -0.6693  0.3841
  294MOL0     C39591   6.271   2.012   4.538 -0.9531 -0.6016  0.6766
  294MOL0     C39592   6.192   2.113   4.618  0.3520  0.1510 -0.3611
  294MOL0     C39593   6.098   2.059   4.733  0.2669  0.2917 -0.1403
  294MOL0     C39594   6.037   2.173   4.821  0.8413  0.3064  0.6281
  294MOL0     C39595   6.150   2.233   4.907 -0.1775 -0.8590 -0.7077
  294MOL0     C39596   6.093   2.346   4.999  0.0184 -0.4199 -1.3483
  294MOL0     C39597   6.200   2.378   5.110 -0.5461  0.1174 -0.7261
  294MOL0     C39598   6.239   2.529   5.110 -0.7114 -0.6799 -0.1719
  294MOL0    Cl39599   6.386   2.562   5.206 -0.3642 -0.1179 -0.2582
  294MOL0     C39600   6.161   1.987   4.222  0.6376  0.8699 -0.0827
  294MOL0     C39601   6.180   1.948   4.090  0.3332  0.4655 -0.5956
  294MOL0     O39602   6.265   1.578   3.965  0.1188  0.8554 -0.1511
  294MOL0     C39603   6.282   1.774   3.655  0.2080  0.2316 -0.0584
  294MOL0     C39604   6.306   1.750   3.518 -0.5225 -0.0667  1.1489
  294MOL0     N39605   6.881   1.467   3.084 -0.5401  0.9087 -0.4607
  294MOL0     N39606   7.009   1.498   3.097  0.0738  0.4688  0.0502
  294MOL0     C39607   7.800   2.152   2.506 -0.1416 -1.2491  0.2382
  294MOL0     C39608   7.890   2.224   2.410  0.0561 -0.6095 -0.6242
  294MOL0     C39609   8.224   2.544   2.329 -0.4846  0.5680  0.0098
  294MOL0     C39610   8.227   2.626   2.211  0.1890  0.5138  0.1850
  294MOL0     C39611   8.345   2.647   2.154  0.0466 -0.1393 -0.1551
  294MOL0     C39612   8.469   2.590   2.192  0.3644  0.0211  0.1964
  294MOL0     O39613   8.576   2.628   2.108 -0.4727 -0.2417  0.1120
  294MOL0     C39614   8.700   2.564   2.140 -0.1431 -0.4491 -0.6698
  294MOL0     C39615   8.711   2.404   2.120 -0.4030  0.3227  0.4435
  294MOL0     C39616   8.829   2.353   2.199 -0.3181  0.1461 -0.1770
  294MOL0     C39617   8.842   2.195   2.222  0.0173 -0.4189  0.0623
  294MOL0     C39618   8.970   2.160   2.271 -0.1226 -0.5476 -0.1905
  294MOL0     C39619   9.068   2.124   2.321 -0.3556 -0.0982 -0.0866
  294MOL0     C39620   8.460   2.504   2.308 -1.2313 -0.0430 -0.9596
  294MOL0     C39621   8.341   2.481   2.378 -0.5539 -0.6286 -0.2255
  294MOL0     C39622   8.353   2.401   2.505 -0.4788 -0.1403 -0.8717
  294MOL0     H39623   7.982   2.479   2.639 -1.1069  0.9931  0.0857
  294MOL0     H39624   7.824   2.367   2.770 -2.1374 -3.9750  1.2430
  294MOL0     H39625   7.494   2.100   2.690  0.2639  0.3949 -0.8277
  294MOL0     H39626   7.593   2.012   2.588 -0.3444 -0.7466 -0.4470
  294MOL0     H39627   7.673   1.883   2.757 -1.1353 -0.3318 -3.4581
  294MOL0     H39628   7.491   1.887   2.771 -0.7980 -0.1593  1.6772
  294MOL0     H39629   7.507   2.057   2.940 -1.9525 -2.3326 -2.2449
  294MOL0     H39630   7.684   2.033   2.958 -0.4524 -0.1860 -0.2778
  294MOL0     H39631   7.659   1.820   3.058 -0.2167  0.4919  4.5252
  294MOL0     H39632   7.554   1.925   3.139 -1.9890 -2.3391  1.6316
  294MOL0     H39633   7.349   1.862   2.974 -0.1919  0.8493 -0.0401
  294MOL0     H39634   7.455   1.731   2.930 -0.5825 -0.0191 -0.0837
  294MOL0     H39635   7.477   1.684   3.183 -0.4137  0.1441  0.6819
  294MOL0     H39636   7.372   1.816   3.212  1.1000  0.9095  0.2558
  294MOL0     H39637   7.247   1.592   3.206 -0.0553 -2.1788 -1.6880
  294MOL0     H39638   7.300   1.570   3.044 -1.7337  0.1780 -0.0778
  294MOL0     H39639   7.128   1.784   3.153 -0.6195  0.8179 -1.1163
  294MOL0     H39640   7.155   1.762   2.967 -0.3297 -1.9950 -1.2344
  294MOL0     H39641   6.862   1.769   2.990 -2.7209 -1.6598 -2.1271
  294MOL0     H39642   6.633   1.654   2.933 -2.4321  2.3075  1.8323
  294MOL0     H39643   6.636   1.481   2.979 -0.0350  0.4172 -1.0402
  294MOL0     H39644   6.594   1.532   3.213  1.3769  2.4383  0.9837
  294MOL0     H39645   6.608   1.709   3.172 -0.2662  1.7712 -2.1445
  294MOL0     H39646   6.398   1.509   3.119 -2.1168  0.2393 -0.4843
  294MOL0     H39647   6.407   1.666   3.019 -2.5176 -2.8297 -0.8826
  294MOL0     H39648   6.251   1.701   3.205  0.1784  0.9445 -0.0503
  294MOL0     H39649   6.409   1.774   3.264 -0.3979 -0.2537 -0.7092
  294MOL0     H39650   6.372   1.412   3.530  2.5309 -0.1498 -0.5941
  294MOL0     H39651   6.388   1.462   3.765  3.2845  0.1849 -2.1562
  294MOL0     H39652   6.405   1.689   4.145 -0.2136 -0.4591  2.2368
  294MOL0     H39653   6.367   1.759   4.378 -2.4157 -1.7390 -0.4052
  294MOL0     H39654   6.329   1.943   4.600  1.7082 -0.7083 -1.7210
  294MOL0     H39655   6.343   2.066   4.476 -3.0702 -1.3723 -2.7509
  294MOL0     H39656   6.272   2.177   4.657  0.5993  0.6241 -1.6070
  294MOL0     H39657   6.131   2.166   4.545 -0.2747 -1.2715 -0.9111
  294MOL0     H39658   6.010   2.016   4.685  2.5199 -1.7561 -2.7618
  294MOL0     H39659   6.132   1.982   4.803 -2.2916 -1.5559 -0.7834
  294MOL0     H39660   5.958   2.133   4.885  0.7371  0.9350  0.8953
  294MOL0     H39661   5.985   2.246   4.758  0.8913 -0.8048 -0.7384
  294MOL0     H39662   6.233   2.276   4.849  0.5341  0.0339  0.9060
  294MOL0     H39663   6.199   2.161   4.973 -0.5226 -1.1770 -0.7976
  294MOL0     H39664   6.044   2.423   4.939 -0.1392  1.7328  1.3564
  294MOL0     H39665   6.018   2.287   5.053  0.1576 -1.4695 -2.2590
  294MOL0     H39666   6.290   2.319   5.093  0.0565  0.4016  1.1947
  294MOL0     H39667   6.178   2.341   5.211 -1.5737 -1.6032 -1.5476
  294MOL0     H39668   6.261   2.574   5.013  0.9373  0.9633  0.8936
  294MOL0     H39669   6.150   2.583   5.141 -1.1681 -2.2144  1.3106
  294MOL0     H39670   6.086   2.062   4.245  0.7194  1.4340 -1.5663
  294MOL0     H39671   6.120   1.972   4.002  0.6564  1.3383 -0.5844
  294MOL0     H39672   6.222   1.854   3.696  1.0833 -0.6767  3.3024
  294MOL0     H39673   6.273   1.823   3.446  1.3329 -0.3621 -0.0852
  294MOL0     H39674   7.761   2.055   2.477  0.1433 -0.5577 -2.8160
  294MOL0     H39675   7.910   2.193   2.308 -2.6085 -1.9088 -0.8395
  294MOL0     H39676   8.133   2.670   2.178 -1.0152 -0.9668  1.4174
  294MOL0     H39677   8.351   2.714   2.069 -2.3148 -1.1750 -1.2472
  294MOL0     H39678   8.719   2.590   2.245  0.2361  0.0227 -0.8520
  294MOL0     H39679   8.781   2.616   2.088  1.2183  0.2147  1.9127
  294MOL0     H39680   8.724   2.380   2.014  1.4754 -2.5297  1.2113
  294MOL0     H39681   8.621   2.354   2.155  1.6651 -1.9673  2.9774
  294MOL0     H39682   8.818   2.395   2.299 -2.2004 -0.6414 -0.0140
  294MOL0     H39683   8.911   2.389   2.136 -2.2232  1.6598 -1.9138
  294MOL0     H39684   8.768   2.162   2.296  0.0912  0.5125  0.5724
  294MOL0     H39685   8.819   2.146   2.128  1.2878  0.2982 -0.6526
  294MOL0     H39686   9.158   2.089   2.367  1.0924  3.2388 -0.0640
  294MOL0     H39687   8.551   2.453   2.338 -0.9687  1.3363  0.7649
  294MOL0     H39688   8.280   2.321   2.520 -2.2180  1.3560 -0.8079
  294MOL0     H39689   8.452   2.356   2.497  0.2606  0.9562  1.2959
  294MOL0     H39690   8.329   2.467   2.590 -3.8407 -2.5682  0.2848
  295MOL0     O39691   2.083   6.651   8.462 -0.9302  0.3498  0.4198
  295MOL0     C39692   2.127   6.737   8.535  1.0198  0.5016  0.2384
  295MOL0     O39693   2.105   6.737   8.673  0.5060  0.5256  0.0629
  295MOL0     C39694   1.998   6.669   8.733  1.0083 -0.7282  0.2044
  295MOL0     C39695   1.978   6.531   8.699  0.0561  0.6600  0.7118
  295MOL0     C39696   1.860   6.477   8.751 -0.1822  0.5863  0.5439
  295MOL0     C39697   1.770   6.536   8.842  0.1250 -0.5647  0.5275
  295MOL0     O39698   1.654   6.473   8.888  0.2290  0.9763  0.2301
  295MOL0     C39699   1.609   6.364   8.804 -0.2843 -0.4012  0.3120
  295MOL0     C39700   1.459   6.321   8.849 -0.4329  0.8845  0.4299
  295MOL0     C39701   1.359   6.419   8.822 -0.1976 -0.4175 -0.1045
  295MOL0     C39702   1.222   6.388   8.881 -0.2042 -0.1617 -0.4383
  295MOL0     C39703   1.126   6.505   8.858  0.1980 -0.3834 -0.1638
  295MOL0     C39704   0.982   6.463   8.891 -0.4808 -0.6969  0.6832
  295MOL0     C39705   0.879   6.563   8.851 -0.4949 -0.1562  0.0192
  295MOL0     C39706   0.866   6.570   8.690 -0.1696 -0.0970 -0.6906
  295MOL0     N39707   0.739   6.632   8.655  0.1435 -0.3768  0.0055
  295MOL0     C39708   0.701   6.757   8.713  0.6884  0.4002 -0.5349
  295MOL0     C39709   0.571   6.766   8.694  0.0270  0.6000 -1.0904
  295MOL0     C39710   0.467   6.860   8.757  0.3175  0.0689 -0.5909
  295MOL0     C39711   0.328   6.798   8.777  0.4584  1.2647 -0.1027
  295MOL0     C39712   0.232   6.869   8.867  0.2628  1.2829 -0.7632
  295MOL0     C39713   0.166   6.991   8.799 -0.1746  0.5279  0.6866
  295MOL0     O39714   0.161   7.092   8.903  0.0032  0.3252 -0.4909
  295MOL0     C39715   0.064   7.101   9.000  0.3807  0.3690 -0.3306
  295MOL0     C39716  -0.037   7.006   9.009  0.4808  0.5526 -0.4829
  295MOL0     C39717  -0.138   7.024   9.110 -0.1441 -0.0521  0.6268
  295MOL0     C39718  -0.138   7.134   9.191  0.4350  0.6148  0.1496
  295MOL0     C39719  -0.261   7.155   9.277 -1.4188  0.7813 -0.3888
  295MOL0     O39720  -0.357   7.054   9.282  0.4831  0.7865  0.2479
  295MOL0     C39721  -0.460   7.060   9.373 -0.4227 -0.5751 -0.8367
  295MOL0     C39722  -0.589   7.061   9.329  0.5952 -0.2035 -0.0514
  295MOL0     C39723  -0.694   7.090   9.413  1.0427  1.3223 -1.4471
  295MOL0     C39724  -0.679   7.110   9.556  0.9180 -0.3529 -0.3394
  295MOL0     O39725  -0.797   7.130   9.633 -0.3210  0.2188  0.5608
  295MOL0     C39726  -0.775   7.189   9.759  0.5182 -1.1724 -0.3424
  295MOL0     C39727  -0.918   7.229   9.824 -0.7526 -0.3314  0.2184
  295MOL0     C39728  -0.987   7.353   9.765  0.1740 -0.7064 -0.0683
  295MOL0     C39729  -1.139   7.355   9.786 -0.1409 -0.7053  0.3637
  295MOL0     C39730  -1.201   7.423   9.657  0.8909  0.1275  0.4589
  295MOL0     C39731  -1.215   7.311   9.541 -0.3027  0.2754 -0.2056
  295MOL0     C39732  -1.270   7.386   9.419 -0.3841  0.1107  0.0191
  295MOL0     C39733  -1.287   7.283   9.309  0.3469  0.0593  0.4569
  295MOL0    Cl39734  -1.127   7.208   9.269  0.0111 -0.1183 -0.1680
  295MOL0     C39735  -0.544   7.115   9.596  0.3126 -0.7368  0.6551
  295MOL0     C39736  -0.434   7.089   9.504 -0.0959  0.1973 -0.2586
  295MOL0     O39737  -0.263   7.257   9.345 -0.5287 -0.5630 -0.4404
  295MOL0     C39738  -0.041   7.234   9.164  0.4512 -0.2174 -0.7680
  295MOL0     C39739   0.055   7.221   9.070 -0.0823  0.4190  0.5624
  295MOL0     N39740   0.541   6.654   8.616  0.3383  0.5352 -0.4306
  295MOL0     N39741   0.639   6.575   8.590 -0.6165 -0.7187  0.2334
  295MOL0     C39742   1.811   6.660   8.884  1.0166  0.7681 -1.0837
  295MOL0     C39743   1.914   6.737   8.824  0.3740  0.4773 -0.3578
  295MOL0     C39744   2.233   6.827   8.487  0.0858  0.3373 -0.2968
  295MOL0     C39745   2.306   6.912   8.592 -0.3625  0.4588  1.0113
  295MOL0     C39746   2.402   7.003   8.558  0.1308 -0.8656  0.0671
  295MOL0     C39747   2.444   7.009   8.427  0.7580  0.5526  0.9625
  295MOL0     O39748   2.550   7.096   8.401 -0.4520 -0.4586 -0.5231
  295MOL0     C39749   2.577   7.165   8.273  0.0234 -0.2598 -0.2826
  295MOL0     C39750   2.684   7.263   8.293 -0.5208 -0.2576  0.0055
  295MOL0     C39751   2.641   7.387   8.370  0.2685  0.4559 -0.2710
  295MOL0     C39752   2.524   7.459   8.296 -0.3600  0.1035  0.4070
  295MOL0     C39753   2.550   7.474   8.151  0.0863 -0.3330 -0.0112
  295MOL0     C39754   2.572   7.481   8.028  0.7196  0.3083  0.4632
  295MOL0     C39755   2.382   6.934   8.324  0.0743  0.4222  0.3350
  295MOL0     C39756   2.272   6.852   8.350  0.6252  0.1418  0.4790
  295MOL0     C39757   2.205   6.789   8.233 -0.8069  0.0281  0.5924
  295MOL0     H39758   2.039   6.468   8.634 -1.4909 -0.4295  0.2660
  295MOL0     H39759   1.852   6.371   8.727 -1.2777  0.4406  1.4851
  295MOL0     H39760   1.596   6.403   8.702  0.7365 -1.3781 -0.2160
  295MOL0     H39761   1.676   6.278   8.797 -0.1683 -0.3539  0.8247
  295MOL0     H39762   1.467   6.290   8.954  0.1570 -0.8124 -0.0740
  295MOL0     H39763   1.429   6.235   8.789 -1.8019  0.6138  1.4551
  295MOL0     H39764   1.343   6.447   8.717  0.2279 -3.0455 -0.9507
  295MOL0     H39765   1.393   6.512   8.868 -0.4902 -0.5168  0.3192
  295MOL0     H39766   1.188   6.290   8.846 -4.5046 -0.0263  2.4699
  295MOL0     H39767   1.229   6.367   8.988  2.0594 -0.3300 -0.5755
  295MOL0     H39768   1.169   6.593   8.907 -1.2011 -0.3390  1.0255
  295MOL0     H39769   1.113   6.523   8.751  1.4043  0.5483 -0.1732
  295MOL0     H39770   0.970   6.358   8.863  4.2103 -0.9533 -1.3377
  295MOL0     H39771   0.991   6.465   9.000 -0.5957  3.2338  0.7434
  295MOL0     H39772   0.899   6.664   8.888  2.0067 -0.7628  0.5433
  295MOL0     H39773   0.796   6.505   8.891  1.1168 -2.6129  0.0035
  295MOL0     H39774   0.948   6.625   8.644 -0.5996 -1.0779 -2.7482
  295MOL0     H39775   0.848   6.467   8.657 -2.7745  0.4462 -1.2369
  295MOL0     H39776   0.755   6.829   8.774 -0.4165 -1.1965  2.5340
  295MOL0     H39777   0.502   6.897   8.854 -1.2682 -0.9536  0.4180
  295MOL0     H39778   0.458   6.949   8.694 -3.5203  1.8028  1.9993
  295MOL0     H39779   0.284   6.789   8.677  1.3853 -1.3064 -0.3565
  295MOL0     H39780   0.345   6.697   8.815  0.8184  1.3008 -0.1641
  295MOL0     H39781   0.298   6.904   8.948  1.8922 -3.2377  0.1517
  295MOL0     H39782   0.161   6.799   8.912  3.6458 -1.7989  0.3117
  295MOL0     H39783   0.063   6.976   8.767 -1.2961 -0.8190  4.3585
  295MOL0     H39784   0.233   7.020   8.718 -1.5552  0.8228 -0.3763
  295MOL0     H39785  -0.044   6.921   8.942 -0.4499  0.2055  0.0405
  295MOL0     H39786  -0.210   6.944   9.126  0.3785 -0.7017 -0.1829
  295MOL0     H39787  -0.603   7.047   9.222  0.2217 -0.2959  0.0068
  295MOL0     H39788  -0.797   7.091   9.379  1.4189  1.9319 -2.5889
  295MOL0     H39789  -0.735   7.120   9.834 -2.1943 -1.7321  0.7159
  295MOL0     H39790  -0.710   7.276   9.742 -0.8342 -0.2489 -0.9731
  295MOL0     H39791  -0.981   7.141   9.808  1.3327 -2.3953  2.4080
  295MOL0     H39792  -0.902   7.234   9.932  2.5339 -3.1619  0.0556
  295MOL0     H39793  -0.942   7.445   9.802 -2.2636 -0.5311  2.8616
  295MOL0     H39794  -0.959   7.342   9.660  0.4857 -2.1566  0.1349
  295MOL0     H39795  -1.169   7.412   9.875 -1.1560 -0.7091  0.0287
  295MOL0     H39796  -1.179   7.256   9.807 -0.6769 -1.2703 -2.8239
  295MOL0     H39797  -1.145   7.513   9.631 -1.2178  0.9140 -1.8387
  295MOL0     H39798  -1.305   7.452   9.675  1.0165  0.6062  0.4160
  295MOL0     H39799  -1.116   7.264   9.532 -0.5004 -1.3428  3.7577
  295MOL0     H39800  -1.282   7.227   9.560  0.0384 -0.5691 -2.4895
  295MOL0     H39801  -1.208   7.469   9.383  1.6448 -1.9581 -1.5364
  295MOL0     H39802  -1.364   7.423   9.460  0.8707  3.5910  0.0844
  295MOL0     H39803  -1.349   7.198   9.338 -0.0837  0.7116  1.4835
  295MOL0     H39804  -1.331   7.337   9.225 -1.8936  1.6157  2.5044
  295MOL0     H39805  -0.531   7.143   9.700 -4.6832  0.5004  1.1683
  295MOL0     H39806  -0.329   7.090   9.534 -0.2134  0.9148  0.1754
  295MOL0     H39807  -0.033   7.326   9.222  0.5053 -0.8898  0.3350
  295MOL0     H39808   0.121   7.304   9.048  3.1107 -2.5714 -2.5720
  295MOL0     H39809   1.756   6.698   8.970  0.0359 -1.1598 -0.8075
  295MOL0     H39810   1.926   6.840   8.856 -2.4433  0.2966  1.6739
  295MOL0     H39811   2.291   6.895   8.699  0.6205  1.3310  1.3075
  295MOL0     H39812   2.434   7.065   8.641 -3.3471  0.2979  0.7257
  295MOL0     H39813   2.489   7.197   8.217  2.8044 -1.0953 -5.8654
  295MOL0     H39814   2.627   7.093   8.207  1.1405  0.4428 -0.2411
  295MOL0     H39815   2.741   7.282   8.202  2.9468 -3.1994  1.3307
  295MOL0     H39816   2.761   7.222   8.359 -0.4662  1.7413  1.2892
  295MOL0     H39817   2.726   7.453   8.391  1.5151 -0.8495 -1.0416
  295MOL0     H39818   2.614   7.350   8.470  0.3278 -0.8735 -0.7305
  295MOL0     H39819   2.433   7.400   8.310 -0.8945  0.9025  0.3380
  295MOL0     H39820   2.518   7.560   8.337  1.8641 -0.0882  1.3301
  295MOL0     H39821   2.601   7.490   7.925 -1.9082 -4.1616 -0.9535
  295MOL0     H39822   2.405   6.937   8.219 -2.5976  0.1281 -0.3428
  295MOL0     H39823   2.224   6.832   8.134  1.9075 -2.3337 -0.0794
  295MOL0     H39824   2.241   6.686   8.222 -0.6178  0.1423  0.0817
  295MOL0     H39825   2.099   6.794   8.258 -0.9951  2.4251 -0.4549
  296MOL0     O39826   7.748  10.953   2.631  0.2770 -0.6964 -0.3177
  296MOL0     C39827   7.840  11.018   2.594  0.6025 -0.5974 -0.1882
  296MOL0     O39828   7.820  11.151   2.546  0.2706 -0.2182  0.2603
  296MOL0     C39829   7.706  11.212   2.579 -0.2453  0.3004 -0.4343
  296MOL0     C39830   7.669  11.241   2.706  0.8345 -0.1775 -0.7959
  296MOL0     C39831   7.547  11.310   2.735 -0.0641 -0.4407 -1.1531
  296MOL0     C39832   7.466  11.355   2.631  0.4629  0.4078  0.7675
  296MOL0     O39833   7.358  11.439   2.654  0.3237 -0.6178  0.0848
  296MOL0     C39834   7.357  11.521   2.774  0.1762 -0.4994  0.6339
  296MOL0     C39835   7.250  11.628   2.741  0.1219 -0.4227 -1.2038
  296MOL0     C39836   7.231  11.713   2.870  0.2631  0.6240 -0.0901
  296MOL0     C39837   7.162  11.849   2.824  1.3172  0.8325  0.6625
  296MOL0     C39838   7.174  11.960   2.934 -0.0217  0.3074  0.5098
  296MOL0     C39839   7.092  11.939   3.061 -0.0066  0.4430 -0.3286
  296MOL0     C39840   7.100  12.057   3.159  0.2741 -0.1934  0.3388
  296MOL0     C39841   7.062  12.013   3.304 -0.1675  0.1560  0.8674
  296MOL0     N39842   7.081  12.130   3.396  0.0496 -0.3231  0.2643
  296MOL0     C39843   6.981  12.227   3.409  0.1018  0.4475 -0.3353
  296MOL0     C39844   7.046  12.338   3.463 -0.3816 -0.2076 -0.4005
  296MOL0     C39845   7.000  12.485   3.499  0.1107  0.5875  0.4750
  296MOL0     C39846   7.017  12.556   3.364  0.6570  0.0408  0.3133
  296MOL0     C39847   7.154  12.562   3.305 -0.0596  0.5762 -0.3541
  296MOL0     C39848   7.253  12.639   3.381 -1.0009 -1.1827 -0.1249
  296MOL0     O39849   7.356  12.680   3.304  0.2115  0.4355  0.1690
  296MOL0     C39850   7.442  12.778   3.353  0.2808  0.0379 -0.8153
  296MOL0     C39851   7.537  12.832   3.262 -0.0519  0.0658  0.0371
  296MOL0     C39852   7.631  12.924   3.308 -0.0801 -1.1053 -0.3284
  296MOL0     C39853   7.624  12.971   3.446 -0.5603  0.4168  0.1816
  296MOL0     C39854   7.697  13.093   3.491 -0.1639  0.1833  0.0774
  296MOL0     O39855   7.781  13.151   3.400 -0.4500  0.4830  0.7098
  296MOL0     C39856   7.856  13.259   3.422 -1.3028 -0.2837 -0.2874
  296MOL0     C39857   7.897  13.312   3.551 -0.4981 -0.6629 -0.1431
  296MOL0     C39858   7.991  13.423   3.549 -0.1557 -0.6793 -0.0387
  296MOL0     C39859   8.020  13.498   3.432 -0.0522  0.0224 -0.0000
  296MOL0     O39860   8.100  13.612   3.422  0.0503 -0.6703  0.5034
  296MOL0     C39861   8.153  13.657   3.547 -0.8561  0.3027 -0.3095
  296MOL0     C39862   8.228  13.786   3.527  1.0594  0.2297  0.1296
  296MOL0     C39863   8.132  13.905   3.526 -1.2460 -1.3994  0.9769
  296MOL0     C39864   8.195  14.047   3.544  0.6840  0.2209 -0.2626
  296MOL0     C39865   8.102  14.166   3.532  0.6809  1.3569 -0.0937
  296MOL0     C39866   8.161  14.300   3.556  0.2928 -0.2371 -0.0339
  296MOL0     C39867   8.055  14.414   3.565  0.7139 -0.1231  0.4488
  296MOL0     C39868   8.125  14.547   3.618 -0.4481  0.6272 -0.8564
  296MOL0    Cl39869   8.004  14.675   3.654  0.0636 -0.0927  0.1973
  296MOL0     C39870   7.982  13.441   3.309  0.4616 -0.6944  1.0909
  296MOL0     C39871   7.895  13.332   3.311  0.5976 -0.3048  0.2225
  296MOL0     O39872   7.684  13.137   3.603  0.0590 -0.1388  0.0087
  296MOL0     C39873   7.532  12.908   3.533  1.2202 -0.4922  1.3795
  296MOL0     C39874   7.445  12.816   3.490  0.6516  0.2522  0.3138
  296MOL0     N39875   7.176  12.292   3.489 -0.1082 -0.5657  0.5374
  296MOL0     N39876   7.195  12.179   3.443 -0.3048 -0.0326  0.0751
  296MOL0     C39877   7.497  11.315   2.500 -0.5249 -0.8813  1.1564
  296MOL0     C39878   7.614  11.241   2.473 -0.4946  0.7293  0.3618
  296MOL0     C39879   7.961  10.936   2.553 -0.9775 -0.2128  0.1991
  296MOL0     C39880   7.956  10.801   2.556 -0.4068  0.5349  0.0905
  296MOL0     C39881   8.065  10.723   2.509 -0.4279  0.1197  0.6704
  296MOL0     C39882   8.171  10.780   2.442  0.2374  0.6805 -0.0890
  296MOL0     O39883   8.269  10.696   2.384 -0.4119  0.1793 -0.6077
  296MOL0     C39884   8.395  10.756   2.331  0.6806  0.1383  0.4061
  296MOL0     C39885   8.371  10.804   2.185  0.0358 -0.6328 -0.9683
  296MOL0     C39886   8.336  10.696   2.086  0.5825 -0.2707  0.9271
  296MOL0     C39887   8.288  10.754   1.953  0.2159 -0.6737 -0.2330
  296MOL0     C39888   8.397  10.830   1.879 -1.0120  0.0874  0.6182
  296MOL0     C39889   8.485  10.879   1.812 -0.1556 -0.2624 -0.1590
  296MOL0     C39890   8.177  10.921   2.436 -0.1519  0.1809  0.0043
  296MOL0     C39891   8.079  10.995   2.499 -0.6176  0.1669  1.5453
  296MOL0     C39892   8.093  11.149   2.496 -0.4064 -1.1210  0.4375
  296MOL0     H39893   7.721  11.198   2.791 -2.0456  1.2640  1.9273
  296MOL0     H39894   7.512  11.332   2.836 -1.1839 -1.1119 -1.3804
  296MOL0     H39895   7.315  11.463   2.856 -1.6302 -1.8693 -1.1449
  296MOL0     H39896   7.457  11.560   2.794  0.7316  0.9265 -3.8086
  296MOL0     H39897   7.154  11.586   2.709 -0.8471  0.5951  0.2186
  296MOL0     H39898   7.296  11.695   2.667  0.1364  0.7902 -0.1237
  296MOL0     H39899   7.328  11.737   2.915 -0.2820  0.5029  1.2024
  296MOL0     H39900   7.169  11.661   2.943  0.8996  1.1608  0.8576
  296MOL0     H39901   7.210  11.898   2.738 -1.8356  2.0301 -0.5702
  296MOL0     H39902   7.057  11.837   2.798  1.9399  0.0590 -1.7316
  296MOL0     H39903   7.280  11.983   2.949 -0.3268  3.5379 -1.2197
  296MOL0     H39904   7.133  12.042   2.874 -1.2082  0.1161  1.0422
  296MOL0     H39905   6.989  11.914   3.035  0.3872  0.3802 -1.9137
  296MOL0     H39906   7.131  11.849   3.109  3.0514  0.3746 -2.6744
  296MOL0     H39907   7.033  12.141   3.141 -2.4914 -2.3185  0.1116
  296MOL0     H39908   7.200  12.100   3.171  0.6577 -1.4713  2.1456
  296MOL0     H39909   6.960  11.978   3.318 -0.0625 -0.4605  0.1463
  296MOL0     H39910   7.128  11.929   3.327 -1.7077 -2.9062 -4.3342
  296MOL0     H39911   6.878  12.216   3.375 -0.0207  0.8402 -0.0829
  296MOL0     H39912   6.894  12.482   3.527 -0.0160  3.5329  0.6668
  296MOL0     H39913   7.059  12.526   3.582 -1.1010  1.3957  0.9634
  296MOL0     H39914   6.957  12.501   3.290 -1.7445  2.9390 -0.0766
  296MOL0     H39915   6.980  12.658   3.373 -4.8740 -1.5743 -0.1045
  296MOL0     H39916   7.133  12.591   3.202 -4.7603  0.0978  0.2604
  296MOL0     H39917   7.189  12.459   3.291 -5.0331 -1.6996  1.6463
  296MOL0     H39918   7.290  12.575   3.461  1.7856  1.8215  1.2354
  296MOL0     H39919   7.216  12.732   3.426  2.0650 -0.1045  0.4144
  296MOL0     H39920   7.537  12.780   3.167  2.5737  0.6364 -0.3688
  296MOL0     H39921   7.708  12.963   3.242  0.9475 -0.9941  0.8988
  296MOL0     H39922   7.860  13.281   3.648 -1.6204  1.2422  0.0941
  296MOL0     H39923   8.026  13.446   3.649  2.3864 -2.9731 -0.2796
  296MOL0     H39924   8.081  13.669   3.628 -1.3583  1.3904 -0.8859
  296MOL0     H39925   8.225  13.581   3.577 -0.4774 -0.0552 -1.9965
  296MOL0     H39926   8.295  13.804   3.611 -0.4891 -0.3482  1.5377
  296MOL0     H39927   8.276  13.786   3.428  2.7117  0.1119  0.8935
  296MOL0     H39928   8.072  13.911   3.435  0.4455  0.4242 -0.0795
  296MOL0     H39929   8.073  13.893   3.618 -0.7013 -0.6065  1.4506
  296MOL0     H39930   8.281  14.053   3.477  1.2293 -0.5028  0.3495
  296MOL0     H39931   8.242  14.056   3.643 -0.9879  0.4777  0.5452
  296MOL0     H39932   8.028  14.138   3.607  1.1075 -1.9877 -0.7809
  296MOL0     H39933   8.053  14.158   3.435 -0.6066 -1.6841  0.6870
  296MOL0     H39934   8.220  14.305   3.649 -0.4077 -0.0370  0.4062
  296MOL0     H39935   8.228  14.324   3.473 -1.2933 -1.7822 -1.8321
  296MOL0     H39936   7.972  14.391   3.632 -2.6654  2.3598 -2.4973
  296MOL0     H39937   8.021  14.432   3.463  1.0138  2.7073  0.7645
  296MOL0     H39938   8.166  14.515   3.714  2.2118 -0.1445 -2.1348
  296MOL0     H39939   8.201  14.575   3.543  0.5861 -0.5184 -0.2781
  296MOL0     H39940   8.013  13.490   3.217  4.2114 -0.9596  2.0385
  296MOL0     H39941   7.858  13.292   3.218 -0.7767  3.0190 -0.7913
  296MOL0     H39942   7.521  12.934   3.638 -0.1754  1.7392  0.7383
  296MOL0     H39943   7.391  12.766   3.570  2.4354  2.3827  3.0246
  296MOL0     H39944   7.453  11.350   2.407 -0.4371  0.6918  1.6854
  296MOL0     H39945   7.647  11.232   2.370  0.2098  4.0555  0.1828
  296MOL0     H39946   7.870  10.742   2.586 -0.5782 -0.7321 -2.5986
  296MOL0     H39947   8.052  10.616   2.505 -0.4434  0.1552 -0.7707
  296MOL0     H39948   8.476  10.684   2.342  0.1872 -0.3725  0.8370
  296MOL0     H39949   8.417  10.844   2.392 -0.5683  1.3127 -0.7620
  296MOL0     H39950   8.468  10.847   2.158  1.6362 -3.9493 -0.8743
  296MOL0     H39951   8.308  10.894   2.188 -0.7774 -1.2064  1.8010
  296MOL0     H39952   8.260  10.635   2.134 -1.1666 -0.3418 -1.7437
  296MOL0     H39953   8.419  10.630   2.059 -0.2948 -0.6464 -1.0654
  296MOL0     H39954   8.257  10.664   1.898 -1.7310  0.4633 -1.0794
  296MOL0     H39955   8.204  10.817   1.984  1.9897  0.2591  3.1241
  296MOL0     H39956   8.562  10.937   1.765  0.6558 -3.2236 -2.8565
  296MOL0     H39957   8.262  10.965   2.385 -1.6838  0.3388 -2.5935
  296MOL0     H39958   8.067  11.187   2.596 -1.8823 -0.2074 -0.2583
  296MOL0     H39959   8.195  11.186   2.482 -0.8944  0.7492  1.5055
  296MOL0     H39960   8.034  11.195   2.416  2.1186  1.2952 -0.1484
  297MOL0     O39961   8.056   8.367   7.504  0.1585 -0.4896 -0.8191
  297MOL0     C39962   7.971   8.342   7.424  0.4580 -0.7818 -0.5773
  297MOL0     O39963   7.965   8.222   7.356  0.1290 -0.4282 -0.3292
  297MOL0     C39964   8.027   8.108   7.407 -0.6872 -1.0574  0.0506
  297MOL0     C39965   8.031   8.077   7.541  0.7491 -0.4245 -0.0222
  297MOL0     C39966   8.098   7.963   7.584  0.3171  0.2692  0.1714
  297MOL0     C39967   8.127   7.860   7.486  0.6199 -0.1857 -0.7450
  297MOL0     O39968   8.166   7.745   7.559 -0.1711  0.6872 -0.0322
  297MOL0     C39969   8.224   7.654   7.471  1.1968  0.2694  0.7158
  297MOL0     C39970   8.239   7.506   7.532  0.0611 -0.3134  0.0741
  297MOL0     C39971   8.380   7.486   7.578  0.3754  0.9189 -0.1751
  297MOL0     C39972   8.421   7.580   7.692 -0.0678 -0.3391  0.4712
  297MOL0     C39973   8.345   7.558   7.823 -0.2687 -0.4430 -0.7532
  297MOL0     C39974   8.410   7.452   7.912 -1.3355  0.7487  0.6051
  297MOL0     C39975   8.319   7.345   7.961  0.4259  0.8727  0.1280
  297MOL0     C39976   8.192   7.394   8.042 -0.9424 -1.1945 -0.8002
  297MOL0     N39977   8.119   7.278   8.102  0.1010 -0.1830 -0.2299
  297MOL0     C39978   8.161   7.192   8.190 -0.6032  1.1212 -0.8472
  297MOL0     C39979   8.056   7.110   8.230 -0.1369  0.1647  0.0376
  297MOL0     C39980   8.043   6.999   8.325 -0.5247  1.1370  0.8460
  297MOL0     C39981   8.017   7.054   8.465  0.0270  0.1970  0.9188
  297MOL0     C39982   8.020   6.955   8.579  0.0014  0.1649  0.5353
  297MOL0     C39983   7.931   6.831   8.559  0.4597  1.3311  0.7898
  297MOL0     O39984   7.934   6.729   8.651  0.1015  0.3601  0.2393
  297MOL0     C39985   7.868   6.744   8.772  0.6578  0.0444  0.2232
  297MOL0     C39986   7.859   6.627   8.857 -0.2041 -0.4435  0.4856
  297MOL0     C39987   7.807   6.638   8.982  0.2397 -0.4731  0.0107
  297MOL0     C39988   7.771   6.764   9.036  1.1143  0.7057  0.4821
  297MOL0     C39989   7.723   6.769   9.175  0.2507 -0.3536  0.4976
  297MOL0     O39990   7.756   6.668   9.262 -0.6906  0.8858  0.5627
  297MOL0     C39991   7.716   6.669   9.390 -0.0706  0.1006 -0.3285
  297MOL0     C39992   7.799   6.703   9.486 -0.1931  1.0175  0.2665
  297MOL0     C39993   7.771   6.702   9.625 -0.2193 -0.1743  0.0117
  297MOL0     C39994   7.639   6.651   9.655  0.1105  0.5265 -0.3949
  297MOL0     O39995   7.582   6.653   9.782 -0.1076 -0.2040 -0.7907
  297MOL0     C39996   7.662   6.626   9.899 -0.0130 -0.7394  0.8251
  297MOL0     C39997   7.567   6.577  10.011 -0.0823 -0.3864  0.3666
  297MOL0     C39998   7.656   6.557  10.134  0.1871 -0.3634 -0.0136
  297MOL0     C39999   7.573   6.490  10.246  0.2559  0.3980  0.4672
  297MOL0     C40000   7.657   6.419  10.348  0.0862 -0.1354  0.5372
  297MOL0     C40001   7.701   6.284  10.298  0.0948 -0.2610  0.5506
  297MOL0     C40002   7.786   6.196  10.391 -0.1550 -0.5307  0.5459
  297MOL0     C40003   7.887   6.130  10.304 -0.8089  0.0201  0.3114
  297MOL0    Cl40004   7.977   6.008  10.394  0.5605 -0.7226  0.5096
  297MOL0     C40005   7.553   6.609   9.561 -0.9056 -0.5495 -0.3109
  297MOL0     C40006   7.595   6.617   9.426 -0.0686 -0.2022 -0.2591
  297MOL0     O40007   7.645   6.862   9.203  0.7838 -0.2060  0.1573
  297MOL0     C40008   7.771   6.869   8.952  0.3688 -0.4655 -0.3307
  297MOL0     C40009   7.813   6.864   8.823  1.4450  0.3036  0.1918
  297MOL0     N40010   7.955   7.154   8.155  0.0176  0.0067 -0.4390
  297MOL0     N40011   7.989   7.246   8.079 -0.0949  0.0986  0.5882
  297MOL0     C40012   8.114   7.889   7.354 -0.2324 -0.4108 -1.2822
  297MOL0     C40013   8.070   8.017   7.313  0.9251 -0.1418  0.4763
  297MOL0     C40014   7.855   8.438   7.403 -0.5259  0.3964  0.6928
  297MOL0     C40015   7.879   8.575   7.404 -0.0268 -0.3804 -1.1698
  297MOL0     C40016   7.775   8.663   7.398 -0.3494 -0.2198 -0.0628
  297MOL0     C40017   7.647   8.620   7.369  0.2733  0.3414 -0.2489
  297MOL0     O40018   7.534   8.702   7.359  0.0290 -0.5452  0.4035
  297MOL0     C40019   7.561   8.844   7.368 -0.7876 -0.6230  0.5627
  297MOL0     C40020   7.430   8.923   7.331 -0.9993  0.0176 -0.5743
  297MOL0     C40021   7.340   8.916   7.461  0.2147 -0.6300  0.6828
  297MOL0     C40022   7.251   8.795   7.486  1.3841  0.4988  0.2892
  297MOL0     C40023   7.167   8.748   7.367 -0.5946 -0.3139 -0.0921
  297MOL0     C40024   7.113   8.686   7.276 -0.0194 -0.6819 -0.6710
  297MOL0     C40025   7.624   8.486   7.366  0.3089 -0.1439  0.1538
  297MOL0     C40026   7.723   8.396   7.385 -0.1964 -0.5516 -0.4665
  297MOL0     C40027   7.686   8.256   7.404  0.4156 -0.6479  0.9561
  297MOL0     H40028   7.986   8.151   7.606  1.6647  0.4215 -0.3208
  297MOL0     H40029   8.097   7.939   7.690  0.3752 -0.4157  0.0240
  297MOL0     H40030   8.149   7.633   7.395  0.7904  0.9672  0.9242
  297MOL0     H40031   8.310   7.688   7.413  0.5583 -1.4187 -1.3591
  297MOL0     H40032   8.199   7.426   7.469 -1.3931 -0.3775  1.0363
  297MOL0     H40033   8.179   7.495   7.623  2.2098 -3.8478  1.2482
  297MOL0     H40034   8.438   7.516   7.490 -1.1792  2.3751 -0.7645
  297MOL0     H40035   8.416   7.386   7.606  1.5537  1.6759  1.1530
  297MOL0     H40036   8.527   7.584   7.721 -0.0891 -0.6583  0.5943
  297MOL0     H40037   8.412   7.686   7.666  3.3519  0.7105  2.7899
  297MOL0     H40038   8.347   7.650   7.881 -0.6845  0.1380 -1.6363
  297MOL0     H40039   8.238   7.539   7.809 -0.0423 -1.2033 -1.5535
  297MOL0     H40040   8.498   7.414   7.859 -2.6112 -1.8837  0.2422
  297MOL0     H40041   8.435   7.504   8.005  0.7117  1.5005 -0.3106
  297MOL0     H40042   8.375   7.279   8.029  0.0411 -0.6901 -1.0082
  297MOL0     H40043   8.282   7.289   7.875 -2.6424  2.4406  0.3037
  297MOL0     H40044   8.227   7.455   8.127 -1.9988 -1.7093  0.0299
  297MOL0     H40045   8.119   7.454   7.986 -0.3660  0.7785  0.4491
  297MOL0     H40046   8.259   7.189   8.237 -1.4228  1.6449  1.0034
  297MOL0     H40047   7.969   6.932   8.280  1.1351  0.4166 -0.9606
  297MOL0     H40048   8.137   6.942   8.324 -1.4759 -0.4679  0.6442
  297MOL0     H40049   8.105   7.109   8.501  0.2972 -2.5505  5.1350
  297MOL0     H40050   7.923   7.110   8.463  0.3143  1.1065 -4.7986
  297MOL0     H40051   7.978   7.013   8.661 -1.7577  2.7043 -1.9641
  297MOL0     H40052   8.119   6.918   8.607 -0.1976  0.5337  1.7889
  297MOL0     H40053   7.942   6.791   8.458  0.4137  1.5028  0.7152
  297MOL0     H40054   7.828   6.867   8.563 -0.7962 -1.9728  1.4333
  297MOL0     H40055   7.890   6.529   8.823  1.7254  1.2027 -3.1261
  297MOL0     H40056   7.801   6.551   9.047 -2.5072  0.4498  1.1133
  297MOL0     H40057   7.892   6.746   9.449  0.1883 -1.0196 -1.3100
  297MOL0     H40058   7.836   6.748   9.699 -1.0013 -0.5001  0.9243
  297MOL0     H40059   7.743   6.556   9.877 -0.2614 -1.1529  1.2193
  297MOL0     H40060   7.729   6.710   9.922  0.0668 -0.9881  1.5090
  297MOL0     H40061   7.491   6.654  10.023 -0.6676 -0.4072 -2.4728
  297MOL0     H40062   7.517   6.489   9.969 -0.8153  1.4183 -2.8671
  297MOL0     H40063   7.754   6.512  10.115 -0.0957 -2.3747  2.8135
  297MOL0     H40064   7.677   6.654  10.180 -1.2781 -0.2669  0.4859
  297MOL0     H40065   7.484   6.438  10.209  0.8158  1.4336 -2.7303
  297MOL0     H40066   7.520   6.573  10.295 -0.7492  1.1667 -1.7659
  297MOL0     H40067   7.616   6.414  10.449  1.8900  0.5714  1.3433
  297MOL0     H40068   7.749   6.477  10.356 -0.6878  1.0217  1.4537
  297MOL0     H40069   7.607   6.233  10.276 -0.0980 -1.5053  3.7814
  297MOL0     H40070   7.762   6.298  10.208  0.5666  1.3390  1.0913
  297MOL0     H40071   7.714   6.133  10.443 -2.4419 -0.1795 -1.9160
  297MOL0     H40072   7.842   6.263  10.457  0.7854 -1.3854  0.6290
  297MOL0     H40073   7.845   6.070  10.223  2.3373 -6.9184  3.0085
  297MOL0     H40074   7.966   6.197  10.269  1.6145 -0.3825  4.3108
  297MOL0     H40075   7.461   6.566   9.600 -0.2494 -1.2453  0.5198
  297MOL0     H40076   7.530   6.582   9.346 -1.2820  3.5586 -1.1292
  297MOL0     H40077   7.741   6.964   8.996  2.5973  1.5893 -2.9312
  297MOL0     H40078   7.806   6.955   8.764  1.8503  1.5174  1.9371
  297MOL0     H40079   8.134   7.822   7.271 -2.1202 -1.5643 -0.8701
  297MOL0     H40080   8.066   8.043   7.208 -1.8386 -0.6493  0.3909
  297MOL0     H40081   7.982   8.604   7.423 -0.4949 -0.4029  1.9208
  297MOL0     H40082   7.788   8.770   7.410  0.2791 -0.2179 -0.6969
  297MOL0     H40083   7.632   8.872   7.290 -0.6384 -1.8737  0.2320
  297MOL0     H40084   7.603   8.867   7.466  0.7030 -1.4904  0.1484
  297MOL0     H40085   7.385   8.868   7.248 -0.7610  1.1140 -1.4591
  297MOL0     H40086   7.445   9.026   7.299  0.4596 -0.2368 -0.7814
  297MOL0     H40087   7.282   9.007   7.440  0.1577 -0.9564 -0.6489
  297MOL0     H40088   7.399   8.938   7.550  1.0429 -1.1416  0.2754
  297MOL0     H40089   7.307   8.712   7.529  1.8907  1.1289  0.8847
  297MOL0     H40090   7.180   8.822   7.566  2.3228  1.9955  0.6651
  297MOL0     H40091   7.074   8.633   7.191 -0.6288 -0.4903 -0.5113
  297MOL0     H40092   7.523   8.452   7.348  0.4311 -0.0995 -0.6339
  297MOL0     H40093   7.584   8.247   7.443 -0.4743  2.4903 -0.3622
  297MOL0     H40094   7.697   8.209   7.306 -0.0241 -0.4390  0.8072
  297MOL0     H40095   7.752   8.208   7.477  3.3705  2.5566  0.6790
  298MOL0     O40096   9.474   0.243   3.410 -0.2892 -0.4435  0.4867
  298MOL0     C40097   9.484   0.134   3.469  0.3704  0.1530 -1.1081
  298MOL0     O40098   9.571   0.108   3.573  0.2581 -0.1959 -0.4417
  298MOL0     C40099   9.658   0.215   3.599  0.3326  0.0747 -0.0600
  298MOL0     C40100   9.645   0.300   3.709  0.2741  0.6849  0.5510
  298MOL0     C40101   9.726   0.420   3.720  0.7066 -1.5802  0.5554
  298MOL0     C40102   9.828   0.449   3.622 -0.7516 -0.0930 -0.8066
  298MOL0     O40103   9.925   0.546   3.646  0.0380  0.2508 -0.3139
  298MOL0     C40104   9.869   0.677   3.691  0.2655 -0.7048 -0.0421
  298MOL0     C40105   9.993   0.766   3.703 -0.8110 -0.4705  0.1645
  298MOL0     C40106   9.953   0.916   3.737  0.6197  0.5922 -0.2481
  298MOL0     C40107   9.850   0.977   3.648  0.3419  1.0038  0.2702
  298MOL0     C40108   9.856   1.129   3.669  0.2335  0.5677  0.0262
  298MOL0     C40109   9.722   1.192   3.626  0.0964 -0.4096  0.1409
  298MOL0     C40110   9.619   1.173   3.737  0.9362 -0.4559  0.3009
  298MOL0     C40111   9.488   1.255   3.693  0.0313 -0.5805  0.6060
  298MOL0     N40112   9.399   1.228   3.801  0.2589  0.6217  0.4992
  298MOL0     C40113   9.305   1.128   3.796  0.3327 -0.0009 -0.4677
  298MOL0     C40114   9.226   1.145   3.907 -0.1256  0.0114 -0.2346
  298MOL0     C40115   9.118   1.053   3.948 -0.2159  0.0274  0.3940
  298MOL0     C40116   9.094   1.049   4.096 -0.1584  0.8914  0.6389
  298MOL0     C40117   8.955   0.992   4.144 -0.2761  0.9623 -0.6202
  298MOL0     C40118   8.967   0.839   4.121  0.4142  0.5160 -0.4856
  298MOL0     O40119   8.836   0.780   4.120 -0.3830 -0.6463 -0.2381
  298MOL0     C40120   8.801   0.745   4.002  0.7941 -0.1996  0.5598
  298MOL0     C40121   8.721   0.825   3.921  0.2484 -0.2714 -0.1436
  298MOL0     C40122   8.684   0.805   3.791  0.9506  1.4946  0.5359
  298MOL0     C40123   8.723   0.676   3.736  0.0090  0.1523 -0.1000
  298MOL0     C40124   8.709   0.640   3.600  0.0878 -0.2999 -0.2669
  298MOL0     O40125   8.626   0.724   3.541  0.5337 -0.2689  0.1097
  298MOL0     C40126   8.591   0.701   3.410  0.2002 -0.0237  0.4272
  298MOL0     C40127   8.687   0.700   3.304  0.2185  0.5705  0.2422
  298MOL0     C40128   8.654   0.680   3.171  0.1474 -0.5471 -0.2016
  298MOL0     C40129   8.517   0.665   3.136  0.0276 -0.7765 -0.1296
  298MOL0     O40130   8.474   0.647   3.006 -0.7305 -0.3477 -0.3384
  298MOL0     C40131   8.396   0.525   2.973 -0.2199 -0.6744  0.8257
  298MOL0     C40132   8.482   0.391   2.978  0.3286 -1.2903 -0.4404
  298MOL0     C40133   8.627   0.396   2.936 -0.2580 -0.3996  0.3040
  298MOL0     C40134   8.689   0.267   2.886 -0.7438  1.1509  0.9571
  298MOL0     C40135   8.844   0.280   2.901 -0.8195 -1.0572  0.1038
  298MOL0     C40136   8.927   0.146   2.871 -0.4547 -0.1036 -0.9011
  298MOL0     C40137   8.894   0.111   2.719  0.2606  0.5597 -0.1407
  298MOL0     C40138   9.001   0.014   2.678  0.7186 -0.0305 -0.2713
  298MOL0    Cl40139   8.972  -0.154   2.735  0.1745  0.0862 -0.0669
  298MOL0     C40140   8.422   0.657   3.246 -0.7131  0.4362  0.2856
  298MOL0     C40141   8.460   0.682   3.381  0.8674  0.4910 -0.6513
  298MOL0     O40142   8.763   0.542   3.551 -0.6057  0.2081  0.1929
  298MOL0     C40143   8.803   0.588   3.818 -0.3178  1.0940 -0.0396
  298MOL0     C40144   8.840   0.628   3.945  0.0405  0.1230 -0.4685
  298MOL0     N40145   9.290   1.241   3.986 -0.5362  0.5856 -0.4521
  298MOL0     N40146   9.399   1.291   3.926  0.1754  0.4507 -1.2861
  298MOL0     C40147   9.839   0.362   3.520  0.7039 -0.8140  0.1440
  298MOL0     C40148   9.756   0.255   3.501  0.6378  1.0868 -0.2591
  298MOL0     C40149   9.415   0.012   3.402  0.5721 -0.0826  0.2269
  298MOL0     C40150   9.360   0.044   3.269 -0.1736  0.2278  0.1439
  298MOL0     C40151   9.300  -0.052   3.187 -0.6742 -0.5263 -0.3041
  298MOL0     C40152   9.270  -0.176   3.236  0.3658 -0.1345 -0.1202
  298MOL0     O40153   9.208  -0.278   3.165 -0.4724  0.5696 -0.3141
  298MOL0     C40154   9.104  -0.235   3.081 -0.5824 -0.5829  0.4082
  298MOL0     C40155   8.994  -0.151   3.150  1.6061  1.0369 -0.9368
  298MOL0     C40156   8.940  -0.225   3.275 -0.2509 -0.3067  1.1180
  298MOL0     C40157   8.886  -0.359   3.235  0.2970 -0.1358 -0.1672
  298MOL0     C40158   8.784  -0.403   3.328  0.8585 -0.3829 -1.1811
  298MOL0     C40159   8.692  -0.432   3.404  0.1878 -0.0613 -0.1544
  298MOL0     C40160   9.322  -0.211   3.361  0.0080  0.1433 -0.0200
  298MOL0     C40161   9.399  -0.120   3.442  0.3648 -0.6691  0.2853
  298MOL0     C40162   9.453  -0.168   3.574 -0.4962  0.0129  0.1281
  298MOL0     H40163   9.568   0.272   3.781  2.2620 -1.9938  1.8267
  298MOL0     H40164   9.699   0.491   3.798 -0.3743 -0.0592 -1.1234
  298MOL0     H40165   9.791   0.714   3.624 -0.3554 -1.0916  0.4505
  298MOL0     H40166   9.824   0.679   3.791 -2.0430  0.9237 -1.0348
  298MOL0     H40167  10.058   0.767   3.615  0.0943  0.5449  0.8224
  298MOL0     H40168  10.048   0.734   3.792 -0.4851 -0.4668 -0.0349
  298MOL0     H40169  10.040   0.979   3.718  0.7091  0.6775  0.4205
  298MOL0     H40170   9.928   0.921   3.844 -2.1050  2.0721 -0.8510
  298MOL0     H40171   9.867   0.954   3.542 -0.4699  0.8272  0.1711
  298MOL0     H40172   9.748   0.942   3.670  0.3005 -0.0174 -1.3294
  298MOL0     H40173   9.868   1.149   3.776  2.9338  0.9018 -0.2627
  298MOL0     H40174   9.936   1.172   3.608 -0.3766  3.5666  1.2008
  298MOL0     H40175   9.733   1.298   3.603 -0.7740  0.4990  3.3992
  298MOL0     H40176   9.699   1.154   3.526 -0.0221  1.3469 -0.5301
  298MOL0     H40177   9.652   1.203   3.837  1.6826 -0.3188  0.0234
  298MOL0     H40178   9.595   1.066   3.742  4.5536 -1.5352 -1.5535
  298MOL0     H40179   9.503   1.363   3.688  0.7480 -0.6717  0.6618
  298MOL0     H40180   9.452   1.229   3.593 -1.1862  3.4133 -0.1687
  298MOL0     H40181   9.272   1.054   3.725  1.1672 -2.6423  1.7346
  298MOL0     H40182   9.022   1.074   3.900  0.4677  0.7123 -0.7107
  298MOL0     H40183   9.141   0.948   3.927  0.4630 -0.2864  2.4609
  298MOL0     H40184   9.174   0.997   4.149 -0.0318 -1.0408 -1.2922
  298MOL0     H40185   9.099   1.155   4.122 -4.1019  2.6946 -4.1851
  298MOL0     H40186   8.871   1.035   4.089  0.1546  0.4553 -1.7128
  298MOL0     H40187   8.940   1.005   4.252 -0.4578  0.9776 -0.6479
  298MOL0     H40188   9.022   0.808   4.210 -2.1577 -1.8202  0.4338
  298MOL0     H40189   9.018   0.814   4.028  2.0871  0.7737  0.3185
  298MOL0     H40190   8.685   0.920   3.959  0.6527  0.0043 -0.4466
  298MOL0     H40191   8.628   0.874   3.728 -0.1312 -1.9147 -2.6418
  298MOL0     H40192   8.790   0.711   3.335  0.0799 -0.1952  1.0143
  298MOL0     H40193   8.730   0.689   3.095 -1.4360  0.0697 -1.7921
  298MOL0     H40194   8.304   0.521   3.032 -0.8907 -0.2930 -0.1530
  298MOL0     H40195   8.366   0.545   2.869  0.4449 -0.3831  0.6837
  298MOL0     H40196   8.477   0.365   3.085  0.3822 -0.7838 -0.3112
  298MOL0     H40197   8.421   0.317   2.926 -1.5166  0.3819 -0.7784
  298MOL0     H40198   8.627   0.464   2.850  0.9272  0.0691  0.6573
  298MOL0     H40199   8.682   0.440   3.019  0.0207 -1.9011  0.9352
  298MOL0     H40200   8.666   0.275   2.779 -1.2065  0.3486  0.9947
  298MOL0     H40201   8.640   0.179   2.928 -1.6347  1.5366  0.7551
  298MOL0     H40202   8.857   0.304   3.007  1.4526 -0.6362 -0.2215
  298MOL0     H40203   8.885   0.363   2.842 -0.0088 -1.7316 -0.3109
  298MOL0     H40204   9.032   0.163   2.892 -0.3328 -1.3260 -0.4629
  298MOL0     H40205   8.873   0.077   2.936 -1.5510  0.1193 -1.5352
  298MOL0     H40206   8.884   0.210   2.673  0.0292  0.7954  0.4134
  298MOL0     H40207   8.803   0.051   2.720 -0.4696  1.6318 -0.6110
  298MOL0     H40208   8.988   0.009   2.570  0.4614 -4.5181 -0.2365
  298MOL0     H40209   9.098   0.048   2.717 -0.7137  3.6501  0.4540
  298MOL0     H40210   8.319   0.646   3.216 -0.2296  0.2390 -1.4210
  298MOL0     H40211   8.386   0.687   3.460  2.0780 -0.4190  0.5951
  298MOL0     H40212   8.845   0.503   3.766 -1.6431  1.7583 -2.3453
  298MOL0     H40213   8.902   0.562   4.005 -1.4693 -3.3152 -2.3862
  298MOL0     H40214   9.916   0.366   3.443 -0.6166 -4.0028 -1.5726
  298MOL0     H40215   9.770   0.199   3.409  2.1168  0.9661  0.0247
  298MOL0     H40216   9.361   0.146   3.230 -0.5646  0.1498 -0.0691
  298MOL0     H40217   9.278  -0.021   3.085 -1.0681  1.9322  0.4581
  298MOL0     H40218   9.058  -0.327   3.041  1.1185 -1.5915  0.6611
  298MOL0     H40219   9.135  -0.194   2.984  1.4566 -0.5176  1.0396
  298MOL0     H40220   8.915  -0.119   3.082  2.3933 -0.5009 -2.6644
  298MOL0     H40221   9.039  -0.055   3.175  0.6567  1.1788  0.3019
  298MOL0     H40222   8.861  -0.160   3.312  2.7367  4.8259 -0.5054
  298MOL0     H40223   9.020  -0.255   3.344  0.3981 -0.2068  0.4260
  298MOL0     H40224   8.835  -0.330   3.142  0.0806 -0.1825 -0.0645
  298MOL0     H40225   8.960  -0.435   3.212 -0.0402 -0.5915  0.2287
  298MOL0     H40226   8.621  -0.468   3.475 -1.2461 -1.7604 -2.3287
  298MOL0     H40227   9.304  -0.314   3.389 -0.7601  0.0425 -0.8484
  298MOL0     H40228   9.552  -0.213   3.565 -0.5630 -0.7180  2.5042
  298MOL0     H40229   9.445  -0.087   3.647  0.1422 -0.3158  0.5727
  298MOL0     H40230   9.387  -0.247   3.611  1.5244 -1.3842  0.9545
  299MOL0     O40231   5.249   8.367   2.272  0.3488 -0.3624 -0.6324
  299MOL0     C40232   5.240   8.490   2.276  0.2185 -0.3782  0.2241
  299MOL0     O40233   5.129   8.554   2.240 -0.2056 -0.2230  0.0965
  299MOL0     C40234   5.041   8.491   2.150 -0.5721  0.0015  0.6031
  299MOL0     C40235   4.908   8.502   2.180  0.7622 -0.0743 -0.4687
  299MOL0     C40236   4.813   8.457   2.081  0.0791  0.8291 -0.5497
  299MOL0     C40237   4.850   8.406   1.958  0.0630  0.5749  0.4910
  299MOL0     O40238   4.750   8.369   1.871 -0.1150 -0.0031  0.4103
  299MOL0     C40239   4.771   8.337   1.729  0.2394  0.0127 -1.1701
  299MOL0     C40240   4.803   8.187   1.705 -0.0711 -0.6415 -0.3962
  299MOL0     C40241   4.676   8.098   1.693  0.5552  0.1951  0.0753
  299MOL0     C40242   4.699   7.983   1.593 -0.1793 -0.7316 -0.1551
  299MOL0     C40243   4.582   7.871   1.594 -0.2214 -0.8005 -0.0474
  299MOL0     C40244   4.615   7.769   1.714  0.0457  0.1617 -0.7962
  299MOL0     C40245   4.526   7.650   1.729  0.6191  0.1639  0.2640
  299MOL0     C40246   4.508   7.549   1.618 -0.3244  0.3805 -0.2731
  299MOL0     N40247   4.430   7.607   1.497  0.2495 -0.0558 -0.3712
  299MOL0     C40248   4.448   7.565   1.370 -0.0162  0.3263  0.1329
  299MOL0     C40249   4.341   7.625   1.305 -0.9485  0.1460 -0.1661
  299MOL0     C40250   4.330   7.629   1.159  0.5128  0.6996  0.4029
  299MOL0     C40251   4.182   7.647   1.121 -0.1814 -0.8059 -0.5542
  299MOL0     C40252   4.157   7.664   0.971 -0.1757 -0.8529 -0.4262
  299MOL0     C40253   4.014   7.715   0.953  0.1927  0.0020 -0.7222
  299MOL0     O40254   3.929   7.614   0.909  0.3759 -0.6580 -1.4308
  299MOL0     C40255   3.809   7.657   0.855 -0.6050  0.0867 -0.4849
  299MOL0     C40256   3.808   7.734   0.741  0.1504  0.5984  0.6487
  299MOL0     C40257   3.685   7.776   0.692  0.0189  0.3051  1.1968
  299MOL0     C40258   3.564   7.753   0.753  0.2572 -0.5688  0.1214
  299MOL0     C40259   3.442   7.811   0.701  0.0033 -0.2532  1.0836
  299MOL0     O40260   3.459   7.875   0.578 -0.1232  0.2626 -0.5914
  299MOL0     C40261   3.375   7.966   0.526  1.0024 -0.0699 -0.3572
  299MOL0     C40262   3.433   8.043   0.425  0.3954 -0.2188 -0.0039
  299MOL0     C40263   3.342   8.137   0.364 -0.0613 -0.1779 -0.7816
  299MOL0     C40264   3.207   8.169   0.402 -0.3955  0.6681  0.1133
  299MOL0     O40265   3.145   8.272   0.341  0.9205 -0.4160 -0.4590
  299MOL0     C40266   3.015   8.303   0.390 -0.2604 -0.0766 -0.4918
  299MOL0     C40267   2.943   8.409   0.314  0.1767  0.1180  0.8704
  299MOL0     C40268   2.794   8.405   0.369 -0.3572  0.8473  0.1361
  299MOL0     C40269   2.703   8.498   0.295  0.2013  0.0511  0.7240
  299MOL0     C40270   2.547   8.486   0.314 -0.1635  0.3969 -0.7529
  299MOL0     C40271   2.470   8.606   0.256  0.0667 -0.4771  0.4362
  299MOL0     C40272   2.314   8.592   0.269 -0.5387 -0.1384  0.6971
  299MOL0     C40273   2.257   8.484   0.169 -0.6330 -0.4827 -0.9975
  299MOL0    Cl40274   2.235   8.573   0.013  0.0736  0.1503 -0.0842
  299MOL0     C40275   3.159   8.101   0.519 -0.4891 -1.0271  0.0122
  299MOL0     C40276   3.246   8.003   0.574  0.5413 -0.4597  0.6692
  299MOL0     O40277   3.327   7.785   0.747  0.4160 -0.5800 -0.6038
  299MOL0     C40278   3.572   7.671   0.866 -0.7274 -0.2330 -0.4143
  299MOL0     C40279   3.690   7.626   0.917 -0.2563  0.0693  0.5212
  299MOL0     N40280   4.280   7.711   1.400 -0.7677  0.5862 -0.1734
  299MOL0     N40281   4.328   7.689   1.511 -0.2205  0.1193 -0.1958
  299MOL0     C40282   4.987   8.394   1.934  0.1397  0.1997  0.3348
  299MOL0     C40283   5.085   8.442   2.026 -0.0895 -0.5770  0.1390
  299MOL0     C40284   5.354   8.565   2.325 -0.3290 -0.2123 -1.0699
  299MOL0     C40285   5.483   8.491   2.340 -0.3293 -0.3984 -0.5379
  299MOL0     C40286   5.599   8.553   2.390  0.6130  0.1614 -0.1054
  299MOL0     C40287   5.587   8.686   2.419 -0.0153  0.1910 -0.5359
  299MOL0     O40288   5.705   8.740   2.468 -0.9571  0.8240  0.2567
  299MOL0     C40289   5.695   8.814   2.593  0.9426 -0.3857 -0.4258
  299MOL0     C40290   5.618   8.737   2.707 -0.4127  0.0873 -0.0967
  299MOL0     C40291   5.698   8.609   2.743  0.5243 -0.6474 -0.2449
  299MOL0     C40292   5.685   8.562   2.887  0.1037 -0.4637 -0.2231
  299MOL0     C40293   5.757   8.648   2.983  0.4995 -0.0546  0.2265
  299MOL0     C40294   5.818   8.721   3.058 -0.5084 -0.2825 -0.2826
  299MOL0     C40295   5.466   8.756   2.407 -0.1641  0.0042  0.4432
  299MOL0     C40296   5.356   8.701   2.356  0.9308 -0.6195  0.3110
  299MOL0     C40297   5.239   8.786   2.362 -0.2559  0.3784  1.2698
  299MOL0     H40298   4.879   8.559   2.268 -0.5922  1.7868 -2.0324
  299MOL0     H40299   4.707   8.453   2.105  0.3119  0.6436  0.4815
  299MOL0     H40300   4.683   8.369   1.673 -0.1367 -0.4311 -0.8500
  299MOL0     H40301   4.857   8.394   1.691  1.8400 -1.5000 -0.0158
  299MOL0     H40302   4.878   8.151   1.776  2.8439 -2.5480 -4.0922
  299MOL0     H40303   4.852   8.186   1.608  0.6138 -1.7290 -0.0539
  299MOL0     H40304   4.581   8.150   1.673 -1.0804 -2.8097 -0.6006
  299MOL0     H40305   4.657   8.065   1.796  3.6685  2.8443  1.6906
  299MOL0     H40306   4.710   8.038   1.499  2.2355 -0.8797 -0.0382
  299MOL0     H40307   4.792   7.932   1.623 -1.4628 -2.4865  1.0424
  299MOL0     H40308   4.481   7.913   1.597  0.5526  1.6139 -3.0807
  299MOL0     H40309   4.597   7.825   1.496  2.3724  3.0212 -1.6568
  299MOL0     H40310   4.717   7.729   1.710  0.5769  0.9591  1.9685
  299MOL0     H40311   4.621   7.817   1.813 -2.8937 -1.2141  0.1590
  299MOL0     H40312   4.423   7.685   1.743  0.4430  0.3025 -1.2933
  299MOL0     H40313   4.546   7.594   1.821 -1.2794  0.4736  0.9045
  299MOL0     H40314   4.606   7.517   1.581  0.2733  1.8712 -0.0488
  299MOL0     H40315   4.456   7.461   1.657  1.2631  0.9082  3.4168
  299MOL0     H40316   4.516   7.501   1.315 -2.1309 -0.2789 -1.9964
  299MOL0     H40317   4.393   7.708   1.117  0.4565  1.4549  1.7182
  299MOL0     H40318   4.370   7.535   1.118 -0.1166  0.3004  0.6896
  299MOL0     H40319   4.129   7.558   1.156  1.5829 -0.7733  2.6680
  299MOL0     H40320   4.143   7.736   1.172  0.7495 -0.2047 -0.8681
  299MOL0     H40321   4.166   7.562   0.932  5.5913 -0.4224 -1.1126
  299MOL0     H40322   4.228   7.730   0.921  1.0296 -1.5288  0.3391
  299MOL0     H40323   4.027   7.790   0.874 -1.3091 -0.0918 -1.0963
  299MOL0     H40324   3.960   7.761   1.037  0.2547  0.1601 -0.7678
  299MOL0     H40325   3.900   7.774   0.700  2.1750  0.2255  4.3979
  299MOL0     H40326   3.689   7.850   0.613  0.8705  0.3558  1.2759
  299MOL0     H40327   3.523   8.020   0.369  0.9426 -0.6244  1.0245
  299MOL0     H40328   3.373   8.207   0.287  2.4888 -0.0780  0.2681
  299MOL0     H40329   2.945   8.219   0.384  1.2078 -1.7084  2.3787
  299MOL0     H40330   3.017   8.334   0.495  1.8661 -1.6553  0.0133
  299MOL0     H40331   2.975   8.512   0.326  0.8394  0.5735 -3.3650
  299MOL0     H40332   2.947   8.401   0.205 -0.7252  1.0634  0.7597
  299MOL0     H40333   2.744   8.310   0.347 -2.1779  2.0241 -1.1887
  299MOL0     H40334   2.796   8.429   0.476  0.7234  2.0179 -0.1303
  299MOL0     H40335   2.722   8.496   0.187  2.3658  0.2392  1.0642
  299MOL0     H40336   2.734   8.596   0.331 -0.7966  0.9616 -0.8088
  299MOL0     H40337   2.518   8.473   0.419  1.3753  0.5681 -0.2846
  299MOL0     H40338   2.515   8.397   0.258  2.5710  0.5398 -2.7517
  299MOL0     H40339   2.509   8.696   0.306  1.2720 -1.4684  1.3423
  299MOL0     H40340   2.496   8.626   0.152 -1.2413 -2.0076 -0.2347
  299MOL0     H40341   2.258   8.685   0.259  0.0628  0.4133  2.2601
  299MOL0     H40342   2.294   8.551   0.368 -0.1165 -0.4426  0.6617
  299MOL0     H40343   2.331   8.406   0.148 -1.0154 -1.2591  0.3899
  299MOL0     H40344   2.164   8.446   0.212 -0.0011 -1.5517 -0.5186
  299MOL0     H40345   3.058   8.118   0.555 -2.0419  0.8836 -4.5609
  299MOL0     H40346   3.200   7.948   0.655 -0.9099 -0.6753 -0.2620
  299MOL0     H40347   3.480   7.649   0.920  1.0413  0.1908  3.0227
  299MOL0     H40348   3.683   7.551   0.994  1.3821  1.6491  2.2914
  299MOL0     H40349   5.018   8.347   1.841 -1.1747 -0.2728  0.1197
  299MOL0     H40350   5.191   8.441   2.002 -0.2572 -2.9716 -0.7423
  299MOL0     H40351   5.488   8.385   2.316 -0.6956 -1.6405  3.9173
  299MOL0     H40352   5.686   8.495   2.417  0.1942 -0.1187  0.6776
  299MOL0     H40353   5.632   8.902   2.577  3.2393  1.2308 -1.1230
  299MOL0     H40354   5.793   8.842   2.633  0.8400  2.1674 -1.7900
  299MOL0     H40355   5.515   8.708   2.681 -0.4472 -0.2304  0.3846
  299MOL0     H40356   5.603   8.804   2.792 -3.8646  2.3472 -2.2063
  299MOL0     H40357   5.805   8.623   2.721  0.2925 -0.4348 -1.2869
  299MOL0     H40358   5.664   8.521   2.687 -0.2314  0.2873 -1.2729
  299MOL0     H40359   5.581   8.567   2.921 -0.5196 -1.2912 -1.8990
  299MOL0     H40360   5.720   8.459   2.900 -1.0754 -1.3428 -3.1839
  299MOL0     H40361   5.875   8.786   3.123  0.5633 -1.0564 -0.4206
  299MOL0     H40362   5.464   8.858   2.444  0.7095  1.1003 -2.2302
  299MOL0     H40363   5.258   8.877   2.421 -2.2412  1.0638  0.9269
  299MOL0     H40364   5.208   8.812   2.261 -0.4471 -1.0565  0.9453
  299MOL0     H40365   5.164   8.731   2.419  1.0218 -1.6138  1.1248
  300MOL0     O40366   7.657  10.959   6.004  0.5478 -0.6839  0.2154
  300MOL0     C40367   7.577  10.912   5.926  0.6423 -0.0669 -0.3861
  300MOL0     O40368   7.503  10.986   5.840 -0.6132 -0.0213  0.5956
  300MOL0     C40369   7.541  11.109   5.808 -0.1215 -0.5478  0.2450
  300MOL0     C40370   7.504  11.223   5.881  0.6216  0.0088 -0.1996
  300MOL0     C40371   7.568  11.345   5.851  0.6086 -0.2102 -0.2373
  300MOL0     C40372   7.669  11.355   5.755 -0.1167  0.0319 -0.3766
  300MOL0     O40373   7.723  11.479   5.748 -0.1636  0.7426  0.1620
  300MOL0     C40374   7.833  11.504   5.660 -0.3585 -0.5441 -0.5738
  300MOL0     C40375   7.962  11.445   5.708  0.3006 -0.4089  0.3140
  300MOL0     C40376   8.026  11.492   5.836 -0.8074  0.1621 -0.0641
  300MOL0     C40377   8.166  11.441   5.841 -0.7316 -0.0480 -0.8075
  300MOL0     C40378   8.254  11.509   5.945 -0.6258 -0.7597  0.2686
  300MOL0     C40379   8.406  11.476   5.952 -1.2311  0.5872 -1.5187
  300MOL0     C40380   8.452  11.335   5.999  0.1837  0.6848  0.4435
  300MOL0     C40381   8.407  11.305   6.145  0.3404 -0.9158  0.4268
  300MOL0     N40382   8.462  11.188   6.224 -0.4461 -0.4501  1.2272
  300MOL0     C40383   8.534  11.080   6.163 -0.0638  0.6501 -0.5382
  300MOL0     C40384   8.528  10.977   6.248  0.6598 -0.0146  0.8323
  300MOL0     C40385   8.559  10.841   6.196 -0.4515  0.8967  0.0700
  300MOL0     C40386   8.561  10.733   6.302 -0.2972  0.9870 -0.7377
  300MOL0     C40387   8.694  10.737   6.369 -0.0114 -0.5297  0.3961
  300MOL0     C40388   8.718  10.641   6.485  0.8543  0.7017 -0.6876
  300MOL0     O40389   8.688  10.501   6.440  0.3085  0.0792 -0.3002
  300MOL0     C40390   8.778  10.405   6.493  0.9772 -0.4414 -0.8201
  300MOL0     C40391   8.808  10.405   6.624 -1.0143 -0.9334  0.1879
  300MOL0     C40392   8.890  10.301   6.677  0.4900 -0.0694  0.3646
  300MOL0     C40393   8.934  10.190   6.605  0.1862 -0.7248 -0.2399
  300MOL0     C40394   9.024  10.101   6.665  0.8231  0.1641  0.7133
  300MOL0     O40395   9.089  10.143   6.783 -0.9945 -0.1204  0.0602
  300MOL0     C40396   9.168  10.045   6.851  0.1980 -0.4152 -1.0759
  300MOL0     C40397   9.305  10.039   6.853 -0.1407  1.0251 -0.7204
  300MOL0     C40398   9.386   9.952   6.923 -0.2166  1.6536  0.1516
  300MOL0     C40399   9.329   9.853   7.002  0.1166  0.3119 -0.2218
  300MOL0     O40400   9.411   9.762   7.068  0.0611 -0.1108  0.2027
  300MOL0     C40401   9.354   9.660   7.146  0.1897  0.3098  0.8391
  300MOL0     C40402   9.324   9.536   7.053  0.2256  1.0734 -0.8306
  300MOL0     C40403   9.323   9.404   7.138 -0.6247  0.0122  0.4366
  300MOL0     C40404   9.197   9.393   7.221  0.5774  0.2242 -0.6799
  300MOL0     C40405   9.191   9.278   7.317 -0.5216 -0.2864  0.3132
  300MOL0     C40406   9.212   9.146   7.244 -0.0544  0.1853  0.5902
  300MOL0     C40407   9.167   9.025   7.317 -0.5936  0.7986 -0.0415
  300MOL0     C40408   9.031   9.039   7.395  0.8595 -0.1495 -0.4054
  300MOL0    Cl40409   8.912   9.114   7.275  0.2605  0.3042  0.1382
  300MOL0     C40410   9.183   9.855   7.002  0.0865  0.7746 -0.4934
  300MOL0     C40411   9.107   9.939   6.924 -1.2878 -0.4073  0.7435
  300MOL0     O40412   9.036   9.987   6.613 -0.4217  0.2171 -0.2962
  300MOL0     C40413   8.893  10.186   6.471 -0.2818 -0.4814 -0.0923
  300MOL0     C40414   8.821  10.291   6.416 -0.5674 -0.0847  0.0128
  300MOL0     N40415   8.454  11.018   6.351  0.7092 -0.5296 -1.2503
  300MOL0     N40416   8.405  11.138   6.332 -0.0948  0.0794 -0.7615
  300MOL0     C40417   7.705  11.237   5.683 -0.1534  0.2165 -0.2925
  300MOL0     C40418   7.636  11.117   5.708 -0.3688 -0.0829  0.3630
  300MOL0     C40419   7.554  10.762   5.928  0.3374 -0.7320 -0.5393
  300MOL0     C40420   7.430  10.711   5.880  0.2420 -0.1242 -0.6034
  300MOL0     C40421   7.407  10.574   5.877 -0.0120  0.3416  0.0276
  300MOL0     C40422   7.501  10.480   5.924  0.5451 -0.3483 -0.7441
  300MOL0     O40423   7.490  10.343   5.914 -0.2859 -0.1364 -0.7982
  300MOL0     C40424   7.400  10.289   5.810  0.5210  0.2212  0.1448
  300MOL0     C40425   7.264  10.255   5.875  0.5247  0.4014  0.7878
  300MOL0     C40426   7.173  10.201   5.765 -0.9843  0.7562  0.4326
  300MOL0     C40427   7.126  10.287   5.652 -0.2003  0.8321 -0.3401
  300MOL0     C40428   7.030  10.228   5.566 -0.1822  1.0163 -0.0096
  300MOL0     C40429   6.943  10.173   5.498  0.2334  0.1715 -0.4290
  300MOL0     C40430   7.619  10.535   5.984 -0.2169 -0.9059  0.1231
  300MOL0     C40431   7.639  10.671   5.974 -0.4718  0.1588  0.3139
  300MOL0     C40432   7.774  10.709   6.005  1.1638 -0.3730 -0.0530
  300MOL0     H40433   7.431  11.217   5.962  0.7895  1.7957  0.1240
  300MOL0     H40434   7.528  11.428   5.909  0.9406 -1.1813  1.4385
  300MOL0     H40435   7.809  11.486   5.554  0.0886 -0.5093 -0.6812
  300MOL0     H40436   7.857  11.610   5.672 -0.1820 -0.7414  0.9789
  300MOL0     H40437   8.029  11.480   5.628 -1.1363 -2.1354 -1.7701
  300MOL0     H40438   7.949  11.337   5.707 -4.1067 -0.0607 -1.6941
  300MOL0     H40439   7.972  11.470   5.929  0.6200  0.6879  0.9247
  300MOL0     H40440   8.027  11.602   5.834  0.1962  0.1661  0.2658
  300MOL0     H40441   8.173  11.335   5.868 -0.9658  0.5529  1.9779
  300MOL0     H40442   8.222  11.445   5.748  2.3925 -1.8013  0.8394
  300MOL0     H40443   8.246  11.615   5.922 -0.3514 -0.4428  1.5757
  300MOL0     H40444   8.211  11.499   6.045 -1.3257  2.9674  0.4742
  300MOL0     H40445   8.433  11.500   5.849 -2.6625  2.1434 -1.5750
  300MOL0     H40446   8.449  11.549   6.020 -1.1876 -1.2499  0.5571
  300MOL0     H40447   8.561  11.327   6.011  0.3950  0.5456 -1.3622
  300MOL0     H40448   8.415  11.251   5.940  3.2463 -1.2971  1.1196
  300MOL0     H40449   8.420  11.393   6.208 -1.0267 -0.1195 -0.3354
  300MOL0     H40450   8.298  11.306   6.134  0.3528 -0.8886  0.3069
  300MOL0     H40451   8.575  11.084   6.063  1.0710 -0.0574 -0.1161
  300MOL0     H40452   8.481  10.816   6.124  0.0117 -0.1478 -0.0911
  300MOL0     H40453   8.658  10.831   6.150 -0.5332 -2.3240  0.3976
  300MOL0     H40454   8.479  10.747   6.374  0.1444 -1.7423  0.4466
  300MOL0     H40455   8.539  10.640   6.248 -1.0635 -1.1117  2.8223
  300MOL0     H40456   8.717  10.833   6.415  1.7830 -1.4092  1.4136
  300MOL0     H40457   8.767  10.709   6.293 -1.3346 -1.4490 -0.5910
  300MOL0     H40458   8.646  10.663   6.564 -1.2728 -3.3614 -1.2185
  300MOL0     H40459   8.819  10.662   6.523 -0.1570  1.6477  1.6499
  300MOL0     H40460   8.782  10.488   6.691 -0.6408  0.3907 -1.2492
  300MOL0     H40461   8.913  10.301   6.783  0.1991  1.1935  0.4498
  300MOL0     H40462   9.361  10.109   6.791  1.6602 -1.2300 -1.7928
  300MOL0     H40463   9.493   9.966   6.928 -0.0930  0.4214  1.7724
  300MOL0     H40464   9.423   9.628   7.225 -0.1796 -1.1436  0.6167
  300MOL0     H40465   9.261   9.693   7.195 -0.4741  0.5593 -0.5445
  300MOL0     H40466   9.233   9.557   6.996 -0.5384  2.6402  0.8993
  300MOL0     H40467   9.402   9.527   6.976 -3.3413 -5.7795 -4.5817
  300MOL0     H40468   9.337   9.318   7.072  0.2966  0.0132  0.6192
  300MOL0     H40469   9.413   9.401   7.199 -1.5252  1.1754  1.8934
  300MOL0     H40470   9.112   9.375   7.154  0.8893  0.2662 -1.0873
  300MOL0     H40471   9.177   9.478   7.287 -0.3755  1.0988 -2.0397
  300MOL0     H40472   9.094   9.281   7.366 -1.6709 -2.0423 -1.7165
  300MOL0     H40473   9.276   9.284   7.386 -0.7675  1.7981  0.4955
  300MOL0     H40474   9.145   9.141   7.158  0.0999 -0.8377  0.5067
  300MOL0     H40475   9.316   9.132   7.211  0.6711  2.9254  1.4956
  300MOL0     H40476   9.237   8.991   7.394 -2.1271  1.1462  1.5790
  300MOL0     H40477   9.154   8.941   7.248 -2.6175  2.3072 -1.5975
  300MOL0     H40478   8.989   8.941   7.420 -1.0544 -0.6141 -4.5549
  300MOL0     H40479   9.045   9.112   7.476  3.8681  1.3141 -2.0585
  300MOL0     H40480   9.123   9.792   7.067 -0.2355  3.0963  1.6062
  300MOL0     H40481   9.002   9.931   6.951 -1.1323 -1.3319  1.1038
  300MOL0     H40482   8.944  10.116   6.405 -0.8901  1.1400 -2.4270
  300MOL0     H40483   8.802  10.304   6.310  2.7027 -1.3242 -0.8616
  300MOL0     H40484   7.776  11.227   5.602 -1.8346 -3.9033 -1.5270
  300MOL0     H40485   7.665  11.029   5.651 -0.7768  1.0233 -1.6669
  300MOL0     H40486   7.353  10.777   5.841  1.2033  1.0843 -0.5440
  300MOL0     H40487   7.310  10.536   5.847 -1.1782  1.2574  2.3726
  300MOL0     H40488   7.440  10.197   5.766  2.8611  0.9393  0.6397
  300MOL0     H40489   7.394  10.360   5.726  0.2668  0.0498  0.0159
  300MOL0     H40490   7.212  10.341   5.918  0.0224  1.1343 -1.1766
  300MOL0     H40491   7.276  10.183   5.956  1.2398 -0.2620  0.1103
  300MOL0     H40492   7.078  10.163   5.803 -1.8204  0.3954 -1.8170
  300MOL0     H40493   7.211  10.102   5.739 -0.2547  1.0188  0.4880
  300MOL0     H40494   7.096  10.385   5.691  0.9809  1.4159 -0.8512
  300MOL0     H40495   7.216  10.315   5.597 -0.2226 -2.7313 -2.4580
  300MOL0     H40496   6.864  10.124   5.444  1.2130 -3.5509  1.1984
  300MOL0     H40497   7.703  10.478   6.023  0.0974 -0.4817  0.0606
  300MOL0     H40498   7.841  10.623   5.998  1.5371 -0.0185 -1.2006
  300MOL0     H40499   7.822  10.777   5.933  2.5264  2.6480  3.3726
  300MOL0     H40500   7.778  10.755   6.104 -0.8792  0.9309 -0.5121
  301MOL0     O40501   4.056   2.030   8.336  0.8063 -0.0523 -0.0961
  301MOL0     C40502   4.102   2.071   8.231 -1.1033 -0.3276 -0.6806
  301MOL0     O40503   4.123   1.995   8.116  0.4860  0.0238 -0.5284
  301MOL0     C40504   4.070   1.865   8.108 -0.4035 -0.9839  0.9481
  301MOL0     C40505   4.158   1.767   8.057  0.2167  0.4371  0.4395
  301MOL0     C40506   4.112   1.635   8.042  0.7838 -0.7771 -0.1287
  301MOL0     C40507   3.981   1.600   8.088 -0.5484  0.8364 -0.0777
  301MOL0     O40508   3.953   1.468   8.093 -0.3274 -0.0369 -0.5548
  301MOL0     C40509   3.840   1.424   8.179 -1.1188  0.0870 -0.1715
  301MOL0     C40510   3.861   1.271   8.199 -1.0436 -0.2827 -1.2154
  301MOL0     C40511   4.005   1.233   8.243  0.6371  0.8193  0.4050
  301MOL0     C40512   4.051   1.311   8.363 -0.2273  0.0077 -0.5828
  301MOL0     C40513   4.189   1.279   8.401  1.4211 -0.8311  0.2861
  301MOL0     C40514   4.246   1.361   8.519 -0.3457 -0.2452 -0.6276
  301MOL0     C40515   4.306   1.492   8.470  0.2708 -0.3346  1.1971
  301MOL0     C40516   4.389   1.562   8.569  0.2768  0.1767 -0.6416
  301MOL0     N40517   4.300   1.652   8.651 -0.3048 -0.6926 -0.4091
  301MOL0     C40518   4.228   1.761   8.605 -0.6334  0.9990 -1.1062
  301MOL0     C40519   4.168   1.798   8.725 -0.1260  0.2764 -0.1441
  301MOL0     C40520   4.069   1.911   8.753 -0.6705  1.7910 -0.8537
  301MOL0     C40521   4.116   1.993   8.877 -0.0671  0.9599  0.6853
  301MOL0     C40522   4.003   2.090   8.915  0.2573 -0.5170  0.1545
  301MOL0     C40523   3.970   2.185   8.799 -0.0641  0.7094  0.0766
  301MOL0     O40524   3.856   2.258   8.830 -0.4745  0.5545  0.2326
  301MOL0     C40525   3.737   2.221   8.770 -0.8198  0.8364 -0.6549
  301MOL0     C40526   3.631   2.311   8.799  0.6969  0.3745  0.3824
  301MOL0     C40527   3.500   2.287   8.757 -0.3249  0.0381 -0.1723
  301MOL0     C40528   3.477   2.184   8.669 -0.2453 -0.5574  0.3436
  301MOL0     C40529   3.342   2.147   8.651 -0.0568 -0.1811 -0.8002
  301MOL0     O40530   3.239   2.215   8.711 -1.1039 -0.8280 -0.3015
  301MOL0     C40531   3.109   2.181   8.702  0.1174 -1.0863 -0.5192
  301MOL0     C40532   3.045   2.137   8.592  0.5991  0.8974 -0.0316
  301MOL0     C40533   2.909   2.088   8.598 -0.8721 -0.1729  0.1031
  301MOL0     C40534   2.835   2.121   8.709  0.2223  0.5359  0.5882
  301MOL0     O40535   2.700   2.094   8.723 -0.6026 -0.5896 -0.3577
  301MOL0     C40536   2.610   2.172   8.638 -1.2882  0.6317  0.2075
  301MOL0     C40537   2.604   2.322   8.661 -0.2441  0.2042  0.0701
  301MOL0     C40538   2.491   2.351   8.764 -0.5215 -0.1583 -0.3429
  301MOL0     C40539   2.518   2.282   8.892 -0.6845 -0.1665 -0.6921
  301MOL0     C40540   2.462   2.356   9.012  0.7108  0.6190  0.2567
  301MOL0     C40541   2.457   2.267   9.140  0.5187  0.2700  0.8106
  301MOL0     C40542   2.372   2.325   9.251 -0.4276 -0.7197  0.3415
  301MOL0     C40543   2.230   2.312   9.220  0.2099 -0.2286  0.7716
  301MOL0    Cl40544   2.190   2.143   9.235 -0.0950  0.1773 -0.3208
  301MOL0     C40545   2.900   2.188   8.814  0.5987 -1.5869 -0.1428
  301MOL0     C40546   3.035   2.212   8.816  0.4631  0.6885  0.5229
  301MOL0     O40547   3.330   2.053   8.580  0.2091 -0.2301 -0.2734
  301MOL0     C40548   3.584   2.105   8.623  0.2914  0.0674 -1.4948
  301MOL0     C40549   3.704   2.116   8.679 -0.8507 -0.7197 -0.2950
  301MOL0     N40550   4.194   1.714   8.834  0.4663 -0.5154  0.7766
  301MOL0     N40551   4.280   1.625   8.791  0.1231 -0.3369  0.1985
  301MOL0     C40552   3.895   1.702   8.144 -0.3262  0.2177 -0.7199
  301MOL0     C40553   3.947   1.834   8.151  1.2109  1.0286  0.1125
  301MOL0     C40554   4.167   2.203   8.226  0.2806 -0.2227  0.1937
  301MOL0     C40555   4.228   2.235   8.101  0.4902 -0.4756  0.5081
  301MOL0     C40556   4.286   2.363   8.096  0.2411 -0.0270  0.4021
  301MOL0     C40557   4.279   2.458   8.194 -0.6308  0.3101 -0.0339
  301MOL0     O40558   4.328   2.581   8.189 -0.7754 -0.6945  0.3067
  301MOL0     C40559   4.307   2.661   8.072  0.2986 -0.1364 -0.7478
  301MOL0     C40560   4.435   2.693   7.998 -0.2129 -0.9669  0.0168
  301MOL0     C40561   4.412   2.721   7.843 -0.0122  0.4922 -0.1430
  301MOL0     C40562   4.513   2.812   7.764  0.3263  0.2157 -0.1765
  301MOL0     C40563   4.574   2.924   7.826  0.0380  0.3747 -0.4590
  301MOL0     C40564   4.623   3.020   7.879 -0.7315  0.0773 -0.6235
  301MOL0     C40565   4.212   2.417   8.313 -0.8345 -0.0299 -0.9712
  301MOL0     C40566   4.166   2.290   8.336  0.1923  0.5291 -0.1138
  301MOL0     C40567   4.099   2.262   8.470  0.4096 -0.5684 -0.2202
  301MOL0     H40568   4.258   1.802   8.034 -0.2415  0.0678 -2.6490
  301MOL0     H40569   4.186   1.562   8.012 -0.1952 -1.6745 -0.4290
  301MOL0     H40570   3.845   1.489   8.267  1.2199  1.7825 -1.4321
  301MOL0     H40571   3.742   1.449   8.138 -1.2258  1.3141  0.7763
  301MOL0     H40572   3.842   1.232   8.099 -0.2164  1.0648 -1.9361
  301MOL0     H40573   3.791   1.233   8.274 -1.9198  3.6635  0.2189
  301MOL0     H40574   4.058   1.278   8.158  0.0931  2.3719  0.8420
  301MOL0     H40575   4.043   1.131   8.248  2.8051  1.6256  2.6904
  301MOL0     H40576   4.039   1.418   8.349 -1.5108 -0.1221 -0.5926
  301MOL0     H40577   4.002   1.284   8.458  1.4833  0.5618  0.4881
  301MOL0     H40578   4.182   1.179   8.443 -0.5926 -0.3514  1.1984
  301MOL0     H40579   4.249   1.285   8.309  0.8936 -0.6567 -0.0552
  301MOL0     H40580   4.169   1.385   8.593  0.7027  1.7062 -0.1032
  301MOL0     H40581   4.317   1.301   8.576 -2.6639 -1.4092  1.1900
  301MOL0     H40582   4.243   1.559   8.411  0.4153 -1.2393 -0.0252
  301MOL0     H40583   4.369   1.448   8.392 -0.1978  0.3046  0.4411
  301MOL0     H40584   4.434   1.485   8.632 -1.4418 -0.8610 -0.6454
  301MOL0     H40585   4.467   1.616   8.514 -0.2319  0.3105 -1.2316
  301MOL0     H40586   4.241   1.810   8.510  4.1152  1.0888 -0.6365
  301MOL0     H40587   4.063   1.971   8.662 -1.3721  0.3827 -1.7660
  301MOL0     H40588   3.971   1.866   8.774  0.0073  0.3035 -0.7530
  301MOL0     H40589   4.136   1.919   8.956 -2.0835 -1.0457 -0.5452
  301MOL0     H40590   4.211   2.041   8.855  0.2201 -0.7908 -2.4840
  301MOL0     H40591   4.020   2.153   9.002 -2.7057  0.2412  0.3132
  301MOL0     H40592   3.912   2.031   8.930 -2.3838  3.2943  0.5652
  301MOL0     H40593   3.958   2.139   8.701  2.0528  0.2117  0.0136
  301MOL0     H40594   4.048   2.259   8.778 -1.3390  2.0806  0.0202
  301MOL0     H40595   3.650   2.389   8.872  2.2774  0.1138  0.2864
  301MOL0     H40596   3.422   2.346   8.805 -1.5780 -1.7601  0.0907
  301MOL0     H40597   3.114   2.124   8.509  0.2024  0.5020 -0.3008
  301MOL0     H40598   2.873   2.032   8.512  2.5748 -2.0093 -0.3512
  301MOL0     H40599   2.632   2.146   8.534 -0.4909 -0.0435  0.5343
  301MOL0     H40600   2.512   2.124   8.640 -0.6615 -1.5000 -4.5844
  301MOL0     H40601   2.703   2.349   8.700 -0.6049 -1.5796  2.4580
  301MOL0     H40602   2.568   2.378   8.575  1.4255  0.8952 -0.2116
  301MOL0     H40603   2.502   2.459   8.779 -1.5072  0.5308 -3.7860
  301MOL0     H40604   2.389   2.322   8.737 -0.7274 -0.7427  0.9657
  301MOL0     H40605   2.626   2.288   8.910 -0.8388 -1.7392  1.0568
  301MOL0     H40606   2.490   2.176   8.882 -2.1451  0.4126 -3.7592
  301MOL0     H40607   2.365   2.391   8.975 -0.3417 -0.2212  2.0797
  301MOL0     H40608   2.520   2.442   9.046  1.2938 -0.4901  2.2401
  301MOL0     H40609   2.421   2.167   9.114  1.0118 -0.2380  2.0001
  301MOL0     H40610   2.552   2.234   9.183  0.5681  0.3961  0.8001
  301MOL0     H40611   2.380   2.433   9.268  0.3754 -0.9909  1.8120
  301MOL0     H40612   2.398   2.289   9.351  0.3808  2.6933  1.5056
  301MOL0     H40613   2.173   2.370   9.293 -1.2698 -1.3399  0.5632
  301MOL0     H40614   2.204   2.355   9.122  1.2680  1.7566  1.3148
  301MOL0     H40615   2.845   2.221   8.901 -0.6017 -3.6656 -0.0439
  301MOL0     H40616   3.077   2.253   8.908 -0.8543 -1.5177  2.2085
  301MOL0     H40617   3.567   2.024   8.553 -2.0326  0.7063 -1.7656
  301MOL0     H40618   3.781   2.052   8.638 -0.5461  0.1352 -1.0859
  301MOL0     H40619   3.793   1.699   8.180  0.6190  0.1310  2.2263
  301MOL0     H40620   3.886   1.914   8.190  1.3349  0.9011  0.5671
  301MOL0     H40621   4.224   2.168   8.015 -0.7665  2.3288 -1.7896
  301MOL0     H40622   4.331   2.396   8.002  0.9398 -0.1324  0.6932
  301MOL0     H40623   4.266   2.758   8.102  1.3977 -0.4300  1.9534
  301MOL0     H40624   4.229   2.610   8.015 -0.8650 -1.9650  2.2619
  301MOL0     H40625   4.515   2.618   8.006  0.2671 -0.3496  1.1579
  301MOL0     H40626   4.469   2.787   8.044 -0.2561 -0.5070 -0.8622
  301MOL0     H40627   4.309   2.757   7.829 -0.7289 -1.7077 -1.1814
  301MOL0     H40628   4.403   2.622   7.796 -3.4151  0.5806  0.0525
  301MOL0     H40629   4.597   2.747   7.741  1.4328  1.8609 -0.9957
  301MOL0     H40630   4.471   2.849   7.670 -2.5298 -2.1564  0.0036
  301MOL0     H40631   4.661   3.099   7.940  2.3120 -0.7399 -1.3028
  301MOL0     H40632   4.196   2.493   8.390  0.5826 -1.3215  0.7063
  301MOL0     H40633   4.146   2.172   8.510  3.5318  1.3586  0.7986
  301MOL0     H40634   4.131   2.338   8.541 -1.9689 -0.9189  1.3365
  301MOL0     H40635   3.991   2.248   8.467 -0.2391  1.7504  4.2139
  302MOL0     O40636   3.210   4.579   8.877  0.4984  0.2137  0.3743
  302MOL0     C40637   3.164   4.610   8.982  0.4773 -0.3493 -0.3024
  302MOL0     O40638   3.040   4.657   9.012 -0.7771 -0.3252  0.1854
  302MOL0     C40639   2.940   4.689   8.925  0.3757  0.1427  0.3101
  302MOL0     C40640   2.816   4.732   8.967  0.2231  0.3153 -0.3058
  302MOL0     C40641   2.692   4.752   8.885 -0.5978  0.2701 -0.1749
  302MOL0     C40642   2.710   4.742   8.745 -0.1110 -0.4141  0.6937
  302MOL0     O40643   2.601   4.750   8.662  0.3514  0.3233 -0.3484
  302MOL0     C40644   2.623   4.833   8.546  0.5475  1.0119  0.5412
  302MOL0     C40645   2.491   4.884   8.478  0.1832  0.2132  0.3871
  302MOL0     C40646   2.395   4.764   8.439 -0.6649 -0.6509 -0.2146
  302MOL0     C40647   2.254   4.806   8.389 -0.2734  0.2967 -0.6103
  302MOL0     C40648   2.251   4.892   8.263  1.1171 -0.7658 -0.5304
  302MOL0     C40649   2.114   4.951   8.236 -0.5174 -0.2842 -0.5410
  302MOL0     C40650   2.082   4.976   8.086 -0.4123 -1.3928  0.9203
  302MOL0     C40651   1.965   5.063   8.050  0.5740 -0.6144 -0.1702
  302MOL0     N40652   1.997   5.206   8.042 -0.1363  0.2704  0.4304
  302MOL0     C40653   1.983   5.295   7.936 -0.0790 -0.0923 -0.4267
  302MOL0     C40654   2.018   5.414   7.994 -0.2619  0.1622  0.7277
  302MOL0     C40655   2.021   5.538   7.916 -0.3769  0.4833  0.0364
  302MOL0     C40656   2.138   5.548   7.811  0.4138 -0.1040  0.5370
  302MOL0     C40657   2.254   5.656   7.844  0.7733 -0.9250 -0.1680
  302MOL0     C40658   2.327   5.617   7.975 -0.0902 -0.0895 -0.0706
  302MOL0     O40659   2.433   5.711   7.994  1.0804 -0.7691  0.0923
  302MOL0     C40660   2.532   5.690   8.088 -0.4655 -1.4518 -0.5764
  302MOL0     C40661   2.514   5.597   8.194 -0.2281 -1.0511 -0.4583
  302MOL0     C40662   2.610   5.584   8.292  0.1862 -0.1061 -0.3927
  302MOL0     C40663   2.727   5.669   8.299 -0.2258  0.3160 -0.3429
  302MOL0     C40664   2.827   5.649   8.403 -0.4223 -0.3776 -0.2725
  302MOL0     O40665   2.937   5.725   8.392 -0.2572  1.0463  1.3369
  302MOL0     C40666   3.024   5.730   8.498 -0.3672 -0.0282 -0.8787
  302MOL0     C40667   3.106   5.620   8.535  0.3416 -0.4467  0.2296
  302MOL0     C40668   3.214   5.623   8.630  0.0556  0.2873 -0.2350
  302MOL0     C40669   3.230   5.735   8.709  0.1165 -0.4022  0.0917
  302MOL0     O40670   3.303   5.731   8.822 -0.1406  0.2830  0.2902
  302MOL0     C40671   3.231   5.692   8.939  0.6919  0.1652  0.0811
  302MOL0     C40672   3.330   5.633   9.037 -0.5742 -0.4117  0.2316
  302MOL0     C40673   3.372   5.483   9.022  0.2980 -0.8632  0.9251
  302MOL0     C40674   3.428   5.463   8.883  0.2131  0.5032 -0.2861
  302MOL0     C40675   3.510   5.345   8.884  0.6835  0.9798 -0.1673
  302MOL0     C40676   3.573   5.322   8.751  0.4921 -0.3268  0.4669
  302MOL0     C40677   3.650   5.192   8.741  0.6266 -0.2590  0.6039
  302MOL0     C40678   3.734   5.182   8.611 -0.1892 -0.5170 -0.2776
  302MOL0    Cl40679   3.883   5.271   8.619  0.0130 -0.5275  0.2730
  302MOL0     C40680   3.139   5.840   8.696 -0.0772 -0.0864  0.0194
  302MOL0     C40681   3.039   5.846   8.583  0.0817 -0.9696 -0.0413
  302MOL0     O40682   2.796   5.582   8.501 -0.2741 -0.4881 -0.3299
  302MOL0     C40683   2.739   5.764   8.194 -0.3208 -0.4805 -0.4202
  302MOL0     C40684   2.639   5.772   8.089  0.4947  0.4377 -0.2879
  302MOL0     N40685   2.067   5.389   8.119  0.5361 -0.2880 -0.0742
  302MOL0     N40686   2.058   5.267   8.147  1.1293  0.1375 -0.4149
  302MOL0     C40687   2.843   4.713   8.693  1.5497  0.8684  0.6907
  302MOL0     C40688   2.951   4.689   8.781 -0.0121  0.0209  0.2542
  302MOL0     C40689   3.260   4.597   9.106  0.2375 -1.5638  0.5173
  302MOL0     C40690   3.206   4.617   9.225 -0.6945  1.0023 -1.3480
  302MOL0     C40691   3.293   4.611   9.340 -0.9118 -0.4283 -0.8475
  302MOL0     C40692   3.427   4.598   9.334 -0.4148  0.4956  0.3875
  302MOL0     O40693   3.492   4.594   9.456  0.1725 -0.5861 -0.1142
  302MOL0     C40694   3.626   4.592   9.454 -0.7543 -0.5875 -0.1842
  302MOL0     C40695   3.697   4.631   9.584  0.5812 -0.3094 -0.4280
  302MOL0     C40696   3.840   4.669   9.562  0.0708 -0.2640 -0.5365
  302MOL0     C40697   3.910   4.699   9.700 -0.2531  0.0223 -0.2518
  302MOL0     C40698   4.030   4.777   9.690 -0.0059 -0.5633 -0.0849
  302MOL0     C40699   4.117   4.856   9.698  0.8514 -0.4968 -0.0976
  302MOL0     C40700   3.479   4.585   9.204 -0.1940 -0.6538 -0.3103
  302MOL0     C40701   3.397   4.575   9.095  0.6510 -0.7736 -0.0705
  302MOL0     C40702   3.470   4.554   8.966 -1.3975 -0.4313  0.6024
  302MOL0     H40703   2.809   4.734   9.075 -2.2649  0.0620 -0.4026
  302MOL0     H40704   2.593   4.772   8.926  0.6953  2.1010  2.3918
  302MOL0     H40705   2.686   4.919   8.571  1.7334 -0.1746  1.8341
  302MOL0     H40706   2.682   4.773   8.475 -1.0906  3.4741 -3.2212
  302MOL0     H40707   2.523   4.934   8.386  0.6149 -0.3033  0.2486
  302MOL0     H40708   2.448   4.953   8.550 -2.7995 -0.5982 -0.4498
  302MOL0     H40709   2.367   4.705   8.527 -0.9213  2.5375  2.0003
  302MOL0     H40710   2.449   4.701   8.367  2.2895 -0.8583  2.0116
  302MOL0     H40711   2.203   4.713   8.368  0.4106 -0.1401 -0.3862
  302MOL0     H40712   2.210   4.856   8.476 -2.1347  1.1110 -1.9576
  302MOL0     H40713   2.316   4.976   8.290  1.9221 -0.5719 -2.8743
  302MOL0     H40714   2.290   4.858   8.167  1.7209 -1.1903 -0.1381
  302MOL0     H40715   2.030   4.897   8.282  0.4054 -0.1765  1.3972
  302MOL0     H40716   2.110   5.047   8.287 -0.3592 -1.0967  1.0779
  302MOL0     H40717   2.081   4.883   8.029 -1.4322  1.9992 -5.5781
  302MOL0     H40718   2.160   5.046   8.054 -2.0966  0.9137  1.5740
  302MOL0     H40719   1.917   5.027   7.958 -2.1959 -0.5051  1.1268
  302MOL0     H40720   1.896   5.054   8.134  1.5965 -0.7907  0.6765
  302MOL0     H40721   1.948   5.283   7.834  0.3783  0.3465 -0.6383
  302MOL0     H40722   1.928   5.554   7.860  0.7735  1.6807 -1.6697
  302MOL0     H40723   2.030   5.619   7.989 -1.7411  1.7842 -1.1491
  302MOL0     H40724   2.178   5.450   7.783  0.7707 -0.1335  1.1302
  302MOL0     H40725   2.086   5.592   7.725 -1.4469 -1.4427  0.9164
  302MOL0     H40726   2.183   5.739   7.849 -0.1896 -1.6919 -0.5505
  302MOL0     H40727   2.329   5.678   7.767  0.2713  1.0508 -0.1447
  302MOL0     H40728   2.364   5.515   7.963  1.6519  0.7145 -2.1503
  302MOL0     H40729   2.259   5.616   8.061 -1.9552 -0.8361 -1.4796
  302MOL0     H40730   2.424   5.536   8.195  0.7422 -2.5201 -0.5305
  302MOL0     H40731   2.596   5.506   8.366 -1.6227 -1.1666 -1.7849
  302MOL0     H40732   3.107   5.522   8.488  2.5005  0.4475 -1.7941
  302MOL0     H40733   3.280   5.537   8.632 -1.9993 -1.3825 -0.3778
  302MOL0     H40734   3.187   5.782   8.982 -0.5810  1.2909 -3.2536
  302MOL0     H40735   3.146   5.630   8.909  1.4704 -0.9009  0.0533
  302MOL0     H40736   3.423   5.690   9.027 -1.7978  1.4921 -0.7721
  302MOL0     H40737   3.290   5.646   9.138  5.0125  2.5788  2.5373
  302MOL0     H40738   3.444   5.455   9.099  0.1649  1.0331  1.7956
  302MOL0     H40739   3.281   5.422   9.024 -2.2721  2.4484 -2.3000
  302MOL0     H40740   3.495   5.544   8.854 -2.2886  1.9685 -2.3516
  302MOL0     H40741   3.349   5.459   8.808 -0.1006 -1.2980  0.0964
  302MOL0     H40742   3.439   5.262   8.894 -1.6142  2.8933  0.2997
  302MOL0     H40743   3.581   5.330   8.966  0.2324 -3.5793 -0.3180
  302MOL0     H40744   3.495   5.314   8.676  2.0628 -0.1006 -1.2622
  302MOL0     H40745   3.626   5.408   8.710 -1.6080  0.6201 -0.4043
  302MOL0     H40746   3.572   5.115   8.742 -1.1867  1.5009  1.4858
  302MOL0     H40747   3.713   5.198   8.830 -3.2094  0.2758  3.5403
  302MOL0     H40748   3.764   5.076   8.610 -0.0896 -0.5634  2.3338
  302MOL0     H40749   3.682   5.204   8.517 -0.5224 -2.6774 -0.6669
  302MOL0     H40750   3.144   5.920   8.769  0.7798 -0.3072  0.2091
  302MOL0     H40751   2.967   5.925   8.563 -1.5619 -2.9262 -2.4478
  302MOL0     H40752   2.831   5.822   8.186  2.7510 -4.8636 -0.5117
  302MOL0     H40753   2.653   5.842   8.007  2.0402 -1.9748 -2.2195
  302MOL0     H40754   2.836   4.695   8.586 -1.7877 -3.0750  1.3010
  302MOL0     H40755   3.047   4.669   8.736  0.5099 -1.7294  2.0324
  302MOL0     H40756   3.099   4.628   9.241 -0.9908 -3.0573  0.8080
  302MOL0     H40757   3.247   4.640   9.433 -0.9132  1.3129 -1.3509
  302MOL0     H40758   3.657   4.672   9.386  0.7827 -0.4512  0.6404
  302MOL0     H40759   3.673   4.501   9.414 -0.1248 -0.5684  0.5070
  302MOL0     H40760   3.692   4.551   9.658  0.1142 -0.4309 -0.5909
  302MOL0     H40761   3.648   4.722   9.621  1.3044 -0.1449  0.1633
  302MOL0     H40762   3.841   4.748   9.487 -2.4376  0.5640  0.1890
  302MOL0     H40763   3.882   4.580   9.514 -2.8981  1.2031 -6.9399
  302MOL0     H40764   3.836   4.743   9.767  1.1077 -1.0473  2.0919
  302MOL0     H40765   3.938   4.599   9.735  0.1238  0.2365  0.0757
  302MOL0     H40766   4.191   4.933   9.697  1.4022 -0.9169  2.1527
  302MOL0     H40767   3.586   4.574   9.189  0.0536  1.7551 -0.6667
  302MOL0     H40768   3.486   4.650   8.916  0.5119 -0.5511  0.9360
  302MOL0     H40769   3.575   4.529   8.980 -0.9316  0.3670 -1.1314
  302MOL0     H40770   3.424   4.474   8.907  0.9595 -0.4288 -1.3891
  303MOL0     O40771   3.935   6.985   9.531  0.2158 -0.3845  0.4649
  303MOL0     C40772   3.993   6.990   9.638  0.5352  1.0807 -0.6620
  303MOL0     O40773   3.962   7.080   9.744 -0.3897  0.0321  0.0852
  303MOL0     C40774   3.862   7.166   9.735  0.4338 -0.7138  0.3416
  303MOL0     C40775   3.872   7.273   9.831  0.4636 -0.1811 -0.1784
  303MOL0     C40776   3.775   7.374   9.831 -0.0279 -0.3812  0.0398
  303MOL0     C40777   3.665   7.377   9.749  0.0190 -0.4148 -0.1675
  303MOL0     O40778   3.588   7.489   9.779  0.0619  0.0251  0.6053
  303MOL0     C40779   3.475   7.524   9.686  0.1363  0.6774 -0.5576
  303MOL0     C40780   3.387   7.633   9.759  0.4186  0.1493  0.1594
  303MOL0     C40781   3.277   7.573   9.855 -0.5000  0.7506  0.0080
  303MOL0     C40782   3.140   7.611   9.807  0.5519  0.3760 -0.2558
  303MOL0     C40783   3.033   7.524   9.862  0.1480 -0.3972 -0.2839
  303MOL0     C40784   3.018   7.533  10.015 -0.0587 -0.7461  0.4445
  303MOL0     C40785   3.010   7.669  10.088  0.2230 -0.2340  0.6888
  303MOL0     C40786   2.966   7.643  10.237 -0.7771 -0.6379 -0.0169
  303MOL0     N40787   2.982   7.760  10.324  0.2336 -0.3487  1.0086
  303MOL0     C40788   3.076   7.793  10.428 -0.0798  0.6655  0.1489
  303MOL0     C40789   3.029   7.912  10.474  0.8720  0.5534  0.3493
  303MOL0     C40790   3.090   7.972  10.594  0.2512  0.3336 -0.0780
  303MOL0     C40791   3.065   7.886  10.722 -0.7391  0.1190 -0.5096
  303MOL0     C40792   3.126   7.954  10.852  0.1778 -0.4364 -0.6828
  303MOL0     C40793   3.143   7.845  10.963 -0.3711  0.8168  0.5665
  303MOL0     O40794   3.175   7.884  11.094 -0.6547  0.0279 -0.0160
  303MOL0     C40795   3.307   7.864  11.122 -0.0680 -0.2581 -0.0998
  303MOL0     C40796   3.399   7.973  11.134 -0.0342 -0.0117  1.0707
  303MOL0     C40797   3.537   7.947  11.149  0.6601 -0.0627  0.1586
  303MOL0     C40798   3.592   7.821  11.150  0.8464  0.3460 -1.0638
  303MOL0     C40799   3.743   7.803  11.166  0.1606  0.0812  0.0761
  303MOL0     O40800   3.816   7.914  11.152  0.2607  0.0517 -0.0737
  303MOL0     C40801   3.950   7.892  11.141  0.3128  0.3818 -0.4268
  303MOL0     C40802   4.026   7.910  11.029 -0.5190  0.5663 -0.3535
  303MOL0     C40803   4.162   7.911  11.022  0.1471  1.6163  0.7002
  303MOL0     C40804   4.223   7.889  11.140  0.0878  0.1503 -0.1467
  303MOL0     O40805   4.360   7.883  11.156  0.1434  0.1192  0.2499
  303MOL0     C40806   4.440   7.977  11.091 -0.7839  0.3137 -0.4782
  303MOL0     C40807   4.570   7.985  11.169 -0.7732  0.2172  0.7272
  303MOL0     C40808   4.689   7.993  11.067  0.6839  0.4636  0.1131
  303MOL0     C40809   4.826   8.017  11.141  0.1190  0.5473 -0.4644
  303MOL0     C40810   4.944   8.002  11.043 -0.6857 -0.4769  0.3941
  303MOL0     C40811   5.044   8.111  11.081 -0.0543  0.0596 -0.2501
  303MOL0     C40812   5.163   8.120  11.005 -1.7032 -0.3651  0.5906
  303MOL0     C40813   5.154   8.237  10.909  0.4746 -0.6576 -0.4401
  303MOL0    Cl40814   5.326   8.279  10.854 -0.2548 -0.0874 -0.1356
  303MOL0     C40815   4.152   7.867  11.265  0.9969  0.1895  0.0152
  303MOL0     C40816   4.019   7.866  11.261  0.3342 -0.0883 -0.4532
  303MOL0     O40817   3.787   7.690  11.157  0.6516  0.1846 -0.1933
  303MOL0     C40818   3.498   7.718  11.131 -0.3576  0.3077  0.1790
  303MOL0     C40819   3.365   7.738  11.109  0.7359 -0.1590  0.1650
  303MOL0     N40820   2.913   7.942  10.408  0.6208 -0.6612 -0.0232
  303MOL0     N40821   2.882   7.853  10.322 -0.0313 -0.1217 -0.7695
  303MOL0     C40822   3.648   7.278   9.661  0.5130  0.9339  0.4048
  303MOL0     C40823   3.748   7.176   9.641  0.4889 -0.2733 -0.5702
  303MOL0     C40824   4.109   6.897   9.658 -0.5639 -1.1506  1.6355
  303MOL0     C40825   4.203   6.938   9.755  0.0601  0.1281 -0.7467
  303MOL0     C40826   4.324   6.865   9.783 -0.7051 -0.5982 -0.4145
  303MOL0     C40827   4.352   6.752   9.701 -0.4125 -0.1206 -0.8241
  303MOL0     O40828   4.459   6.678   9.734  0.7941 -0.0841 -0.2831
  303MOL0     C40829   4.482   6.557   9.657  0.1540  0.6975  0.8949
  303MOL0     C40830   4.619   6.490   9.713  0.5330 -1.0468 -0.4851
  303MOL0     C40831   4.638   6.350   9.681  0.3570  0.0593 -0.0274
  303MOL0     C40832   4.788   6.299   9.702 -0.1451 -0.3775  0.0178
  303MOL0     C40833   4.866   6.359   9.593  1.3810  1.2912 -0.2180
  303MOL0     C40834   4.918   6.396   9.498 -0.1606 -0.0532  1.2629
  303MOL0     C40835   4.260   6.712   9.603  0.1338 -0.2037 -0.2705
  303MOL0     C40836   4.143   6.781   9.580  2.0671  0.1454 -0.4784
  303MOL0     C40837   4.045   6.717   9.481 -0.6262  0.4395  0.0937
  303MOL0     H40838   3.952   7.278   9.904  0.5491 -0.1055 -0.2777
  303MOL0     H40839   3.788   7.456   9.901  1.5067  2.0954 -2.8980
  303MOL0     H40840   3.515   7.560   9.591 -0.4889  5.3273  0.6950
  303MOL0     H40841   3.414   7.433   9.676  1.0046 -0.1515  1.2148
  303MOL0     H40842   3.344   7.695   9.680 -0.6715  0.8734  1.2810
  303MOL0     H40843   3.444   7.704   9.819 -0.5523  2.4038 -1.4717
  303MOL0     H40844   3.299   7.594   9.960 -0.6680  0.2109  0.1589
  303MOL0     H40845   3.278   7.463   9.850 -0.2860  0.7888 -1.2832
  303MOL0     H40846   3.135   7.720   9.809  1.6240  0.7198 -4.6723
  303MOL0     H40847   3.135   7.593   9.699  2.8549 -2.5581  0.0091
  303MOL0     H40848   2.940   7.557   9.814 -0.6610 -2.2846 -0.0869
  303MOL0     H40849   3.049   7.418   9.841  1.1262 -0.1223 -1.0167
  303MOL0     H40850   2.928   7.479  10.045 -0.5629  1.0867  2.5591
  303MOL0     H40851   3.106   7.487  10.061 -0.6031 -0.7072  1.5807
  303MOL0     H40852   2.936   7.741  10.051 -0.9389 -0.0193  3.2479
  303MOL0     H40853   3.113   7.707  10.080  0.0339 -0.1047 -3.0851
  303MOL0     H40854   2.857   7.634  10.234 -1.9198  6.6621  1.2593
  303MOL0     H40855   3.015   7.553  10.277 -1.6921 -0.3015  1.9792
  303MOL0     H40856   3.156   7.729  10.465 -0.0608  0.2829 -0.5371
  303MOL0     H40857   3.195   7.965  10.565 -0.3957 -2.5938 -2.2036
  303MOL0     H40858   3.057   8.076  10.602 -0.2197  0.0375  3.6952
  303MOL0     H40859   2.959   7.861  10.720 -1.2886  2.2076  0.2522
  303MOL0     H40860   3.117   7.791  10.703  0.7219  1.2770 -2.6162
  303MOL0     H40861   3.067   8.040  10.885  1.9985  0.4936  0.3339
  303MOL0     H40862   3.223   8.003  10.840  1.3436 -0.9193  4.4310
  303MOL0     H40863   3.211   7.771  10.920 -1.0247  2.2455 -3.3837
  303MOL0     H40864   3.048   7.793  10.981  0.4966 -1.2421 -0.4876
  303MOL0     H40865   3.366   8.076  11.127  1.9917  0.6119 -4.0813
  303MOL0     H40866   3.600   8.035  11.157  1.7600 -0.7803 -0.3934
  303MOL0     H40867   3.974   7.919  10.934  1.0390  0.9315 -1.2166
  303MOL0     H40868   4.235   7.918  10.942 -1.1944 -0.5893 -0.8332
  303MOL0     H40869   4.463   7.952  10.987  0.0587 -2.4079  0.2768
  303MOL0     H40870   4.389   8.073  11.083 -0.0973  0.6748 -0.6360
  303MOL0     H40871   4.571   8.075  11.231 -1.6225  1.6087 -1.1784
  303MOL0     H40872   4.591   7.892  11.223  1.1755 -1.7456 -3.0014
  303MOL0     H40873   4.704   7.917  10.990  0.3864  1.3874 -0.8804
  303MOL0     H40874   4.676   8.079  11.001  2.8601  0.2418 -0.6886
  303MOL0     H40875   4.847   7.956  11.230 -0.0337  0.4637 -0.4863
  303MOL0     H40876   4.819   8.119  11.180 -1.3745 -0.3149  1.7084
  303MOL0     H40877   4.906   8.008  10.941  2.2399 -0.4265 -0.7713
  303MOL0     H40878   4.996   7.907  11.055  1.8669  0.7248 -0.3881
  303MOL0     H40879   4.980   8.200  11.071  0.9589  0.7221 -1.1679
  303MOL0     H40880   5.087   8.098  11.181  2.6489 -0.9249 -1.4486
  303MOL0     H40881   5.190   8.026  10.956  1.9953  0.7563  0.1544
  303MOL0     H40882   5.249   8.128  11.072 -0.1873  0.1471 -1.3167
  303MOL0     H40883   5.094   8.228  10.818  1.3608  3.7306 -1.7242
  303MOL0     H40884   5.118   8.327  10.960 -0.5144 -0.9181 -0.6630
  303MOL0     H40885   4.209   7.833  11.351 -1.0897 -0.9623  1.0148
  303MOL0     H40886   3.967   7.865  11.356  0.0464  0.6151 -0.5970
  303MOL0     H40887   3.545   7.621  11.117  2.4968  1.6840 -0.4727
  303MOL0     H40888   3.301   7.650  11.101  1.0977 -0.5074  1.0285
  303MOL0     H40889   3.553   7.291   9.611  1.0387  0.5432 -0.7445
  303MOL0     H40890   3.740   7.095   9.569 -0.8728 -1.0638  0.4197
  303MOL0     H40891   4.191   7.032   9.808  0.5187  0.4438 -1.1975
  303MOL0     H40892   4.386   6.895   9.867 -1.8689  0.0363  0.2476
  303MOL0     H40893   4.483   6.583   9.551 -0.5890  3.6051  1.5244
  303MOL0     H40894   4.397   6.489   9.667 -0.1493  0.9100 -0.0822
  303MOL0     H40895   4.607   6.496   9.822  0.5390  2.1320 -0.5700
  303MOL0     H40896   4.699   6.553   9.674 -1.8402  1.5624 -1.4352
  303MOL0     H40897   4.606   6.324   9.580  1.8489  2.3926 -1.1740
  303MOL0     H40898   4.577   6.289   9.749  0.3147  0.6898  0.5049
  303MOL0     H40899   4.823   6.342   9.797  1.3472 -1.1795 -0.1420
  303MOL0     H40900   4.802   6.191   9.706  0.4133 -0.2832  1.4368
  303MOL0     H40901   4.961   6.429   9.406 -0.8031  2.6890  1.8667
  303MOL0     H40902   4.277   6.624   9.542 -1.1478 -2.0539  1.8666
  303MOL0     H40903   3.943   6.720   9.523 -0.7952  1.1376 -0.3493
  303MOL0     H40904   4.045   6.778   9.390 -2.2175 -1.1779 -1.0709
  303MOL0     H40905   4.075   6.615   9.459 -2.1194 -0.7341  2.9967
  304MOL0     O40906  11.006   0.518   8.984  0.1175  0.1699 -0.0070
  304MOL0     C40907  10.948   0.542   8.879  0.2163  0.3333  1.4543
  304MOL0     O40908  10.928   0.460   8.763 -0.8889 -0.2846  0.5473
  304MOL0     C40909  10.960   0.330   8.791 -0.8925  0.2602  0.9183
  304MOL0     C40910  10.879   0.249   8.872  0.2212 -0.0573  0.1521
  304MOL0     C40911  10.902   0.112   8.868 -0.2867  1.5999  0.8606
  304MOL0     C40912  11.003   0.049   8.788 -0.4785  0.0973 -0.3027
  304MOL0     O40913  11.034  -0.087   8.798  0.2168 -0.0538  0.1278
  304MOL0     C40914  10.989  -0.155   8.920 -0.2398  1.4477 -0.2157
  304MOL0     C40915  11.051  -0.301   8.935  1.2126  1.0473  0.9110
  304MOL0     C40916  11.078  -0.344   9.080 -0.1955 -0.4645  0.0191
  304MOL0     C40917  11.126  -0.490   9.095  0.1771  0.4422 -1.6174
  304MOL0     C40918  11.268  -0.510   9.058 -0.9915 -0.1918 -0.7309
  304MOL0     C40919  11.304  -0.585   8.933  0.6619 -0.3294  0.3329
  304MOL0     C40920  11.374  -0.725   8.959  0.9627  0.6301  0.1156
  304MOL0     C40921  11.441  -0.774   8.827 -0.2449 -0.0251 -0.4717
  304MOL0     N40922  11.520  -0.895   8.834 -0.3068 -0.5041  0.5964
  304MOL0     C40923  11.469  -1.023   8.837 -0.7194 -0.2366  0.2174
  304MOL0     C40924  11.571  -1.100   8.891  0.0875 -0.2978  0.2191
  304MOL0     C40925  11.561  -1.237   8.949  0.2932 -0.1459 -0.0353
  304MOL0     C40926  11.581  -1.229   9.095  0.6821  0.0122 -0.0212
  304MOL0     C40927  11.461  -1.168   9.169  0.7353  0.5871  0.5739
  304MOL0     C40928  11.478  -1.012   9.189  0.3001  0.9918  0.2122
  304MOL0     O40929  11.349  -0.984   9.237 -0.1827  0.4044  0.2135
  304MOL0     C40930  11.331  -0.882   9.326  0.5511 -0.4584  0.0651
  304MOL0     C40931  11.426  -0.806   9.396  0.3717 -0.1074  0.7513
  304MOL0     C40932  11.394  -0.704   9.484 -0.5872  0.1190 -0.6435
  304MOL0     C40933  11.263  -0.685   9.530 -0.3435 -0.5063  0.4876
  304MOL0     C40934  11.217  -0.584   9.626 -0.3758 -0.1028  0.3778
  304MOL0     O40935  11.090  -0.532   9.617  0.0652  0.0112 -0.1747
  304MOL0     C40936  11.057  -0.426   9.691  0.2834 -0.3600  0.9085
  304MOL0     C40937  11.115  -0.297   9.647 -1.0478 -0.7895 -0.2750
  304MOL0     C40938  11.078  -0.183   9.713 -0.2284 -0.3209  0.2484
  304MOL0     C40939  10.963  -0.180   9.794 -0.3563  0.3099  0.4633
  304MOL0     O40940  10.917  -0.065   9.861 -0.4461  0.2778 -0.4918
  304MOL0     C40941  10.894   0.047   9.772 -0.7538  0.6625 -0.2638
  304MOL0     C40942  10.787   0.141   9.819 -0.3997 -0.0828 -0.7161
  304MOL0     C40943  10.658   0.055   9.810  0.2522 -0.0920 -1.4036
  304MOL0     C40944  10.535   0.134   9.850 -0.0807 -0.7788 -0.0223
  304MOL0     C40945  10.544   0.174   9.999  0.1470  1.2206 -0.4830
  304MOL0     C40946  10.569   0.057  10.108 -0.1399 -0.2067  1.1699
  304MOL0     C40947  10.581   0.099  10.249 -0.6630  0.2240 -0.5682
  304MOL0     C40948  10.587  -0.031  10.324 -0.2833  0.1060 -0.3699
  304MOL0    Cl40949  10.638  -0.008  10.500  0.0820  0.0768 -0.0949
  304MOL0     C40950  10.920  -0.303   9.843 -0.3912 -0.9537 -0.3991
  304MOL0     C40951  10.954  -0.427   9.790  0.5408 -0.6327  0.9051
  304MOL0     O40952  11.305  -0.541   9.700  0.3524  0.4591 -0.0932
  304MOL0     C40953  11.162  -0.751   9.456  0.2307  1.0305  0.1117
  304MOL0     C40954  11.199  -0.851   9.359  0.5152 -0.5859  0.7649
  304MOL0     N40955  11.680  -1.013   8.907  0.4299  0.7261  0.6328
  304MOL0     N40956  11.645  -0.893   8.874 -1.1049 -0.9621 -0.1263
  304MOL0     C40957  11.076   0.135   8.710 -0.9019 -0.5762 -0.3553
  304MOL0     C40958  11.056   0.275   8.711  0.6151  1.0162  0.6408
  304MOL0     C40959  10.934   0.684   8.853  0.1153 -0.5086  0.5286
  304MOL0     C40960  11.050   0.759   8.821  0.1370 -1.0705 -1.0112
  304MOL0     C40961  11.049   0.895   8.783 -1.0050  0.8292 -0.1935
  304MOL0     C40962  10.924   0.958   8.788  0.0227 -0.4038  0.5237
  304MOL0     O40963  10.897   1.091   8.759  0.3708 -0.0643  0.2483
  304MOL0     C40964  10.958   1.163   8.659 -0.0224  0.4229  0.1532
  304MOL0     C40965  10.880   1.158   8.533  0.7292  0.2829  0.3002
  304MOL0     C40966  10.735   1.217   8.543 -0.2551 -0.1006  0.7690
  304MOL0     C40967  10.668   1.219   8.403 -0.6905 -0.2411 -0.6604
  304MOL0     C40968  10.526   1.260   8.424  0.2736  0.0911 -0.2172
  304MOL0     C40969  10.405   1.267   8.448 -0.4559 -0.7797  1.2582
  304MOL0     C40970  10.813   0.887   8.818  0.7162 -0.6023  0.0865
  304MOL0     C40971  10.812   0.747   8.851 -0.3882  0.2204  0.3233
  304MOL0     C40972  10.687   0.675   8.875  0.5729  0.5585  0.1770
  304MOL0     H40973  10.791   0.295   8.917 -1.2390 -1.1124 -1.5202
  304MOL0     H40974  10.825   0.052   8.916  3.0607 -1.6863  2.6786
  304MOL0     H40975  11.024  -0.095   9.004  0.9392  0.2240  0.1928
  304MOL0     H40976  10.881  -0.165   8.935 -0.4098  0.9670 -1.5959
  304MOL0     H40977  11.148  -0.314   8.886  1.3102 -2.3275  1.7394
  304MOL0     H40978  10.991  -0.384   8.896  0.6935  0.5260  2.6900
  304MOL0     H40979  10.981  -0.342   9.130  0.6747 -1.8820  1.9092
  304MOL0     H40980  11.134  -0.267   9.134 -1.3893  0.6851 -0.3430
  304MOL0     H40981  11.129  -0.509   9.203  2.4772 -0.8595 -1.8476
  304MOL0     H40982  11.051  -0.554   9.048 -1.7860  1.4303 -0.0311
  304MOL0     H40983  11.305  -0.408   9.044  1.1102 -0.8243 -0.1039
  304MOL0     H40984  11.316  -0.556   9.145 -2.0845  1.1451  0.6404
  304MOL0     H40985  11.206  -0.603   8.886  1.1553  1.0559 -1.3253
  304MOL0     H40986  11.349  -0.517   8.860  1.9629  0.6012  1.9397
  304MOL0     H40987  11.310  -0.801   9.004 -1.0859  1.6428 -0.9305
  304MOL0     H40988  11.453  -0.718   9.034  0.6489 -3.5614  1.0763
  304MOL0     H40989  11.360  -0.778   8.752 -2.2037 -0.6368  1.5621
  304MOL0     H40990  11.512  -0.698   8.792  0.4539 -0.4869 -0.0544
  304MOL0     H40991  11.363  -1.045   8.830 -1.4039  2.2500  1.6694
  304MOL0     H40992  11.461  -1.274   8.921 -0.7511  2.7047 -0.3987
  304MOL0     H40993  11.632  -1.313   8.915 -1.8723 -3.2696  1.8902
  304MOL0     H40994  11.594  -1.331   9.131 -1.1099 -0.0332  0.6243
  304MOL0     H40995  11.673  -1.171   9.105 -0.0116  0.9708  1.1668
  304MOL0     H40996  11.457  -1.205   9.272  1.9478 -0.5234  0.2506
  304MOL0     H40997  11.366  -1.201   9.126  1.6890 -1.1051 -0.3101
  304MOL0     H40998  11.517  -0.963   9.099 -1.0766  0.8562 -0.4768
  304MOL0     H40999  11.556  -0.983   9.260 -0.2822  1.2440  0.7608
  304MOL0     H41000  11.534  -0.820   9.389  0.6066  1.5095  0.7534
  304MOL0     H41001  11.482  -0.658   9.529 -1.7370  1.3608  0.3957
  304MOL0     H41002  11.193  -0.305   9.572  0.1345 -2.4102  1.0510
  304MOL0     H41003  11.118  -0.083   9.714 -0.1101 -0.3357 -1.4503
  304MOL0     H41004  10.985   0.108   9.774 -0.1093 -0.1979  3.0216
  304MOL0     H41005  10.872   0.011   9.671 -4.8789 -1.7954  1.2562
  304MOL0     H41006  10.811   0.177   9.920 -2.9171 -1.2893  0.4187
  304MOL0     H41007  10.783   0.224   9.747  1.4559  1.0319  0.3744
  304MOL0     H41008  10.648  -0.005   9.719  0.1599 -4.0397  0.9747
  304MOL0     H41009  10.664  -0.029   9.880  1.7799 -0.8427 -2.3803
  304MOL0     H41010  10.439   0.087   9.828 -1.2453  2.7105 -3.3648
  304MOL0     H41011  10.533   0.225   9.789 -4.6668  0.3226  1.3547
  304MOL0     H41012  10.462   0.237  10.037  1.4365  1.6332  1.7721
  304MOL0     H41013  10.632   0.238  10.008  0.4435  0.8658 -0.8362
  304MOL0     H41014  10.489  -0.014  10.082  0.0628 -0.1822  0.4559
  304MOL0     H41015  10.665   0.008  10.085 -0.6373 -1.2803  1.2964
  304MOL0     H41016  10.497   0.155  10.291  0.8680  0.3355  2.6862
  304MOL0     H41017  10.674   0.152  10.272 -0.3789 -1.3812  2.6590
  304MOL0     H41018  10.486  -0.072  10.330 -0.6145  0.9418 -0.0093
  304MOL0     H41019  10.660  -0.100  10.280  0.4667  1.3248 -1.0854
  304MOL0     H41020  10.851  -0.301   9.927  2.9702  2.3413  2.6513
  304MOL0     H41021  10.921  -0.516   9.842  0.0587  0.7081  3.0118
  304MOL0     H41022  11.059  -0.729   9.482  0.1042  0.8370 -0.2107
  304MOL0     H41023  11.120  -0.896   9.299  1.3959 -1.1032 -0.0308
  304MOL0     H41024  11.151   0.085   8.650  0.7013  0.5313  0.6661
  304MOL0     H41025  11.104   0.344   8.643  0.8290  1.7884  1.5581
  304MOL0     H41026  11.143   0.704   8.812  0.4598 -0.5087 -1.1435
  304MOL0     H41027  11.138   0.942   8.743 -0.5823  0.8076  0.6968
  304MOL0     H41028  11.060   1.130   8.638  0.6493  1.2959  1.8305
  304MOL0     H41029  10.956   1.265   8.697 -3.9608  0.2967  0.7387
  304MOL0     H41030  10.869   1.053   8.504  0.7194  0.6665 -1.1866
  304MOL0     H41031  10.933   1.214   8.455  2.3137 -1.3299  0.1657
  304MOL0     H41032  10.745   1.321   8.575 -2.3956 -0.1901  1.9280
  304MOL0     H41033  10.676   1.164   8.619  0.9260  1.0114  2.5508
  304MOL0     H41034  10.725   1.274   8.328  3.2820  0.5242  2.5009
  304MOL0     H41035  10.659   1.113   8.375  1.6310 -1.1279  1.4928
  304MOL0     H41036  10.301   1.279   8.469 -0.5661 -0.2255  0.4281
  304MOL0     H41037  10.720   0.940   8.801  0.4857 -0.9596  0.2149
  304MOL0     H41038  10.599   0.739   8.874 -1.1526 -1.7043 -0.4955
  304MOL0     H41039  10.676   0.609   8.787 -2.5109  1.3262 -0.1269
  304MOL0     H41040  10.685   0.608   8.961 -1.7140 -1.1665 -1.1013
  305MOL0     O41041   6.933  11.172   3.431 -0.5264  0.5026  0.5787
  305MOL0     C41042   6.932  11.109   3.535 -1.1209  0.4095 -0.1396
  305MOL0     O41043   6.907  11.151   3.664 -0.2988 -0.2972  0.1719
  305MOL0     C41044   6.879  11.290   3.701 -0.5501 -0.4346 -0.6232
  305MOL0     C41045   6.909  11.316   3.840 -0.4162  0.2893 -0.1370
  305MOL0     C41046   6.899  11.448   3.887  1.0655 -0.5252 -0.7192
  305MOL0     C41047   6.864  11.557   3.813 -0.4144 -0.3058 -0.0309
  305MOL0     O41048   6.854  11.679   3.881  0.7592  0.1201  0.9116
  305MOL0     C41049   6.803  11.797   3.810 -0.2951  0.2319  0.1307
  305MOL0     C41050   6.828  11.905   3.910 -0.1993  1.0801 -1.0333
  305MOL0     C41051   6.799  12.048   3.881 -0.1513  0.1396  0.0328
  305MOL0     C41052   6.882  12.104   3.765 -0.6477 -0.6194  0.1888
  305MOL0     C41053   7.029  12.093   3.779 -0.3560  0.0944 -1.0360
  305MOL0     C41054   7.084  12.138   3.915  0.3569 -0.9050  0.1926
  305MOL0     C41055   7.244  12.152   3.922  0.4587  0.1181 -0.1638
  305MOL0     C41056   7.324  12.271   3.841  0.2162  0.3944 -0.4005
  305MOL0     N41057   7.418  12.350   3.922 -0.4036  0.9024  0.5088
  305MOL0     C41058   7.430  12.483   3.919  0.6323  0.1700 -0.3580
  305MOL0     C41059   7.544  12.522   3.984  0.5411 -0.1739  1.1808
  305MOL0     C41060   7.593  12.670   3.991 -0.4112 -0.6910  0.3197
  305MOL0     C41061   7.709  12.695   4.078 -0.5451  0.1724  0.0978
  305MOL0     C41062   7.679  12.670   4.226 -0.1354  0.3829  0.7725
  305MOL0     C41063   7.607  12.794   4.281 -0.8338  0.3412 -0.4543
  305MOL0     O41064   7.592  12.767   4.424  0.3951 -0.5952  0.7999
  305MOL0     C41065   7.691  12.801   4.514  1.3409 -0.3241 -0.4097
  305MOL0     C41066   7.675  12.759   4.642 -1.4679 -0.7672 -0.0265
  305MOL0     C41067   7.776  12.767   4.741 -0.1835 -0.5183 -1.2217
  305MOL0     C41068   7.893  12.828   4.707 -0.1052  0.1760  0.4230
  305MOL0     C41069   8.012  12.848   4.795 -0.5180  0.4416  0.1960
  305MOL0     O41070   8.128  12.874   4.729 -0.0636 -0.2984 -0.2225
  305MOL0     C41071   8.244  12.850   4.800 -0.1300 -1.3057 -0.6794
  305MOL0     C41072   8.276  12.733   4.864 -0.5408 -0.2229 -0.2026
  305MOL0     C41073   8.407  12.706   4.898 -0.1125  0.3784  0.5589
  305MOL0     C41074   8.512  12.799   4.877 -0.4721 -0.4137  0.1559
  305MOL0     O41075   8.643  12.782   4.920  0.2577  0.2489 -0.1159
  305MOL0     C41076   8.675  12.691   5.026  0.2779 -0.2596  0.4059
  305MOL0     C41077   8.613  12.747   5.156 -0.3880 -0.5751 -0.0398
  305MOL0     C41078   8.665  12.681   5.279  0.4615  0.2115 -0.8202
  305MOL0     C41079   8.589  12.732   5.401 -0.2589  0.6008  0.2864
  305MOL0     C41080   8.627  12.677   5.539  0.0698  0.5402  0.8312
  305MOL0     C41081   8.508  12.726   5.631 -0.2771  0.2733 -0.1548
  305MOL0     C41082   8.531  12.685   5.774  0.3584 -0.6568 -0.1535
  305MOL0     C41083   8.396  12.682   5.853 -0.1952  0.2882  0.1438
  305MOL0    Cl41084   8.332  12.850   5.883  0.4799 -0.0064  0.4533
  305MOL0     C41085   8.478  12.912   4.815  0.7224  0.4607 -0.6277
  305MOL0     C41086   8.350  12.943   4.771 -0.0485  0.5753  0.2781
  305MOL0     O41087   7.996  12.827   4.915 -0.3090 -0.4267  0.1408
  305MOL0     C41088   7.907  12.883   4.579  0.1521  0.5282 -0.6197
  305MOL0     C41089   7.804  12.876   4.489  1.1598  0.2507  1.0118
  305MOL0     N41090   7.598  12.405   4.029 -0.1208 -0.4499 -0.0634
  305MOL0     N41091   7.524  12.307   3.991 -0.6938  0.8441  0.5122
  305MOL0     C41092   6.828  11.532   3.681 -0.7797  0.7009 -0.3819
  305MOL0     C41093   6.842  11.399   3.620  1.2791  0.4245  0.2885
  305MOL0     C41094   6.953  10.960   3.535 -0.1374 -0.4813  0.0850
  305MOL0     C41095   6.881  10.872   3.618 -0.5943 -0.0137 -0.5944
  305MOL0     C41096   6.903  10.742   3.633  0.2469  0.4377  0.9719
  305MOL0     C41097   7.004  10.678   3.558  0.1950 -0.0365 -0.7397
  305MOL0     O41098   7.035  10.549   3.574 -0.3409 -0.5326  0.0581
  305MOL0     C41099   6.995  10.454   3.470  0.7008  0.3652  0.6162
  305MOL0     C41100   7.068  10.322   3.483 -0.2571  0.8535  0.2092
  305MOL0     C41101   7.038  10.226   3.608  0.0413  0.2931  0.5889
  305MOL0     C41102   6.955  10.095   3.578  0.3120  0.1471 -1.1898
  305MOL0     C41103   6.923  10.037   3.707 -1.0049 -0.1586 -0.1951
  305MOL0     C41104   6.900   9.987   3.815 -0.8998 -0.6543  0.1018
  305MOL0     C41105   7.073  10.754   3.464  0.6016 -0.5914  0.3572
  305MOL0     C41106   7.046  10.894   3.447  0.3679  0.5286  0.5548
  305MOL0     C41107   7.124  10.972   3.352 -0.0230  0.3589 -0.4830
  305MOL0     H41108   6.940  11.232   3.902 -1.5631 -1.2335 -1.5304
  305MOL0     H41109   6.917  11.468   3.992  0.1919 -1.8603 -0.2889
  305MOL0     H41110   6.858  11.821   3.719 -1.4095 -1.2043 -0.9649
  305MOL0     H41111   6.696  11.783   3.792 -0.3575  0.3549  0.3912
  305MOL0     H41112   6.933  11.889   3.938  0.1848 -0.5872 -3.1962
  305MOL0     H41113   6.780  11.876   4.004 -1.4104 -1.8878 -2.4571
  305MOL0     H41114   6.810  12.113   3.968  0.3952  0.3515 -0.1906
  305MOL0     H41115   6.702  12.058   3.833 -0.6058 -2.0511  0.3644
  305MOL0     H41116   6.855  12.051   3.673 -0.3527  0.1870 -0.3741
  305MOL0     H41117   6.853  12.204   3.731 -0.3519 -0.7563 -0.4847
  305MOL0     H41118   7.059  11.990   3.759  0.7840 -0.3658  2.4105
  305MOL0     H41119   7.064  12.160   3.699  1.6811 -1.3101 -1.3791
  305MOL0     H41120   7.030  12.227   3.951  0.6169 -1.1153  1.1110
  305MOL0     H41121   7.057  12.054   3.979  1.4097  0.6118  2.7565
  305MOL0     H41122   7.287  12.059   3.883  2.7431  1.3907 -0.8033
  305MOL0     H41123   7.279  12.162   4.025 -0.5096  2.4603  0.0111
  305MOL0     H41124   7.383  12.213   3.770 -0.6552 -0.8291 -0.1523
  305MOL0     H41125   7.251  12.328   3.782 -0.9607 -0.3085  0.3209
  305MOL0     H41126   7.357  12.545   3.868 -0.6293 -0.5324  0.5286
  305MOL0     H41127   7.611  12.702   3.887 -2.7385 -1.3250 -0.3316
  305MOL0     H41128   7.510  12.735   4.018 -0.5163 -0.8506  0.3784
  305MOL0     H41129   7.789  12.629   4.044 -1.1125 -0.4016 -0.1593
  305MOL0     H41130   7.748  12.795   4.061 -1.3218  0.5311  0.3726
  305MOL0     H41131   7.777  12.676   4.275 -0.6121  1.0788  1.6935
  305MOL0     H41132   7.627  12.575   4.240  0.7972  0.0702  2.4080
  305MOL0     H41133   7.507  12.800   4.237 -0.2826 -0.8255 -1.9795
  305MOL0     H41134   7.663  12.880   4.246  1.7862 -0.4874  1.3949
  305MOL0     H41135   7.573  12.726   4.663 -1.5054 -0.2088  0.7036
  305MOL0     H41136   7.760  12.732   4.843 -0.2045  3.4459  0.3197
  305MOL0     H41137   8.195  12.665   4.888 -1.0311 -0.1674 -1.6186
  305MOL0     H41138   8.414  12.615   4.956 -1.0347 -0.0179  0.0752
  305MOL0     H41139   8.647  12.587   5.010  1.0949 -0.3264 -0.6715
  305MOL0     H41140   8.783  12.699   5.045  0.0754  3.7713  0.6923
  305MOL0     H41141   8.626  12.855   5.168  0.2525 -0.3723 -2.0998
  305MOL0     H41142   8.506  12.725   5.148 -0.1396 -1.9677  0.1512
  305MOL0     H41143   8.641  12.574   5.279  2.3256 -0.2968  1.8430
  305MOL0     H41144   8.772  12.698   5.294  0.5572 -1.1756  0.3134
  305MOL0     H41145   8.487  12.699   5.379  1.4394 -1.7449 -6.2433
  305MOL0     H41146   8.581  12.841   5.394 -1.0325  0.5412  0.1536
  305MOL0     H41147   8.722  12.725   5.564  0.1396  1.7980 -1.5434
  305MOL0     H41148   8.638  12.569   5.546  1.1602  0.7067  2.0900
  305MOL0     H41149   8.489  12.833   5.623  3.2629  1.1286  1.0888
  305MOL0     H41150   8.417  12.682   5.589 -0.1345  0.3293 -0.5269
  305MOL0     H41151   8.613  12.745   5.813  1.0368 -1.2307 -0.6836
  305MOL0     H41152   8.570  12.583   5.780  1.3264 -0.2188  3.1844
  305MOL0     H41153   8.320  12.622   5.803  0.6680 -1.0091  0.3261
  305MOL0     H41154   8.406  12.624   5.946 -3.2922 -3.0888 -1.3815
  305MOL0     H41155   8.560  12.979   4.790  0.7885  1.7108  2.4568
  305MOL0     H41156   8.338  13.033   4.713  0.3703  0.7319  0.4341
  305MOL0     H41157   7.993  12.937   4.539  1.9996 -0.4526  1.7526
  305MOL0     H41158   7.818  12.920   4.391 -1.5643 -1.1583 -0.1236
  305MOL0     H41159   6.795  11.621   3.628 -3.0307  1.6827  2.4546
  305MOL0     H41160   6.819  11.396   3.514 -1.3407  0.7122  0.7741
  305MOL0     H41161   6.806  10.912   3.686  0.0209 -0.7947  0.5802
  305MOL0     H41162   6.839  10.679   3.693  0.8194  0.1814  1.3102
  305MOL0     H41163   7.027  10.501   3.377  0.7764  1.2913  1.0939
  305MOL0     H41164   6.889  10.430   3.480  0.9300 -0.6757  0.6453
  305MOL0     H41165   7.177  10.335   3.480  0.4360 -3.6253  0.1486
  305MOL0     H41166   7.031  10.277   3.391 -1.2992  2.8152 -0.4046
  305MOL0     H41167   6.984  10.292   3.677 -0.8940  0.9021 -0.6731
  305MOL0     H41168   7.132  10.197   3.655  0.7345  1.5522  0.0362
  305MOL0     H41169   6.869  10.127   3.519  1.8772  3.7439 -1.7818
  305MOL0     H41170   7.015  10.023   3.522 -0.0475 -1.1072 -0.0126
  305MOL0     H41171   6.876   9.959   3.915 -0.5075  2.2524  1.1096
  305MOL0     H41172   7.147  10.711   3.398 -0.7535  0.5564 -2.0524
  305MOL0     H41173   7.193  10.904   3.302 -0.1261  1.7490 -2.7043
  305MOL0     H41174   7.060  11.011   3.272 -0.3969 -2.6685 -1.7873
  305MOL0     H41175   7.169  11.054   3.408 -2.4114  2.4010 -1.3517
  306MOL0     O41176   3.036   5.715   2.546  0.7075  0.2974  0.2821
  306MOL0     C41177   3.030   5.824   2.481 -0.6525  1.1601 -0.4128
  306MOL0     O41178   3.139   5.890   2.436 -0.0856  0.3743 -0.2337
  306MOL0     C41179   3.260   5.845   2.472 -0.1788  0.2098  0.8186
  306MOL0     C41180   3.340   5.782   2.369  0.9266 -0.2647  0.1927
  306MOL0     C41181   3.470   5.755   2.397 -1.6728  0.1890  0.2285
  306MOL0     C41182   3.516   5.750   2.529 -0.2949  0.3922 -0.6529
  306MOL0     O41183   3.649   5.701   2.543  0.5810  0.5578  0.2416
  306MOL0     C41184   3.705   5.718   2.675 -0.2646  0.0599 -0.5438
  306MOL0     C41185   3.859   5.705   2.661 -0.7182  0.6879  0.3584
  306MOL0     C41186   3.935   5.714   2.795 -0.0239 -0.2729  0.0418
  306MOL0     C41187   4.084   5.689   2.782 -0.6504 -0.5185  0.0602
  306MOL0     C41188   4.161   5.813   2.799 -0.2470 -0.4718  0.4478
  306MOL0     C41189   4.303   5.792   2.773  0.3116 -0.4477 -0.7667
  306MOL0     C41190   4.388   5.922   2.767  0.0690 -0.5377  0.3973
  306MOL0     C41191   4.407   5.984   2.630  0.7169  0.3368  0.3269
  306MOL0     N41192   4.499   6.100   2.635 -0.3569 -0.6841 -0.7079
  306MOL0     C41193   4.468   6.222   2.681  0.5918 -0.0627  1.2309
  306MOL0     C41194   4.578   6.300   2.702  0.3248  0.1177 -0.0834
  306MOL0     C41195   4.592   6.434   2.764 -0.1572 -0.5801  0.8964
  306MOL0     C41196   4.650   6.533   2.662  0.0116  0.4777  1.1235
  306MOL0     C41197   4.623   6.676   2.710 -0.6262  0.8734  0.5137
  306MOL0     C41198   4.478   6.716   2.686  0.7799 -1.0559 -0.2273
  306MOL0     O41199   4.436   6.822   2.778 -0.2866  0.2163  0.1369
  306MOL0     C41200   4.363   6.776   2.890 -0.2559 -0.2678  0.2720
  306MOL0     C41201   4.418   6.807   3.015 -0.8262  0.8237  0.6711
  306MOL0     C41202   4.336   6.774   3.128 -0.2212 -0.2490  0.8213
  306MOL0     C41203   4.212   6.712   3.119 -0.0393  0.3821  0.6180
  306MOL0     C41204   4.136   6.693   3.250  0.5632  0.7262  0.7478
  306MOL0     O41205   4.027   6.610   3.237 -0.0946  0.5042 -0.1907
  306MOL0     C41206   3.932   6.605   3.331  1.2243  0.3903  0.2351
  306MOL0     C41207   3.935   6.505   3.428  0.4852 -0.2519 -0.3661
  306MOL0     C41208   3.834   6.501   3.526 -0.8257 -1.0031 -0.3857
  306MOL0     C41209   3.724   6.599   3.516 -0.1493  1.8725 -0.0971
  306MOL0     O41210   3.611   6.599   3.597 -0.0447  0.0428 -0.6803
  306MOL0     C41211   3.628   6.598   3.740 -0.3737  0.2111 -0.0180
  306MOL0     C41212   3.694   6.724   3.787  0.6672 -0.0645 -0.6233
  306MOL0     C41213   3.679   6.755   3.941  0.4430  0.1960 -0.0846
  306MOL0     C41214   3.769   6.863   3.987 -0.2280  0.2529  0.1723
  306MOL0     C41215   3.737   6.908   4.133 -0.3643  0.7969  0.1661
  306MOL0     C41216   3.632   7.019   4.142  0.3859 -0.4921  0.5258
  306MOL0     C41217   3.575   7.018   4.291 -0.3970 -0.3606 -0.5244
  306MOL0     C41218   3.546   7.155   4.345 -0.3958  0.0184  1.0254
  306MOL0    Cl41219   3.457   7.128   4.500 -0.1645 -0.1235 -0.4167
  306MOL0     C41220   3.726   6.689   3.412  0.7338  0.0172 -0.3840
  306MOL0     C41221   3.821   6.685   3.315  0.4342 -0.6074 -0.0557
  306MOL0     O41222   4.183   6.735   3.358  0.0698 -0.4246  0.0641
  306MOL0     C41223   4.160   6.688   2.988 -0.1065  0.6799  0.3303
  306MOL0     C41224   4.237   6.709   2.873  0.0153 -0.1863  0.2715
  306MOL0     N41225   4.672   6.218   2.652 -0.3987  0.6547  0.1123
  306MOL0     N41226   4.631   6.098   2.624 -0.7380 -0.1844 -0.5998
  306MOL0     C41227   3.437   5.791   2.636 -0.1380 -1.3864 -0.5919
  306MOL0     C41228   3.314   5.838   2.600  0.5411 -0.5566 -0.3046
  306MOL0     C41229   2.895   5.876   2.434 -0.3825  0.2953 -0.1739
  306MOL0     C41230   2.900   5.958   2.314  0.0287 -0.0066  0.1891
  306MOL0     C41231   2.783   6.012   2.272  0.0508 -0.0264  0.6015
  306MOL0     C41232   2.672   6.008   2.358  0.9440 -0.3046 -0.4271
  306MOL0     O41233   2.559   6.089   2.340 -0.6913  0.9409  0.4421
  306MOL0     C41234   2.532   6.166   2.218 -0.3339  0.1380  0.1192
  306MOL0     C41235   2.391   6.220   2.226  0.2234  0.0968 -0.3387
  306MOL0     C41236   2.372   6.305   2.099  0.0379 -0.4479 -0.0859
  306MOL0     C41237   2.388   6.241   1.957  0.0857  0.3312 -0.2905
  306MOL0     C41238   2.283   6.138   1.938  0.2447  1.2151  0.6320
  306MOL0     C41239   2.193   6.060   1.904  0.3427 -0.3204  0.2802
  306MOL0     C41240   2.674   5.928   2.469  0.5056  0.0892  0.8828
  306MOL0     C41241   2.780   5.847   2.505  0.1239 -0.5942 -0.4529
  306MOL0     C41242   2.777   5.767   2.635 -0.7625  0.9174  0.1770
  306MOL0     H41243   3.304   5.766   2.268 -0.7246 -2.7599  1.0981
  306MOL0     H41244   3.529   5.722   2.313 -1.0679  1.5877  0.0755
  306MOL0     H41245   3.681   5.820   2.709 -1.3521 -0.4842  0.3972
  306MOL0     H41246   3.655   5.644   2.738  0.3409 -1.2021 -1.5106
  306MOL0     H41247   3.890   5.785   2.593 -0.6689 -1.2480 -2.0412
  306MOL0     H41248   3.868   5.608   2.610 -0.2160  0.9073  0.0161
  306MOL0     H41249   3.903   5.639   2.868  0.6173 -1.8825 -1.2693
  306MOL0     H41250   3.905   5.809   2.839 -2.6459 -2.3332  3.2026
  306MOL0     H41251   4.119   5.639   2.873  0.2773  0.4483  0.2497
  306MOL0     H41252   4.119   5.644   2.688  1.2423  2.3161 -0.7245
  306MOL0     H41253   4.115   5.883   2.729  0.7329 -0.0706  0.1781
  306MOL0     H41254   4.146   5.847   2.902  0.2918  1.4087 -0.0549
  306MOL0     H41255   4.344   5.736   2.858 -1.6744 -1.3126 -0.3347
  306MOL0     H41256   4.310   5.730   2.682 -0.5870 -2.7479  0.6600
  306MOL0     H41257   4.483   5.877   2.795  0.2365 -0.5604 -0.1931
  306MOL0     H41258   4.351   5.997   2.837  0.8624  1.1808 -0.9566
  306MOL0     H41259   4.434   5.905   2.559 -1.9333 -0.9052  0.5577
  306MOL0     H41260   4.310   6.016   2.588  0.2504 -3.3765 -1.8496
  306MOL0     H41261   4.368   6.254   2.709  0.7140  1.1663  0.3038
  306MOL0     H41262   4.493   6.464   2.800  1.1481  0.0581  4.3074
  306MOL0     H41263   4.664   6.424   2.846  2.2206 -1.0217 -1.1426
  306MOL0     H41264   4.758   6.516   2.653 -0.4496 -2.5860  0.3066
  306MOL0     H41265   4.613   6.516   2.560  0.1837  3.6164  0.4342
  306MOL0     H41266   4.688   6.746   2.657 -0.6466  0.1720 -0.4702
  306MOL0     H41267   4.653   6.695   2.813  2.0026 -2.1435  0.4422
  306MOL0     H41268   4.409   6.633   2.700  0.5452 -0.8199  0.0282
  306MOL0     H41269   4.465   6.758   2.586 -3.1723  3.3108  1.7620
  306MOL0     H41270   4.518   6.850   3.018 -0.4655 -0.0195  3.9172
  306MOL0     H41271   4.385   6.783   3.224 -0.5685  1.2351  0.8829
  306MOL0     H41272   4.013   6.430   3.436 -0.6235 -1.6624 -2.1659
  306MOL0     H41273   3.852   6.434   3.609 -0.8638  2.0282  2.2598
  306MOL0     H41274   3.527   6.610   3.782 -0.9229  3.0620 -1.8675
  306MOL0     H41275   3.676   6.510   3.785 -0.3571 -1.0043 -2.2946
  306MOL0     H41276   3.803   6.728   3.774  0.6468  0.3125 -0.6970
  306MOL0     H41277   3.643   6.806   3.735 -0.9227 -0.8693 -0.3776
  306MOL0     H41278   3.579   6.789   3.972  1.4320  2.2147  1.1336
  306MOL0     H41279   3.701   6.660   3.990 -1.1398  1.6969  4.0114
  306MOL0     H41280   3.772   6.945   3.916  4.5157  0.1201 -0.0895
  306MOL0     H41281   3.872   6.827   3.980 -0.4333  0.0217 -2.6013
  306MOL0     H41282   3.826   6.942   4.187 -1.1426 -0.4558  2.3776
  306MOL0     H41283   3.695   6.824   4.189  0.9086 -0.2620 -0.4086
  306MOL0     H41284   3.689   7.108   4.116  0.6867 -1.1366 -1.1464
  306MOL0     H41285   3.549   7.008   4.070 -0.8723  2.2316  1.4425
  306MOL0     H41286   3.634   6.969   4.368  0.2628  1.5321  0.2200
  306MOL0     H41287   3.479   6.966   4.282 -0.4092 -1.0583  2.4922
  306MOL0     H41288   3.641   7.206   4.360 -0.9222  1.6598 -0.7520
  306MOL0     H41289   3.486   7.209   4.271 -3.1961 -2.9425  0.9031
  306MOL0     H41290   3.636   6.749   3.403  0.1713 -0.5807  0.9164
  306MOL0     H41291   3.807   6.757   3.235  0.7511  2.9856  2.8394
  306MOL0     H41292   4.069   6.633   2.965  0.8224 -0.4403 -0.7808
  306MOL0     H41293   4.199   6.694   2.772 -2.0496  3.9412  0.2134
  306MOL0     H41294   3.463   5.792   2.741  0.5448 -2.1396 -0.7551
  306MOL0     H41295   3.242   5.862   2.678  0.3273  0.0470 -0.6850
  306MOL0     H41296   2.993   5.948   2.260  0.1437 -4.2134  0.8817
  306MOL0     H41297   2.779   6.079   2.186  0.9105 -3.1141 -2.0875
  306MOL0     H41298   2.550   6.105   2.129  1.4162  1.1788 -0.2790
  306MOL0     H41299   2.613   6.239   2.208  0.3450 -0.3014  1.9476
  306MOL0     H41300   2.381   6.280   2.317 -0.5825 -0.3547 -0.1240
  306MOL0     H41301   2.318   6.139   2.227 -2.9105  2.6136 -2.7222
  306MOL0     H41302   2.446   6.386   2.099  0.7013 -1.0486  0.1061
  306MOL0     H41303   2.272   6.348   2.112  0.6163  0.7736  0.5145
  306MOL0     H41304   2.373   6.315   1.878  1.8476 -1.3601 -2.3199
  306MOL0     H41305   2.480   6.186   1.938 -1.6048 -1.9991 -2.4545
  306MOL0     H41306   2.118   5.988   1.881 -0.4254 -0.7849  3.6341
  306MOL0     H41307   2.594   5.940   2.542 -0.1299  1.5936 -0.0088
  306MOL0     H41308   2.842   5.817   2.707 -1.9983  2.7915  0.0633
  306MOL0     H41309   2.675   5.780   2.674 -1.2484  1.2426 -1.1239
  306MOL0     H41310   2.809   5.664   2.616 -0.8856  0.7309  0.9480
  307MOL0     O41311  11.118   6.753   1.876 -0.2821 -0.1729  0.2061
  307MOL0     C41312  11.093   6.647   1.814  0.6340  0.4164  0.3472
  307MOL0     O41313  11.135   6.628   1.680  0.9431 -0.1711  0.4898
  307MOL0     C41314  11.225   6.716   1.638 -0.0806  0.2670 -0.1013
  307MOL0     C41315  11.184   6.838   1.575  1.1486 -0.1852 -0.2504
  307MOL0     C41316  11.275   6.923   1.509 -0.0571 -0.4330 -0.5046
  307MOL0     C41317  11.410   6.898   1.512  1.0091  0.1453 -0.0421
  307MOL0     O41318  11.498   6.992   1.455  0.3807 -0.0538  0.0858
  307MOL0     C41319  11.585   7.052   1.552 -0.1729  0.3941  0.4287
  307MOL0     C41320  11.647   7.181   1.503 -1.4935 -0.5246 -0.1478
  307MOL0     C41321  11.545   7.294   1.470 -0.2224  0.4972  0.8464
  307MOL0     C41322  11.441   7.319   1.580 -0.5708  0.1383 -0.7034
  307MOL0     C41323  11.320   7.396   1.528  0.3798 -0.4042 -0.1375
  307MOL0     C41324  11.277   7.499   1.641  0.2323 -0.3906  0.4795
  307MOL0     C41325  11.160   7.588   1.592 -0.2074 -0.1602  0.4639
  307MOL0     C41326  11.150   7.717   1.669 -0.6481  0.1580 -0.2555
  307MOL0     N41327  11.021   7.791   1.641 -0.1808 -0.1153  0.1025
  307MOL0     C41328  10.902   7.743   1.689  0.7543 -0.4294  0.4531
  307MOL0     C41329  10.810   7.847   1.664  0.0976 -0.4357 -0.0744
  307MOL0     C41330  10.664   7.851   1.713 -0.0889 -0.0336  1.4101
  307MOL0     C41331  10.584   7.942   1.624 -0.2668  0.8631 -0.3393
  307MOL0     C41332  10.453   7.984   1.704 -0.7156  0.3279 -0.3957
  307MOL0     C41333  10.350   7.872   1.718 -0.1109  0.8751 -0.6916
  307MOL0     O41334  10.396   7.772   1.817  0.3778 -0.6100  0.4119
  307MOL0     C41335  10.337   7.655   1.838  0.6914  0.5530  0.0917
  307MOL0     C41336  10.216   7.616   1.778  1.3319 -0.2334 -0.1630
  307MOL0     C41337  10.145   7.509   1.836  0.5268 -0.1076 -0.5305
  307MOL0     C41338  10.198   7.441   1.946 -0.1633 -0.3996 -0.1635
  307MOL0     C41339  10.122   7.345   2.030 -0.5596  0.6093  0.0377
  307MOL0     O41340   9.999   7.326   1.982 -0.9773  0.5367  0.3885
  307MOL0     C41341   9.917   7.224   2.022 -0.5858 -0.3175 -0.7995
  307MOL0     C41342   9.956   7.099   2.074  0.3287 -0.8540  0.3353
  307MOL0     C41343   9.854   7.004   2.101  0.0283 -0.8391  0.9081
  307MOL0     C41344   9.711   7.028   2.079 -0.3058 -0.6727 -0.5408
  307MOL0     O41345   9.623   6.922   2.105 -0.6039 -0.4650  0.0665
  307MOL0     C41346   9.597   6.844   1.997 -0.3276  0.1603  0.1055
  307MOL0     C41347   9.671   6.712   2.018  0.1065 -0.6490 -0.5576
  307MOL0     C41348   9.626   6.645   2.144 -0.0446  0.3014  0.3700
  307MOL0     C41349   9.664   6.706   2.293  0.5978  0.2883  0.2811
  307MOL0     C41350   9.623   6.620   2.419  0.0474 -0.2788  0.1335
  307MOL0     C41351   9.480   6.562   2.393 -0.2686  0.5532 -0.4093
  307MOL0     C41352   9.421   6.494   2.523  1.0523  0.1572  0.2916
  307MOL0     C41353   9.358   6.583   2.625  1.0022  0.1157 -0.1109
  307MOL0    Cl41354   9.288   6.508   2.782  0.3246 -0.4359  0.2397
  307MOL0     C41355   9.677   7.156   2.033  0.4445  0.8059 -0.1785
  307MOL0     C41356   9.778   7.249   2.010 -0.7142  0.1998 -0.1318
  307MOL0     O41357  10.168   7.301   2.138  0.2101 -0.4345 -0.3420
  307MOL0     C41358  10.326   7.474   1.995  0.2034  0.1292  0.4700
  307MOL0     C41359  10.394   7.577   1.939  0.2056  0.1850 -0.6540
  307MOL0     N41360  10.880   7.947   1.605 -0.2643  0.2947 -0.8264
  307MOL0     N41361  10.996   7.904   1.571 -0.2174 -0.8020 -0.5116
  307MOL0     C41362  11.451   6.779   1.574 -0.0726  0.4926 -1.0625
  307MOL0     C41363  11.360   6.696   1.638  0.9309 -1.2336 -0.0710
  307MOL0     C41364  10.998   6.543   1.873 -0.0480  0.1820 -0.2260
  307MOL0     C41365  10.999   6.407   1.818  0.1096  0.5382 -0.5058
  307MOL0     C41366  10.915   6.312   1.876  0.1071  0.3128 -0.8628
  307MOL0     C41367  10.839   6.346   1.988  1.1674  0.8984  0.5803
  307MOL0     O41368  10.744   6.261   2.031  0.3068 -0.6089 -0.0683
  307MOL0     C41369  10.778   6.124   2.075  0.0068  0.1784 -0.5267
  307MOL0     C41370  10.756   6.136   2.227 -0.3903  0.2688  0.5685
  307MOL0     C41371  10.818   6.016   2.297 -0.4531 -0.1645  0.1477
  307MOL0     C41372  10.817   6.030   2.446  0.6335 -0.0175 -0.4987
  307MOL0     C41373  10.849   5.904   2.504 -0.0710  0.3611 -0.0175
  307MOL0     C41374  10.866   5.801   2.556  0.2196  0.5349 -1.0236
  307MOL0     C41375  10.832   6.471   2.041  0.1828 -0.0953 -0.6899
  307MOL0     C41376  10.911   6.576   1.988 -1.3377 -0.1375 -0.5979
  307MOL0     C41377  10.908   6.711   2.061  0.0787  0.1207  0.1470
  307MOL0     H41378  11.078   6.858   1.576  0.5327 -2.8776 -1.7604
  307MOL0     H41379  11.233   7.019   1.478 -2.7029 -0.4821  2.4794
  307MOL0     H41380  11.536   7.074   1.648 -0.1317 -1.3082  0.8606
  307MOL0     H41381  11.666   6.987   1.584 -0.1976  1.2091  2.3539
  307MOL0     H41382  11.712   7.168   1.417  1.7061  0.0033  2.0039
  307MOL0     H41383  11.719   7.216   1.577 -1.4142 -2.0171  0.5201
  307MOL0     H41384  11.496   7.279   1.373  1.3295  1.4958 -0.1394
  307MOL0     H41385  11.595   7.391   1.467  0.8743 -0.0803 -1.0899
  307MOL0     H41386  11.406   7.218   1.602 -0.4860 -0.2376 -2.1729
  307MOL0     H41387  11.492   7.363   1.666  1.4345 -0.3672 -1.5720
  307MOL0     H41388  11.356   7.444   1.436 -3.1721  3.2244  0.0721
  307MOL0     H41389  11.236   7.336   1.492 -0.2397 -0.2862  1.0553
  307MOL0     H41390  11.247   7.448   1.733 -1.5095 -1.1941 -0.4865
  307MOL0     H41391  11.360   7.566   1.664 -0.2978  0.3072  0.3940
  307MOL0     H41392  11.064   7.536   1.581 -0.2851 -0.3493  1.9130
  307MOL0     H41393  11.178   7.615   1.487 -4.6229  2.7129  0.2051
  307MOL0     H41394  11.154   7.698   1.777  0.8218  1.7009  0.0098
  307MOL0     H41395  11.232   7.784   1.643  0.9147 -1.7170 -0.3408
  307MOL0     H41396  10.877   7.660   1.753  0.4529 -0.4735  0.2800
  307MOL0     H41397  10.619   7.752   1.722 -1.2668  0.3056 -0.3645
  307MOL0     H41398  10.680   7.881   1.817 -0.7913 -3.5042  2.6588
  307MOL0     H41399  10.636   8.035   1.599  1.9394 -0.3928 -0.7323
  307MOL0     H41400  10.561   7.872   1.543 -0.1417 -2.5754  2.3263
  307MOL0     H41401  10.411   8.062   1.640  2.8370  1.7924 -1.1902
  307MOL0     H41402  10.482   8.027   1.801 -0.3288 -1.2048  0.1922
  307MOL0     H41403  10.326   7.833   1.618  3.0455  0.6163 -1.4614
  307MOL0     H41404  10.264   7.923   1.762  1.7225  2.3514  1.3942
  307MOL0     H41405  10.161   7.663   1.697  0.5465 -1.1389 -0.1684
  307MOL0     H41406  10.052   7.486   1.785  1.7892 -0.7974 -2.6752
  307MOL0     H41407  10.063   7.082   2.082  0.4459 -0.5056 -0.4050
  307MOL0     H41408   9.879   6.908   2.144  1.2437 -0.6877  0.5828
  307MOL0     H41409   9.490   6.822   2.006 -0.2967  0.2785  0.8154
  307MOL0     H41410   9.613   6.895   1.902 -4.7675  2.1250  0.1819
  307MOL0     H41411   9.651   6.645   1.934 -1.0452 -0.6334 -0.3094
  307MOL0     H41412   9.780   6.725   2.021  0.5251 -3.2818 -1.7634
  307MOL0     H41413   9.517   6.648   2.141 -0.0420 -0.2577 -1.0223
  307MOL0     H41414   9.653   6.539   2.142  1.9139  0.7598  0.5331
  307MOL0     H41415   9.605   6.796   2.312  0.8397  0.3736  0.6326
  307MOL0     H41416   9.770   6.730   2.282  0.8776 -0.4010  1.2849
  307MOL0     H41417   9.630   6.688   2.504 -2.0404  2.6881 -1.8655
  307MOL0     H41418   9.697   6.539   2.426  1.1160  0.7046  0.4301
  307MOL0     H41419   9.407   6.639   2.368 -3.1778 -1.5874  0.9859
  307MOL0     H41420   9.487   6.488   2.313  1.9538 -0.8289  0.9535
  307MOL0     H41421   9.504   6.437   2.566  0.9641 -0.4694 -0.3427
  307MOL0     H41422   9.352   6.413   2.495 -0.9343  1.7652  0.3331
  307MOL0     H41423   9.423   6.665   2.653  2.3384 -1.1958  0.7637
  307MOL0     H41424   9.274   6.637   2.580 -0.7110 -0.6079  2.0546
  307MOL0     H41425   9.574   7.174   2.005  0.2160 -2.1303 -1.5614
  307MOL0     H41426   9.742   7.346   1.978  0.5459  0.8487  0.3178
  307MOL0     H41427  10.365   7.417   2.079  0.4593  1.2004  1.1118
  307MOL0     H41428  10.486   7.600   1.992 -0.7854 -0.0394  1.2514
  307MOL0     H41429  11.556   6.754   1.563 -0.3317 -2.6079  2.0663
  307MOL0     H41430  11.392   6.603   1.684 -3.9323 -3.6731 -0.9513
  307MOL0     H41431  11.060   6.396   1.729  2.2259  1.4159  0.7622
  307MOL0     H41432  10.896   6.207   1.856 -2.9233  0.5180  0.3843
  307MOL0     H41433  10.883   6.102   2.052  0.1447 -0.9881  1.0283
  307MOL0     H41434  10.715   6.038   2.049 -2.7929  2.0951 -0.5064
  307MOL0     H41435  10.652   6.135   2.260  0.5137  0.4965  3.7401
  307MOL0     H41436  10.807   6.225   2.266  0.8969 -0.2870  0.2182
  307MOL0     H41437  10.923   5.997   2.275 -0.2601 -0.6544  1.3786
  307MOL0     H41438  10.764   5.923   2.276  3.2100 -2.7224  1.1149
  307MOL0     H41439  10.891   6.107   2.471  1.3887 -1.1625  0.9184
  307MOL0     H41440  10.715   6.055   2.475  1.1155  0.5121  0.8170
  307MOL0     H41441  10.886   5.709   2.607  0.9843  2.7494  3.1363
  307MOL0     H41442  10.764   6.480   2.125  0.6249  0.2371 -0.3589
  307MOL0     H41443  10.852   6.784   2.003  0.4120 -1.1225 -1.8221
  307MOL0     H41444  10.862   6.717   2.161  0.2188 -0.5762  0.2563
  307MOL0     H41445  11.011   6.739   2.085 -0.0878  0.9540 -0.0857
  308MOL0     O41446  10.897   5.662   7.192  0.5858  1.1859  0.5794
  308MOL0     C41447  11.014   5.629   7.168 -0.2819  0.1865 -0.5816
  308MOL0     O41448  11.116   5.717   7.141 -0.5922  0.1940 -0.8361
  308MOL0     C41449  11.089   5.846   7.108 -0.1167 -0.4016 -0.2249
  308MOL0     C41450  11.184   5.950   7.145  0.3441 -0.0275 -0.6520
  308MOL0     C41451  11.171   6.083   7.117 -0.3434 -0.2265 -0.2398
  308MOL0     C41452  11.066   6.124   7.042 -0.2266  0.6627  0.2131
  308MOL0     O41453  11.042   6.256   7.028 -0.7278 -0.0470 -0.1168
  308MOL0     C41454  11.085   6.298   6.902 -0.6542  0.3230 -0.2306
  308MOL0     C41455  11.008   6.430   6.871  0.1882  0.1388  0.9537
  308MOL0     C41456  11.008   6.476   6.720  0.4646 -0.2904  0.4850
  308MOL0     C41457  11.144   6.525   6.672  0.8767 -0.3378 -0.3513
  308MOL0     C41458  11.129   6.601   6.533  0.4972  0.4268  0.8087
  308MOL0     C41459  11.064   6.733   6.544 -1.1837  0.5374 -0.7753
  308MOL0     C41460  11.044   6.802   6.407 -0.2835 -0.4670 -0.6863
  308MOL0     C41461  10.921   6.747   6.324 -0.4680 -0.3210  0.6570
  308MOL0     N41462  10.878   6.847   6.224 -0.2315 -0.1187  0.0928
  308MOL0     C41463  10.823   6.973   6.246  0.1042  0.7283 -0.2889
  308MOL0     C41464  10.801   7.016   6.122  0.1524  0.4847  0.4175
  308MOL0     C41465  10.717   7.127   6.078 -0.1696  0.5282  0.1846
  308MOL0     C41466  10.781   7.222   5.976  0.4309 -0.3730  0.4336
  308MOL0     C41467  10.911   7.285   6.025  0.4034  0.1834  0.1946
  308MOL0     C41468  10.977   7.368   5.918 -0.4892  0.0509 -1.5065
  308MOL0     O41469  10.884   7.472   5.878 -0.0709 -0.0410  0.4931
  308MOL0     C41470  10.946   7.572   5.806  0.4895 -0.8677  0.1215
  308MOL0     C41471  11.076   7.583   5.750 -0.6014 -0.3741  0.2518
  308MOL0     C41472  11.111   7.706   5.685 -0.5464 -0.1657 -0.2905
  308MOL0     C41473  11.040   7.824   5.691  0.3972  0.5406 -0.1333
  308MOL0     C41474  11.076   7.953   5.636  0.6428 -0.5808  0.6440
  308MOL0     O41475  10.992   8.061   5.636 -0.6632  0.5983 -0.3933
  308MOL0     C41476  11.020   8.196   5.607 -0.2035  0.7485  0.3538
  308MOL0     C41477  10.918   8.285   5.591 -0.4268 -0.0376  0.2582
  308MOL0     C41478  10.941   8.422   5.604 -0.0138 -0.7524  0.3837
  308MOL0     C41479  11.070   8.471   5.597 -0.1106  0.8564  0.1014
  308MOL0     O41480  11.100   8.603   5.575 -0.4154  0.1116 -0.7532
  308MOL0     C41481  11.132   8.635   5.437  0.0739  1.2394  0.6142
  308MOL0     C41482  11.015   8.721   5.374  0.8530 -0.2888 -0.3187
  308MOL0     C41483  11.043   8.757   5.226  0.0598 -0.0686  0.3171
  308MOL0     C41484  10.961   8.875   5.176  0.3489  0.7678 -0.5453
  308MOL0     C41485  10.933   8.873   5.030 -0.2685  0.1690 -0.0116
  308MOL0     C41486  10.861   9.002   4.979 -0.5332 -0.2959 -0.1552
  308MOL0     C41487  10.796   8.977   4.835 -0.6421  0.4056 -0.0663
  308MOL0     C41488  10.781   9.121   4.759  0.7436  0.3059 -0.5460
  308MOL0    Cl41489  10.935   9.205   4.746  0.5403  0.1493  0.0927
  308MOL0     C41490  11.175   8.382   5.621 -0.1728 -0.4955  0.8643
  308MOL0     C41491  11.149   8.244   5.628 -0.9607  0.1584  0.1109
  308MOL0     O41492  11.187   7.953   5.580 -0.4107  0.2885  0.4741
  308MOL0     C41493  10.917   7.810   5.755  0.0825 -0.6904 -0.4378
  308MOL0     C41494  10.875   7.694   5.817 -0.7065  0.2131 -0.3569
  308MOL0     N41495  10.858   6.941   6.023  0.1272  0.2421 -0.0742
  308MOL0     N41496  10.907   6.841   6.088 -0.1781 -0.5544 -0.3590
  308MOL0     C41497  10.979   6.030   6.997  0.0241  0.3550  0.3764
  308MOL0     C41498  10.980   5.889   7.031 -1.2311 -0.3986 -0.6787
  308MOL0     C41499  11.055   5.477   7.170  0.5724 -0.8098  0.3746
  308MOL0     C41500  10.963   5.391   7.221  0.6508 -0.8402 -0.1281
  308MOL0     C41501  10.991   5.260   7.249 -0.5036 -0.6129 -0.3865
  308MOL0     C41502  11.118   5.206   7.210 -0.3926 -0.2868  0.4296
  308MOL0     O41503  11.144   5.079   7.222  0.3239  0.0072  0.4261
  308MOL0     C41504  11.259   5.048   7.295 -0.4599 -0.8399  0.1667
  308MOL0     C41505  11.200   4.942   7.395  0.2514 -0.0363  0.2704
  308MOL0     C41506  11.286   4.943   7.532 -0.2910 -0.8256 -0.3815
  308MOL0     C41507  11.230   4.829   7.624 -1.4231  1.7249  0.1486
  308MOL0     C41508  11.288   4.865   7.758 -1.0762  0.4086  1.2582
  308MOL0     C41509  11.331   4.891   7.871  0.0597  0.6575 -1.1014
  308MOL0     C41510  11.216   5.287   7.156 -0.1951 -0.4336  0.3237
  308MOL0     C41511  11.185   5.428   7.135 -0.4527  0.0117  0.3364
  308MOL0     C41512  11.296   5.503   7.067  0.0700  0.5541  0.0659
  308MOL0     H41513  11.278   5.921   7.190 -0.3946 -0.8420  0.4495
  308MOL0     H41514  11.231   6.168   7.146 -2.0880  0.9775  0.0496
  308MOL0     H41515  11.193   6.307   6.892 -0.2111 -0.8163  2.7097
  308MOL0     H41516  11.059   6.242   6.811  2.7117 -1.4741 -0.2486
  308MOL0     H41517  11.046   6.512   6.932 -0.2805 -0.3013  1.8615
  308MOL0     H41518  10.904   6.421   6.905 -1.4477 -1.6539 -3.6724
  308MOL0     H41519  10.933   6.556   6.715 -0.3682 -1.1211 -1.6452
  308MOL0     H41520  10.970   6.399   6.651  2.6732 -1.0417  0.0367
  308MOL0     H41521  11.177   6.596   6.749 -1.8469  0.6524  0.0266
  308MOL0     H41522  11.222   6.449   6.673  1.8383  0.6108  1.5978
  308MOL0     H41523  11.233   6.604   6.499 -0.1271 -0.4888 -1.3415
  308MOL0     H41524  11.072   6.541   6.462 -1.3254  2.7937  0.1709
  308MOL0     H41525  10.968   6.729   6.596 -0.8428  0.7068 -0.1240
  308MOL0     H41526  11.126   6.800   6.605 -1.9385  2.2946 -1.8563
  308MOL0     H41527  11.132   6.777   6.346  0.5101 -0.1863  0.3204
  308MOL0     H41528  11.036   6.910   6.419  1.7687 -0.4550  1.1013
  308MOL0     H41529  10.958   6.651   6.286  0.6112 -0.2841  1.5450
  308MOL0     H41530  10.837   6.736   6.393 -0.2276  0.5103  1.1054
  308MOL0     H41531  10.790   7.021   6.337  0.9526 -0.8479  0.8978
  308MOL0     H41532  10.628   7.090   6.028  1.3637 -2.0822 -0.8456
  308MOL0     H41533  10.686   7.176   6.171 -2.0408 -0.2818  0.0309
  308MOL0     H41534  10.802   7.171   5.881  1.0524 -3.2591  1.9854
  308MOL0     H41535  10.708   7.299   5.952  0.1927 -0.4551  0.8787
  308MOL0     H41536  10.981   7.204   6.046 -1.7324 -1.5555  0.9362
  308MOL0     H41537  10.899   7.354   6.109 -0.0300  0.4851 -0.1146
  308MOL0     H41538  11.015   7.300   5.842  0.8791 -0.1764 -0.6562
  308MOL0     H41539  11.068   7.413   5.959 -2.0635  0.0534  2.4780
  308MOL0     H41540  11.148   7.501   5.740  0.0240  0.1987  0.0009
  308MOL0     H41541  11.198   7.706   5.621  1.0703  0.6552  1.7774
  308MOL0     H41542  10.812   8.258   5.589 -0.8406  1.4648 -1.8486
  308MOL0     H41543  10.860   8.494   5.594 -1.0862 -1.9686  0.0499
  308MOL0     H41544  11.227   8.690   5.441  1.6511 -1.4200  1.8102
  308MOL0     H41545  11.150   8.542   5.383 -0.9565  0.7090  1.1589
  308MOL0     H41546  10.924   8.663   5.386  1.1742 -0.7764 -0.2354
  308MOL0     H41547  11.002   8.820   5.419  2.1012 -0.5693  0.7269
  308MOL0     H41548  11.146   8.792   5.225 -0.0096  0.4532  3.4077
  308MOL0     H41549  11.036   8.664   5.169  3.3444 -0.6589  0.7157
  308MOL0     H41550  11.008   8.966   5.213  0.0775  0.3259  0.9347
  308MOL0     H41551  10.861   8.871   5.220  2.1524  1.2320  4.1621
  308MOL0     H41552  10.881   8.780   5.006  0.9852 -0.3368 -0.8407
  308MOL0     H41553  11.038   8.859   5.004  0.3674  0.7472  2.0502
  308MOL0     H41554  10.782   9.028   5.049 -1.9248 -2.0594 -0.9914
  308MOL0     H41555  10.932   9.085   4.969 -0.8595 -0.0001 -0.0350
  308MOL0     H41556  10.700   8.925   4.822 -0.9600  0.5366  1.4963
  308MOL0     H41557  10.874   8.923   4.781 -0.7248 -0.2638  0.4696
  308MOL0     H41558  10.729   9.096   4.666 -1.0675 -0.1478  0.5433
  308MOL0     H41559  10.708   9.181   4.813  0.9361 -1.0151  1.2649
  308MOL0     H41560  11.268   8.434   5.639 -1.2414  0.8854  2.7486
  308MOL0     H41561  11.236   8.180   5.640 -0.0499  1.0483 -1.4865
  308MOL0     H41562  10.847   7.892   5.741  1.2541  0.1318 -1.9171
  308MOL0     H41563  10.787   7.686   5.881  2.4781 -1.0420  4.3795
  308MOL0     H41564  10.890   6.061   6.944  0.4839  3.6967  1.3349
  308MOL0     H41565  10.897   5.824   7.003  1.2922 -3.5745 -1.4233
  308MOL0     H41566  10.864   5.419   7.252  1.0230 -0.4999  0.7787
  308MOL0     H41567  10.909   5.199   7.284  1.2888 -2.4958  0.7767
  308MOL0     H41568  11.297   5.127   7.360 -0.6691 -3.2825  3.5649
  308MOL0     H41569  11.341   5.001   7.241 -1.7345 -1.3886 -1.3588
  308MOL0     H41570  11.195   4.851   7.334  1.4539  2.2971 -3.6503
  308MOL0     H41571  11.097   4.971   7.417  0.4804  1.5478 -0.6215
  308MOL0     H41572  11.282   5.039   7.584  0.9205 -1.7418  1.5569
  308MOL0     H41573  11.389   4.916   7.510 -0.6052 -4.1158  1.4744
  308MOL0     H41574  11.121   4.827   7.623 -1.5802 -2.5196 -2.9694
  308MOL0     H41575  11.273   4.732   7.595 -3.3351  0.7871  0.2994
  308MOL0     H41576  11.387   4.927   7.955  2.6395 -1.3636 -1.8179
  308MOL0     H41577  11.298   5.232   7.112 -1.7136 -2.6505  0.0866
  308MOL0     H41578  11.342   5.571   7.139 -0.2886 -1.6699  2.5819
  308MOL0     H41579  11.378   5.434   7.047 -1.6442 -2.0795  1.3558
  308MOL0     H41580  11.247   5.550   6.981 -1.5428  1.1745  1.2641
  309MOL0     O41581   6.019   0.930   4.078  0.0699  0.2479  0.1362
  309MOL0     C41582   6.001   0.807   4.078 -0.1773 -0.6945 -0.4755
  309MOL0     O41583   6.054   0.722   4.166 -0.0010  0.6019  0.2546
  309MOL0     C41584   6.148   0.766   4.254 -0.6330  0.9576  0.1498
  309MOL0     C41585   6.133   0.864   4.346  0.3304  0.1330 -0.4806
  309MOL0     C41586   6.242   0.920   4.416 -0.8088 -0.3101  0.6901
  309MOL0     C41587   6.376   0.873   4.388 -0.2333  0.2616 -0.0995
  309MOL0     O41588   6.493   0.897   4.452  0.3726  0.1123 -0.4395
  309MOL0     C41589   6.496   0.991   4.553  0.0513 -0.3133 -0.2986
  309MOL0     C41590   6.637   1.008   4.601 -0.0900 -0.2035 -0.8177
  309MOL0     C41591   6.717   1.069   4.489 -0.2320 -0.4036  0.5211
  309MOL0     C41592   6.872   1.058   4.527  1.7042  0.2926 -0.2736
  309MOL0     C41593   6.955   1.119   4.415 -0.5100  0.2413 -0.3869
  309MOL0     C41594   6.945   1.053   4.269  0.1634  0.5962 -0.1929
  309MOL0     C41595   7.049   1.114   4.178  0.9557  0.3150 -0.2971
  309MOL0     C41596   7.042   1.122   4.020 -0.3071 -0.0063 -0.7596
  309MOL0     N41597   7.124   1.232   3.960 -0.5109 -0.1375 -0.4523
  309MOL0     C41598   7.143   1.361   4.008 -0.0294  0.5313 -0.0694
  309MOL0     C41599   7.213   1.423   3.906  0.3091  0.2022 -0.3227
  309MOL0     C41600   7.276   1.563   3.901 -0.0332 -0.5835  0.1598
  309MOL0     C41601   7.417   1.562   3.949 -0.1315 -0.1912  0.4935
  309MOL0     C41602   7.488   1.686   3.909  0.2288  0.2365  0.0203
  309MOL0     C41603   7.643   1.670   3.918  0.4001 -0.5852 -0.5671
  309MOL0     O41604   7.681   1.693   4.056  0.3752  0.3707 -0.8467
  309MOL0     C41605   7.804   1.662   4.100 -0.4565 -0.0405  0.3270
  309MOL0     C41606   7.896   1.596   4.018  1.0161 -0.3187 -0.4378
  309MOL0     C41607   8.030   1.598   4.057  0.0414  0.1365 -0.5477
  309MOL0     C41608   8.067   1.632   4.193  0.9900  0.4031  0.2305
  309MOL0     C41609   8.208   1.618   4.240 -0.1523  1.0798 -0.1621
  309MOL0     O41610   8.222   1.673   4.358 -0.1229 -0.0445  0.2587
  309MOL0     C41611   8.337   1.701   4.424  0.0553 -0.1092  0.6170
  309MOL0     C41612   8.450   1.628   4.406  0.0026  0.8308 -0.2747
  309MOL0     C41613   8.562   1.663   4.483 -0.2270  0.1360  0.1683
  309MOL0     C41614   8.570   1.768   4.577  0.1136 -0.6169  0.0152
  309MOL0     O41615   8.696   1.789   4.628 -0.3438 -0.1986 -0.8781
  309MOL0     C41616   8.727   1.912   4.704  1.0651 -0.4199 -0.7846
  309MOL0     C41617   8.879   1.918   4.720  0.4928 -0.4121  0.1458
  309MOL0     C41618   8.920   2.007   4.834 -0.4690 -0.0678  0.1942
  309MOL0     C41619   9.046   2.092   4.789  0.6355  0.2750  0.1828
  309MOL0     C41620   9.007   2.205   4.694 -0.7698 -0.6329  1.1382
  309MOL0     C41621   9.138   2.255   4.621  0.1682 -0.0404 -0.7712
  309MOL0     C41622   9.222   2.356   4.720 -0.0005 -0.4354  0.0389
  309MOL0     C41623   9.234   2.492   4.647 -0.6326 -1.1856  0.3816
  309MOL0    Cl41624   9.304   2.490   4.483 -0.4023  0.1595  0.3528
  309MOL0     C41625   8.446   1.830   4.602  0.6458 -1.5225  0.8669
  309MOL0     C41626   8.339   1.801   4.518  0.3560 -0.0438 -0.4532
  309MOL0     O41627   8.295   1.572   4.170  0.3050  0.0249  0.4940
  309MOL0     C41628   7.966   1.694   4.270 -0.3543  0.9752  0.4342
  309MOL0     C41629   7.838   1.711   4.221  0.7246  0.0354  0.1251
  309MOL0     N41630   7.214   1.340   3.795 -1.1122  0.2281 -0.4850
  309MOL0     N41631   7.157   1.233   3.834  0.2344  0.1845  0.1233
  309MOL0     C41632   6.389   0.774   4.291  0.4756  0.2872 -0.0196
  309MOL0     C41633   6.275   0.720   4.225  0.4199 -0.7636 -0.0897
  309MOL0     C41634   5.904   0.747   3.984  0.1819 -0.8208  0.1907
  309MOL0     C41635   5.869   0.815   3.863  0.4780 -0.0234 -0.4045
  309MOL0     C41636   5.770   0.776   3.773 -0.0229  0.1996 -0.8265
  309MOL0     C41637   5.693   0.661   3.804 -0.2196  1.1503  0.4157
  309MOL0     O41638   5.591   0.615   3.708 -0.7663 -0.2695 -0.2144
  309MOL0     C41639   5.495   0.515   3.762  0.4698  0.1266  1.0595
  309MOL0     C41640   5.397   0.471   3.655 -0.3418 -0.3294  0.0912
  309MOL0     C41641   5.315   0.601   3.586 -1.2292  1.3386 -0.5386
  309MOL0     C41642   5.238   0.560   3.456 -0.6730 -0.3847  0.1782
  309MOL0     C41643   5.140   0.448   3.468  0.4687  0.1020  0.2786
  309MOL0     C41644   5.076   0.346   3.465  0.2145 -0.2137  0.4221
  309MOL0     C41645   5.724   0.594   3.924 -0.2024  0.5172 -0.4546
  309MOL0     C41646   5.824   0.636   4.017  0.3358  0.1754  0.0075
  309MOL0     C41647   5.825   0.544   4.133 -0.6596  0.0775  0.1455
  309MOL0     H41648   6.033   0.906   4.356 -0.4619 -0.8755 -3.1701
  309MOL0     H41649   6.227   0.999   4.489 -0.1693  0.9551 -0.4873
  309MOL0     H41650   6.456   1.090   4.529 -2.4217 -0.7929  1.4618
  309MOL0     H41651   6.433   0.959   4.637 -0.4973  1.5062  0.0162
  309MOL0     H41652   6.682   0.909   4.616  0.5419 -0.3716 -3.3830
  309MOL0     H41653   6.646   1.067   4.693 -3.0291  0.1066 -0.6230
  309MOL0     H41654   6.695   1.174   4.470 -0.1495 -0.7706 -1.9759
  309MOL0     H41655   6.704   1.020   4.392 -1.7978 -1.8588  1.4177
  309MOL0     H41656   6.893   1.111   4.620  0.8180  0.5624 -0.2105
  309MOL0     H41657   6.900   0.953   4.539  1.4064  0.3967  1.6439
  309MOL0     H41658   6.945   1.227   4.404 -1.3762 -0.1372 -6.1094
  309MOL0     H41659   7.052   1.091   4.456 -1.3300  1.8450  3.0409
  309MOL0     H41660   6.939   0.943   4.264 -1.3225  0.4313  2.9753
  309MOL0     H41661   6.846   1.091   4.246  0.0945  1.4715  1.4026
  309MOL0     H41662   7.145   1.062   4.194 -0.6650 -3.5126 -1.7076
  309MOL0     H41663   7.062   1.219   4.204 -0.9256  0.4300  0.3244
  309MOL0     H41664   7.075   1.032   3.967 -0.4376 -0.0220 -0.8140
  309MOL0     H41665   6.941   1.142   3.982  0.0209  0.2804 -1.5125
  309MOL0     H41666   7.128   1.395   4.110 -0.8508 -1.7777  0.6528
  309MOL0     H41667   7.272   1.616   3.806  0.8964 -0.3771  0.2252
  309MOL0     H41668   7.218   1.622   3.972 -1.2752  1.7896 -2.6273
  309MOL0     H41669   7.434   1.557   4.057  4.9740 -1.1575 -0.0861
  309MOL0     H41670   7.458   1.475   3.896  0.3884  0.0517  0.4911
  309MOL0     H41671   7.453   1.768   3.972 -1.5401 -1.7384  1.7567
  309MOL0     H41672   7.461   1.706   3.805  1.4519 -0.1705 -0.3907
  309MOL0     H41673   7.693   1.754   3.870 -1.6760  0.4310 -1.0686
  309MOL0     H41674   7.681   1.577   3.875 -0.0933 -0.2917 -1.6698
  309MOL0     H41675   7.863   1.544   3.928 -1.4021 -0.7052  0.6041
  309MOL0     H41676   8.098   1.568   3.979 -0.0360  0.8261 -0.8843
  309MOL0     H41677   8.466   1.542   4.342  0.2710 -3.8189  5.1549
  309MOL0     H41678   8.652   1.615   4.446  0.1644  1.4658 -0.6938
  309MOL0     H41679   8.695   2.003   4.653  3.6984  3.7748  4.0269
  309MOL0     H41680   8.679   1.920   4.802 -0.9992 -1.2376 -1.6738
  309MOL0     H41681   8.921   1.822   4.753  0.0536 -0.6369  0.0541
  309MOL0     H41682   8.917   1.945   4.622 -1.2460 -1.6896 -0.9489
  309MOL0     H41683   8.838   2.074   4.860  1.1428  2.4827 -0.9113
  309MOL0     H41684   8.945   1.947   4.922 -0.4630 -1.6147 -0.8296
  309MOL0     H41685   9.107   2.018   4.737  0.3543 -0.2168  0.5541
  309MOL0     H41686   9.097   2.132   4.876  2.1114  0.3086 -0.6691
  309MOL0     H41687   8.957   2.282   4.752 -3.9753 -1.8204  0.1617
  309MOL0     H41688   8.929   2.178   4.623  1.7499  0.2287 -2.2193
  309MOL0     H41689   9.185   2.162   4.591 -4.3220 -2.6704 -0.5559
  309MOL0     H41690   9.108   2.302   4.527 -2.1377  1.2691  0.5239
  309MOL0     H41691   9.322   2.316   4.741  1.5727  1.8676 -2.4069
  309MOL0     H41692   9.176   2.370   4.818  0.7620 -1.9348  0.6477
  309MOL0     H41693   9.136   2.540   4.644 -0.3609 -0.6202  0.4245
  309MOL0     H41694   9.293   2.562   4.707 -3.4787 -0.1393  2.1422
  309MOL0     H41695   8.437   1.918   4.664  0.1322 -0.1452 -1.0806
  309MOL0     H41696   8.249   1.859   4.536  0.5187  1.0226 -2.7923
  309MOL0     H41697   7.994   1.723   4.371 -0.1913 -0.5156  0.8291
  309MOL0     H41698   7.758   1.767   4.268  1.6578  1.1374  0.4555
  309MOL0     H41699   6.485   0.728   4.275  0.0646 -0.7141  0.3140
  309MOL0     H41700   6.280   0.646   4.146 -1.1431  0.8417 -1.8044
  309MOL0     H41701   5.918   0.907   3.833 -0.4296  0.6681  0.1686
  309MOL0     H41702   5.747   0.841   3.689  0.3092  2.9680  1.0790
  309MOL0     H41703   5.442   0.569   3.841  2.6952  3.1579  0.7048
  309MOL0     H41704   5.548   0.424   3.794 -0.9992 -0.7375  1.1011
  309MOL0     H41705   5.323   0.407   3.705 -1.6181 -1.8718 -3.4366
  309MOL0     H41706   5.439   0.413   3.572  0.4573  3.2623 -2.2529
  309MOL0     H41707   5.391   0.672   3.553 -1.0883  1.6910  0.4859
  309MOL0     H41708   5.249   0.656   3.654  0.7933  2.6888  0.4282
  309MOL0     H41709   5.178   0.650   3.442  1.5660  1.0615 -0.6409
  309MOL0     H41710   5.307   0.536   3.374 -1.6508 -0.0027 -0.7701
  309MOL0     H41711   5.019   0.258   3.485 -0.4909  0.4632  1.4642
  309MOL0     H41712   5.655   0.516   3.955 -2.1529  2.1395 -0.4946
  309MOL0     H41713   5.727   0.504   4.164 -1.2131  2.1608  1.2482
  309MOL0     H41714   5.894   0.461   4.113  0.5177  0.6505  1.6486
  309MOL0     H41715   5.855   0.599   4.222  2.6356 -0.2936 -0.6165
  310MOL0     O41716   8.591   9.995   0.342  0.0024  0.0413  0.2542
  310MOL0     C41717   8.608  10.065   0.443  0.5275  0.8523  0.2508
  310MOL0     O41718   8.728  10.092   0.504 -0.5954  1.0043 -0.1071
  310MOL0     C41719   8.845  10.026   0.478  0.1373  0.7710  0.8575
  310MOL0     C41720   8.870   9.922   0.378  0.9839  0.8314 -1.1639
  310MOL0     C41721   8.999   9.871   0.349  0.3627  0.2159 -0.1034
  310MOL0     C41722   9.105   9.930   0.415  0.5450 -0.4779  0.4095
  310MOL0     O41723   9.231   9.878   0.393  0.5068 -0.6821  0.1988
  310MOL0     C41724   9.251   9.772   0.300  0.1263  0.0043 -0.3609
  310MOL0     C41725   9.395   9.730   0.291 -0.3975 -0.7201  0.0263
  310MOL0     C41726   9.488   9.855   0.257  0.1218 -0.1841 -0.2850
  310MOL0     C41727   9.638   9.825   0.268 -0.1179 -0.4770 -0.6914
  310MOL0     C41728   9.692   9.757   0.150 -0.6970  0.3612  0.7467
  310MOL0     C41729   9.839   9.723   0.174 -0.8108  0.2768 -0.1942
  310MOL0     C41730   9.888   9.655   0.055  0.2323  1.1546  0.2014
  310MOL0     C41731  10.047   9.641   0.067  0.0615  0.2537  0.9749
  310MOL0     N41732  10.090   9.543  -0.032  0.4347  0.3285  0.6013
  310MOL0     C41733  10.084   9.413  -0.020 -0.3779  0.7512  0.0123
  310MOL0     C41734  10.151   9.359  -0.120 -0.4109 -0.3681  0.9298
  310MOL0     C41735  10.216   9.224  -0.135 -0.3396 -0.3333 -0.7155
  310MOL0     C41736  10.365   9.227  -0.095  0.1576 -0.1389  0.0618
  310MOL0     C41737  10.460   9.150  -0.194 -0.2106  0.1948 -0.3211
  310MOL0     C41738  10.590   9.113  -0.112 -0.0466 -0.1873  0.4531
  310MOL0     O41739  10.683   9.063  -0.213 -0.6187 -0.1580  0.0585
  310MOL0     C41740  10.795   8.998  -0.172 -0.0297 -0.4218  0.6057
  310MOL0     C41741  10.825   8.981  -0.034 -0.1076  0.2236  0.1025
  310MOL0     C41742  10.940   8.920   0.012  0.6207 -0.8116 -0.0209
  310MOL0     C41743  11.025   8.855  -0.073  0.1345  0.1003 -0.0141
  310MOL0     C41744  11.156   8.793  -0.035  0.0844  0.1029 -1.4468
  310MOL0     O41745  11.224   8.731  -0.135 -0.3195 -0.2680  0.2267
  310MOL0     C41746  11.349   8.684  -0.113  0.6907  0.1126  0.0382
  310MOL0     C41747  11.462   8.763  -0.074  0.1796 -0.1033 -0.5409
  310MOL0     C41748  11.593   8.716  -0.081 -0.4087 -0.3610  0.4900
  310MOL0     C41749  11.617   8.584  -0.112 -0.4301  0.6496  0.2616
  310MOL0     O41750  11.752   8.554  -0.098 -0.0406  0.7406 -0.0934
  310MOL0     C41751  11.801   8.428  -0.155 -0.4593  0.8984  1.0876
  310MOL0     C41752  11.958   8.409  -0.138  0.0905 -0.1856  0.3258
  310MOL0     C41753  12.044   8.473  -0.245  0.6685 -0.0218  0.1373
  310MOL0     C41754  12.066   8.625  -0.220  0.1329  0.2622  0.9259
  310MOL0     C41755  12.172   8.665  -0.120 -0.5926  0.3845 -0.4431
  310MOL0     C41756  12.312   8.626  -0.156  0.4159  0.1061  0.1943
  310MOL0     C41757  12.416   8.720  -0.095 -0.0404 -0.0496 -0.9174
  310MOL0     C41758  12.557   8.708  -0.152 -0.3819 -0.1165  0.7319
  310MOL0    Cl41759  12.616   8.554  -0.095  0.1023 -0.3540  0.3088
  310MOL0     C41760  11.505   8.512  -0.156  0.8003 -0.9394  0.6793
  310MOL0     C41761  11.378   8.560  -0.170  1.3635 -0.3761 -0.4041
  310MOL0     O41762  11.198   8.791   0.082 -0.3690 -0.4859 -0.5474
  310MOL0     C41763  10.982   8.857  -0.207 -0.2205 -0.4069  0.4974
  310MOL0     C41764  10.881   8.938  -0.258  0.4155  0.1822 -0.2735
  310MOL0     N41765  10.176   9.464  -0.213 -0.0714  0.3385  0.1335
  310MOL0     N41766  10.141   9.574  -0.158  1.1195 -0.9024  0.4327
  310MOL0     C41767   9.080  10.027   0.513  0.3087  0.1193 -0.0253
  310MOL0     C41768   8.954  10.069   0.548  0.3243  0.5889 -0.1957
  310MOL0     C41769   8.480  10.139   0.484  0.3176  1.5747  0.2704
  310MOL0     C41770   8.356  10.090   0.429 -0.2661 -0.6335  0.7508
  310MOL0     C41771   8.234  10.147   0.457 -0.1789 -0.3098 -0.4613
  310MOL0     C41772   8.230  10.253   0.543  0.3340 -0.3525 -0.1931
  310MOL0     O41773   8.107  10.302   0.567  0.5800 -0.5693  0.1294
  310MOL0     C41774   8.106  10.429   0.636 -0.1746 -0.1785  0.2463
  310MOL0     C41775   7.958  10.485   0.622  0.2156 -0.6305 -0.7264
  310MOL0     C41776   7.870  10.399   0.709  1.2233 -0.1292 -0.6595
  310MOL0     C41777   7.742  10.473   0.730  0.4490 -0.3364  0.2661
  310MOL0     C41778   7.656  10.445   0.615  0.0016 -0.1565  1.0867
  310MOL0     C41779   7.584  10.441   0.515 -0.2534 -0.3900 -0.5184
  310MOL0     C41780   8.352  10.307   0.602 -1.0999  0.5785 -0.2897
  310MOL0     C41781   8.473  10.251   0.563  0.6981  0.0780 -0.7314
  310MOL0     C41782   8.597  10.319   0.621 -0.1006 -0.0301  0.5309
  310MOL0     H41783   8.783   9.885   0.324  0.5620  2.7242 -1.8704
  310MOL0     H41784   9.001   9.789   0.278 -0.5559 -1.0825  1.2995
  310MOL0     H41785   9.199   9.688   0.347 -3.1276  3.9912  4.1585
  310MOL0     H41786   9.215   9.791   0.198 -1.8400  1.1063  0.4793
  310MOL0     H41787   9.417   9.655   0.215  2.0343 -0.2859  0.2023
  310MOL0     H41788   9.436   9.691   0.385  2.9205 -1.3873 -1.5487
  310MOL0     H41789   9.467   9.927   0.336 -4.1470 -0.4296 -0.9763
  310MOL0     H41790   9.469   9.893   0.156 -2.4156  0.1847  0.2609
  310MOL0     H41791   9.689   9.921   0.279 -0.4533 -0.5939  3.1631
  310MOL0     H41792   9.671   9.778   0.362 -1.2476  0.0892  0.0099
  310MOL0     H41793   9.635   9.667   0.129 -0.1985 -0.2121  1.7803
  310MOL0     H41794   9.682   9.835   0.073  0.4907 -0.8459 -0.6831
  310MOL0     H41795   9.908   9.799   0.212 -0.2512  0.6257 -1.8188
  310MOL0     H41796   9.847   9.652   0.257  0.3538 -0.4359 -0.8907
  310MOL0     H41797   9.866   9.708  -0.038  1.1887  2.9633  0.9610
  310MOL0     H41798   9.844   9.555   0.055 -1.6201  1.9361 -0.1455
  310MOL0     H41799  10.092   9.735   0.035 -1.0879  1.3295  2.3830
  310MOL0     H41800  10.090   9.618   0.166  4.0951  1.5121 -0.2938
  310MOL0     H41801  10.065   9.374   0.079  2.7982 -0.6659  0.2026
  310MOL0     H41802  10.162   9.149  -0.076  1.2298 -0.7908  0.1855
  310MOL0     H41803  10.201   9.192  -0.239 -2.5687 -4.0494  0.5731
  310MOL0     H41804  10.402   9.327  -0.071 -0.0315 -0.4168  1.5832
  310MOL0     H41805  10.373   9.174   0.000  0.4599  0.4138  0.3465
  310MOL0     H41806  10.484   9.199  -0.289  2.0351 -0.2485 -0.0436
  310MOL0     H41807  10.417   9.051  -0.215 -1.1179  0.1223  1.6840
  310MOL0     H41808  10.574   9.034  -0.039 -0.4413  0.5045  1.1271
  310MOL0     H41809  10.619   9.208  -0.066 -3.4608  0.8135  0.7750
  310MOL0     H41810  10.768   8.999   0.057 -1.5019 -0.0811 -0.6671
  310MOL0     H41811  10.955   8.931   0.119  1.2377 -2.8053  0.1459
  310MOL0     H41812  11.460   8.869  -0.053 -1.6656  0.2978 -2.4557
  310MOL0     H41813  11.677   8.782  -0.065 -2.6448  2.3422  1.8350
  310MOL0     H41814  11.757   8.359  -0.082 -2.3456  1.5808  0.6478
  310MOL0     H41815  11.763   8.394  -0.252  1.3927 -1.7674  1.1968
  310MOL0     H41816  11.991   8.452  -0.043  0.0638 -0.5363  0.4964
  310MOL0     H41817  11.983   8.303  -0.131 -1.3959 -0.5222  1.1028
  310MOL0     H41818  12.139   8.419  -0.245 -0.3516 -1.9215  1.8543
  310MOL0     H41819  11.997   8.459  -0.343  2.7733  0.7715 -1.0571
  310MOL0     H41820  11.966   8.668  -0.202  0.2496  1.0799 -0.2137
  310MOL0     H41821  12.094   8.673  -0.314  3.3429  1.0866  2.1684
  310MOL0     H41822  12.134   8.629  -0.024  2.5686 -2.2259  0.0030
  310MOL0     H41823  12.174   8.774  -0.117 -2.3983  0.4367  0.9040
  310MOL0     H41824  12.320   8.526  -0.111  2.8804 -1.1986 -2.7569
  310MOL0     H41825  12.311   8.623  -0.266  1.2000  2.6889  0.0636
  310MOL0     H41826  12.417   8.696   0.011 -2.3911  1.5371 -0.4655
  310MOL0     H41827  12.383   8.823  -0.105 -1.3644 -0.1047  2.0470
  310MOL0     H41828  12.550   8.704  -0.261 -1.0966 -2.6189  0.7958
  310MOL0     H41829  12.628   8.787  -0.126 -0.7361  1.0251 -1.5661
  310MOL0     H41830  11.519   8.410  -0.192 -3.1206 -1.0051 -1.1352
  310MOL0     H41831  11.293   8.502  -0.204 -0.2512  0.5449  1.8153
  310MOL0     H41832  11.044   8.801  -0.277 -1.6323 -2.2917  0.6790
  310MOL0     H41833  10.863   8.928  -0.364  2.7856 -0.7521 -0.6476
  310MOL0     H41834   9.165  10.076   0.559  1.3923  1.0064 -2.7894
  310MOL0     H41835   8.949  10.155   0.614 -1.3114  1.1717 -1.0216
  310MOL0     H41836   8.351  10.038   0.334 -0.4984 -0.1261  0.4810
  310MOL0     H41837   8.145  10.112   0.407 -3.1548  2.2512  2.5584
  310MOL0     H41838   8.179  10.498   0.592 -1.2938  0.5592 -0.4995
  310MOL0     H41839   8.133  10.404   0.739  1.0358 -0.9573 -0.2364
  310MOL0     H41840   7.926  10.474   0.518  2.5099  1.6500 -1.7975
  310MOL0     H41841   7.952  10.592   0.645  3.2779 -0.0851 -1.9873
  310MOL0     H41842   7.902  10.387   0.813 -2.1740  1.2083  0.6770
  310MOL0     H41843   7.866  10.295   0.676 -2.5477 -1.1564  2.2938
  310MOL0     H41844   7.688  10.448   0.821 -1.7862  1.2950 -0.5330
  310MOL0     H41845   7.750  10.582   0.737 -1.6410 -0.0017 -1.5202
  310MOL0     H41846   7.530  10.422   0.424 -2.1201 -2.5480  0.9075
  310MOL0     H41847   8.351  10.398   0.661 -1.5231 -0.0138  0.6446
  310MOL0     H41848   8.628  10.242   0.691 -2.3490  0.1072  1.7691
  310MOL0     H41849   8.684  10.346   0.559  0.8967  0.8892  2.2490
  310MOL0     H41850   8.577  10.417   0.665  0.4403  1.0113 -1.4122
  311MOL0     O41851   9.166   0.889   4.792  0.2035 -0.5861 -0.5902
  311MOL0     C41852   9.072   0.933   4.856  0.3216 -0.1351  0.3962
  311MOL0     O41853   9.078   1.030   4.953  0.1114  0.1133  0.1748
  311MOL0     C41854   9.193   1.106   4.957  0.2641  0.9222  0.5372
  311MOL0     C41855   9.170   1.240   4.952 -0.1565 -1.0357  0.5060
  311MOL0     C41856   9.283   1.326   4.945  0.0956 -0.3404  0.2002
  311MOL0     C41857   9.415   1.268   4.944 -0.6372 -0.0060 -0.3427
  311MOL0     O41858   9.531   1.341   4.920 -0.2641  0.0998  0.1536
  311MOL0     C41859   9.531   1.479   4.969 -0.0979 -0.0736  0.6771
  311MOL0     C41860   9.665   1.540   4.943 -0.5639 -0.0826 -0.0508
  311MOL0     C41861   9.787   1.441   4.968 -0.9178 -0.5879 -0.1006
  311MOL0     C41862   9.919   1.519   4.990  0.3339 -0.1178 -0.5893
  311MOL0     C41863   9.984   1.541   4.858 -0.4681  0.6825  1.0598
  311MOL0     C41864  10.084   1.650   4.870  0.3482 -0.4370  0.3617
  311MOL0     C41865  10.178   1.677   4.749 -0.8190  0.2124  0.1366
  311MOL0     C41866  10.105   1.683   4.623 -0.4197  0.1778 -0.0255
  311MOL0     N41867  10.184   1.685   4.497 -0.0565 -0.5906  0.1373
  311MOL0     C41868  10.245   1.577   4.445  1.0248  0.0233 -1.0644
  311MOL0     C41869  10.323   1.628   4.349  0.3315 -0.2969 -0.0115
  311MOL0     C41870  10.419   1.551   4.271 -0.0712 -0.3753 -0.6611
  311MOL0     C41871  10.559   1.591   4.309 -0.6040  0.9997 -0.4212
  311MOL0     C41872  10.606   1.534   4.447  0.1144  0.7915 -0.1321
  311MOL0     C41873  10.663   1.387   4.418 -0.2746 -0.7526 -0.1533
  311MOL0     O41874  10.778   1.390   4.328  0.0460  0.8207  0.4761
  311MOL0     C41875  10.896   1.448   4.371  0.3698  0.2431 -0.1749
  311MOL0     C41876  10.942   1.479   4.499 -0.0194 -0.2133 -0.6131
  311MOL0     C41877  11.061   1.553   4.515 -0.4564 -0.7636  0.4454
  311MOL0     C41878  11.141   1.599   4.409 -0.5637  0.0305  1.0046
  311MOL0     C41879  11.268   1.678   4.431  0.3048  0.2769  0.9694
  311MOL0     O41880  11.339   1.659   4.544  0.4453 -0.1432  0.2239
  311MOL0     C41881  11.462   1.714   4.560 -1.2093  0.0824  1.0903
  311MOL0     C41882  11.473   1.855   4.584 -1.0347  1.0306  0.3238
  311MOL0     C41883  11.600   1.905   4.629 -0.2108  0.3465  0.4679
  311MOL0     C41884  11.707   1.819   4.650 -0.9462  0.1980  0.8511
  311MOL0     O41885  11.830   1.871   4.682 -0.2735 -0.5815 -0.1630
  311MOL0     C41886  11.871   1.969   4.590  0.0024 -0.6369  0.4675
  311MOL0     C41887  12.032   1.969   4.597  0.0667  0.4493 -0.5945
  311MOL0     C41888  12.092   2.081   4.499  0.3227  0.3271  0.4225
  311MOL0     C41889  12.243   2.102   4.517  0.3294  0.1306 -1.0992
  311MOL0     C41890  12.277   2.238   4.455 -0.7078 -0.2569  0.2159
  311MOL0     C41891  12.431   2.256   4.444  1.2410 -0.0212 -0.2418
  311MOL0     C41892  12.466   2.398   4.416  0.9328 -0.5903 -0.8294
  311MOL0     C41893  12.610   2.429   4.445 -0.4318  0.0608  0.3120
  311MOL0    Cl41894  12.621   2.427   4.633 -0.1667 -0.0908  0.4615
  311MOL0     C41895  11.696   1.683   4.625 -0.4836  0.5145  0.6676
  311MOL0     C41896  11.571   1.630   4.577  0.0416 -0.0407 -0.4888
  311MOL0     O41897  11.286   1.764   4.347  0.3415 -0.1587  0.3875
  311MOL0     C41898  11.085   1.569   4.280 -0.1766 -0.3131 -0.0599
  311MOL0     C41899  10.968   1.502   4.257 -0.2545 -0.6541 -0.8669
  311MOL0     N41900  10.310   1.763   4.344  0.5781 -0.0475  0.0694
  311MOL0     N41901  10.227   1.803   4.438 -0.0271  0.0958  1.0728
  311MOL0     C41902   9.429   1.134   4.961 -0.4639  0.3115  1.1804
  311MOL0     C41903   9.321   1.052   4.972  0.1988 -0.1943 -0.9694
  311MOL0     C41904   8.944   0.878   4.811 -0.6434  0.4675  0.2937
  311MOL0     C41905   8.838   0.941   4.861 -0.4826 -0.7890  0.0144
  311MOL0     C41906   8.705   0.883   4.853 -0.3936  0.9213  0.5887
  311MOL0     C41907   8.676   0.777   4.766 -0.8994  1.1316  0.5563
  311MOL0     O41908   8.545   0.719   4.771  0.5143  0.5642  0.2036
  311MOL0     C41909   8.521   0.600   4.684 -0.1990 -0.0207 -0.2823
  311MOL0     C41910   8.502   0.638   4.533 -0.2958 -0.0411 -0.3928
  311MOL0     C41911   8.407   0.755   4.511  0.9034 -0.1226 -0.5077
  311MOL0     C41912   8.294   0.737   4.399  0.0475  0.3276  0.8101
  311MOL0     C41913   8.196   0.631   4.431  0.4299  0.1696  1.2990
  311MOL0     C41914   8.105   0.570   4.484 -0.3488 -0.2667  0.0338
  311MOL0     C41915   8.786   0.738   4.685 -0.2154  0.2729  0.8861
  311MOL0     C41916   8.917   0.784   4.708 -0.0628 -0.5017  0.5734
  311MOL0     C41917   9.014   0.705   4.620 -0.3639  0.0822 -0.1942
  311MOL0     H41918   9.071   1.284   4.948 -0.4871 -1.8317 -2.4486
  311MOL0     H41919   9.267   1.432   4.927 -0.1037 -0.6530 -1.6002
  311MOL0     H41920   9.450   1.527   4.914  1.0803  0.8621 -0.2885
  311MOL0     H41921   9.509   1.477   5.076 -4.0404 -0.3100 -0.0145
  311MOL0     H41922   9.675   1.627   5.008  2.4311 -0.7779  0.5606
  311MOL0     H41923   9.667   1.559   4.836  0.9651 -2.3772 -0.5036
  311MOL0     H41924   9.807   1.364   4.893  3.3545 -0.9858  1.1784
  311MOL0     H41925   9.776   1.379   5.058  1.1699 -2.9320 -1.3197
  311MOL0     H41926   9.897   1.620   5.027  0.0610 -1.3840  3.1744
  311MOL0     H41927   9.982   1.476   5.068 -1.0114 -0.5111  0.3191
  311MOL0     H41928  10.027   1.457   4.803 -3.6842  1.0336 -2.3480
  311MOL0     H41929   9.908   1.578   4.789  1.3677  3.0023  0.1588
  311MOL0     H41930  10.020   1.737   4.886  0.2092 -0.5372  0.3545
  311MOL0     H41931  10.140   1.628   4.961 -0.4477  1.4814  1.3664
  311MOL0     H41932  10.249   1.594   4.761 -2.1643 -0.9042  0.7646
  311MOL0     H41933  10.227   1.774   4.760  1.1158 -0.2392 -3.2333
  311MOL0     H41934  10.066   1.581   4.614  1.7210 -0.6924 -0.1390
  311MOL0     H41935  10.022   1.752   4.609 -0.3924  0.7993  2.3929
  311MOL0     H41936  10.225   1.475   4.477 -0.0594  0.9776  1.6432
  311MOL0     H41937  10.401   1.443   4.269  0.3644 -0.4540 -0.4152
  311MOL0     H41938  10.413   1.587   4.168  0.9787 -2.8901 -1.6839
  311MOL0     H41939  10.618   1.557   4.223  0.3892  1.8624 -0.1014
  311MOL0     H41940  10.574   1.699   4.299 -0.8143  0.9986 -0.7631
  311MOL0     H41941  10.521   1.522   4.515  2.1205  1.7470  2.7080
  311MOL0     H41942  10.682   1.595   4.496 -0.5284  0.5541  1.2067
  311MOL0     H41943  10.581   1.330   4.373 -0.8739  1.0451 -1.4507
  311MOL0     H41944  10.692   1.341   4.513 -1.7105  3.0907  2.3943
  311MOL0     H41945  10.898   1.435   4.588  2.2326  0.3137  0.8802
  311MOL0     H41946  11.080   1.593   4.614 -0.7202  0.8223 -0.1100
  311MOL0     H41947  11.380   1.909   4.578 -2.3226 -1.1990 -1.2279
  311MOL0     H41948  11.611   2.013   4.639 -0.9937  0.3240  1.8498
  311MOL0     H41949  11.842   1.928   4.493 -1.9400 -0.2824  0.8521
  311MOL0     H41950  11.817   2.062   4.611 -2.6027 -1.5665 -1.5103
  311MOL0     H41951  12.065   1.995   4.698  2.6730 -0.1683 -1.2028
  311MOL0     H41952  12.074   1.869   4.580 -3.4539 -1.7841  2.4219
  311MOL0     H41953  12.061   2.069   4.395  0.8826 -1.0334  0.3900
  311MOL0     H41954  12.043   2.176   4.525 -1.2067 -0.4651  0.5910
  311MOL0     H41955  12.296   2.015   4.477 -1.2635 -2.8076  2.5658
  311MOL0     H41956  12.265   2.100   4.624  1.0206  0.7369 -1.2193
  311MOL0     H41957  12.233   2.303   4.531  0.0094 -0.1828  0.5714
  311MOL0     H41958  12.235   2.238   4.353 -3.2057 -0.6633  1.1623
  311MOL0     H41959  12.478   2.233   4.541  1.1859 -2.1201 -0.6635
  311MOL0     H41960  12.473   2.197   4.362  1.4096  0.4037 -0.4589
  311MOL0     H41961  12.403   2.463   4.476  1.5117 -4.6823  5.0485
  311MOL0     H41962  12.446   2.422   4.311 -2.3669 -1.2569 -0.4465
  311MOL0     H41963  12.677   2.352   4.406  0.6018  1.1450 -0.0837
  311MOL0     H41964  12.657   2.515   4.398 -0.3650 -0.7044 -1.0645
  311MOL0     H41965  11.769   1.610   4.657 -1.4833 -0.1108  1.5959
  311MOL0     H41966  11.575   1.525   4.550 -1.3053 -1.5920  4.2901
  311MOL0     H41967  11.148   1.611   4.202  0.7124 -0.4316  0.5864
  311MOL0     H41968  10.938   1.489   4.154 -0.0329  1.0413 -1.1684
  311MOL0     H41969   9.534   1.109   4.973  0.6769  2.3884 -2.6872
  311MOL0     H41970   9.322   0.944   4.972  0.1081 -0.2068 -1.8114
  311MOL0     H41971   8.846   1.021   4.934  3.9042 -1.8150  0.9641
  311MOL0     H41972   8.628   0.902   4.927 -0.5637  0.8748  0.4229
  311MOL0     H41973   8.431   0.547   4.714  0.3305 -1.1644 -0.6801
  311MOL0     H41974   8.596   0.520   4.689  0.4285  0.6144  2.2377
  311MOL0     H41975   8.462   0.552   4.479  1.4325  0.0464 -1.9123
  311MOL0     H41976   8.603   0.656   4.495 -0.2245  0.4816  0.0324
  311MOL0     H41977   8.468   0.844   4.491 -0.8511  1.4916  0.8826
  311MOL0     H41978   8.353   0.766   4.605 -0.9837  0.2724 -1.5770
  311MOL0     H41979   8.244   0.835   4.397  1.0566  0.8645 -1.0074
  311MOL0     H41980   8.352   0.721   4.307  0.9721 -1.1950  1.6162
  311MOL0     H41981   8.025   0.527   4.541  1.8477 -1.2237  2.5910
  311MOL0     H41982   8.779   0.656   4.614 -0.2963  2.0138 -1.2134
  311MOL0     H41983   9.110   0.686   4.670 -1.4786 -1.2405  1.5764
  311MOL0     H41984   8.974   0.604   4.606 -1.6909  0.4637  0.6174
  311MOL0     H41985   9.013   0.751   4.521  0.5745  2.3289  0.7544
  312MOL0     O41986   0.736   5.958   1.827  0.2393  0.3066 -0.2237
  312MOL0     C41987   0.698   5.865   1.896  0.1183 -0.4246  0.4017
  312MOL0     O41988   0.683   5.736   1.849 -0.6785 -0.1451 -0.0168
  312MOL0     C41989   0.738   5.705   1.734 -0.2662 -0.2563  0.0519
  312MOL0     C41990   0.658   5.635   1.647 -0.3658  0.2907 -0.7457
  312MOL0     C41991   0.704   5.596   1.522 -0.7916 -0.4183 -0.2119
  312MOL0     C41992   0.830   5.633   1.474 -0.3218  0.2119 -1.0933
  312MOL0     O41993   0.872   5.608   1.347 -0.1335 -0.8187 -0.5043
  312MOL0     C41994   0.807   5.514   1.265  0.3512 -0.9078 -0.4621
  312MOL0     C41995   0.874   5.520   1.123  0.7022 -0.3881 -0.2107
  312MOL0     C41996   0.789   5.444   1.020  0.7260  1.0782  0.4254
  312MOL0     C41997   0.858   5.434   0.881  0.1026 -0.3154 -0.5728
  312MOL0     C41998   0.769   5.386   0.777 -0.7578  1.1750  0.1232
  312MOL0     C41999   0.848   5.356   0.650  1.2157  0.3390  0.1947
  312MOL0     C42000   0.903   5.488   0.583  0.3200  0.7666 -0.4837
  312MOL0     C42001   0.793   5.594   0.544 -0.4659  0.0491  0.8467
  312MOL0     N42002   0.679   5.529   0.467 -0.1927  0.1688 -0.0239
  312MOL0     C42003   0.666   5.529   0.330  0.5705  0.0129  0.5053
  312MOL0     C42004   0.533   5.509   0.297 -0.3315 -0.2209 -0.4379
  312MOL0     C42005   0.474   5.509   0.160  0.1416  0.1316  0.4708
  312MOL0     C42006   0.452   5.371   0.096 -0.5509 -0.3152  0.1456
  312MOL0     C42007   0.588   5.289   0.083  0.1030  0.2831  0.0319
  312MOL0     C42008   0.555   5.146   0.042 -0.0775 -0.5368 -0.1346
  312MOL0     O42009   0.478   5.063   0.127  0.6718  0.2302  0.3201
  312MOL0     C42010   0.431   4.941   0.075 -0.1236 -0.4405  0.6466
  312MOL0     C42011   0.355   4.866   0.162  0.8104  0.2038  0.2678
  312MOL0     C42012   0.302   4.739   0.125  1.3601  0.3797  0.2323
  312MOL0     C42013   0.345   4.673   0.013 -0.6230 -0.8583  0.2566
  312MOL0     C42014   0.302   4.531  -0.006  0.3687  0.5574  0.2838
  312MOL0     O42015   0.188   4.484   0.059 -0.0426 -0.8643 -0.6026
  312MOL0     C42016   0.139   4.356   0.015 -0.1002  1.2402 -0.2276
  312MOL0     C42017   0.149   4.283  -0.112 -0.3832 -0.3374 -1.3369
  312MOL0     C42018   0.087   4.166  -0.136  0.8919  0.0700  0.1524
  312MOL0     C42019  -0.008   4.120  -0.045 -0.4706 -0.7714 -0.1437
  312MOL0     O42020  -0.072   4.001  -0.059 -0.1601 -1.0484 -0.6753
  312MOL0     C42021  -0.081   3.944  -0.191  0.5581 -1.2682  0.0773
  312MOL0     C42022  -0.196   3.855  -0.220 -0.2669  0.0317 -0.0052
  312MOL0     C42023  -0.224   3.770  -0.093  0.1605  0.4135 -0.0161
  312MOL0     C42024  -0.343   3.679  -0.110  0.3612 -0.2239 -0.6118
  312MOL0     C42025  -0.374   3.590   0.014 -0.0424  0.0720  0.2704
  312MOL0     C42026  -0.491   3.487  -0.014  0.2181  0.3775  0.2608
  312MOL0     C42027  -0.503   3.387   0.102 -0.1395  0.3676 -0.5901
  312MOL0     C42028  -0.576   3.256   0.058 -0.4976  0.0165 -0.3350
  312MOL0    Cl42029  -0.476   3.145  -0.044  0.2845 -0.2991 -0.0354
  312MOL0     C42030  -0.020   4.187   0.076  0.6962  0.1465  0.5362
  312MOL0     C42031   0.049   4.305   0.107  0.7884  1.0111 -0.2033
  312MOL0     O42032   0.377   4.465  -0.080 -0.5882  0.1185 -0.1753
  312MOL0     C42033   0.447   4.743  -0.062  0.1298  0.6932 -0.4632
  312MOL0     C42034   0.482   4.876  -0.041 -0.7806  0.2981  0.3350
  312MOL0     N42035   0.459   5.488   0.410  0.7067  0.4331 -0.5270
  312MOL0     N42036   0.546   5.507   0.511 -0.4632  0.2780  0.7473
  312MOL0     C42037   0.918   5.696   1.564  0.2946 -0.6490  0.7775
  312MOL0     C42038   0.871   5.732   1.690  0.2664  0.1521  0.2470
  312MOL0     C42039   0.677   5.895   2.039 -1.1328  0.2578  0.1656
  312MOL0     C42040   0.624   5.790   2.118  0.4739  0.8467 -0.2695
  312MOL0     C42041   0.614   5.803   2.258  0.7369 -0.7049  0.7491
  312MOL0     C42042   0.650   5.920   2.328  1.2370  1.1095  0.2813
  312MOL0     O42043   0.621   5.916   2.463 -0.1562  0.1154 -0.2908
  312MOL0     C42044   0.666   6.021   2.547  1.0371  1.0827 -0.2744
  312MOL0     C42045   0.672   5.992   2.697  0.1601  0.1107 -0.3485
  312MOL0     C42046   0.535   6.020   2.771 -0.8562 -0.9408 -0.2299
  312MOL0     C42047   0.444   5.899   2.765  0.1685 -0.2179  0.7197
  312MOL0     C42048   0.320   5.928   2.839 -0.1944 -0.5733 -0.5007
  312MOL0     C42049   0.212   5.976   2.881 -0.3606  0.0601 -0.9185
  312MOL0     C42050   0.713   6.011   2.243  0.2651 -0.5928 -0.0101
  312MOL0     C42051   0.712   6.006   2.103 -0.3012 -1.2686 -0.2933
  312MOL0     C42052   0.761   6.145   2.042 -0.0695  0.0813  0.0363
  312MOL0     H42053   0.553   5.626   1.671 -0.1606 -0.0736  0.0664
  312MOL0     H42054   0.636   5.537   1.462  0.4844 -2.6309  0.4383
  312MOL0     H42055   0.799   5.418   1.317  4.3250 -0.5960  1.0324
  312MOL0     H42056   0.705   5.554   1.265  1.3027  1.7260  0.4994
  312MOL0     H42057   0.979   5.493   1.110  0.8032  0.8014 -2.3881
  312MOL0     H42058   0.872   5.625   1.093  1.9467 -0.9816 -2.5579
  312MOL0     H42059   0.692   5.490   0.998 -0.9291 -2.4281 -0.3264
  312MOL0     H42060   0.772   5.343   1.060 -0.1558  1.0335 -0.0226
  312MOL0     H42061   0.898   5.534   0.861  1.5469 -0.6104  0.6621
  312MOL0     H42062   0.949   5.374   0.894 -0.3837 -0.6011  2.0950
  312MOL0     H42063   0.714   5.297   0.805  0.7805  0.3619  0.6910
  312MOL0     H42064   0.699   5.469   0.761 -2.8606  0.0550  2.7803
  312MOL0     H42065   0.935   5.295   0.678  1.1352  0.9754  2.0049
  312MOL0     H42066   0.781   5.307   0.579  1.1602  1.6013 -0.6430
  312MOL0     H42067   0.967   5.459   0.500  2.8665  3.5585  0.3372
  312MOL0     H42068   0.970   5.535   0.655 -1.3824  0.3476  1.4956
  312MOL0     H42069   0.768   5.640   0.640  0.0871  1.2927  0.4200
  312MOL0     H42070   0.843   5.667   0.479 -3.0513 -0.9547 -2.5577
  312MOL0     H42071   0.738   5.557   0.254  0.4320  1.6833  0.9522
  312MOL0     H42072   0.381   5.567   0.160 -0.8026 -1.2708  2.4579
  312MOL0     H42073   0.536   5.570   0.094 -0.3083  1.5294  1.3022
  312MOL0     H42074   0.385   5.318   0.164 -0.5169  1.7793  1.9259
  312MOL0     H42075   0.410   5.385  -0.004 -1.0334 -0.8408  0.2695
  312MOL0     H42076   0.654   5.286   0.170  0.3092  2.1559 -0.0264
  312MOL0     H42077   0.639   5.349   0.007  0.3279  0.9473  0.6957
  312MOL0     H42078   0.651   5.100   0.020 -0.3423 -0.6920 -0.9858
  312MOL0     H42079   0.505   5.155  -0.055  1.0987 -1.9425 -0.9165
  312MOL0     H42080   0.336   4.912   0.258 -3.6712  1.4581 -0.9862
  312MOL0     H42081   0.213   4.695   0.168  2.1162 -0.8625  0.5637
  312MOL0     H42082   0.227   4.312  -0.182  0.5403  4.5630  1.2408
  312MOL0     H42083   0.110   4.103  -0.222  1.0273 -2.8334  2.1635
  312MOL0     H42084  -0.072   4.026  -0.263  0.9651  0.9520  2.4873
  312MOL0     H42085   0.012   3.890  -0.206  0.0076 -2.6470  1.3748
  312MOL0     H42086  -0.281   3.914  -0.256 -0.5530 -0.1517  0.3552
  312MOL0     H42087  -0.160   3.792  -0.302 -1.0880  1.8475 -1.8385
  312MOL0     H42088  -0.134   3.713  -0.066  1.3664  1.4203 -1.7141
  312MOL0     H42089  -0.238   3.841  -0.011  0.2549  2.0037 -1.3357
  312MOL0     H42090  -0.325   3.609  -0.193  0.1475  0.8144 -1.5520
  312MOL0     H42091  -0.428   3.738  -0.144  1.0127 -0.9270 -3.7598
  312MOL0     H42092  -0.403   3.655   0.098  1.0644  2.0359 -0.7855
  312MOL0     H42093  -0.287   3.531   0.043 -0.1917 -0.3015 -0.0356
  312MOL0     H42094  -0.585   3.541  -0.027  1.2885  1.9165 -1.7259
  312MOL0     H42095  -0.466   3.439  -0.109 -2.7059 -0.8853  0.0147
  312MOL0     H42096  -0.559   3.445   0.176 -1.5985  2.3223 -3.0594
  312MOL0     H42097  -0.401   3.359   0.129 -0.6667 -1.6780 -0.5535
  312MOL0     H42098  -0.588   3.200   0.151  2.7588  0.0444  0.2355
  312MOL0     H42099  -0.671   3.282   0.009 -0.2200 -2.8932 -2.6718
  312MOL0     H42100  -0.077   4.144   0.157 -0.7887 -1.2977 -1.1916
  312MOL0     H42101   0.028   4.355   0.201  2.4827  0.1019  0.7162
  312MOL0     H42102   0.503   4.683  -0.132 -0.5751  1.2875 -1.5573
  312MOL0     H42103   0.567   4.914  -0.096 -0.0999 -0.7443  0.6493
  312MOL0     H42104   1.020   5.718   1.536  0.2799  2.0479  2.5020
  312MOL0     H42105   0.931   5.792   1.758 -1.4028  1.0592  0.9840
  312MOL0     H42106   0.594   5.705   2.059  1.5520  1.9764 -2.5563
  312MOL0     H42107   0.562   5.724   2.312 -1.1617 -0.8317 -1.1509
  312MOL0     H42108   0.596   6.104   2.536  0.3699  0.7167  1.0630
  312MOL0     H42109   0.764   6.061   2.518 -0.0963  1.6715 -3.8259
  312MOL0     H42110   0.744   6.048   2.756 -1.5319  0.9941  0.9720
  312MOL0     H42111   0.700   5.886   2.696 -0.1556  0.0211  0.0159
  312MOL0     H42112   0.493   6.111   2.727  0.2882 -0.6849 -0.8334
  312MOL0     H42113   0.553   6.045   2.876  1.5017  0.1015 -0.8068
  312MOL0     H42114   0.414   5.877   2.662 -0.3608  0.2132  0.7792
  312MOL0     H42115   0.504   5.814   2.797  1.6028  0.2128 -0.6805
  312MOL0     H42116   0.126   6.025   2.920 -0.4479  1.7741 -3.0773
  312MOL0     H42117   0.748   6.100   2.293  1.4440 -1.2668  0.3988
  312MOL0     H42118   0.865   6.152   2.011 -0.1886  3.8479  0.0574
  312MOL0     H42119   0.700   6.169   1.954 -0.3551 -0.9091 -0.0559
  312MOL0     H42120   0.747   6.219   2.122  1.8494 -0.1698  0.6469
  313MOL0     O42121  11.210   4.012   3.349  0.4352 -0.5811  0.1330
  313MOL0     C42122  11.254   3.910   3.393 -1.2974 -0.4243 -0.2675
  313MOL0     O42123  11.195   3.792   3.382 -0.4815 -0.7782 -0.3352
  313MOL0     C42124  11.058   3.783   3.389  0.0292 -0.5490  0.5882
  313MOL0     C42125  11.010   3.648   3.379  0.7560 -0.2954 -0.2890
  313MOL0     C42126  10.874   3.615   3.369  0.0501  1.1737  0.7168
  313MOL0     C42127  10.776   3.711   3.397 -0.5612 -0.1362 -0.3476
  313MOL0     O42128  10.639   3.676   3.415  0.0245  0.4172 -0.1696
  313MOL0     C42129  10.542   3.764   3.357 -0.8525 -0.5984  0.1861
  313MOL0     C42130  10.424   3.682   3.314  0.8533 -0.2185 -0.3476
  313MOL0     C42131  10.338   3.628   3.436  0.4023 -0.2235  0.6186
  313MOL0     C42132  10.255   3.731   3.511 -0.0224  0.4898  0.2957
  313MOL0     C42133  10.173   3.648   3.615  0.2282  0.2878 -0.4705
  313MOL0     C42134  10.084   3.742   3.686 -0.2731 -0.3504  0.2553
  313MOL0     C42135   9.955   3.774   3.605 -0.9682  0.2869  0.0106
  313MOL0     C42136   9.864   3.871   3.686  0.2670 -0.2828 -0.2321
  313MOL0     N42137   9.799   3.803   3.798  0.5692  0.4179  0.3327
  313MOL0     C42138   9.700   3.852   3.887 -0.7918 -1.2009 -0.4796
  313MOL0     C42139   9.661   3.748   3.968 -0.8814 -0.2950  0.5753
  313MOL0     C42140   9.550   3.744   4.069 -1.1135  0.0015  0.6884
  313MOL0     C42141   9.462   3.626   4.038 -0.3468 -0.1224  0.7121
  313MOL0     C42142   9.318   3.654   4.086 -0.1619 -0.3407  0.0670
  313MOL0     C42143   9.219   3.560   4.021  0.1748 -0.4144 -0.2100
  313MOL0     O42144   9.087   3.596   4.061  0.0712  0.3585 -0.6060
  313MOL0     C42145   8.983   3.518   4.006 -0.0281 -1.2911 -0.8541
  313MOL0     C42146   8.993   3.431   3.905 -0.9036 -0.4984  0.3135
  313MOL0     C42147   8.896   3.343   3.871  0.2963 -0.5851 -0.9928
  313MOL0     C42148   8.774   3.343   3.950 -0.3525 -0.5367 -0.7533
  313MOL0     C42149   8.672   3.239   3.931  0.7388  1.3970 -0.9487
  313MOL0     O42150   8.585   3.227   4.040  0.0014  0.0458  0.7220
  313MOL0     C42151   8.473   3.156   4.030  0.3808  0.0501  0.2180
  313MOL0     C42152   8.365   3.185   4.114 -0.4523  0.0148  0.6334
  313MOL0     C42153   8.246   3.100   4.121  0.4681 -0.3917 -0.3041
  313MOL0     C42154   8.228   2.995   4.036  0.0454 -0.0209 -0.4923
  313MOL0     O42155   8.115   2.921   4.052  0.4695 -0.8036  0.4686
  313MOL0     C42156   8.003   2.950   3.973  0.2631  0.4665  0.8393
  313MOL0     C42157   7.884   2.860   3.997 -0.0396  0.2111 -0.2941
  313MOL0     C42158   7.903   2.701   3.987 -0.5270  0.0697 -0.5158
  313MOL0     C42159   7.786   2.628   3.915 -0.2433  0.3287  0.0943
  313MOL0     C42160   7.747   2.664   3.779  0.3323 -0.8001 -0.2533
  313MOL0     C42161   7.625   2.588   3.719 -0.8636 -1.0052 -0.8689
  313MOL0     C42162   7.581   2.629   3.581  1.1753  0.1909 -0.5754
  313MOL0     C42163   7.429   2.678   3.577 -0.4136 -1.3217 -0.4508
  313MOL0    Cl42164   7.329   2.549   3.649  0.0734  0.4227 -0.1873
  313MOL0     C42165   8.338   2.960   3.951 -0.9989 -0.1178 -1.1134
  313MOL0     C42166   8.458   3.035   3.960  0.6525  0.0261  0.0741
  313MOL0     O42167   8.657   3.183   3.822  0.0268 -0.6057 -0.0479
  313MOL0     C42168   8.755   3.450   4.037 -0.6148  0.4599  0.1034
  313MOL0     C42169   8.863   3.536   4.075  0.4396 -0.2619  0.3935
  313MOL0     N42170   9.738   3.638   3.928  0.4188 -0.3801 -0.4832
  313MOL0     N42171   9.801   3.665   3.826  0.4030 -0.2198  0.4501
  313MOL0     C42172  10.823   3.847   3.414  0.0627  0.2796  0.0292
  313MOL0     C42173  10.960   3.873   3.416 -0.0776  0.3702  0.4629
  313MOL0     C42174  11.384   3.921   3.477 -0.2285  0.0589  0.7398
  313MOL0     C42175  11.436   3.801   3.524 -0.0915 -0.3525  0.1680
  313MOL0     C42176  11.559   3.798   3.573 -0.7532 -1.1863 -0.8541
  313MOL0     C42177  11.636   3.913   3.589  0.0923  0.5414  0.2928
  313MOL0     O42178  11.754   3.906   3.654 -0.2339 -0.4424  0.2275
  313MOL0     C42179  11.846   3.842   3.559  0.4600  0.5219  0.3255
  313MOL0     C42180  11.979   3.820   3.621  0.0338  0.5765 -0.2647
  313MOL0     C42181  11.984   3.718   3.737  0.7009  0.0601 -0.1830
  313MOL0     C42182  11.946   3.582   3.684  0.8898 -0.1723  0.4740
  313MOL0     C42183  11.987   3.473   3.781 -0.6000  0.0935  0.2667
  313MOL0     C42184  12.032   3.390   3.863  0.0695 -0.5490 -0.0509
  313MOL0     C42185  11.586   4.033   3.544 -0.4671  0.2656 -0.8639
  313MOL0     C42186  11.459   4.041   3.486  0.1688  0.2741 -0.8278
  313MOL0     C42187  11.408   4.184   3.444 -0.3822  0.4643 -0.2679
  313MOL0     H42188  11.080   3.567   3.359 -0.7124 -1.2448 -1.8255
  313MOL0     H42189  10.849   3.510   3.367 -0.6844  1.3260  1.4651
  313MOL0     H42190  10.516   3.850   3.419  0.6576  2.2435 -2.8479
  313MOL0     H42191  10.580   3.798   3.261 -1.4348 -3.7484 -1.2854
  313MOL0     H42192  10.443   3.598   3.247 -0.0338 -0.7773  0.0834
  313MOL0     H42193  10.363   3.749   3.255  1.1631  0.0550 -0.3584
  313MOL0     H42194  10.403   3.554   3.482  2.7024  0.8517 -0.7143
  313MOL0     H42195  10.265   3.559   3.392 -0.9859  0.0915  2.3067
  313MOL0     H42196  10.316   3.806   3.562 -0.0034 -1.0947  2.7581
  313MOL0     H42197  10.189   3.778   3.438 -2.2356  1.8072  2.9638
  313MOL0     H42198  10.111   3.573   3.565 -5.5378  3.1765  1.4365
  313MOL0     H42199  10.245   3.595   3.678  0.2848  1.0210  0.0995
  313MOL0     H42200  10.055   3.704   3.784 -0.9148  2.1753  1.1169
  313MOL0     H42201  10.138   3.836   3.697 -1.5396  0.5436 -0.9245
  313MOL0     H42202   9.914   3.687   3.552 -2.2415  1.2588 -0.6502
  313MOL0     H42203   9.992   3.839   3.525  1.0310 -2.0114 -1.0683
  313MOL0     H42204   9.925   3.952   3.728  1.0641 -1.1606  0.3438
  313MOL0     H42205   9.791   3.917   3.618 -0.0082  0.8228  0.7747
  313MOL0     H42206   9.669   3.956   3.890  1.8473 -0.3628  1.4834
  313MOL0     H42207   9.578   3.724   4.173 -1.6709 -1.8549  0.5138
  313MOL0     H42208   9.493   3.837   4.057  1.3562  1.8189  2.0510
  313MOL0     H42209   9.468   3.595   3.933  0.7530 -1.2177  1.0764
  313MOL0     H42210   9.505   3.541   4.092  0.7170 -1.0046 -1.3913
  313MOL0     H42211   9.286   3.752   4.050  0.2042  0.4256  1.7606
  313MOL0     H42212   9.314   3.654   4.195 -1.1541  1.0617  0.0499
  313MOL0     H42213   9.248   3.457   4.042  1.6446 -0.0408 -0.2839
  313MOL0     H42214   9.225   3.576   3.912 -3.3227 -0.8839 -0.5709
  313MOL0     H42215   9.085   3.423   3.848 -0.0800  1.2534  1.3119
  313MOL0     H42216   8.917   3.261   3.802 -0.0711 -1.0120 -0.5994
  313MOL0     H42217   8.367   3.259   4.194 -2.4339 -0.8336  1.5385
  313MOL0     H42218   8.170   3.123   4.195 -1.0991 -2.1066 -1.3183
  313MOL0     H42219   7.963   3.049   3.999 -2.3849 -0.9074  2.3306
  313MOL0     H42220   8.047   2.943   3.873 -1.6311  0.7167 -0.0577
  313MOL0     H42221   7.858   2.885   4.100 -2.9702 -0.3571 -0.8250
  313MOL0     H42222   7.800   2.886   3.932 -1.3956 -1.1123  0.8683
  313MOL0     H42223   7.999   2.682   3.937 -0.7427 -0.4626 -0.7236
  313MOL0     H42224   7.899   2.665   4.090  0.0459  2.0186  0.2486
  313MOL0     H42225   7.696   2.634   3.976  1.4944  0.2813  2.8484
  313MOL0     H42226   7.821   2.524   3.920 -1.2546 -0.1148 -1.2801
  313MOL0     H42227   7.829   2.652   3.709  1.2996 -0.2973  0.7604
  313MOL0     H42228   7.724   2.771   3.781 -3.2275 -1.4311  0.3549
  313MOL0     H42229   7.637   2.479   3.710  0.4805 -0.8917 -0.5465
  313MOL0     H42230   7.538   2.606   3.782  0.9597  0.8592  1.2388
  313MOL0     H42231   7.584   2.548   3.508 -2.3523 -0.2410 -0.3875
  313MOL0     H42232   7.653   2.708   3.554  1.5676  0.7554  1.8771
  313MOL0     H42233   7.402   2.763   3.640 -2.6578 -1.6187 -0.9256
  313MOL0     H42234   7.396   2.709   3.477 -0.4484  4.5302  0.9722
  313MOL0     H42235   8.318   2.871   3.891 -2.1259  0.2831 -1.3560
  313MOL0     H42236   8.544   2.994   3.908  2.4790  1.9817  1.3657
  313MOL0     H42237   8.660   3.477   4.082  0.3374  0.9497  1.9343
  313MOL0     H42238   8.858   3.622   4.141 -0.3420  2.7640 -3.2827
  313MOL0     H42239  10.753   3.927   3.436 -0.9110 -0.4473 -0.3344
  313MOL0     H42240  10.996   3.974   3.436 -2.8459  1.8301 -1.3855
  313MOL0     H42241  11.382   3.707   3.518  1.7607 -1.6588  2.2994
  313MOL0     H42242  11.610   3.710   3.610 -1.2408 -0.9626  0.4274
  313MOL0     H42243  11.864   3.907   3.473 -4.6706 -1.9328 -3.0850
  313MOL0     H42244  11.814   3.747   3.515  1.3886 -0.0531  0.8576
  313MOL0     H42245  12.010   3.919   3.656  0.5208 -0.1232  1.3526
  313MOL0     H42246  12.045   3.785   3.541  0.6776 -1.6871  1.1830
  313MOL0     H42247  11.920   3.751   3.820 -1.1990 -0.5196 -1.3444
  313MOL0     H42248  12.089   3.710   3.765  1.0501  0.1740 -1.4009
  313MOL0     H42249  11.837   3.577   3.677  0.9841 -1.3577 -0.6025
  313MOL0     H42250  11.991   3.560   3.587  3.1534  2.1488  0.8830
  313MOL0     H42251  12.072   3.326   3.939 -0.5425  1.0546  1.6784
  313MOL0     H42252  11.642   4.125   3.559 -0.8424  0.2072  1.1380
  313MOL0     H42253  11.468   4.257   3.501  0.5547 -0.5067  0.0176
  313MOL0     H42254  11.431   4.194   3.338  1.1985 -3.5360 -0.4578
  313MOL0     H42255  11.302   4.192   3.472 -0.3880 -2.2663  0.8235
  314MOL0     O42256   2.910   8.054   7.586  0.0865  0.2361  0.1159
  314MOL0     C42257   2.808   8.047   7.662 -0.0376 -0.2206 -0.4506
  314MOL0     O42258   2.799   8.093   7.787  0.3524 -0.1415  0.2365
  314MOL0     C42259   2.859   8.210   7.824 -0.1115 -0.6612 -0.2350
  314MOL0     C42260   2.882   8.220   7.963  1.0172 -0.1410  0.2488
  314MOL0     C42261   2.938   8.336   8.021 -0.4851  0.0920 -0.5851
  314MOL0     C42262   2.992   8.438   7.942  0.3828  0.3987  0.2964
  314MOL0     O42263   3.055   8.549   7.991  0.0043  0.0270 -0.6446
  314MOL0     C42264   2.961   8.630   8.064 -1.2974  0.5827 -0.5532
  314MOL0     C42265   2.952   8.756   7.984  0.1284  0.3031 -0.3246
  314MOL0     C42266   2.827   8.844   8.003 -0.1418  0.0781 -0.7830
  314MOL0     C42267   2.822   8.907   8.148 -0.6036 -0.2971  0.8405
  314MOL0     C42268   2.714   9.017   8.175 -0.1909  0.5979  0.7207
  314MOL0     C42269   2.703   9.053   8.326  0.4955 -0.3536 -0.0458
  314MOL0     C42270   2.585   9.149   8.358 -0.1407  0.1377  0.4226
  314MOL0     C42271   2.540   9.125   8.496  0.1908  0.4791 -1.0505
  314MOL0     N42272   2.423   9.215   8.521 -1.0430 -0.0183 -0.3232
  314MOL0     C42273   2.289   9.169   8.524  0.5529  0.1043 -0.0228
  314MOL0     C42274   2.218   9.273   8.569  0.1226  0.0500  0.3642
  314MOL0     C42275   2.072   9.286   8.550  0.0880  0.3137 -0.9471
  314MOL0     C42276   1.986   9.184   8.615  0.2355  0.2776 -1.2856
  314MOL0     C42277   1.841   9.222   8.634 -0.1707  0.8965  0.9907
  314MOL0     C42278   1.748   9.200   8.514  0.4885 -0.0308 -0.2397
  314MOL0     O42279   1.734   9.059   8.485  0.2467 -0.5301  0.7094
  314MOL0     C42280   1.641   9.026   8.391 -0.6006 -0.4856  0.2979
  314MOL0     C42281   1.562   9.107   8.311 -0.3687 -0.7150 -0.5829
  314MOL0     C42282   1.462   9.056   8.224 -0.3307 -0.4388  0.2626
  314MOL0     C42283   1.432   8.920   8.228 -0.2804 -0.6128 -0.6892
  314MOL0     C42284   1.311   8.869   8.155 -1.0240  0.6406  0.1091
  314MOL0     O42285   1.276   8.742   8.171  0.7595  0.3432  0.1231
  314MOL0     C42286   1.167   8.690   8.102 -0.0602 -1.7188  0.2068
  314MOL0     C42287   1.189   8.579   8.036 -0.0059  0.2639  1.0187
  314MOL0     C42288   1.092   8.524   7.955  0.2859  0.0413  0.9549
  314MOL0     C42289   0.962   8.579   7.953  0.0718  0.0460  0.4862
  314MOL0     O42290   0.877   8.499   7.882  0.3417  0.5058 -0.2806
  314MOL0     C42291   0.754   8.557   7.850 -0.4877 -0.1656  0.7488
  314MOL0     C42292   0.697   8.494   7.725  1.0390  0.2800  0.0645
  314MOL0     C42293   0.554   8.538   7.698 -0.1235  0.7474  1.2900
  314MOL0     C42294   0.514   8.503   7.548 -0.1976 -0.3241 -0.0740
  314MOL0     C42295   0.477   8.356   7.535 -0.0582  0.2084 -0.5428
  314MOL0     C42296   0.342   8.329   7.578 -0.5028  0.3057  0.0967
  314MOL0     C42297   0.337   8.190   7.643 -0.4227 -0.1780  0.2243
  314MOL0     C42298   0.200   8.176   7.704  0.5871 -0.3877  0.2812
  314MOL0    Cl42299   0.077   8.173   7.580 -0.4956  0.1315 -0.2852
  314MOL0     C42300   0.938   8.694   8.033 -0.1951 -0.7831  0.0285
  314MOL0     C42301   1.041   8.751   8.105 -0.3939  0.4177 -0.1745
  314MOL0     O42302   1.265   8.946   8.071 -0.4523 -0.1127  0.3371
  314MOL0     C42303   1.512   8.834   8.302 -0.3364  0.1231  0.5684
  314MOL0     C42304   1.618   8.883   8.378  0.3249  0.5397 -0.6223
  314MOL0     N42305   2.304   9.378   8.605  0.8143 -0.2421  0.6473
  314MOL0     N42306   2.429   9.343   8.578 -0.3462 -0.9031  0.1667
  314MOL0     C42307   2.971   8.434   7.801 -0.3450  0.6345  0.4997
  314MOL0     C42308   2.919   8.315   7.745  1.3518  0.5427 -0.1194
  314MOL0     C42309   2.712   7.940   7.627  0.4591  0.2252  0.5973
  314MOL0     C42310   2.706   7.900   7.489 -0.5885 -0.3143 -1.0479
  314MOL0     C42311   2.614   7.800   7.447  0.1012  0.1641  0.5368
  314MOL0     C42312   2.545   7.727   7.540 -0.4103 -1.1680 -0.5350
  314MOL0     O42313   2.468   7.615   7.509 -0.3948  0.3125 -1.2004
  314MOL0     C42314   2.442   7.592   7.367 -0.1797  0.3103 -0.5850
  314MOL0     C42315   2.341   7.469   7.358 -0.9141 -0.4145  0.3879
  314MOL0     C42316   2.202   7.527   7.382  0.2098  0.5512 -0.8783
  314MOL0     C42317   2.090   7.422   7.349 -0.3741  0.6351  1.1057
  314MOL0     C42318   2.100   7.295   7.416  0.7563 -0.2392  0.6658
  314MOL0     C42319   2.117   7.201   7.483  0.0280 -0.5503  0.5716
  314MOL0     C42320   2.555   7.760   7.678 -0.6396 -0.7995  0.1281
  314MOL0     C42321   2.645   7.852   7.723  0.5298 -0.9873 -0.9808
  314MOL0     C42322   2.668   7.853   7.871 -0.2329  0.5471 -0.6559
  314MOL0     H42323   2.862   8.134   8.026  0.7027  0.4650  0.9934
  314MOL0     H42324   2.960   8.333   8.127 -1.2211  3.7042 -0.1962
  314MOL0     H42325   2.865   8.583   8.087 -0.0811 -0.7061  2.3892
  314MOL0     H42326   3.011   8.655   8.158 -1.1553 -2.6447  0.3442
  314MOL0     H42327   2.962   8.745   7.876 -1.2307  2.4577 -0.7304
  314MOL0     H42328   3.035   8.822   8.010  1.7317 -1.1866 -1.4296
  314MOL0     H42329   2.735   8.787   7.989 -0.5327  0.2633  0.8116
  314MOL0     H42330   2.836   8.930   7.935 -3.1957  0.4636 -0.8261
  314MOL0     H42331   2.801   8.822   8.214  0.3214 -1.3760 -0.2145
  314MOL0     H42332   2.919   8.955   8.165 -0.1353 -1.0122  0.2636
  314MOL0     H42333   2.741   9.109   8.123  2.1349  0.6965  1.9647
  314MOL0     H42334   2.613   8.982   8.153 -0.1513 -1.9223  3.7734
  314MOL0     H42335   2.699   8.964   8.389 -2.5364  0.0329  0.4247
  314MOL0     H42336   2.797   9.110   8.327 -0.4650  1.2771  0.5449
  314MOL0     H42337   2.504   9.132   8.286 -0.7553  1.2469  0.8150
  314MOL0     H42338   2.622   9.252   8.347 -0.0497 -0.1179 -2.9709
  314MOL0     H42339   2.518   9.021   8.522 -1.9282  0.8085 -1.4094
  314MOL0     H42340   2.624   9.156   8.560  1.0745 -1.4678 -1.1781
  314MOL0     H42341   2.256   9.077   8.476  2.8546  0.3297 -2.2622
  314MOL0     H42342   2.047   9.383   8.593  4.9093  1.1602  0.5831
  314MOL0     H42343   2.047   9.293   8.444  2.2030 -2.6669 -1.7600
  314MOL0     H42344   2.007   9.095   8.556  2.4748  2.1244 -3.5310
  314MOL0     H42345   2.026   9.155   8.712  0.3096  2.6991 -0.5140
  314MOL0     H42346   1.840   9.331   8.639  0.4722  0.9770 -0.1694
  314MOL0     H42347   1.803   9.172   8.723  1.6117  0.3955  1.5109
  314MOL0     H42348   1.798   9.255   8.434 -2.2183  1.1680 -1.2323
  314MOL0     H42349   1.650   9.246   8.533 -1.1123 -2.8086 -1.2919
  314MOL0     H42350   1.580   9.213   8.314 -1.6999 -0.4793 -0.1002
  314MOL0     H42351   1.408   9.126   8.161 -1.9958 -0.6275  1.4374
  314MOL0     H42352   1.289   8.538   8.047  0.6995  0.3427 -3.4220
  314MOL0     H42353   1.120   8.439   7.894  2.9294  1.0544  0.6130
  314MOL0     H42354   0.696   8.541   7.942  0.6511 -1.9965  1.2110
  314MOL0     H42355   0.753   8.664   7.828  0.7340 -0.6810 -2.2065
  314MOL0     H42356   0.762   8.521   7.640  0.2811 -4.5414 -2.4033
  314MOL0     H42357   0.696   8.387   7.747  0.3236  0.4400  0.8432
  314MOL0     H42358   0.480   8.486   7.759  1.2602  0.2373  2.6089
  314MOL0     H42359   0.550   8.644   7.724 -2.4611  0.2256  3.5041
  314MOL0     H42360   0.599   8.525   7.482  0.6688 -0.7710  0.8632
  314MOL0     H42361   0.431   8.566   7.515  1.2225  2.3991  1.1751
  314MOL0     H42362   0.554   8.298   7.588 -1.0332  1.6097  2.6809
  314MOL0     H42363   0.471   8.322   7.431 -1.8588  2.6707 -1.3338
  314MOL0     H42364   0.315   8.397   7.659  2.7536 -0.1026  1.7030
  314MOL0     H42365   0.271   8.346   7.497 -1.0849  1.3968  0.8164
  314MOL0     H42366   0.416   8.184   7.718 -3.6883  0.4300  3.9970
  314MOL0     H42367   0.346   8.112   7.567  1.5573 -1.4942  1.7222
  314MOL0     H42368   0.186   8.090   7.771 -0.9827 -0.0739  0.3945
  314MOL0     H42369   0.179   8.266   7.763 -2.2760 -0.2910 -0.7401
  314MOL0     H42370   0.836   8.729   8.050  0.3706  0.3161  1.3627
  314MOL0     H42371   1.027   8.841   8.163  0.6384 -1.0111  2.4369
  314MOL0     H42372   1.489   8.729   8.296 -0.1037  0.1016 -0.0039
  314MOL0     H42373   1.681   8.808   8.425  0.7909  1.6319  0.5700
  314MOL0     H42374   3.004   8.519   7.742  2.6684 -0.4443  0.4321
  314MOL0     H42375   2.899   8.310   7.639 -3.9935  0.6317  0.6129
  314MOL0     H42376   2.767   7.946   7.413 -0.6156 -0.8808 -1.4163
  314MOL0     H42377   2.613   7.764   7.345 -1.7268 -2.7383  1.4614
  314MOL0     H42378   2.534   7.556   7.321  1.0900 -1.0126  2.7131
  314MOL0     H42379   2.403   7.683   7.320 -1.6833 -0.4454 -0.8599
  314MOL0     H42380   2.358   7.398   7.440  1.6753  1.6244  1.7702
  314MOL0     H42381   2.355   7.426   7.259 -2.0071 -0.9042  0.4245
  314MOL0     H42382   2.184   7.622   7.332 -1.9311 -1.2319 -3.8728
  314MOL0     H42383   2.193   7.542   7.490  2.3460 -1.4904 -0.3392
  314MOL0     H42384   1.995   7.462   7.385  0.3584  0.6248  3.1936
  314MOL0     H42385   2.074   7.411   7.241 -0.5173  4.2438  0.6363
  314MOL0     H42386   2.123   7.124   7.557 -2.0196  1.3022  2.8544
  314MOL0     H42387   2.500   7.705   7.754  1.5734  1.3909  3.6049
  314MOL0     H42388   2.625   7.775   7.935  2.5466  0.4427  1.2386
  314MOL0     H42389   2.777   7.847   7.884 -0.2454 -0.3998 -0.9043
  314MOL0     H42390   2.630   7.949   7.907  2.5345  1.5869 -0.2976
  315MOL0     O42391   2.628   6.705   0.574 -0.3377 -0.5907 -0.1442
  315MOL0     C42392   2.558   6.744   0.675  0.5114  0.4917  0.7134
  315MOL0     O42393   2.492   6.658   0.753 -0.3787 -0.2198 -0.4013
  315MOL0     C42394   2.554   6.541   0.780  0.2225  0.6109  0.2703
  315MOL0     C42395   2.479   6.419   0.774 -0.4972 -0.6813 -0.5854
  315MOL0     C42396   2.539   6.302   0.806  0.7131  0.8504  0.3901
  315MOL0     C42397   2.674   6.293   0.851  0.5546  0.4368 -0.2763
  315MOL0     O42398   2.724   6.171   0.883 -0.0628  0.9219 -0.0239
  315MOL0     C42399   2.641   6.091   0.975  0.0117  0.4437 -1.7161
  315MOL0     C42400   2.725   5.991   1.063  0.7209 -0.1793  1.2011
  315MOL0     C42401   2.841   6.050   1.152  0.1126  0.4027  0.6501
  315MOL0     C42402   2.895   5.941   1.250  0.3436 -0.2578  0.0827
  315MOL0     C42403   2.960   6.013   1.368 -0.4127  0.2757  0.2062
  315MOL0     C42404   3.065   5.929   1.438  0.1216  0.2223 -0.6974
  315MOL0     C42405   3.158   6.001   1.533 -0.3523 -1.4547  0.4407
  315MOL0     C42406   3.240   5.903   1.613 -0.6881 -0.4004 -0.2349
  315MOL0     N42407   3.149   5.851   1.717 -0.5319  0.6043 -0.3803
  315MOL0     C42408   3.090   5.730   1.713  0.6065  0.1526 -0.6897
  315MOL0     C42409   3.012   5.727   1.823 -0.4426 -0.3369 -0.0840
  315MOL0     C42410   2.934   5.610   1.884  0.2319 -0.5202 -0.1133
  315MOL0     C42411   2.783   5.607   1.837  0.5117  0.3328  1.1233
  315MOL0     C42412   2.711   5.731   1.889 -0.3172 -0.9981  0.4438
  315MOL0     C42413   2.664   5.713   2.038 -0.2573  0.7117  0.0152
  315MOL0     O42414   2.582   5.597   2.049 -0.3416 -0.1914  0.5210
  315MOL0     C42415   2.557   5.550   2.175 -1.0561  0.2108  0.3827
  315MOL0     C42416   2.508   5.416   2.195 -0.0892  0.3293  0.5679
  315MOL0     C42417   2.510   5.356   2.314  0.0186 -0.1280 -0.3062
  315MOL0     C42418   2.532   5.438   2.431 -0.4433 -0.0775  0.1169
  315MOL0     C42419   2.528   5.385   2.574  0.9823 -0.7596 -0.0080
  315MOL0     O42420   2.548   5.473   2.674 -0.1244 -0.2602  0.6295
  315MOL0     C42421   2.531   5.451   2.811  0.1755  0.1994 -0.5202
  315MOL0     C42422   2.614   5.528   2.898  0.3656  0.7914 -0.4505
  315MOL0     C42423   2.610   5.505   3.041 -0.1479  0.1976  1.6927
  315MOL0     C42424   2.532   5.401   3.086  0.6893 -0.4375 -0.9576
  315MOL0     O42425   2.524   5.376   3.225 -0.0200  0.5246  0.6347
  315MOL0     C42426   2.533   5.485   3.317  0.5548  0.7691  1.1682
  315MOL0     C42427   2.466   5.457   3.447  0.0886  0.8942 -0.1756
  315MOL0     C42428   2.439   5.578   3.535  0.2334 -0.9045  0.0971
  315MOL0     C42429   2.405   5.545   3.683 -0.0779 -0.2086  0.7409
  315MOL0     C42430   2.278   5.455   3.703  0.5208  0.0974  0.3224
  315MOL0     C42431   2.240   5.438   3.847  0.2336  0.2604 -0.0464
  315MOL0     C42432   2.145   5.321   3.875  0.9468 -0.0306 -1.3300
  315MOL0     C42433   2.067   5.355   4.002  0.6647 -0.2060  0.8893
  315MOL0    Cl42434   1.952   5.215   4.052  0.1951  0.2625 -0.0180
  315MOL0     C42435   2.438   5.344   3.006 -0.7130  0.1136  0.3522
  315MOL0     C42436   2.441   5.371   2.867  0.3617 -0.1364 -0.8759
  315MOL0     O42437   2.504   5.266   2.577 -0.5265  0.9441  0.1077
  315MOL0     C42438   2.566   5.575   2.422  0.0815  0.4388 -0.1890
  315MOL0     C42439   2.582   5.619   2.291  0.1126 -1.0169 -0.7905
  315MOL0     N42440   3.028   5.840   1.892  0.0153  0.0768  0.1430
  315MOL0     N42441   3.112   5.919   1.826  0.1992 -0.0178  0.2267
  315MOL0     C42442   2.750   6.408   0.848 -0.2830 -0.4869 -0.0817
  315MOL0     C42443   2.688   6.537   0.818 -0.3388  0.4881  1.1758
  315MOL0     C42444   2.532   6.885   0.688 -0.3016  0.2883 -0.5510
  315MOL0     C42445   2.631   6.963   0.745  0.4878 -0.2483 -0.5251
  315MOL0     C42446   2.611   7.097   0.760 -0.2911  0.1013  0.4598
  315MOL0     C42447   2.492   7.160   0.718 -0.5198 -0.5897  0.5985
  315MOL0     O42448   2.478   7.293   0.744 -0.0152  0.1108 -0.6264
  315MOL0     C42449   2.457   7.373   0.627 -0.3054  0.2932  1.2811
  315MOL0     C42450   2.312   7.422   0.629 -0.1893 -0.3690 -0.2805
  315MOL0     C42451   2.292   7.529   0.535 -0.8276 -0.8626  1.1540
  315MOL0     C42452   2.395   7.645   0.503 -1.1530 -0.9474  0.2705
  315MOL0     C42453   2.427   7.723   0.626  0.8813 -0.3337  0.3856
  315MOL0     C42454   2.475   7.796   0.707  0.2568  0.3230  1.1062
  315MOL0     C42455   2.393   7.079   0.668  1.0981  1.1272 -0.0868
  315MOL0     C42456   2.412   6.942   0.657  1.1664  1.2541  0.8900
  315MOL0     C42457   2.292   6.857   0.615  0.3731  0.5796  0.7405
  315MOL0     H42458   2.372   6.425   0.758 -0.4462 -0.8452 -0.9832
  315MOL0     H42459   2.476   6.214   0.815  2.4413 -0.2324  3.4336
  315MOL0     H42460   2.591   6.152   1.051 -0.7290 -1.7644 -0.3401
  315MOL0     H42461   2.558   6.040   0.925 -1.0330  0.1933  0.1753
  315MOL0     H42462   2.781   5.932   0.990  0.0392 -2.0864  2.1693
  315MOL0     H42463   2.661   5.924   1.121 -1.1819  0.3234 -0.2279
  315MOL0     H42464   2.796   6.130   1.211 -1.6038 -1.4689  2.0511
  315MOL0     H42465   2.916   6.081   1.080  0.9270 -1.6829  0.5404
  315MOL0     H42466   2.823   5.870   1.292  0.8527 -0.2756  0.9555
  315MOL0     H42467   2.963   5.877   1.193 -1.6238  0.0871 -2.8089
  315MOL0     H42468   3.024   6.093   1.330 -0.7675  1.4548  1.9484
  315MOL0     H42469   2.890   6.060   1.439  0.7409 -2.4219  3.4122
  315MOL0     H42470   3.007   5.850   1.486 -0.2815 -0.2009 -1.8453
  315MOL0     H42471   3.108   5.862   1.363 -0.2047 -1.3096  0.4231
  315MOL0     H42472   3.111   6.065   1.609  0.6873 -0.4314  0.2458
  315MOL0     H42473   3.225   6.068   1.480 -1.4761  0.5713  1.4506
  315MOL0     H42474   3.274   5.825   1.545  2.6091  1.6093 -1.1027
  315MOL0     H42475   3.323   5.960   1.656 -0.3500  0.1800 -1.6035
  315MOL0     H42476   3.090   5.642   1.649 -1.8148 -0.9882  0.7311
  315MOL0     H42477   2.978   5.515   1.853 -2.2986 -2.0318  0.5599
  315MOL0     H42478   2.940   5.616   1.993 -1.4045  0.8020 -0.0538
  315MOL0     H42479   2.765   5.616   1.730 -1.6866  1.6657  1.5385
  315MOL0     H42480   2.731   5.518   1.874  2.7465 -0.6064  2.2550
  315MOL0     H42481   2.618   5.752   1.835 -0.4337 -2.3260  0.0916
  315MOL0     H42482   2.767   5.824   1.872 -3.1222  0.6840 -0.3623
  315MOL0     H42483   2.614   5.807   2.065  1.7450  1.5740  0.8947
  315MOL0     H42484   2.750   5.693   2.101 -0.0836 -1.3034 -0.8049
  315MOL0     H42485   2.476   5.354   2.112 -1.4034 -1.2099  2.1616
  315MOL0     H42486   2.493   5.252   2.340  0.7976  0.0626  1.0939
  315MOL0     H42487   2.685   5.600   2.859 -1.2498  2.5437 -0.2700
  315MOL0     H42488   2.679   5.547   3.114  0.7616 -0.5558  1.2984
  315MOL0     H42489   2.637   5.514   3.337  0.8280  0.3255  0.4458
  315MOL0     H42490   2.481   5.570   3.272 -0.1934 -0.8423 -1.2412
  315MOL0     H42491   2.364   5.419   3.437  0.0373  0.9487  0.1142
  315MOL0     H42492   2.520   5.381   3.504 -1.4887  0.2307  0.4976
  315MOL0     H42493   2.517   5.654   3.536 -0.1549 -0.3822 -2.7852
  315MOL0     H42494   2.362   5.624   3.474  1.5591  0.7306 -0.4164
  315MOL0     H42495   2.381   5.646   3.717  1.3707  0.3489  0.2023
  315MOL0     H42496   2.495   5.521   3.740  2.3091  2.3480 -1.6306
  315MOL0     H42497   2.310   5.360   3.660  1.3241 -0.3719  1.8827
  315MOL0     H42498   2.198   5.491   3.638  0.4338 -1.8124 -0.6787
  315MOL0     H42499   2.335   5.419   3.899  0.3649 -2.7603 -1.1599
  315MOL0     H42500   2.189   5.525   3.888  1.8907 -0.4790  4.1579
  315MOL0     H42501   2.203   5.230   3.894  1.5579  0.6823  0.4063
  315MOL0     H42502   2.076   5.295   3.794 -1.4552 -0.4992  0.7282
  315MOL0     H42503   2.143   5.347   4.080 -0.1504 -1.4337  1.5928
  315MOL0     H42504   2.009   5.447   3.996 -1.2188 -1.2901  1.8637
  315MOL0     H42505   2.371   5.277   3.058 -0.0454 -1.3769 -0.6014
  315MOL0     H42506   2.367   5.326   2.801  0.2285 -1.4282  0.1188
  315MOL0     H42507   2.586   5.631   2.514 -2.9682  0.5963  0.4880
  315MOL0     H42508   2.624   5.718   2.279 -3.1739  1.4469  4.2808
  315MOL0     H42509   2.854   6.387   0.869 -0.3184 -0.1344  0.4523
  315MOL0     H42510   2.743   6.630   0.828  1.1635 -0.1559 -0.4969
  315MOL0     H42511   2.726   6.917   0.772  2.0191  0.9588 -3.3553
  315MOL0     H42512   2.695   7.154   0.800  1.3545 -2.3799  0.7318
  315MOL0     H42513   2.486   7.321   0.536  0.6972  2.6046  0.2103
  315MOL0     H42514   2.521   7.459   0.648 -0.8869  0.6202  1.7828
  315MOL0     H42515   2.292   7.461   0.729 -1.4721 -0.2123 -0.5869
  315MOL0     H42516   2.235   7.346   0.612 -0.8988  0.2076  0.2992
  315MOL0     H42517   2.189   7.565   0.543 -0.5432  1.0765 -1.9842
  315MOL0     H42518   2.289   7.488   0.433 -1.3499  1.9104 -0.0511
  315MOL0     H42519   2.488   7.598   0.471 -1.1056 -1.8466  1.6508
  315MOL0     H42520   2.352   7.717   0.432  1.7992 -1.1768 -1.9372
  315MOL0     H42521   2.511   7.867   0.778  1.4322 -0.6691  1.5423
  315MOL0     H42522   2.293   7.120   0.654  0.2414 -1.1359 -1.0938
  315MOL0     H42523   2.239   6.911   0.536 -2.8561 -1.4287  1.3445
  315MOL0     H42524   2.320   6.767   0.558  0.8264  0.3769  1.2684
  315MOL0     H42525   2.236   6.829   0.704  0.2259 -0.5939  0.3083
  316MOL0     O42526   9.408   6.742   7.498 -0.0655 -0.3119 -1.3494
  316MOL0     C42527   9.463   6.791   7.409  0.1018  0.0222  0.9023
  316MOL0     O42528   9.498   6.920   7.409 -0.0344 -0.6726 -0.4473
  316MOL0     C42529   9.475   7.002   7.523  0.2557  0.3559  0.1293
  316MOL0     C42530   9.355   7.027   7.594  0.3501 -0.3565 -0.0416
  316MOL0     C42531   9.357   7.104   7.712  0.2972  0.1465  0.9194
  316MOL0     C42532   9.476   7.175   7.748 -0.3691 -0.5720  0.1028
  316MOL0     O42533   9.485   7.252   7.860 -0.4200 -0.3912  0.6620
  316MOL0     C42534   9.366   7.316   7.904  0.4300 -0.9070  0.1198
  316MOL0     C42535   9.392   7.385   8.034  0.0421 -0.5063  0.8976
  316MOL0     C42536   9.265   7.459   8.090 -0.9589 -0.0165  0.2193
  316MOL0     C42537   9.248   7.602   8.028  1.1172 -0.2123  0.6672
  316MOL0     C42538   9.119   7.665   8.024 -0.1830 -1.0347 -0.4461
  316MOL0     C42539   9.135   7.822   8.025 -0.7093  0.1898  0.4227
  316MOL0     C42540   9.003   7.890   8.018  0.3158 -0.0048 -0.8945
  316MOL0     C42541   9.012   8.038   8.061  0.9016  0.3600 -0.2229
  316MOL0     N42542   8.885   8.108   8.029  0.3476 -0.8136 -0.3501
  316MOL0     C42543   8.882   8.221   7.957  0.5821  0.2182 -0.1810
  316MOL0     C42544   8.747   8.249   7.936 -0.6109  0.5274 -0.7767
  316MOL0     C42545   8.709   8.361   7.850  0.1115 -0.2777  0.2480
  316MOL0     C42546   8.565   8.385   7.845 -0.5386  0.5007  0.1972
  316MOL0     C42547   8.523   8.487   7.752  0.4078 -0.3662  0.6844
  316MOL0     C42548   8.374   8.522   7.761  0.8701  0.3679 -0.3830
  316MOL0     O42549   8.336   8.599   7.650  0.0698  0.1470 -0.3759
  316MOL0     C42550   8.233   8.682   7.665  0.5234  0.1863 -0.7308
  316MOL0     C42551   8.101   8.634   7.696  0.3035 -0.0786  0.4730
  316MOL0     C42552   7.998   8.728   7.709  0.8102  0.5107  0.0986
  316MOL0     C42553   8.013   8.852   7.640  1.0504  0.2220 -1.4057
  316MOL0     C42554   7.891   8.933   7.621  0.0474 -0.8565 -1.0920
  316MOL0     O42555   7.905   9.064   7.617  0.6705  0.6155  0.0108
  316MOL0     C42556   7.790   9.136   7.575 -0.6436  0.5091 -0.0199
  316MOL0     C42557   7.794   9.171   7.435 -0.5457  0.3184  0.3503
  316MOL0     C42558   7.684   9.229   7.374  0.8397 -1.3256  0.2776
  316MOL0     C42559   7.568   9.257   7.450 -0.6231 -0.2001  0.2089
  316MOL0     O42560   7.465   9.308   7.379 -0.1098  1.2389 -0.2431
  316MOL0     C42561   7.338   9.307   7.450  0.0859 -0.1720  0.0520
  316MOL0     C42562   7.232   9.349   7.338  0.0692 -0.0876  0.0203
  316MOL0     C42563   7.236   9.249   7.222  0.7987 -0.5568 -0.3589
  316MOL0     C42564   7.102   9.252   7.146  0.4914 -0.1399 -1.0605
  316MOL0     C42565   7.115   9.143   7.026 -0.6467 -0.3782 -1.5391
  316MOL0     C42566   6.973   9.116   6.988  0.7159  0.8643 -0.4041
  316MOL0     C42567   6.976   8.980   6.917  0.3707  0.9550 -0.0689
  316MOL0     C42568   6.870   8.987   6.806 -0.2469 -0.1022  0.8086
  316MOL0    Cl42569   6.697   8.995   6.876  0.0288 -0.1581 -0.6768
  316MOL0     C42570   7.563   9.198   7.583  0.0429 -0.0323  1.0622
  316MOL0     C42571   7.678   9.151   7.649  0.1795 -0.0791  0.0191
  316MOL0     O42572   7.786   8.873   7.648 -0.1585  0.0201  0.7271
  316MOL0     C42573   8.141   8.904   7.627  0.4937  0.0754 -0.4416
  316MOL0     C42574   8.246   8.823   7.639 -0.0762  0.3963  0.1666
  316MOL0     N42575   8.676   8.146   8.005 -0.2627 -0.2868  0.2825
  316MOL0     N42576   8.761   8.061   8.054 -0.0402  0.2871  0.1606
  316MOL0     C42577   9.587   7.160   7.662  2.3044 -0.5783  0.2750
  316MOL0     C42578   9.586   7.080   7.552  0.3857 -0.1140 -0.4568
  316MOL0     C42579   9.510   6.708   7.297  0.9838  0.0128  1.0221
  316MOL0     C42580   9.537   6.770   7.176 -0.4694 -0.4152 -0.1949
  316MOL0     C42581   9.545   6.704   7.056 -0.3046 -0.2915 -0.4566
  316MOL0     C42582   9.519   6.565   7.047 -0.2108  0.1590  0.1860
  316MOL0     O42583   9.498   6.503   6.927 -0.0862 -0.0801 -0.1416
  316MOL0     C42584   9.512   6.358   6.912 -0.2117  0.2120  0.2554
  316MOL0     C42585   9.663   6.326   6.914  0.4179  0.3210 -0.0173
  316MOL0     C42586   9.705   6.183   6.886 -0.1189 -0.0614 -0.1618
  316MOL0     C42587   9.852   6.190   6.845  0.3362 -0.3118  0.2695
  316MOL0     C42588   9.919   6.068   6.870 -0.5093  0.6159 -0.6896
  316MOL0     C42589   9.988   5.978   6.916 -0.6290 -0.1736  0.6261
  316MOL0     C42590   9.520   6.493   7.176  1.0166 -0.3690 -0.7344
  316MOL0     C42591   9.518   6.558   7.302  0.4725  0.1878  0.4687
  316MOL0     C42592   9.508   6.470   7.428  0.6488 -0.7987 -0.0952
  316MOL0     H42593   9.261   6.981   7.565  0.1120  0.5061 -0.6836
  316MOL0     H42594   9.268   7.106   7.774  0.9658  1.4331  1.8852
  316MOL0     H42595   9.338   7.382   7.822  4.3956  1.8085  0.6944
  316MOL0     H42596   9.289   7.240   7.921 -0.0147 -0.4259  0.3042
  316MOL0     H42597   9.477   7.449   8.010 -0.0785 -0.5747  0.2628
  316MOL0     H42598   9.417   7.315   8.114  2.4269 -0.0781  0.5848
  316MOL0     H42599   9.275   7.482   8.197 -3.0491  3.1964 -0.1551
  316MOL0     H42600   9.176   7.398   8.074  1.1508 -2.9575 -1.3186
  316MOL0     H42601   9.318   7.662   8.087  3.6399 -2.2364 -0.0962
  316MOL0     H42602   9.293   7.602   7.928  1.3051  2.1938  0.6749
  316MOL0     H42603   9.065   7.649   7.930 -1.3780 -1.0755  0.2221
  316MOL0     H42604   9.055   7.631   8.106  3.2475 -0.9633  2.5277
  316MOL0     H42605   9.193   7.857   8.111 -1.4024 -1.5202  1.6422
  316MOL0     H42606   9.198   7.846   7.939  2.3249 -1.2659  2.0711
  316MOL0     H42607   8.931   7.846   8.088  0.1823 -3.2212 -2.8472
  316MOL0     H42608   8.969   7.885   7.914  1.6648  0.2257 -1.3681
  316MOL0     H42609   9.019   8.041   8.170  3.8712  4.0695 -0.2698
  316MOL0     H42610   9.098   8.095   8.023  0.2535  1.5287  0.0120
  316MOL0     H42611   8.970   8.273   7.919 -1.1313  1.3525 -2.9306
  316MOL0     H42612   8.765   8.450   7.880 -0.5738 -0.0299  0.8090
  316MOL0     H42613   8.738   8.340   7.746  0.0859  0.6390  0.0464
  316MOL0     H42614   8.511   8.292   7.825  2.5557 -1.0898 -1.5859
  316MOL0     H42615   8.543   8.425   7.944 -0.2357  0.7536  0.1616
  316MOL0     H42616   8.529   8.457   7.647 -3.4652  3.9049 -1.0894
  316MOL0     H42617   8.592   8.571   7.757 -1.7500  1.4809  1.3757
  316MOL0     H42618   8.349   8.565   7.859  0.8118 -0.6123  0.0395
  316MOL0     H42619   8.311   8.434   7.749  1.1108  0.2361 -0.6804
  316MOL0     H42620   8.099   8.529   7.720 -0.7549 -0.8017 -2.4010
  316MOL0     H42621   7.896   8.707   7.739  0.2521  3.5351  0.7157
  316MOL0     H42622   7.888   9.149   7.385 -0.1329  2.3490  0.1445
  316MOL0     H42623   7.687   9.257   7.269  0.2296 -0.2535  0.5262
  316MOL0     H42624   7.323   9.206   7.490  2.7445 -0.7936 -0.3682
  316MOL0     H42625   7.354   9.363   7.542  4.0075  1.2109 -1.2970
  316MOL0     H42626   7.127   9.348   7.372 -0.0180  0.1484 -0.2406
  316MOL0     H42627   7.250   9.451   7.301 -0.9729 -0.6145 -2.0565
  316MOL0     H42628   7.318   9.274   7.154  1.1085  1.6560  0.7217
  316MOL0     H42629   7.258   9.149   7.261 -0.8565 -2.0358 -2.8620
  316MOL0     H42630   7.065   9.345   7.102  0.3148  0.1695 -0.2715
  316MOL0     H42631   7.026   9.214   7.214 -2.5598  2.0202 -3.0005
  316MOL0     H42632   7.172   9.057   7.062 -0.1195 -0.4195 -2.4497
  316MOL0     H42633   7.174   9.181   6.941  0.6929  0.9660 -0.0829
  316MOL0     H42634   6.904   9.112   7.074  0.6824  1.7223 -0.3863
  316MOL0     H42635   6.934   9.194   6.922  0.9793  1.4591  0.1285
  316MOL0     H42636   6.951   8.902   6.990 -0.1964  0.1878 -1.0471
  316MOL0     H42637   7.071   8.955   6.869  0.0842  1.9951 -1.2287
  316MOL0     H42638   6.880   9.072   6.738  2.0674  0.1610  1.3871
  316MOL0     H42639   6.877   8.898   6.743 -0.3249  0.8527 -0.6099
  316MOL0     H42640   7.472   9.194   7.642 -0.3750 -0.9489  0.3649
  316MOL0     H42641   7.680   9.109   7.750  1.0787 -2.6191 -0.9671
  316MOL0     H42642   8.150   9.008   7.600  1.3382 -0.1466 -1.0379
  316MOL0     H42643   8.346   8.866   7.637  0.8766 -1.3622  3.2755
  316MOL0     H42644   9.673   7.221   7.686  0.4901  2.8405 -1.1937
  316MOL0     H42645   9.671   7.085   7.484 -0.6573 -0.6695 -1.8628
  316MOL0     H42646   9.538   6.878   7.180 -0.7605 -0.4679  1.8822
  316MOL0     H42647   9.564   6.750   6.959 -1.0340  0.9335 -0.0328
  316MOL0     H42648   9.475   6.328   6.814  0.4081  0.7944 -0.1594
  316MOL0     H42649   9.455   6.295   6.981 -1.3990 -0.1976 -1.0554
  316MOL0     H42650   9.705   6.373   7.004  0.6786  1.5902 -0.7687
  316MOL0     H42651   9.704   6.391   6.836  0.3922  0.9798  0.5105
  316MOL0     H42652   9.650   6.138   6.802 -2.5854  0.8367  0.8708
  316MOL0     H42653   9.686   6.123   6.975 -3.6054  1.5540  0.3601
  316MOL0     H42654   9.843   6.208   6.737  0.9952 -1.4539  0.0115
  316MOL0     H42655   9.911   6.267   6.895  2.5697 -2.3223  0.8948
  316MOL0     H42656  10.059   5.900   6.936  2.1772  2.6524  2.4944
  316MOL0     H42657   9.514   6.384   7.171 -0.4326 -0.3200 -0.5491
  316MOL0     H42658   9.536   6.365   7.410 -1.7112 -1.4738 -0.1993
  316MOL0     H42659   9.577   6.518   7.498  2.6159  0.2590 -2.5774
  316MOL0     H42660   9.401   6.467   7.451  0.2227 -1.6410 -1.9299
  317MOL0     O42661   4.837   6.030   5.732 -0.1405 -1.0737  0.5629
  317MOL0     C42662   4.798   6.145   5.705 -0.6539  0.9777 -0.7609
  317MOL0     O42663   4.690   6.182   5.634  0.1403  0.5738  0.2167
  317MOL0     C42664   4.583   6.094   5.622  0.6421  0.6097 -0.1273
  317MOL0     C42665   4.489   6.128   5.522  0.2385  0.5707  0.8534
  317MOL0     C42666   4.375   6.052   5.496 -0.1016  0.1677 -0.2159
  317MOL0     C42667   4.334   5.956   5.594  0.5557  0.1280 -0.0125
  317MOL0     O42668   4.226   5.875   5.575 -0.0220  0.1313 -0.1142
  317MOL0     C42669   4.104   5.950   5.548 -0.4344  0.1839 -0.2298
  317MOL0     C42670   3.991   5.868   5.611  0.0991  1.0619  0.0638
  317MOL0     C42671   3.855   5.937   5.627 -0.5636  1.3287  0.5052
  317MOL0     C42672   3.750   5.864   5.709 -0.3482  0.5696  0.6484
  317MOL0     C42673   3.609   5.902   5.674 -0.1686  0.5170  0.3085
  317MOL0     C42674   3.516   5.798   5.743 -0.9823 -0.5770 -0.1148
  317MOL0     C42675   3.366   5.809   5.703  0.1108 -0.2336  0.8285
  317MOL0     C42676   3.282   5.731   5.799  0.0567  0.1563  0.2702
  317MOL0     N42677   3.262   5.799   5.925  0.2348  0.5998  0.7213
  317MOL0     C42678   3.232   5.931   5.939  0.5938  0.2837  0.3111
  317MOL0     C42679   3.260   5.959   6.060 -0.9515 -1.1836  0.3746
  317MOL0     C42680   3.238   6.093   6.126  0.2370 -0.0998  0.0246
  317MOL0     C42681   3.370   6.160   6.159 -0.5775  0.7247 -0.3084
  317MOL0     C42682   3.441   6.202   6.034 -0.4028  0.5958 -0.1354
  317MOL0     C42683   3.590   6.247   6.075 -0.1540 -1.0336  0.0224
  317MOL0     O42684   3.586   6.373   6.151  0.0377 -0.6939  1.0279
  317MOL0     C42685   3.587   6.490   6.081 -0.4013  0.0580  0.2673
  317MOL0     C42686   3.576   6.505   5.942 -0.1187 -0.2668 -0.0364
  317MOL0     C42687   3.575   6.638   5.892  0.3945 -0.6772 -0.9223
  317MOL0     C42688   3.594   6.752   5.978  0.2105 -0.5327  0.7046
  317MOL0     C42689   3.618   6.887   5.913  0.2615  0.1750 -0.2872
  317MOL0     O42690   3.638   6.900   5.781 -0.4043  0.0115 -0.5922
  317MOL0     C42691   3.662   7.027   5.738 -0.9375  1.1317 -0.8703
  317MOL0     C42692   3.567   7.110   5.684  0.2242 -0.3410 -0.2054
  317MOL0     C42693   3.600   7.230   5.621 -0.0050  0.4349 -0.4265
  317MOL0     C42694   3.732   7.274   5.632  0.4004  0.8858  0.2249
  317MOL0     O42695   3.776   7.395   5.582  0.4647  0.2681  0.5873
  317MOL0     C42696   3.686   7.500   5.616  1.4641 -0.4530  0.0631
  317MOL0     C42697   3.751   7.635   5.653 -0.2524 -0.0502 -0.1187
  317MOL0     C42698   3.660   7.758   5.682  0.3881  0.4204  0.0137
  317MOL0     C42699   3.512   7.732   5.717 -0.4441 -0.2137 -0.5976
  317MOL0     C42700   3.434   7.853   5.718 -0.3008  0.5119 -0.6510
  317MOL0     C42701   3.280   7.819   5.738 -0.2289 -0.6867 -0.4655
  317MOL0     C42702   3.205   7.954   5.743 -0.2393  0.2903  0.7877
  317MOL0     C42703   3.052   7.923   5.722  0.0635 -0.8847 -0.6103
  317MOL0    Cl42704   3.007   7.862   5.883  0.2515 -0.0819 -0.2739
  317MOL0     C42705   3.825   7.195   5.701 -0.1046 -0.1518  0.3889
  317MOL0     C42706   3.792   7.066   5.752 -0.5102 -0.8863  0.6284
  317MOL0     O42707   3.623   6.977   5.991 -0.5321  0.6379  0.0676
  317MOL0     C42708   3.621   6.736   6.111 -0.9064  1.1083 -0.2752
  317MOL0     C42709   3.610   6.606   6.161 -1.3333  0.6307  0.0869
  317MOL0     N42710   3.316   5.855   6.133  0.1612 -0.1911  0.0836
  317MOL0     N42711   3.322   5.756   6.044  0.1067  0.5893  0.6701
  317MOL0     C42712   4.429   5.930   5.699  0.9725 -0.7478 -1.0886
  317MOL0     C42713   4.546   5.989   5.707 -0.2571 -0.2669 -0.2588
  317MOL0     C42714   4.894   6.245   5.770  0.2778  0.7341 -1.0597
  317MOL0     C42715   5.016   6.282   5.697 -0.2929 -0.5126 -0.7814
  317MOL0     C42716   5.086   6.385   5.757 -0.4469 -0.5025 -0.3013
  317MOL0     C42717   5.072   6.424   5.889 -0.0625  0.0807  0.4505
  317MOL0     O42718   5.146   6.520   5.954  0.2532 -0.1561 -0.4441
  317MOL0     C42719   5.197   6.637   5.891  0.5302 -0.2132 -0.6132
  317MOL0     C42720   5.227   6.757   5.978  0.3478  0.3434  0.6778
  317MOL0     C42721   5.098   6.835   6.003 -0.4029 -0.9996  0.1495
  317MOL0     C42722   5.010   6.783   6.119 -0.1116 -0.3693  0.2765
  317MOL0     C42723   4.891   6.854   6.119  0.9429 -1.0367  0.0412
  317MOL0     C42724   4.791   6.921   6.136 -0.9762 -0.5698 -0.8493
  317MOL0     C42725   4.970   6.371   5.963 -1.1928 -0.2136  0.5603
  317MOL0     C42726   4.878   6.283   5.906 -0.3641  0.1744  0.4430
  317MOL0     C42727   4.765   6.240   6.000  0.5549  0.9463 -0.4766
  317MOL0     H42728   4.519   6.214   5.464 -0.8844  0.5219  0.1754
  317MOL0     H42729   4.300   6.068   5.419 -1.7869  0.0577  1.3332
  317MOL0     H42730   4.110   6.044   5.604  2.4740 -1.4200  2.5630
  317MOL0     H42731   4.081   5.966   5.443 -1.9150 -0.6425 -0.0509
  317MOL0     H42732   4.021   5.837   5.712 -0.8698  0.7987  0.2819
  317MOL0     H42733   3.977   5.777   5.553 -1.1614 -0.5627  2.6978
  317MOL0     H42734   3.823   5.952   5.524  1.9356 -0.1962 -0.5870
  317MOL0     H42735   3.867   6.035   5.674  3.1471 -0.3035  3.5369
  317MOL0     H42736   3.763   5.758   5.686 -1.2950 -0.0167  2.5545
  317MOL0     H42737   3.762   5.896   5.813  1.2989  1.5001  0.1946
  317MOL0     H42738   3.577   6.002   5.705 -0.0773  0.7553 -0.3441
  317MOL0     H42739   3.590   5.882   5.568 -1.1745  0.5044  0.4785
  317MOL0     H42740   3.550   5.696   5.724 -0.6134 -0.7341  1.2896
  317MOL0     H42741   3.529   5.835   5.845  1.9787 -0.6329 -0.3838
  317MOL0     H42742   3.359   5.763   5.604  1.3573 -1.4690  1.2926
  317MOL0     H42743   3.338   5.914   5.691 -1.3837 -0.3630  2.7171
  317MOL0     H42744   3.189   5.709   5.748 -1.2476  0.6775  2.2826
  317MOL0     H42745   3.337   5.638   5.816  1.4062  1.4042  3.8701
  317MOL0     H42746   3.195   6.006   5.870  1.1872 -0.7984 -1.2521
  317MOL0     H42747   3.182   6.150   6.052 -1.1447 -3.0591 -1.4006
  317MOL0     H42748   3.191   6.071   6.222 -0.7619 -0.3974 -0.5224
  317MOL0     H42749   3.359   6.246   6.225 -1.9404 -1.0603  1.9875
  317MOL0     H42750   3.432   6.094   6.220 -2.2330  0.5940  1.3295
  317MOL0     H42751   3.378   6.287   6.007 -0.9012  0.9699  2.0593
  317MOL0     H42752   3.455   6.120   5.962  1.1971 -0.3816  1.2108
  317MOL0     H42753   3.654   6.250   5.987 -0.8456  1.8359 -0.4878
  317MOL0     H42754   3.621   6.162   6.137  0.0675 -0.4664  0.7014
  317MOL0     H42755   3.548   6.423   5.876 -2.1523  0.0731  0.3302
  317MOL0     H42756   3.559   6.661   5.787  3.3857  0.9628 -1.1239
  317MOL0     H42757   3.468   7.067   5.687  1.0146 -2.2229  0.1488
  317MOL0     H42758   3.525   7.287   5.567  0.7149  1.3061 -0.5302
  317MOL0     H42759   3.626   7.529   5.530  0.9028  0.8084  0.8463
  317MOL0     H42760   3.622   7.478   5.702 -1.8162  3.3133 -1.1485
  317MOL0     H42761   3.807   7.620   5.746 -0.2896 -2.7262 -0.4289
  317MOL0     H42762   3.820   7.669   5.576 -0.3465 -0.9295 -0.6135
  317MOL0     H42763   3.701   7.822   5.760 -2.6225  2.6154 -0.0266
  317MOL0     H42764   3.655   7.817   5.590 -1.4391  0.4172  0.0700
  317MOL0     H42765   3.516   7.673   5.809  1.0848  2.8317  1.4458
  317MOL0     H42766   3.462   7.669   5.642 -1.5890  0.7371 -0.6689
  317MOL0     H42767   3.446   7.907   5.623 -0.0707  1.7441  0.0664
  317MOL0     H42768   3.466   7.920   5.798 -3.6176  1.8196 -0.2253
  317MOL0     H42769   3.251   7.760   5.651  2.6746 -1.1185 -1.2595
  317MOL0     H42770   3.268   7.763   5.831 -0.5604  0.9045  0.4790
  317MOL0     H42771   3.238   8.031   5.673  0.8499 -0.4401  0.4685
  317MOL0     H42772   3.216   7.993   5.844 -2.2793  0.2240  1.0768
  317MOL0     H42773   2.997   8.015   5.696 -0.0586 -0.7932 -0.0484
  317MOL0     H42774   3.051   7.857   5.635  2.8811 -1.2557 -0.4414
  317MOL0     H42775   3.928   7.229   5.704  0.5400 -1.7865 -1.2791
  317MOL0     H42776   3.871   6.999   5.785 -0.1612 -0.3812  0.8373
  317MOL0     H42777   3.652   6.815   6.179  1.7758  1.0348 -1.2717
  317MOL0     H42778   3.631   6.571   6.262 -0.5153 -1.7337 -0.8400
  317MOL0     H42779   4.396   5.861   5.777  2.0944 -2.8497 -2.3838
  317MOL0     H42780   4.612   5.956   5.786 -0.3749 -2.3527 -0.9747
  317MOL0     H42781   5.037   6.237   5.600  0.2988 -2.0143  0.0014
  317MOL0     H42782   5.159   6.431   5.690 -0.8949 -0.7044 -0.9335
  317MOL0     H42783   5.125   6.669   5.815  0.0378  0.9241  0.2929
  317MOL0     H42784   5.293   6.611   5.847  3.0053  1.3866  3.3619
  317MOL0     H42785   5.286   6.831   5.922 -0.4710 -0.3150 -1.1263
  317MOL0     H42786   5.287   6.724   6.063  0.9235 -1.1055 -0.2537
  317MOL0     H42787   5.043   6.860   5.911 -0.8801  1.9154  1.1380
  317MOL0     H42788   5.120   6.936   6.039 -1.6909 -1.6714  3.1305
  317MOL0     H42789   4.976   6.679   6.109  0.5270 -0.6726  1.1289
  317MOL0     H42790   5.070   6.787   6.211 -2.8859  4.2350  2.1783
  317MOL0     H42791   4.704   6.980   6.157 -0.9693 -0.1149 -1.9822
  317MOL0     H42792   4.960   6.412   6.062  1.9649  2.8965 -0.1966
  317MOL0     H42793   4.701   6.175   5.939  1.3188 -0.7885  0.5123
  317MOL0     H42794   4.800   6.190   6.091  1.0779  2.5095  0.2037
  317MOL0     H42795   4.700   6.323   6.030 -0.3740  0.0837 -0.0319
  318MOL0     O42796   9.314  11.368   7.395  0.1748 -0.2682 -0.4134
  318MOL0     C42797   9.340  11.489   7.398 -0.8160  0.5546  0.6829
  318MOL0     O42798   9.457  11.553   7.361  0.3259  0.1814  0.0974
  318MOL0     C42799   9.541  11.470   7.295 -1.5701 -0.0526 -0.3728
  318MOL0     C42800   9.567  11.498   7.166 -0.6469 -0.3440  0.6120
  318MOL0     C42801   9.654  11.416   7.093  0.3232  0.0826  0.4458
  318MOL0     C42802   9.726  11.310   7.144 -0.2038  0.1050  0.3820
  318MOL0     O42803   9.809  11.221   7.071 -0.2037  0.0983 -0.3673
  318MOL0     C42804   9.804  11.199   6.933 -0.3086 -0.3663 -1.0634
  318MOL0     C42805   9.685  11.123   6.898  0.4119  1.3429  1.3707
  318MOL0     C42806   9.707  11.026   6.780 -0.2193 -0.1711  0.4029
  318MOL0     C42807   9.564  10.991   6.717  0.8952 -1.2000 -0.2482
  318MOL0     C42808   9.568  10.855   6.648 -0.4245  0.2786 -0.8920
  318MOL0     C42809   9.472  10.852   6.531  0.0809 -0.5863  0.3746
  318MOL0     C42810   9.527  10.745   6.431  0.6013 -0.0352  0.2015
  318MOL0     C42811   9.450  10.764   6.297  0.4415 -0.0299  0.7769
  318MOL0     N42812   9.481  10.654   6.209  0.1220 -0.4699 -0.9055
  318MOL0     C42813   9.395  10.597   6.116  0.4468  0.1406  0.0637
  318MOL0     C42814   9.470  10.494   6.062  0.6415 -0.0814 -0.4882
  318MOL0     C42815   9.424  10.417   5.937 -0.6381 -0.3540  0.0372
  318MOL0     C42816   9.533  10.336   5.868 -0.3427 -0.6211 -0.2360
  318MOL0     C42817   9.475  10.260   5.743  0.0957 -0.7216  0.2656
  318MOL0     C42818   9.582  10.158   5.695  0.4968 -0.8278  0.3700
  318MOL0     O42819   9.690  10.230   5.620 -0.7377  1.4959 -0.0585
  318MOL0     C42820   9.686  10.264   5.488  0.8444 -0.2388 -0.5081
  318MOL0     C42821   9.789  10.336   5.427  0.7991 -0.9543  0.7663
  318MOL0     C42822   9.764  10.398   5.294 -0.0154  0.4498  0.7853
  318MOL0     C42823   9.645  10.376   5.225  0.4351 -0.0656  0.8501
  318MOL0     C42824   9.609  10.449   5.100  0.9456  0.1174  0.2066
  318MOL0     O42825   9.495  10.407   5.042 -0.1473  0.4252  0.0051
  318MOL0     C42826   9.450  10.472   4.925  0.1256  0.3738 -0.0849
  318MOL0     C42827   9.316  10.505   4.920 -0.4158  0.1224  0.4186
  318MOL0     C42828   9.262  10.560   4.809  0.2277  1.5449 -0.0793
  318MOL0     C42829   9.336  10.575   4.685 -1.6367  0.0466 -0.1825
  318MOL0     O42830   9.298  10.624   4.564 -0.6746  0.5152  0.3656
  318MOL0     C42831   9.159  10.647   4.547 -0.5151  0.7266  0.5865
  318MOL0     C42832   9.123  10.672   4.402 -0.2353 -0.4701  0.3495
  318MOL0     C42833   9.194  10.601   4.295  0.8573  0.6521  0.3601
  318MOL0     C42834   9.158  10.682   4.167 -0.3474 -0.7643  0.1801
  318MOL0     C42835   9.239  10.644   4.041 -0.2625 -0.0227  0.9938
  318MOL0     C42836   9.185  10.507   3.984  0.5323  0.3150 -0.0949
  318MOL0     C42837   9.249  10.459   3.856 -0.0108 -0.3297 -0.1322
  318MOL0     C42838   9.396  10.436   3.879 -0.3051  0.7699  0.0691
  318MOL0    Cl42839   9.481  10.352   3.746 -0.2525 -1.1044  0.5648
  318MOL0     C42840   9.475  10.541   4.689 -0.3533 -0.0354 -0.1211
  318MOL0     C42841   9.524  10.487   4.809 -1.1838 -0.5849 -0.2919
  318MOL0     O42842   9.688  10.537   5.052 -0.8454 -0.0099  0.3340
  318MOL0     C42843   9.552  10.295   5.290  0.1014  0.0480  0.8215
  318MOL0     C42844   9.577  10.237   5.411 -0.3651 -0.7263  0.7642
  318MOL0     N42845   9.588  10.487   6.124  0.9077  0.5743  0.7954
  318MOL0     N42846   9.595  10.585   6.206  0.5877 -0.9515  0.1135
  318MOL0     C42847   9.710  11.284   7.282  0.0384  1.1207  0.3254
  318MOL0     C42848   9.619  11.367   7.352 -0.0980 -0.6772 -0.0982
  318MOL0     C42849   9.237  11.585   7.443  0.2177  0.6427 -0.5091
  318MOL0     C42850   9.147  11.532   7.542  0.6928  0.0728 -0.5061
  318MOL0     C42851   9.052  11.616   7.604 -0.9066  0.4101  0.1674
  318MOL0     C42852   9.036  11.743   7.566 -0.0900  0.2478  0.7229
  318MOL0     O42853   8.936  11.809   7.628  0.2701 -0.2425  0.3881
  318MOL0     C42854   8.926  11.945   7.613  0.8295 -0.2428  1.1570
  318MOL0     C42855   8.814  12.000   7.703  0.4521 -0.0180  0.3787
  318MOL0     C42856   8.838  11.975   7.854  0.1135 -0.2342 -0.1139
  318MOL0     C42857   8.973  12.032   7.902  0.0356  0.0115  0.3749
  318MOL0     C42858   8.983  12.179   7.899 -0.1901 -0.1116 -1.5419
  318MOL0     C42859   9.002  12.298   7.897  0.3146  0.2556  0.0348
  318MOL0     C42860   9.128  11.794   7.471  0.4656 -0.5006  0.0435
  318MOL0     C42861   9.226  11.717   7.413 -0.6022 -0.1351  0.2101
  318MOL0     C42862   9.296  11.779   7.288  0.3988  0.6203 -0.0305
  318MOL0     H42863   9.524  11.591   7.131 -2.3834 -0.6315  1.8754
  318MOL0     H42864   9.668  11.447   6.990 -0.4572 -0.7659  0.0637
  318MOL0     H42865   9.799  11.294   6.878 -2.5523  0.6260  0.6828
  318MOL0     H42866   9.895  11.149   6.900  2.8011  3.1034  1.3884
  318MOL0     H42867   9.605  11.196   6.879  1.7065  2.0281 -2.2553
  318MOL0     H42868   9.659  11.053   6.978  1.6427 -0.7890 -0.0042
  318MOL0     H42869   9.758  10.936   6.816  1.1716  1.1800  2.0166
  318MOL0     H42870   9.765  11.080   6.705 -0.9001  0.2015  0.1332
  318MOL0     H42871   9.495  10.986   6.801 -1.0604 -0.7770 -1.7509
  318MOL0     H42872   9.542  11.083   6.663 -0.3634 -0.2934  1.7048
  318MOL0     H42873   9.672  10.824   6.634 -0.3812 -1.6994  2.6887
  318MOL0     H42874   9.530  10.779   6.716  2.7973  1.6576  2.8079
  318MOL0     H42875   9.370  10.838   6.566 -0.1282  3.4590  1.8568
  318MOL0     H42876   9.476  10.946   6.476  1.8900 -1.4124 -1.0177
  318MOL0     H42877   9.509  10.646   6.473  2.8243 -0.2226  0.8359
  318MOL0     H42878   9.633  10.737   6.404  0.4678 -1.7567  0.1384
  318MOL0     H42879   9.343  10.778   6.312  0.0890 -0.9815 -0.6340
  318MOL0     H42880   9.480  10.858   6.248  2.9717 -0.0395  2.1228
  318MOL0     H42881   9.299  10.626   6.076 -1.4546 -2.6436  2.1871
  318MOL0     H42882   9.337  10.362   5.974 -2.1141  1.2176 -0.8955
  318MOL0     H42883   9.393  10.487   5.858  0.0889 -0.8415 -0.6973
  318MOL0     H42884   9.610  10.408   5.835 -1.8541  0.9852 -0.3961
  318MOL0     H42885   9.574  10.261   5.936  1.6979 -0.4558 -1.2079
  318MOL0     H42886   9.432  10.330   5.670 -3.4407 -0.8018  2.0592
  318MOL0     H42887   9.380  10.214   5.773 -2.0966  1.1573 -3.0499
  318MOL0     H42888   9.534  10.080   5.636  1.6473 -1.1786 -0.1273
  318MOL0     H42889   9.635  10.120   5.782  0.2068 -2.2660 -0.0601
  318MOL0     H42890   9.888  10.335   5.472  1.6184 -1.3683 -0.9994
  318MOL0     H42891   9.847  10.455   5.255  1.9423 -2.7570 -0.1805
  318MOL0     H42892   9.257  10.488   5.009  1.3004  1.6348  1.9278
  318MOL0     H42893   9.155  10.576   4.801 -0.3920 -2.0655 -0.8301
  318MOL0     H42894   9.108  10.554   4.574  2.6159 -0.4715  2.9235
  318MOL0     H42895   9.124  10.731   4.607  2.7163  1.8317  1.1295
  318MOL0     H42896   9.015  10.655   4.402 -0.3976 -0.1417  3.7688
  318MOL0     H42897   9.146  10.778   4.392  1.9847 -1.0342 -1.3957
  318MOL0     H42898   9.302  10.603   4.312  1.2354 -0.2876 -1.6736
  318MOL0     H42899   9.172  10.494   4.294  1.9208  0.3932 -2.1234
  318MOL0     H42900   9.186  10.787   4.180 -1.7028 -0.6582  2.6794
  318MOL0     H42901   9.053  10.677   4.138 -0.4539  0.3010  0.3420
  318MOL0     H42902   9.341  10.623   4.074 -1.1463 -0.7525  3.5095
  318MOL0     H42903   9.239  10.724   3.967 -0.4161 -1.0653 -0.1513
  318MOL0     H42904   9.187  10.434   4.065 -1.0055  0.1013 -0.2219
  318MOL0     H42905   9.079  10.526   3.964  0.2298 -0.7659  0.4342
  318MOL0     H42906   9.227  10.527   3.773 -0.5844 -0.9897 -0.5187
  318MOL0     H42907   9.215  10.361   3.822 -0.5888  0.6787 -2.6755
  318MOL0     H42908   9.440  10.533   3.906  1.2624  0.5838 -1.6300
  318MOL0     H42909   9.407  10.374   3.968  0.8774 -0.3301 -0.8147
  318MOL0     H42910   9.522  10.557   4.593 -0.4575  1.3609  0.0396
  318MOL0     H42911   9.626  10.456   4.830 -1.2440  0.7453  2.4649
  318MOL0     H42912   9.454  10.273   5.249  2.1345 -2.5477 -3.3468
  318MOL0     H42913   9.500  10.166   5.440 -0.8645 -0.8615 -0.8086
  318MOL0     H42914   9.760  11.204   7.334  1.9024 -0.7125 -3.7942
  318MOL0     H42915   9.622  11.342   7.457 -0.3581  0.6062  0.2343
  318MOL0     H42916   9.154  11.429   7.575  3.6938  0.1685 -0.5781
  318MOL0     H42917   9.000  11.564   7.683  2.3340 -0.9327  1.6110
  318MOL0     H42918   8.898  11.959   7.508  5.6341 -0.4001 -0.3931
  318MOL0     H42919   9.024  11.990   7.632  0.1882  1.5784  0.3978
  318MOL0     H42920   8.716  11.962   7.672 -2.0070  2.5050  4.1631
  318MOL0     H42921   8.809  12.109   7.701 -3.8099  0.0166  2.2650
  318MOL0     H42922   8.823  11.867   7.865 -1.8089 -0.0350 -0.2889
  318MOL0     H42923   8.762  12.027   7.913 -0.1875  0.2433 -0.9073
  318MOL0     H42924   8.991  11.997   8.004  2.3809  0.3919  0.1489
  318MOL0     H42925   9.055  12.003   7.836  0.3268  1.2436  0.1624
  318MOL0     H42926   9.006  12.405   7.885 -0.3080  0.4404  1.3233
  318MOL0     H42927   9.134  11.897   7.439 -1.1435 -0.2667  0.4176
  318MOL0     H42928   9.300  11.704   7.208  1.3787  0.1537  0.4414
  318MOL0     H42929   9.246  11.870   7.253  0.8841  0.5348 -0.9863
  318MOL0     H42930   9.395  11.795   7.330  0.3881 -0.0610  0.2740
  319MOL0     O42931   6.340   8.046  11.150  0.3094  0.1798  0.4586
  319MOL0     C42932   6.456   8.066  11.101  0.1945  0.0445 -0.1780
  319MOL0     O42933   6.522   7.976  11.016 -0.0780 -0.6615 -0.6512
  319MOL0     C42934   6.460   7.864  10.972 -0.2522 -1.1679 -0.7223
  319MOL0     C42935   6.532   7.750  10.961  0.8131  0.9665 -0.1043
  319MOL0     C42936   6.465   7.629  10.910  0.0707 -0.6683  0.2153
  319MOL0     C42937   6.326   7.624  10.901  0.0167 -0.1457  0.1983
  319MOL0     O42938   6.251   7.523  10.859 -0.6298 -0.0866  0.4204
  319MOL0     C42939   6.314   7.428  10.771  0.1087  0.1135 -0.3177
  319MOL0     C42940   6.325   7.495  10.629  0.5512 -0.4053  0.3339
  319MOL0     C42941   6.182   7.534  10.581 -0.5425 -0.0792 -0.2863
  319MOL0     C42942   6.187   7.591  10.448  0.4756  0.1623  0.8018
  319MOL0     C42943   6.042   7.612  10.401 -0.7681  0.2425 -0.5481
  319MOL0     C42944   6.025   7.659  10.257 -0.0856  0.2837 -0.2097
  319MOL0     C42945   5.894   7.618  10.193 -0.3507 -0.5814 -0.4566
  319MOL0     C42946   5.882   7.653  10.039  0.4400  0.2804 -0.8647
  319MOL0     N42947   5.868   7.798  10.019  0.1275 -1.0542 -0.3890
  319MOL0     C42948   5.755   7.868  10.027  0.0464  0.1578 -0.3358
  319MOL0     C42949   5.780   7.986   9.978 -0.9059 -0.4975 -0.0223
  319MOL0     C42950   5.697   8.110   9.961  0.1257  0.3044  0.0882
  319MOL0     C42951   5.625   8.121   9.832 -0.1269 -0.0329  0.7802
  319MOL0     C42952   5.582   8.267   9.795 -0.7224 -0.0701 -0.0852
  319MOL0     C42953   5.456   8.313   9.870  0.2701 -0.7108 -0.2055
  319MOL0     O42954   5.349   8.242   9.810 -0.2944  0.0846  0.5053
  319MOL0     C42955   5.234   8.206   9.877  0.3013  0.2297 -0.6375
  319MOL0     C42956   5.246   8.120   9.991 -0.0899  0.8886  1.1966
  319MOL0     C42957   5.134   8.060  10.044  0.4041 -0.8986 -0.0131
  319MOL0     C42958   5.009   8.077   9.973 -0.1681 -1.1388 -0.4750
  319MOL0     C42959   4.887   8.002  10.020  0.4584  0.1635  0.2203
  319MOL0     O42960   4.783   7.978   9.930 -0.4150 -0.2985 -0.3715
  319MOL0     C42961   4.671   7.921   9.984  0.1672 -1.2406  0.7394
  319MOL0     C42962   4.663   7.788  10.041 -0.1545  0.0065  0.3556
  319MOL0     C42963   4.539   7.724  10.064 -0.4081 -0.1577  0.1960
  319MOL0     C42964   4.418   7.782  10.026 -0.8060 -0.6157 -0.8379
  319MOL0     O42965   4.294   7.722  10.052  0.0918 -0.4987 -0.4403
  319MOL0     C42966   4.298   7.656  10.184 -0.2677 -1.0064  0.0194
  319MOL0     C42967   4.167   7.592  10.238  0.5769  0.5795  0.2937
  319MOL0     C42968   4.111   7.481  10.144  0.4059  0.9598 -0.0276
  319MOL0     C42969   3.976   7.421  10.194 -0.3446 -0.4011 -1.0413
  319MOL0     C42970   3.859   7.524  10.189 -1.0404  0.1575  0.0166
  319MOL0     C42971   3.733   7.467  10.258 -0.2495  0.8833  0.2149
  319MOL0     C42972   3.615   7.569  10.244  0.4749 -0.1236  0.5230
  319MOL0     C42973   3.484   7.483  10.265  0.6222 -0.1879 -0.3845
  319MOL0    Cl42974   3.343   7.575  10.241  0.1477  0.6278 -0.3492
  319MOL0     C42975   4.434   7.897   9.944 -0.3235 -0.8297  0.0442
  319MOL0     C42976   4.555   7.969   9.927  0.6714 -0.5464  0.5743
  319MOL0     O42977   4.875   7.955  10.141 -0.3368 -0.0839  0.6305
  319MOL0     C42978   4.993   8.167   9.865  0.1041  0.0441  0.1452
  319MOL0     C42979   5.108   8.233   9.823 -0.3982 -0.7000 -0.2019
  319MOL0     N42980   5.902   7.989   9.921  0.9415  0.3058  0.2447
  319MOL0     N42981   5.958   7.872   9.950 -0.3155 -0.5850 -0.4859
  319MOL0     C42982   6.252   7.745  10.907  0.0786  0.1206 -0.3890
  319MOL0     C42983   6.316   7.864  10.943 -0.4977 -0.7471  0.7710
  319MOL0     C42984   6.518   8.195  11.131  0.1507  0.3572  0.1331
  319MOL0     C42985   6.631   8.233  11.044  0.2033  0.9006 -0.4318
  319MOL0     C42986   6.707   8.348  11.077 -0.2943  0.0699 -0.8867
  319MOL0     C42987   6.683   8.425  11.191 -0.9797  0.8378  1.3942
  319MOL0     O42988   6.759   8.541  11.209 -0.5277  0.4776 -0.1410
  319MOL0     C42989   6.783   8.592  11.341 -1.1926  0.3624  0.4575
  319MOL0     C42990   6.904   8.687  11.336  0.2833  0.3236  0.0140
  319MOL0     C42991   7.035   8.612  11.322 -0.7014 -0.3550  0.2398
  319MOL0     C42992   7.160   8.711  11.303  0.4576 -0.4159  0.0906
  319MOL0     C42993   7.287   8.641  11.303 -0.8406  1.0030 -0.7187
  319MOL0     C42994   7.386   8.566  11.277 -0.5943 -1.1211 -0.0498
  319MOL0     C42995   6.575   8.385  11.273 -0.0176 -0.2569  0.3403
  319MOL0     C42996   6.489   8.284  11.244 -0.7767  0.0715 -0.2014
  319MOL0     C42997   6.381   8.242  11.344 -0.1375  0.1452  0.3401
  319MOL0     H42998   6.636   7.751  10.993  0.6368  4.4774  0.7047
  319MOL0     H42999   6.532   7.544  10.904  1.7003  0.4516  1.5005
  319MOL0     H43000   6.410   7.412  10.820 -1.1064  1.7416  2.8357
  319MOL0     H43001   6.258   7.335  10.760  0.4465  0.0274 -1.5442
  319MOL0     H43002   6.369   7.423  10.561  0.7567 -1.0481  1.1308
  319MOL0     H43003   6.395   7.579  10.632  0.9063 -0.6539 -0.6869
  319MOL0     H43004   6.123   7.593  10.652  0.3375 -1.6381  1.8263
  319MOL0     H43005   6.130   7.439  10.569 -1.0636  0.4620 -3.1623
  319MOL0     H43006   6.224   7.693  10.436  0.8051 -0.1874 -1.9995
  319MOL0     H43007   6.240   7.527  10.377  1.1757  2.2553 -0.6719
  319MOL0     H43008   5.973   7.532  10.431 -0.8417  0.6043  0.2627
  319MOL0     H43009   6.003   7.684  10.474  0.9811  0.8228 -0.1368
  319MOL0     H43010   6.017   7.768  10.270  1.5484  0.5408 -1.0537
  319MOL0     H43011   6.106   7.619  10.195 -0.1061 -1.9265  1.0915
  319MOL0     H43012   5.812   7.659  10.251 -1.7418 -4.6994  0.8932
  319MOL0     H43013   5.871   7.511  10.205 -1.1266 -0.3886 -0.2210
  319MOL0     H43014   5.969   7.612   9.987  0.4930  2.0118 -2.2511
  319MOL0     H43015   5.795   7.601  10.000 -0.6303 -0.3266  2.0346
  319MOL0     H43016   5.663   7.843  10.080  0.1612 -0.3838 -0.3821
  319MOL0     H43017   5.629   8.120  10.046  2.0461  3.6983  1.4442
  319MOL0     H43018   5.756   8.201   9.980  0.5874  0.0911 -0.2834
  319MOL0     H43019   5.676   8.079   9.745 -2.9967 -1.0179 -0.5749
  319MOL0     H43020   5.529   8.070   9.839 -1.0880  1.8153  1.9107
  319MOL0     H43021   5.575   8.266   9.686 -1.7418  0.7782 -0.0400
  319MOL0     H43022   5.662   8.340   9.813 -0.4354 -0.9718  2.7365
  319MOL0     H43023   5.431   8.419   9.856  1.3794 -0.5856 -1.3600
  319MOL0     H43024   5.472   8.315   9.979 -1.7068  3.3091  0.1934
  319MOL0     H43025   5.341   8.104  10.041 -0.3981  0.8217  1.7689
  319MOL0     H43026   5.135   7.991  10.127 -3.0417  1.4538  2.2540
  319MOL0     H43027   4.755   7.739  10.072 -0.3608 -0.5782  0.0513
  319MOL0     H43028   4.551   7.628  10.113 -0.3979 -0.3942 -0.2615
  319MOL0     H43029   4.366   7.571  10.173  0.0602 -0.6637 -0.6915
  319MOL0     H43030   4.334   7.731  10.255 -2.4160  0.7886 -0.6770
  319MOL0     H43031   4.191   7.556  10.339  1.7985 -2.0982 -0.8644
  319MOL0     H43032   4.091   7.669  10.254  2.0688  2.3266 -0.6236
  319MOL0     H43033   4.089   7.522  10.045 -0.1893  3.0414  0.9204
  319MOL0     H43034   4.181   7.398  10.135 -3.8378 -2.9727 -0.4773
  319MOL0     H43035   3.996   7.385  10.295  0.4884  3.0400  0.1854
  319MOL0     H43036   3.943   7.334  10.137 -1.2001 -1.0622  0.4153
  319MOL0     H43037   3.850   7.542  10.081 -0.6530  0.9097  0.1036
  319MOL0     H43038   3.885   7.623  10.225 -4.1945  1.6350 -1.3586
  319MOL0     H43039   3.718   7.371  10.208 -0.9504 -0.5783  3.0013
  319MOL0     H43040   3.750   7.447  10.365 -0.0746 -0.9195 -0.1079
  319MOL0     H43041   3.625   7.610  10.143  2.7614 -3.6106 -0.9065
  319MOL0     H43042   3.622   7.647  10.319  1.5412  0.9193 -0.6189
  319MOL0     H43043   3.482   7.399  10.195  1.4415 -1.0863  0.6404
  319MOL0     H43044   3.483   7.436  10.364 -1.0972  1.6597  0.5361
  319MOL0     H43045   4.344   7.950   9.915  0.9496  1.5421  0.1257
  319MOL0     H43046   4.574   8.063   9.876 -1.8265  0.2264  0.8988
  319MOL0     H43047   4.904   8.184   9.806 -0.2178  1.0176  0.8945
  319MOL0     H43048   5.110   8.296   9.735  1.6070 -0.8362 -0.3123
  319MOL0     H43049   6.145   7.751  10.891 -0.4420 -0.3082  2.4439
  319MOL0     H43050   6.265   7.960  10.944 -1.1952 -1.0824  3.1126
  319MOL0     H43051   6.660   8.171  10.959 -0.9639 -1.2802  0.6593
  319MOL0     H43052   6.786   8.378  11.009  0.7608  1.3841  0.8229
  319MOL0     H43053   6.804   8.516  11.417 -0.5602 -0.4518 -0.5039
  319MOL0     H43054   6.695   8.650  11.370  0.6055  2.7930  1.4062
  319MOL0     H43055   6.909   8.764  11.413 -0.9068  0.0123  0.4283
  319MOL0     H43056   6.889   8.746  11.245 -0.4916 -1.2942 -0.9626
  319MOL0     H43057   7.044   8.529  11.250  2.3504  0.6978 -0.7368
  319MOL0     H43058   7.063   8.563  11.416  0.8448 -0.2651 -0.1360
  319MOL0     H43059   7.143   8.765  11.209 -1.9695  0.9351  1.2098
  319MOL0     H43060   7.157   8.791  11.378 -1.5616 -1.0453  0.7571
  319MOL0     H43061   7.474   8.505  11.274  1.3103  1.1815  2.8063
  319MOL0     H43062   6.551   8.445  11.361 -0.8643  2.1697 -1.4202
  319MOL0     H43063   6.391   8.296  11.439  1.3128 -0.2487  0.4439
  319MOL0     H43064   6.280   8.252  11.305  0.0404 -1.3520 -0.6057
  319MOL0     H43065   6.403   8.140  11.377 -0.3847  0.4320  1.4239
  320MOL0     O43066   9.299   4.030   8.122  0.2474 -0.5326 -0.4998
  320MOL0     C43067   9.209   3.995   8.044 -0.8238 -0.2462 -1.3280
  320MOL0     O43068   9.140   3.878   8.056  0.2825 -0.4800 -0.1429
  320MOL0     C43069   9.178   3.791   8.158  0.0998 -0.0345 -0.3612
  320MOL0     C43070   9.235   3.661   8.122  0.3239  0.0998  0.2949
  320MOL0     C43071   9.267   3.573   8.224  0.0656 -0.8995 -0.1753
  320MOL0     C43072   9.249   3.611   8.358 -0.9284  0.4600  0.3115
  320MOL0     O43073   9.272   3.513   8.452 -0.2875 -0.3311 -1.1273
  320MOL0     C43074   9.156   3.468   8.507  0.4629  0.3058 -0.1313
  320MOL0     C43075   9.176   3.339   8.581 -0.1463 -0.5979 -0.2554
  320MOL0     C43076   9.221   3.223   8.488  0.5540  0.3216  0.1673
  320MOL0     C43077   9.369   3.230   8.449 -0.5871 -0.4147 -0.0011
  320MOL0     C43078   9.384   3.155   8.311  0.1987 -0.6572 -0.2885
  320MOL0     C43079   9.529   3.151   8.264  1.1538 -1.3700 -0.3394
  320MOL0     C43080   9.559   3.104   8.130 -0.2764 -0.5249  0.7287
  320MOL0     C43081   9.527   3.201   8.022  0.0854 -0.5331  0.4840
  320MOL0     N43082   9.567   3.171   7.882 -0.3071  0.4737 -0.3032
  320MOL0     C43083   9.694   3.150   7.828 -0.3470 -0.3869 -0.6348
  320MOL0     C43084   9.678   3.160   7.694 -0.5729  0.1853 -0.0756
  320MOL0     C43085   9.784   3.141   7.593 -0.3152 -0.5801 -0.0776
  320MOL0     C43086   9.820   2.994   7.587 -0.4752  0.5384 -1.0237
  320MOL0     C43087   9.973   2.961   7.569  0.7023 -0.1568  0.7918
  320MOL0     C43088  10.020   2.993   7.432  0.4711 -0.1465 -0.2399
  320MOL0     O43089  10.049   3.135   7.431  0.4110 -0.5618  0.0933
  320MOL0     C43090  10.063   3.193   7.309  0.3009 -0.7006 -0.5209
  320MOL0     C43091  10.068   3.136   7.183 -0.2958  0.6335  0.2633
  320MOL0     C43092  10.095   3.216   7.070  0.5089 -0.5557  0.7516
  320MOL0     C43093  10.107   3.352   7.079  0.1147 -0.4028  0.1417
  320MOL0     C43094  10.118   3.441   6.962  0.4563 -0.1553  0.7415
  320MOL0     O43095  10.163   3.569   6.991 -0.3131  0.0073  0.0563
  320MOL0     C43096  10.179   3.642   6.881 -0.3862 -0.2473  1.0668
  320MOL0     C43097  10.309   3.655   6.831 -0.1846  0.0655  0.7005
  320MOL0     C43098  10.326   3.739   6.720 -0.0666  1.0748 -0.2018
  320MOL0     C43099  10.218   3.815   6.672 -0.0259  0.7490 -0.3072
  320MOL0     O43100  10.258   3.908   6.579  0.0654  0.0247 -0.4524
  320MOL0     C43101  10.188   3.908   6.452 -0.5277  0.2356 -0.6784
  320MOL0     C43102  10.285   3.959   6.347  0.2057  0.5500 -0.5245
  320MOL0     C43103  10.211   3.966   6.211 -0.4111 -0.5332 -0.2299
  320MOL0     C43104  10.263   3.850   6.129  0.2278 -0.2061  0.1763
  320MOL0     C43105  10.213   3.850   5.990 -0.2386 -0.0977  0.3718
  320MOL0     C43106  10.067   3.841   5.963 -0.1754 -0.9751 -0.0530
  320MOL0     C43107  10.043   3.843   5.811 -0.9260 -0.4173  0.0263
  320MOL0     C43108   9.893   3.816   5.770  0.1801 -0.3036 -0.2135
  320MOL0    Cl43109   9.855   3.810   5.592  0.2292  0.1712 -0.5644
  320MOL0     C43110  10.085   3.789   6.715  0.7154  0.1043 -0.7598
  320MOL0     C43111  10.067   3.711   6.828  0.0166 -1.0049 -0.7137
  320MOL0     O43112  10.110   3.392   6.851  0.0846 -0.2522 -0.3155
  320MOL0     C43113  10.103   3.404   7.205  0.5270  0.0108 -0.8281
  320MOL0     C43114  10.087   3.324   7.323 -1.2740  0.4900 -0.4744
  320MOL0     N43115   9.552   3.181   7.669 -0.2596 -0.4498  0.4917
  320MOL0     N43116   9.481   3.192   7.774 -0.7049  0.1119  0.4362
  320MOL0     C43117   9.209   3.738   8.392  0.5204  0.4427  0.5457
  320MOL0     C43118   9.168   3.825   8.292  0.0253  0.3560  0.4210
  320MOL0     C43119   9.163   4.090   7.951 -0.0876 -0.0662 -0.3067
  320MOL0     C43120   9.030   4.097   7.915 -0.1658  0.1183 -1.2950
  320MOL0     C43121   8.966   4.192   7.830 -0.0521 -0.3518  0.0912
  320MOL0     C43122   9.041   4.284   7.766 -0.8136  1.1722 -0.0040
  320MOL0     O43123   8.989   4.370   7.671 -0.2784  0.2599  0.3008
  320MOL0     C43124   9.030   4.502   7.699 -0.4993  0.2385  0.2299
  320MOL0     C43125   8.939   4.597   7.647  0.2750  0.0617 -0.1719
  320MOL0     C43126   8.978   4.741   7.674  0.3450  0.5034  0.0927
  320MOL0     C43127   9.037   4.788   7.541 -0.0067 -0.4969 -0.0406
  320MOL0     C43128   9.070   4.932   7.552 -0.8131  0.1972 -1.4178
  320MOL0     C43129   9.093   5.053   7.561  0.2345  0.2109  1.0759
  320MOL0     C43130   9.180   4.281   7.801  0.0538  0.7451 -0.3027
  320MOL0     C43131   9.239   4.185   7.884  0.3663  0.4158 -0.4673
  320MOL0     C43132   9.387   4.210   7.922  0.0021 -0.2329  0.3639
  320MOL0     H43133   9.251   3.633   8.018  0.0075 -1.8267  0.7338
  320MOL0     H43134   9.308   3.474   8.207  1.5250 -0.2712 -0.4295
  320MOL0     H43135   9.131   3.549   8.576  2.4026  0.5711  0.3260
  320MOL0     H43136   9.092   3.437   8.424 -3.2793  0.2373  2.5258
  320MOL0     H43137   9.089   3.318   8.644  0.1106  1.1177  0.7368
  320MOL0     H43138   9.260   3.344   8.651 -1.3626 -5.6653  2.0800
  320MOL0     H43139   9.161   3.232   8.397  2.2705  0.7082 -0.9752
  320MOL0     H43140   9.205   3.125   8.535  0.3480 -0.1256 -0.8136
  320MOL0     H43141   9.417   3.327   8.438  0.5347 -0.7955  1.2756
  320MOL0     H43142   9.433   3.191   8.529  1.2198  1.7525 -0.2989
  320MOL0     H43143   9.348   3.052   8.311  1.5497 -1.1575  0.6127
  320MOL0     H43144   9.337   3.203   8.224  1.6987  1.2609 -0.1228
  320MOL0     H43145   9.567   3.253   8.271 -0.9461 -0.5653 -0.1150
  320MOL0     H43146   9.585   3.099   8.342  5.9993  1.9047 -1.1885
  320MOL0     H43147   9.498   3.014   8.120  0.5258 -0.9945 -0.0489
  320MOL0     H43148   9.665   3.077   8.129 -0.7254 -2.3852 -0.0436
  320MOL0     H43149   9.418   3.207   8.017 -0.0010 -2.3976 -3.3550
  320MOL0     H43150   9.583   3.294   8.042  1.9869 -1.8332  1.5579
  320MOL0     H43151   9.789   3.135   7.880 -2.2539  0.5707  3.4927
  320MOL0     H43152   9.759   3.175   7.492  5.9485 -1.0777 -2.2153
  320MOL0     H43153   9.869   3.203   7.621 -1.5297  2.5888 -2.7910
  320MOL0     H43154   9.798   2.944   7.682 -4.3563  0.3116 -1.8884
  320MOL0     H43155   9.757   2.941   7.514 -0.2834 -1.4427  0.1836
  320MOL0     H43156   9.986   2.855   7.590  0.0779 -0.0231  1.9521
  320MOL0     H43157  10.038   3.010   7.641  1.8775  0.6104 -0.7464
  320MOL0     H43158   9.947   2.962   7.357 -1.7846 -0.4431  1.9381
  320MOL0     H43159  10.109   2.934   7.409  1.8799  1.8097 -0.1300
  320MOL0     H43160  10.044   3.031   7.174  2.9347 -0.2079  0.3581
  320MOL0     H43161  10.089   3.166   6.974 -0.3037 -1.0549  1.0507
  320MOL0     H43162  10.396   3.608   6.875 -0.3999 -2.5657 -1.4482
  320MOL0     H43163  10.422   3.764   6.676  0.5502 -2.4752 -1.1383
  320MOL0     H43164  10.168   3.803   6.427 -0.4991 -0.6170  2.4877
  320MOL0     H43165  10.099   3.972   6.449 -1.2449 -0.7710 -2.6717
  320MOL0     H43166  10.304   4.063   6.374 -2.2098  1.0348 -0.5455
  320MOL0     H43167  10.376   3.898   6.354 -0.6218 -0.5098  2.4075
  320MOL0     H43168  10.103   3.955   6.223 -0.4885  0.6733  0.2394
  320MOL0     H43169  10.225   4.066   6.169 -4.2143  0.1074 -0.3267
  320MOL0     H43170  10.228   3.761   6.181 -3.4911  2.4432  2.6839
  320MOL0     H43171  10.372   3.854   6.135  0.1404  2.1130  1.6393
  320MOL0     H43172  10.268   3.767   5.944 -0.9341  0.0959 -0.8439
  320MOL0     H43173  10.244   3.946   5.947  0.3445 -0.5134 -0.1505
  320MOL0     H43174  10.020   3.751   6.003 -1.5284  0.1209  0.8754
  320MOL0     H43175  10.001   3.915   6.008  1.1469 -1.0750  2.2085
  320MOL0     H43176  10.106   3.769   5.761 -1.8441 -0.1957 -1.5293
  320MOL0     H43177  10.070   3.942   5.775 -0.5895 -0.4599  0.1597
  320MOL0     H43178   9.859   3.721   5.812 -2.9027  0.1927 -1.3492
  320MOL0     H43179   9.839   3.896   5.821  0.9675  1.0605 -1.4327
  320MOL0     H43180  10.013   3.852   6.664  0.2094 -0.7428 -1.1008
  320MOL0     H43181   9.972   3.707   6.881  0.3272  0.1813 -0.0284
  320MOL0     H43182  10.121   3.509   7.224  1.0393 -0.2731  0.2792
  320MOL0     H43183  10.092   3.385   7.412 -0.2326  1.7061 -1.3281
  320MOL0     H43184   9.197   3.751   8.499 -0.4553 -0.5026  0.5657
  320MOL0     H43185   9.134   3.924   8.320  1.2956  0.2407  2.6118
  320MOL0     H43186   8.965   4.028   7.968  2.5863 -1.4058  0.3077
  320MOL0     H43187   8.859   4.203   7.819  0.1746  3.6650  0.4876
  320MOL0     H43188   9.133   4.531   7.677 -0.6397  0.0604 -0.7091
  320MOL0     H43189   9.030   4.509   7.808  1.5255  2.3719  0.1578
  320MOL0     H43190   8.847   4.585   7.705 -1.3232  0.3374 -2.5341
  320MOL0     H43191   8.930   4.578   7.540  0.4032 -0.5035 -0.0827
  320MOL0     H43192   9.035   4.750   7.766  1.9915 -3.0519 -0.4105
  320MOL0     H43193   8.884   4.797   7.679 -0.0134  0.5802 -4.0297
  320MOL0     H43194   9.135   4.745   7.517  0.7697  2.1509 -2.1599
  320MOL0     H43195   8.964   4.772   7.461  0.2458  0.8935 -0.5627
  320MOL0     H43196   9.114   5.158   7.568  2.6050 -0.3198  2.8005
  320MOL0     H43197   9.235   4.358   7.748  1.4727  1.3634  1.9533
  320MOL0     H43198   9.422   4.296   7.865 -1.0165  2.9694  4.0354
  320MOL0     H43199   9.401   4.231   8.029  3.0863 -0.4057  0.0826
  320MOL0     H43200   9.445   4.124   7.891 -0.5922 -0.7814  0.7452
  321MOL0     O43201   4.707   8.160   4.113  0.0460 -0.0119  0.4527
  321MOL0     C43202   4.758   8.128   4.008 -0.3191 -0.0241  0.6457
  321MOL0     O43203   4.831   8.204   3.925 -0.4686 -0.0536 -0.6068
  321MOL0     C43204   4.869   8.336   3.955 -0.7493 -0.7173  0.2813
  321MOL0     C43205   5.009   8.364   3.952  0.3784 -0.3457 -0.2831
  321MOL0     C43206   5.050   8.497   3.992 -0.0693 -0.2254  0.1098
  321MOL0     C43207   4.959   8.597   4.020 -0.3672 -0.2608  0.2543
  321MOL0     O43208   5.009   8.717   4.060  0.6966 -0.3932  0.4415
  321MOL0     C43209   4.932   8.837   4.077  0.6727  0.4692 -0.2282
  321MOL0     C43210   5.031   8.948   4.094 -0.3234 -0.7200  0.2648
  321MOL0     C43211   4.963   9.082   4.137  0.0370 -0.4418 -0.0669
  321MOL0     C43212   5.057   9.184   4.193  0.2584 -0.5650 -0.0799
  321MOL0     C43213   4.977   9.317   4.192 -0.0481 -0.2686 -0.2272
  321MOL0     C43214   4.868   9.327   4.304 -0.5441 -0.3829 -0.5527
  321MOL0     C43215   4.930   9.355   4.450  0.4994 -0.4063  1.0595
  321MOL0     C43216   4.824   9.370   4.562 -1.1436  0.0637 -0.2090
  321MOL0     N43217   4.700   9.450   4.535 -0.8715  0.2899  0.3860
  321MOL0     C43218   4.692   9.581   4.562 -0.0782 -0.7089  0.1761
  321MOL0     C43219   4.558   9.613   4.549 -0.5374  0.7818  0.1024
  321MOL0     C43220   4.493   9.743   4.579  0.5326 -0.1636  0.3383
  321MOL0     C43221   4.572   9.861   4.517 -0.5476  0.2611 -0.0005
  321MOL0     C43222   4.487   9.984   4.539  0.3173 -0.1707 -0.2926
  321MOL0     C43223   4.566  10.121   4.543 -0.4008  0.5682  0.2934
  321MOL0     O43224   4.516  10.230   4.626  1.0020 -0.1388 -0.4030
  321MOL0     C43225   4.386  10.271   4.594  0.0064  0.2424  0.4386
  321MOL0     C43226   4.351  10.287   4.460  0.1803 -0.4334 -0.0255
  321MOL0     C43227   4.225  10.338   4.417 -0.0024 -0.7706  0.3432
  321MOL0     C43228   4.127  10.383   4.516 -0.3376  0.1114  0.6171
  321MOL0     C43229   3.997  10.432   4.485 -0.2748 -0.6922  0.2141
  321MOL0     O43230   3.898  10.421   4.574 -0.1027  0.5448 -0.1603
  321MOL0     C43231   3.766  10.446   4.547 -0.8709 -0.7334 -1.3615
  321MOL0     C43232   3.707  10.445   4.422  0.1817  0.3246  0.5685
  321MOL0     C43233   3.573  10.458   4.398  0.1132 -1.2437 -0.2082
  321MOL0     C43234   3.491  10.478   4.504  0.5070  0.4500 -0.1353
  321MOL0     O43235   3.351  10.505   4.496 -0.3041 -0.9603 -0.8139
  321MOL0     C43236   3.292  10.526   4.371 -0.3538 -0.1695  0.6713
  321MOL0     C43237   3.135  10.520   4.377  0.6464 -0.5328 -0.3697
  321MOL0     C43238   3.061  10.501   4.249 -0.1347  0.2262  0.2837
  321MOL0     C43239   2.909  10.525   4.273  0.7529  0.3581  0.9113
  321MOL0     C43240   2.812  10.504   4.152 -0.2595  0.2129 -0.1399
  321MOL0     C43241   2.801  10.354   4.130 -0.4947 -0.6890  0.3895
  321MOL0     C43242   2.690  10.323   4.041  0.5514  0.2971 -0.0770
  321MOL0     C43243   2.572  10.258   4.112  0.5992 -0.0365  0.1346
  321MOL0    Cl43244   2.439  10.219   4.003  0.0377  0.3684  0.1160
  321MOL0     C43245   3.542  10.483   4.633 -0.4280 -0.3124  0.6991
  321MOL0     C43246   3.677  10.468   4.656  0.3257 -0.3371  0.3360
  321MOL0     O43247   3.987  10.477   4.367  0.7384  0.6363  0.1356
  321MOL0     C43248   4.169  10.361   4.650  0.0935 -0.8683  0.9341
  321MOL0     C43249   4.302  10.318   4.685  0.7479  0.4194  0.0258
  321MOL0     N43250   4.490   9.505   4.488 -0.0385  0.9156 -0.6961
  321MOL0     N43251   4.574   9.410   4.492 -0.5255  1.0134  0.4751
  321MOL0     C43252   4.822   8.570   4.015  0.1362  0.7337 -1.0094
  321MOL0     C43253   4.783   8.440   3.987 -0.1913 -0.0629 -0.1840
  321MOL0     C43254   4.734   7.994   3.950 -0.3147  0.5614 -0.0760
  321MOL0     C43255   4.763   7.976   3.808 -0.2062  0.0953 -1.1261
  321MOL0     C43256   4.755   7.851   3.750  0.1470 -0.7533  0.6431
  321MOL0     C43257   4.707   7.743   3.813 -0.2825  0.4355  0.5587
  321MOL0     O43258   4.700   7.621   3.760 -0.5416  0.0157  0.5438
  321MOL0     C43259   4.771   7.595   3.635  0.4699 -0.7682  0.1230
  321MOL0     C43260   4.730   7.465   3.589  1.0702  0.6231  0.0496
  321MOL0     C43261   4.584   7.470   3.527  0.4340 -0.0915 -0.5886
  321MOL0     C43262   4.521   7.325   3.534  0.2467  0.0704 -0.1234
  321MOL0     C43263   4.419   7.308   3.434 -0.6701  0.0978 -0.7653
  321MOL0     C43264   4.330   7.304   3.348  0.1833  0.6887 -0.5021
  321MOL0     C43265   4.685   7.751   3.950 -0.0530 -0.1196 -0.0892
  321MOL0     C43266   4.700   7.875   4.021 -0.2920  0.5409 -0.3063
  321MOL0     C43267   4.653   7.876   4.165  0.3458  0.0259 -0.5475
  321MOL0     H43268   5.076   8.289   3.912 -0.9668 -1.7476  0.0031
  321MOL0     H43269   5.154   8.526   4.004 -0.2988  0.6582  0.0610
  321MOL0     H43270   4.875   8.851   3.985  1.2001  0.0966 -0.6182
  321MOL0     H43271   4.874   8.827   4.169 -0.9120  0.6417 -1.1733
  321MOL0     H43272   5.096   8.953   4.006  2.2014 -1.7143  1.9539
  321MOL0     H43273   5.094   8.930   4.181 -0.2241 -0.0268  0.3421
  321MOL0     H43274   4.888   9.057   4.213 -0.7010  2.6279  0.3409
  321MOL0     H43275   4.912   9.120   4.048  1.8057  1.3956 -0.3671
  321MOL0     H43276   5.103   9.163   4.290  1.2216 -0.5059 -0.5116
  321MOL0     H43277   5.140   9.181   4.122 -1.1612 -1.2816 -1.7835
  321MOL0     H43278   5.052   9.397   4.195 -0.1654 -0.0954 -1.4759
  321MOL0     H43279   4.928   9.339   4.097 -0.7173 -2.1332 -0.3545
  321MOL0     H43280   4.794   9.398   4.267 -2.8439 -3.9988 -3.5942
  321MOL0     H43281   4.806   9.238   4.313  1.0372 -1.3874  1.2737
  321MOL0     H43282   4.985   9.449   4.446 -3.3165  2.0058  0.1377
  321MOL0     H43283   4.982   9.261   4.470 -0.4022 -1.5803 -1.6453
  321MOL0     H43284   4.799   9.264   4.571 -0.6849 -0.0893 -0.6751
  321MOL0     H43285   4.871   9.417   4.649  2.4197  0.0028 -1.9023
  321MOL0     H43286   4.774   9.646   4.592  1.8868 -2.5285 -1.0153
  321MOL0     H43287   4.392   9.735   4.538  0.5653 -3.1618  0.6032
  321MOL0     H43288   4.494   9.761   4.687  2.6893 -1.2989  0.5741
  321MOL0     H43289   4.667   9.853   4.571 -1.7659 -1.5328  2.0602
  321MOL0     H43290   4.597   9.860   4.411  3.6618 -0.7639  0.8144
  321MOL0     H43291   4.456   9.980   4.644 -2.2154  2.1673 -0.8351
  321MOL0     H43292   4.396   9.982   4.479 -0.3757  1.2509  0.6568
  321MOL0     H43293   4.600  10.158   4.446 -1.3509  1.7667  0.4024
  321MOL0     H43294   4.660  10.109   4.597  0.6190  3.0879 -0.7860
  321MOL0     H43295   4.411  10.272   4.371  0.8542  1.1537  0.1251
  321MOL0     H43296   4.208  10.339   4.310  0.1523  1.5173  0.2969
  321MOL0     H43297   3.766  10.422   4.333  1.6343  0.6065  1.4299
  321MOL0     H43298   3.541  10.465   4.294 -0.0412  2.7834 -0.0591
  321MOL0     H43299   3.312  10.626   4.331 -0.2062 -0.4256  0.0969
  321MOL0     H43300   3.326  10.457   4.293 -1.2329 -1.4388  1.3797
  321MOL0     H43301   3.114  10.449   4.457 -1.9316  1.0762  0.5027
  321MOL0     H43302   3.098  10.609   4.430 -3.1585 -1.8458 -0.5735
  321MOL0     H43303   3.098  10.559   4.163 -2.2020  3.8091  1.6137
  321MOL0     H43304   3.076  10.394   4.229  1.0441  0.3882  0.1781
  321MOL0     H43305   2.899  10.630   4.304  1.4500  0.2995  1.3716
  321MOL0     H43306   2.874  10.469   4.360 -1.3695  1.1439  0.6303
  321MOL0     H43307   2.866  10.542   4.065  0.3359  0.9319  0.5297
  321MOL0     H43308   2.713  10.545   4.175 -0.0288  0.8028 -0.1871
  321MOL0     H43309   2.889  10.319   4.075 -1.7891 -0.4465 -1.9915
  321MOL0     H43310   2.800  10.298   4.224 -2.8053 -1.9461 -0.3105
  321MOL0     H43311   2.733  10.245   3.978 -4.1217 -2.4254 -0.3786
  321MOL0     H43312   2.661  10.407   3.977  0.6439  1.7917  1.7596
  321MOL0     H43313   2.599  10.160   4.153 -3.2554 -0.9795  0.8072
  321MOL0     H43314   2.552  10.328   4.193  1.6025  0.3420  0.0712
  321MOL0     H43315   3.478  10.497   4.720  2.0702  1.2782  2.3870
  321MOL0     H43316   3.702  10.459   4.762 -0.8199  2.2903  0.9027
  321MOL0     H43317   4.097  10.379   4.729 -2.7066  1.6139 -1.9038
  321MOL0     H43318   4.336  10.313   4.788 -0.8180 -0.1098  0.5450
  321MOL0     H43319   4.748   8.645   4.043  1.9319  3.5000 -3.1175
  321MOL0     H43320   4.679   8.412   3.999 -1.0638  1.5489 -2.9357
  321MOL0     H43321   4.802   8.052   3.742  0.1331  1.8251  0.9724
  321MOL0     H43322   4.785   7.866   3.647  2.6673  2.9268  1.6843
  321MOL0     H43323   4.877   7.579   3.657  0.5884  1.9069  1.8283
  321MOL0     H43324   4.746   7.665   3.554 -0.4540  1.2376  2.0533
  321MOL0     H43325   4.729   7.392   3.670 -0.1087 -4.7570 -4.2156
  321MOL0     H43326   4.802   7.437   3.512 -0.0754  0.7098 -1.1006
  321MOL0     H43327   4.590   7.487   3.419  3.4190 -1.6657 -0.7585
  321MOL0     H43328   4.524   7.553   3.566  0.4199  0.9950 -2.7670
  321MOL0     H43329   4.603   7.254   3.521  0.1800 -0.2175  0.9366
  321MOL0     H43330   4.472   7.309   3.631  0.9609 -0.3897  0.1661
  321MOL0     H43331   4.250   7.312   3.278  0.2214  0.3688 -0.5841
  321MOL0     H43332   4.663   7.658   4.001  0.9693  0.1932  0.9933
  321MOL0     H43333   4.699   7.948   4.233 -0.5123 -0.3090  0.4202
  321MOL0     H43334   4.550   7.911   4.170  0.3218 -0.2250  1.5251
  321MOL0     H43335   4.660   7.780   4.218 -1.9180  0.8831  1.5001
  322MOL0     O43336   5.884   9.093   4.924  0.0302 -0.6174 -0.0677
  322MOL0     C43337   5.995   9.109   4.879  0.7354  0.6935  1.0240
  322MOL0     O43338   6.023   9.140   4.744 -0.3156 -0.2262  0.5115
  322MOL0     C43339   5.946   9.101   4.639 -0.0917  0.3951 -0.0332
  322MOL0     C43340   5.939   9.179   4.537 -0.7782 -0.1359  0.3527
  322MOL0     C43341   5.870   9.142   4.422 -0.8140  0.3307  0.2051
  322MOL0     C43342   5.825   9.005   4.418 -0.0034 -0.2654 -1.0684
  322MOL0     O43343   5.750   8.956   4.315  0.0141  0.3379 -0.2198
  322MOL0     C43344   5.757   9.000   4.181 -1.1036 -0.6544  0.6797
  322MOL0     C43345   5.902   8.977   4.131 -0.5098 -0.9871 -0.2221
  322MOL0     C43346   5.943   8.832   4.121 -0.5438  1.2077 -0.0990
  322MOL0     C43347   6.086   8.808   4.067 -0.2774  0.7149 -0.0717
  322MOL0     C43348   6.111   8.845   3.922  0.8863 -0.1217  0.1434
  322MOL0     C43349   6.241   8.821   3.856  0.5220  0.7381 -0.6663
  322MOL0     C43350   6.269   8.670   3.830 -0.8060  0.3783  1.0546
  322MOL0     C43351   6.411   8.633   3.778  0.0160  0.1708 -1.1966
  322MOL0     N43352   6.421   8.658   3.635  0.3377 -0.6151 -0.3513
  322MOL0     C43353   6.364   8.592   3.521  0.2932  0.5585  0.4049
  322MOL0     C43354   6.402   8.671   3.412 -1.1875 -0.2416 -0.4675
  322MOL0     C43355   6.379   8.624   3.274  0.4611  0.4389  0.0138
  322MOL0     C43356   6.357   8.732   3.164 -0.0751  0.1235  0.2456
  322MOL0     C43357   6.210   8.789   3.148 -1.1859 -0.1981 -0.3830
  322MOL0     C43358   6.197   8.887   3.027 -0.8607  0.1597 -0.3015
  322MOL0     O43359   6.077   8.968   3.032  0.4947  0.3172  0.5302
  322MOL0     C43360   6.024   9.010   2.910  0.1507  0.5655  0.0643
  322MOL0     C43361   5.901   9.073   2.923  0.0705  0.3775  1.0531
  322MOL0     C43362   5.825   9.121   2.813 -0.2536  0.7709  0.1995
  322MOL0     C43363   5.885   9.096   2.688 -0.7110  0.1165  0.4284
  322MOL0     C43364   5.817   9.131   2.559 -0.2835 -1.5768 -0.6179
  322MOL0     O43365   5.690   9.167   2.578  0.5762  0.1983 -0.7344
  322MOL0     C43366   5.621   9.215   2.478  1.3433 -0.2199  0.8373
  322MOL0     C43367   5.498   9.163   2.457  0.8173  0.2297  0.6645
  322MOL0     C43368   5.411   9.210   2.362 -1.1660  1.2163  0.0994
  322MOL0     C43369   5.429   9.332   2.307 -0.0231  0.0933  0.5332
  322MOL0     O43370   5.333   9.376   2.221  0.1975 -0.3495 -0.5028
  322MOL0     C43371   5.304   9.517   2.230 -0.0526 -0.1677 -1.3015
  322MOL0     C43372   5.195   9.550   2.128 -0.0187 -0.1504 -0.2416
  322MOL0     C43373   5.179   9.696   2.090  0.0664 -0.4008  0.9401
  322MOL0     C43374   5.047   9.720   2.026 -0.3461 -0.9540 -0.5917
  322MOL0     C43375   4.941   9.754   2.133  0.2663  0.4770  0.0929
  322MOL0     C43376   4.797   9.760   2.067  0.2535  0.1626  1.0453
  322MOL0     C43377   4.699   9.809   2.179 -0.6361 -0.7865 -0.3551
  322MOL0     C43378   4.552   9.815   2.162 -0.8708 -0.1371  0.7685
  322MOL0    Cl43379   4.483   9.691   2.046  0.2563 -0.1498  0.2447
  322MOL0     C43380   5.557   9.388   2.320 -0.1048 -0.6324 -0.0041
  322MOL0     C43381   5.654   9.330   2.409 -0.1315  0.3232  0.8309
  322MOL0     O43382   5.877   9.133   2.454 -0.4630 -0.0989  0.8396
  322MOL0     C43383   6.014   9.036   2.675 -0.0956  0.0705  1.1068
  322MOL0     C43384   6.074   8.988   2.784  0.2872  0.3024 -0.1862
  322MOL0     N43385   6.480   8.779   3.462  0.7879  0.2817  0.5821
  322MOL0     N43386   6.492   8.762   3.593  0.3253  0.2244  0.3763
  322MOL0     C43387   5.828   8.922   4.538  0.8979  0.6443 -0.1130
  322MOL0     C43388   5.892   8.975   4.641 -0.5151 -0.8426 -0.3784
  322MOL0     C43389   6.105   9.104   4.979 -0.9534 -0.0458 -0.9312
  322MOL0     C43390   6.088   9.164   5.102  0.0034  0.3219 -0.4289
  322MOL0     C43391   6.194   9.163   5.202 -0.5420  1.0988  0.2505
  322MOL0     C43392   6.324   9.132   5.158  0.0341  0.8340 -0.6029
  322MOL0     O43393   6.427   9.143   5.247 -0.4413 -0.1269 -0.4220
  322MOL0     C43394   6.568   9.127   5.201  0.3016  0.6007 -0.2110
  322MOL0     C43395   6.661   9.166   5.311 -0.4745  0.0511  0.1383
  322MOL0     C43396   6.646   9.317   5.345 -0.6168 -0.1289 -0.5678
  322MOL0     C43397   6.771   9.356   5.438  0.4249 -0.9036 -0.3700
  322MOL0     C43398   6.766   9.295   5.572 -0.1677 -1.1177 -0.5782
  322MOL0     C43399   6.775   9.241   5.676 -0.4889  0.1043 -0.0299
  322MOL0     C43400   6.337   9.066   5.035 -0.4411  0.8353 -0.3983
  322MOL0     C43401   6.233   9.052   4.947 -0.4377 -0.1502 -0.5995
  322MOL0     C43402   6.261   8.991   4.809 -0.4294 -0.5045  0.3507
  322MOL0     H43403   5.977   9.280   4.548 -3.0108  0.5309  3.1645
  322MOL0     H43404   5.859   9.208   4.337 -2.3356 -2.5908 -2.0683
  322MOL0     H43405   5.693   8.926   4.132 -4.0433  1.6920  0.6882
  322MOL0     H43406   5.716   9.100   4.161 -0.7865 -0.2755  1.8534
  322MOL0     H43407   5.972   9.039   4.188 -0.8905 -0.8412  0.0878
  322MOL0     H43408   5.906   9.015   4.029 -2.5184  0.3772  0.1645
  322MOL0     H43409   5.876   8.780   4.052 -0.5361 -0.4345  1.0742
  322MOL0     H43410   5.936   8.792   4.223  1.1067 -0.9622 -0.7663
  322MOL0     H43411   6.159   8.872   4.117  1.3705 -0.0073 -1.4783
  322MOL0     H43412   6.122   8.705   4.080  0.3304  0.4033 -3.4169
  322MOL0     H43413   6.030   8.787   3.876  2.6698 -2.8431  0.2211
  322MOL0     H43414   6.080   8.950   3.918 -1.3811 -0.6060  2.5204
  322MOL0     H43415   6.244   8.875   3.761  2.4058  3.2153  0.6823
  322MOL0     H43416   6.318   8.871   3.916 -0.9160 -0.1253  2.0561
  322MOL0     H43417   6.192   8.632   3.762 -1.6413  0.9928  1.6234
  322MOL0     H43418   6.247   8.625   3.928 -0.7834 -2.6470 -0.2206
  322MOL0     H43419   6.482   8.683   3.844 -3.7360  3.0062  1.1163
  322MOL0     H43420   6.439   8.529   3.799 -0.6172  0.9935  5.9519
  322MOL0     H43421   6.302   8.503   3.515 -0.8606  1.3946 -0.5088
  322MOL0     H43422   6.462   8.562   3.238 -1.4474 -1.7991 -0.7539
  322MOL0     H43423   6.287   8.565   3.280 -0.4426  1.5620 -1.8127
  322MOL0     H43424   6.424   8.818   3.175 -1.3089  1.3548 -1.3608
  322MOL0     H43425   6.389   8.686   3.071  1.2986  1.0317  0.2335
  322MOL0     H43426   6.176   8.837   3.241  1.6185 -0.8559  1.1107
  322MOL0     H43427   6.151   8.697   3.142 -1.8617  0.0758  1.4563
  322MOL0     H43428   6.191   8.832   2.933  2.9944 -1.1718  0.0327
  322MOL0     H43429   6.283   8.955   3.025  1.6413 -2.7808 -2.6486
  322MOL0     H43430   5.863   9.086   3.024 -1.2502  3.1479  0.3050
  322MOL0     H43431   5.722   9.155   2.820 -0.4335 -0.0749  2.3388
  322MOL0     H43432   5.467   9.073   2.509  1.5094  0.7159  1.9693
  322MOL0     H43433   5.323   9.153   2.334 -1.1148  1.3844 -0.4111
  322MOL0     H43434   5.279   9.527   2.336  5.0558  0.6463  0.1004
  322MOL0     H43435   5.388   9.583   2.209 -0.9912  2.3155  1.9416
  322MOL0     H43436   5.222   9.487   2.042 -0.6478 -1.7092  0.6492
  322MOL0     H43437   5.102   9.507   2.164  1.1950 -1.4258  1.5540
  322MOL0     H43438   5.199   9.754   2.181  3.4509 -2.0402  1.3875
  322MOL0     H43439   5.246   9.716   2.006 -0.8819  0.5892  0.3931
  322MOL0     H43440   5.025   9.630   1.969 -0.7655 -1.1693 -0.0968
  322MOL0     H43441   5.040   9.801   1.952  2.2579  1.7284  1.7747
  322MOL0     H43442   4.972   9.846   2.185  2.4392  2.4248 -4.1618
  322MOL0     H43443   4.934   9.664   2.194 -1.3116  0.6685  0.2491
  322MOL0     H43444   4.793   9.839   1.991  1.1385  0.2338  1.0628
  322MOL0     H43445   4.770   9.661   2.028  3.0073 -1.9851  4.0946
  322MOL0     H43446   4.732   9.911   2.201 -1.5195 -0.4885 -0.3858
  322MOL0     H43447   4.714   9.739   2.262  2.7542 -2.4738 -2.1776
  322MOL0     H43448   4.495   9.800   2.255  2.1325 -0.5494  2.6986
  322MOL0     H43449   4.522   9.914   2.127  3.1235  1.1642  0.5867
  322MOL0     H43450   5.591   9.478   2.270  2.3883 -1.4758  0.0449
  322MOL0     H43451   5.755   9.368   2.403 -0.3059  1.4629  3.7478
  322MOL0     H43452   6.062   9.012   2.581  1.0646  0.4678  1.5844
  322MOL0     H43453   6.169   8.935   2.773 -1.1321 -2.3454 -0.4850
  322MOL0     H43454   5.772   8.830   4.534  0.1475  1.1405 -1.3304
  322MOL0     H43455   5.911   8.902   4.719  0.6218  0.2926  0.4560
  322MOL0     H43456   6.002   9.217   5.140  2.3111  2.6793  1.9446
  322MOL0     H43457   6.179   9.208   5.299 -1.1995 -0.9042  1.1365
  322MOL0     H43458   6.601   9.184   5.114  4.8666  1.5147  1.8280
  322MOL0     H43459   6.579   9.018   5.199 -1.9820  0.2677  1.3351
  322MOL0     H43460   6.765   9.143   5.288 -0.1467  0.3582  1.2475
  322MOL0     H43461   6.637   9.106   5.400 -2.2878  0.5481  0.0165
  322MOL0     H43462   6.549   9.332   5.394 -0.8931  0.2615 -1.2284
  322MOL0     H43463   6.644   9.376   5.253  0.8978  2.6719  1.0596
  322MOL0     H43464   6.867   9.340   5.388  1.8259  2.8247  0.8184
  322MOL0     H43465   6.765   9.465   5.435 -0.1857 -0.8606  1.3095
  322MOL0     H43466   6.770   9.199   5.774 -0.2469  0.3014  0.0681
  322MOL0     H43467   6.433   9.019   5.019 -0.6784  0.2326 -0.0714
  322MOL0     H43468   6.232   9.072   4.741 -0.6524  0.5922  1.7085
  322MOL0     H43469   6.366   8.982   4.780 -1.1906  1.5038 -3.8428
  322MOL0     H43470   6.203   8.900   4.788 -1.7017 -0.0155  1.6408
  323MOL0     O43471   6.678   1.355   7.803 -0.7584  0.6167  0.4203
  323MOL0     C43472   6.673   1.470   7.822  1.0686  0.1990  0.2002
  323MOL0     O43473   6.628   1.532   7.936  0.0716  0.1947  0.3717
  323MOL0     C43474   6.598   1.461   8.052  0.3857 -1.0871  0.7046
  323MOL0     C43475   6.679   1.365   8.097 -0.5590 -0.2212 -0.1891
  323MOL0     C43476   6.659   1.305   8.223  0.7459 -0.2605  0.1818
  323MOL0     C43477   6.546   1.337   8.301  0.3826  0.4159  0.6979
  323MOL0     O43478   6.531   1.280   8.427 -0.7571  0.6717  0.4805
  323MOL0     C43479   6.498   1.377   8.529  0.9704 -0.1145  0.4664
  323MOL0     C43480   6.609   1.479   8.537  0.1923  0.1480 -0.3466
  323MOL0     C43481   6.594   1.569   8.671  0.5504  1.0801 -1.5637
  323MOL0     C43482   6.718   1.659   8.687 -0.3704 -0.8428  0.1115
  323MOL0     C43483   6.737   1.756   8.798 -0.2747 -0.5136  0.0826
  323MOL0     C43484   6.786   1.698   8.931  0.1774 -0.0150  0.4086
  323MOL0     C43485   6.800   1.798   9.053  0.0572  0.0922  0.9878
  323MOL0     C43486   6.925   1.876   9.073  0.0629  0.4517 -0.4656
  323MOL0     N43487   6.938   1.964   9.192 -0.0957  0.0839 -0.0621
  323MOL0     C43488   7.019   2.076   9.203 -0.8535 -0.6265  1.0074
  323MOL0     C43489   6.990   2.137   9.322  0.1134 -0.2455  0.5173
  323MOL0     C43490   7.059   2.260   9.383  0.9602 -0.1112  0.1416
  323MOL0     C43491   7.187   2.241   9.452 -0.3202 -0.2521  0.3435
  323MOL0     C43492   7.184   2.136   9.562 -0.2385  0.1978 -0.8843
  323MOL0     C43493   7.325   2.107   9.628  0.6545 -0.3502  0.5723
  323MOL0     O43494   7.391   2.230   9.625 -0.2663 -0.0742  0.1090
  323MOL0     C43495   7.372   2.335   9.708  0.0849  0.2997 -1.0221
  323MOL0     C43496   7.424   2.457   9.670  0.6798  0.0025  0.4285
  323MOL0     C43497   7.399   2.571   9.734 -0.3578 -0.5883  0.9267
  323MOL0     C43498   7.320   2.576   9.845 -0.0163 -0.3237  0.5137
  323MOL0     C43499   7.276   2.708   9.901 -0.5675  0.4418  1.0984
  323MOL0     O43500   7.329   2.815   9.835 -0.4141 -0.7921 -0.5673
  323MOL0     C43501   7.341   2.939   9.891  0.3169 -0.0041 -0.6618
  323MOL0     C43502   7.312   2.967  10.031  0.2177 -0.5377  0.1347
  323MOL0     C43503   7.292   3.093  10.070  0.3986 -0.1490 -0.5266
  323MOL0     C43504   7.334   3.198   9.987 -0.7900  0.5872  0.2751
  323MOL0     O43505   7.314   3.319  10.042  0.0666  0.1629  0.5814
  323MOL0     C43506   7.411   3.420   9.993 -0.2017  1.2370 -1.3354
  323MOL0     C43507   7.554   3.398  10.047 -0.3944  0.3497 -0.3449
  323MOL0     C43508   7.642   3.284   9.994 -0.1658 -0.1154  0.2640
  323MOL0     C43509   7.804   3.305  10.021  0.4137 -0.4295  0.1536
  323MOL0     C43510   7.896   3.192   9.970 -0.2134 -0.4763  0.0704
  323MOL0     C43511   8.043   3.246   9.983  0.3061  0.3107  0.2318
  323MOL0     C43512   8.134   3.161   9.902  0.1302  0.1837  0.0807
  323MOL0     C43513   8.165   3.032   9.959  0.3876  1.1397 -0.4683
  323MOL0    Cl43514   8.051   2.908   9.877 -0.2234 -0.0004 -0.4457
  323MOL0     C43515   7.374   3.174   9.850  0.2347 -0.2813  1.0388
  323MOL0     C43516   7.372   3.044   9.803 -0.3488 -0.4598  0.2822
  323MOL0     O43517   7.205   2.717   9.997  0.2392  1.0938  0.5087
  323MOL0     C43518   7.284   2.453   9.895 -0.0061  0.8257 -0.2254
  323MOL0     C43519   7.313   2.335   9.831  0.4330  0.3776  0.5816
  323MOL0     N43520   6.897   2.057   9.383  0.3840 -0.0898 -0.1432
  323MOL0     N43521   6.873   1.954   9.312 -0.4901  0.5353  0.4208
  323MOL0     C43522   6.462   1.432   8.242  0.3689  0.0547 -0.7320
  323MOL0     C43523   6.486   1.495   8.129  0.9827 -0.4116  0.1535
  323MOL0     C43524   6.701   1.553   7.711  0.0498 -0.1461  1.4165
  323MOL0     C43525   6.647   1.523   7.587 -0.0358  0.2348 -0.9109
  323MOL0     C43526   6.682   1.595   7.471 -0.6941  0.3673 -0.4658
  323MOL0     C43527   6.756   1.714   7.486 -0.0945 -0.4758 -0.1301
  323MOL0     O43528   6.791   1.800   7.386 -0.7920  0.2823 -0.1428
  323MOL0     C43529   6.756   1.754   7.252 -0.7911  0.2017 -0.1051
  323MOL0     C43530   6.793   1.852   7.139 -0.5733 -0.0413 -1.2236
  323MOL0     C43531   6.698   1.973   7.140  0.0770 -0.0704 -1.1207
  323MOL0     C43532   6.580   1.968   7.033 -0.4614 -0.1404 -0.1684
  323MOL0     C43533   6.486   2.080   7.047  0.5764  0.3100  0.8942
  323MOL0     C43534   6.421   2.182   7.068 -0.2203 -0.2286  0.3697
  323MOL0     C43535   6.797   1.744   7.611 -0.1351 -0.5324 -0.8271
  323MOL0     C43536   6.775   1.673   7.732 -0.1507 -0.2607 -0.5332
  323MOL0     C43537   6.840   1.718   7.860 -0.0036 -0.1213 -0.8627
  323MOL0     H43538   6.761   1.329   8.036 -1.5931  0.8605 -2.3339
  323MOL0     H43539   6.729   1.225   8.247  2.8815  0.6750 -2.5134
  323MOL0     H43540   6.403   1.415   8.491  1.3501 -1.3883 -1.9306
  323MOL0     H43541   6.484   1.335   8.629  0.4020 -1.2639 -0.0767
  323MOL0     H43542   6.621   1.549   8.453 -1.9171  1.4884  0.3736
  323MOL0     H43543   6.699   1.417   8.539 -1.0845 -1.8858 -2.4702
  323MOL0     H43544   6.597   1.507   8.761  1.1275 -0.3744 -2.5380
  323MOL0     H43545   6.505   1.631   8.659 -0.2637  0.3757  0.3706
  323MOL0     H43546   6.801   1.589   8.698 -0.9456 -1.5185  0.1995
  323MOL0     H43547   6.732   1.716   8.594  3.7747 -0.2526  0.9282
  323MOL0     H43548   6.816   1.819   8.757  1.8304 -1.8833  1.8264
  323MOL0     H43549   6.642   1.810   8.806 -1.9288 -3.2602  0.1851
  323MOL0     H43550   6.713   1.620   8.955  2.1678 -2.2708 -0.4796
  323MOL0     H43551   6.881   1.647   8.911 -1.1883 -2.2680 -0.7624
  323MOL0     H43552   6.788   1.739   9.144  2.5030  1.0303  2.0175
  323MOL0     H43553   6.712   1.863   9.050 -1.0311 -1.3254 -1.9487
  323MOL0     H43554   7.016   1.817   9.063  0.3435  1.0486 -1.5503
  323MOL0     H43555   6.932   1.937   8.982 -1.2553 -0.6784 -1.3826
  323MOL0     H43556   7.095   2.111   9.133 -3.2603  3.2616  0.0611
  323MOL0     H43557   7.081   2.325   9.298  0.9857 -0.3592 -0.0416
  323MOL0     H43558   6.979   2.312   9.437 -0.8149 -1.3855 -1.1323
  323MOL0     H43559   7.253   2.200   9.375  0.0326  0.4111  0.2899
  323MOL0     H43560   7.222   2.340   9.482 -1.4638  0.4313 -0.4523
  323MOL0     H43561   7.138   2.046   9.521  0.0642  0.1475 -1.1120
  323MOL0     H43562   7.123   2.173   9.646  0.3102 -1.0771  0.1108
  323MOL0     H43563   7.386   2.042   9.565  0.5997 -0.1607  0.3220
  323MOL0     H43564   7.316   2.057   9.725  0.5375 -1.9204 -0.2115
  323MOL0     H43565   7.496   2.460   9.589  0.6645  3.5196  0.3917
  323MOL0     H43566   7.440   2.658   9.684  0.1708 -1.3767 -0.0579
  323MOL0     H43567   7.296   2.895  10.110  1.9800  0.6654  1.6565
  323MOL0     H43568   7.265   3.102  10.175 -2.1728  1.5316 -1.2264
  323MOL0     H43569   7.406   3.434   9.884 -0.2766 -0.0622 -1.5099
  323MOL0     H43570   7.380   3.511  10.046  0.7349 -0.6744  2.8488
  323MOL0     H43571   7.609   3.489  10.023 -0.6791  0.5467 -0.2567
  323MOL0     H43572   7.558   3.380  10.155  2.6662  1.6399 -0.1541
  323MOL0     H43573   7.618   3.185  10.032  3.8511 -0.0916  3.5940
  323MOL0     H43574   7.627   3.277   9.886  2.5873  1.7799 -0.3576
  323MOL0     H43575   7.809   3.313  10.130 -2.3047 -0.5593  0.3573
  323MOL0     H43576   7.834   3.397   9.971  0.1706  0.4214  1.5072
  323MOL0     H43577   7.872   3.181   9.864 -1.0235 -0.6121  0.2562
  323MOL0     H43578   7.881   3.100  10.026  0.8755 -0.5283  0.2829
  323MOL0     H43579   8.034   3.348   9.945 -1.0090  0.1430  0.0145
  323MOL0     H43580   8.072   3.253  10.088  1.1984  0.3513 -0.0116
  323MOL0     H43581   8.223   3.225   9.902 -0.4556  1.0962  2.3990
  323MOL0     H43582   8.102   3.152   9.797 -0.6436  1.9493  0.1272
  323MOL0     H43583   8.272   3.014   9.941  1.0425  3.2215  1.0120
  323MOL0     H43584   8.144   3.038  10.066 -1.7458  2.3542 -0.9061
  323MOL0     H43585   7.409   3.252   9.783 -4.1752  1.9500  1.0102
  323MOL0     H43586   7.400   3.035   9.698 -1.1245 -2.0009  0.1698
  323MOL0     H43587   7.233   2.441   9.990  4.1864 -0.1473  2.1442
  323MOL0     H43588   7.270   2.250   9.884 -1.0739 -0.0081 -1.1622
  323MOL0     H43589   6.367   1.450   8.290  1.3712  1.8580  0.7473
  323MOL0     H43590   6.425   1.581   8.106  1.1469  0.2581  2.0686
  323MOL0     H43591   6.585   1.434   7.576 -3.1202  2.2429 -1.0128
  323MOL0     H43592   6.650   1.556   7.376  4.3360  0.5525 -2.5604
  323MOL0     H43593   6.653   1.723   7.232 -0.4238 -1.6419  0.6397
  323MOL0     H43594   6.807   1.662   7.222 -0.6399  0.7690 -1.6848
  323MOL0     H43595   6.803   1.794   7.047  1.8127  0.3005 -1.2430
  323MOL0     H43596   6.884   1.904   7.171 -2.3398  0.6484  3.4716
  323MOL0     H43597   6.766   2.057   7.129 -1.8381  1.6393 -0.5418
  323MOL0     H43598   6.654   1.988   7.239  2.5695  1.2579 -0.1607
  323MOL0     H43599   6.620   1.985   6.933  3.2857 -1.9068  0.8312
  323MOL0     H43600   6.522   1.875   7.033  0.5344 -0.7752 -0.9970
  323MOL0     H43601   6.361   2.270   7.074  1.4338  1.0742 -0.8719
  323MOL0     H43602   6.869   1.825   7.609 -0.4743 -0.2356 -1.0284
  323MOL0     H43603   6.898   1.639   7.908 -0.8372 -0.4579 -0.3915
  323MOL0     H43604   6.903   1.806   7.840 -1.2416  0.1476 -4.3947
  323MOL0     H43605   6.758   1.744   7.927 -2.4556 -0.5248 -3.4824
  324MOL0     O43606   1.015   4.302   5.288 -0.3939 -0.0616  0.1423
  324MOL0     C43607   1.006   4.424   5.272  1.0521  0.2866 -0.4879
  324MOL0     O43608   1.065   4.490   5.172  0.4818 -0.7207 -0.1811
  324MOL0     C43609   1.141   4.425   5.079 -0.9525 -0.5187 -0.9451
  324MOL0     C43610   1.276   4.447   5.082  0.2450  0.8089 -0.4012
  324MOL0     C43611   1.357   4.405   4.974  0.3663 -0.5955  0.6079
  324MOL0     C43612   1.300   4.331   4.864  1.0014 -0.4522  0.0468
  324MOL0     O43613   1.374   4.291   4.755  0.2861 -0.1164  0.7431
  324MOL0     C43614   1.511   4.320   4.728  0.0072 -0.4183  0.2025
  324MOL0     C43615   1.551   4.276   4.583  0.3617  0.0420 -0.1743
  324MOL0     C43616   1.484   4.362   4.475  0.1732  1.3100  0.3868
  324MOL0     C43617   1.515   4.345   4.322 -0.3105 -0.1861  0.2700
  324MOL0     C43618   1.457   4.461   4.235  0.8436  0.0138 -0.0575
  324MOL0     C43619   1.506   4.448   4.091 -0.0607 -0.1221  0.1353
  324MOL0     C43620   1.418   4.519   3.997 -0.0710 -0.2983 -0.3175
  324MOL0     C43621   1.417   4.671   4.001  0.2566  0.4185 -0.4372
  324MOL0     N43622   1.535   4.748   3.963 -0.3298  1.0486  0.1813
  324MOL0     C43623   1.565   4.801   3.848 -0.2409 -0.0761 -1.1556
  324MOL0     C43624   1.690   4.852   3.857  0.1170 -0.8958  0.1183
  324MOL0     C43625   1.756   4.929   3.748 -0.3243 -0.8436  0.0147
  324MOL0     C43626   1.906   4.957   3.778 -0.9013 -0.3448 -0.5440
  324MOL0     C43627   1.977   5.003   3.645  0.8043  0.3650 -0.0380
  324MOL0     C43628   2.126   4.998   3.666  0.2998 -0.6738  0.6811
  324MOL0     O43629   2.186   5.064   3.552  0.0228 -0.0030 -0.6304
  324MOL0     C43630   2.321   5.069   3.550 -0.1766  0.2712  0.2859
  324MOL0     C43631   2.377   5.106   3.426 -0.4491 -0.3763 -0.2020
  324MOL0     C43632   2.512   5.085   3.399 -0.1375  0.2643 -0.7427
  324MOL0     C43633   2.598   5.040   3.502 -0.1646 -0.1134  0.2539
  324MOL0     C43634   2.744   5.031   3.480 -0.0267  0.1859  1.0756
  324MOL0     O43635   2.819   5.048   3.584 -0.4310 -0.2814 -0.3609
  324MOL0     C43636   2.952   5.036   3.587  0.7188  0.6925 -1.3107
  324MOL0     C43637   3.033   5.138   3.543  1.3191  0.7728  0.3035
  324MOL0     C43638   3.166   5.119   3.561 -0.3537  0.1310 -0.5023
  324MOL0     C43639   3.223   5.010   3.623  0.6226 -0.1081 -0.9057
  324MOL0     O43640   3.353   4.973   3.632 -0.9705  0.7147 -0.2239
  324MOL0     C43641   3.450   5.086   3.631 -0.1328  0.0717 -0.0039
  324MOL0     C43642   3.582   5.055   3.687  0.2054  0.1723 -0.0455
  324MOL0     C43643   3.690   5.158   3.647  0.4202 -0.6494  0.1139
  324MOL0     C43644   3.829   5.102   3.683 -0.1118 -0.0886 -0.0948
  324MOL0     C43645   3.944   5.211   3.685  0.3390  0.0569  0.7719
  324MOL0     C43646   4.040   5.180   3.574  0.5295 -0.1562  0.2294
  324MOL0     C43647   4.171   5.270   3.565 -0.0997 -0.2524  0.6808
  324MOL0     C43648   4.256   5.225   3.448 -0.3794  0.0449 -0.3080
  324MOL0    Cl43649   4.407   5.315   3.426 -0.4428  0.2739  0.1698
  324MOL0     C43650   3.144   4.901   3.654 -0.1733  0.6790  0.7536
  324MOL0     C43651   3.013   4.916   3.636  0.6194  0.1932 -0.5003
  324MOL0     O43652   2.787   5.006   3.371 -0.5327 -0.1193 -0.4770
  324MOL0     C43653   2.548   5.022   3.633  0.1502  0.5760  0.2544
  324MOL0     C43654   2.408   5.029   3.651  0.4437  0.6777 -0.2937
  324MOL0     N43655   1.732   4.849   3.988 -0.5711 -0.3206  0.2495
  324MOL0     N43656   1.637   4.776   4.049 -0.3603 -0.3909  0.0034
  324MOL0     C43657   1.161   4.314   4.867  0.0504 -0.9124 -0.4158
  324MOL0     C43658   1.085   4.353   4.975  0.0667 -0.8718  0.2328
  324MOL0     C43659   0.915   4.506   5.366 -0.1016  0.6956  1.0667
  324MOL0     C43660   0.920   4.642   5.356 -0.0286 -0.1599  0.2445
  324MOL0     C43661   0.835   4.722   5.432 -0.1529 -0.6370  0.9050
  324MOL0     C43662   0.766   4.669   5.540  0.0472 -0.3489 -0.8441
  324MOL0     O43663   0.688   4.749   5.622 -0.0679  0.0400  1.1287
  324MOL0     C43664   0.753   4.855   5.688  0.3213 -1.0647  0.4556
  324MOL0     C43665   0.812   4.797   5.814  0.4091 -0.3656 -0.0929
  324MOL0     C43666   0.847   4.916   5.905 -0.3009  1.2692  0.2509
  324MOL0     C43667   0.876   4.849   6.046  0.4634  0.8219 -0.7662
  324MOL0     C43668   0.893   4.958   6.138 -0.0840 -0.0092 -0.8323
  324MOL0     C43669   0.924   5.053   6.211  0.0725  0.0847 -0.2495
  324MOL0     C43670   0.770   4.526   5.555 -0.3717 -0.1208 -1.0016
  324MOL0     C43671   0.841   4.447   5.469  0.3599 -0.4279  0.3799
  324MOL0     C43672   0.832   4.294   5.494  0.1327  0.4506  0.5432
  324MOL0     H43673   1.321   4.497   5.167 -1.1249 -2.3515  2.3745
  324MOL0     H43674   1.463   4.425   4.976  0.6301 -1.4168 -2.0434
  324MOL0     H43675   1.524   4.429   4.739 -2.7013 -0.1356  1.4163
  324MOL0     H43676   1.574   4.277   4.806  3.0275 -0.0004 -1.8290
  324MOL0     H43677   1.518   4.173   4.565 -0.1870 -0.0236  1.1167
  324MOL0     H43678   1.659   4.266   4.565  0.0108  0.6229 -3.2357
  324MOL0     H43679   1.512   4.463   4.504  1.2013  0.4923  2.3935
  324MOL0     H43680   1.375   4.354   4.481  0.0061  1.2657 -1.8258
  324MOL0     H43681   1.622   4.337   4.304 -0.0298 -0.3693  1.8601
  324MOL0     H43682   1.473   4.252   4.282  2.9101 -3.0451  2.9200
  324MOL0     H43683   1.349   4.446   4.231  0.3851  0.5708  4.7382
  324MOL0     H43684   1.478   4.561   4.273 -0.8697  0.5458 -0.4051
  324MOL0     H43685   1.612   4.475   4.079 -0.6224  1.7606 -1.0205
  324MOL0     H43686   1.502   4.342   4.063 -0.5540  0.1393 -0.8255
  324MOL0     H43687   1.317   4.480   4.011 -0.2633  0.0114 -0.7992
  324MOL0     H43688   1.449   4.495   3.894 -0.9401  1.4666 -1.0373
  324MOL0     H43689   1.331   4.713   3.948  0.0878  0.5509 -0.0627
  324MOL0     H43690   1.407   4.693   4.108  0.0937  0.3439 -0.4363
  324MOL0     H43691   1.500   4.815   3.762 -1.9287  1.7125  0.3152
  324MOL0     H43692   1.746   4.878   3.652  3.1368 -0.2413 -0.7951
  324MOL0     H43693   1.701   5.021   3.725  1.7465  1.1652  2.4870
  324MOL0     H43694   1.895   5.045   3.843 -4.1739 -0.8229 -0.2967
  324MOL0     H43695   1.959   4.885   3.840  0.6789  1.3786  0.2133
  324MOL0     H43696   1.932   5.100   3.621 -0.3720 -0.4946 -1.4390
  324MOL0     H43697   1.943   4.931   3.570 -2.2137  0.8715  0.7232
  324MOL0     H43698   2.165   4.897   3.684 -3.5351 -2.2837  1.0636
  324MOL0     H43699   2.154   5.060   3.751  1.9418  0.3525 -0.5500
  324MOL0     H43700   2.304   5.128   3.349 -1.5825 -0.5920  0.7859
  324MOL0     H43701   2.556   5.097   3.301  1.1345  1.6946 -0.0397
  324MOL0     H43702   2.981   5.222   3.499 -1.8340 -2.1344 -2.0547
  324MOL0     H43703   3.241   5.189   3.524  1.2077 -2.0129 -1.6744
  324MOL0     H43704   3.464   5.120   3.528  4.0784 -2.7684 -0.6249
  324MOL0     H43705   3.413   5.171   3.689 -1.5711  1.0466 -2.2196
  324MOL0     H43706   3.561   5.054   3.795 -3.2710  2.9526 -0.4831
  324MOL0     H43707   3.625   4.960   3.655 -1.6147 -0.6132 -0.3027
  324MOL0     H43708   3.691   5.202   3.546  2.3599  1.2834  0.9067
  324MOL0     H43709   3.673   5.246   3.709  0.8057 -0.5266  0.0448
  324MOL0     H43710   3.842   5.031   3.601  0.8222  1.1725 -1.0896
  324MOL0     H43711   3.829   5.046   3.776 -0.0742  0.8775  0.5009
  324MOL0     H43712   3.994   5.199   3.782  3.3455 -1.3867 -0.8343
  324MOL0     H43713   3.910   5.314   3.672  1.1454  0.3392  0.8787
  324MOL0     H43714   4.077   5.078   3.583  0.5324 -0.1090  0.7784
  324MOL0     H43715   3.984   5.192   3.480  2.1191  2.2196 -0.5120
  324MOL0     H43716   4.224   5.254   3.659 -0.6144 -2.9498  0.5712
  324MOL0     H43717   4.140   5.372   3.539  0.1258 -0.0857  1.0579
  324MOL0     H43718   4.284   5.121   3.463  0.5040  0.2674 -0.3094
  324MOL0     H43719   4.193   5.232   3.359 -1.3041 -0.6697  0.2847
  324MOL0     H43720   3.188   4.808   3.690  1.3124  0.4319 -1.4959
  324MOL0     H43721   2.938   4.844   3.667  0.2459  1.0495  0.6416
  324MOL0     H43722   2.611   5.007   3.720  1.0778 -1.4008 -0.6944
  324MOL0     H43723   2.364   5.002   3.747 -2.5524 -0.9339 -1.9787
  324MOL0     H43724   1.120   4.260   4.782 -1.0935  2.5048 -2.1994
  324MOL0     H43725   0.978   4.337   4.983  0.1355 -0.9272  1.3037
  324MOL0     H43726   0.964   4.699   5.275 -1.5585 -0.7591 -1.0491
  324MOL0     H43727   0.850   4.827   5.406  3.2528 -0.7786  1.8009
  324MOL0     H43728   0.683   4.938   5.703  1.9019  0.5844 -0.8708
  324MOL0     H43729   0.835   4.901   5.631 -2.1248  4.5538  0.8310
  324MOL0     H43730   0.889   4.721   5.803 -0.5092 -2.1693  4.0345
  324MOL0     H43731   0.741   4.743   5.876  1.2636 -1.4919 -0.0717
  324MOL0     H43732   0.768   4.992   5.903 -1.4461  0.1133 -1.9274
  324MOL0     H43733   0.937   4.973   5.882  0.4523  0.1860  0.4497
  324MOL0     H43734   0.785   4.794   6.075  1.0592 -1.0893 -2.3157
  324MOL0     H43735   0.968   4.791   6.036  0.2188  0.5285 -1.3525
  324MOL0     H43736   0.963   5.129   6.275  1.9352  0.5495 -1.8437
  324MOL0     H43737   0.713   4.483   5.637 -0.0703 -0.4532 -0.9605
  324MOL0     H43738   0.917   4.232   5.525  0.9130  1.2233 -0.0056
  324MOL0     H43739   0.776   4.297   5.587 -1.1861  1.4751 -0.2569
  324MOL0     H43740   0.770   4.229   5.432 -1.5414  0.8186  1.7585
  325MOL0     O43741  10.391   2.052   1.671 -0.0362  0.3030 -0.0441
  325MOL0     C43742  10.468   1.994   1.595  0.9026  1.0967  0.4436
  325MOL0     O43743  10.432   1.920   1.487 -0.8479  0.5085 -0.3208
  325MOL0     C43744  10.300   1.893   1.472  0.8649  0.2020 -0.1140
  325MOL0     C43745  10.226   1.822   1.567 -0.8645  0.1528  0.0579
  325MOL0     C43746  10.094   1.778   1.536 -0.9750 -0.1425 -0.4484
  325MOL0     C43747  10.029   1.819   1.418 -0.0560 -0.9044  0.0508
  325MOL0     O43748   9.889   1.799   1.394  0.3982 -0.0757 -0.5644
  325MOL0     C43749   9.804   1.715   1.470 -0.1082  0.9028 -0.8708
  325MOL0     C43750   9.649   1.725   1.456  0.0460  0.4824 -1.0316
  325MOL0     C43751   9.607   1.698   1.317  0.0754  0.1008  0.5583
  325MOL0     C43752   9.455   1.692   1.299 -0.0542  0.5424 -0.2536
  325MOL0     C43753   9.414   1.679   1.156 -0.1443  0.6858  0.2007
  325MOL0     C43754   9.265   1.642   1.150  0.1629  0.9456 -1.1341
  325MOL0     C43755   9.223   1.617   1.008 -0.2433 -0.1707  0.0600
  325MOL0     C43756   9.080   1.667   0.970 -0.7699  0.0812 -1.0116
  325MOL0     N43757   8.968   1.586   1.022 -0.4215 -0.6338 -0.4380
  325MOL0     C43758   8.949   1.450   1.015 -1.7349 -0.3461  0.1211
  325MOL0     C43759   8.853   1.416   1.104 -0.1632  0.3368  0.4914
  325MOL0     C43760   8.789   1.287   1.116 -0.6832 -0.6767 -0.6309
  325MOL0     C43761   8.877   1.165   1.088 -0.2775  0.1568 -0.3532
  325MOL0     C43762   8.803   1.035   1.090 -0.1172  0.4662  0.9395
  325MOL0     C43763   8.744   0.974   0.955 -0.2869 -0.5781  0.1960
  325MOL0     O43764   8.722   0.833   0.969 -0.2207 -0.3479 -0.3431
  325MOL0     C43765   8.635   0.779   1.063 -0.6488  0.3996  0.1246
  325MOL0     C43766   8.625   0.648   1.070  0.0220 -0.1987 -0.6542
  325MOL0     C43767   8.549   0.580   1.164 -0.3016 -0.1817 -0.3574
  325MOL0     C43768   8.472   0.653   1.245 -0.0111 -0.3324 -0.4404
  325MOL0     C43769   8.392   0.581   1.342  0.8617 -0.6803 -0.6338
  325MOL0     O43770   8.340   0.667   1.440  0.0111  0.6301  0.0372
  325MOL0     C43771   8.257   0.604   1.515 -0.4714 -0.8263 -0.0781
  325MOL0     C43772   8.141   0.541   1.473  0.4290 -0.0451 -0.6117
  325MOL0     C43773   8.040   0.495   1.569  0.6848  0.4744 -0.4066
  325MOL0     C43774   8.065   0.509   1.706  0.3745  0.1541 -0.2503
  325MOL0     O43775   7.965   0.485   1.792  0.3907 -0.5452  0.3426
  325MOL0     C43776   7.968   0.537   1.927 -0.5611 -0.6794  1.0331
  325MOL0     C43777   7.832   0.504   2.005  0.1470  0.0220  0.7191
  325MOL0     C43778   7.706   0.498   1.921  0.4184 -0.4976 -0.3460
  325MOL0     C43779   7.578   0.478   2.007 -0.1056 -0.3380  0.2891
  325MOL0     C43780   7.467   0.436   1.907  0.3880 -0.7605  0.2539
  325MOL0     C43781   7.345   0.406   1.984  0.0049  0.9718  0.0965
  325MOL0     C43782   7.231   0.384   1.894 -0.1827  0.2184 -0.9319
  325MOL0     C43783   7.101   0.363   1.988  0.2380  0.4068  0.0343
  325MOL0    Cl43784   6.954   0.383   1.898 -0.0171  0.1545  0.5521
  325MOL0     C43785   8.187   0.563   1.750 -0.2069  0.5770  0.2595
  325MOL0     C43786   8.284   0.601   1.654 -0.4725  0.3098 -0.4303
  325MOL0     O43787   8.398   0.460   1.356 -0.4326  0.3634  1.1864
  325MOL0     C43788   8.467   0.790   1.232 -0.2571  0.5224 -0.6518
  325MOL0     C43789   8.556   0.856   1.146 -0.9340 -0.8518 -0.6710
  325MOL0     N43790   8.801   1.536   1.150 -0.2168  0.0550  0.3256
  325MOL0     N43791   8.869   1.635   1.103 -0.0084  0.4394 -0.2557
  325MOL0     C43792  10.100   1.902   1.329  0.4118 -0.2348 -0.8913
  325MOL0     C43793  10.234   1.918   1.350  0.2537  0.2413 -0.3062
  325MOL0     C43794  10.613   2.009   1.630  0.1728  0.5977 -0.4362
  325MOL0     C43795  10.634   2.011   1.771 -0.1368 -0.4666  0.0540
  325MOL0     C43796  10.758   2.022   1.821 -0.7632 -0.4494 -0.7797
  325MOL0     C43797  10.862   2.013   1.733 -0.5548  0.1729  0.6830
  325MOL0     O43798  10.988   1.986   1.768 -0.2152 -0.2665  0.9405
  325MOL0     C43799  10.999   1.863   1.843 -0.1831 -0.0751  0.0038
  325MOL0     C43800  11.120   1.777   1.810  0.2138 -0.0543  0.1614
  325MOL0     C43801  11.143   1.658   1.908  0.7784 -0.1425 -0.7570
  325MOL0     C43802  11.223   1.554   1.846 -0.2456 -0.0552  0.4466
  325MOL0     C43803  11.142   1.476   1.743 -0.7801  0.1465  0.9425
  325MOL0     C43804  11.076   1.394   1.678  0.9040 -0.3083  0.4916
  325MOL0     C43805  10.852   2.001   1.593 -0.3376  0.1434 -0.3120
  325MOL0     C43806  10.719   2.004   1.541 -0.4149 -0.7425 -0.4211
  325MOL0     C43807  10.697   1.998   1.386  0.5676  0.0808 -0.0609
  325MOL0     H43808  10.282   1.780   1.650  1.9382  1.6882 -0.9260
  325MOL0     H43809  10.035   1.721   1.607 -2.5492  0.8539 -0.9218
  325MOL0     H43810   9.832   1.612   1.447 -1.4770  0.1753  0.4838
  325MOL0     H43811   9.821   1.745   1.574 -1.1769  0.3986 -0.5355
  325MOL0     H43812   9.626   1.824   1.497  0.5697 -0.1234  0.8274
  325MOL0     H43813   9.603   1.654   1.526  0.1562 -0.3052 -1.7303
  325MOL0     H43814   9.646   1.599   1.295 -1.8885 -0.3284 -1.4008
  325MOL0     H43815   9.655   1.776   1.257 -2.2040 -0.2606 -1.9545
  325MOL0     H43816   9.426   1.611   1.366  1.5592 -0.2353 -0.4559
  325MOL0     H43817   9.413   1.785   1.340  1.4923  1.5727 -0.8968
  325MOL0     H43818   9.438   1.754   1.079 -0.6890 -2.7488 -3.7007
  325MOL0     H43819   9.464   1.590   1.119 -1.8494  0.5421 -2.0350
  325MOL0     H43820   9.245   1.553   1.211  1.5603  0.0118 -1.9783
  325MOL0     H43821   9.197   1.720   1.187 -0.6538  0.0403 -0.6841
  325MOL0     H43822   9.233   1.514   0.973 -1.6125  0.6191 -3.0657
  325MOL0     H43823   9.285   1.680   0.943 -2.8765  1.5130 -0.9883
  325MOL0     H43824   9.073   1.772   0.998  2.3498  0.4915 -1.4587
  325MOL0     H43825   9.076   1.661   0.861  0.2111  4.7711 -1.4934
  325MOL0     H43826   9.005   1.373   0.962  1.6915  1.9085  0.1681
  325MOL0     H43827   8.765   1.284   1.223  1.1217  1.9517 -0.0524
  325MOL0     H43828   8.697   1.282   1.057 -0.4130  0.4536 -1.1758
  325MOL0     H43829   8.920   1.177   0.989  2.0075 -0.5487  0.4901
  325MOL0     H43830   8.958   1.168   1.162 -1.3425 -0.0437  0.8510
  325MOL0     H43831   8.734   1.053   1.173  1.2136  1.1818  1.9465
  325MOL0     H43832   8.872   0.956   1.124 -0.5013  0.3646  1.4900
  325MOL0     H43833   8.822   0.995   0.881  1.9366  1.3241  2.8214
  325MOL0     H43834   8.651   1.025   0.929 -0.1245 -0.1631  0.4048
  325MOL0     H43835   8.684   0.592   0.998  0.8314 -1.9176  1.2608
  325MOL0     H43836   8.552   0.472   1.174  1.0950 -0.0509  0.9244
  325MOL0     H43837   8.118   0.556   1.368 -1.8074  0.7229 -0.0709
  325MOL0     H43838   7.944   0.445   1.555  0.3865 -1.1750  4.9444
  325MOL0     H43839   8.043   0.486   1.988 -0.7351 -2.4609 -0.1758
  325MOL0     H43840   7.982   0.645   1.930  0.2180 -0.8016  3.5081
  325MOL0     H43841   7.848   0.403   2.044  1.6633 -1.4628 -3.2960
  325MOL0     H43842   7.819   0.558   2.099  2.3696 -1.2307  1.8440
  325MOL0     H43843   7.702   0.591   1.864 -1.5063 -1.7277 -2.3699
  325MOL0     H43844   7.721   0.417   1.849  2.2241  0.2314 -0.8467
  325MOL0     H43845   7.548   0.565   2.067 -0.3776  0.6324 -1.2072
  325MOL0     H43846   7.590   0.392   2.072 -0.2117 -0.3280  0.3219
  325MOL0     H43847   7.493   0.349   1.846 -0.0883 -1.4263  0.9772
  325MOL0     H43848   7.450   0.514   1.832 -0.0724 -2.7348 -1.7729
  325MOL0     H43849   7.366   0.314   2.039 -0.1233  1.4982  1.0534
  325MOL0     H43850   7.331   0.492   2.050  3.0647  1.2241  0.5783
  325MOL0     H43851   7.246   0.283   1.856  0.5131 -0.0253 -0.0479
  325MOL0     H43852   7.216   0.457   1.814  3.0824  3.5154  1.1710
  325MOL0     H43853   7.107   0.271   2.047  0.4682  1.1262  1.1473
  325MOL0     H43854   7.106   0.438   2.067  1.9297 -0.8816  1.2304
  325MOL0     H43855   8.213   0.582   1.853  0.7184 -0.9872  0.3360
  325MOL0     H43856   8.375   0.650   1.687  0.1231 -0.7383 -0.4548
  325MOL0     H43857   8.410   0.855   1.297  1.6465 -0.5799  2.3634
  325MOL0     H43858   8.555   0.964   1.137  1.4008 -0.7121  0.1522
  325MOL0     H43859  10.060   1.939   1.235  2.0135  1.4370 -0.9687
  325MOL0     H43860  10.295   1.954   1.268 -1.1274  2.4839 -0.4303
  325MOL0     H43861  10.555   2.026   1.844  1.2912 -1.0006  1.7919
  325MOL0     H43862  10.774   2.021   1.929 -2.9348 -3.1971 -0.3536
  325MOL0     H43863  10.916   1.794   1.830  1.0679 -1.4098 -1.3230
  325MOL0     H43864  10.996   1.891   1.948 -2.1333  1.4451 -0.4040
  325MOL0     H43865  11.212   1.836   1.816 -0.3733  1.0019 -0.7877
  325MOL0     H43866  11.104   1.737   1.709 -1.6634 -0.0367  0.4125
  325MOL0     H43867  11.049   1.620   1.950  0.6145  1.4829  0.4731
  325MOL0     H43868  11.195   1.702   1.993  0.6529  2.8836 -2.1292
  325MOL0     H43869  11.310   1.591   1.792  0.0062 -0.6367  0.4562
  325MOL0     H43870  11.264   1.492   1.927  2.0580  0.3818 -0.3247
  325MOL0     H43871  11.017   1.325   1.621 -3.6688  3.2526  0.2972
  325MOL0     H43872  10.935   1.984   1.527 -0.5921 -0.7448 -0.4078
  325MOL0     H43873  10.791   2.039   1.348  1.8101  0.1805  2.8528
  325MOL0     H43874  10.671   1.895   1.358 -1.1303  0.3175  0.5231
  325MOL0     H43875  10.605   2.054   1.366 -1.6819 -2.2818  2.7465
  326MOL0     O43876   3.736   1.442   1.392  1.0679  0.1665  0.0333
  326MOL0     C43877   3.843   1.409   1.352 -0.0897  0.7277 -0.4929
  326MOL0     O43878   3.926   1.493   1.289 -0.0707 -0.1882 -0.0580
  326MOL0     C43879   3.892   1.624   1.250  0.5380  0.1286  0.7316
  326MOL0     C43880   3.873   1.724   1.343  0.6574  0.1143  0.1573
  326MOL0     C43881   3.830   1.849   1.303  1.0365 -0.3459  0.5934
  326MOL0     C43882   3.805   1.868   1.166  0.2197  0.0733  0.0442
  326MOL0     O43883   3.762   1.991   1.115 -0.2251  0.1684  0.7112
  326MOL0     C43884   3.702   2.097   1.201 -0.0290 -0.7237 -0.5640
  326MOL0     C43885   3.639   2.203   1.106 -0.1177  0.0862 -0.0743
  326MOL0     C43886   3.746   2.312   1.076 -0.1395 -0.4100  0.7007
  326MOL0     C43887   3.841   2.272   0.962 -0.3241 -0.2395  0.1685
  326MOL0     C43888   3.921   2.391   0.904  0.4140 -0.6895  0.0742
  326MOL0     C43889   3.992   2.481   1.016  0.0663  0.4462  0.0770
  326MOL0     C43890   4.099   2.584   0.959  0.3664  0.5175  0.3325
  326MOL0     C43891   4.180   2.655   1.062  0.3034  0.1159 -0.8888
  326MOL0     N43892   4.102   2.694   1.179  0.8334 -0.8543  0.6302
  326MOL0     C43893   4.067   2.614   1.289  0.7523 -0.5494  0.3447
  326MOL0     C43894   4.005   2.701   1.370  0.6040 -0.3649 -1.0061
  326MOL0     C43895   3.938   2.669   1.498  0.2387 -0.5203  0.5788
  326MOL0     C43896   3.897   2.523   1.513  0.2259 -0.1455  0.9395
  326MOL0     C43897   3.785   2.478   1.414  1.2763  0.2179 -0.2268
  326MOL0     C43898   3.645   2.554   1.443  0.4089 -0.8970 -0.4390
  326MOL0     O43899   3.540   2.480   1.372 -0.3219 -0.5593 -0.0013
  326MOL0     C43900   3.411   2.518   1.400 -0.4280 -0.4259  0.1797
  326MOL0     C43901   3.376   2.626   1.478 -0.3040  0.1810  0.0420
  326MOL0     C43902   3.246   2.665   1.492  0.1316  0.2571 -0.8431
  326MOL0     C43903   3.143   2.585   1.443  0.5915  0.1551  0.6587
  326MOL0     C43904   3.001   2.593   1.480 -0.3425 -0.1411  0.1353
  326MOL0     O43905   2.915   2.536   1.397  0.8685 -0.0569 -0.0213
  326MOL0     C43906   2.797   2.500   1.459  0.0517  0.0631 -0.4828
  326MOL0     C43907   2.787   2.381   1.537  0.4745 -0.6349 -0.4635
  326MOL0     C43908   2.661   2.330   1.574 -0.4554 -0.1075  0.1757
  326MOL0     C43909   2.543   2.399   1.542  0.0283 -0.0796  0.0390
  326MOL0     O43910   2.414   2.363   1.583  0.0676  0.8660 -0.0061
  326MOL0     C43911   2.328   2.454   1.656 -0.1685 -0.3142  0.2230
  326MOL0     C43912   2.236   2.367   1.754  0.7308 -0.5054 -0.8348
  326MOL0     C43913   2.090   2.358   1.707  0.0935  0.2257  0.5173
  326MOL0     C43914   1.996   2.343   1.827  1.1389 -0.4626 -0.1569
  326MOL0     C43915   1.865   2.289   1.787 -0.5600  0.2805  1.0081
  326MOL0     C43916   1.774   2.388   1.712  0.6591 -0.6914 -0.2393
  326MOL0     C43917   1.664   2.306   1.647  0.9113 -0.0506 -0.7218
  326MOL0     C43918   1.585   2.401   1.555  0.5746 -0.1635 -0.1331
  326MOL0    Cl43919   1.692   2.433   1.399 -0.2781 -0.5634 -0.1624
  326MOL0     C43920   2.554   2.518   1.476 -0.2490  0.0811 -0.2360
  326MOL0     C43921   2.681   2.575   1.437 -0.2616 -0.1453  0.0918
  326MOL0     O43922   2.976   2.668   1.572 -0.0998  0.7538 -0.6815
  326MOL0     C43923   3.184   2.489   1.350 -0.3065 -0.0482  0.0349
  326MOL0     C43924   3.315   2.456   1.329  0.7965  0.6139 -0.1275
  326MOL0     N43925   3.993   2.816   1.303  0.1943 -0.0054 -0.2125
  326MOL0     N43926   4.060   2.817   1.197 -0.1513  0.1185  0.9413
  326MOL0     C43927   3.827   1.767   1.068  0.0115 -0.0031 -0.7283
  326MOL0     C43928   3.872   1.642   1.105  0.9460 -0.0847 -0.6075
  326MOL0     C43929   3.887   1.275   1.365 -0.6911  0.2582  0.2093
  326MOL0     C43930   3.982   1.230   1.269 -0.1237  0.0987 -0.0767
  326MOL0     C43931   4.001   1.094   1.240  0.0377  0.4310 -0.1473
  326MOL0     C43932   3.937   1.000   1.324  0.4349  1.1511  0.6084
  326MOL0     O43933   3.947   0.862   1.304  0.2553  0.3235  0.4200
  326MOL0     C43934   3.956   0.836   1.166  0.4837 -0.0356  0.4886
  326MOL0     C43935   3.894   0.697   1.146 -0.7324  0.6879 -0.5434
  326MOL0     C43936   3.767   0.674   1.232 -0.0013 -0.5541  0.2387
  326MOL0     C43937   3.691   0.538   1.185 -0.9596  0.4661 -0.8289
  326MOL0     C43938   3.643   0.454   1.295  0.4865  0.0318  0.5353
  326MOL0     C43939   3.615   0.366   1.372 -0.0390 -0.5968  0.6696
  326MOL0     C43940   3.869   1.047   1.436 -0.0406  0.0014 -0.0364
  326MOL0     C43941   3.838   1.182   1.457 -0.0005 -1.0952  0.5554
  326MOL0     C43942   3.736   1.204   1.570 -0.3407  0.5467 -0.7913
  326MOL0     H43943   3.885   1.701   1.448  0.1065  1.2784  0.5019
  326MOL0     H43944   3.825   1.934   1.370  0.6514  0.0334  0.0905
  326MOL0     H43945   3.623   2.059   1.266 -1.6202  1.4267 -1.1295
  326MOL0     H43946   3.783   2.145   1.257 -0.2867 -3.1945  2.1626
  326MOL0     H43947   3.555   2.246   1.161  0.8787 -0.3602  1.9213
  326MOL0     H43948   3.609   2.170   1.006 -1.1817  0.5417  0.0772
  326MOL0     H43949   3.787   2.349   1.170 -2.1833  0.2653  1.3948
  326MOL0     H43950   3.683   2.390   1.032  2.3153  1.1346 -0.2279
  326MOL0     H43951   3.917   2.198   0.989 -0.8561 -0.2693  1.6781
  326MOL0     H43952   3.777   2.227   0.886 -1.6686  0.1693  1.0156
  326MOL0     H43953   3.999   2.350   0.839  1.7840 -0.3394  1.4353
  326MOL0     H43954   3.852   2.451   0.844 -1.1080 -0.8638  1.5546
  326MOL0     H43955   3.916   2.539   1.069 -0.8006  0.1575 -0.8140
  326MOL0     H43956   4.029   2.415   1.095 -0.1108  2.6039  2.0687
  326MOL0     H43957   4.047   2.660   0.900  0.4997  0.5000  0.1921
  326MOL0     H43958   4.171   2.540   0.889 -1.7688  0.9503 -2.3445
  326MOL0     H43959   4.269   2.593   1.077  0.6281  0.9219  0.6673
  326MOL0     H43960   4.216   2.749   1.020 -2.7637  3.0067  2.2457
  326MOL0     H43961   4.064   2.506   1.302  0.6298 -0.3422  2.3772
  326MOL0     H43962   4.008   2.692   1.578 -0.7144 -1.2813  1.6638
  326MOL0     H43963   3.854   2.739   1.505  1.0697  0.3701  1.9406
  326MOL0     H43964   3.982   2.456   1.499 -0.1889 -0.3702 -0.6232
  326MOL0     H43965   3.865   2.517   1.618  2.7831 -0.7686  1.7546
  326MOL0     H43966   3.778   2.370   1.399  1.2918 -0.3563  3.0512
  326MOL0     H43967   3.819   2.519   1.319 -2.2353 -0.0437 -1.7718
  326MOL0     H43968   3.652   2.657   1.407 -0.5263  0.5090  3.0516
  326MOL0     H43969   3.633   2.550   1.551  1.6699 -0.2744 -0.2597
  326MOL0     H43970   3.448   2.689   1.528  2.0195 -3.0323  1.0399
  326MOL0     H43971   3.223   2.755   1.548 -1.4460 -1.1885  0.9647
  326MOL0     H43972   2.873   2.319   1.563  1.5454  0.9228 -0.1652
  326MOL0     H43973   2.652   2.239   1.633  0.6176  1.0149  2.1993
  326MOL0     H43974   2.380   2.524   1.722 -0.8717  0.5833 -0.1501
  326MOL0     H43975   2.274   2.516   1.583  2.2860  2.7096  0.7232
  326MOL0     H43976   2.287   2.270   1.759  2.5387  0.3369 -1.8003
  326MOL0     H43977   2.232   2.406   1.857  1.3205 -0.1522 -0.9360
  326MOL0     H43978   2.072   2.447   1.646  2.7984 -1.0595 -2.4535
  326MOL0     H43979   2.079   2.267   1.648  4.6931 -1.9820  2.5910
  326MOL0     H43980   1.987   2.441   1.876  1.4240 -1.0527  1.1201
  326MOL0     H43981   2.033   2.285   1.912 -0.9795  2.5484  3.0891
  326MOL0     H43982   1.820   2.271   1.885 -0.7212 -1.2373  0.6807
  326MOL0     H43983   1.880   2.191   1.742 -0.8773  0.9695 -0.6900
  326MOL0     H43984   1.723   2.461   1.776  0.3427  0.0822 -1.3300
  326MOL0     H43985   1.838   2.439   1.639 -0.1785  1.7864  0.6561
  326MOL0     H43986   1.594   2.269   1.722  0.0229  0.8152 -1.0997
  326MOL0     H43987   1.712   2.233   1.581  0.2665 -2.1363  1.0036
  326MOL0     H43988   1.493   2.346   1.534 -0.4525  0.6452  2.0091
  326MOL0     H43989   1.556   2.495   1.603  0.3294  2.0107 -4.0757
  326MOL0     H43990   2.468   2.579   1.449  0.4572  1.6299  0.8996
  326MOL0     H43991   2.684   2.669   1.384  5.2735  0.5399  1.0549
  326MOL0     H43992   3.113   2.421   1.303  2.4328 -3.1370  0.0233
  326MOL0     H43993   3.363   2.374   1.277 -1.6724 -1.4411  0.6102
  326MOL0     H43994   3.812   1.799   0.965 -1.7843 -0.4423 -0.6443
  326MOL0     H43995   3.897   1.563   1.035  1.4771 -2.7690  2.3889
  326MOL0     H43996   4.043   1.305   1.219 -2.8307  1.4392 -1.5935
  326MOL0     H43997   4.071   1.068   1.162  1.3215 -1.3431  1.5264
  326MOL0     H43998   4.058   0.836   1.129 -0.2560  1.4237 -1.7770
  326MOL0     H43999   3.886   0.900   1.111 -1.3522 -2.2007  0.1072
  326MOL0     H44000   3.954   0.609   1.167 -0.9369  0.9269  1.2387
  326MOL0     H44001   3.872   0.693   1.039  0.2919 -0.0894 -0.7382
  326MOL0     H44002   3.694   0.753   1.213  0.9809  0.4488  0.5601
  326MOL0     H44003   3.781   0.671   1.340 -0.8067 -0.9500  0.3395
  326MOL0     H44004   3.607   0.570   1.123 -1.2453 -1.2635 -1.3808
  326MOL0     H44005   3.753   0.476   1.120 -1.3356 -2.6670  1.5281
  326MOL0     H44006   3.581   0.283   1.430 -1.9401 -0.7479 -0.5888
  326MOL0     H44007   3.827   0.974   1.504 -0.6974  0.4304  0.0204
  326MOL0     H44008   3.772   1.289   1.629 -1.2569  1.2696 -1.2446
  326MOL0     H44009   3.633   1.230   1.544 -1.4690  0.7142  3.1814
  326MOL0     H44010   3.739   1.119   1.639 -0.7819 -0.6411 -2.1692
  327MOL0     O44011   6.528   6.234   7.066  0.1853 -0.4388  1.1506
  327MOL0     C44012   6.543   6.170   7.171 -0.1519 -0.5107  0.5939
  327MOL0     O44013   6.623   6.212   7.276 -0.1940  0.6590  0.0116
  327MOL0     C44014   6.664   6.343   7.300 -0.2685  0.7860  0.2067
  327MOL0     C44015   6.604   6.467   7.266  0.1462  0.4274  0.6782
  327MOL0     C44016   6.666   6.593   7.287  0.4275 -0.7282 -0.0033
  327MOL0     C44017   6.790   6.613   7.350 -0.6341 -0.5934  0.8864
  327MOL0     O44018   6.853   6.730   7.385 -0.5213 -0.1454  0.7876
  327MOL0     C44019   6.789   6.854   7.360 -0.4606  0.2775 -0.1733
  327MOL0     C44020   6.884   6.965   7.409  0.5475  0.0189 -0.3233
  327MOL0     C44021   6.903   6.955   7.562  0.3315 -0.7754  0.8245
  327MOL0     C44022   7.013   7.047   7.615  0.0412  0.6287  0.1777
  327MOL0     C44023   7.037   7.019   7.763  0.8282  0.0008  0.8893
  327MOL0     C44024   7.151   7.114   7.813  0.7573 -0.0587  0.3239
  327MOL0     C44025   7.166   7.110   7.958  0.5039  0.4278 -0.5856
  327MOL0     C44026   7.031   7.149   8.032  0.0402  1.0195  0.3964
  327MOL0     N44027   7.064   7.210   8.161 -0.0353  0.6678 -0.3618
  327MOL0     C44028   7.060   7.342   8.178  0.5074  0.4671  0.4971
  327MOL0     C44029   7.058   7.350   8.307  0.4638  0.5037 -0.4438
  327MOL0     C44030   7.079   7.471   8.386  0.7856  0.1325  0.2713
  327MOL0     C44031   7.112   7.460   8.537 -0.1353 -0.0476 -0.0056
  327MOL0     C44032   7.145   7.597   8.603  0.3512  1.2175  0.6153
  327MOL0     C44033   7.036   7.689   8.632  1.9031 -0.5409 -0.4110
  327MOL0     O44034   7.074   7.813   8.687  0.5393  0.3513 -0.1832
  327MOL0     C44035   7.111   7.824   8.821 -0.8374 -0.2038  0.0080
  327MOL0     C44036   7.179   7.934   8.848  0.1454 -0.2149 -0.3764
  327MOL0     C44037   7.249   7.944   8.971  0.2470  0.3699 -0.4575
  327MOL0     C44038   7.244   7.845   9.066 -0.2235  0.6634  1.7525
  327MOL0     C44039   7.338   7.834   9.173 -0.7552 -0.1263 -0.7450
  327MOL0     O44040   7.464   7.873   9.157  0.5401  0.0076  0.3706
  327MOL0     C44041   7.559   7.838   9.243 -0.4320 -0.3903  0.3463
  327MOL0     C44042   7.575   7.703   9.284 -0.3207  0.8036 -0.4948
  327MOL0     C44043   7.681   7.685   9.368 -0.5595  0.2806 -0.6772
  327MOL0     C44044   7.769   7.786   9.412 -0.4252  0.1013 -0.2024
  327MOL0     O44045   7.876   7.755   9.494 -0.5877  0.6527 -0.3181
  327MOL0     C44046   7.935   7.625   9.484  0.5123  0.0765 -0.8637
  327MOL0     C44047   8.080   7.621   9.533  0.4264  0.2457 -0.6604
  327MOL0     C44048   8.131   7.489   9.476  0.6384  0.8951  0.2271
  327MOL0     C44049   8.229   7.412   9.565 -0.1288  0.1016 -0.0592
  327MOL0     C44050   8.253   7.268   9.511 -0.1351 -0.1423  1.0162
  327MOL0     C44051   8.351   7.186   9.588  0.4794  0.3106  0.0085
  327MOL0     C44052   8.389   7.042   9.551  0.2739 -0.1882  0.4649
  327MOL0     C44053   8.260   6.957   9.527 -1.1888 -0.2104 -0.3451
  327MOL0    Cl44054   8.193   6.893   9.678 -0.1472  0.3093  0.3814
  327MOL0     C44055   7.753   7.919   9.365 -0.3043  0.3994 -0.3111
  327MOL0     C44056   7.648   7.947   9.273 -0.5253 -1.0908  0.2944
  327MOL0     O44057   7.291   7.789   9.275 -0.3471  0.1661 -0.7477
  327MOL0     C44058   7.158   7.737   9.035 -0.2936 -0.3207  0.4243
  327MOL0     C44059   7.090   7.720   8.911 -0.0399  0.1134  0.3437
  327MOL0     N44060   7.060   7.227   8.368 -0.3718 -0.3313 -0.1008
  327MOL0     N44061   7.053   7.141   8.277  0.0262 -0.5978  0.5554
  327MOL0     C44062   6.858   6.492   7.376  0.3825  0.2012  0.1919
  327MOL0     C44063   6.789   6.362   7.353 -0.2973 -0.9562  0.1937
  327MOL0     C44064   6.488   6.022   7.160 -0.1727 -0.8708  1.4682
  327MOL0     C44065   6.534   5.943   7.263  0.0959  0.5202 -0.5350
  327MOL0     C44066   6.475   5.817   7.292 -0.0933 -0.1924  0.5048
  327MOL0     C44067   6.388   5.761   7.196  0.3628  0.2259  0.4526
  327MOL0     O44068   6.331   5.637   7.219  0.0172 -0.0697  0.1689
  327MOL0     C44069   6.226   5.585   7.139 -0.2204 -0.2129 -0.8605
  327MOL0     C44070   6.183   5.447   7.199 -0.2939 -0.7460  0.4834
  327MOL0     C44071   6.075   5.367   7.126 -0.6990 -0.3956  0.7874
  327MOL0     C44072   5.979   5.452   7.048  0.8404  0.2378  0.0790
  327MOL0     C44073   5.852   5.373   7.009  0.0908 -0.2184 -0.2964
  327MOL0     C44074   5.759   5.300   6.991  0.2435 -0.5356 -0.4516
  327MOL0     C44075   6.363   5.830   7.073  0.8015  0.6653  0.6872
  327MOL0     C44076   6.410   5.956   7.048  0.2037 -0.2533  0.2890
  327MOL0     C44077   6.385   6.022   6.916 -0.0041 -0.3536 -0.0043
  327MOL0     H44078   6.506   6.463   7.221  1.2507  3.0363 -2.3467
  327MOL0     H44079   6.613   6.684   7.263 -3.1889 -2.4242  0.9378
  327MOL0     H44080   6.763   6.860   7.253  1.1728  2.5507 -0.5403
  327MOL0     H44081   6.695   6.850   7.415  0.4608 -1.7555  1.3528
  327MOL0     H44082   6.830   7.057   7.382  0.9039  0.3650  0.1217
  327MOL0     H44083   6.982   6.965   7.361  1.0859  1.3831  0.7112
  327MOL0     H44084   6.911   6.850   7.591 -0.5505 -1.1832 -0.3294
  327MOL0     H44085   6.809   6.992   7.604 -0.4971  0.6459 -2.0116
  327MOL0     H44086   7.107   7.050   7.559 -0.1620  2.4898 -0.0910
  327MOL0     H44087   6.976   7.149   7.609 -0.1613  0.4715 -2.6502
  327MOL0     H44088   6.936   7.013   7.805 -1.5737 -4.3395 -4.2004
  327MOL0     H44089   7.077   6.918   7.772  3.1847  0.4415 -2.7771
  327MOL0     H44090   7.244   7.079   7.767  1.5435 -0.7535  2.3278
  327MOL0     H44091   7.129   7.215   7.777 -2.6046 -0.1551  1.7386
  327MOL0     H44092   7.253   7.174   7.975  0.3890  0.0513  1.7442
  327MOL0     H44093   7.197   7.008   7.985  1.3969 -0.0821 -3.2166
  327MOL0     H44094   6.992   7.222   7.960  2.2906  2.0950  0.1797
  327MOL0     H44095   6.973   7.057   8.029  4.5554 -2.2077 -3.4271
  327MOL0     H44096   7.059   7.422   8.105 -2.4976 -0.0080 -0.0894
  327MOL0     H44097   7.175   7.510   8.351  1.8585 -4.1528 -2.2185
  327MOL0     H44098   6.998   7.537   8.354 -1.1894 -3.8437 -4.1572
  327MOL0     H44099   7.034   7.412   8.597  2.2681 -2.7732  1.1879
  327MOL0     H44100   7.205   7.401   8.542 -0.1556 -0.5124 -3.2205
  327MOL0     H44101   7.222   7.638   8.536  0.9070  0.5558  0.8465
  327MOL0     H44102   7.183   7.568   8.701 -1.8467 -1.9707  0.6977
  327MOL0     H44103   6.962   7.648   8.701  0.4379  3.8556  0.9955
  327MOL0     H44104   6.971   7.702   8.545 -4.0686 -1.4823  3.3890
  327MOL0     H44105   7.192   8.010   8.771  0.3003 -2.6527 -2.9408
  327MOL0     H44106   7.309   8.032   8.995  0.1036  0.4854 -0.5160
  327MOL0     H44107   7.515   7.617   9.255  0.6625  0.6578 -2.2444
  327MOL0     H44108   7.685   7.594   9.427  2.0766  2.8925  3.6802
  327MOL0     H44109   7.876   7.549   9.535 -3.5260  2.4621 -1.4963
  327MOL0     H44110   7.929   7.592   9.380 -2.6717 -2.6618  0.0361
  327MOL0     H44111   8.138   7.708   9.501 -1.3533  1.1054 -1.7741
  327MOL0     H44112   8.077   7.617   9.642 -0.5283  1.2116 -0.6283
  327MOL0     H44113   8.044   7.424   9.474 -0.1874  1.8831  1.7673
  327MOL0     H44114   8.165   7.519   9.377 -4.2104  1.9583 -1.3429
  327MOL0     H44115   8.175   7.411   9.660  1.1706  0.4620  0.6982
  327MOL0     H44116   8.321   7.470   9.557 -1.2498  1.7385 -2.0150
  327MOL0     H44117   8.300   7.276   9.412 -2.5889 -2.4062 -0.4597
  327MOL0     H44118   8.155   7.220   9.506 -0.3042  0.3446 -0.8567
  327MOL0     H44119   8.444   7.243   9.594  2.5236 -2.5671 -1.6277
  327MOL0     H44120   8.298   7.185   9.684  2.3946 -2.3590  1.1754
  327MOL0     H44121   8.438   6.979   9.626  1.8653 -0.7462 -0.9671
  327MOL0     H44122   8.453   7.034   9.462  1.0442  1.5145  0.8260
  327MOL0     H44123   8.174   7.002   9.475 -0.0372 -1.1292 -3.2020
  327MOL0     H44124   8.283   6.868   9.468  1.6060 -0.1200  0.4932
  327MOL0     H44125   7.832   7.990   9.388  2.0351 -2.0016 -0.3480
  327MOL0     H44126   7.619   8.050   9.253  1.3557 -0.3884  0.9790
  327MOL0     H44127   7.142   7.658   9.108  0.1266 -1.2124 -0.4287
  327MOL0     H44128   7.047   7.622   8.895 -1.5969  0.3788  2.3898
  327MOL0     H44129   6.958   6.483   7.419  1.1398  0.9307 -1.3540
  327MOL0     H44130   6.836   6.270   7.385  1.1277 -0.8586 -1.4775
  327MOL0     H44131   6.599   5.982   7.340  2.3766 -0.0391 -2.1039
  327MOL0     H44132   6.491   5.758   7.382 -2.5703 -2.7138 -0.5485
  327MOL0     H44133   6.253   5.585   7.033 -0.2515 -3.3649 -0.9737
  327MOL0     H44134   6.139   5.651   7.142  1.1130  1.5893 -0.3326
  327MOL0     H44135   6.158   5.460   7.305 -3.8029 -0.6169 -0.2155
  327MOL0     H44136   6.269   5.381   7.187  0.3657  0.3816 -1.2906
  327MOL0     H44137   6.019   5.299   7.192 -0.1719  0.2307  1.9109
  327MOL0     H44138   6.136   5.311   7.054  0.0179  1.3432 -0.0031
  327MOL0     H44139   5.945   5.541   7.102 -0.6028  0.1429 -0.6183
  327MOL0     H44140   6.020   5.495   6.956 -2.4426  1.8269 -0.8020
  327MOL0     H44141   5.669   5.249   6.964  1.0596 -2.3491  0.1256
  327MOL0     H44142   6.296   5.806   6.991  2.3660  2.4052 -1.1771
  327MOL0     H44143   6.360   5.942   6.846  1.9317 -3.7560  2.8681
  327MOL0     H44144   6.313   6.105   6.923  1.4023  1.1642 -2.2665
  327MOL0     H44145   6.476   6.073   6.883 -1.0997  0.8458 -1.3712
  328MOL0     O44146   9.893   8.700   6.619  0.6863  0.5900 -0.1676
  328MOL0     C44147   9.806   8.706   6.702 -0.0450 -0.1622  0.1056
  328MOL0     O44148   9.745   8.818   6.745  0.1212 -0.5748 -0.0200
  328MOL0     C44149   9.790   8.936   6.678  0.3886 -0.6434 -0.0702
  328MOL0     C44150   9.689   9.017   6.610 -0.4466  0.0855 -0.4601
  328MOL0     C44151   9.718   9.136   6.536  0.1442  0.0086  0.0481
  328MOL0     C44152   9.853   9.178   6.544  0.0866  0.0741  0.5930
  328MOL0     O44153   9.905   9.282   6.473  0.5563 -0.0825  0.1536
  328MOL0     C44154   9.800   9.387   6.436 -0.5491  0.6887  0.3917
  328MOL0     C44155   9.850   9.519   6.388 -0.5471  0.5255 -0.0086
  328MOL0     C44156   9.940   9.583   6.487  0.3407  0.2734 -0.6362
  328MOL0     C44157   9.973   9.726   6.445 -0.4994 -0.3002 -0.1636
  328MOL0     C44158  10.117   9.752   6.486 -0.5274  0.1687  0.5612
  328MOL0     C44159  10.153   9.891   6.432 -0.8052  0.1440 -0.4019
  328MOL0     C44160  10.289   9.928   6.491 -0.7332  0.4775 -0.8191
  328MOL0     C44161  10.355  10.047   6.427  0.0740 -0.1309  0.1220
  328MOL0     N44162  10.467  10.093   6.507 -0.2231 -0.1392 -0.5960
  328MOL0     C44163  10.595  10.093   6.469  1.1612 -1.4306 -0.5655
  328MOL0     C44164  10.655  10.183   6.551  0.8284 -0.8632 -0.2581
  328MOL0     C44165  10.797  10.228   6.544 -0.0551 -0.1677 -0.8372
  328MOL0     C44166  10.802  10.355   6.466 -0.2433 -0.6130  0.7717
  328MOL0     C44167  10.746  10.481   6.548  0.6993  0.6518  0.8605
  328MOL0     C44168  10.836  10.546   6.648  0.3172 -0.6008  0.7600
  328MOL0     O44169  10.961  10.571   6.593  0.3275  0.1438  0.2954
  328MOL0     C44170  10.976  10.669   6.496  0.1861 -1.0976 -0.4037
  328MOL0     C44171  11.106  10.675   6.453  0.4089  0.2415  0.7429
  328MOL0     C44172  11.135  10.771   6.354 -0.1367 -0.7360 -0.0608
  328MOL0     C44173  11.032  10.857   6.296 -0.3474  0.9963  0.2526
  328MOL0     C44174  11.065  10.950   6.183  0.4855 -0.3322 -0.0011
  328MOL0     O44175  11.199  10.965   6.163  0.1807  0.7208  0.2960
  328MOL0     C44176  11.254  11.064   6.083 -0.0675  0.6522 -0.6679
  328MOL0     C44177  11.358  11.040   5.990 -0.4834  0.7905 -0.0585
  328MOL0     C44178  11.436  11.136   5.926 -0.9071 -0.7085  0.0855
  328MOL0     C44179  11.408  11.271   5.943 -0.4240  1.2163  0.4100
  328MOL0     O44180  11.476  11.370   5.884 -0.4575 -0.1962 -1.0161
  328MOL0     C44181  11.598  11.329   5.823 -0.0717  0.1811  0.7136
  328MOL0     C44182  11.681  11.450   5.765  0.5391 -0.3780  0.2121
  328MOL0     C44183  11.611  11.555   5.676  0.6440  0.6236 -0.0009
  328MOL0     C44184  11.725  11.644   5.612 -0.3069 -0.5379  0.4392
  328MOL0     C44185  11.652  11.738   5.515 -0.7649  0.1578 -0.0278
  328MOL0     C44186  11.549  11.836   5.558 -0.6050 -0.4077 -0.4497
  328MOL0     C44187  11.507  11.930   5.439  0.0360  0.5347 -0.4030
  328MOL0     C44188  11.379  12.007   5.465  0.8039 -0.0761 -0.2549
  328MOL0    Cl44189  11.284  12.033   5.324 -0.3554 -0.2713  0.1695
  328MOL0     C44190  11.307  11.303   6.037  0.1348 -0.3669 -0.5819
  328MOL0     C44191  11.226  11.203   6.107 -0.3316  0.0678  0.5188
  328MOL0     O44192  10.978  11.025   6.135 -0.6429 -0.0926  0.3347
  328MOL0     C44193  10.910  10.845   6.344  0.0171 -0.0679  0.4045
  328MOL0     C44194  10.874  10.754   6.445  0.1696 -0.6941 -0.2648
  328MOL0     N44195  10.560  10.235   6.643  0.9065 -0.1912  0.0820
  328MOL0     N44196  10.448  10.182   6.600 -0.2945  0.0625 -0.8674
  328MOL0     C44197   9.952   9.104   6.610  0.2550  1.4710 -0.6649
  328MOL0     C44198   9.919   8.986   6.681 -0.4848 -0.3613 -0.2074
  328MOL0     C44199   9.754   8.574   6.750  0.6309  0.2074 -0.1753
  328MOL0     C44200   9.667   8.579   6.866 -0.4309  0.6014 -0.2180
  328MOL0     C44201   9.640   8.464   6.940  0.7709  0.0799 -0.5581
  328MOL0     C44202   9.697   8.339   6.908  0.5991  0.5981 -0.7101
  328MOL0     O44203   9.671   8.218   6.964  0.2318  0.3683  0.8754
  328MOL0     C44204   9.694   8.217   7.107  0.1466 -0.2152 -0.4244
  328MOL0     C44205   9.672   8.075   7.162 -0.0053  0.0378 -0.8107
  328MOL0     C44206   9.695   8.074   7.319  1.2394 -0.0672 -0.1090
  328MOL0     C44207   9.703   7.932   7.371  0.6357 -0.4356  1.7153
  328MOL0     C44208   9.768   7.924   7.502  0.5822 -0.0575  0.6556
  328MOL0     C44209   9.813   7.918   7.614 -0.3625  0.1402 -0.2126
  328MOL0     C44210   9.775   8.333   6.794 -0.2758  0.5317  0.1119
  328MOL0     C44211   9.806   8.446   6.717 -0.0820  0.1976  1.0255
  328MOL0     C44212   9.899   8.416   6.597  0.1344  0.4726 -0.7753
  328MOL0     H44213   9.582   8.997   6.605 -0.8739  2.3415 -2.2957
  328MOL0     H44214   9.632   9.179   6.485  0.5812 -1.5387 -2.1374
  328MOL0     H44215   9.746   9.358   6.346 -0.4413  0.1895  0.4820
  328MOL0     H44216   9.732   9.385   6.523 -0.0366 -2.4523  0.8559
  328MOL0     H44217   9.766   9.588   6.379 -0.0701  0.8720 -2.6066
  328MOL0     H44218   9.902   9.515   6.292  2.8550 -0.6310  1.7325
  328MOL0     H44219  10.027   9.517   6.495  0.2584  0.0827 -1.2791
  328MOL0     H44220   9.893   9.588   6.585  2.3233 -0.3967  0.4149
  328MOL0     H44221   9.952   9.731   6.338 -3.1324 -2.8297  0.1134
  328MOL0     H44222   9.902   9.793   6.492  0.5408  1.2740 -0.7457
  328MOL0     H44223  10.123   9.744   6.595 -0.6535 -2.7043  0.4294
  328MOL0     H44224  10.184   9.673   6.450 -4.5648 -4.6787  2.5524
  328MOL0     H44225  10.163   9.886   6.323  2.2253  0.8016 -0.2442
  328MOL0     H44226  10.072   9.956   6.466 -0.5589  0.8817 -1.1881
  328MOL0     H44227  10.357   9.848   6.462  0.0603  0.3214  1.2793
  328MOL0     H44228  10.275   9.936   6.599 -0.4624 -3.1077 -0.4107
  328MOL0     H44229  10.388  10.020   6.327  2.0135 -2.2216  1.2253
  328MOL0     H44230  10.284  10.130   6.425 -0.5116 -0.6228 -1.9268
  328MOL0     H44231  10.641  10.054   6.379  0.2130 -1.0293 -1.2395
  328MOL0     H44232  10.844  10.238   6.642  0.6560  4.0114 -1.4298
  328MOL0     H44233  10.850  10.157   6.480 -0.3596 -1.0812 -0.0973
  328MOL0     H44234  10.900  10.380   6.425 -0.6624 -1.5810 -0.9489
  328MOL0     H44235  10.738  10.345   6.378  0.9263 -0.9209 -0.0636
  328MOL0     H44236  10.655  10.444   6.597  0.8348  2.6446  2.7696
  328MOL0     H44237  10.718  10.554   6.472  0.3751  0.1645  0.4989
  328MOL0     H44238  10.840  10.486   6.739 -2.9023  0.7853  1.9944
  328MOL0     H44239  10.780  10.631   6.689 -1.2488 -2.9743  3.9475
  328MOL0     H44240  11.191  10.618   6.491  1.5971  1.9620  0.7775
  328MOL0     H44241  11.238  10.779   6.322 -0.7184  5.1832 -1.6105
  328MOL0     H44242  11.387  10.935   5.982  0.2295  0.8801  1.0735
  328MOL0     H44243  11.514  11.107   5.856  1.2775  2.9419  0.7591
  328MOL0     H44244  11.652  11.269   5.897  1.0310  0.4825  0.1747
  328MOL0     H44245  11.587  11.275   5.729 -0.6023 -0.3017  1.0518
  328MOL0     H44246  11.717  11.507   5.851 -0.3049 -0.0759  0.3721
  328MOL0     H44247  11.776  11.409   5.728  0.7088  1.9786 -2.2994
  328MOL0     H44248  11.558  11.508   5.593  1.5704  0.4668 -0.5239
  328MOL0     H44249  11.535  11.607   5.735  1.0004  0.6385  0.4462
  328MOL0     H44250  11.790  11.582   5.551  2.3124  2.6891 -0.3679
  328MOL0     H44251  11.794  11.689   5.683  0.2131 -0.5532 -0.0456
  328MOL0     H44252  11.596  11.677   5.443 -0.7045  0.2652 -0.1677
  328MOL0     H44253  11.725  11.775   5.442 -0.6107 -2.5618 -1.3871
  328MOL0     H44254  11.462  11.779   5.592  0.5337 -3.3192 -2.0643
  328MOL0     H44255  11.573  11.900   5.644 -2.2504 -3.7235  2.7812
  328MOL0     H44256  11.490  11.869   5.350 -0.0172  0.5933 -0.4331
  328MOL0     H44257  11.586  12.003   5.418  1.9408 -1.2972 -0.0374
  328MOL0     H44258  11.317  11.945   5.531  2.2988 -1.3808 -0.0328
  328MOL0     H44259  11.404  12.101   5.514 -0.2914  0.0851  0.0326
  328MOL0     H44260  11.284  11.407   6.055 -3.4736 -1.2332  0.8707
  328MOL0     H44261  11.147  11.233   6.174  0.8399  2.2754  0.9876
  328MOL0     H44262  10.826  10.902   6.306 -2.6520 -2.9495  1.5529
  328MOL0     H44263  10.775  10.765   6.488  0.5815  0.9260  0.3483
  328MOL0     H44264  10.050   9.151   6.607  0.1406  1.6709 -1.2300
  328MOL0     H44265  10.003   8.940   6.730  0.1941 -0.3659 -1.3375
  328MOL0     H44266   9.631   8.674   6.904 -0.1431  0.2905  0.8690
  328MOL0     H44267   9.572   8.474   7.023 -1.9125  1.4126 -2.7579
  328MOL0     H44268   9.616   8.277   7.155  1.9230 -0.3460  2.8775
  328MOL0     H44269   9.791   8.258   7.137 -2.0202  3.1387  2.8310
  328MOL0     H44270   9.731   7.993   7.121 -1.7467 -0.7448 -1.8833
  328MOL0     H44271   9.571   8.044   7.134  0.1092  0.1530 -1.3576
  328MOL0     H44272   9.602   8.115   7.359 -0.1082 -1.8824 -1.2340
  328MOL0     H44273   9.789   8.126   7.339  3.0790 -1.3481 -4.4396
  328MOL0     H44274   9.600   7.896   7.376  1.2476 -3.6293 -2.8516
  328MOL0     H44275   9.759   7.863   7.307  1.6117 -1.1730  3.2850
  328MOL0     H44276   9.844   7.913   7.717 -3.3540 -0.1055  0.7765
  328MOL0     H44277   9.821   8.235   6.782 -3.8194 -1.0505 -2.7011
  328MOL0     H44278   9.878   8.475   6.508  1.0261  3.1439  0.6319
  328MOL0     H44279  10.005   8.425   6.625  0.4358 -0.3674 -1.6038
  328MOL0     H44280   9.881   8.310   6.582 -1.1154  0.4277  0.7332
  329MOL0     O44281   5.841   8.210  10.873 -0.2986 -0.0061 -0.5287
  329MOL0     C44282   5.762   8.120  10.852  0.2655  1.2097 -0.4943
  329MOL0     O44283   5.754   8.053  10.737 -0.4422  0.4934 -0.1790
  329MOL0     C44284   5.852   8.036  10.649 -0.9663 -0.0681  0.0375
  329MOL0     C44285   5.977   7.983  10.686  0.2056 -0.4479  0.9581
  329MOL0     C44286   6.072   7.962  10.586 -0.1515  0.6045 -0.2833
  329MOL0     C44287   6.037   7.977  10.453  1.1146 -0.0666 -0.4192
  329MOL0     O44288   6.133   7.961  10.360  0.4723  0.1071  0.7524
  329MOL0     C44289   6.127   8.026  10.237  0.5309  0.3082  0.0954
  329MOL0     C44290   6.248   8.006  10.138  0.0619 -0.2721  0.2644
  329MOL0     C44291   6.284   7.874  10.101  0.1237  0.1824 -0.1053
  329MOL0     C44292   6.402   7.875   9.998  0.1522  0.3055  0.2202
  329MOL0     C44293   6.440   7.735   9.957 -0.5474  0.0708 -0.1847
  329MOL0     C44294   6.529   7.739   9.831 -0.7151 -0.0841 -0.7674
  329MOL0     C44295   6.556   7.601   9.786 -0.1643  0.5271 -0.2566
  329MOL0     C44296   6.596   7.606   9.633  0.3313 -0.4478  0.0900
  329MOL0     N44297   6.645   7.481   9.586 -0.2956  0.3119  0.8365
  329MOL0     C44298   6.570   7.365   9.583 -0.0833 -0.7487  0.3970
  329MOL0     C44299   6.648   7.273   9.521  0.0317  0.3513  0.8025
  329MOL0     C44300   6.595   7.133   9.487  0.3159  0.4835  1.1646
  329MOL0     C44301   6.623   7.046   9.613  0.5267  0.0773  0.6246
  329MOL0     C44302   6.563   6.904   9.617  1.5060  0.0631  0.0454
  329MOL0     C44303   6.617   6.834   9.746  0.5172  0.1783 -0.5163
  329MOL0     O44304   6.555   6.890   9.865  0.3346  0.2329  0.1192
  329MOL0     C44305   6.623   6.887   9.982  1.0148  0.0327 -0.4941
  329MOL0     C44306   6.724   6.803  10.025  0.3772  0.9349 -0.5289
  329MOL0     C44307   6.774   6.795  10.155  0.5985 -0.3336  0.8321
  329MOL0     C44308   6.743   6.891  10.246 -0.8257  0.1500 -0.7730
  329MOL0     C44309   6.799   6.878  10.377 -0.3145  0.8071  0.4615
  329MOL0     O44310   6.712   6.942  10.471  0.1498  0.2745  0.4412
  329MOL0     C44311   6.743   6.921  10.605  0.0948  1.3456  1.3580
  329MOL0     C44312   6.849   6.981  10.675 -0.7578  0.5923 -1.0385
  329MOL0     C44313   6.888   6.946  10.808  0.2712  0.4060  0.1224
  329MOL0     C44314   6.799   6.858  10.872  0.0710  0.8845 -0.2216
  329MOL0     O44315   6.807   6.834  11.005 -0.6035 -0.1749 -0.2162
  329MOL0     C44316   6.718   6.746  11.076  0.1294  0.3800  0.3638
  329MOL0     C44317   6.584   6.825  11.103  0.0122  1.0123 -0.2727
  329MOL0     C44318   6.480   6.737  11.178  0.4077  0.1847  1.4824
  329MOL0     C44319   6.360   6.816  11.218  0.1850 -0.4388 -0.6070
  329MOL0     C44320   6.281   6.763  11.339 -0.2180  0.6868  0.0738
  329MOL0     C44321   6.232   6.617  11.306  0.2077  0.4431  0.2481
  329MOL0     C44322   6.129   6.574  11.402  0.5968  0.6443 -0.5435
  329MOL0     C44323   5.983   6.562  11.335  0.4186  0.1692 -1.0824
  329MOL0    Cl44324   5.922   6.728  11.294  0.1041  0.3206 -0.3218
  329MOL0     C44325   6.694   6.791  10.803  0.2571 -0.3558  0.1030
  329MOL0     C44326   6.659   6.834  10.673  0.2841 -0.7863 -0.1064
  329MOL0     O44327   6.916   6.843  10.404  0.5200 -0.1627  0.0645
  329MOL0     C44328   6.646   6.988  10.206  0.1100 -0.9557  0.3484
  329MOL0     C44329   6.581   6.981  10.078  0.3554  0.5491 -0.0491
  329MOL0     N44330   6.774   7.323   9.510  0.3261  0.0225 -0.6218
  329MOL0     N44331   6.777   7.451   9.543 -0.5224  0.5550  0.1709
  329MOL0     C44332   5.913   8.026  10.418  1.0322 -0.8404 -0.4997
  329MOL0     C44333   5.823   8.058  10.520  0.8023  1.1404 -0.3165
  329MOL0     C44334   5.688   8.064  10.962 -0.2116 -0.4890 -0.5648
  329MOL0     C44335   5.550   8.032  10.946 -0.4113  0.1743 -0.3937
  329MOL0     C44336   5.472   7.975  11.043  0.4264 -0.2669 -0.3723
  329MOL0     C44337   5.523   7.968  11.177  0.1755  1.2338 -0.7912
  329MOL0     O44338   5.436   7.928  11.274  0.0281 -0.1805 -0.1903
  329MOL0     C44339   5.480   7.902  11.412  0.4145  0.5061 -0.0106
  329MOL0     C44340   5.373   7.949  11.503  0.4887 -0.4819  0.3267
  329MOL0     C44341   5.345   8.099  11.501  0.2418 -0.1742 -0.0493
  329MOL0     C44342   5.235   8.155  11.403  0.6021 -0.5408  0.6513
  329MOL0     C44343   5.218   8.292  11.446 -0.3723  0.9016  0.3807
  329MOL0     C44344   5.205   8.411  11.472  0.6908 -0.5246 -0.2900
  329MOL0     C44345   5.657   8.003  11.199  0.0882  0.1435 -0.5541
  329MOL0     C44346   5.744   8.055  11.093  0.1592 -0.0236 -1.3233
  329MOL0     C44347   5.890   8.080  11.135  0.4163 -0.2357 -0.0952
  329MOL0     H44348   5.992   7.971  10.793  2.7056  1.0440  0.8514
  329MOL0     H44349   6.168   7.934  10.628  0.1652  0.3368 -1.1682
  329MOL0     H44350   6.039   7.999  10.177  1.5430 -1.4870 -0.6655
  329MOL0     H44351   6.117   8.134  10.245 -1.1954  0.4608 -2.8183
  329MOL0     H44352   6.335   8.061  10.173 -0.4637  1.3676 -0.8728
  329MOL0     H44353   6.225   8.055  10.042 -1.4687 -1.5945 -0.0932
  329MOL0     H44354   6.190   7.840  10.057 -0.2644  0.7752  0.2458
  329MOL0     H44355   6.307   7.826  10.197 -0.6889 -1.9554 -0.9216
  329MOL0     H44356   6.382   7.946   9.917 -1.7874 -2.0108 -1.5005
  329MOL0     H44357   6.489   7.921  10.045  0.0899  0.9398 -0.2819
  329MOL0     H44358   6.492   7.695  10.044 -1.9257 -2.0141 -0.2614
  329MOL0     H44359   6.348   7.678   9.946 -0.2030 -0.7653  1.0138
  329MOL0     H44360   6.472   7.799   9.760  0.9300  0.1029 -1.9814
  329MOL0     H44361   6.629   7.782   9.841 -1.0139  1.2069 -2.7205
  329MOL0     H44362   6.476   7.529   9.804 -0.1845 -0.5779 -3.9431
  329MOL0     H44363   6.646   7.562   9.835  0.3842 -2.8162 -3.4975
  329MOL0     H44364   6.514   7.638   9.568  1.6215  0.2785 -1.2357
  329MOL0     H44365   6.674   7.679   9.609  2.9771 -3.0867  0.0865
  329MOL0     H44366   6.467   7.358   9.618  0.4476  1.9056  2.9032
  329MOL0     H44367   6.489   7.137   9.458  0.8766 -2.5792 -1.9414
  329MOL0     H44368   6.659   7.094   9.408  1.7446  0.6163  2.2226
  329MOL0     H44369   6.730   7.026   9.602  0.0870 -1.2351 -2.5714
  329MOL0     H44370   6.600   7.089   9.710 -0.2444 -0.2308  0.5852
  329MOL0     H44371   6.585   6.849   9.525  1.8888 -0.0477  0.1985
  329MOL0     H44372   6.455   6.909   9.629  1.5536  0.7488  0.2171
  329MOL0     H44373   6.726   6.840   9.738  0.4754 -0.0114 -1.2725
  329MOL0     H44374   6.593   6.729   9.730  3.1573 -0.3556 -1.4203
  329MOL0     H44375   6.763   6.743   9.944 -3.0146 -1.8423 -0.3450
  329MOL0     H44376   6.844   6.718  10.185  2.4611  1.7191  1.9921
  329MOL0     H44377   6.906   7.053  10.617  1.5338  0.9503  1.5013
  329MOL0     H44378   6.966   7.006  10.853 -0.2187  0.5212  0.8551
  329MOL0     H44379   6.701   6.649  11.028 -3.0154  1.7033 -1.5167
  329MOL0     H44380   6.763   6.728  11.174  1.8190  1.4381 -0.1785
  329MOL0     H44381   6.604   6.911  11.167  0.8880  0.8868 -0.3585
  329MOL0     H44382   6.528   6.857  11.015 -2.0246  1.6685  1.1819
  329MOL0     H44383   6.445   6.662  11.106 -1.9381  0.0998  2.6163
  329MOL0     H44384   6.528   6.684  11.261  0.2078 -3.7449 -0.6295
  329MOL0     H44385   6.292   6.832  11.135  0.4126 -0.9559 -0.8987
  329MOL0     H44386   6.396   6.913  11.251  0.3735 -0.6174 -0.2806
  329MOL0     H44387   6.195   6.830  11.348 -0.1409  0.5132  2.7593
  329MOL0     H44388   6.336   6.773  11.432  0.0990 -0.0450 -0.0252
  329MOL0     H44389   6.181   6.616  11.210 -1.0826  2.7591  0.8250
  329MOL0     H44390   6.311   6.543  11.320  0.4821  0.4346 -1.2439
  329MOL0     H44391   6.126   6.643  11.487  1.2807  1.1137 -0.8849
  329MOL0     H44392   6.158   6.476  11.441  0.1221 -0.1870 -2.1974
  329MOL0     H44393   5.981   6.508  11.240 -1.4579  0.3189 -1.1692
  329MOL0     H44394   5.914   6.506  11.398 -1.0110  1.9009 -1.0104
  329MOL0     H44395   6.645   6.703  10.842 -1.4562  0.0974 -0.9042
  329MOL0     H44396   6.578   6.785  10.621 -2.1708 -1.8882  4.2861
  329MOL0     H44397   6.612   7.071  10.268  1.2015  1.0076 -1.5450
  329MOL0     H44398   6.515   7.063  10.050  2.1632  3.4347  3.2210
  329MOL0     H44399   5.891   8.071  10.322  1.5061  0.0728 -0.1966
  329MOL0     H44400   5.723   8.096  10.507 -1.0696 -2.4029  2.0157
  329MOL0     H44401   5.503   8.067  10.854  0.2960  2.8488  0.1583
  329MOL0     H44402   5.373   7.931  11.037  0.5212 -1.5492  3.8530
  329MOL0     H44403   5.569   7.958  11.443  0.6370  1.2544 -1.8277
  329MOL0     H44404   5.492   7.794  11.428  0.9237  0.8514  2.2151
  329MOL0     H44405   5.407   7.929  11.605  1.0806 -1.1365  0.0086
  329MOL0     H44406   5.280   7.894  11.487  0.0131  0.1147  1.0195
  329MOL0     H44407   5.441   8.140  11.469  0.1336 -0.0257 -0.1837
  329MOL0     H44408   5.327   8.131  11.604 -0.6396 -2.2697  0.5122
  329MOL0     H44409   5.283   8.153  11.304  0.4989  1.3151  0.5291
  329MOL0     H44410   5.134   8.113  11.404  1.2510 -2.1530  1.8365
  329MOL0     H44411   5.186   8.512  11.501  1.7032  0.3505 -2.4671
  329MOL0     H44412   5.697   7.994  11.299  0.5066  4.2962 -0.1841
  329MOL0     H44413   5.894   8.161  11.209  1.9819 -0.5358  0.1814
  329MOL0     H44414   5.934   7.989  11.177 -0.4993  1.4428  5.2093
  329MOL0     H44415   5.961   8.097  11.053  0.2381 -1.2563 -0.4712
  330MOL0     O44416   5.344  10.386   2.531 -0.1580 -0.0831 -0.0104
  330MOL0     C44417   5.240  10.403   2.479  1.7336 -0.7416 -0.1131
  330MOL0     O44418   5.197  10.348   2.361 -0.8729  0.8869  0.0114
  330MOL0     C44419   5.288  10.278   2.284  0.3287  0.2228  0.0886
  330MOL0     C44420   5.240  10.176   2.197  0.2774  0.5757 -0.0114
  330MOL0     C44421   5.312  10.087   2.119 -0.1000  0.7240  0.1051
  330MOL0     C44422   5.452  10.092   2.132 -0.5094  0.0614  0.4135
  330MOL0     O44423   5.543   9.993   2.080 -0.2650  0.0007 -0.2089
  330MOL0     C44424   5.499   9.876   2.014 -0.1591  0.0194  0.2567
  330MOL0     C44425   5.478   9.901   1.861 -0.7767  0.0678 -0.5052
  330MOL0     C44426   5.610   9.929   1.786  0.1705 -0.1417 -0.3490
  330MOL0     C44427   5.588  10.034   1.679  0.0239 -0.0014 -0.1423
  330MOL0     C44428   5.723  10.066   1.601 -0.8085  0.5860 -0.6733
  330MOL0     C44429   5.800   9.952   1.534 -0.1349 -0.3627  0.2042
  330MOL0     C44430   5.905   9.990   1.433 -0.8516  0.5777  0.4642
  330MOL0     C44431   5.977   9.862   1.399  1.1034  0.5799  0.3258
  330MOL0     N44432   6.100   9.855   1.472 -0.0147 -0.3199  0.7752
  330MOL0     C44433   6.212   9.944   1.462  0.0824 -0.3684 -0.5630
  330MOL0     C44434   6.324   9.887   1.500  0.5361 -1.3515  0.2281
  330MOL0     C44435   6.462   9.938   1.486  0.3466 -0.9044 -0.3435
  330MOL0     C44436   6.519   9.896   1.347  0.3009 -0.5298 -0.2548
  330MOL0     C44437   6.652   9.963   1.301  0.2457  0.2146  0.1435
  330MOL0     C44438   6.707   9.907   1.167  0.0441  0.1906  0.2527
  330MOL0     O44439   6.845   9.933   1.162 -0.3807 -0.6197 -0.7445
  330MOL0     C44440   6.930   9.867   1.072  0.8816 -0.9414  0.6989
  330MOL0     C44441   6.899   9.789   0.956 -0.3281 -0.3336  0.9274
  330MOL0     C44442   7.004   9.706   0.897  0.0725 -0.6982 -0.4435
  330MOL0     C44443   7.126   9.700   0.956 -0.1221  0.4241 -0.3809
  330MOL0     C44444   7.232   9.605   0.918  0.1305 -0.8004  0.8180
  330MOL0     O44445   7.331   9.572   1.003  0.3880  0.3849  0.6545
  330MOL0     C44446   7.422   9.477   0.959  0.9866 -0.1561  0.0670
  330MOL0     C44447   7.444   9.379   1.052  0.2297 -0.0189 -0.3321
  330MOL0     C44448   7.548   9.282   1.028 -0.0303  0.4171  0.5513
  330MOL0     C44449   7.622   9.284   0.905  1.3642  0.2119  0.5849
  330MOL0     O44450   7.696   9.177   0.875  0.2156  0.2002  0.2035
  330MOL0     C44451   7.699   9.134   0.733  0.0305 -0.3223  0.4901
  330MOL0     C44452   7.831   9.181   0.680  0.0355 -0.0172  1.2632
  330MOL0     C44453   7.868   9.100   0.559  0.0612 -0.6156 -0.3450
  330MOL0     C44454   8.003   9.147   0.493  1.1227 -0.7330  0.2627
  330MOL0     C44455   8.040   9.050   0.376 -0.6336  0.7227  1.2957
  330MOL0     C44456   8.187   9.084   0.320 -1.5794 -0.2705  0.0742
  330MOL0     C44457   8.268   8.978   0.241 -0.0462 -0.6407  0.8535
  330MOL0     C44458   8.415   8.994   0.232  0.1950 -0.4187  0.0487
  330MOL0    Cl44459   8.441   9.131   0.127 -0.1892 -0.1507  0.1815
  330MOL0     C44460   7.606   9.387   0.814  0.0109  0.1378 -0.5306
  330MOL0     C44461   7.503   9.483   0.841  0.2282  0.3213 -0.5633
  330MOL0     O44462   7.219   9.558   0.807  0.5745 -0.3883  0.3621
  330MOL0     C44463   7.152   9.778   1.071  0.6514 -0.3823  0.4789
  330MOL0     C44464   7.059   9.861   1.132  0.1895 -0.3513  0.4072
  330MOL0     N44465   6.283   9.766   1.552  0.4186  0.8870 -0.7790
  330MOL0     N44466   6.155   9.747   1.534  0.5694  0.7742 -0.5374
  330MOL0     C44467   5.502  10.205   2.198  0.4787  0.1507  0.3093
  330MOL0     C44468   5.427  10.297   2.269  0.2844  0.1638 -0.9799
  330MOL0     C44469   5.153  10.496   2.541 -0.1319 -0.0708  0.9849
  330MOL0     C44470   5.044  10.546   2.461 -0.5040 -0.0120  0.1030
  330MOL0     C44471   4.953  10.643   2.510  0.6497 -0.0138 -0.6106
  330MOL0     C44472   4.945  10.687   2.637  0.1095  0.0087 -0.7431
  330MOL0     O44473   4.854  10.781   2.688  0.4397 -0.1793  0.6176
  330MOL0     C44474   4.717  10.737   2.710 -0.0289 -0.4138 -0.1022
  330MOL0     C44475   4.604  10.842   2.703 -0.5408 -0.3839 -0.2265
  330MOL0     C44476   4.543  10.861   2.563  0.0028  0.5014  0.9254
  330MOL0     C44477   4.634  10.925   2.472 -0.3434 -0.1646 -0.6524
  330MOL0     C44478   4.656  11.072   2.496 -0.6594 -0.4432 -0.4129
  330MOL0     C44479   4.671  11.188   2.538 -0.0550  0.2061  0.1720
  330MOL0     C44480   5.051  10.643   2.712  0.2525  0.1742 -0.0339
  330MOL0     C44481   5.148  10.550   2.672  0.4932 -0.3647  0.1569
  330MOL0     C44482   5.233  10.488   2.781  0.2060  1.0104  1.2364
  330MOL0     H44483   5.132  10.166   2.198  0.2515  0.0991 -2.2135
  330MOL0     H44484   5.259  10.014   2.058 -1.2312  1.5881  0.0320
  330MOL0     H44485   5.566   9.790   2.005 -2.6046 -1.8184 -1.6619
  330MOL0     H44486   5.408   9.842   2.064 -0.5458  0.1163 -0.3861
  330MOL0     H44487   5.400   9.977   1.847 -0.8435  0.0463 -0.2630
  330MOL0     H44488   5.451   9.810   1.806 -0.1325  0.0220 -0.7484
  330MOL0     H44489   5.638   9.834   1.741 -0.7492 -0.0739 -1.0918
  330MOL0     H44490   5.683   9.975   1.853 -0.3719  2.2705 -1.3319
  330MOL0     H44491   5.510  10.005   1.608 -1.0220  0.8522  0.6101
  330MOL0     H44492   5.569  10.129   1.731  2.1510  0.8405 -0.7907
  330MOL0     H44493   5.707  10.149   1.531  1.4732  1.0259 -0.7441
  330MOL0     H44494   5.779  10.117   1.680 -2.0387 -0.7762  1.1318
  330MOL0     H44495   5.852   9.900   1.615  3.0220  2.3220  0.1175
  330MOL0     H44496   5.728   9.885   1.485  0.3724 -0.1469 -0.8547
  330MOL0     H44497   5.970  10.070   1.471 -2.5544  1.3538  1.8815
  330MOL0     H44498   5.854  10.024   1.342  0.0239 -1.1321 -0.7149
  330MOL0     H44499   5.918   9.774   1.426  0.0146  0.9330 -0.7730
  330MOL0     H44500   6.004   9.858   1.293  1.8923 -0.3866  0.5457
  330MOL0     H44501   6.195  10.046   1.428  0.1069 -0.6573 -1.4891
  330MOL0     H44502   6.465  10.046   1.498 -1.2650 -0.4447 -3.2148
  330MOL0     H44503   6.526   9.888   1.560  0.0236 -2.7756 -1.2506
  330MOL0     H44504   6.514   9.787   1.342 -1.1106 -0.4688 -0.8213
  330MOL0     H44505   6.437   9.926   1.280 -1.1936 -2.5079  0.5772
  330MOL0     H44506   6.721   9.936   1.381  2.0403  0.5330 -1.2237
  330MOL0     H44507   6.639  10.072   1.296 -1.2693 -0.0051 -3.3010
  330MOL0     H44508   6.643   9.948   1.088  0.3555  1.4159  0.6199
  330MOL0     H44509   6.702   9.797   1.168  0.2298  0.1816  1.2877
  330MOL0     H44510   6.802   9.797   0.908 -0.4094  0.5603  1.2227
  330MOL0     H44511   6.977   9.637   0.817  2.4829 -0.3157 -1.6893
  330MOL0     H44512   7.379   9.348   1.134  1.1419 -2.4047 -0.4467
  330MOL0     H44513   7.569   9.191   1.084  3.2340  1.3989  1.1300
  330MOL0     H44514   7.689   9.026   0.722  2.4145 -0.3430 -3.0069
  330MOL0     H44515   7.619   9.173   0.669 -0.6185 -0.4358  1.2072
  330MOL0     H44516   7.830   9.288   0.659 -0.0975 -0.0250  1.2261
  330MOL0     H44517   7.904   9.155   0.757  2.7654 -0.8519 -1.4369
  330MOL0     H44518   7.862   8.993   0.583 -0.3200 -1.0129 -2.0265
  330MOL0     H44519   7.787   9.106   0.485  1.6050 -2.4227 -2.3079
  330MOL0     H44520   8.093   9.150   0.556  1.8685  0.8490 -0.8000
  330MOL0     H44521   7.991   9.248   0.451 -0.6780 -0.9337  0.2508
  330MOL0     H44522   7.970   9.042   0.292 -0.5085  4.1278  0.7376
  330MOL0     H44523   8.031   8.946   0.410 -3.1712  0.2154 -0.5586
  330MOL0     H44524   8.181   9.174   0.259 -0.5442 -1.2027 -1.4620
  330MOL0     H44525   8.249   9.116   0.404  0.1157  0.2711 -1.3276
  330MOL0     H44526   8.233   8.982   0.138 -2.8563  1.3480  1.7449
  330MOL0     H44527   8.251   8.883   0.293  0.0851  0.1520  2.4199
  330MOL0     H44528   8.467   9.012   0.327 -0.4510  1.6723  0.0597
  330MOL0     H44529   8.467   8.906   0.192 -0.2921  0.3652 -2.4773
  330MOL0     H44530   7.661   9.392   0.720  0.5132  1.6141 -0.1834
  330MOL0     H44531   7.489   9.567   0.775  1.2433  1.1531  0.2340
  330MOL0     H44532   7.236   9.761   1.138  0.1997 -2.2779  0.6061
  330MOL0     H44533   7.082   9.902   1.230  1.6786 -2.2191  0.9203
  330MOL0     H44534   5.608  10.225   2.204  0.3675  1.4990 -1.4750
  330MOL0     H44535   5.482  10.374   2.322  0.3914  1.6977 -3.1901
  330MOL0     H44536   5.021  10.517   2.359  2.4576 -4.6854  0.4676
  330MOL0     H44537   4.872  10.665   2.440  0.6599 -2.0933 -1.3595
  330MOL0     H44538   4.710  10.689   2.809 -0.3309 -3.5619 -1.5414
  330MOL0     H44539   4.695  10.660   2.635 -1.9525  0.6832 -0.7200
  330MOL0     H44540   4.646  10.932   2.749 -0.0306 -1.7313  2.0999
  330MOL0     H44541   4.526  10.811   2.773  1.6779 -1.9705  1.6879
  330MOL0     H44542   4.461  10.933   2.576 -0.2030  1.0229 -2.4921
  330MOL0     H44543   4.500  10.766   2.529  0.9265  1.3515 -3.1315
  330MOL0     H44544   4.727  10.868   2.478  0.4516  1.2117  1.8359
  330MOL0     H44545   4.597  10.919   2.369  1.9949  1.2447 -1.6680
  330MOL0     H44546   4.686  11.289   2.569  0.3558  0.3821 -0.5557
  330MOL0     H44547   5.049  10.687   2.811 -0.7539  3.4150 -1.3625
  330MOL0     H44548   5.224  10.536   2.879  0.4201  0.5903  1.4662
  330MOL0     H44549   5.216  10.380   2.791  0.7688  0.7310 -0.4384
  330MOL0     H44550   5.338  10.492   2.749 -0.2514 -1.2152 -0.8324
  331MOL0     O44551   5.898   6.218   9.601 -0.1099  0.1294 -0.2100
  331MOL0     C44552   5.932   6.254   9.709 -0.3508  0.2562 -0.6675
  331MOL0     O44553   6.052   6.309   9.735 -0.5680 -0.4259  0.2022
  331MOL0     C44554   6.165   6.291   9.664 -0.1169  0.0118 -0.3203
  331MOL0     C44555   6.192   6.202   9.555 -0.0653 -0.0228  0.3091
  331MOL0     C44556   6.318   6.210   9.484 -0.7670  0.2977 -0.2192
  331MOL0     C44557   6.413   6.303   9.526  0.0318 -1.1643  1.1798
  331MOL0     O44558   6.538   6.320   9.474 -0.4547  0.3104 -0.5590
  331MOL0     C44559   6.601   6.223   9.389 -0.4003  0.4749  0.0249
  331MOL0     C44560   6.733   6.269   9.327 -0.0179  0.0613  0.2443
  331MOL0     C44561   6.705   6.359   9.211  0.4245  0.6435 -0.4417
  331MOL0     C44562   6.682   6.283   9.080  0.6550 -0.2981  0.0007
  331MOL0     C44563   6.639   6.378   8.965  1.3525 -0.4809  0.0153
  331MOL0     C44564   6.639   6.310   8.825  1.1056  0.5081 -0.0712
  331MOL0     C44565   6.774   6.248   8.783  0.1510  0.5538 -0.5364
  331MOL0     C44566   6.889   6.337   8.749 -0.6799 -0.6662  0.5213
  331MOL0     N44567   6.947   6.407   8.862  0.2715  0.4653 -0.9871
  331MOL0     C44568   6.930   6.543   8.884  0.0955 -0.3271 -0.9409
  331MOL0     C44569   7.001   6.559   8.999  0.3549  0.1188  0.1962
  331MOL0     C44570   7.008   6.683   9.091  0.5205  0.1044 -0.8205
  331MOL0     C44571   7.125   6.782   9.046  0.2151  0.4720 -0.4488
  331MOL0     C44572   7.253   6.706   9.072  0.0871  0.4963 -0.2359
  331MOL0     C44573   7.377   6.764   9.021 -0.4397 -1.0128 -0.5816
  331MOL0     O44574   7.373   6.809   8.888 -0.0953 -0.2224  0.8246
  331MOL0     C44575   7.434   6.757   8.773 -0.0410 -0.4898 -0.1857
  331MOL0     C44576   7.471   6.624   8.780  0.6616  0.7340 -0.2988
  331MOL0     C44577   7.535   6.566   8.671 -0.1178 -0.1706  0.3158
  331MOL0     C44578   7.529   6.642   8.551 -0.8955  1.0913  0.2119
  331MOL0     C44579   7.565   6.564   8.427  0.6334 -0.0215 -0.4237
  331MOL0     O44580   7.597   6.640   8.322 -0.0202  0.2611  1.0443
  331MOL0     C44581   7.650   6.576   8.214  0.0175 -0.5266  0.7816
  331MOL0     C44582   7.767   6.635   8.160 -0.4645 -0.3300 -0.0786
  331MOL0     C44583   7.816   6.582   8.041 -0.2408  0.6387  0.3234
  331MOL0     C44584   7.766   6.457   7.997  0.7664  0.4736  0.5157
  331MOL0     O44585   7.831   6.413   7.881  0.1939  0.2078  0.2626
  331MOL0     C44586   7.790   6.292   7.822 -1.7905 -0.2046  0.0250
  331MOL0     C44587   7.894   6.275   7.714  0.2019 -0.8285 -0.1704
  331MOL0     C44588   7.865   6.141   7.630  0.6761 -0.3882  0.0423
  331MOL0     C44589   7.967   6.106   7.527  0.1206 -0.2627  0.0907
  331MOL0     C44590   7.896   6.015   7.425  0.0270  0.0615 -0.2620
  331MOL0     C44591   7.880   5.878   7.495 -0.6235  0.9266  0.9112
  331MOL0     C44592   7.801   5.784   7.404 -0.4818 -0.7296 -0.3720
  331MOL0     C44593   7.830   5.765   7.252 -0.0234  0.5303 -0.1937
  331MOL0    Cl44594   7.968   5.659   7.261 -0.1791  0.0689 -0.3861
  331MOL0     C44595   7.651   6.399   8.055  0.2044 -0.1616  0.1057
  331MOL0     C44596   7.589   6.460   8.163  0.1702  0.0636  0.0988
  331MOL0     O44597   7.576   6.437   8.437  0.3245  0.0159 -0.4048
  331MOL0     C44598   7.491   6.777   8.542  0.2449 -0.1855  0.3252
  331MOL0     C44599   7.448   6.835   8.658  0.2260  0.0019  0.4303
  331MOL0     N44600   7.055   6.438   9.043  0.6051 -0.1328  0.0776
  331MOL0     N44601   7.025   6.342   8.960  0.7771 -0.9423  0.0571
  331MOL0     C44602   6.392   6.381   9.641 -0.2988 -1.6640 -0.1748
  331MOL0     C44603   6.270   6.369   9.711  0.7007 -0.9621  0.6559
  331MOL0     C44604   5.831   6.251   9.820 -0.9330  0.0017  0.1489
  331MOL0     C44605   5.701   6.202   9.789  1.0278 -0.5188  0.0081
  331MOL0     C44606   5.597   6.221   9.877  0.7753 -0.1648 -0.1954
  331MOL0     C44607   5.612   6.279   9.998 -1.0691 -0.7734 -0.7851
  331MOL0     O44608   5.499   6.305  10.065  0.3209  0.8084 -0.2982
  331MOL0     C44609   5.505   6.346  10.202  0.7077  0.6132 -1.6282
  331MOL0     C44610   5.364   6.374  10.267  0.1968 -0.3595  0.9543
  331MOL0     C44611   5.271   6.244  10.290 -0.7954  0.4676 -0.7864
  331MOL0     C44612   5.126   6.258  10.325  0.2813 -0.9830 -0.8534
  331MOL0     C44613   5.063   6.119  10.323 -0.2649 -0.5455  0.8035
  331MOL0     C44614   5.040   6.001  10.315  0.9032  1.0262  1.2687
  331MOL0     C44615   5.742   6.322  10.043 -0.3205  0.2418 -0.4954
  331MOL0     C44616   5.845   6.307   9.950 -0.5844 -0.0652 -0.1309
  331MOL0     C44617   5.971   6.388   9.987 -0.2118 -0.0810 -0.8148
  331MOL0     H44618   6.115   6.131   9.526 -0.4311  1.4006 -2.5687
  331MOL0     H44619   6.326   6.150   9.394  0.6134  0.4795 -0.2375
  331MOL0     H44620   6.627   6.133   9.446  2.5026 -0.4171 -2.4863
  331MOL0     H44621   6.525   6.195   9.315 -2.3250 -0.1907  2.1275
  331MOL0     H44622   6.794   6.181   9.302  1.4635  1.9986 -3.8677
  331MOL0     H44623   6.796   6.324   9.397 -0.4882 -1.7159  2.1697
  331MOL0     H44624   6.785   6.431   9.192  1.8950 -0.8062 -0.0504
  331MOL0     H44625   6.616   6.417   9.235 -0.0298 -0.4808  0.6572
  331MOL0     H44626   6.775   6.228   9.061  1.7689  0.7623  1.9774
  331MOL0     H44627   6.599   6.212   9.090 -1.0902  1.5201 -0.8319
  331MOL0     H44628   6.535   6.410   8.976  1.6032  1.8371 -2.9588
  331MOL0     H44629   6.696   6.471   8.964 -2.9862  2.5955  3.2494
  331MOL0     H44630   6.558   6.239   8.806  2.1887 -0.1758 -2.5673
  331MOL0     H44631   6.603   6.385   8.753 -0.8925 -1.1861 -0.9544
  331MOL0     H44632   6.754   6.185   8.696  1.4219 -0.1569 -0.3376
  331MOL0     H44633   6.801   6.177   8.861 -2.0200  1.8989  1.5463
  331MOL0     H44634   6.968   6.269   8.715  3.0020  3.3453  0.1267
  331MOL0     H44635   6.870   6.416   8.675  0.0340 -1.2327 -0.2820
  331MOL0     H44636   6.866   6.619   8.840 -0.7532 -0.4504  0.0225
  331MOL0     H44637   6.908   6.726   9.095  1.5828  2.8529 -1.6254
  331MOL0     H44638   7.016   6.659   9.197 -1.2372  4.6842  0.6216
  331MOL0     H44639   7.110   6.807   8.941 -4.0540 -0.0892 -0.1319
  331MOL0     H44640   7.125   6.874   9.105  1.4550 -0.6282  1.3685
  331MOL0     H44641   7.259   6.602   9.038  2.3172  0.5814 -0.2584
  331MOL0     H44642   7.259   6.689   9.180  2.5028 -0.1247 -0.4095
  331MOL0     H44643   7.472   6.714   9.043 -0.8320 -1.1791  0.8672
  331MOL0     H44644   7.383   6.858   9.076  0.4213  0.1300 -2.5596
  331MOL0     H44645   7.464   6.574   8.876 -3.0988  0.7690 -0.4027
  331MOL0     H44646   7.575   6.466   8.675 -1.8773 -0.9958 -1.3189
  331MOL0     H44647   7.816   6.711   8.221  0.1768 -2.3004  2.0204
  331MOL0     H44648   7.913   6.617   8.007  0.8521 -1.9058  0.6684
  331MOL0     H44649   7.803   6.216   7.900  3.7899  1.5172  1.1651
  331MOL0     H44650   7.691   6.297   7.775 -2.3102 -2.0900  0.8411
  331MOL0     H44651   7.885   6.362   7.648  1.5561 -2.4320 -2.6397
  331MOL0     H44652   7.996   6.275   7.754  0.6434  1.1499 -1.1291
  331MOL0     H44653   7.854   6.064   7.707 -1.8021 -0.8353 -0.6527
  331MOL0     H44654   7.771   6.153   7.576  1.1014 -1.5645 -1.0088
  331MOL0     H44655   8.062   6.068   7.567 -0.7910  0.9940  3.9353
  331MOL0     H44656   7.995   6.196   7.472 -0.3954 -1.3283 -1.9946
  331MOL0     H44657   7.952   6.018   7.331  0.7403  0.4805  0.1741
  331MOL0     H44658   7.794   6.042   7.394  0.2899  3.0487  1.2016
  331MOL0     H44659   7.982   5.841   7.512 -0.2812 -2.4968 -5.7086
  331MOL0     H44660   7.839   5.879   7.597  1.2945  0.9520  1.7299
  331MOL0     H44661   7.697   5.818   7.400  0.3557  2.4327  1.6943
  331MOL0     H44662   7.808   5.685   7.450 -0.2471 -0.3938  0.3306
  331MOL0     H44663   7.749   5.718   7.195 -0.3602  3.1436 -2.0557
  331MOL0     H44664   7.854   5.858   7.201 -0.5566  0.2028 -1.0777
  331MOL0     H44665   7.589   6.318   8.017  0.5542 -0.1452 -0.5030
  331MOL0     H44666   7.494   6.426   8.202 -0.3036 -0.0796 -1.1153
  331MOL0     H44667   7.497   6.825   8.445 -4.7132 -1.9006 -1.1549
  331MOL0     H44668   7.414   6.938   8.659  0.7435  0.1790  1.1523
  331MOL0     H44669   6.455   6.465   9.665 -1.3395 -1.6651  3.0724
  331MOL0     H44670   6.244   6.440   9.789 -1.4827 -0.5972 -0.3525
  331MOL0     H44671   5.671   6.154   9.696 -2.6638 -0.4609  1.0203
  331MOL0     H44672   5.497   6.192   9.846  1.3845 -4.4651  1.1832
  331MOL0     H44673   5.571   6.432  10.217 -1.9597  2.4517  0.5291
  331MOL0     H44674   5.549   6.264  10.260  1.3626  2.9857  1.4750
  331MOL0     H44675   5.306   6.425  10.189  1.6011  0.1314  0.1706
  331MOL0     H44676   5.374   6.444  10.350 -3.5790  3.0640 -1.0823
  331MOL0     H44677   5.320   6.208  10.381 -1.5635 -1.3124 -1.0361
  331MOL0     H44678   5.287   6.166  10.215  0.2671 -2.3564  2.1355
  331MOL0     H44679   5.105   6.299  10.425 -2.6397 -1.3595 -1.2331
  331MOL0     H44680   5.091   6.334  10.255  1.4479  1.2942  0.8846
  331MOL0     H44681   5.025   5.896  10.330 -0.1957  1.2472  1.8498
  331MOL0     H44682   5.754   6.380  10.134 -1.9656  2.7892 -1.7992
  331MOL0     H44683   5.963   6.491   9.952 -2.5390  0.8918  2.2346
  331MOL0     H44684   5.978   6.393  10.096 -0.1966  1.1198 -0.8665
  331MOL0     H44685   6.059   6.327   9.967  0.2347  0.6605 -1.1377
  332MOL0     O44686   7.805   5.261   2.813 -0.0673  0.3540  0.0649
  332MOL0     C44687   7.801   5.318   2.703  0.3798 -0.2939  0.5800
  332MOL0     O44688   7.736   5.437   2.679  0.1148 -0.1729 -0.1094
  332MOL0     C44689   7.645   5.493   2.761 -1.3245 -0.3992  0.0361
  332MOL0     C44690   7.612   5.462   2.892  0.1222 -0.3765 -0.8425
  332MOL0     C44691   7.506   5.523   2.958  0.1261 -0.8239  0.4133
  332MOL0     C44692   7.445   5.634   2.904 -0.5749  0.4432  0.4553
  332MOL0     O44693   7.359   5.701   2.987 -0.5618 -0.0859 -0.0305
  332MOL0     C44694   7.265   5.792   2.934 -1.1084  0.0299  0.1479
  332MOL0     C44695   7.164   5.828   3.043 -0.0243 -0.9879 -0.0547
  332MOL0     C44696   7.083   5.955   2.997  0.0176  0.1010 -0.9349
  332MOL0     C44697   7.048   6.047   3.115 -0.6265  1.3272  0.4784
  332MOL0     C44698   6.973   6.170   3.068 -0.1660 -0.9107  0.1487
  332MOL0     C44699   6.907   6.241   3.186 -0.2118  0.0267 -1.7726
  332MOL0     C44700   6.906   6.392   3.178 -0.0117  0.0885  1.0901
  332MOL0     C44701   7.049   6.446   3.202 -0.1363  0.0599 -0.5581
  332MOL0     N44702   7.059   6.585   3.157  0.7301 -0.0968  0.3724
  332MOL0     C44703   7.133   6.631   3.053  0.5166  0.3653  0.8026
  332MOL0     C44704   7.110   6.762   3.046 -0.1126 -0.4036 -0.8787
  332MOL0     C44705   7.173   6.859   2.947 -0.0668  0.0444 -0.6144
  332MOL0     C44706   7.237   6.985   3.008 -0.0806 -0.2283  0.8378
  332MOL0     C44707   7.291   6.974   3.152 -0.0313 -0.0104 -0.5626
  332MOL0     C44708   7.356   7.101   3.191 -0.0359 -0.3731 -0.6509
  332MOL0     O44709   7.392   7.095   3.328 -0.3854  0.1263  0.1348
  332MOL0     C44710   7.465   7.201   3.375  0.4623 -0.4353  0.0740
  332MOL0     C44711   7.499   7.194   3.509 -0.9239  0.2926  0.1727
  332MOL0     C44712   7.567   7.298   3.576 -0.0570 -0.0725  0.0700
  332MOL0     C44713   7.593   7.417   3.515  0.2139 -0.2709 -0.1757
  332MOL0     C44714   7.650   7.531   3.599 -0.5322  0.4648  0.2623
  332MOL0     O44715   7.717   7.618   3.524  0.0815 -0.2082 -0.2789
  332MOL0     C44716   7.816   7.691   3.582 -0.5354 -0.2376 -1.2047
  332MOL0     C44717   7.921   7.644   3.654 -0.1475  0.0422  0.2682
  332MOL0     C44718   8.032   7.728   3.681  0.1545 -0.2506 -0.1645
  332MOL0     C44719   8.028   7.868   3.648  0.2788  0.1373 -0.2074
  332MOL0     O44720   8.118   7.959   3.684  0.2351 -1.0827  0.1676
  332MOL0     C44721   8.247   7.915   3.717  0.6797  0.1333 -0.3377
  332MOL0     C44722   8.291   7.967   3.856 -0.7846 -0.4658 -0.4419
  332MOL0     C44723   8.430   7.910   3.907 -0.7885  0.5547  0.1807
  332MOL0     C44724   8.443   7.956   4.055  0.1380  0.3957 -0.1458
  332MOL0     C44725   8.588   7.940   4.114  0.1289  0.1176 -0.0100
  332MOL0     C44726   8.712   7.935   4.025  0.7065  0.3225  0.2288
  332MOL0     C44727   8.840   7.937   4.113 -0.1179  0.7449 -0.4709
  332MOL0     C44728   8.854   7.837   4.231 -0.5091  0.4572  0.3564
  332MOL0    Cl44729   9.038   7.813   4.239 -0.0922 -0.3099  0.0480
  332MOL0     C44730   7.923   7.913   3.578  0.8943  0.8358  0.7601
  332MOL0     C44731   7.812   7.827   3.545 -0.4237 -0.0242  0.2682
  332MOL0     O44732   7.644   7.519   3.719 -0.1194  0.2212  0.1196
  332MOL0     C44733   7.561   7.433   3.379 -0.0949 -0.2842  1.0553
  332MOL0     C44734   7.479   7.327   3.318 -1.1659 -0.7350  0.3644
  332MOL0     N44735   7.019   6.799   3.145 -0.0205 -0.4432 -0.7056
  332MOL0     N44736   7.002   6.695   3.222 -0.1106  0.5465  0.3801
  332MOL0     C44737   7.475   5.667   2.773 -0.0904  0.2194 -0.0610
  332MOL0     C44738   7.584   5.603   2.706  0.1928  0.4109 -0.0808
  332MOL0     C44739   7.903   5.278   2.597  0.0635 -0.2139 -0.6093
  332MOL0     C44740   7.928   5.368   2.498 -0.5287  0.0835 -0.2176
  332MOL0     C44741   8.035   5.345   2.413 -0.1958 -0.0718 -0.4147
  332MOL0     C44742   8.106   5.221   2.419  0.7550 -0.1355 -0.1176
  332MOL0     O44743   8.199   5.197   2.320  1.2187  0.4243 -0.5871
  332MOL0     C44744   8.265   5.069   2.318 -0.7507 -0.0438  0.3984
  332MOL0     C44745   8.360   5.052   2.193  0.0799  0.5924  0.0457
  332MOL0     C44746   8.282   4.989   2.081 -0.1968 -0.3859 -0.1847
  332MOL0     C44747   8.363   4.953   1.945  0.3623 -0.6099 -0.2164
  332MOL0     C44748   8.468   4.847   1.975  0.8667 -0.2530  0.8712
  332MOL0     C44749   8.549   4.764   1.977 -0.0726 -0.2162  0.3075
  332MOL0     C44750   8.056   5.123   2.509  0.1938  0.2457  0.5210
  332MOL0     C44751   7.954   5.147   2.602 -0.1024 -0.0179 -0.2304
  332MOL0     C44752   7.901   5.034   2.691  0.2008 -0.2264  0.0897
  332MOL0     H44753   7.668   5.400   2.962  1.4896  2.1509  0.4768
  332MOL0     H44754   7.484   5.493   3.060  0.5817 -2.7998 -0.0330
  332MOL0     H44755   7.315   5.888   2.919  1.3760 -1.0055  1.3600
  332MOL0     H44756   7.219   5.752   2.842 -1.5871 -0.5808  0.6402
  332MOL0     H44757   7.219   5.848   3.136  0.4752 -1.0409 -0.3359
  332MOL0     H44758   7.093   5.748   3.065 -2.8342  1.0647 -1.1871
  332MOL0     H44759   7.001   5.926   2.931 -0.0889  0.4079 -0.9420
  332MOL0     H44760   7.146   6.018   2.933  2.6023  0.2268  1.5166
  332MOL0     H44761   6.995   5.989   3.191 -2.3544  1.4466 -0.5829
  332MOL0     H44762   7.138   6.081   3.167 -0.5528  1.8841  0.0079
  332MOL0     H44763   7.039   6.237   3.012  0.5838 -0.7077  1.2206
  332MOL0     H44764   6.886   6.151   3.005  0.3761  0.9227 -1.2285
  332MOL0     H44765   6.809   6.195   3.200 -0.1182  0.2934 -0.0484
  332MOL0     H44766   6.948   6.219   3.285 -2.6894  1.3786 -0.3460
  332MOL0     H44767   6.844   6.436   3.257 -0.6511  1.8152 -0.3142
  332MOL0     H44768   6.877   6.434   3.081 -0.0320 -2.3706 -0.0457
  332MOL0     H44769   7.084   6.431   3.304  2.1218  0.2437 -1.2609
  332MOL0     H44770   7.127   6.387   3.153  1.4743  0.0161  1.9051
  332MOL0     H44771   7.215   6.587   2.998 -0.5082 -2.8931  1.6696
  332MOL0     H44772   7.243   6.800   2.887  0.7869  1.2441 -0.8347
  332MOL0     H44773   7.103   6.899   2.874  0.9419 -2.4038 -3.0891
  332MOL0     H44774   7.321   7.010   2.944 -0.9016 -2.8031 -1.4321
  332MOL0     H44775   7.161   7.064   3.004  0.0309 -0.1714 -0.7884
  332MOL0     H44776   7.359   6.889   3.152 -0.3462 -0.3780  2.6606
  332MOL0     H44777   7.206   6.959   3.219  1.4942 -1.8412  1.0807
  332MOL0     H44778   7.282   7.178   3.167 -1.0211 -0.4475  1.8533
  332MOL0     H44779   7.440   7.127   3.125 -2.2598  0.3567 -3.4061
  332MOL0     H44780   7.483   7.103   3.566 -1.3627  0.1511 -0.1752
  332MOL0     H44781   7.595   7.289   3.681 -0.9351 -1.8449  0.2049
  332MOL0     H44782   7.911   7.539   3.678 -3.4598  0.4076  0.8581
  332MOL0     H44783   8.117   7.679   3.728  1.4675  1.6811 -0.3692
  332MOL0     H44784   8.269   7.808   3.710 -1.8537 -0.3501 -4.5721
  332MOL0     H44785   8.318   7.963   3.649  2.2766 -3.2923 -1.2861
  332MOL0     H44786   8.296   8.076   3.854 -1.6446 -0.4239 -0.9766
  332MOL0     H44787   8.208   7.950   3.925  0.2926 -0.8451  0.7815
  332MOL0     H44788   8.419   7.802   3.918 -2.6551  0.6311 -0.5396
  332MOL0     H44789   8.515   7.936   3.843 -1.0181  0.1624 -0.2875
  332MOL0     H44790   8.368   7.920   4.126  0.8331  2.0394  1.5234
  332MOL0     H44791   8.435   8.065   4.049 -0.6313  0.3869  0.5862
  332MOL0     H44792   8.585   7.845   4.168 -0.6060 -1.0769 -2.0362
  332MOL0     H44793   8.609   8.019   4.187  1.7448 -0.1581 -0.1427
  332MOL0     H44794   8.717   7.843   3.965  1.3795  0.2190  0.4308
  332MOL0     H44795   8.714   8.021   3.958  2.2745 -0.0857 -0.2916
  332MOL0     H44796   8.857   8.037   4.152  1.7475  0.1762  0.2883
  332MOL0     H44797   8.929   7.936   4.049  0.0782 -2.1990 -0.3147
  332MOL0     H44798   8.804   7.879   4.319 -0.2561  4.2926 -1.1009
  332MOL0     H44799   8.812   7.740   4.206  1.5841 -0.6268  0.7891
  332MOL0     H44800   7.915   8.016   3.545  0.9521  0.1719 -1.5573
  332MOL0     H44801   7.731   7.863   3.483  1.4446  1.9862 -1.1866
  332MOL0     H44802   7.590   7.528   3.334  0.6913 -1.1069 -0.2245
  332MOL0     H44803   7.446   7.340   3.216  2.8802 -2.2248 -1.3259
  332MOL0     H44804   7.439   5.750   2.713 -0.1949  0.2756  0.0783
  332MOL0     H44805   7.618   5.646   2.612 -0.9049  2.0961  0.2479
  332MOL0     H44806   7.876   5.462   2.491 -1.5430 -0.3087  1.3552
  332MOL0     H44807   8.077   5.417   2.343 -0.0899  1.6884  1.3476
  332MOL0     H44808   8.197   4.984   2.330 -0.1947 -0.1940  2.9648
  332MOL0     H44809   8.328   5.051   2.405  1.0804 -3.0781 -1.3567
  332MOL0     H44810   8.444   4.987   2.221  2.0099  1.7361 -2.7001
  332MOL0     H44811   8.408   5.145   2.161  0.9114  0.3956  0.6685
  332MOL0     H44812   8.206   5.060   2.047  3.1853  3.3068 -0.7134
  332MOL0     H44813   8.249   4.890   2.114  0.0774 -0.5075 -0.2731
  332MOL0     H44814   8.304   4.925   1.857  0.4169  1.5628 -1.0121
  332MOL0     H44815   8.419   5.043   1.918  0.6219 -0.3184  1.2204
  332MOL0     H44816   8.611   4.677   1.986 -2.1527 -1.7336  0.8592
  332MOL0     H44817   8.094   5.022   2.491  3.0550  1.3392 -0.1856
  332MOL0     H44818   7.923   4.931   2.662 -1.6898 -0.4080 -0.8979
  332MOL0     H44819   7.939   5.046   2.793  0.2841  0.2732  0.0036
  332MOL0     H44820   7.793   5.022   2.698  0.5648 -4.7832  1.0017
  333MOL0     O44821   7.368   2.332   2.922 -0.2397 -0.0324  0.1802
  333MOL0     C44822   7.302   2.410   2.996  0.3534  0.5130 -0.2134
  333MOL0     O44823   7.301   2.550   2.991 -0.3900 -0.4274  0.1010
  333MOL0     C44824   7.389   2.607   2.903  0.4252  0.5200  0.2495
  333MOL0     C44825   7.338   2.694   2.798  0.1135  0.0423  0.6086
  333MOL0     C44826   7.428   2.752   2.712 -0.8094 -0.1294  0.3266
  333MOL0     C44827   7.568   2.740   2.732  0.0397  0.9760  0.7583
  333MOL0     O44828   7.642   2.810   2.641 -0.1694  0.7072 -0.3068
  333MOL0     C44829   7.788   2.786   2.652  0.7562  0.4210 -0.0415
  333MOL0     C44830   7.867   2.880   2.561  0.6181 -0.5138  0.8245
  333MOL0     C44831   7.860   3.023   2.604  0.6454 -0.5084  0.1085
  333MOL0     C44832   7.941   3.103   2.511  0.0209 -0.1490  0.2528
  333MOL0     C44833   7.919   3.258   2.538  0.3333 -0.4541 -0.3934
  333MOL0     C44834   7.957   3.364   2.423 -0.4789 -0.3452 -1.0462
  333MOL0     C44835   7.909   3.499   2.457 -0.0040 -0.2104 -0.1425
  333MOL0     C44836   7.919   3.594   2.338 -0.1811  0.1820  0.1533
  333MOL0     N44837   7.875   3.730   2.355  0.7424 -0.2865  0.5889
  333MOL0     C44838   7.743   3.764   2.363 -0.4241 -0.0802 -0.2805
  333MOL0     C44839   7.757   3.897   2.403  0.3395  0.0127  0.6397
  333MOL0     C44840   7.653   3.998   2.425 -0.2168  0.8639 -0.3197
  333MOL0     C44841   7.520   3.943   2.478 -0.1939  0.1716 -0.4637
  333MOL0     C44842   7.431   4.044   2.540  0.2259 -0.5083 -0.2378
  333MOL0     C44843   7.347   4.115   2.440  0.1501  0.4378 -0.3025
  333MOL0     O44844   7.417   4.201   2.356  0.2494  0.4287 -0.2038
  333MOL0     C44845   7.350   4.276   2.264  0.9719 -0.5631 -0.5297
  333MOL0     C44846   7.219   4.261   2.212  0.1830  0.1367  0.1189
  333MOL0     C44847   7.169   4.350   2.112 -0.2638 -0.2994  0.4458
  333MOL0     C44848   7.236   4.456   2.063 -0.6438 -0.7652 -0.3930
  333MOL0     C44849   7.177   4.558   1.972 -0.6399  0.3750  0.3893
  333MOL0     O44850   7.037   4.556   1.965  0.0483 -0.1904  0.1925
  333MOL0     C44851   6.968   4.638   1.879 -0.0335  0.2331  0.3912
  333MOL0     C44852   6.998   4.772   1.869 -0.5352 -0.5056  0.3718
  333MOL0     C44853   6.930   4.863   1.785  0.2100  0.8162 -0.4752
  333MOL0     C44854   6.828   4.812   1.705  0.0849 -0.2563 -0.4794
  333MOL0     O44855   6.752   4.885   1.616  0.4625 -0.7830 -0.4766
  333MOL0     C44856   6.737   5.029   1.656  0.1744  0.5628  0.5411
  333MOL0     C44857   6.627   5.072   1.550 -0.3587 -0.0844  0.1765
  333MOL0     C44858   6.588   5.211   1.559 -0.2936  0.6274 -0.4565
  333MOL0     C44859   6.508   5.232   1.696  0.0349  0.0306 -0.6251
  333MOL0     C44860   6.413   5.354   1.693  0.2513  0.8005 -0.3693
  333MOL0     C44861   6.331   5.361   1.824 -0.3838 -0.1029  0.7473
  333MOL0     C44862   6.288   5.501   1.844 -0.2152  0.5379 -0.1706
  333MOL0     C44863   6.281   5.535   1.997 -0.2069  0.0492  0.0961
  333MOL0    Cl44864   6.117   5.487   2.065 -0.0562 -0.1636 -0.3267
  333MOL0     C44865   6.806   4.672   1.707  0.3402 -1.0483 -0.0353
  333MOL0     C44866   6.864   4.593   1.792 -0.3651 -0.6092  0.3922
  333MOL0     O44867   7.253   4.637   1.914 -0.1972  0.5998  0.3176
  333MOL0     C44868   7.369   4.466   2.105 -0.3925 -0.3439 -0.1596
  333MOL0     C44869   7.429   4.375   2.205  0.2311 -0.4138  0.2389
  333MOL0     N44870   7.887   3.933   2.410  0.0587 -0.6001 -0.4562
  333MOL0     N44871   7.954   3.829   2.390  0.4750  0.0200  1.2145
  333MOL0     C44872   7.618   2.653   2.832 -0.0652 -0.1097  0.0744
  333MOL0     C44873   7.526   2.596   2.916  0.5548 -0.0180 -0.1486
  333MOL0     C44874   7.256   2.342   3.115 -0.6158 -0.0028 -1.2657
  333MOL0     C44875   7.270   2.411   3.234  1.3714 -0.6680 -0.2084
  333MOL0     C44876   7.229   2.362   3.356 -0.0682 -0.0797 -0.3181
  333MOL0     C44877   7.156   2.244   3.353  0.0224  0.2047 -0.9815
  333MOL0     O44878   7.078   2.196   3.462 -0.2591 -0.5850  0.0462
  333MOL0     C44879   7.076   2.262   3.591  1.0666  0.8972 -1.0660
  333MOL0     C44880   6.979   2.199   3.681  1.5450 -0.1291  0.6065
  333MOL0     C44881   6.832   2.209   3.625  0.0857  0.1126  0.2422
  333MOL0     C44882   6.756   2.342   3.665 -0.2751 -0.0027 -0.6448
  333MOL0     C44883   6.621   2.341   3.622  0.4208  0.1509  0.3356
  333MOL0     C44884   6.510   2.344   3.587 -0.0252  0.2089 -0.2449
  333MOL0     C44885   7.134   2.176   3.235 -0.8747  0.1870  0.4314
  333MOL0     C44886   7.186   2.218   3.114  0.6494 -0.9030 -0.0862
  333MOL0     C44887   7.151   2.136   2.997 -0.0444  0.6577  0.0652
  333MOL0     H44888   7.230   2.696   2.793  0.1884  0.9496 -2.5178
  333MOL0     H44889   7.397   2.810   2.626 -0.0921 -1.7073 -1.0652
  333MOL0     H44890   7.832   2.790   2.752 -2.7186  0.8848  1.6401
  333MOL0     H44891   7.804   2.689   2.604  4.2057 -0.0400  1.7748
  333MOL0     H44892   7.816   2.881   2.465 -1.0344  1.9420  1.6291
  333MOL0     H44893   7.972   2.852   2.559  0.6938 -0.2399 -1.4571
  333MOL0     H44894   7.902   3.011   2.705  0.1287 -5.0949  0.0171
  333MOL0     H44895   7.758   3.061   2.600  0.7210 -0.4192 -1.2292
  333MOL0     H44896   8.048   3.080   2.512  0.4057  1.2084 -2.4508
  333MOL0     H44897   7.910   3.078   2.410  2.6686 -0.6839 -0.4981
  333MOL0     H44898   7.817   3.284   2.568  1.0879  1.1260  0.9694
  333MOL0     H44899   7.989   3.290   2.616  0.5041  2.2375 -1.5366
  333MOL0     H44900   8.066   3.361   2.417 -0.0738  1.2882  2.8397
  333MOL0     H44901   7.916   3.326   2.328  1.3056 -2.0508 -1.1899
  333MOL0     H44902   7.960   3.535   2.547 -0.6606  0.2132  0.0691
  333MOL0     H44903   7.803   3.488   2.483  0.6560 -0.8213  2.7256
  333MOL0     H44904   8.025   3.579   2.317  0.7359  2.3938  2.6332
  333MOL0     H44905   7.869   3.565   2.245 -0.7773  0.4376  0.3859
  333MOL0     H44906   7.655   3.702   2.351  1.2650 -3.1668  2.0257
  333MOL0     H44907   7.684   4.088   2.479  2.2284 -0.0158 -0.1362
  333MOL0     H44908   7.624   4.042   2.329 -1.9968 -2.0992 -1.2644
  333MOL0     H44909   7.469   3.897   2.393 -2.2670  1.4121  0.0390
  333MOL0     H44910   7.535   3.860   2.547  0.1623 -0.1892 -0.9602
  333MOL0     H44911   7.503   4.110   2.591  1.7089 -2.1771 -0.0648
  333MOL0     H44912   7.367   3.985   2.606 -2.3925  1.0192 -1.2746
  333MOL0     H44913   7.267   4.162   2.498 -0.4999 -1.9788  0.8782
  333MOL0     H44914   7.292   4.044   2.377  0.5120  0.4081 -0.5846
  333MOL0     H44915   7.154   4.180   2.246 -0.7545  0.8110 -0.0184
  333MOL0     H44916   7.065   4.329   2.087 -0.3299  0.7758 -0.1839
  333MOL0     H44917   7.066   4.814   1.942  1.3256 -0.6293 -1.2176
  333MOL0     H44918   6.942   4.971   1.791  2.4883  0.5694  0.5813
  333MOL0     H44919   6.703   5.046   1.758 -1.1306 -0.2179  0.2507
  333MOL0     H44920   6.827   5.091   1.647  0.0260  0.6625 -0.3897
  333MOL0     H44921   6.665   5.053   1.449  1.3356 -2.9566  1.2308
  333MOL0     H44922   6.538   5.009   1.553  0.2294 -0.9518 -0.2981
  333MOL0     H44923   6.677   5.274   1.568  1.1073 -1.4469  1.4817
  333MOL0     H44924   6.532   5.232   1.468 -1.0316  1.6712  0.2203
  333MOL0     H44925   6.573   5.242   1.783 -0.3246 -1.4457 -0.1689
  333MOL0     H44926   6.453   5.138   1.706  1.6974 -0.7135  2.7115
  333MOL0     H44927   6.341   5.344   1.612  1.8234 -1.9161 -1.5686
  333MOL0     H44928   6.464   5.451   1.688 -2.3021  2.5104  2.8515
  333MOL0     H44929   6.253   5.285   1.827 -0.8933  0.0340 -3.1461
  333MOL0     H44930   6.404   5.336   1.901  0.8028  1.3654  0.1515
  333MOL0     H44931   6.197   5.523   1.787  1.1254  1.2689 -2.1185
  333MOL0     H44932   6.368   5.566   1.807  0.0095  0.1970 -0.2924
  333MOL0     H44933   6.353   5.472   2.049 -0.8006 -0.4056  0.3862
  333MOL0     H44934   6.304   5.640   2.021  0.8288 -0.7614  3.1142
  333MOL0     H44935   6.725   4.638   1.644  0.3751 -1.0368 -0.0868
  333MOL0     H44936   6.838   4.488   1.800  1.4607 -0.9513  2.9915
  333MOL0     H44937   7.428   4.550   2.070  1.0358 -1.8608 -1.5625
  333MOL0     H44938   7.532   4.375   2.239  0.2556 -2.4019  0.3197
  333MOL0     H44939   7.721   2.629   2.856 -0.1930  0.3793  1.1906
  333MOL0     H44940   7.563   2.535   2.998  0.1301 -0.9214 -0.6114
  333MOL0     H44941   7.317   2.508   3.238  0.9627 -0.4716 -0.1187
  333MOL0     H44942   7.253   2.427   3.440  0.8605  1.4801 -1.7311
  333MOL0     H44943   7.035   2.360   3.563 -2.2731  0.2804  1.0821
  333MOL0     H44944   7.177   2.264   3.634  1.0882 -1.8619 -0.8129
  333MOL0     H44945   6.970   2.237   3.783  2.3568  0.6509  0.4015
  333MOL0     H44946   7.012   2.096   3.694  0.1566 -0.3733  2.4289
  333MOL0     H44947   6.780   2.119   3.658  1.2254 -1.9412 -3.0984
  333MOL0     H44948   6.844   2.200   3.517  3.5263 -0.3442  0.5438
  333MOL0     H44949   6.751   2.346   3.774 -0.8341  1.0180 -0.6926
  333MOL0     H44950   6.803   2.435   3.634  0.7561 -0.9520 -2.0941
  333MOL0     H44951   6.406   2.348   3.565  0.3523  1.5204 -2.0079
  333MOL0     H44952   7.069   2.094   3.267  0.3616  0.0330  2.8027
  333MOL0     H44953   7.044   2.154   2.978  0.2139  2.9725  0.4880
  333MOL0     H44954   7.213   2.158   2.910  0.3040 -4.3890 -1.2601
  333MOL0     H44955   7.164   2.032   3.028  2.5568  0.8503 -0.2084
  334MOL0     O44956   4.318   7.266   9.236 -0.2998 -0.1412  0.4344
  334MOL0     C44957   4.237   7.254   9.326  0.9150  0.1085  0.4934
  334MOL0     O44958   4.166   7.134   9.354 -0.3097  0.6383  0.0819
  334MOL0     C44959   4.218   7.029   9.290 -0.3561 -0.0875  0.0799
  334MOL0     C44960   4.166   6.983   9.166 -0.1775 -0.3779 -0.3442
  334MOL0     C44961   4.212   6.866   9.116  0.3592 -0.4963  0.0086
  334MOL0     C44962   4.309   6.782   9.176 -0.0663 -0.2304 -0.7602
  334MOL0     O44963   4.367   6.678   9.113  0.7151 -0.5017 -1.0414
  334MOL0     C44964   4.490   6.713   9.044  0.2140  0.1682 -0.1481
  334MOL0     C44965   4.596   6.623   9.091 -0.0078 -0.2587 -0.5259
  334MOL0     C44966   4.730   6.695   9.074 -0.3865 -0.9404 -0.3408
  334MOL0     C44967   4.837   6.591   9.067 -0.1204  0.4925  0.2662
  334MOL0     C44968   4.956   6.634   9.152 -0.1289  0.0858 -0.2018
  334MOL0     C44969   5.061   6.523   9.146 -1.0742 -0.5460  1.1295
  334MOL0     C44970   5.201   6.567   9.177  0.3262 -0.3258  0.3905
  334MOL0     C44971   5.291   6.459   9.229  0.0046  0.5879 -0.0073
  334MOL0     N44972   5.302   6.350   9.126  0.0936 -0.3689  0.6123
  334MOL0     C44973   5.418   6.302   9.067  0.3526  0.2495 -0.1202
  334MOL0     C44974   5.381   6.181   9.019  0.2117 -1.5162 -0.5483
  334MOL0     C44975   5.471   6.070   8.983  0.4374 -0.3964  0.1321
  334MOL0     C44976   5.543   6.101   8.858  0.0889 -0.0783  1.8643
  334MOL0     C44977   5.477   6.047   8.725 -0.2441 -0.2966 -0.0435
  334MOL0     C44978   5.356   6.137   8.689  0.3059  0.6459  0.5863
  334MOL0     O44979   5.390   6.262   8.648 -0.6531  1.0277  0.1421
  334MOL0     C44980   5.437   6.283   8.518  0.6586 -0.5567  0.2991
  334MOL0     C44981   5.490   6.405   8.490 -0.6971  1.1797 -0.7187
  334MOL0     C44982   5.540   6.444   8.369 -0.6457 -0.5176 -1.1369
  334MOL0     C44983   5.545   6.345   8.265 -0.5358  0.0789 -0.2428
  334MOL0     C44984   5.601   6.378   8.136 -0.7416  0.0333 -0.6736
  334MOL0     O44985   5.667   6.493   8.134 -0.2425 -1.0573  0.3425
  334MOL0     C44986   5.704   6.554   8.013 -0.1564  0.9953  0.1298
  334MOL0     C44987   5.610   6.629   7.945  0.2203 -0.4920  0.3646
  334MOL0     C44988   5.642   6.708   7.835  0.4454  0.2741 -0.6391
  334MOL0     C44989   5.773   6.706   7.802 -0.4127 -0.2431  0.9429
  334MOL0     O44990   5.816   6.772   7.685 -0.4775  0.2227 -0.5207
  334MOL0     C44991   5.739   6.749   7.568 -0.2201  0.4559  0.0339
  334MOL0     C44992   5.837   6.729   7.449  0.4780 -0.9587 -0.1554
  334MOL0     C44993   5.803   6.816   7.332  0.1595  0.1671  0.2789
  334MOL0     C44994   5.670   6.756   7.271 -0.3802  0.1264 -0.5813
  334MOL0     C44995   5.597   6.866   7.178 -0.5482 -0.3648  0.2688
  334MOL0     C44996   5.464   6.822   7.118 -0.3651 -0.4313  0.1032
  334MOL0     C44997   5.399   6.704   7.194  0.0079  0.4494 -0.2165
  334MOL0     C44998   5.274   6.649   7.113 -0.4477  0.1696 -0.0347
  334MOL0    Cl44999   5.123   6.735   7.147 -0.3582  0.5146 -0.1792
  334MOL0     C45000   5.874   6.634   7.872  0.3990 -0.0119  0.1233
  334MOL0     C45001   5.839   6.569   7.986 -0.2860  0.4032 -0.3135
  334MOL0     O45002   5.576   6.314   8.036 -1.3230  0.6342  0.3456
  334MOL0     C45003   5.490   6.224   8.290 -0.1276  0.7756 -1.0642
  334MOL0     C45004   5.449   6.194   8.415  0.4864  0.9228  0.9734
  334MOL0     N45005   5.247   6.167   9.049  0.0937 -0.1502  0.2129
  334MOL0     N45006   5.206   6.262   9.117  0.4908 -0.1781  0.1177
  334MOL0     C45007   4.362   6.833   9.293  0.1625  0.6339 -0.0029
  334MOL0     C45008   4.330   6.958   9.347 -0.3633 -0.9019 -0.0730
  334MOL0     C45009   4.200   7.368   9.412  0.6533  0.0419 -0.0188
  334MOL0     C45010   4.083   7.354   9.505 -0.4828  0.3650  0.1139
  334MOL0     C45011   4.046   7.459   9.585 -0.9885 -0.0929  0.3725
  334MOL0     C45012   4.107   7.584   9.574  0.9367  0.6529  0.5582
  334MOL0     O45013   4.067   7.687   9.653  0.7349 -0.9868 -0.0271
  334MOL0     C45014   3.956   7.671   9.747  0.6943  0.0154 -0.1572
  334MOL0     C45015   3.942   7.790   9.837  0.8710 -0.7791  0.5636
  334MOL0     C45016   3.816   7.807   9.924 -0.9751  0.4670 -0.8939
  334MOL0     C45017   3.791   7.954   9.976  0.1347 -0.2363  0.5813
  334MOL0     C45018   3.883   7.988  10.082  0.5610  0.4044  0.0428
  334MOL0     C45019   3.945   8.018  10.178  0.4763 -0.6834  0.0132
  334MOL0     C45020   4.206   7.595   9.474 -0.2516  0.0046 -0.0203
  334MOL0     C45021   4.261   7.493   9.403 -0.2691 -0.5412 -0.4348
  334MOL0     C45022   4.395   7.513   9.332 -0.0423  0.6421  0.0835
  334MOL0     H45023   4.087   7.047   9.127  1.6970  1.3248 -1.4813
  334MOL0     H45024   4.175   6.830   9.021  1.5661 -1.0007 -0.2838
  334MOL0     H45025   4.486   6.690   8.938  0.7916 -1.8034  0.2316
  334MOL0     H45026   4.505   6.822   9.047 -0.2045  0.2288 -0.1753
  334MOL0     H45027   4.605   6.535   9.026 -0.7950  0.5878 -1.8136
  334MOL0     H45028   4.586   6.579   9.190 -1.4119 -2.2406 -1.4767
  334MOL0     H45029   4.739   6.765   9.157  1.1633 -3.6387  1.9608
  334MOL0     H45030   4.741   6.753   8.982  1.8370 -1.1228 -0.2357
  334MOL0     H45031   4.806   6.490   9.096  1.4488  0.9005  3.9854
  334MOL0     H45032   4.885   6.593   8.969  1.7274 -0.9113  1.0795
  334MOL0     H45033   4.977   6.734   9.113 -0.2370 -0.1907 -0.9900
  334MOL0     H45034   4.932   6.644   9.258 -0.7676  4.6374 -0.5743
  334MOL0     H45035   5.036   6.441   9.214 -2.0420 -1.4959 -0.3002
  334MOL0     H45036   5.069   6.475   9.048  2.7305 -2.5434  2.2453
  334MOL0     H45037   5.191   6.638   9.260 -1.1478  0.0202 -0.0565
  334MOL0     H45038   5.259   6.609   9.094  0.3050  1.7663  1.3642
  334MOL0     H45039   5.392   6.494   9.251  0.4887 -1.1120  0.6476
  334MOL0     H45040   5.254   6.431   9.329  1.1722 -0.9035  0.0383
  334MOL0     H45041   5.518   6.342   9.079 -0.2932  1.8705  0.1414
  334MOL0     H45042   5.541   6.056   9.066 -0.8775 -0.6134  1.2382
  334MOL0     H45043   5.416   5.976   8.969 -1.2611  0.3795  1.3096
  334MOL0     H45044   5.565   6.208   8.854  0.2405 -0.1536  0.4891
  334MOL0     H45045   5.638   6.046   8.856 -1.4912 -3.0804 -1.1710
  334MOL0     H45046   5.435   5.947   8.740  1.1497 -1.2690 -2.1840
  334MOL0     H45047   5.555   6.050   8.648 -0.0465  0.7466  0.1897
  334MOL0     H45048   5.290   6.145   8.775  2.7311 -3.2752  3.1573
  334MOL0     H45049   5.301   6.093   8.605 -4.7006  2.5949  2.4936
  334MOL0     H45050   5.501   6.476   8.571  0.4414  0.8688 -0.5817
  334MOL0     H45051   5.583   6.543   8.370  1.5749 -1.4063 -1.7288
  334MOL0     H45052   5.505   6.613   7.969 -0.4701  0.4788 -1.7886
  334MOL0     H45053   5.567   6.759   7.776 -1.7607 -1.2734  0.6581
  334MOL0     H45054   5.683   6.655   7.576  1.8568 -0.7519  1.1739
  334MOL0     H45055   5.679   6.837   7.543  1.5881  1.9644  0.7475
  334MOL0     H45056   5.936   6.762   7.481  0.4213 -1.8740  1.0002
  334MOL0     H45057   5.856   6.624   7.422  3.8164 -0.4633 -0.1440
  334MOL0     H45058   5.785   6.918   7.367 -1.3584 -0.0338  0.1487
  334MOL0     H45059   5.883   6.818   7.257 -3.2583 -1.8852 -3.9053
  334MOL0     H45060   5.605   6.720   7.352  2.4265 -3.2460  0.4044
  334MOL0     H45061   5.685   6.660   7.222  0.7169  0.6635 -1.3364
  334MOL0     H45062   5.667   6.905   7.104 -1.3695 -2.6503 -1.8434
  334MOL0     H45063   5.562   6.944   7.246 -3.6664 -1.0081 -0.4565
  334MOL0     H45064   5.399   6.910   7.127 -0.2567 -0.4434  1.0418
  334MOL0     H45065   5.482   6.797   7.013 -0.6545 -1.5592  0.3123
  334MOL0     H45066   5.370   6.737   7.294  1.4141 -5.6583  2.7079
  334MOL0     H45067   5.467   6.620   7.208 -0.2565  0.2815  0.0776
  334MOL0     H45068   5.307   6.639   7.010  2.5194 -1.8043  0.9785
  334MOL0     H45069   5.255   6.546   7.144 -3.8520 -0.2063 -2.7934
  334MOL0     H45070   5.981   6.631   7.855  0.7766  3.2593  1.2926
  334MOL0     H45071   5.916   6.530   8.052  1.6882 -0.9326 -3.2122
  334MOL0     H45072   5.491   6.155   8.207  1.9438 -2.5931  1.4593
  334MOL0     H45073   5.415   6.091   8.425  2.4910  0.4335  4.6432
  334MOL0     H45074   4.451   6.780   9.325 -0.4117 -0.4068 -0.1015
  334MOL0     H45075   4.388   6.999   9.429 -1.0022 -2.1723  1.0595
  334MOL0     H45076   4.034   7.258   9.511 -0.1408  0.1875  0.1267
  334MOL0     H45077   3.962   7.445   9.651 -1.4940 -1.5610 -0.5349
  334MOL0     H45078   3.964   7.585   9.814 -0.9038  1.3406  1.8462
  334MOL0     H45079   3.863   7.660   9.689  0.9762 -1.2208 -0.3938
  334MOL0     H45080   3.952   7.879   9.775 -1.2340 -2.7558 -2.9248
  334MOL0     H45081   4.019   7.780   9.914  0.0103 -1.2990  1.3785
  334MOL0     H45082   3.821   7.745  10.014  0.5588 -1.2297 -2.0646
  334MOL0     H45083   3.726   7.777   9.870 -1.2666  0.1051 -0.2211
  334MOL0     H45084   3.783   8.031   9.899 -1.9292 -0.8245  0.1330
  334MOL0     H45085   3.695   7.953  10.029  0.2605  0.3156  0.8218
  334MOL0     H45086   3.991   8.037  10.273  1.0164 -3.6149  0.4174
  334MOL0     H45087   4.257   7.690   9.459 -0.6767  0.1209 -0.7341
  334MOL0     H45088   4.376   7.525   9.225  1.1311 -3.7079 -0.7865
  334MOL0     H45089   4.448   7.599   9.374  0.0754  1.0323 -0.8296
  334MOL0     H45090   4.468   7.433   9.347 -0.9711 -0.2110  0.1093
  335MOL0     O45091   3.470   3.966   6.751  0.4241 -0.0773 -0.0020
  335MOL0     C45092   3.398   3.932   6.661  0.6830 -1.0919 -0.9282
  335MOL0     O45093   3.399   3.989   6.534  0.2733  0.9740 -1.1318
  335MOL0     C45094   3.452   4.111   6.523 -0.8836 -0.9322 -0.1619
  335MOL0     C45095   3.583   4.136   6.477 -0.2510 -0.8011 -0.1471
  335MOL0     C45096   3.633   4.267   6.472  0.4639  0.5332 -0.4686
  335MOL0     C45097   3.554   4.380   6.502 -1.6959  0.5844 -0.4364
  335MOL0     O45098   3.600   4.503   6.493 -0.2947  0.6225  0.4545
  335MOL0     C45099   3.515   4.600   6.425 -0.0222 -0.1559 -0.2646
  335MOL0     C45100   3.488   4.730   6.509 -0.9612 -0.5380  0.1218
  335MOL0     C45101   3.606   4.831   6.506 -0.2997  0.5098  0.3971
  335MOL0     C45102   3.565   4.957   6.577  0.0004  0.7264  0.7084
  335MOL0     C45103   3.665   5.074   6.568 -0.6121 -0.0709  0.5593
  335MOL0     C45104   3.622   5.197   6.640 -0.1036 -0.5806  0.9404
  335MOL0     C45105   3.700   5.323   6.587  0.7276  1.3797  0.6491
  335MOL0     C45106   3.690   5.438   6.680  0.3182  0.3204  0.1122
  335MOL0     N45107   3.760   5.551   6.609  0.5008  0.0513 -0.1266
  335MOL0     C45108   3.684   5.640   6.530 -0.3540 -0.1347 -0.6067
  335MOL0     C45109   3.770   5.733   6.490  0.5702  0.8269 -0.1744
  335MOL0     C45110   3.738   5.858   6.403  0.1973 -0.0123  0.0270
  335MOL0     C45111   3.679   5.830   6.258 -0.5057 -0.2536 -0.7686
  335MOL0     C45112   3.755   5.711   6.184  0.1830  0.0119  1.2337
  335MOL0     C45113   3.895   5.759   6.142  0.5756  0.1331 -0.6213
  335MOL0     O45114   3.890   5.870   6.049  0.4914 -0.9027 -0.2847
  335MOL0     C45115   3.994   5.954   6.037 -0.0818 -0.4877 -0.2464
  335MOL0     C45116   4.116   5.941   6.102  0.8849 -0.4559 -0.0577
  335MOL0     C45117   4.219   6.017   6.080 -0.8662 -0.5433 -0.2362
  335MOL0     C45118   4.220   6.123   5.992 -0.3678 -0.2011 -0.3453
  335MOL0     C45119   4.339   6.211   5.961  0.8366 -0.6171  0.8968
  335MOL0     O45120   4.301   6.333   5.904  0.6270  0.4005  0.3158
  335MOL0     C45121   4.406   6.417   5.855  0.8722 -0.2557 -0.6423
  335MOL0     C45122   4.456   6.404   5.728 -0.3892  0.6894  0.1078
  335MOL0     C45123   4.567   6.483   5.687 -0.4847 -0.7100 -0.0613
  335MOL0     C45124   4.618   6.575   5.767  0.3560 -0.9212  0.0374
  335MOL0     O45125   4.739   6.625   5.721  0.6456 -0.5243  0.2463
  335MOL0     C45126   4.812   6.721   5.796 -0.4098  0.3614  0.2251
  335MOL0     C45127   4.742   6.857   5.806  0.8547 -0.1504  0.5525
  335MOL0     C45128   4.692   6.910   5.665  0.2288  0.7952  0.0991
  335MOL0     C45129   4.627   7.053   5.672 -0.9038  0.3796  0.2395
  335MOL0     C45130   4.609   7.106   5.523 -0.0524 -0.3908  0.7454
  335MOL0     C45131   4.592   7.260   5.512 -0.0331  0.1283  0.2909
  335MOL0     C45132   4.706   7.356   5.554  0.1708  0.3806 -0.0346
  335MOL0     C45133   4.641   7.488   5.589  0.2149 -0.1172  0.3247
  335MOL0    Cl45134   4.524   7.535   5.454  0.3318  0.5798  0.5833
  335MOL0     C45135   4.570   6.598   5.894 -0.6389 -0.3995 -0.8081
  335MOL0     C45136   4.461   6.518   5.939 -0.0679  1.0252  0.1474
  335MOL0     O45137   4.454   6.164   5.974 -0.6528  0.6911  0.2543
  335MOL0     C45138   4.095   6.152   5.935  0.7647  0.2168 -0.7905
  335MOL0     C45139   3.980   6.072   5.961  0.2099  0.0141 -0.4638
  335MOL0     N45140   3.885   5.713   6.568 -0.1922  1.3725  0.0418
  335MOL0     N45141   3.885   5.600   6.626 -1.7547 -0.2617  0.4487
  335MOL0     C45142   3.426   4.356   6.544 -0.0277 -0.5892 -0.7358
  335MOL0     C45143   3.375   4.221   6.553  0.4869  0.2736 -0.2330
  335MOL0     C45144   3.325   3.801   6.684 -0.5250 -0.3637 -0.3666
  335MOL0     C45145   3.273   3.742   6.569  0.9442  0.0100  0.0836
  335MOL0     C45146   3.224   3.611   6.565  0.0186 -0.2819 -0.6281
  335MOL0     C45147   3.215   3.547   6.686  0.3762 -0.0798  0.1927
  335MOL0     O45148   3.169   3.410   6.692 -0.4231 -0.6518  0.1566
  335MOL0     C45149   3.186   3.339   6.568 -0.2516 -0.6448  0.7157
  335MOL0     C45150   3.163   3.197   6.574  0.1947 -0.5827 -0.1693
  335MOL0     C45151   3.236   3.130   6.458  0.4600  0.4344  0.2826
  335MOL0     C45152   3.218   2.976   6.475 -0.2910  0.7478  0.7846
  335MOL0     C45153   3.307   2.931   6.580  0.1006  0.6005  0.0063
  335MOL0     C45154   3.370   2.888   6.674 -0.2366  0.0286 -0.7855
  335MOL0     C45155   3.256   3.611   6.797 -0.9765  0.1233 -0.1251
  335MOL0     C45156   3.307   3.739   6.811  1.0071 -0.0940  0.1499
  335MOL0     C45157   3.320   3.808   6.945  0.1953 -0.4433  0.3145
  335MOL0     H45158   3.654   4.063   6.437 -0.5404 -0.8714 -0.5328
  335MOL0     H45159   3.732   4.290   6.434  2.2280 -2.5043  1.7617
  335MOL0     H45160   3.564   4.631   6.333 -1.7193  1.0751 -0.8171
  335MOL0     H45161   3.423   4.548   6.396  0.6739 -0.7178 -1.5276
  335MOL0     H45162   3.471   4.703   6.613  0.2260  1.4909  0.9058
  335MOL0     H45163   3.401   4.780   6.466 -1.2068 -1.1552 -0.1097
  335MOL0     H45164   3.643   4.853   6.405 -2.2382  0.8610 -0.2804
  335MOL0     H45165   3.694   4.799   6.563 -0.3350  1.1685  0.8314
  335MOL0     H45166   3.467   4.996   6.550 -0.8466 -0.9062  1.2951
  335MOL0     H45167   3.554   4.928   6.682  0.6479  1.8825  1.1135
  335MOL0     H45168   3.748   5.044   6.632  1.9379  1.2709 -1.8831
  335MOL0     H45169   3.703   5.097   6.468 -0.7757  0.4016  0.6039
  335MOL0     H45170   3.517   5.223   6.620  0.4298  0.2337 -1.1138
  335MOL0     H45171   3.639   5.170   6.745  3.3755  1.5895  1.0961
  335MOL0     H45172   3.660   5.353   6.490 -1.4373 -0.6984  0.8145
  335MOL0     H45173   3.805   5.297   6.568  0.2398 -0.4231  0.1738
  335MOL0     H45174   3.583   5.453   6.698 -0.2136 -2.1255 -0.6096
  335MOL0     H45175   3.735   5.417   6.778 -3.7714 -0.3544  2.1122
  335MOL0     H45176   3.577   5.628   6.512 -1.1019 -2.4891  3.8957
  335MOL0     H45177   3.657   5.908   6.457  1.2206  1.8256 -0.0826
  335MOL0     H45178   3.822   5.926   6.394 -0.5575  0.8899 -0.3231
  335MOL0     H45179   3.572   5.809   6.264 -0.3714 -0.4034  2.8140
  335MOL0     H45180   3.694   5.930   6.215 -1.6144 -1.0068 -3.0741
  335MOL0     H45181   3.696   5.686   6.096 -0.3373  0.2921  1.4977
  335MOL0     H45182   3.756   5.625   6.252 -1.3283 -0.5732  0.5552
  335MOL0     H45183   3.967   5.681   6.115 -0.3550 -0.3602 -1.7948
  335MOL0     H45184   3.950   5.798   6.227  0.8820  0.5918 -1.0235
  335MOL0     H45185   4.135   5.863   6.175  1.9449  1.3986  1.7776
  335MOL0     H45186   4.308   5.994   6.138 -0.6127 -0.0407 -0.4148
  335MOL0     H45187   4.420   6.334   5.653  2.1528  0.5762 -1.0889
  335MOL0     H45188   4.610   6.453   5.592  0.2251  1.7414 -0.5775
  335MOL0     H45189   4.837   6.683   5.895  1.5434  1.9547  0.4036
  335MOL0     H45190   4.909   6.735   5.747 -0.6305  1.4627  0.0647
  335MOL0     H45191   4.676   6.867   5.893  1.1752  1.0425  0.6780
  335MOL0     H45192   4.821   6.931   5.824  0.1459  0.6052  0.6313
  335MOL0     H45193   4.776   6.892   5.597 -1.6972  0.4989 -2.3447
  335MOL0     H45194   4.615   6.842   5.627  1.2269 -0.6388  0.5247
  335MOL0     H45195   4.698   7.117   5.725 -0.6784  2.5707 -2.4654
  335MOL0     H45196   4.532   7.046   5.725 -0.3014 -0.0854  1.2781
  335MOL0     H45197   4.520   7.054   5.487  0.8847 -1.7159  0.2259
  335MOL0     H45198   4.691   7.067   5.462 -1.1937 -0.0776 -1.0780
  335MOL0     H45199   4.578   7.294   5.409  0.8889  0.6561  0.3270
  335MOL0     H45200   4.504   7.274   5.575 -0.6248 -0.8126 -0.3144
  335MOL0     H45201   4.762   7.376   5.462 -0.7889 -2.7273 -1.4518
  335MOL0     H45202   4.768   7.310   5.631 -0.2977 -1.8255 -0.8856
  335MOL0     H45203   4.591   7.469   5.685 -0.4047  3.4898  0.8566
  335MOL0     H45204   4.718   7.565   5.595 -0.7470  1.0628 -1.5764
  335MOL0     H45205   4.606   6.668   5.968 -1.3942 -0.9320  0.0791
  335MOL0     H45206   4.425   6.529   6.041  0.0756  1.6913  0.1314
  335MOL0     H45207   4.082   6.251   5.894  0.7059  1.2722  1.6204
  335MOL0     H45208   3.886   6.101   5.916 -1.6351 -0.7208  2.5719
  335MOL0     H45209   3.368   4.443   6.575  0.2677  0.1575 -2.2054
  335MOL0     H45210   3.276   4.183   6.579  1.3330 -1.0697  1.1700
  335MOL0     H45211   3.281   3.795   6.474 -0.3889  1.2989  0.6623
  335MOL0     H45212   3.189   3.583   6.466 -0.0896  0.8099 -0.9078
  335MOL0     H45213   3.281   3.361   6.519 -0.0667  2.6716  2.2656
  335MOL0     H45214   3.117   3.375   6.491  0.4062  0.7829  0.7612
  335MOL0     H45215   3.058   3.166   6.585  1.5459 -5.0064  3.3384
  335MOL0     H45216   3.207   3.160   6.667  2.5140  1.0951 -0.5111
  335MOL0     H45217   3.343   3.151   6.463  0.6465 -0.6635  1.5453
  335MOL0     H45218   3.203   3.162   6.359  0.5948 -0.7850 -0.1686
  335MOL0     H45219   3.116   2.941   6.491 -0.0026 -1.3742 -1.4104
  335MOL0     H45220   3.248   2.918   6.387 -0.4776 -1.6599  2.1943
  335MOL0     H45221   3.418   2.856   6.764 -0.9338 -0.8206 -0.7030
  335MOL0     H45222   3.249   3.547   6.884  0.1545 -0.1646 -0.2366
  335MOL0     H45223   3.265   3.902   6.944 -0.0168 -0.5069  2.2897
  335MOL0     H45224   3.268   3.751   7.023 -0.0986 -1.5981 -0.7035
  335MOL0     H45225   3.424   3.823   6.976  0.1489 -1.4411  1.0101
  336MOL0     O45226   2.669   1.425   1.829  0.8802  0.0255 -0.7843
  336MOL0     C45227   2.552   1.457   1.857  0.0877  0.5161  0.4251
  336MOL0     O45228   2.504   1.482   1.979  0.0533 -0.7175 -0.1714
  336MOL0     C45229   2.589   1.470   2.087 -0.1656  0.1908  0.1795
  336MOL0     C45230   2.651   1.581   2.146  0.4257  0.7630 -0.9487
  336MOL0     C45231   2.722   1.562   2.265 -0.4654 -0.6303  1.0316
  336MOL0     C45232   2.742   1.434   2.322 -0.0505 -0.7314  0.1330
  336MOL0     O45233   2.814   1.406   2.434  0.1540 -0.3114 -0.5349
  336MOL0     C45234   2.829   1.504   2.535  0.1408  0.1595 -0.9494
  336MOL0     C45235   2.850   1.421   2.666  0.2719 -1.3869 -0.8288
  336MOL0     C45236   2.868   1.515   2.786  0.2738  0.8685 -1.1416
  336MOL0     C45237   2.861   1.420   2.910  1.1065  1.2945  0.6871
  336MOL0     C45238   2.851   1.504   3.044 -0.0600  0.7570  0.5546
  336MOL0     C45239   2.985   1.582   3.071 -0.4610 -0.2521  0.4657
  336MOL0     C45240   2.972   1.705   3.163 -0.3343 -0.6890  0.0921
  336MOL0     C45241   2.871   1.815   3.135 -0.2288  0.2478 -0.4992
  336MOL0     N45242   2.915   1.916   3.039 -0.2765  0.4798  0.1020
  336MOL0     C45243   2.888   1.922   2.905  0.9533  0.2116 -0.3753
  336MOL0     C45244   2.950   2.035   2.864 -0.3047  0.4705  0.2320
  336MOL0     C45245   2.934   2.094   2.731  1.8468 -0.4050 -0.1165
  336MOL0     C45246   2.784   2.132   2.702  0.6499  0.3118 -0.3356
  336MOL0     C45247   2.741   2.236   2.810  0.5939 -0.1486  0.2813
  336MOL0     C45248   2.596   2.254   2.807 -0.5974  0.1372 -0.2352
  336MOL0     O45249   2.521   2.132   2.844 -0.9195 -0.1380 -0.9878
  336MOL0     C45250   2.558   2.065   2.955 -0.5698 -0.8106 -0.5414
  336MOL0     C45251   2.613   2.120   3.075  0.5132 -0.8316  0.9530
  336MOL0     C45252   2.626   2.044   3.190 -0.5845 -0.6803 -0.3751
  336MOL0     C45253   2.580   1.912   3.188 -0.7562 -0.1692  0.2090
  336MOL0     C45254   2.594   1.823   3.300  0.5037 -0.9941 -0.5057
  336MOL0     O45255   2.535   1.704   3.293 -0.0843  0.4940 -0.4403
  336MOL0     C45256   2.548   1.620   3.402 -0.2702  0.2156  1.0507
  336MOL0     C45257   2.438   1.613   3.496  0.5736 -0.0696 -0.3693
  336MOL0     C45258   2.441   1.521   3.598 -0.8518  0.2415  0.1428
  336MOL0     C45259   2.562   1.445   3.616 -0.0606  0.1822  1.0600
  336MOL0     O45260   2.598   1.380   3.732 -0.9292  0.0580 -0.3723
  336MOL0     C45261   2.725   1.410   3.790 -0.0125  0.9783 -0.6988
  336MOL0     C45262   2.747   1.360   3.933  0.5512  0.0490 -1.1166
  336MOL0     C45263   2.885   1.390   3.989 -0.6755 -0.7668 -0.0655
  336MOL0     C45264   2.896   1.331   4.133  0.2583  0.3095 -0.3418
  336MOL0     C45265   3.018   1.364   4.209 -0.6088 -0.2358  0.0609
  336MOL0     C45266   3.152   1.316   4.154 -0.8799  0.7659  0.4299
  336MOL0     C45267   3.154   1.166   4.119 -0.4587 -0.1037 -0.1522
  336MOL0     C45268   3.303   1.130   4.090  0.1946  0.1293 -1.6101
  336MOL0    Cl45269   3.337   1.152   3.918  0.7272 -0.1457 -0.2743
  336MOL0     C45270   2.663   1.451   3.519 -0.2300 -0.3609  0.5394
  336MOL0     C45271   2.663   1.536   3.410  0.1033 -0.4071  0.2270
  336MOL0     O45272   2.657   1.863   3.399  0.0501  0.0540  0.0293
  336MOL0     C45273   2.528   1.857   3.070 -0.4951  0.8246 -0.1003
  336MOL0     C45274   2.516   1.929   2.952 -0.5656  0.1771 -0.2255
  336MOL0     N45275   3.010   2.100   2.968 -0.8959  0.4441  0.1101
  336MOL0     N45276   2.993   2.020   3.070 -0.4072 -0.3709  0.3688
  336MOL0     C45277   2.683   1.325   2.253 -0.4434  0.2308 -0.0598
  336MOL0     C45278   2.613   1.344   2.135  0.2550 -0.0080  0.6307
  336MOL0     C45279   2.453   1.448   1.750  0.1475  0.4579 -0.3775
  336MOL0     C45280   2.322   1.446   1.791 -0.8038 -0.1547 -0.0297
  336MOL0     C45281   2.223   1.416   1.698  0.8888 -0.3561 -0.2124
  336MOL0     C45282   2.256   1.388   1.570  0.5169  0.4662  0.5099
  336MOL0     O45283   2.173   1.353   1.470  0.7689 -0.5536  0.4040
  336MOL0     C45284   2.076   1.261   1.507 -0.4556 -0.1748 -0.0884
  336MOL0     C45285   1.934   1.324   1.495 -0.1474  1.0005 -0.2565
  336MOL0     C45286   1.918   1.333   1.344 -0.8940  0.0819  0.7481
  336MOL0     C45287   1.789   1.406   1.318  0.1565 -1.2107  0.0391
  336MOL0     C45288   1.813   1.553   1.330 -0.2023 -0.2662  0.0360
  336MOL0     C45289   1.828   1.672   1.335 -0.8004 -0.2208  0.2637
  336MOL0     C45290   2.388   1.401   1.520 -0.5685  0.0572 -0.6075
  336MOL0     C45291   2.492   1.439   1.613  0.1540  0.7503  0.1483
  336MOL0     C45292   2.632   1.442   1.559  0.2813  0.3674  0.1053
  336MOL0     H45293   2.638   1.684   2.115  0.2540  1.0165 -0.0527
  336MOL0     H45294   2.774   1.646   2.310 -1.8019  1.1514 -0.6103
  336MOL0     H45295   2.912   1.571   2.512 -2.2141  3.2189 -1.2472
  336MOL0     H45296   2.734   1.558   2.534 -0.3570 -0.3996  2.5144
  336MOL0     H45297   2.945   1.373   2.641  2.9688  1.7135  2.4179
  336MOL0     H45298   2.766   1.357   2.696 -1.0367  1.6190  2.7989
  336MOL0     H45299   2.788   1.590   2.788 -0.9657 -0.4060  1.5893
  336MOL0     H45300   2.956   1.580   2.784 -0.3422  1.7360 -3.0643
  336MOL0     H45301   2.783   1.344   2.903  0.3296  2.2315 -1.6684
  336MOL0     H45302   2.957   1.367   2.920 -0.1749 -1.0347  1.3898
  336MOL0     H45303   2.768   1.573   3.028 -0.2737 -0.3162 -4.5950
  336MOL0     H45304   2.830   1.435   3.126 -4.7420  0.9137 -0.2175
  336MOL0     H45305   3.057   1.513   3.114 -2.4756 -3.5069 -1.0150
  336MOL0     H45306   3.025   1.616   2.976  0.0223  0.5101  0.9311
  336MOL0     H45307   3.074   1.744   3.159 -0.0485 -1.2349  1.4792
  336MOL0     H45308   2.954   1.669   3.265 -1.3878  0.2491  0.2638
  336MOL0     H45309   2.777   1.765   3.107 -1.0809  0.2708  2.1056
  336MOL0     H45310   2.853   1.855   3.235 -0.3414  0.3350 -0.5540
  336MOL0     H45311   2.828   1.858   2.840  1.8436 -2.0113  0.8514
  336MOL0     H45312   2.987   2.188   2.716 -0.1922  1.0481  1.1870
  336MOL0     H45313   2.966   2.025   2.652 -0.7477 -0.2107 -1.4583
  336MOL0     H45314   2.764   2.163   2.599  3.5868 -1.4828 -1.5978
  336MOL0     H45315   2.725   2.040   2.709 -0.8851  1.2787 -0.0862
  336MOL0     H45316   2.775   2.335   2.781  2.4546 -0.2120  2.0391
  336MOL0     H45317   2.779   2.216   2.911  2.1944  2.2249  0.2202
  336MOL0     H45318   2.577   2.287   2.704 -1.2017  2.6217  0.5843
  336MOL0     H45319   2.561   2.336   2.872  2.3344  0.7595  0.6889
  336MOL0     H45320   2.645   2.224   3.077  0.5063 -0.6943 -1.9227
  336MOL0     H45321   2.667   2.075   3.286 -1.8510  1.3163 -0.4219
  336MOL0     H45322   2.348   1.673   3.485  1.6761  1.9625  0.9741
  336MOL0     H45323   2.365   1.525   3.676 -3.6132 -1.9596 -2.1873
  336MOL0     H45324   2.797   1.351   3.732 -1.9783 -0.5788 -1.6898
  336MOL0     H45325   2.740   1.518   3.777  1.7802  0.6374 -1.9881
  336MOL0     H45326   2.663   1.396   3.994 -0.6357 -2.6943 -0.9715
  336MOL0     H45327   2.741   1.251   3.926 -1.5521 -0.1813  2.2106
  336MOL0     H45328   2.956   1.337   3.925 -1.0807 -3.3847  1.5050
  336MOL0     H45329   2.906   1.497   3.982 -1.9348 -0.1936  3.1641
  336MOL0     H45330   2.883   1.222   4.136 -0.2732  0.3744  2.2769
  336MOL0     H45331   2.811   1.374   4.187 -0.9329 -1.4379 -0.7447
  336MOL0     H45332   3.012   1.309   4.303 -1.0620 -3.5582 -1.7713
  336MOL0     H45333   3.010   1.473   4.218  1.7515  0.2861 -2.4573
  336MOL0     H45334   3.174   1.372   4.063 -0.7064  0.4826  0.2939
  336MOL0     H45335   3.240   1.334   4.217  0.4580 -2.5118 -0.2604
  336MOL0     H45336   3.093   1.151   4.029 -0.9076  2.3450 -0.3245
  336MOL0     H45337   3.118   1.101   4.199  0.3195 -1.3501 -0.7732
  336MOL0     H45338   3.374   1.185   4.152 -0.6766 -0.2186 -0.2735
  336MOL0     H45339   3.326   1.024   4.101 -3.9741 -0.6845  2.3749
  336MOL0     H45340   2.750   1.388   3.533 -1.6044 -2.7504 -0.9964
  336MOL0     H45341   2.742   1.540   3.336  0.5474 -1.1712  0.6448
  336MOL0     H45342   2.495   1.754   3.062 -0.2955  0.8855 -2.0176
  336MOL0     H45343   2.458   1.896   2.867 -2.6682 -0.8346  1.4931
  336MOL0     H45344   2.693   1.226   2.296 -1.0636  1.4277  3.2124
  336MOL0     H45345   2.572   1.253   2.091  0.6455  0.6240 -1.1090
  336MOL0     H45346   2.277   1.471   1.887 -2.2024 -0.4507 -0.5899
  336MOL0     H45347   2.116   1.418   1.715  0.4593 -4.7415 -1.0283
  336MOL0     H45348   2.086   1.225   1.610  0.4628 -1.0710 -0.4753
  336MOL0     H45349   2.102   1.175   1.446 -0.8603  0.5198 -1.2740
  336MOL0     H45350   1.930   1.423   1.542  3.5475  1.3693 -0.4200
  336MOL0     H45351   1.854   1.264   1.538 -1.0533  2.8774  0.8178
  336MOL0     H45352   1.908   1.228   1.313 -0.9265 -0.4732  2.5186
  336MOL0     H45353   2.004   1.376   1.293  0.6769 -2.2333  1.2822
  336MOL0     H45354   1.760   1.393   1.213 -0.6076  3.4535 -0.5513
  336MOL0     H45355   1.713   1.377   1.391 -0.1807  2.8383  1.5708
  336MOL0     H45356   1.866   1.772   1.342  0.7054 -0.6127 -1.3954
  336MOL0     H45357   2.410   1.384   1.415  2.2994  2.2333 -0.4858
  336MOL0     H45358   2.646   1.446   1.450  3.8863  0.0023  0.4421
  336MOL0     H45359   2.691   1.529   1.588 -1.3348  0.6937  2.6997
  336MOL0     H45360   2.683   1.357   1.603  4.1156  2.3200 -0.1442
  337MOL0     O45361   8.580  10.877   5.176  0.8053 -0.0146 -0.0438
  337MOL0     C45362   8.577  10.819   5.287  0.1875  0.3623  0.3839
  337MOL0     O45363   8.464  10.774   5.350 -0.9696 -0.1863  0.2898
  337MOL0     C45364   8.350  10.810   5.299  0.4783  0.1443  0.2304
  337MOL0     C45365   8.279  10.935   5.333  0.1398 -0.7091  0.6125
  337MOL0     C45366   8.157  10.969   5.280  0.4140  0.9163  0.0558
  337MOL0     C45367   8.099  10.876   5.188  0.2320  1.0733  0.1913
  337MOL0     O45368   7.970  10.883   5.143  0.2331  0.5342 -0.5852
  337MOL0     C45369   7.873  10.951   5.226 -0.1778 -0.0928  0.1253
  337MOL0     C45370   7.737  10.962   5.151 -0.6879  0.0479  0.0024
  337MOL0     C45371   7.629  10.909   5.232 -0.0909  0.8727 -0.2822
  337MOL0     C45372   7.589  10.975   5.367 -0.8047 -0.3825  0.3632
  337MOL0     C45373   7.459  10.936   5.417  1.1458 -0.6701  0.0319
  337MOL0     C45374   7.463  10.807   5.502 -0.0909  0.3182  0.8434
  337MOL0     C45375   7.328  10.737   5.502  0.0955  0.8640  0.6765
  337MOL0     C45376   7.211  10.814   5.555 -0.3471  0.5761  0.2455
  337MOL0     N45377   7.085  10.734   5.565 -0.1008 -0.1883  0.4663
  337MOL0     C45378   6.986  10.713   5.470  0.1327 -0.0338  0.7258
  337MOL0     C45379   6.895  10.639   5.524 -0.7844  0.6507 -0.1854
  337MOL0     C45380   6.767  10.587   5.465  0.1763 -0.3361  0.0172
  337MOL0     C45381   6.641  10.625   5.543  0.2159  0.7176 -0.1492
  337MOL0     C45382   6.638  10.545   5.671 -0.3962  1.4675 -0.0949
  337MOL0     C45383   6.509  10.572   5.756 -1.0317 -0.7362 -0.2890
  337MOL0     O45384   6.388  10.535   5.688  0.1740  0.3504  0.3137
  337MOL0     C45385   6.279  10.525   5.775 -1.4025  0.4897  0.1271
  337MOL0     C45386   6.229  10.404   5.824 -0.4108 -0.3089 -0.3465
  337MOL0     C45387   6.105  10.391   5.886  0.6977  0.3708  1.2553
  337MOL0     C45388   6.042  10.503   5.938 -0.2315  0.7273 -0.1140
  337MOL0     C45389   5.907  10.495   6.001  0.3561 -0.4987 -0.0926
  337MOL0     O45390   5.839  10.379   6.004 -1.1764 -0.3218  0.5913
  337MOL0     C45391   5.707  10.380   6.019  1.0695  0.5371 -0.7848
  337MOL0     C45392   5.621  10.464   5.951  0.1184  0.1710 -0.4428
  337MOL0     C45393   5.482  10.466   5.986 -1.3452 -0.8401 -0.4350
  337MOL0     C45394   5.433  10.370   6.075 -0.7388  1.0126 -0.1097
  337MOL0     O45395   5.303  10.363   6.108 -0.2010 -0.3484 -0.4563
  337MOL0     C45396   5.233  10.483   6.140  0.7596  0.4560 -0.1815
  337MOL0     C45397   5.082  10.464   6.166 -0.2216 -0.2888  0.0974
  337MOL0     C45398   5.002  10.447   6.033 -0.6518 -0.0763 -0.0776
  337MOL0     C45399   5.014  10.579   5.956  1.5047  0.2014  0.1025
  337MOL0     C45400   4.906  10.577   5.831 -0.4626 -0.1531  0.1904
  337MOL0     C45401   4.911  10.704   5.753  0.0075 -0.0463  0.3612
  337MOL0     C45402   4.836  10.694   5.631 -0.5489 -0.8304 -0.1715
  337MOL0     C45403   4.877  10.806   5.541  0.0208  0.2068 -0.7800
  337MOL0    Cl45404   4.834  10.749   5.384  0.3850  0.3444 -0.2903
  337MOL0     C45405   5.512  10.272   6.131  0.5033 -0.3192 -0.5266
  337MOL0     C45406   5.652  10.288   6.109  0.0899  0.0039  0.5367
  337MOL0     O45407   5.863  10.609   6.037 -0.1335 -0.2769  0.3628
  337MOL0     C45408   6.088  10.622   5.907 -0.2524 -0.7300 -0.1166
  337MOL0     C45409   6.205  10.635   5.820  0.4756  0.2424  0.5987
  337MOL0     N45410   6.943  10.608   5.654 -0.4566  0.0833 -0.1687
  337MOL0     N45411   7.047  10.672   5.677 -0.7869  0.5220  0.2469
  337MOL0     C45412   8.170  10.757   5.151  0.8725  0.1450 -0.8486
  337MOL0     C45413   8.294  10.728   5.201 -0.3173 -0.5895 -0.2811
  337MOL0     C45414   8.701  10.780   5.335  0.2220  1.2961 -1.0397
  337MOL0     C45415   8.693  10.686   5.446  0.2012  0.5097 -0.6031
  337MOL0     C45416   8.807  10.641   5.513  0.8026  0.0229 -0.5762
  337MOL0     C45417   8.932  10.689   5.476 -0.4468  1.0736 -0.7556
  337MOL0     O45418   9.052  10.651   5.532  0.2698  0.4086 -0.2030
  337MOL0     C45419   9.048  10.534   5.623 -0.3996 -0.2035  0.3007
  337MOL0     C45420   9.186  10.463   5.613 -0.1214  0.9063 -0.4071
  337MOL0     C45421   9.203  10.406   5.469 -0.0636 -0.5524  0.5298
  337MOL0     C45422   9.106  10.285   5.441  0.9043  0.0669 -0.9226
  337MOL0     C45423   9.145  10.164   5.521  0.1282 -0.4030 -0.0960
  337MOL0     C45424   9.154  10.080   5.612 -0.5737  0.0590 -0.2157
  337MOL0     C45425   8.942  10.791   5.380  0.5377 -0.3196  0.6431
  337MOL0     C45426   8.827  10.831   5.304  0.2827  0.2863 -0.7442
  337MOL0     C45427   8.856  10.937   5.199  0.0049  0.0839 -0.2384
  337MOL0     H45428   8.320  10.998   5.411 -2.9966 -2.2771  3.7865
  337MOL0     H45429   8.105  11.063   5.299 -0.5308  0.3051  0.5647
  337MOL0     H45430   7.864  10.915   5.329  0.4429  1.1764  0.6511
  337MOL0     H45431   7.912  11.053   5.237  3.0816 -0.9912 -1.6063
  337MOL0     H45432   7.734  10.915   5.052 -0.9471 -1.1792  0.5661
  337MOL0     H45433   7.717  11.069   5.152 -1.2979 -0.0634  0.2961
  337MOL0     H45434   7.647  10.801   5.243 -2.7868  0.4453  1.0295
  337MOL0     H45435   7.541  10.923   5.168 -0.0476  0.0550 -0.5370
  337MOL0     H45436   7.665  10.960   5.444 -1.9192  1.9181  2.0551
  337MOL0     H45437   7.579  11.080   5.337  0.5786 -0.0336  1.0636
  337MOL0     H45438   7.411  11.022   5.464 -0.1200 -0.1790 -2.0252
  337MOL0     H45439   7.392  10.910   5.334 -3.0910  0.9497  2.6002
  337MOL0     H45440   7.529  10.729   5.462 -1.8103 -0.8236  0.0994
  337MOL0     H45441   7.491  10.839   5.603 -1.8654 -0.7327  1.7149
  337MOL0     H45442   7.330  10.655   5.575 -1.0991 -0.4631 -0.6928
  337MOL0     H45443   7.305  10.693   5.404 -0.2762  0.5851  0.8846
  337MOL0     H45444   7.240  10.845   5.656 -1.0335  2.0899 -0.0057
  337MOL0     H45445   7.188  10.906   5.502 -1.7745 -0.0151 -0.2009
  337MOL0     H45446   6.976  10.764   5.374 -2.1355 -2.8262 -0.6591
  337MOL0     H45447   6.749  10.654   5.380 -2.1018 -0.1113  0.6274
  337MOL0     H45448   6.772  10.480   5.443  3.8406  0.0510 -1.8445
  337MOL0     H45449   6.644  10.730   5.573  3.4267  1.2854 -1.9619
  337MOL0     H45450   6.555  10.600   5.480  1.9423 -4.1001 -1.0198
  337MOL0     H45451   6.725  10.563   5.734 -0.3881  0.1295  0.2900
  337MOL0     H45452   6.627  10.443   5.633 -1.0345  1.5322 -0.1018
  337MOL0     H45453   6.504  10.676   5.788 -0.3969 -1.2310  1.5286
  337MOL0     H45454   6.506  10.507   5.844  0.0404  0.0393  0.3391
  337MOL0     H45455   6.283  10.314   5.796  1.8802  1.1034 -0.6999
  337MOL0     H45456   6.064  10.291   5.894  2.8434 -0.6859 -0.0835
  337MOL0     H45457   5.659  10.515   5.864 -2.0160 -0.0120 -1.5596
  337MOL0     H45458   5.417  10.533   5.932  2.5978  2.5885 -1.4188
  337MOL0     H45459   5.275  10.509   6.237 -0.9899 -0.2583  0.8192
  337MOL0     H45460   5.244  10.566   6.070 -0.2850 -0.8264 -1.9499
  337MOL0     H45461   5.078  10.369   6.220  0.6965 -0.6911 -0.5249
  337MOL0     H45462   5.040  10.543   6.229 -0.7811 -1.3866  1.1173
  337MOL0     H45463   5.043  10.362   5.978  3.1413  1.8158 -0.5228
  337MOL0     H45464   4.896  10.433   6.052 -0.7925 -0.4199 -1.0349
  337MOL0     H45465   5.108  10.587   5.901  0.8727 -0.7601 -1.1764
  337MOL0     H45466   4.991  10.660   6.026 -1.5877 -0.6741  0.2669
  337MOL0     H45467   4.803  10.569   5.867 -0.3284  1.0044  0.8631
  337MOL0     H45468   4.935  10.495   5.764  1.6333 -0.8200  1.8017
  337MOL0     H45469   4.863  10.778   5.818 -4.4146 -1.3832 -1.0216
  337MOL0     H45470   5.016  10.732   5.736 -0.9334  2.8658 -1.4737
  337MOL0     H45471   4.729  10.708   5.651 -0.0712  2.4157  0.6631
  337MOL0     H45472   4.853  10.596   5.585  0.1746 -1.1523  0.7423
  337MOL0     H45473   4.814  10.892   5.564 -0.1727 -0.2237  0.3526
  337MOL0     H45474   4.984  10.826   5.545  0.5085 -2.2905  1.4738
  337MOL0     H45475   5.479  10.186   6.189 -1.8236  0.5044 -0.4889
  337MOL0     H45476   5.717  10.217   6.159  0.9180 -2.1481 -3.1751
  337MOL0     H45477   6.036  10.714   5.931  1.1489  0.2676 -0.6855
  337MOL0     H45478   6.226  10.737   5.790  0.2490  0.4608  1.1747
  337MOL0     H45479   8.116  10.686   5.089 -1.3112 -1.9563  3.0551
  337MOL0     H45480   8.344  10.638   5.165 -1.5763 -1.6760  0.5637
  337MOL0     H45481   8.606  10.642   5.494  0.0962  0.1683 -1.0975
  337MOL0     H45482   8.798  10.568   5.593  0.2688  0.2057 -0.4683
  337MOL0     H45483   8.971  10.464   5.590 -0.4146  0.0121 -0.1313
  337MOL0     H45484   9.032  10.562   5.728 -2.7990  0.9749 -0.3152
  337MOL0     H45485   9.174  10.391   5.695  0.7636  1.2696  0.0569
  337MOL0     H45486   9.266  10.533   5.638  1.3056 -0.2425 -1.5839
  337MOL0     H45487   9.305  10.370   5.451 -0.5253 -0.7631 -2.0683
  337MOL0     H45488   9.199  10.488   5.397 -0.9373 -0.1407  1.0264
  337MOL0     H45489   9.004  10.313   5.466  0.5951 -2.7591  1.5833
  337MOL0     H45490   9.108  10.256   5.336 -3.5578  0.7004 -1.3808
  337MOL0     H45491   9.162  10.019   5.699  1.0490  0.9161  0.2976
  337MOL0     H45492   9.038  10.839   5.369  0.2310 -0.0132 -0.9874
  337MOL0     H45493   8.785  11.020   5.199  0.0147  0.0969  0.1442
  337MOL0     H45494   8.953  10.987   5.210  0.0011 -0.4725  5.5778
  337MOL0     H45495   8.864  10.895   5.098  2.2652 -0.3011  0.0546
  338MOL0     O45496   5.936   4.689   4.384 -0.6205 -0.4606 -0.6594
  338MOL0     C45497   6.032   4.750   4.334 -0.3012  0.4096 -0.1915
  338MOL0     O45498   6.011   4.880   4.282  0.4689  0.2578 -0.4350
  338MOL0     C45499   5.903   4.903   4.207 -0.8691  0.0716 -0.0504
  338MOL0     C45500   5.869   4.815   4.107 -0.5374  0.1357  0.1067
  338MOL0     C45501   5.756   4.840   4.029  1.0908 -0.6144 -0.4043
  338MOL0     C45502   5.677   4.955   4.056 -0.2970  0.9063 -0.2114
  338MOL0     O45503   5.563   4.979   3.989  0.4953  0.4731  0.1810
  338MOL0     C45504   5.445   5.036   4.055 -0.0797 -0.6007 -0.3451
  338MOL0     C45505   5.373   4.927   4.128  0.5086 -0.3638 -0.5735
  338MOL0     C45506   5.272   4.983   4.236 -0.2819  0.8294 -1.0397
  338MOL0     C45507   5.167   5.074   4.197  1.0288  0.8404 -0.5111
  338MOL0     C45508   5.087   5.132   4.313 -0.6935  0.1405 -0.0678
  338MOL0     C45509   4.956   5.187   4.258 -0.0397  0.6994 -0.0654
  338MOL0     C45510   4.865   5.254   4.358 -0.5792  0.8173 -0.2023
  338MOL0     C45511   4.765   5.340   4.283  0.7548  0.8698  0.4520
  338MOL0     N45512   4.813   5.468   4.242  0.2376  0.3163  0.5215
  338MOL0     C45513   4.805   5.583   4.320 -0.5048 -0.4068  0.2711
  338MOL0     C45514   4.820   5.693   4.235  0.3800 -0.5342  0.2795
  338MOL0     C45515   4.838   5.841   4.261 -0.3654 -0.5237  0.2743
  338MOL0     C45516   4.717   5.927   4.233  0.6115 -0.2225 -0.0604
  338MOL0     C45517   4.590   5.891   4.312 -0.9972 -0.7322 -0.0058
  338MOL0     C45518   4.545   6.004   4.401 -0.1235  0.3447 -0.9336
  338MOL0     O45519   4.432   5.962   4.474 -0.1135  0.4473 -0.4328
  338MOL0     C45520   4.346   6.055   4.536 -0.1839 -0.0069 -1.2868
  338MOL0     C45521   4.384   6.192   4.545 -0.3686  0.1888 -0.3828
  338MOL0     C45522   4.302   6.281   4.625 -0.2305  0.7464 -1.1960
  338MOL0     C45523   4.181   6.243   4.675 -0.5521 -0.2044  0.2650
  338MOL0     C45524   4.081   6.339   4.738  0.2007 -0.0310  0.0481
  338MOL0     O45525   3.968   6.286   4.807  0.0485 -0.7531  0.3469
  338MOL0     C45526   3.884   6.374   4.879  0.1767 -0.0760  0.0696
  338MOL0     C45527   3.904   6.395   5.012  0.4383  0.1760  0.3056
  338MOL0     C45528   3.822   6.483   5.074  0.7373 -0.4823  0.3137
  338MOL0     C45529   3.716   6.561   5.008 -0.1767 -0.6222 -0.8505
  338MOL0     O45530   3.639   6.655   5.078 -0.6950  0.3061  0.3303
  338MOL0     C45531   3.520   6.700   5.019  0.2343 -0.2966 -0.6279
  338MOL0     C45532   3.480   6.821   5.098  1.0181 -0.1578 -0.0472
  338MOL0     C45533   3.367   6.894   5.039 -0.4196  0.4340  0.3164
  338MOL0     C45534   3.344   7.021   5.126 -0.2164 -0.5731  0.4208
  338MOL0     C45535   3.228   7.096   5.079 -0.1038  0.5809  0.5844
  338MOL0     C45536   3.209   7.234   5.146 -0.2331  0.5248  0.3027
  338MOL0     C45537   3.156   7.220   5.295  0.4828  0.0805 -0.8593
  338MOL0     C45538   3.159   7.351   5.372  0.3158 -1.0042 -0.1265
  338MOL0    Cl45539   3.324   7.388   5.425  0.4448  0.2538 -0.5843
  338MOL0     C45540   3.689   6.522   4.878 -0.3000 -0.8004  0.7019
  338MOL0     C45541   3.777   6.441   4.808 -0.1498 -0.7125 -0.2690
  338MOL0     O45542   4.109   6.460   4.742 -0.3261  0.2832  0.0794
  338MOL0     C45543   4.142   6.110   4.658 -0.3094  0.4913  0.2487
  338MOL0     C45544   4.228   6.016   4.593 -0.5804 -0.6458  0.1510
  338MOL0     N45545   4.815   5.643   4.104  0.3243 -0.1352 -0.0857
  338MOL0     N45546   4.820   5.512   4.113 -0.0141  0.5782 -0.5012
  338MOL0     C45547   5.724   5.044   4.154 -0.5135  0.0243 -0.3707
  338MOL0     C45548   5.832   5.023   4.235 -0.2104  1.2425  0.6142
  338MOL0     C45549   6.169   4.699   4.325 -0.4203 -0.8200 -0.2249
  338MOL0     C45550   6.263   4.782   4.259 -1.2423  0.2785  0.7347
  338MOL0     C45551   6.400   4.756   4.275  0.0793 -0.1577  1.2527
  338MOL0     C45552   6.449   4.639   4.341 -0.7456 -0.1841 -0.1797
  338MOL0     O45553   6.580   4.606   4.334  0.0263 -0.1454  0.2750
  338MOL0     C45554   6.635   4.493   4.410  0.7183  0.6575 -0.2082
  338MOL0     C45555   6.785   4.507   4.398  0.2244 -0.0768  0.2282
  338MOL0     C45556   6.831   4.451   4.262 -0.2089  1.7575  0.6266
  338MOL0     C45557   6.813   4.539   4.139 -0.3718  0.0319  0.0892
  338MOL0     C45558   6.882   4.674   4.147  0.0631 -0.6057 -0.0265
  338MOL0     C45559   6.935   4.784   4.155  0.1738  0.6049  0.5316
  338MOL0     C45560   6.355   4.559   4.399  0.7800 -0.0709 -0.4057
  338MOL0     C45561   6.209   4.584   4.393 -0.0109 -0.0431 -0.9063
  338MOL0     C45562   6.112   4.508   4.480 -0.1034  0.2221 -0.9474
  338MOL0     H45563   5.931   4.727   4.091 -2.3901 -1.6310  2.0211
  338MOL0     H45564   5.713   4.772   3.956 -1.7056  2.7103 -2.1589
  338MOL0     H45565   5.470   5.111   4.130 -1.3329 -0.7496  0.2426
  338MOL0     H45566   5.384   5.072   3.972 -1.4957  1.8084  1.6239
  338MOL0     H45567   5.439   4.851   4.172  0.0873  0.1145  0.9336
  338MOL0     H45568   5.316   4.866   4.057 -0.1281  0.5541 -0.8541
  338MOL0     H45569   5.335   5.030   4.312  0.7366 -2.4134  0.2790
  338MOL0     H45570   5.231   4.900   4.293 -0.9496  2.0028  0.2623
  338MOL0     H45571   5.208   5.161   4.144  0.5911  1.1091 -0.4116
  338MOL0     H45572   5.100   5.011   4.138  0.0326 -0.6395  2.0209
  338MOL0     H45573   5.075   5.058   4.393 -0.4641 -0.2206 -0.3603
  338MOL0     H45574   5.141   5.218   4.353  0.2748  1.0999 -3.1208
  338MOL0     H45575   4.969   5.258   4.175  0.4524 -2.3368 -2.7613
  338MOL0     H45576   4.907   5.102   4.210  1.1422  1.0905 -2.0853
  338MOL0     H45577   4.928   5.330   4.406 -0.8138 -0.7449  2.8179
  338MOL0     H45578   4.820   5.181   4.425  1.2850  0.8083  1.1416
  338MOL0     H45579   4.735   5.296   4.187 -2.2937  0.2162  1.5963
  338MOL0     H45580   4.675   5.342   4.345  1.9251  1.1788  2.2329
  338MOL0     H45581   4.797   5.596   4.427  0.3630 -1.5156  0.4937
  338MOL0     H45582   4.867   5.861   4.364  0.7939  4.3677 -0.7401
  338MOL0     H45583   4.927   5.878   4.211 -0.6038  1.2533  1.0831
  338MOL0     H45584   4.745   6.029   4.259  0.8871 -0.8839  2.4190
  338MOL0     H45585   4.691   5.925   4.126  2.0544  1.4370 -0.4698
  338MOL0     H45586   4.614   5.799   4.365 -3.3535 -2.1978 -1.2823
  338MOL0     H45587   4.507   5.870   4.243 -0.9087  1.9406 -1.0794
  338MOL0     H45588   4.521   6.084   4.331 -0.4308 -0.4081 -1.7067
  338MOL0     H45589   4.627   6.033   4.468 -2.5105 -1.1395  2.9596
  338MOL0     H45590   4.473   6.240   4.505  1.2314 -4.0271 -2.4197
  338MOL0     H45591   4.345   6.380   4.636 -0.8461  0.8519  0.6063
  338MOL0     H45592   3.971   6.331   5.070 -2.6516 -3.5257  0.1924
  338MOL0     H45593   3.846   6.513   5.175  1.1072 -0.5810  0.2547
  338MOL0     H45594   3.528   6.715   4.911 -0.7500 -3.4970 -1.2463
  338MOL0     H45595   3.448   6.618   5.029  0.8640 -1.1281 -2.5502
  338MOL0     H45596   3.441   6.793   5.196 -2.4716  3.7371 -0.0639
  338MOL0     H45597   3.575   6.874   5.113  3.1959 -3.5880 -0.5359
  338MOL0     H45598   3.396   6.925   4.938  0.3977  1.0554  0.7265
  338MOL0     H45599   3.274   6.836   5.032 -0.3826  0.5382 -1.3592
  338MOL0     H45600   3.436   7.081   5.119 -0.6872  0.0376 -0.9398
  338MOL0     H45601   3.323   6.991   5.228 -1.5102 -2.7056 -0.4155
  338MOL0     H45602   3.140   7.036   5.100  0.7936 -0.2630  2.1874
  338MOL0     H45603   3.234   7.115   4.972 -0.1576  2.8835  0.9236
  338MOL0     H45604   3.303   7.290   5.153 -2.4748  4.8760 -0.9715
  338MOL0     H45605   3.138   7.291   5.087  0.7834 -0.5882 -2.1510
  338MOL0     H45606   3.215   7.139   5.339 -0.6944 -0.9732 -1.1469
  338MOL0     H45607   3.056   7.180   5.276  1.5323 -2.0268 -2.3514
  338MOL0     H45608   3.123   7.431   5.306 -1.5921  2.0275  4.1207
  338MOL0     H45609   3.095   7.362   5.460  0.2279  3.9795 -0.5312
  338MOL0     H45610   3.605   6.565   4.824 -0.4663  0.3751  1.8676
  338MOL0     H45611   3.777   6.426   4.700  1.8266 -1.3481 -0.2223
  338MOL0     H45612   4.042   6.070   4.671 -0.1172 -0.5958 -1.3049
  338MOL0     H45613   4.209   5.909   4.592  1.8440 -1.1692  1.1766
  338MOL0     H45614   5.658   5.129   4.167 -0.6813  0.3347 -2.7993
  338MOL0     H45615   5.853   5.085   4.321  4.6406  0.6019  0.2099
  338MOL0     H45616   6.248   4.877   4.209  0.5717  1.3716  2.1005
  338MOL0     H45617   6.475   4.816   4.224 -2.1845 -0.1174 -2.3812
  338MOL0     H45618   6.600   4.406   4.353 -0.2230  1.6728 -1.2275
  338MOL0     H45619   6.607   4.480   4.515  2.1086 -0.4651  0.0550
  338MOL0     H45620   6.844   4.464   4.480 -0.3518 -1.4161 -0.0312
  338MOL0     H45621   6.809   4.613   4.389  0.5677  0.3860  4.4476
  338MOL0     H45622   6.787   4.352   4.246  0.2697  1.3422  1.7729
  338MOL0     H45623   6.937   4.424   4.274 -0.8794 -0.7075  1.5957
  338MOL0     H45624   6.865   4.492   4.055 -0.0588  0.7841 -0.1441
  338MOL0     H45625   6.707   4.554   4.119 -0.6378  2.4045  2.7987
  338MOL0     H45626   6.976   4.883   4.147 -1.7566  1.4841  0.8832
  338MOL0     H45627   6.400   4.477   4.454  4.5678  2.8941  1.4460
  338MOL0     H45628   6.031   4.463   4.422 -0.5830 -1.2995  0.8207
  338MOL0     H45629   6.166   4.426   4.527 -1.2525  0.3182  0.6251
  338MOL0     H45630   6.075   4.571   4.561 -0.1098 -1.5118  0.4554
  339MOL0     O45631   6.795   9.558   3.453 -0.0187 -0.5045 -0.1563
  339MOL0     C45632   6.717   9.500   3.530 -0.0952  0.5698 -0.2448
  339MOL0     O45633   6.737   9.382   3.592  0.3669 -0.2969  0.7332
  339MOL0     C45634   6.867   9.339   3.615 -0.0048 -0.4875 -0.1145
  339MOL0     C45635   6.986   9.417   3.607 -1.2544 -0.0072  0.5021
  339MOL0     C45636   7.107   9.362   3.667 -0.7460 -0.4245 -1.1272
  339MOL0     C45637   7.111   9.244   3.743  0.1960 -0.8007 -0.2728
  339MOL0     O45638   7.200   9.216   3.841 -0.1794 -0.1448 -0.1192
  339MOL0     C45639   7.335   9.254   3.811 -0.0380  0.5480 -0.3093
  339MOL0     C45640   7.423   9.183   3.901  0.1947  0.1788  0.0005
  339MOL0     C45641   7.557   9.258   3.926  0.2353 -0.0760 -0.0474
  339MOL0     C45642   7.636   9.296   3.787  0.0936  0.1321  0.1457
  339MOL0     C45643   7.767   9.370   3.835 -0.3319  0.5311 -0.2881
  339MOL0     C45644   7.841   9.423   3.714 -0.8837 -0.4255  1.3902
  339MOL0     C45645   7.861   9.571   3.702 -0.7520 -0.6534 -0.0058
  339MOL0     C45646   7.735   9.625   3.634 -0.4090 -0.2203 -1.0691
  339MOL0     N45647   7.763   9.646   3.499 -0.4010  0.0460  0.2304
  339MOL0     C45648   7.754   9.552   3.402 -0.6184 -1.0031 -0.9287
  339MOL0     C45649   7.787   9.620   3.286 -0.9498  0.3982 -0.2705
  339MOL0     C45650   7.776   9.560   3.151  0.5338 -1.2503  0.8559
  339MOL0     C45651   7.863   9.638   3.051  0.7852 -0.1287 -0.7556
  339MOL0     C45652   8.010   9.616   3.057  0.2789 -0.4052  0.5052
  339MOL0     C45653   8.051   9.475   3.013  1.6183  0.3445 -0.5993
  339MOL0     O45654   8.186   9.463   2.987  0.3416  0.1375  0.0309
  339MOL0     C45655   8.251   9.342   2.988  0.1085 -0.3101  0.7006
  339MOL0     C45656   8.193   9.230   3.042  0.2055  0.8805  0.0991
  339MOL0     C45657   8.268   9.112   3.023 -0.7516  0.9186 -0.3850
  339MOL0     C45658   8.397   9.113   2.969 -0.0041  0.7568  1.0858
  339MOL0     C45659   8.477   8.988   2.956 -0.2134 -0.1470  0.4044
  339MOL0     O45660   8.602   8.989   2.896  0.6917  0.3227 -0.1609
  339MOL0     C45661   8.693   8.915   2.968  0.2215  0.2188  0.4005
  339MOL0     C45662   8.742   8.794   2.926 -0.7272  0.2424  0.1358
  339MOL0     C45663   8.853   8.736   2.988  0.0850  0.0653  0.3048
  339MOL0     C45664   8.921   8.804   3.082 -0.7901  0.0246 -1.6267
  339MOL0     O45665   9.029   8.745   3.135  0.9088 -0.1326 -0.8158
  339MOL0     C45666   9.094   8.794   3.253  0.0850  0.6012 -0.6394
  339MOL0     C45667   9.235   8.729   3.269  0.1228  0.3332 -0.3270
  339MOL0     C45668   9.319   8.731   3.141 -0.3626  0.2571  0.5705
  339MOL0     C45669   9.470   8.726   3.166 -0.3294 -0.1267  0.5146
  339MOL0     C45670   9.539   8.720   3.028  0.3672  0.0739  0.3507
  339MOL0     C45671   9.687   8.747   3.025  0.1421  0.2662 -0.8877
  339MOL0     C45672   9.743   8.728   2.883  0.2783 -0.2094 -0.5567
  339MOL0     C45673   9.747   8.585   2.823 -0.2235  0.4932  0.9612
  339MOL0    Cl45674   9.854   8.488   2.914 -0.1848  0.1472  0.0302
  339MOL0     C45675   8.878   8.934   3.125  0.2562  0.4181  0.0257
  339MOL0     C45676   8.758   8.984   3.071 -0.4006  0.2445  0.3082
  339MOL0     O45677   8.431   8.897   3.026 -0.6901  0.3776  1.1001
  339MOL0     C45678   8.452   9.233   2.922 -0.5362 -0.0469 -0.0230
  339MOL0     C45679   8.378   9.344   2.934  0.6448 -0.4307  0.1413
  339MOL0     N45680   7.829   9.750   3.318 -1.0490 -0.2434  0.3888
  339MOL0     N45681   7.822   9.760   3.449  0.3623  0.1245  0.2285
  339MOL0     C45682   6.994   9.174   3.746 -0.3809 -0.1078  0.1991
  339MOL0     C45683   6.876   9.218   3.681 -0.8931 -1.1512  0.2093
  339MOL0     C45684   6.592   9.569   3.557  1.0818 -0.6622 -0.1859
  339MOL0     C45685   6.476   9.486   3.545 -0.7824 -0.0026  0.4678
  339MOL0     C45686   6.346   9.539   3.557  0.0110  0.0212  0.0568
  339MOL0     C45687   6.335   9.675   3.578  0.7119  0.1450  0.8323
  339MOL0     O45688   6.211   9.716   3.565  0.2703 -0.0724  0.1560
  339MOL0     C45689   6.174   9.765   3.439 -0.2716  0.5310  0.5948
  339MOL0     C45690   6.022   9.771   3.422 -0.2700  0.3578 -1.1710
  339MOL0     C45691   5.988   9.789   3.279 -0.1433 -0.4445  0.0111
  339MOL0     C45692   5.846   9.832   3.272  0.3387  0.5727  0.0734
  339MOL0     C45693   5.822   9.982   3.262 -0.6288  0.1342 -0.3474
  339MOL0     C45694   5.817  10.102   3.258 -0.9582  0.9234 -0.2181
  339MOL0     C45695   6.441   9.755   3.589  0.1168  0.5949  0.5186
  339MOL0     C45696   6.571   9.708   3.579  0.9434  0.3491  0.6129
  339MOL0     C45697   6.681   9.804   3.588 -0.7930 -0.3009 -0.2183
  339MOL0     H45698   6.998   9.511   3.555  4.6456 -1.0217 -0.6584
  339MOL0     H45699   7.201   9.415   3.661  0.7565 -2.7115  0.3807
  339MOL0     H45700   7.367   9.236   3.708  1.3042  0.1489  0.1538
  339MOL0     H45701   7.352   9.360   3.831  0.8238  0.2601  0.5450
  339MOL0     H45702   7.431   9.079   3.867  0.3030 -0.5762  2.1634
  339MOL0     H45703   7.379   9.192   4.000 -1.7247 -0.7612 -0.7226
  339MOL0     H45704   7.637   9.209   3.982  1.3661 -0.6535 -2.0647
  339MOL0     H45705   7.538   9.351   3.980 -3.0255 -2.0170  2.4810
  339MOL0     H45706   7.668   9.208   3.730 -0.0424  0.2287 -0.0817
  339MOL0     H45707   7.575   9.357   3.719  1.1361 -1.9441 -2.8953
  339MOL0     H45708   7.737   9.443   3.910  1.4444  0.1729  0.8183
  339MOL0     H45709   7.830   9.293   3.881 -1.3878 -0.1435  0.0541
  339MOL0     H45710   7.932   9.364   3.703  1.0561  2.6152 -0.3303
  339MOL0     H45711   7.785   9.392   3.625 -0.5746  3.3790 -0.3329
  339MOL0     H45712   7.957   9.592   3.653 -0.5237  0.6804  0.9815
  339MOL0     H45713   7.875   9.622   3.797  0.0376  0.6094 -0.7624
  339MOL0     H45714   7.643   9.566   3.646  0.4355 -1.8556 -2.2524
  339MOL0     H45715   7.704   9.720   3.678  2.6924  0.8802 -0.9958
  339MOL0     H45716   7.711   9.452   3.404 -0.0603 -1.2384 -0.6174
  339MOL0     H45717   7.796   9.452   3.151  0.7696 -1.2155  0.1664
  339MOL0     H45718   7.674   9.584   3.121  1.1188  5.1480  2.5911
  339MOL0     H45719   7.842   9.615   2.947 -0.2174 -1.5152 -0.2685
  339MOL0     H45720   7.850   9.747   3.061  3.0015  0.0637  0.7793
  339MOL0     H45721   8.066   9.643   3.147  4.2687 -4.7742 -0.3077
  339MOL0     H45722   8.052   9.674   2.974  0.8649 -1.0208  0.3630
  339MOL0     H45723   7.992   9.458   2.922  1.0137  0.9809 -0.3326
  339MOL0     H45724   8.009   9.404   3.086  0.6478  0.3858 -1.0966
  339MOL0     H45725   8.098   9.233   3.093  0.0148 -4.8396  0.7612
  339MOL0     H45726   8.218   9.031   3.076  1.4577  0.3335  0.9623
  339MOL0     H45727   8.687   8.732   2.855 -0.2134 -1.2295  0.9694
  339MOL0     H45728   8.882   8.634   2.965  0.9474  0.6002 -1.1096
  339MOL0     H45729   9.117   8.901   3.252  1.9959  0.2126 -0.8365
  339MOL0     H45730   9.030   8.771   3.339 -0.4239 -2.7356 -1.7967
  339MOL0     H45731   9.282   8.796   3.341  2.0020  2.1263 -3.0226
  339MOL0     H45732   9.215   8.631   3.314  0.2383  1.8227  3.2649
  339MOL0     H45733   9.294   8.648   3.073  0.9444 -0.2933  0.7341
  339MOL0     H45734   9.294   8.824   3.089 -0.6237 -0.4629 -0.6371
  339MOL0     H45735   9.503   8.652   3.239  0.7837  1.8218  2.0968
  339MOL0     H45736   9.497   8.821   3.213  0.8552  1.6544 -3.4246
  339MOL0     H45737   9.492   8.795   2.964 -4.2761 -1.2883  1.7832
  339MOL0     H45738   9.513   8.621   2.989 -2.6777  1.2093 -0.7980
  339MOL0     H45739   9.698   8.849   3.062 -2.7018  0.3691 -0.0611
  339MOL0     H45740   9.736   8.676   3.093 -2.4965 -1.0542 -0.1851
  339MOL0     H45741   9.844   8.771   2.886  0.1764  0.0962  2.7241
  339MOL0     H45742   9.686   8.801   2.824  0.6200  0.5047 -0.0205
  339MOL0     H45743   9.654   8.527   2.826  0.3490 -0.7218 -1.7726
  339MOL0     H45744   9.766   8.575   2.716 -3.1782  2.1805  0.1534
  339MOL0     H45745   8.927   9.009   3.185  1.2438  1.3574 -1.8521
  339MOL0     H45746   8.721   9.080   3.104  3.6195  1.6897  1.2363
  339MOL0     H45747   8.552   9.228   2.881 -0.3629  3.1490 -0.2706
  339MOL0     H45748   8.415   9.437   2.892 -1.7971  0.9484  0.9024
  339MOL0     H45749   6.984   9.080   3.800  4.5922  0.6345  3.0841
  339MOL0     H45750   6.787   9.157   3.691  0.1490 -2.8176 -0.3792
  339MOL0     H45751   6.487   9.380   3.526 -1.0545 -0.3159  1.9469
  339MOL0     H45752   6.256   9.482   3.539 -0.7786  1.2287  0.1425
  339MOL0     H45753   6.229   9.717   3.357 -1.9001  0.3232 -0.4369
  339MOL0     H45754   6.206   9.868   3.423  0.3972  0.3521  0.7615
  339MOL0     H45755   5.975   9.846   3.487 -0.4228  1.4343 -2.4753
  339MOL0     H45756   5.982   9.672   3.444 -0.1173 -0.3460 -3.7430
  339MOL0     H45757   6.001   9.690   3.236  1.5040  0.1445 -0.9418
  339MOL0     H45758   6.055   9.859   3.228 -1.3604  0.2973 -0.6109
  339MOL0     H45759   5.810   9.793   3.176  1.4174  0.2920 -0.2226
  339MOL0     H45760   5.783   9.791   3.351 -0.5210 -1.6164 -1.6449
  339MOL0     H45761   5.827  10.208   3.252  1.4674  0.6804 -1.4079
  339MOL0     H45762   6.417   9.861   3.590 -1.8826  0.1701  1.3283
  339MOL0     H45763   6.780   9.769   3.560  1.3641  3.8971  1.2985
  339MOL0     H45764   6.676   9.894   3.525  1.9217  0.6184  0.7532
  339MOL0     H45765   6.680   9.833   3.694 -0.4023 -0.3488 -0.2030
  340MOL0     O45766  10.304   2.509   7.261  0.3181 -0.1774  0.5075
  340MOL0     C45767  10.336   2.450   7.153 -1.2494  0.1784 -0.2899
  340MOL0     O45768  10.419   2.496   7.053  0.0803 -0.1078 -0.8082
  340MOL0     C45769  10.401   2.632   7.030 -0.8891 -0.5188 -0.1030
  340MOL0     C45770  10.283   2.706   7.046  0.2117 -0.2830  0.8148
  340MOL0     C45771  10.278   2.838   7.025 -1.1700 -0.4836  0.5170
  340MOL0     C45772  10.398   2.911   6.995  0.5311 -0.4091 -0.0975
  340MOL0     O45773  10.403   3.049   6.982 -0.0843  0.0856 -0.7479
  340MOL0     C45774  10.481   3.120   7.078 -0.4723 -0.1885 -1.1992
  340MOL0     C45775  10.516   3.261   7.022  0.5716  0.2182 -0.7648
  340MOL0     C45776  10.630   3.251   6.927  0.4393 -0.2663  0.1668
  340MOL0     C45777  10.620   3.351   6.810  0.4647 -0.6442 -0.4392
  340MOL0     C45778  10.528   3.309   6.694 -0.1424  0.5689 -1.0336
  340MOL0     C45779  10.506   3.422   6.596 -0.2609  0.1428 -0.7127
  340MOL0     C45780  10.390   3.389   6.495  0.6162  0.7408  0.0221
  340MOL0     C45781  10.355   3.506   6.405  0.1122  0.9961  0.0091
  340MOL0     N45782  10.467   3.539   6.313  0.1300 -0.0843 -0.2488
  340MOL0     C45783  10.489   3.477   6.199 -0.5211  0.6105 -0.3455
  340MOL0     C45784  10.586   3.548   6.141 -0.2939  0.8097 -0.4247
  340MOL0     C45785  10.662   3.499   6.027 -0.1797 -0.4341  0.5260
  340MOL0     C45786  10.613   3.558   5.893  0.1265 -0.5672 -1.1280
  340MOL0     C45787  10.479   3.501   5.855  1.1022 -0.4175 -0.9129
  340MOL0     C45788  10.429   3.568   5.722  0.2167  0.2953  0.3668
  340MOL0     O45789  10.329   3.483   5.669  0.7135  0.7930 -0.2818
  340MOL0     C45790  10.246   3.538   5.580  0.2386  0.1256  0.2170
  340MOL0     C45791  10.269   3.661   5.508 -0.1584 -0.1069 -0.0896
  340MOL0     C45792  10.172   3.705   5.407  0.0240  0.2861 -1.1733
  340MOL0     C45793  10.057   3.639   5.386  0.4355  0.5814 -0.2034
  340MOL0     C45794   9.968   3.697   5.291 -0.4804  0.5253  0.3278
  340MOL0     O45795  10.016   3.733   5.168  0.2376  0.1943  0.3331
  340MOL0     C45796   9.927   3.750   5.060 -0.7612  0.5161  0.8385
  340MOL0     C45797   9.827   3.660   5.011  0.5609 -0.4757  0.5774
  340MOL0     C45798   9.749   3.679   4.897 -0.0502 -0.4762 -0.9642
  340MOL0     C45799   9.778   3.789   4.814  0.5831 -1.0960 -0.0899
  340MOL0     O45800   9.678   3.802   4.715 -0.2714 -0.6266 -0.2486
  340MOL0     C45801   9.681   3.926   4.634 -0.2223  0.5227 -0.1063
  340MOL0     C45802   9.748   3.885   4.506 -0.0524 -0.0028  0.7609
  340MOL0     C45803   9.775   4.000   4.410 -0.1323  1.1166 -1.0367
  340MOL0     C45804   9.852   3.943   4.285  0.5584 -0.0994 -0.9431
  340MOL0     C45805   9.852   4.040   4.165  0.2349  0.8812 -0.2466
  340MOL0     C45806   9.950   4.147   4.198  0.2535 -0.5533 -0.4602
  340MOL0     C45807   9.960   4.247   4.085  0.3550  0.4459  0.0626
  340MOL0     C45808  10.068   4.341   4.124 -0.2109  0.3669 -0.0757
  340MOL0    Cl45809  10.004   4.479   4.211 -0.1562 -0.2022  0.5404
  340MOL0     C45810   9.881   3.871   4.853  0.0486 -0.1132  0.7530
  340MOL0     C45811   9.935   3.869   4.981 -0.0755  0.7400  0.5090
  340MOL0     O45812   9.855   3.697   5.318  0.7116 -0.3983 -0.7166
  340MOL0     C45813  10.031   3.520   5.466 -1.0567 -0.4603 -0.1635
  340MOL0     C45814  10.131   3.464   5.551  0.3161 -0.4240 -0.2081
  340MOL0     N45815  10.641   3.635   6.234 -0.2355 -1.1441  0.3349
  340MOL0     N45816  10.568   3.635   6.341  0.8560 -0.3795 -0.6881
  340MOL0     C45817  10.511   2.836   6.975 -0.2778  0.4672  0.3935
  340MOL0     C45818  10.515   2.701   6.991  0.5090  0.4745  0.2225
  340MOL0     C45819  10.291   2.306   7.137 -0.1049  0.0582  0.0329
  340MOL0     C45820  10.324   2.237   7.015 -0.2461 -0.1903 -0.7964
  340MOL0     C45821  10.291   2.098   6.990 -0.6406 -0.1481  0.0421
  340MOL0     C45822  10.228   2.020   7.091  0.7681 -0.2578 -0.3055
  340MOL0     O45823  10.193   1.888   7.100  0.1182  1.0296 -0.0494
  340MOL0     C45824  10.201   1.811   6.970  1.1778  0.5172  0.1602
  340MOL0     C45825  10.144   1.672   6.976 -0.4856 -0.4212 -0.3396
  340MOL0     C45826  10.164   1.598   7.098  0.5026  0.4738 -0.9402
  340MOL0     C45827  10.090   1.469   7.115  0.5334  0.7961  0.5191
  340MOL0     C45828  10.133   1.368   7.013  0.2162 -0.5495  0.3613
  340MOL0     C45829  10.165   1.270   6.949  0.0140 -0.8236 -1.0250
  340MOL0     C45830  10.211   2.087   7.207  0.1650 -0.7884 -0.0366
  340MOL0     C45831  10.229   2.228   7.233  0.0352  0.6960 -0.3733
  340MOL0     C45832  10.197   2.275   7.373 -0.1080  0.4563 -0.0347
  340MOL0     H45833  10.185   2.664   7.064 -2.9438  5.6014 -0.1266
  340MOL0     H45834  10.191   2.903   7.035 -1.2684  0.1162 -3.0539
  340MOL0     H45835  10.424   3.110   7.171 -0.8203 -1.7314 -1.5531
  340MOL0     H45836  10.581   3.082   7.100  0.8272  3.4121 -0.1397
  340MOL0     H45837  10.535   3.323   7.110  0.6552  0.2743 -0.8232
  340MOL0     H45838  10.436   3.303   6.960 -0.7810 -1.7921 -0.4837
  340MOL0     H45839  10.630   3.153   6.879 -0.4957  0.6205 -1.7157
  340MOL0     H45840  10.718   3.268   6.991 -0.9372  1.0022  1.8402
  340MOL0     H45841  10.592   3.450   6.845  3.1012  0.2933 -0.7458
  340MOL0     H45842  10.719   3.368   6.767 -0.2091  1.0267 -1.4309
  340MOL0     H45843  10.556   3.210   6.658  0.8900  0.6007 -0.3481
  340MOL0     H45844  10.434   3.290   6.745  0.5989  1.1208  0.6040
  340MOL0     H45845  10.476   3.519   6.637 -2.8388 -0.4333 -1.0708
  340MOL0     H45846  10.588   3.461   6.535 -0.7590 -0.4435 -1.7887
  340MOL0     H45847  10.295   3.356   6.537 -1.6020 -0.3216 -5.0499
  340MOL0     H45848  10.423   3.308   6.430  0.4249  1.8038 -1.4769
  340MOL0     H45849  10.275   3.487   6.333  0.5155  2.4373 -0.8695
  340MOL0     H45850  10.323   3.593   6.463 -1.5303  1.7853 -1.9480
  340MOL0     H45851  10.451   3.385   6.155  0.7606  0.5445 -1.3983
  340MOL0     H45852  10.766   3.534   6.034 -0.8045  2.1099 -1.3590
  340MOL0     H45853  10.662   3.390   6.021  0.4597 -0.3752 -1.0627
  340MOL0     H45854  10.616   3.667   5.907 -0.1213 -0.8318  1.5238
  340MOL0     H45855  10.685   3.531   5.815  1.0742 -2.6921  0.4030
  340MOL0     H45856  10.399   3.498   5.929  2.8152  0.7713  1.0736
  340MOL0     H45857  10.493   3.393   5.852  0.0050 -0.8739  3.6280
  340MOL0     H45858  10.506   3.590   5.647  1.6312  2.3568  2.2775
  340MOL0     H45859  10.378   3.651   5.770  1.2365  1.2311 -0.1083
  340MOL0     H45860  10.359   3.721   5.517 -1.2126  1.6024 -0.3199
  340MOL0     H45861  10.182   3.796   5.348 -1.5964  0.4509 -1.2354
  340MOL0     H45862   9.807   3.584   5.085 -0.4156  0.9661  1.8493
  340MOL0     H45863   9.675   3.602   4.877  1.1461 -1.8656 -0.2456
  340MOL0     H45864   9.580   3.960   4.609 -0.7352 -0.1095  1.0290
  340MOL0     H45865   9.731   4.009   4.685 -0.0701  1.0193 -1.0483
  340MOL0     H45866   9.844   3.838   4.528 -0.7849 -1.3020  1.3307
  340MOL0     H45867   9.681   3.814   4.456 -1.2094 -0.7187  3.1570
  340MOL0     H45868   9.679   4.045   4.382  0.2577  3.1809  0.6685
  340MOL0     H45869   9.834   4.080   4.456 -0.8879  0.3267  1.4645
  340MOL0     H45870   9.809   3.847   4.258  2.9767 -2.1687  1.8989
  340MOL0     H45871   9.954   3.920   4.318  1.6522  0.7456 -3.4970
  340MOL0     H45872   9.756   4.085   4.138  0.8329  0.3919 -3.5587
  340MOL0     H45873   9.877   3.975   4.081 -1.1578  1.1384 -0.8888
  340MOL0     H45874   9.899   4.191   4.284 -0.4467 -0.9634 -0.6577
  340MOL0     H45875  10.052   4.119   4.226  0.2562  0.0800  0.1905
  340MOL0     H45876   9.860   4.288   4.066 -0.2194  0.3161  2.4825
  340MOL0     H45877   9.996   4.206   3.990 -0.7292  5.0075 -2.6112
  340MOL0     H45878  10.159   4.297   4.166  0.8880 -0.0324 -2.7311
  340MOL0     H45879  10.109   4.375   4.029  0.9753 -2.3320 -0.6370
  340MOL0     H45880   9.907   3.945   4.778  1.6480 -0.2391  1.1592
  340MOL0     H45881   9.995   3.955   5.010  0.5043  0.4251  0.2507
  340MOL0     H45882   9.937   3.466   5.469  0.2888 -2.9653 -1.0817
  340MOL0     H45883  10.110   3.368   5.598 -4.0146 -0.8289 -2.4330
  340MOL0     H45884  10.599   2.886   6.934  0.9655 -1.4396  0.6464
  340MOL0     H45885  10.602   2.641   6.967  0.3645 -0.6277  2.2602
  340MOL0     H45886  10.385   2.278   6.936 -1.8782  0.0780 -1.9786
  340MOL0     H45887  10.316   2.045   6.900  1.7427 -3.0279  2.2069
  340MOL0     H45888  10.303   1.811   6.931  1.1513  2.3257  0.0185
  340MOL0     H45889  10.133   1.860   6.900 -1.4490 -1.6861  0.9882
  340MOL0     H45890  10.170   1.626   6.880 -2.0655 -0.8503 -0.6022
  340MOL0     H45891  10.035   1.678   6.961 -0.4584  0.0343 -0.3751
  340MOL0     H45892  10.140   1.665   7.181  1.1921 -0.0065 -0.3351
  340MOL0     H45893  10.270   1.576   7.108  1.2582  2.7245 -2.9838
  340MOL0     H45894  10.113   1.421   7.210  2.8904 -2.3368 -1.4587
  340MOL0     H45895   9.982   1.488   7.109  0.2403 -1.1711 -2.5044
  340MOL0     H45896  10.175   1.179   6.894 -2.8070  0.1581 -3.4449
  340MOL0     H45897  10.170   2.034   7.292  1.2117 -1.0294  0.3352
  340MOL0     H45898  10.145   2.371   7.362 -0.5205  0.2023 -0.3400
  340MOL0     H45899  10.130   2.212   7.432 -1.2602  2.4553  0.9033
  340MOL0     H45900  10.290   2.291   7.429 -1.2304 -0.3345  2.1562
  341MOL0     O45901   3.933   7.880   9.041 -0.1857  0.4744 -0.4670
  341MOL0     C45902   4.013   7.929   9.114 -0.3697 -0.2824  0.4525
  341MOL0     O45903   3.982   7.976   9.242 -0.4734  1.2993  0.2792
  341MOL0     C45904   3.858   7.958   9.304 -0.6903 -0.5960  0.2616
  341MOL0     C45905   3.841   7.885   9.424  0.0890  0.2190 -0.2267
  341MOL0     C45906   3.708   7.866   9.472 -0.2283  0.0964 -0.7724
  341MOL0     C45907   3.598   7.929   9.416  0.0441  0.4460 -0.5654
  341MOL0     O45908   3.475   7.903   9.479 -0.8113 -0.3488  0.0058
  341MOL0     C45909   3.365   7.972   9.440 -0.2781 -0.3877 -0.1314
  341MOL0     C45910   3.261   7.979   9.557 -0.5033 -0.4625  0.1935
  341MOL0     C45911   3.306   8.033   9.692 -0.6189  0.7831 -0.4288
  341MOL0     C45912   3.188   8.025   9.796 -1.1392  0.3352  1.6606
  341MOL0     C45913   3.215   8.131   9.905  0.5423 -0.5750  0.0176
  341MOL0     C45914   3.149   8.088  10.042 -0.2198 -0.4531  0.3884
  341MOL0     C45915   3.245   8.072  10.169  0.8783 -0.3013  0.1906
  341MOL0     C45916   3.377   7.991  10.136 -0.2625 -0.3885 -0.1275
  341MOL0     N45917   3.461   7.959  10.256 -0.1088 -0.5014  0.3342
  341MOL0     C45918   3.411   7.892  10.358 -0.1094 -0.1745 -0.1063
  341MOL0     C45919   3.492   7.929  10.456  0.1931 -0.3223 -0.0708
  341MOL0     C45920   3.478   7.883  10.599  0.1503  0.6619  0.0966
  341MOL0     C45921   3.616   7.821  10.644  0.0075 -0.3264  0.4093
  341MOL0     C45922   3.604   7.777  10.783  0.4796 -0.6161  0.2690
  341MOL0     C45923   3.741   7.716  10.829 -0.8103  0.4740  0.3467
  341MOL0     O45924   3.793   7.612  10.748 -0.3077 -0.0863  0.9098
  341MOL0     C45925   3.920   7.567  10.773  0.9536  1.2726  0.6839
  341MOL0     C45926   3.990   7.581  10.889 -0.2680 -0.0461  0.2495
  341MOL0     C45927   4.123   7.526  10.898 -0.0970  0.4709 -0.3702
  341MOL0     C45928   4.185   7.452  10.797  0.7146  0.4309 -0.3208
  341MOL0     C45929   4.329   7.418  10.812 -0.7979  0.7576  0.0080
  341MOL0     O45930   4.397   7.398  10.698  0.0895 -0.2400 -0.1531
  341MOL0     C45931   4.534   7.371  10.695  0.6917  0.3501  0.5112
  341MOL0     C45932   4.619   7.442  10.617 -0.6284  0.0352  0.0269
  341MOL0     C45933   4.749   7.405  10.609  0.1700  0.9160 -0.2080
  341MOL0     C45934   4.799   7.285  10.669 -1.4283  0.2513  0.4448
  341MOL0     O45935   4.927   7.246  10.670  0.1281 -0.4721 -0.0924
  341MOL0     C45936   5.007   7.289  10.558 -0.4592  0.5865  0.2426
  341MOL0     C45937   5.130   7.199  10.558 -1.0085  0.0316 -0.7368
  341MOL0     C45938   5.202   7.207  10.696  0.2550 -0.6238  0.7411
  341MOL0     C45939   5.353   7.170  10.681 -0.2455 -0.5352 -0.0598
  341MOL0     C45940   5.416   7.113  10.803 -0.9392 -0.0261  0.0049
  341MOL0     C45941   5.363   6.981  10.846 -0.8024 -0.3960  0.6866
  341MOL0     C45942   5.456   6.927  10.963  1.0131  0.1268  1.0349
  341MOL0     C45943   5.561   6.824  10.924  0.0260 -0.0589 -0.2678
  341MOL0    Cl45944   5.641   6.771  11.065  0.1869  0.1350  0.2710
  341MOL0     C45945   4.718   7.214  10.749 -0.3467 -0.2104  0.4400
  341MOL0     C45946   4.580   7.254  10.757 -0.1330 -0.4836 -0.2769
  341MOL0     O45947   4.377   7.415  10.927  0.0478  0.2871  0.4035
  341MOL0     C45948   4.110   7.438  10.676  0.6482  0.0401  0.0582
  341MOL0     C45949   3.981   7.496  10.668  0.1493 -0.1938 -0.5824
  341MOL0     N45950   3.576   8.024  10.413  0.5584 -0.5455  0.0116
  341MOL0     N45951   3.564   8.041  10.296  0.4631 -0.7176 -0.0669
  341MOL0     C45952   3.623   8.006   9.304  0.0717 -0.6493  0.2826
  341MOL0     C45953   3.747   8.005   9.247  0.3130 -0.0292 -0.0553
  341MOL0     C45954   4.155   7.938   9.074  0.5755  0.1661 -0.4961
  341MOL0     C45955   4.229   7.816   9.078  0.2747  0.3065 -0.5122
  341MOL0     C45956   4.366   7.811   9.043  0.7833  0.7815  0.8410
  341MOL0     C45957   4.423   7.924   8.994 -0.0532  0.2507  0.0782
  341MOL0     O45958   4.556   7.897   8.951 -0.1443 -0.5876  0.2244
  341MOL0     C45959   4.641   8.012   8.933  0.1222  0.0521  1.0580
  341MOL0     C45960   4.790   7.977   8.929 -0.1804  0.4913 -0.9503
  341MOL0     C45961   4.841   7.895   9.044 -0.2471 -1.2256 -0.7510
  341MOL0     C45962   4.983   7.849   9.035 -0.5582  0.1447 -0.3653
  341MOL0     C45963   5.020   7.757   9.141 -0.0860  0.6351 -0.3783
  341MOL0     C45964   5.063   7.675   9.222  0.3668  0.2866  0.2037
  341MOL0     C45965   4.355   8.043   8.983 -0.1363 -0.8687  0.5775
  341MOL0     C45966   4.225   8.055   9.023 -0.6566 -0.1679  0.9967
  341MOL0     C45967   4.143   8.179   9.007  0.0617 -0.2227 -0.4760
  341MOL0     H45968   3.929   7.837   9.465  1.0944  2.2792  0.1478
  341MOL0     H45969   3.678   7.806   9.557 -2.7837 -1.8046 -2.8508
  341MOL0     H45970   3.401   8.074   9.421 -2.3127  0.3427 -0.3504
  341MOL0     H45971   3.317   7.925   9.355  1.1558  0.1836 -1.3009
  341MOL0     H45972   3.227   7.877   9.575  0.8230 -0.7887  0.9470
  341MOL0     H45973   3.178   8.043   9.523 -0.6182 -0.8263 -0.2150
  341MOL0     H45974   3.347   8.134   9.689 -0.6072  0.7550 -2.2072
  341MOL0     H45975   3.387   7.972   9.734 -1.8227 -0.1107  0.6659
  341MOL0     H45976   3.086   8.026   9.757  0.1836 -0.2269 -2.2226
  341MOL0     H45977   3.185   7.927   9.844  1.5624 -0.3484  0.6248
  341MOL0     H45978   3.318   8.156   9.932 -1.0611  2.8486  4.1817
  341MOL0     H45979   3.177   8.231   9.879  4.0333  0.6458 -1.0075
  341MOL0     H45980   3.070   8.163  10.054  1.0250  1.6703 -3.2489
  341MOL0     H45981   3.109   7.987  10.032  0.6304 -0.5798 -2.3209
  341MOL0     H45982   3.183   8.021  10.243  0.6261 -0.4414 -0.1143
  341MOL0     H45983   3.269   8.170  10.210  1.5422  0.4190 -1.7825
  341MOL0     H45984   3.360   7.893  10.092  0.6381 -1.2581  1.3707
  341MOL0     H45985   3.439   8.038  10.058 -0.3655  3.4940  1.9034
  341MOL0     H45986   3.322   7.830  10.367 -2.5593  3.1876  0.8426
  341MOL0     H45987   3.459   7.976  10.654  1.2910 -0.2030  2.0356
  341MOL0     H45988   3.391   7.818  10.602  1.8140 -1.9502 -2.4290
  341MOL0     H45989   3.631   7.731  10.585 -0.8046  1.2679 -2.3842
  341MOL0     H45990   3.698   7.892  10.627 -0.1508 -0.5335 -1.3365
  341MOL0     H45991   3.516   7.714  10.799 -0.5696  0.8317  0.4450
  341MOL0     H45992   3.584   7.872  10.834  0.1281 -0.2307 -0.5669
  341MOL0     H45993   3.724   7.686  10.933  0.6239  2.3257  1.1792
  341MOL0     H45994   3.818   7.793  10.843 -0.9580  0.5712  0.6514
  341MOL0     H45995   3.947   7.643  10.967  1.0127  0.9470  0.2022
  341MOL0     H45996   4.177   7.548  10.990 -1.1751  2.2543 -0.1092
  341MOL0     H45997   4.591   7.527  10.557  5.0474  2.0123 -0.4735
  341MOL0     H45998   4.822   7.463  10.553  2.1259 -1.1432  0.0845
  341MOL0     H45999   4.946   7.270  10.469 -1.6155 -3.4638  1.6828
  341MOL0     H46000   5.029   7.396  10.565  1.8569  0.0921  2.0393
  341MOL0     H46001   5.100   7.096  10.536 -3.3094  0.4680  0.1116
  341MOL0     H46002   5.207   7.242  10.493  1.0097 -0.7426  1.0204
  341MOL0     H46003   5.187   7.307  10.737 -0.7547 -1.0226  1.3984
  341MOL0     H46004   5.149   7.144  10.769  0.2006 -1.4074  0.0465
  341MOL0     H46005   5.408   7.252  10.633 -0.3205  0.8393  2.0998
  341MOL0     H46006   5.365   7.087  10.611  2.9660 -0.3427  0.0800
  341MOL0     H46007   5.414   7.183  10.887  1.8295 -0.8065  0.8213
  341MOL0     H46008   5.521   7.095  10.777 -1.4698 -1.7821 -1.0658
  341MOL0     H46009   5.266   6.997  10.894 -0.3112  0.0483  1.5622
  341MOL0     H46010   5.361   6.903  10.769  2.1905 -2.1753  2.2127
  341MOL0     H46011   5.393   6.869  11.030 -0.5680 -0.6485 -1.0271
  341MOL0     H46012   5.503   7.008  11.020  0.0924  3.2682 -2.2791
  341MOL0     H46013   5.503   6.742  10.881 -0.9299 -0.4595  1.6517
  341MOL0     H46014   5.630   6.855  10.845  0.6639 -0.3617  0.1676
  341MOL0     H46015   4.749   7.124  10.800 -0.8754 -2.1264 -2.4225
  341MOL0     H46016   4.514   7.200  10.824 -1.0066  0.4409 -0.3706
  341MOL0     H46017   4.153   7.386  10.591  1.2423  2.4456 -1.2026
  341MOL0     H46018   3.927   7.485  10.574  1.7648  4.0050 -2.2550
  341MOL0     H46019   3.534   8.039   9.252  0.0818 -2.3537 -0.9269
  341MOL0     H46020   3.740   8.057   9.152  0.3863  1.8331  0.9243
  341MOL0     H46021   4.194   7.717   9.106 -1.5919  1.8424  3.1780
  341MOL0     H46022   4.429   7.723   9.049  2.0128  1.6588  1.4713
  341MOL0     H46023   4.626   8.072   9.024  3.1272 -3.1086  3.9256
  341MOL0     H46024   4.613   8.070   8.845  0.1085 -0.5324  0.6735
  341MOL0     H46025   4.841   8.074   8.920 -0.5147  0.7151 -0.4778
  341MOL0     H46026   4.812   7.928   8.834  0.3766 -2.5632  0.6499
  341MOL0     H46027   4.782   7.803   9.040 -2.9974  0.4874 -2.0120
  341MOL0     H46028   4.841   7.949   9.139  0.4614 -0.6086 -1.0900
  341MOL0     H46029   5.007   7.795   8.943  1.4644  1.6693 -0.8102
  341MOL0     H46030   5.045   7.940   9.040 -2.2498  1.4761 -2.0812
  341MOL0     H46031   5.111   7.602   9.284  2.5861  1.0224 -0.5178
  341MOL0     H46032   4.396   8.131   8.935  0.4169 -0.2675  2.0765
  341MOL0     H46033   4.111   8.220   9.103  2.3237 -1.8261  1.0718
  341MOL0     H46034   4.193   8.258   8.948  3.4348 -1.5065  0.4275
  341MOL0     H46035   4.044   8.154   8.968 -0.2732 -3.3498  2.0054
  342MOL0     O46036   5.584   4.046   6.680  0.0932 -0.1209 -0.0080
  342MOL0     C46037   5.559   4.165   6.652 -0.8066 -0.0866  0.1625
  342MOL0     O46038   5.639   4.249   6.575 -0.6871 -0.6016  0.4710
  342MOL0     C46039   5.753   4.199   6.521  0.2038  0.1189  0.2107
  342MOL0     C46040   5.757   4.184   6.381  0.3728 -0.9198  0.5817
  342MOL0     C46041   5.854   4.101   6.325 -0.0444 -0.2648  0.7724
  342MOL0     C46042   5.961   4.047   6.399  0.4369 -0.0005  1.0331
  342MOL0     O46043   6.062   3.977   6.328  0.5439 -0.2757  0.1390
  342MOL0     C46044   6.204   4.001   6.359  0.4260  0.3450 -0.2463
  342MOL0     C46045   6.295   3.942   6.241  0.0844 -0.4724 -0.0822
  342MOL0     C46046   6.299   3.789   6.237  0.0140  0.2026 -0.4152
  342MOL0     C46047   6.203   3.737   6.127 -0.6622  0.3731  0.2521
  342MOL0     C46048   6.222   3.586   6.109  0.2459 -0.3684  0.7328
  342MOL0     C46049   6.131   3.536   5.998  0.8484  0.7011 -0.2558
  342MOL0     C46050   6.184   3.399   5.940 -0.5441  0.0854  0.0441
  342MOL0     C46051   6.074   3.348   5.837  0.1746  0.2570 -0.4069
  342MOL0     N46052   6.094   3.444   5.718 -0.4046  0.0942 -0.4180
  342MOL0     C46053   6.000   3.545   5.690 -0.7227 -0.0607  0.3980
  342MOL0     C46054   6.049   3.611   5.580 -0.3576  0.2718  0.9087
  342MOL0     C46055   5.980   3.731   5.522  0.3126 -0.0653 -0.4151
  342MOL0     C46056   5.973   3.870   5.595  0.9664 -0.2104  0.4052
  342MOL0     C46057   5.966   3.846   5.737 -0.2169  0.4815 -1.2275
  342MOL0     C46058   5.955   3.984   5.814 -0.7678  0.0539 -0.1326
  342MOL0     O46059   5.839   4.057   5.774 -0.2177 -1.4176 -0.7876
  342MOL0     C46060   5.731   4.065   5.855 -0.2805  0.4274 -0.2882
  342MOL0     C46061   5.694   4.198   5.878 -0.0072 -0.1274 -0.9374
  342MOL0     C46062   5.601   4.232   5.973  0.5192  0.0633  0.1718
  342MOL0     C46063   5.518   4.135   6.044 -0.6986  0.1088 -0.2900
  342MOL0     C46064   5.407   4.161   6.147  0.2410  0.2822  0.7578
  342MOL0     O46065   5.315   4.059   6.168  0.1805 -0.3985  0.0611
  342MOL0     C46066   5.236   4.070   6.278 -0.1605  0.5968  0.0544
  342MOL0     C46067   5.100   4.112   6.266 -0.5131  0.3256  0.2548
  342MOL0     C46068   5.021   4.121   6.381 -0.7089  0.9298  0.6756
  342MOL0     C46069   5.074   4.078   6.508 -0.6632  0.4975 -0.5454
  342MOL0     O46070   5.011   4.062   6.631 -0.4124  0.5086  0.7037
  342MOL0     C46071   4.873   4.114   6.631 -0.2447 -0.2584  0.7212
  342MOL0     C46072   4.803   4.117   6.767 -0.8603  0.2026  1.3399
  342MOL0     C46073   4.671   4.046   6.759 -0.8674  1.9405  0.7695
  342MOL0     C46074   4.694   3.888   6.794  1.0793 -0.4562 -0.0810
  342MOL0     C46075   4.553   3.817   6.804  0.0656  0.7956 -0.8993
  342MOL0     C46076   4.464   3.821   6.675 -0.3442 -0.6353  0.0126
  342MOL0     C46077   4.352   3.714   6.660 -0.6506 -0.7787 -0.4156
  342MOL0     C46078   4.400   3.573   6.699  0.0145  0.3772 -0.5751
  342MOL0    Cl46079   4.369   3.521   6.864 -0.2298  0.5267  0.2718
  342MOL0     C46080   5.208   4.021   6.511  0.1232  0.4747 -0.3304
  342MOL0     C46081   5.292   4.029   6.399  0.8143 -0.1820  0.5334
  342MOL0     O46082   5.403   4.265   6.207 -0.2412 -0.5355 -0.0111
  342MOL0     C46083   5.548   4.002   6.012  0.0971  0.2075  0.0298
  342MOL0     C46084   5.656   3.964   5.918  0.7485  0.5809 -0.4012
  342MOL0     N46085   6.171   3.544   5.542 -0.0062  1.2953  0.4961
  342MOL0     N46086   6.191   3.440   5.622  0.4765 -1.0115 -0.0755
  342MOL0     C46087   5.967   4.075   6.532  0.1803 -0.0149  0.4349
  342MOL0     C46088   5.857   4.141   6.594 -0.6686  0.3051 -0.1120
  342MOL0     C46089   5.440   4.228   6.701  0.2840 -0.2295  0.1028
  342MOL0     C46090   5.363   4.287   6.604  1.7073  0.0032  0.2642
  342MOL0     C46091   5.247   4.368   6.637  0.5893  0.7706 -0.3930
  342MOL0     C46092   5.201   4.370   6.766 -0.9007  0.4771 -0.2776
  342MOL0     O46093   5.085   4.428   6.807  1.2285  0.3742  0.6020
  342MOL0     C46094   5.057   4.564   6.764 -0.3023  0.5027  0.7169
  342MOL0     C46095   5.153   4.653   6.836 -0.7328 -0.8519 -0.6673
  342MOL0     C46096   5.139   4.643   6.989 -0.6686  0.1620 -0.7708
  342MOL0     C46097   5.255   4.702   7.065 -0.4118 -0.5829 -1.3727
  342MOL0     C46098   5.369   4.603   7.069 -0.8078  0.2110 -1.1955
  342MOL0     C46099   5.456   4.518   7.083 -0.1466 -0.0380 -0.6533
  342MOL0     C46100   5.269   4.296   6.863 -0.7578  0.4585  0.4161
  342MOL0     C46101   5.390   4.218   6.840  0.0533 -0.6348  0.8330
  342MOL0     C46102   5.463   4.155   6.947  0.2328 -0.5152 -1.0345
  342MOL0     H46103   5.687   4.228   6.310 -0.1412  0.1127  1.6873
  342MOL0     H46104   5.867   4.071   6.221 -1.4437  1.7633 -0.0377
  342MOL0     H46105   6.232   4.105   6.375 -1.5482  0.5954  2.3260
  342MOL0     H46106   6.234   3.958   6.455  0.5314  0.7333 -0.1039
  342MOL0     H46107   6.399   3.972   6.255 -0.2365 -0.3116  2.4930
  342MOL0     H46108   6.258   3.993   6.152 -1.1247 -1.5102 -0.2089
  342MOL0     H46109   6.269   3.754   6.337 -0.3679  1.0709 -0.2121
  342MOL0     H46110   6.403   3.762   6.219 -0.1098  0.2711 -1.2895
  342MOL0     H46111   6.099   3.761   6.152 -0.5127  2.2695 -0.7899
  342MOL0     H46112   6.228   3.796   6.038 -3.3876  4.2258  1.7240
  342MOL0     H46113   6.329   3.567   6.096  0.3437  1.0364 -1.0189
  342MOL0     H46114   6.185   3.529   6.194 -1.8211 -1.5724 -0.8640
  342MOL0     H46115   6.031   3.511   6.036 -0.5218  3.6750 -1.6413
  342MOL0     H46116   6.115   3.609   5.918 -1.7717 -0.8780 -1.3152
  342MOL0     H46117   6.188   3.333   6.028  0.7886  0.2733  0.1430
  342MOL0     H46118   6.288   3.388   5.909 -0.0015 -4.3007  2.5741
  342MOL0     H46119   6.103   3.247   5.805 -0.9514 -0.0226 -0.6046
  342MOL0     H46120   5.969   3.344   5.869  0.1652 -1.7920 -0.5085
  342MOL0     H46121   5.904   3.572   5.734  0.8251  0.3065  3.9029
  342MOL0     H46122   6.029   3.751   5.426  0.3291  1.8056 -0.0419
  342MOL0     H46123   5.883   3.692   5.490 -0.0064  3.5338 -4.7648
  342MOL0     H46124   6.060   3.933   5.578 -0.9556  1.6675 -4.0306
  342MOL0     H46125   5.886   3.918   5.550  1.0976 -1.2473 -1.0627
  342MOL0     H46126   6.050   3.790   5.779  0.4093  2.8192  0.9096
  342MOL0     H46127   5.864   3.809   5.753 -1.2553  3.5047 -0.1062
  342MOL0     H46128   6.044   4.041   5.787 -1.0336  0.4221 -0.2400
  342MOL0     H46129   5.967   3.977   5.923 -1.7748  0.0601 -0.0113
  342MOL0     H46130   5.742   4.285   5.833  0.5882  0.1247  0.1233
  342MOL0     H46131   5.563   4.330   6.000  1.0563  0.5228 -0.7016
  342MOL0     H46132   5.053   4.132   6.170 -2.8857 -1.8040  0.8753
  342MOL0     H46133   4.926   4.161   6.349  1.4556  5.5376 -0.8796
  342MOL0     H46134   4.866   4.219   6.602 -3.0897 -0.3382  0.8020
  342MOL0     H46135   4.818   4.051   6.561 -0.9247  1.2881 -0.1628
  342MOL0     H46136   4.880   4.062   6.823  1.2378  0.2266 -1.3472
  342MOL0     H46137   4.790   4.219   6.804  0.6468  0.7699  0.3723
  342MOL0     H46138   4.590   4.075   6.826 -4.3763 -3.3059 -0.5613
  342MOL0     H46139   4.625   4.057   6.661  1.5611 -0.5834 -0.8077
  342MOL0     H46140   4.737   3.880   6.894 -2.1622 -3.5511  1.3002
  342MOL0     H46141   4.763   3.831   6.730 -1.6267 -1.5267 -2.2726
  342MOL0     H46142   4.489   3.854   6.884 -0.5782  0.5232 -1.2840
  342MOL0     H46143   4.584   3.712   6.815 -2.8572 -0.2489 -1.7204
  342MOL0     H46144   4.430   3.925   6.670  0.0468 -0.4766  0.4717
  342MOL0     H46145   4.536   3.818   6.592  1.0673  1.2801  1.0632
  342MOL0     H46146   4.331   3.716   6.553 -3.1394  1.4245  0.0160
  342MOL0     H46147   4.265   3.744   6.719  0.8099  0.9852  0.9772
  342MOL0     H46148   4.344   3.497   6.642  1.6502  0.4516 -2.4053
  342MOL0     H46149   4.508   3.561   6.680  0.3002 -1.9542  1.9401
  342MOL0     H46150   5.238   3.985   6.609  0.0041  0.7427 -0.1930
  342MOL0     H46151   5.387   3.979   6.416 -0.8914 -4.3521 -0.9178
  342MOL0     H46152   5.499   3.916   6.056 -1.9279  0.4421 -1.5666
  342MOL0     H46153   5.672   3.857   5.904  0.5214  0.6300 -1.1025
  342MOL0     H46154   6.045   4.035   6.596  1.0214  1.7521  0.5835
  342MOL0     H46155   5.852   4.160   6.701 -2.7739  2.9030 -0.5648
  342MOL0     H46156   5.391   4.287   6.499  0.0799 -0.4275 -0.2000
  342MOL0     H46157   5.186   4.416   6.560  1.3450 -0.2362 -1.6531
  342MOL0     H46158   4.952   4.588   6.781 -0.1312 -1.1051  5.8198
  342MOL0     H46159   5.074   4.581   6.657  1.4350  0.4291  0.9455
  342MOL0     H46160   5.137   4.757   6.806  0.2135  0.3426  2.5497
  342MOL0     H46161   5.257   4.629   6.811 -0.6105 -0.2044 -0.7809
  342MOL0     H46162   5.116   4.544   7.029 -2.7366  2.3289  4.2749
  342MOL0     H46163   5.048   4.695   7.021  1.2598  1.9672  2.2161
  342MOL0     H46164   5.287   4.798   7.024 -0.3165 -0.4589 -1.0141
  342MOL0     H46165   5.223   4.714   7.169  2.2424 -2.8386 -0.1493
  342MOL0     H46166   5.537   4.449   7.097 -0.9927 -0.5781  2.1507
  342MOL0     H46167   5.250   4.296   6.970  1.4333 -2.3230  0.9331
  342MOL0     H46168   5.569   4.175   6.930  1.0493 -2.7874  0.9081
  342MOL0     H46169   5.434   4.199   7.043  1.3731 -1.4999 -0.2149
  342MOL0     H46170   5.450   4.047   6.953 -0.9416 -0.5407 -2.9712
  343MOL0     O46171  11.318   9.733   3.909  0.0348  0.6938  0.7704
  343MOL0     C46172  11.233   9.828   3.924 -0.3489 -0.0723  0.2619
  343MOL0     O46173  11.099   9.810   3.946 -0.1553  0.3955 -0.0735
  343MOL0     C46174  11.066   9.682   3.991 -1.1959  0.0342  0.8368
  343MOL0     C46175  10.970   9.599   3.929  0.0801  0.5162  0.1105
  343MOL0     C46176  10.919   9.493   3.999 -0.9881  0.8022 -1.0713
  343MOL0     C46177  10.966   9.459   4.134  0.4504 -0.1197  0.8949
  343MOL0     O46178  10.914   9.348   4.198  0.0310  0.0215  0.0398
  343MOL0     C46179  11.005   9.260   4.271 -0.2595  0.3517 -0.1295
  343MOL0     C46180  11.048   9.139   4.182  0.6336 -0.5669 -0.1952
  343MOL0     C46181  11.147   9.037   4.234  1.1683  0.7589  1.2025
  343MOL0     C46182  11.162   8.914   4.144  0.0804  0.0801 -0.2647
  343MOL0     C46183  11.254   8.825   4.224 -0.0221  0.2013 -0.0212
  343MOL0     C46184  11.296   8.705   4.145  0.7883 -0.1637  0.4619
  343MOL0     C46185  11.177   8.621   4.086  0.6089  0.1862 -1.9174
  343MOL0     C46186  11.106   8.531   4.188  0.0522 -0.3538 -0.3893
  343MOL0     N46187  11.020   8.429   4.123  0.3667 -0.0733  0.1924
  343MOL0     C46188  10.906   8.464   4.045 -0.7350  0.0044  0.0899
  343MOL0     C46189  10.870   8.347   3.984  1.3055  0.1791  0.2373
  343MOL0     C46190  10.754   8.346   3.896 -0.5239 -0.5297  0.6532
  343MOL0     C46191  10.784   8.324   3.743  0.2779 -0.4448  0.5729
  343MOL0     C46192  10.871   8.202   3.711  0.5781  0.7125  0.2284
  343MOL0     C46193  10.895   8.176   3.567 -0.5959 -0.3267  0.1219
  343MOL0     O46194  10.781   8.184   3.482  0.1705  0.5580 -0.2481
  343MOL0     C46195  10.784   8.107   3.367  0.9085 -0.8575 -0.6811
  343MOL0     C46196  10.898   8.055   3.309  0.2293  0.5626 -0.7952
  343MOL0     C46197  10.897   7.977   3.198  0.3444 -0.2099  0.8285
  343MOL0     C46198  10.774   7.938   3.137 -0.3601  0.6157 -0.4869
  343MOL0     C46199  10.781   7.841   3.024  0.3714 -0.7427  0.4543
  343MOL0     O46200  10.904   7.811   2.964 -0.2432  0.5664  1.1329
  343MOL0     C46201  10.919   7.742   2.848 -0.0422 -0.1884 -0.2467
  343MOL0     C46202  10.858   7.778   2.724 -0.8225  0.1488 -1.5549
  343MOL0     C46203  10.883   7.697   2.612 -0.2401 -0.1532  0.2424
  343MOL0     C46204  10.943   7.574   2.623  0.3659  0.6097  0.0863
  343MOL0     O46205  10.976   7.499   2.510  0.3844 -0.0005 -0.2638
  343MOL0     C46206  11.119   7.504   2.471  0.9137 -1.0495 -0.6758
  343MOL0     C46207  11.149   7.376   2.409 -1.0887 -0.0894  0.8333
  343MOL0     C46208  11.055   7.350   2.291  0.2215  0.9243  0.2292
  343MOL0     C46209  11.040   7.199   2.279  0.3540  0.4481  0.7743
  343MOL0     C46210  11.158   7.132   2.206  0.5922  0.0773  0.2909
  343MOL0     C46211  11.150   7.147   2.054 -0.3361 -0.1280 -0.1181
  343MOL0     C46212  11.256   7.041   1.990  0.0548  0.1316 -0.8275
  343MOL0     C46213  11.265   7.055   1.833  0.5270  0.7372 -0.5384
  343MOL0    Cl46214  11.111   7.113   1.763 -0.0629 -0.3849 -0.1584
  343MOL0     C46215  10.983   7.531   2.751  0.3498 -0.3511  1.1313
  343MOL0     C46216  10.984   7.620   2.856  0.0998 -0.2268 -0.1724
  343MOL0     O46217  10.674   7.804   2.980  0.0571  0.0110 -0.8686
  343MOL0     C46218  10.654   7.987   3.196 -0.2694 -0.6742 -0.8024
  343MOL0     C46219  10.664   8.069   3.310 -0.2768 -0.3777  0.7400
  343MOL0     N46220  10.966   8.253   4.001  0.3027  0.7695  0.0627
  343MOL0     N46221  11.050   8.300   4.089  0.2538  0.4257  0.1544
  343MOL0     C46222  11.062   9.538   4.188 -0.3052 -0.3320 -0.2634
  343MOL0     C46223  11.120   9.644   4.115  0.5956  0.1337 -0.1641
  343MOL0     C46224  11.271   9.970   3.915 -0.6042 -0.0572 -0.5553
  343MOL0     C46225  11.210  10.067   3.996 -0.8806  0.8127  0.0052
  343MOL0     C46226  11.228  10.206   3.994  0.7995 -0.0873  0.1018
  343MOL0     C46227  11.323  10.256   3.904 -0.1605 -0.5496 -0.8109
  343MOL0     O46228  11.372  10.386   3.899  0.0629 -0.0158  0.1535
  343MOL0     C46229  11.330  10.486   3.995 -0.4159  0.5913 -0.0820
  343MOL0     C46230  11.199  10.561   3.959  0.2268 -0.4401 -0.3604
  343MOL0     C46231  11.141  10.624   4.075  0.7578 -0.5852 -0.3200
  343MOL0     C46232  11.021  10.732   4.050  0.2774 -0.2471 -0.3240
  343MOL0     C46233  10.974  10.813   4.162  0.1761 -0.0733 -0.8622
  343MOL0     C46234  10.936  10.860   4.266  0.0685 -0.9646  0.5513
  343MOL0     C46235  11.392  10.163   3.824  0.5569 -0.5043  0.5610
  343MOL0     C46236  11.369  10.020   3.830  1.1004 -0.4230  0.1062
  343MOL0     C46237  11.447   9.927   3.748 -0.3696 -1.0306 -0.9648
  343MOL0     H46238  10.922   9.638   3.839 -0.1797 -0.3701 -0.1432
  343MOL0     H46239  10.854   9.415   3.960  0.3744 -0.7391 -0.3947
  343MOL0     H46240  11.093   9.305   4.317  0.0800 -1.2076  0.8027
  343MOL0     H46241  10.955   9.221   4.360  0.7526  0.3577  0.4476
  343MOL0     H46242  11.099   9.184   4.097 -1.0383 -0.2088 -1.0443
  343MOL0     H46243  10.954   9.091   4.153  0.0972  0.1317  0.3603
  343MOL0     H46244  11.106   9.014   4.332 -1.3373  3.2988  0.8822
  343MOL0     H46245  11.246   9.081   4.250  1.9096  0.1691 -1.2489
  343MOL0     H46246  11.061   8.874   4.132  0.9163 -2.0305 -0.7283
  343MOL0     H46247  11.194   8.937   4.042 -0.3569  0.6062 -0.2872
  343MOL0     H46248  11.347   8.877   4.248  0.5168 -1.7339  2.5354
  343MOL0     H46249  11.214   8.796   4.322  2.4518 -0.3741  0.8917
  343MOL0     H46250  11.364   8.732   4.063 -2.0582  0.5424 -1.8142
  343MOL0     H46251  11.345   8.647   4.224  0.0830  0.0920  1.1017
  343MOL0     H46252  11.211   8.555   4.006  3.9886  0.9141 -1.2340
  343MOL0     H46253  11.102   8.683   4.035 -2.9044 -1.6959  0.5400
  343MOL0     H46254  11.178   8.474   4.247  0.5836  3.3324  2.9742
  343MOL0     H46255  11.042   8.592   4.253  0.2659 -1.1959  0.6446
  343MOL0     H46256  10.865   8.564   4.035 -1.1499 -0.3726 -3.1873
  343MOL0     H46257  10.690   8.260   3.921  2.1927 -2.9157 -0.0512
  343MOL0     H46258  10.699   8.441   3.900  2.5493  1.4015 -0.0015
  343MOL0     H46259  10.683   8.305   3.706  0.2619  0.3412  0.1798
  343MOL0     H46260  10.837   8.408   3.697  1.6047 -1.9891 -0.8569
  343MOL0     H46261  10.818   8.115   3.751  2.5967 -1.7440 -2.0516
  343MOL0     H46262  10.971   8.216   3.753  0.9495  2.1719 -1.0161
  343MOL0     H46263  10.934   8.074   3.567 -0.1877 -0.1786  0.7064
  343MOL0     H46264  10.974   8.244   3.534 -0.5824 -0.9366 -1.1537
  343MOL0     H46265  10.995   8.059   3.357 -0.5313  2.0953  0.7248
  343MOL0     H46266  10.987   7.936   3.152 -2.0858 -2.9468 -1.9803
  343MOL0     H46267  10.820   7.880   2.722 -1.3232  0.0606  0.6471
  343MOL0     H46268  10.854   7.727   2.512 -1.6796 -0.4186  0.5554
  343MOL0     H46269  11.116   7.588   2.401  0.7681  1.2002  1.8692
  343MOL0     H46270  11.195   7.515   2.548  2.5841  3.7917 -2.6423
  343MOL0     H46271  11.256   7.369   2.387 -1.0249  2.3842  0.0749
  343MOL0     H46272  11.131   7.310   2.494 -1.8822  1.6502  2.0845
  343MOL0     H46273  10.954   7.393   2.295 -0.1029  0.6311 -2.6374
  343MOL0     H46274  11.091   7.400   2.200  1.5101 -0.6776 -0.1839
  343MOL0     H46275  10.950   7.163   2.229  0.5438  0.9067  0.0845
  343MOL0     H46276  11.028   7.160   2.381 -1.2947 -2.0116 -0.2690
  343MOL0     H46277  11.143   7.025   2.220 -0.9410 -0.0246 -1.6028
  343MOL0     H46278  11.250   7.174   2.247  0.4805  0.3142  0.2979
  343MOL0     H46279  11.048   7.125   2.021 -0.8516 -0.3010  1.4785
  343MOL0     H46280  11.170   7.250   2.025  2.1481 -1.1234 -2.3600
  343MOL0     H46281  11.214   6.945   2.025 -2.7183  1.5608  0.1415
  343MOL0     H46282  11.356   7.063   2.028 -0.2868  0.0727  0.1564
  343MOL0     H46283  11.349   7.121   1.812  1.0988 -0.5058 -2.4025
  343MOL0     H46284  11.297   6.957   1.798 -1.1013  0.4817 -1.4501
  343MOL0     H46285  11.046   7.445   2.772  0.0089 -0.3856  2.0654
  343MOL0     H46286  11.024   7.591   2.953  2.1747 -0.0713 -0.9330
  343MOL0     H46287  10.561   7.961   3.146 -1.1967 -0.3529  0.7082
  343MOL0     H46288  10.567   8.092   3.351 -0.1154 -0.2772  1.0638
  343MOL0     H46289  11.093   9.530   4.292  1.1232  4.2659 -0.1091
  343MOL0     H46290  11.194   9.716   4.146  0.3098  0.7889 -0.9742
  343MOL0     H46291  11.138  10.023   4.065 -0.7943 -1.8684 -1.5035
  343MOL0     H46292  11.171  10.266   4.065 -0.5305 -0.0556 -0.9524
  343MOL0     H46293  11.402  10.568   4.010  0.3520  0.0961 -0.9271
  343MOL0     H46294  11.322  10.436   4.092 -1.8081  0.3297 -0.3087
  343MOL0     H46295  11.129  10.480   3.936  0.5438 -0.1393 -2.6123
  343MOL0     H46296  11.210  10.618   3.866  1.1668 -3.5251 -2.3236
  343MOL0     H46297  11.217  10.686   4.124  1.6397 -0.7464 -1.4375
  343MOL0     H46298  11.120  10.552   4.154  3.4394 -1.2177 -0.1009
  343MOL0     H46299  11.051  10.809   3.978  1.6298 -0.5622 -0.1224
  343MOL0     H46300  10.944  10.677   3.995  0.7132 -1.6488  0.4372
  343MOL0     H46301  10.903  10.911   4.354  0.4540  2.0114 -0.9292
  343MOL0     H46302  11.477  10.206   3.772 -1.3483  2.7595 -0.1470
  343MOL0     H46303  11.501   9.864   3.820  1.0789  1.6268  0.4087
  343MOL0     H46304  11.384   9.854   3.697 -0.8665 -1.7687  0.6176
  343MOL0     H46305  11.525   9.975   3.689  1.4385  1.0633  2.7215
  344MOL0     O46306  11.343   7.889   6.936  0.0829 -0.7458  0.0710
  344MOL0     C46307  11.465   7.876   6.922  0.0027  0.4293 -0.4458
  344MOL0     O46308  11.550   7.969   6.874  0.3188 -0.5147  0.2654
  344MOL0     C46309  11.500   8.092   6.835 -0.5498 -0.9646  0.7061
  344MOL0     C46310  11.567   8.157   6.731  0.0307  0.4568  0.9231
  344MOL0     C46311  11.530   8.280   6.687 -0.3207 -0.3992  0.7676
  344MOL0     C46312  11.429   8.358   6.750 -0.9510  0.7734  0.4747
  344MOL0     O46313  11.409   8.495   6.714 -0.1378  0.0560  0.1404
  344MOL0     C46314  11.271   8.539   6.717  0.4113 -0.1010  0.4941
  344MOL0     C46315  11.182   8.482   6.600  0.0861  0.0717 -0.6496
  344MOL0     C46316  11.033   8.498   6.634  0.8417  0.0338  0.2219
  344MOL0     C46317  10.994   8.425   6.763  1.5315  0.1390 -0.2905
  344MOL0     C46318  10.847   8.407   6.776  0.0349 -0.1535  0.1452
  344MOL0     C46319  10.833   8.310   6.896  0.1137 -0.8213  0.1177
  344MOL0     C46320  10.683   8.290   6.933  1.0604 -0.2057 -0.8976
  344MOL0     C46321  10.658   8.220   7.066 -0.4331 -0.3926  0.6306
  344MOL0     N46322  10.518   8.238   7.104 -0.8378 -0.9337 -0.0190
  344MOL0     C46323  10.410   8.157   7.103  0.6982  0.5028  0.0050
  344MOL0     C46324  10.319   8.221   7.188  0.3158 -0.9540 -0.0715
  344MOL0     C46325  10.173   8.183   7.220 -0.2042 -0.1735 -0.1649
  344MOL0     C46326  10.157   8.096   7.334  0.0010  0.2799  0.8008
  344MOL0     C46327  10.206   8.165   7.467  0.0023  0.3915  0.4147
  344MOL0     C46328  10.125   8.279   7.517 -0.2559 -0.1676  1.0146
  344MOL0     O46329   9.986   8.247   7.530  0.5139 -0.2756 -0.7312
  344MOL0     C46330   9.911   8.335   7.607  0.7607 -0.0106  0.2372
  344MOL0     C46331   9.775   8.326   7.587  0.2993 -0.3505 -0.7241
  344MOL0     C46332   9.689   8.410   7.652  0.3434  0.0399 -1.0582
  344MOL0     C46333   9.736   8.504   7.748  0.3474  0.2117  0.3381
  344MOL0     C46334   9.639   8.582   7.835  0.7606 -0.4882  0.7159
  344MOL0     O46335   9.672   8.597   7.965 -0.0489 -0.9752 -0.5425
  344MOL0     C46336   9.589   8.669   8.050 -0.4770  0.0158  0.4805
  344MOL0     C46337   9.617   8.641   8.189 -0.3160  0.0829 -0.0653
  344MOL0     C46338   9.539   8.706   8.286 -0.4346  0.6398  1.0192
  344MOL0     C46339   9.446   8.809   8.255  0.3929 -0.0276  0.1963
  344MOL0     O46340   9.379   8.867   8.357  1.2752 -0.2052 -0.0723
  344MOL0     C46341   9.242   8.834   8.366  0.2189  0.3265  0.5474
  344MOL0     C46342   9.160   8.960   8.395  0.9116 -0.2997 -0.2428
  344MOL0     C46343   9.135   9.036   8.279 -0.2657 -0.2737  0.0046
  344MOL0     C46344   9.041   9.163   8.304 -0.0217  0.7362  0.1225
  344MOL0     C46345   8.962   9.187   8.181  0.5571 -0.8336 -0.2070
  344MOL0     C46346   8.911   9.337   8.185 -0.1247  1.2221  0.5434
  344MOL0     C46347   8.867   9.391   8.048  0.1902  0.5268 -0.4575
  344MOL0     C46348   8.774   9.510   8.068  0.1700 -0.4360 -0.0333
  344MOL0    Cl46349   8.660   9.536   7.942  0.1389 -0.3700 -0.4111
  344MOL0     C46350   9.443   8.852   8.117 -0.0416  0.7722  0.5727
  344MOL0     C46351   9.517   8.778   8.021  0.4244  0.0200 -0.8627
  344MOL0     O46352   9.534   8.620   7.781 -0.6398  0.5204  0.3205
  344MOL0     C46353   9.869   8.527   7.765 -1.0699  0.7669 -0.7223
  344MOL0     C46354   9.955   8.431   7.703 -0.5424  0.4823 -0.4780
  344MOL0     N46355  10.385   8.333   7.235  0.4751  0.4144 -0.6574
  344MOL0     N46356  10.500   8.351   7.181 -0.1567 -0.2916  0.4899
  344MOL0     C46357  11.374   8.298   6.862 -0.2161  0.0302  0.1870
  344MOL0     C46358  11.412   8.173   6.912  0.0855  0.2861 -0.5064
  344MOL0     C46359  11.539   7.752   6.959 -0.1378  0.0712  0.3163
  344MOL0     C46360  11.664   7.734   6.907 -0.3751  0.2772 -0.2701
  344MOL0     C46361  11.751   7.628   6.947 -0.6562  0.0412  0.5969
  344MOL0     C46362  11.710   7.525   7.033 -0.2337 -0.8605  0.3925
  344MOL0     O46363  11.766   7.406   7.061  0.5242  0.9254 -0.2141
  344MOL0     C46364  11.889   7.373   7.000 -0.1632 -0.5437 -0.0697
  344MOL0     C46365  11.939   7.229   7.032  1.1713 -0.1338  0.7139
  344MOL0     C46366  12.075   7.192   6.960  0.9458 -0.8224 -0.0063
  344MOL0     C46367  12.195   7.233   7.044  0.4547 -0.1991 -0.4383
  344MOL0     C46368  12.313   7.259   6.953  0.4460 -0.0065  0.2089
  344MOL0     C46369  12.413   7.285   6.871 -0.5190 -0.0922  0.2283
  344MOL0     C46370  11.586   7.547   7.087  0.5721  0.9696  0.0820
  344MOL0     C46371  11.497   7.653   7.053 -0.5249  0.3076  0.0839
  344MOL0     C46372  11.373   7.677   7.136  0.4578  0.8767 -0.0940
  344MOL0     H46373  11.633   8.098   6.667 -1.5809  1.5282 -1.9471
  344MOL0     H46374  11.588   8.313   6.602  0.8504 -3.0317  0.4517
  344MOL0     H46375  11.236   8.525   6.820 -0.1202 -0.0013  0.3334
  344MOL0     H46376  11.273   8.648   6.707 -0.0898  0.0776  2.0348
  344MOL0     H46377  11.201   8.374   6.594 -1.0248 -0.2318  0.7148
  344MOL0     H46378  11.206   8.523   6.501  1.0820 -3.8017 -2.2036
  344MOL0     H46379  10.967   8.468   6.552  1.0819 -0.9016  0.3585
  344MOL0     H46380  11.005   8.603   6.647 -1.5832 -0.9632  5.2436
  344MOL0     H46381  11.030   8.323   6.749 -1.2339 -1.1377  1.1491
  344MOL0     H46382  11.031   8.461   6.860 -1.1251 -1.2728  1.3579
  344MOL0     H46383  10.793   8.500   6.795 -2.2271 -1.3315 -0.1340
  344MOL0     H46384  10.808   8.351   6.690  2.2891 -1.7014  0.0402
  344MOL0     H46385  10.869   8.208   6.886 -0.0615 -1.1252  2.1009
  344MOL0     H46386  10.872   8.340   6.994 -2.8320 -1.2210  1.5060
  344MOL0     H46387  10.633   8.244   6.848 -1.4331 -0.7635  0.7783
  344MOL0     H46388  10.634   8.388   6.940 -0.2334 -0.9714  2.3257
  344MOL0     H46389  10.671   8.113   7.047 -2.9836 -0.1960 -3.1756
  344MOL0     H46390  10.723   8.257   7.147 -0.7820  2.7652 -0.3847
  344MOL0     H46391  10.392   8.069   7.041 -2.8383  1.6695 -0.8232
  344MOL0     H46392  10.112   8.274   7.232 -2.7158 -1.6393 -0.9743
  344MOL0     H46393  10.132   8.126   7.136 -1.2744 -0.3671  0.4724
  344MOL0     H46394  10.054   8.060   7.346  0.7459 -1.8708  1.1619
  344MOL0     H46395  10.226   8.013   7.319  1.0921  1.6510 -2.6329
  344MOL0     H46396  10.307   8.204   7.447 -0.5877  1.9652  0.3679
  344MOL0     H46397  10.193   8.084   7.539 -0.6406 -0.3971 -0.5703
  344MOL0     H46398  10.138   8.353   7.437 -0.5861 -2.9428 -1.8398
  344MOL0     H46399  10.171   8.325   7.605  2.5655  2.1611 -1.4105
  344MOL0     H46400   9.734   8.246   7.525 -2.8570  0.1940  0.4622
  344MOL0     H46401   9.585   8.382   7.651  0.0730  1.0281 -1.9382
  344MOL0     H46402   9.694   8.571   8.221 -1.2572 -1.6102 -1.3421
  344MOL0     H46403   9.547   8.688   8.393 -0.8869  2.1205  1.3219
  344MOL0     H46404   9.215   8.783   8.274  5.4014  0.0084 -1.1155
  344MOL0     H46405   9.238   8.775   8.458 -2.0527  1.0108  0.9383
  344MOL0     H46406   9.064   8.929   8.438  0.2033  0.0913 -1.4984
  344MOL0     H46407   9.208   9.030   8.465  0.1873  0.2683 -0.3021
  344MOL0     H46408   9.222   9.084   8.232 -0.1644  0.2552  0.7139
  344MOL0     H46409   9.083   8.968   8.210 -0.5468  0.2594 -0.3224
  344MOL0     H46410   9.109   9.244   8.332  2.8693 -0.8923 -1.7543
  344MOL0     H46411   8.976   9.126   8.384  4.5580 -4.8420  1.9104
  344MOL0     H46412   8.869   9.129   8.183 -0.5631  0.8954  1.5062
  344MOL0     H46413   9.018   9.169   8.089  1.0260  0.3345 -0.1619
  344MOL0     H46414   8.834   9.338   8.263  1.4507  2.4853  2.1828
  344MOL0     H46415   8.995   9.395   8.224  0.0564  0.1158  1.9108
  344MOL0     H46416   8.800   9.317   8.002  0.7431 -0.8110  0.7918
  344MOL0     H46417   8.948   9.402   7.976  0.6279 -0.3827 -0.1239
  344MOL0     H46418   8.732   9.499   8.169  3.1261 -1.6714  1.1781
  344MOL0     H46419   8.844   9.593   8.077  1.5325 -1.3722 -1.3986
  344MOL0     H46420   9.400   8.948   8.090 -1.4432  0.8143  2.7123
  344MOL0     H46421   9.502   8.804   7.917 -1.3931 -0.6512 -0.8155
  344MOL0     H46422   9.912   8.596   7.836  1.4382 -0.6222 -0.7537
  344MOL0     H46423  10.059   8.438   7.732 -0.8088  1.3625  0.3492
  344MOL0     H46424  11.304   8.357   6.920 -0.2318 -0.0925  0.2912
  344MOL0     H46425  11.356   8.132   6.995  0.9319 -0.7547 -0.4399
  344MOL0     H46426  11.707   7.798   6.831  0.3291 -1.5569 -1.4742
  344MOL0     H46427  11.845   7.606   6.897  0.2435  1.5778  1.5433
  344MOL0     H46428  11.967   7.441   7.033 -3.0430  1.9074  2.3240
  344MOL0     H46429  11.878   7.375   6.891  3.2133 -0.6322 -0.5137
  344MOL0     H46430  11.871   7.152   6.994 -0.7823  0.7457  2.2614
  344MOL0     H46431  11.943   7.223   7.141  0.0933 -0.6916  0.7410
  344MOL0     H46432  12.076   7.241   6.862  0.1568  2.2797  1.3944
  344MOL0     H46433  12.085   7.085   6.942 -0.5069 -0.8740 -0.6663
  344MOL0     H46434  12.161   7.316   7.107  2.1949 -0.9181  1.5130
  344MOL0     H46435  12.228   7.156   7.113 -0.4560 -0.4870 -0.3019
  344MOL0     H46436  12.497   7.306   6.808 -0.3321 -1.1426  0.1067
  344MOL0     H46437  11.550   7.476   7.161 -0.3419 -1.1525 -2.2597
  344MOL0     H46438  11.360   7.781   7.168 -1.7370  0.0050  2.2594
  344MOL0     H46439  11.283   7.653   7.079  0.4852 -0.1629  0.2848
  344MOL0     H46440  11.365   7.619   7.229 -1.5477  2.1002  0.5606
  345MOL0     O46441  11.111   6.044   2.089 -0.5816  0.9663  0.3917
  345MOL0     C46442  11.199   6.071   2.011  0.2186 -0.4030  0.0535
  345MOL0     O46443  11.255   5.983   1.922 -0.0657 -0.7257 -0.4973
  345MOL0     C46444  11.187   5.868   1.907 -0.2761 -0.2068  0.7517
  345MOL0     C46445  11.239   5.752   1.959 -0.1261  0.4870  0.0404
  345MOL0     C46446  11.167   5.625   1.929  0.2739 -0.1816 -0.2505
  345MOL0     C46447  11.045   5.624   1.854 -0.7361  0.5737 -0.6115
  345MOL0     O46448  10.972   5.512   1.837  0.9426 -0.2541  0.4902
  345MOL0     C46449  10.853   5.520   1.749 -0.5278  1.0196  0.8376
  345MOL0     C46450  10.775   5.381   1.737 -0.4439  0.1327 -0.7640
  345MOL0     C46451  10.872   5.268   1.698  0.7225  0.3911 -0.4220
  345MOL0     C46452  10.800   5.155   1.620 -0.3601 -0.3056 -0.2274
  345MOL0     C46453  10.886   5.024   1.609 -0.3489 -0.5561  0.2243
  345MOL0     C46454  10.816   4.910   1.549 -0.2707 -0.2457  0.1846
  345MOL0     C46455  10.896   4.780   1.543  0.8442 -0.7117 -0.1917
  345MOL0     C46456  10.833   4.666   1.456 -0.2796  0.0376 -0.5364
  345MOL0     N46457  10.790   4.700   1.322  0.8639 -0.1681 -0.2628
  345MOL0     C46458  10.849   4.780   1.237 -0.8698 -0.4196  0.1834
  345MOL0     C46459  10.792   4.765   1.118 -0.2519  1.1083  0.6844
  345MOL0     C46460  10.821   4.833   0.985 -0.4395 -0.6563 -0.0014
  345MOL0     C46461  10.777   4.763   0.857  0.6632 -0.1849  0.6424
  345MOL0     C46462  10.631   4.764   0.815 -0.5693 -0.8936 -0.3806
  345MOL0     C46463  10.578   4.897   0.742 -0.6163  0.5376 -0.5202
  345MOL0     O46464  10.436   4.889   0.708 -1.1496  0.9074 -0.6954
  345MOL0     C46465  10.392   4.825   0.603 -0.5306 -0.0985  0.3897
  345MOL0     C46466  10.256   4.830   0.591 -0.0876 -0.6455 -0.9737
  345MOL0     C46467  10.191   4.779   0.485 -0.7126 -0.0944  0.0047
  345MOL0     C46468  10.271   4.708   0.387 -0.3050  0.1029  0.7843
  345MOL0     C46469  10.206   4.643   0.266  0.5351 -0.4870 -0.2970
  345MOL0     O46470  10.079   4.656   0.257  0.1678  0.0576 -0.5868
  345MOL0     C46471  10.011   4.576   0.169 -0.6923  0.0875 -0.7776
  345MOL0     C46472   9.910   4.630   0.100  0.6129 -1.4163  0.2344
  345MOL0     C46473   9.823   4.551   0.030  0.5551 -0.5462 -0.3300
  345MOL0     C46474   9.841   4.413   0.016  0.6585 -0.4554 -0.5752
  345MOL0     O46475   9.755   4.353  -0.076 -0.2587  0.5433  0.2021
  345MOL0     C46476   9.800   4.223  -0.138 -0.3988 -0.7109  0.3734
  345MOL0     C46477   9.740   4.189  -0.281  0.7892 -1.7256 -0.6600
  345MOL0     C46478   9.770   4.057  -0.332 -1.4233 -0.6789 -0.7353
  345MOL0     C46479   9.701   4.042  -0.476  1.1094 -0.3998 -0.6374
  345MOL0     C46480   9.729   3.904  -0.535  0.4438 -0.2587  0.4361
  345MOL0     C46481   9.684   3.891  -0.684 -0.1372  0.4224  0.3914
  345MOL0     C46482   9.689   3.745  -0.731 -0.4097 -0.8851  0.7488
  345MOL0     C46483   9.837   3.701  -0.743 -0.6784  0.8582  0.0003
  345MOL0    Cl46484   9.946   3.820  -0.826  0.4137 -0.0066  0.0333
  345MOL0     C46485   9.946   4.357   0.091 -0.4655  0.1325  0.2242
  345MOL0     C46486  10.024   4.439   0.175 -0.1244  0.3801  0.1444
  345MOL0     O46487  10.277   4.582   0.180  0.1794  0.2251  0.2893
  345MOL0     C46488  10.407   4.705   0.398 -0.8961  0.5314  0.0917
  345MOL0     C46489  10.477   4.765   0.501 -0.1890 -0.3921  0.1193
  345MOL0     N46490  10.706   4.671   1.128 -0.1104  0.2948 -0.3426
  345MOL0     N46491  10.700   4.632   1.247 -0.0056 -0.6195  0.4791
  345MOL0     C46492  11.012   5.744   1.796  0.0794 -0.6473 -0.1933
  345MOL0     C46493  11.067   5.865   1.832 -0.4431 -0.9153  0.9642
  345MOL0     C46494  11.253   6.215   2.003  0.8229 -1.1847  0.5142
  345MOL0     C46495  11.359   6.235   1.914  0.8573  0.4047  0.1138
  345MOL0     C46496  11.416   6.356   1.903 -0.0681  0.0037 -0.7351
  345MOL0     C46497  11.371   6.470   1.976  0.4838  0.4612  0.0546
  345MOL0     O46498  11.430   6.590   1.942 -0.6297 -1.0440 -0.0839
  345MOL0     C46499  11.401   6.702   2.029  1.0575 -0.2501  0.2047
  345MOL0     C46500  11.458   6.693   2.171 -0.0387  0.8838 -0.0657
  345MOL0     C46501  11.408   6.816   2.241 -0.3947  0.3540 -0.7036
  345MOL0     C46502  11.491   6.831   2.369  0.1915 -0.3728 -0.8301
  345MOL0     C46503  11.460   6.966   2.421 -0.5582 -0.6610  0.3470
  345MOL0     C46504  11.432   7.078   2.461  0.9732  0.5321 -0.7245
  345MOL0     C46505  11.273   6.450   2.069 -0.7497 -0.8971 -0.1072
  345MOL0     C46506  11.212   6.328   2.080  1.4522 -0.1059  0.1533
  345MOL0     C46507  11.105   6.316   2.184 -0.5056 -1.0875 -0.0502
  345MOL0     H46508  11.314   5.744   2.036  0.3097 -2.0583 -0.5549
  345MOL0     H46509  11.192   5.539   1.990 -3.1323 -1.5510 -0.5986
  345MOL0     H46510  10.777   5.582   1.797 -1.7077 -1.5055  2.4199
  345MOL0     H46511  10.898   5.544   1.652 -2.6184 -2.2700 -1.1196
  345MOL0     H46512  10.710   5.399   1.650  2.2347  3.7032 -2.3053
  345MOL0     H46513  10.733   5.343   1.830  3.5688 -1.4566  0.5970
  345MOL0     H46514  10.907   5.236   1.796 -0.6025  0.3087  0.0529
  345MOL0     H46515  10.955   5.306   1.638  0.7112 -0.6086 -1.0986
  345MOL0     H46516  10.712   5.123   1.677 -0.3045  1.5481  1.0060
  345MOL0     H46517  10.768   5.195   1.523 -3.9070 -0.0579  0.8923
  345MOL0     H46518  10.976   5.057   1.556 -1.7331  4.2749  0.3971
  345MOL0     H46519  10.927   5.009   1.710  1.8711  1.1441 -0.3431
  345MOL0     H46520  10.731   4.894   1.615 -0.8491 -1.0734 -0.7395
  345MOL0     H46521  10.781   4.946   1.451  0.5613 -2.0999 -0.8338
  345MOL0     H46522  10.911   4.750   1.647 -1.8402  0.3873  0.6099
  345MOL0     H46523  10.995   4.808   1.507  0.3812  0.7149 -0.4618
  345MOL0     H46524  10.907   4.585   1.456 -0.2382  0.0448 -2.1394
  345MOL0     H46525  10.755   4.619   1.516  0.4176  1.9010  1.9805
  345MOL0     H46526  10.932   4.848   1.254 -1.3044  0.9119 -2.4352
  345MOL0     H46527  10.767   4.928   0.996  1.7332  0.8414 -1.3883
  345MOL0     H46528  10.929   4.846   0.988 -0.6100  0.9782  0.2650
  345MOL0     H46529  10.834   4.804   0.772  0.0211 -2.0694 -0.7559
  345MOL0     H46530  10.815   4.661   0.864  2.3522  0.4052  0.6714
  345MOL0     H46531  10.565   4.749   0.901 -0.5459  0.2506 -0.1500
  345MOL0     H46532  10.631   4.677   0.749  1.7069 -0.5429 -0.9313
  345MOL0     H46533  10.639   4.923   0.655 -1.7130 -1.6383 -2.0308
  345MOL0     H46534  10.580   4.978   0.816  0.4637 -0.6672  0.8365
  345MOL0     H46535  10.196   4.891   0.658 -1.0214  0.7375 -2.9736
  345MOL0     H46536  10.082   4.783   0.482 -0.8264 -1.0310  1.6255
  345MOL0     H46537   9.886   4.735   0.114 -1.8287 -2.1395  2.0363
  345MOL0     H46538   9.737   4.585  -0.028 -0.4224 -1.9369  0.2395
  345MOL0     H46539   9.908   4.233  -0.149 -0.8121  3.1997 -1.4689
  345MOL0     H46540   9.784   4.150  -0.057  0.9080  1.1412  2.4370
  345MOL0     H46541   9.635   4.218  -0.279  1.3103  0.2861  0.8566
  345MOL0     H46542   9.794   4.249  -0.355  1.3894  0.2184  1.2316
  345MOL0     H46543   9.878   4.046  -0.342 -1.4584  0.3431 -2.8927
  345MOL0     H46544   9.737   3.985  -0.256 -1.9202  2.5738  2.4116
  345MOL0     H46545   9.734   4.126  -0.538  3.6124  1.1091  2.4681
  345MOL0     H46546   9.597   4.052  -0.443  1.2862  1.2774 -0.5215
  345MOL0     H46547   9.670   3.827  -0.485 -2.5351 -1.1921 -3.9029
  345MOL0     H46548   9.829   3.872  -0.504  0.9560  1.0085  0.1887
  345MOL0     H46549   9.578   3.919  -0.686 -0.2901 -0.1736 -2.3996
  345MOL0     H46550   9.737   3.965  -0.745 -4.4418  3.2471 -0.4231
  345MOL0     H46551   9.630   3.742  -0.823 -0.1964  1.5144  0.4734
  345MOL0     H46552   9.637   3.682  -0.659  2.2046 -1.1095  2.5780
  345MOL0     H46553   9.856   3.699  -0.635 -3.2567  0.2233  0.5125
  345MOL0     H46554   9.852   3.603  -0.788  1.1687  0.4650  1.3333
  345MOL0     H46555   9.982   4.255   0.083  0.4084  0.5705 -3.2713
  345MOL0     H46556  10.091   4.393   0.246 -0.0808 -0.2931 -0.3263
  345MOL0     H46557  10.449   4.659   0.309 -2.1058 -2.3003  0.8702
  345MOL0     H46558  10.585   4.757   0.511 -0.2361 -2.8727 -0.5741
  345MOL0     H46559  10.917   5.756   1.746 -1.0156  2.2688  2.2580
  345MOL0     H46560  11.027   5.959   1.794  0.4658 -1.0806 -0.5079
  345MOL0     H46561  11.399   6.149   1.861  0.2047  1.0763 -1.5434
  345MOL0     H46562  11.490   6.354   1.824 -0.6498 -0.6258 -1.2852
  345MOL0     H46563  11.293   6.710   2.042  0.1733 -2.1120 -4.0404
  345MOL0     H46564  11.441   6.792   1.982  3.0322  0.1691  2.5223
  345MOL0     H46565  11.566   6.679   2.172 -0.4689 -5.1284 -0.6014
  345MOL0     H46566  11.429   6.604   2.228 -0.4859  1.1251  0.0881
  345MOL0     H46567  11.301   6.812   2.259 -0.5477 -1.5895 -1.6997
  345MOL0     H46568  11.434   6.896   2.171  0.9137 -0.0661 -0.7311
  345MOL0     H46569  11.456   6.751   2.435 -1.5529 -0.2775 -1.6144
  345MOL0     H46570  11.597   6.813   2.349 -0.0402 -0.8840 -1.6419
  345MOL0     H46571  11.393   7.171   2.497  1.3674  1.5284 -2.7684
  345MOL0     H46572  11.235   6.521   2.142 -1.1059 -2.1231  0.9187
  345MOL0     H46573  11.154   6.270   2.270  1.0086 -1.6484 -1.1721
  345MOL0     H46574  11.076   6.411   2.230  2.1805 -0.8804  1.4033
  345MOL0     H46575  11.015   6.266   2.147  0.6516 -2.7220 -0.7872
  346MOL0     O46576   1.047   1.747   1.387 -0.2671 -0.0520  0.2895
  346MOL0     C46577   1.144   1.688   1.346 -0.2153  0.0267  0.4359
  346MOL0     O46578   1.151   1.597   1.249  0.4259 -0.6910 -0.1037
  346MOL0     C46579   1.042   1.564   1.171  0.9984  0.3024 -0.0801
  346MOL0     C46580   1.077   1.485   1.062 -0.3567  0.7278 -0.8274
  346MOL0     C46581   0.989   1.440   0.961  0.0837 -0.0308 -0.2077
  346MOL0     C46582   0.859   1.490   0.964  0.7709 -0.1368 -0.5495
  346MOL0     O46583   0.758   1.453   0.875  0.1060 -0.1359 -0.7654
  346MOL0     C46584   0.795   1.457   0.741  0.7127 -0.3595  0.1319
  346MOL0     C46585   0.753   1.330   0.668 -0.7916 -0.2585  0.7063
  346MOL0     C46586   0.791   1.335   0.517  0.1503 -0.0367  0.6856
  346MOL0     C46587   0.746   1.199   0.449 -0.9828  0.0349  0.5758
  346MOL0     C46588   0.863   1.114   0.403  1.3271 -0.3224  1.1712
  346MOL0     C46589   0.966   1.083   0.517 -0.4156 -0.3925 -0.3092
  346MOL0     C46590   1.096   1.034   0.459  0.4358  0.0341  0.2020
  346MOL0     C46591   1.190   0.981   0.568 -0.3302  0.2815 -1.5287
  346MOL0     N46592   1.244   1.094   0.646  1.4304 -0.1496  0.3752
  346MOL0     C46593   1.288   1.219   0.606  0.6958 -0.3400  0.0702
  346MOL0     C46594   1.300   1.284   0.726  0.0204 -0.3945 -0.6512
  346MOL0     C46595   1.337   1.434   0.750 -0.7615  0.8954 -0.1039
  346MOL0     C46596   1.480   1.457   0.760 -0.3815 -0.0927  0.1613
  346MOL0     C46597   1.522   1.449   0.905 -0.2171  0.5789 -0.8157
  346MOL0     C46598   1.671   1.460   0.922 -1.0727 -1.1373 -0.1433
  346MOL0     O46599   1.722   1.591   0.889 -0.4571  0.0590 -0.3297
  346MOL0     C46600   1.827   1.633   0.958 -0.3477 -0.6300 -0.0511
  346MOL0     C46601   1.842   1.773   0.968 -0.1749 -0.6378 -0.0399
  346MOL0     C46602   1.962   1.827   1.020  0.1470 -0.2804  0.4508
  346MOL0     C46603   2.064   1.735   1.058  1.1070 -0.8661  0.0391
  346MOL0     C46604   2.184   1.787   1.133 -0.5714  0.3721 -0.1134
  346MOL0     O46605   2.244   1.704   1.224  0.8167  0.1742 -1.0847
  346MOL0     C46606   2.338   1.743   1.312 -0.1786 -0.1678  0.3799
  346MOL0     C46607   2.312   1.789   1.442  0.1052  0.4724 -0.0384
  346MOL0     C46608   2.413   1.820   1.530  0.2767  0.2982  0.4249
  346MOL0     C46609   2.545   1.804   1.504 -0.2912 -0.2351  0.6728
  346MOL0     O46610   2.655   1.826   1.583  0.1407 -0.4045 -0.3434
  346MOL0     C46611   2.649   1.789   1.719  0.2432  0.6382  1.2753
  346MOL0     C46612   2.711   1.921   1.786  0.4323  0.4793  0.4294
  346MOL0     C46613   2.701   1.911   1.942 -0.0052 -0.1918 -0.5309
  346MOL0     C46614   2.797   2.000   2.015  0.4244  0.1124 -0.2185
  346MOL0     C46615   2.788   1.979   2.165 -0.0278  0.4796 -0.1849
  346MOL0     C46616   2.642   1.994   2.214 -0.3858  0.6323 -0.3010
  346MOL0     C46617   2.647   2.026   2.365  0.5155  0.0160 -0.7609
  346MOL0     C46618   2.507   2.015   2.431 -0.9298 -0.1622  0.3985
  346MOL0    Cl46619   2.468   1.839   2.442 -0.4714 -0.2103  0.9752
  346MOL0     C46620   2.567   1.750   1.367 -0.5371 -0.1228 -0.9942
  346MOL0     C46621   2.474   1.720   1.276  1.3205  0.1470 -0.1997
  346MOL0     O46622   2.212   1.905   1.115  0.0628  0.2328 -0.0040
  346MOL0     C46623   2.045   1.597   1.058 -0.3438  0.1064  0.0636
  346MOL0     C46624   1.935   1.553   0.999  0.3694 -0.3667 -0.6243
  346MOL0     N46625   1.259   1.198   0.836  0.6370  0.1099  0.5521
  346MOL0     N46626   1.223   1.092   0.783 -0.6019 -0.1002  0.3680
  346MOL0     C46627   0.820   1.572   1.075 -0.0739 -0.1872  0.7292
  346MOL0     C46628   0.912   1.604   1.174 -0.1895  0.5834 -0.5991
  346MOL0     C46629   1.258   1.706   1.441  0.2447 -0.7200  0.1219
  346MOL0     C46630   1.388   1.704   1.392 -0.1389  0.3737  0.0102
  346MOL0     C46631   1.492   1.753   1.468 -0.2073  0.4553 -0.2405
  346MOL0     C46632   1.470   1.759   1.609 -0.2762  0.2465  0.1255
  346MOL0     O46633   1.569   1.792   1.694 -0.0552  0.1081  0.3205
  346MOL0     C46634   1.706   1.748   1.663 -0.5423  0.3143  0.1734
  346MOL0     C46635   1.808   1.766   1.780 -0.8728 -0.0223 -0.3455
  346MOL0     C46636   1.946   1.698   1.761 -0.5450 -0.2302  0.8412
  346MOL0     C46637   2.045   1.771   1.652 -0.9718  0.1077  0.6438
  346MOL0     C46638   2.107   1.899   1.691  0.2506 -0.3380 -0.0075
  346MOL0     C46639   2.173   1.993   1.728 -0.2974  0.0729 -0.8795
  346MOL0     C46640   1.346   1.737   1.656 -0.0518  0.4916  0.0599
  346MOL0     C46641   1.235   1.709   1.581 -0.9951 -0.4622 -0.6041
  346MOL0     C46642   1.103   1.659   1.641  0.4562 -0.6782  0.7880
  346MOL0     H46643   1.177   1.442   1.061 -1.7943 -3.1115  1.2638
  346MOL0     H46644   1.019   1.369   0.885  2.3266  0.2766  0.3328
  346MOL0     H46645   0.737   1.543   0.706  3.3476 -0.3100 -5.0720
  346MOL0     H46646   0.902   1.473   0.726  0.3000  1.5365 -1.1119
  346MOL0     H46647   0.649   1.301   0.680 -0.6895 -1.3530 -0.8062
  346MOL0     H46648   0.790   1.238   0.713 -2.3106 -2.4303 -2.1697
  346MOL0     H46649   0.898   1.346   0.496 -0.1272  1.9051  0.0118
  346MOL0     H46650   0.735   1.419   0.472  0.8123  1.4279  2.4737
  346MOL0     H46651   0.677   1.136   0.505 -1.6175 -1.3445 -1.6366
  346MOL0     H46652   0.696   1.216   0.353 -0.3391  2.4693  0.5910
  346MOL0     H46653   0.819   1.021   0.366  4.3092 -0.5106 -2.5550
  346MOL0     H46654   0.910   1.166   0.319 -1.4702 -1.2193 -1.0811
  346MOL0     H46655   0.971   1.163   0.591  0.4804 -0.2590 -0.5020
  346MOL0     H46656   0.923   1.003   0.579  1.1094 -1.7391 -0.9050
  346MOL0     H46657   1.140   1.117   0.402 -2.1964  1.0801 -0.4408
  346MOL0     H46658   1.085   0.955   0.384 -2.5841  1.8676 -1.4545
  346MOL0     H46659   1.146   0.909   0.638  2.2978  1.0910  1.1617
  346MOL0     H46660   1.276   0.934   0.519  0.4227  0.0418 -0.0385
  346MOL0     H46661   1.293   1.271   0.511 -1.3566 -0.3347 -0.0931
  346MOL0     H46662   1.310   1.481   0.654  0.0833  0.9768 -0.3063
  346MOL0     H46663   1.276   1.482   0.827 -3.2061  1.4991 -2.2519
  346MOL0     H46664   1.541   1.381   0.709  2.0800  2.3278 -0.7758
  346MOL0     H46665   1.506   1.552   0.713 -0.6860  1.2646  2.5888
  346MOL0     H46666   1.511   1.348   0.945  1.3383 -0.1640 -2.1476
  346MOL0     H46667   1.466   1.524   0.962  2.4078  0.0566  2.8258
  346MOL0     H46668   1.707   1.378   0.859  2.8096  2.7164 -3.5788
  346MOL0     H46669   1.694   1.441   1.027  0.4193  1.7603  0.1390
  346MOL0     H46670   1.755   1.830   0.938 -0.2680  0.4498  2.0467
  346MOL0     H46671   1.976   1.933   1.034 -0.6742 -0.3703  2.1694
  346MOL0     H46672   2.206   1.807   1.451 -0.0339 -0.2826 -0.1125
  346MOL0     H46673   2.385   1.863   1.626  1.2280  2.5043 -0.2444
  346MOL0     H46674   2.549   1.772   1.761  0.3517  3.1972  2.7864
  346MOL0     H46675   2.727   1.713   1.725  0.1644  0.2232 -1.4696
  346MOL0     H46676   2.814   1.926   1.749 -0.2510  3.1277 -1.4196
  346MOL0     H46677   2.664   2.013   1.752  1.4628  0.6584 -0.5850
  346MOL0     H46678   2.601   1.943   1.974  0.9903  0.4757  2.2047
  346MOL0     H46679   2.711   1.807   1.974  1.1943 -0.0244 -0.3217
  346MOL0     H46680   2.765   2.103   1.996  2.2273  0.6059 -0.7957
  346MOL0     H46681   2.900   1.988   1.979  1.2788  1.0027  1.7879
  346MOL0     H46682   2.852   2.053   2.215  2.8732 -1.3833 -0.8995
  346MOL0     H46683   2.830   1.880   2.187  1.3149  0.8184 -1.0739
  346MOL0     H46684   2.581   2.073   2.169 -2.2101 -0.6729 -0.2123
  346MOL0     H46685   2.591   1.899   2.198  0.2334 -0.1048  1.8639
  346MOL0     H46686   2.689   2.126   2.385  1.6415 -0.8234  1.3271
  346MOL0     H46687   2.704   1.951   2.420  0.0248  0.0964 -0.1356
  346MOL0     H46688   2.504   2.059   2.531  1.8662  0.7204  0.1716
  346MOL0     H46689   2.437   2.071   2.368 -1.2704 -1.7168 -0.6789
  346MOL0     H46690   2.669   1.737   1.333 -1.1564 -3.4057 -1.9372
  346MOL0     H46691   2.508   1.678   1.182 -1.0567 -3.9880  0.5676
  346MOL0     H46692   2.121   1.526   1.089 -2.1085 -4.0451 -3.9642
  346MOL0     H46693   1.944   1.446   0.978  1.6290 -0.7995  1.8072
  346MOL0     H46694   0.720   1.613   1.082 -1.2230 -2.3297 -1.4759
  346MOL0     H46695   0.873   1.671   1.249  0.1339 -1.6930  1.7115
  346MOL0     H46696   1.397   1.694   1.285 -0.4025 -1.3347  0.1176
  346MOL0     H46697   1.590   1.770   1.426 -0.8828  0.3720 -1.9132
  346MOL0     H46698   1.749   1.814   1.588  0.6911 -1.7102 -0.9708
  346MOL0     H46699   1.705   1.646   1.623  3.8615  0.7647 -1.5558
  346MOL0     H46700   1.763   1.720   1.868 -0.8511  1.8076  0.6671
  346MOL0     H46701   1.830   1.870   1.807 -1.5879 -0.1851  0.9512
  346MOL0     H46702   1.933   1.593   1.733  0.5933  0.8907 -5.2845
  346MOL0     H46703   2.005   1.718   1.851 -2.0924  5.3744  0.9875
  346MOL0     H46704   2.125   1.695   1.644 -0.5029  0.7729 -1.7517
  346MOL0     H46705   2.000   1.772   1.553  0.1238 -0.3867  0.1126
  346MOL0     H46706   2.233   2.080   1.745  0.0511 -0.0026 -1.6400
  346MOL0     H46707   1.319   1.743   1.761 -0.4974  1.1919 -0.0909
  346MOL0     H46708   1.133   1.610   1.734 -0.4456 -2.5288  0.1470
  346MOL0     H46709   1.051   1.753   1.663  1.7765  0.5015 -0.8610
  346MOL0     H46710   1.037   1.597   1.580 -1.8645  1.8285  0.5808
  347MOL0     O46711   9.331   1.859   6.801  0.6548 -0.5738  0.9143
  347MOL0     C46712   9.287   1.899   6.911 -0.0173 -0.2004  0.7860
  347MOL0     O46713   9.331   1.852   7.030 -1.0570  0.0627 -0.8454
  347MOL0     C46714   9.395   1.734   7.041 -0.7835 -0.3443 -0.6526
  347MOL0     C46715   9.347   1.608   7.007  0.1508  0.2412 -0.5248
  347MOL0     C46716   9.410   1.486   7.045 -0.3062 -0.0093  0.9149
  347MOL0     C46717   9.539   1.490   7.101  0.5338 -0.5004 -0.2824
  347MOL0     O46718   9.617   1.380   7.140 -0.0028 -0.0408  0.5210
  347MOL0     C46719   9.580   1.251   7.097  0.2182 -0.2820  0.6404
  347MOL0     C46720   9.699   1.162   7.142 -1.4249 -0.7183 -0.2048
  347MOL0     C46721   9.712   1.151   7.295  0.0581  0.4283  0.4242
  347MOL0     C46722   9.800   1.023   7.327  0.1267 -0.8063  0.6495
  347MOL0     C46723   9.833   0.993   7.475  0.8624  0.5070 -0.8843
  347MOL0     C46724   9.939   0.887   7.484 -0.2174  1.3923 -0.2752
  347MOL0     C46725   9.993   0.878   7.626  0.8050  0.0940 -0.3744
  347MOL0     C46726  10.090   0.991   7.680  0.0222 -0.0243 -0.0778
  347MOL0     N46727  10.197   1.015   7.576 -0.6772 -0.7415  0.7080
  347MOL0     C46728  10.197   1.125   7.491  0.3455  0.4082  0.0137
  347MOL0     C46729  10.295   1.107   7.397  0.0442 -0.1867 -0.0933
  347MOL0     C46730  10.310   1.200   7.281 -0.9231  0.3244 -0.3781
  347MOL0     C46731  10.392   1.323   7.320 -0.3415  0.0558  0.8668
  347MOL0     C46732  10.539   1.278   7.335  0.4947 -0.0207 -0.1458
  347MOL0     C46733  10.626   1.399   7.368  0.2057  0.2241  0.5989
  347MOL0     O46734  10.589   1.450   7.486  0.7159 -0.4333  0.0948
  347MOL0     C46735  10.684   1.537   7.532  0.1990 -1.0168 -0.1856
  347MOL0     C46736  10.692   1.562   7.663  0.5728 -0.3439  0.5910
  347MOL0     C46737  10.783   1.649   7.720  0.0219 -0.2677  1.4961
  347MOL0     C46738  10.883   1.706   7.642  0.2241 -0.1423 -0.3683
  347MOL0     C46739  10.992   1.800   7.695  1.2888  0.5810 -0.3984
  347MOL0     O46740  11.025   1.775   7.829 -0.9074  0.4284  0.9098
  347MOL0     C46741  11.162   1.765   7.864 -0.6190  0.7057 -0.1237
  347MOL0     C46742  11.199   1.793   7.999 -0.6859 -0.1024  0.0227
  347MOL0     C46743  11.323   1.759   8.049  0.1708 -0.2133 -0.0062
  347MOL0     C46744  11.422   1.699   7.972 -0.2989  0.9849 -1.8003
  347MOL0     O46745  11.550   1.685   8.021  0.1997  0.8962 -0.2972
  347MOL0     C46746  11.674   1.673   7.944 -0.5640 -0.2296  0.1826
  347MOL0     C46747  11.795   1.674   8.025 -0.0051 -0.3232 -0.7877
  347MOL0     C46748  11.916   1.640   7.934  0.3574 -0.7720 -0.3881
  347MOL0     C46749  12.057   1.661   8.002 -0.6292 -0.2883 -0.6632
  347MOL0     C46750  12.165   1.641   7.891 -0.2650 -0.0008 -0.4601
  347MOL0     C46751  12.300   1.646   7.964 -0.6317 -0.4016  0.2240
  347MOL0     C46752  12.396   1.544   7.913 -0.8618 -0.4707 -0.3606
  347MOL0     C46753  12.534   1.532   7.979  0.0120 -0.1822  0.3243
  347MOL0    Cl46754  12.646   1.435   7.861  0.5314  0.2650  0.5133
  347MOL0     C46755  11.383   1.668   7.850 -0.3789  0.9065  0.0277
  347MOL0     C46756  11.263   1.702   7.791 -0.2776 -0.2286  0.7577
  347MOL0     O46757  11.044   1.884   7.623 -0.1752  0.1919  0.0432
  347MOL0     C46758  10.864   1.708   7.499  0.3439  0.5054 -0.4192
  347MOL0     C46759  10.763   1.618   7.441 -0.9596 -0.2006  0.0526
  347MOL0     N46760  10.350   0.977   7.411 -0.4102 -0.7511  0.3532
  347MOL0     N46761  10.290   0.930   7.519 -0.6677  0.2942 -0.4546
  347MOL0     C46762   9.583   1.613   7.142  0.6347 -1.0879 -0.1488
  347MOL0     C46763   9.518   1.735   7.109  0.1715 -0.6504  0.4138
  347MOL0     C46764   9.202   2.007   6.912  0.8014 -0.6930 -0.5835
  347MOL0     C46765   9.224   2.123   6.842 -0.0958 -0.2706  0.7049
  347MOL0     C46766   9.143   2.237   6.851 -0.5337  0.3068 -0.8895
  347MOL0     C46767   9.023   2.237   6.929 -0.4139  0.7639  0.7197
  347MOL0     O46768   8.927   2.334   6.951 -0.3096 -0.0532  1.0871
  347MOL0     C46769   8.972   2.470   6.905 -0.1737  0.8439  0.1665
  347MOL0     C46770   8.875   2.585   6.928  0.0684 -1.2201 -0.7762
  347MOL0     C46771   8.859   2.685   6.808 -0.4050 -0.6557 -0.0351
  347MOL0     C46772   8.760   2.628   6.708 -0.0080  0.2765 -0.1566
  347MOL0     C46773   8.624   2.640   6.752  0.9313 -0.4555 -0.2553
  347MOL0     C46774   8.508   2.646   6.791 -0.3433  1.7167 -0.2093
  347MOL0     C46775   8.995   2.111   6.998 -0.1815 -1.4594 -1.0383
  347MOL0     C46776   9.079   2.007   6.989 -0.6705  0.0072 -0.0696
  347MOL0     C46777   9.042   1.890   7.076 -0.0528  0.2832  0.9364
  347MOL0     H46778   9.252   1.593   6.956  1.3200 -2.4528 -2.1259
  347MOL0     H46779   9.343   1.405   7.019 -1.3604  0.7692  1.1266
  347MOL0     H46780   9.479   1.217   7.121 -0.0241 -1.3018 -1.5225
  347MOL0     H46781   9.575   1.240   6.988  0.8041  1.5099  0.3992
  347MOL0     H46782   9.791   1.203   7.101 -2.5322  2.6038  0.3424
  347MOL0     H46783   9.693   1.058   7.109  0.0947 -0.9553  0.2279
  347MOL0     H46784   9.611   1.131   7.332 -1.5647  0.3377 -3.5986
  347MOL0     H46785   9.766   1.240   7.330 -2.7448  2.4036  0.0872
  347MOL0     H46786   9.748   0.936   7.287  0.4292 -0.3289 -0.8576
  347MOL0     H46787   9.883   1.039   7.258 -0.2536  0.5435  0.4655
  347MOL0     H46788   9.867   1.079   7.533  0.4955 -1.2215  2.1079
  347MOL0     H46789   9.744   0.948   7.520  2.3429 -0.7312  0.9095
  347MOL0     H46790   9.892   0.791   7.460  0.3907  1.5078 -2.1095
  347MOL0     H46791  10.019   0.892   7.409 -0.2934 -1.9712 -0.7462
  347MOL0     H46792  10.048   0.784   7.637 -0.1186 -0.4715 -0.4871
  347MOL0     H46793   9.911   0.848   7.692  0.4478  0.3630 -0.6890
  347MOL0     H46794  10.049   1.092   7.687  2.3367  1.0809 -1.1352
  347MOL0     H46795  10.133   0.949   7.771 -2.9318 -2.2508  0.4398
  347MOL0     H46796  10.122   1.203   7.499  0.2278  0.4102 -1.0299
  347MOL0     H46797  10.353   1.147   7.196 -0.9546 -0.5623  0.1520
  347MOL0     H46798  10.214   1.240   7.247 -0.9268 -0.0194 -0.7814
  347MOL0     H46799  10.391   1.404   7.247 -2.2867 -0.5020  0.2157
  347MOL0     H46800  10.345   1.369   7.408  0.0768  2.0254  0.1130
  347MOL0     H46801  10.575   1.238   7.240  0.7301  0.8783 -0.4408
  347MOL0     H46802  10.558   1.199   7.408  0.8439  1.1300  1.0507
  347MOL0     H46803  10.607   1.462   7.281 -0.9389 -1.6060 -0.5268
  347MOL0     H46804  10.731   1.374   7.353  0.3080  2.2937 -3.5493
  347MOL0     H46805  10.618   1.520   7.729  0.5632  0.8569  1.3723
  347MOL0     H46806  10.801   1.644   7.827  5.0924 -1.9117  0.8751
  347MOL0     H46807  11.132   1.848   8.065 -2.1208 -1.5488 -0.1718
  347MOL0     H46808  11.354   1.783   8.150 -3.0565 -1.3297  1.3818
  347MOL0     H46809  11.677   1.578   7.889  2.5652 -0.2212  0.1760
  347MOL0     H46810  11.676   1.757   7.874 -2.4874  0.6418  1.0966
  347MOL0     H46811  11.807   1.768   8.080  0.1149 -0.2145 -0.9948
  347MOL0     H46812  11.784   1.600   8.104  1.7291  0.1115 -0.0713
  347MOL0     H46813  11.900   1.542   7.886  1.0127  0.4336 -3.2454
  347MOL0     H46814  11.914   1.722   7.862 -0.0158 -0.3747  0.0745
  347MOL0     H46815  12.061   1.608   8.098 -0.1974  2.1742  0.7578
  347MOL0     H46816  12.075   1.767   8.020  2.8070  0.0429 -4.4457
  347MOL0     H46817  12.151   1.722   7.818  0.8241 -0.9380 -1.7644
  347MOL0     H46818  12.148   1.541   7.849 -2.8010 -1.3278  3.2378
  347MOL0     H46819  12.337   1.748   7.951 -2.6399  0.0696 -3.0012
  347MOL0     H46820  12.288   1.626   8.071  2.4651 -0.6610  0.5931
  347MOL0     H46821  12.412   1.588   7.814  0.0932  1.4443  0.6005
  347MOL0     H46822  12.351   1.445   7.904 -0.4117 -0.7133  0.0013
  347MOL0     H46823  12.581   1.628   8.004 -2.5618  1.8764 -2.0957
  347MOL0     H46824  12.535   1.471   8.069  0.3406 -0.4281  0.1596
  347MOL0     H46825  11.449   1.607   7.789 -2.4192 -1.2263 -0.1921
  347MOL0     H46826  11.255   1.653   7.695  3.1881  1.5040 -0.6276
  347MOL0     H46827  10.937   1.763   7.441 -0.8816  0.8766 -1.6668
  347MOL0     H46828  10.786   1.599   7.337  1.2573  3.1701 -0.2289
  347MOL0     H46829   9.686   1.607   7.174  2.2013  1.7963 -3.8702
  347MOL0     H46830   9.563   1.829   7.142 -0.5187 -0.2723  0.3030
  347MOL0     H46831   9.313   2.123   6.780  0.5289 -2.1896  1.5139
  347MOL0     H46832   9.176   2.318   6.787 -1.7442  2.2899  0.8642
  347MOL0     H46833   8.974   2.463   6.796 -0.0530  1.2530  0.1426
  347MOL0     H46834   9.075   2.493   6.932  1.0617 -1.6339 -2.0358
  347MOL0     H46835   8.923   2.648   7.004 -0.2093 -1.1057 -0.6951
  347MOL0     H46836   8.780   2.551   6.970  0.6531  0.1873  1.9010
  347MOL0     H46837   8.954   2.722   6.768 -1.1109  5.5835  2.8149
  347MOL0     H46838   8.825   2.777   6.855  5.1888  2.6127 -1.4183
  347MOL0     H46839   8.761   2.685   6.615 -3.8228  1.6630  0.4538
  347MOL0     H46840   8.765   2.523   6.676 -1.7879 -0.1758  0.9005
  347MOL0     H46841   8.408   2.641   6.830  0.5561  1.3377  2.2562
  347MOL0     H46842   8.917   2.124   7.073  1.6540  1.5600  0.5589
  347MOL0     H46843   9.102   1.876   7.166 -0.1535 -1.0193  0.8242
  347MOL0     H46844   8.938   1.889   7.108 -0.3367 -0.5000  0.0399
  347MOL0     H46845   9.064   1.802   7.014  3.5446 -0.8783  3.5090
  348MOL0     O46846   4.886   2.715   4.506  0.1818 -0.6637 -0.0408
  348MOL0     C46847   4.921   2.602   4.491  0.2846  0.2370 -0.5258
  348MOL0     O46848   4.866   2.496   4.552  0.4681  1.0209 -0.7557
  348MOL0     C46849   4.789   2.503   4.663  0.2716  0.6729 -0.0044
  348MOL0     C46850   4.785   2.599   4.752  0.1746 -0.2150 -0.3894
  348MOL0     C46851   4.718   2.585   4.882 -0.9896  0.0175 -0.3303
  348MOL0     C46852   4.656   2.466   4.916  0.0339  0.0775 -0.3068
  348MOL0     O46853   4.595   2.471   5.040  1.4792 -0.1809 -0.0257
  348MOL0     C46854   4.486   2.377   5.067 -0.4197  0.2645 -0.0798
  348MOL0     C46855   4.346   2.403   5.005  0.4056 -0.3850  0.3196
  348MOL0     C46856   4.270   2.517   5.061  0.4592  0.0201  0.4748
  348MOL0     C46857   4.308   2.652   4.988 -0.3375 -0.9521 -0.0191
  348MOL0     C46858   4.285   2.760   5.097 -0.0826  0.5288 -0.6031
  348MOL0     C46859   4.361   2.885   5.045 -0.5327 -0.6014  0.2914
  348MOL0     C46860   4.368   2.986   5.161  0.5253  0.4198 -0.0364
  348MOL0     C46861   4.409   3.123   5.117 -0.2731  0.3485  0.3525
  348MOL0     N46862   4.350   3.235   5.189 -0.9582 -0.1666 -0.0209
  348MOL0     C46863   4.277   3.336   5.128  0.2222  0.7376  0.2389
  348MOL0     C46864   4.258   3.423   5.223  0.1832  0.8065 -0.3828
  348MOL0     C46865   4.190   3.551   5.203  0.2969  0.5847  0.7345
  348MOL0     C46866   4.035   3.548   5.199 -0.7464 -0.2179 -0.7631
  348MOL0     C46867   3.952   3.677   5.170  0.4040 -0.3435 -0.1636
  348MOL0     C46868   3.974   3.798   5.254 -0.1095 -0.6372 -1.0411
  348MOL0     O46869   3.856   3.880   5.268  0.3162 -0.4057 -0.4282
  348MOL0     C46870   3.825   3.947   5.158  1.0994 -0.4249 -0.6852
  348MOL0     C46871   3.912   3.986   5.052  0.7782 -0.8459 -0.4710
  348MOL0     C46872   3.865   4.075   4.951 -0.1423  0.8223 -0.3161
  348MOL0     C46873   3.720   4.105   4.941  0.1182 -0.4761 -0.4925
  348MOL0     C46874   3.661   4.190   4.838 -0.8451 -0.4389 -0.2431
  348MOL0     O46875   3.527   4.196   4.816  0.6311 -0.0344  0.0117
  348MOL0     C46876   3.468   4.291   4.739  1.0659  0.0083 -0.5542
  348MOL0     C46877   3.464   4.429   4.780 -0.7093  0.5527  0.0076
  348MOL0     C46878   3.430   4.528   4.690 -0.0670 -0.5170 -0.0738
  348MOL0     C46879   3.388   4.484   4.563 -0.2495  0.1726 -0.2804
  348MOL0     O46880   3.372   4.571   4.459  0.0791  0.7558 -0.3107
  348MOL0     C46881   3.374   4.714   4.479 -0.4679  0.3303 -0.3459
  348MOL0     C46882   3.243   4.756   4.545 -0.4264 -0.1728  0.2632
  348MOL0     C46883   3.194   4.898   4.522 -0.1593 -0.4027  0.2898
  348MOL0     C46884   3.054   4.930   4.589  0.6305 -0.5093 -0.1243
  348MOL0     C46885   3.016   5.071   4.534  0.0925 -1.4723  0.1638
  348MOL0     C46886   2.878   5.118   4.593  0.7873 -0.1999  0.1433
  348MOL0     C46887   2.762   5.017   4.555  0.3372  1.0247 -0.0971
  348MOL0     C46888   2.616   5.063   4.578 -0.4577 -0.0566  0.0208
  348MOL0    Cl46889   2.576   5.058   4.757  0.4119 -0.1074  0.5092
  348MOL0     C46890   3.376   4.348   4.535  0.0656 -0.1420 -0.0372
  348MOL0     C46891   3.409   4.251   4.624  0.1878 -0.7171  0.9526
  348MOL0     O46892   3.746   4.271   4.792 -0.4298  0.7879  0.7382
  348MOL0     C46893   3.634   4.059   5.039 -0.2199 -0.2559  0.2150
  348MOL0     C46894   3.683   3.979   5.149  0.0858 -0.1562  0.3808
  348MOL0     N46895   4.315   3.372   5.338  0.4679  0.0458 -0.5656
  348MOL0     N46896   4.378   3.259   5.320 -0.1366 -0.4171  0.3494
  348MOL0     C46897   4.645   2.368   4.817 -1.0881  0.1227  0.3521
  348MOL0     C46898   4.712   2.388   4.697 -1.4254  0.1792 -0.2743
  348MOL0     C46899   5.034   2.566   4.401 -0.1654  0.3490 -0.1612
  348MOL0     C46900   5.107   2.440   4.428  0.2806  0.4389 -0.5274
  348MOL0     C46901   5.191   2.388   4.336 -0.0166 -0.5862 -0.1011
  348MOL0     C46902   5.218   2.452   4.213 -0.2790 -0.8055  0.6319
  348MOL0     O46903   5.305   2.416   4.111 -0.2654  0.4789 -0.4179
  348MOL0     C46904   5.411   2.329   4.150 -0.8747  0.0188 -0.7628
  348MOL0     C46905   5.536   2.361   4.061  0.8363  0.0263 -0.4261
  348MOL0     C46906   5.646   2.270   4.099  0.5181 -0.3293 -0.3603
  348MOL0     C46907   5.767   2.282   4.008  0.0787 -0.4792  0.9141
  348MOL0     C46908   5.893   2.306   4.084 -0.7024 -0.5312 -0.3195
  348MOL0     C46909   5.998   2.309   4.145 -0.7667  0.8373  1.3594
  348MOL0     C46910   5.138   2.562   4.185 -0.6608 -0.3168 -1.2121
  348MOL0     C46911   5.053   2.625   4.273  0.4883  0.5886  0.5686
  348MOL0     C46912   4.962   2.734   4.210 -0.8639  0.4763 -0.2568
  348MOL0     H46913   4.831   2.697   4.741  0.5017  0.0764  2.8034
  348MOL0     H46914   4.734   2.664   4.955  1.7755 -1.5310  0.8935
  348MOL0     H46915   4.523   2.277   5.043  0.5417 -0.3384  3.4076
  348MOL0     H46916   4.463   2.358   5.172  0.0725 -0.3352 -0.0722
  348MOL0     H46917   4.292   2.308   5.012 -1.4816  0.6653  0.5359
  348MOL0     H46918   4.353   2.427   4.899  3.5506  2.7476  1.0459
  348MOL0     H46919   4.286   2.518   5.169  0.2970  1.4833  0.5078
  348MOL0     H46920   4.162   2.504   5.051  0.5548  1.0491 -3.8545
  348MOL0     H46921   4.413   2.651   4.956  0.0034  0.9877  0.9502
  348MOL0     H46922   4.253   2.671   4.895  0.5733 -0.9085 -0.5637
  348MOL0     H46923   4.178   2.783   5.100  0.3189  2.6133 -0.9775
  348MOL0     H46924   4.326   2.734   5.195  1.0241  0.0026 -1.1810
  348MOL0     H46925   4.464   2.858   5.018 -0.9022  0.4901 -2.4240
  348MOL0     H46926   4.310   2.926   4.958  0.7358  1.2776  0.3651
  348MOL0     H46927   4.441   2.941   5.230  0.0187 -0.4580 -0.0536
  348MOL0     H46928   4.273   2.982   5.216  0.3688  0.2445 -0.3165
  348MOL0     H46929   4.517   3.141   5.118 -0.4014  1.2649 -0.7264
  348MOL0     H46930   4.381   3.124   5.012 -0.3521 -1.7430  0.3110
  348MOL0     H46931   4.260   3.354   5.023 -2.4593  1.2070  0.6887
  348MOL0     H46932   4.224   3.628   5.273  0.0625 -1.2539  2.9982
  348MOL0     H46933   4.234   3.576   5.106 -2.2433 -1.5284 -1.0907
  348MOL0     H46934   4.013   3.473   5.123  0.9791 -1.5329 -0.0318
  348MOL0     H46935   4.000   3.514   5.297  0.6408 -0.5617 -0.3678
  348MOL0     H46936   3.848   3.647   5.179  0.2471  0.4320  0.8382
  348MOL0     H46937   3.961   3.708   5.065  1.8292 -1.3248 -0.3623
  348MOL0     H46938   4.065   3.856   5.231 -0.5460  0.4320 -0.1742
  348MOL0     H46939   4.003   3.756   5.350  0.1991 -0.3969 -1.0262
  348MOL0     H46940   4.011   3.942   5.046  0.8037 -0.9259  0.4120
  348MOL0     H46941   3.933   4.107   4.872  0.9050  1.1580  0.6901
  348MOL0     H46942   3.500   4.461   4.878 -0.5605 -1.3957  0.6324
  348MOL0     H46943   3.449   4.633   4.713  0.3616 -0.3858 -1.0009
  348MOL0     H46944   3.460   4.749   4.537 -0.9225 -1.0434  1.2135
  348MOL0     H46945   3.381   4.759   4.379  1.0944 -0.1050 -0.4733
  348MOL0     H46946   3.163   4.687   4.516  0.1135 -0.5058 -0.4583
  348MOL0     H46947   3.261   4.742   4.652 -2.3465  0.2369  0.6750
  348MOL0     H46948   3.267   4.967   4.566  1.1191 -2.4195  1.5633
  348MOL0     H46949   3.193   4.917   4.415 -0.9748  0.5859  0.4626
  348MOL0     H46950   3.053   4.935   4.698 -2.3839 -1.8157  0.0131
  348MOL0     H46951   2.979   4.862   4.549 -1.1663  1.8076 -0.9492
  348MOL0     H46952   3.019   5.079   4.425 -0.6875  2.1695  0.2626
  348MOL0     H46953   3.085   5.149   4.568 -2.4089  1.0176 -0.0363
  348MOL0     H46954   2.886   5.131   4.701 -2.1863 -0.7949  0.5248
  348MOL0     H46955   2.846   5.211   4.544 -1.0965 -0.2446  1.1608
  348MOL0     H46956   2.775   4.926   4.614  0.1707 -0.3786 -2.1431
  348MOL0     H46957   2.768   4.989   4.450 -1.0654 -1.4886  0.4153
  348MOL0     H46958   2.609   5.170   4.555  1.5363  0.3908  1.2730
  348MOL0     H46959   2.540   5.003   4.526 -0.7041 -2.2599  2.6881
  348MOL0     H46960   3.338   4.319   4.437 -1.6085 -2.5034  1.2018
  348MOL0     H46961   3.397   4.149   4.589  3.1499 -1.4545  1.7849
  348MOL0     H46962   3.527   4.074   5.028 -0.5453 -0.8323  2.1957
  348MOL0     H46963   3.595   3.938   5.198 -2.0244 -0.2878 -3.1605
  348MOL0     H46964   4.590   2.275   4.832 -0.0015 -0.5892  0.0288
  348MOL0     H46965   4.705   2.317   4.614 -3.4004  2.2416 -2.0277
  348MOL0     H46966   5.083   2.376   4.512 -2.0951  1.3392 -0.4345
  348MOL0     H46967   5.260   2.306   4.355  0.4567 -0.8411 -2.4992
  348MOL0     H46968   5.377   2.226   4.135  0.8018 -0.9376  1.3654
  348MOL0     H46969   5.439   2.353   4.253  0.2398  0.4113 -1.1426
  348MOL0     H46970   5.557   2.465   4.085 -0.9054  0.1734  0.6786
  348MOL0     H46971   5.505   2.337   3.958 -0.8097 -0.9265  0.2382
  348MOL0     H46972   5.612   2.168   4.119 -0.3684  0.2391  1.2108
  348MOL0     H46973   5.666   2.298   4.203 -0.0645  2.4149 -0.8822
  348MOL0     H46974   5.767   2.191   3.948 -1.5149  0.8240 -1.2408
  348MOL0     H46975   5.758   2.371   3.945  1.3089  0.8955  2.5592
  348MOL0     H46976   6.093   2.302   4.193 -1.1515  0.3424  2.0708
  348MOL0     H46977   5.150   2.601   4.084 -1.0912 -0.3820 -1.2920
  348MOL0     H46978   4.950   2.717   4.102 -0.0285  1.1858 -0.4752
  348MOL0     H46979   4.863   2.735   4.256 -0.4842  1.1672  0.5813
  348MOL0     H46980   5.007   2.832   4.229 -2.4662  0.9507  1.3960
  349MOL0     O46981   8.576   3.928   6.668  0.5671 -0.0807  0.2002
  349MOL0     C46982   8.496   3.860   6.609  0.4587 -0.1515  0.0304
  349MOL0     O46983   8.390   3.801   6.679 -0.2539  0.1433  0.0205
  349MOL0     C46984   8.408   3.760   6.810 -0.2625 -0.1248 -0.4268
  349MOL0     C46985   8.535   3.724   6.873  0.4692 -0.4790 -0.6400
  349MOL0     C46986   8.535   3.685   7.004  0.3035  0.6203 -0.5675
  349MOL0     C46987   8.417   3.667   7.074  0.4425 -0.0182 -0.0400
  349MOL0     O46988   8.400   3.629   7.205  0.2004  0.3400 -0.3634
  349MOL0     C46989   8.517   3.622   7.282  0.1302 -1.3857  0.2532
  349MOL0     C46990   8.474   3.637   7.432  0.7432  0.6629 -0.0257
  349MOL0     C46991   8.422   3.773   7.483  0.3532  0.6401  0.2406
  349MOL0     C46992   8.275   3.792   7.441 -0.0431 -0.0786 -0.8582
  349MOL0     C46993   8.220   3.912   7.521 -0.3261 -0.2386 -0.3655
  349MOL0     C46994   8.075   3.967   7.484  0.6940  0.0270 -0.1282
  349MOL0     C46995   8.034   4.083   7.574 -0.2779 -0.0205  0.0983
  349MOL0     C46996   8.100   4.217   7.555 -0.3337  0.4008 -0.9929
  349MOL0     N46997   8.004   4.329   7.590 -0.8888 -0.2440  0.9312
  349MOL0     C46998   7.948   4.355   7.718  0.0083 -0.1100 -0.3468
  349MOL0     C46999   7.869   4.470   7.709 -0.0692 -0.0128  0.6250
  349MOL0     C47000   7.794   4.537   7.817 -0.0866  0.2840 -0.7504
  349MOL0     C47001   7.848   4.678   7.848  0.5585  0.7532 -0.1336
  349MOL0     C47002   7.738   4.763   7.909 -0.6054 -0.7455 -1.1041
  349MOL0     C47003   7.799   4.889   7.979 -0.6999 -0.3814 -0.5677
  349MOL0     O47004   7.877   4.857   8.101  0.0290  0.3866 -0.0251
  349MOL0     C47005   7.814   4.853   8.220 -0.0874  0.6403 -0.0918
  349MOL0     C47006   7.895   4.846   8.340  0.2237  0.2423  0.2822
  349MOL0     C47007   7.852   4.817   8.471 -0.0054 -0.2517  0.3564
  349MOL0     C47008   7.715   4.797   8.492 -0.5006  0.4817 -0.7185
  349MOL0     C47009   7.669   4.768   8.627 -0.1897 -0.3411  0.5361
  349MOL0     O47010   7.763   4.734   8.719 -0.3023 -0.0075 -0.1672
  349MOL0     C47011   7.723   4.671   8.841 -1.0684 -0.8293  0.1534
  349MOL0     C47012   7.615   4.599   8.856 -0.3406  0.6170 -0.0448
  349MOL0     C47013   7.595   4.523   8.977  0.9192 -0.2301  0.7027
  349MOL0     C47014   7.673   4.534   9.083 -0.4113 -0.3497  0.1683
  349MOL0     O47015   7.639   4.442   9.185  0.6040  0.3694  0.9521
  349MOL0     C47016   7.657   4.495   9.318  0.0397 -0.6933  0.6721
  349MOL0     C47017   7.542   4.582   9.366 -0.5855 -0.7315 -0.0484
  349MOL0     C47018   7.547   4.618   9.518  0.2965  0.3591 -0.5978
  349MOL0     C47019   7.422   4.682   9.576  0.5712 -0.1953  0.1509
  349MOL0     C47020   7.320   4.575   9.611 -0.1320  0.5867  0.5349
  349MOL0     C47021   7.183   4.646   9.647 -0.0587 -0.0457  0.2722
  349MOL0     C47022   7.072   4.549   9.660  0.4102  0.8147 -0.9406
  349MOL0     C47023   7.064   4.489   9.797  0.2716  0.4380 -0.5154
  349MOL0    Cl47024   6.927   4.372   9.774  0.0649  0.6276  0.1350
  349MOL0     C47025   7.788   4.618   9.074 -0.2706  0.1876  0.1412
  349MOL0     C47026   7.812   4.684   8.957  0.4233 -0.0665 -0.4622
  349MOL0     O47027   7.551   4.791   8.653  0.6848 -0.3059  0.1488
  349MOL0     C47028   7.625   4.812   8.376  0.7228  0.9483  0.2006
  349MOL0     C47029   7.674   4.822   8.248  0.1741 -0.6655  0.0566
  349MOL0     N47030   7.881   4.506   7.579 -0.4150  0.4517 -0.2652
  349MOL0     N47031   7.942   4.419   7.504  0.3879  0.3508  0.3319
  349MOL0     C47032   8.291   3.705   7.019 -0.4934  0.4656  0.0575
  349MOL0     C47033   8.280   3.752   6.884 -0.0921 -0.0738 -0.4880
  349MOL0     C47034   8.502   3.853   6.455  0.0581 -0.7248  0.0628
  349MOL0     C47035   8.442   3.743   6.402 -0.4937 -0.1951 -0.4822
  349MOL0     C47036   8.440   3.723   6.262  0.1795  0.3034  0.3185
  349MOL0     C47037   8.504   3.814   6.177  0.0956  0.3078  0.6713
  349MOL0     O47038   8.498   3.811   6.036  0.2449  0.8932  0.5355
  349MOL0     C47039   8.446   3.694   5.966 -0.1495  1.1140 -0.6849
  349MOL0     C47040   8.293   3.683   5.946  0.3492 -0.3069  0.3727
  349MOL0     C47041   8.266   3.546   5.882  0.2531  0.3672 -0.0542
  349MOL0     C47042   8.123   3.536   5.837 -0.6457  0.9172  0.6506
  349MOL0     C47043   8.018   3.546   5.952  0.4337  0.0465 -0.0044
  349MOL0     C47044   7.948   3.574   6.048 -0.0488  0.2418 -0.1028
  349MOL0     C47045   8.570   3.921   6.234 -0.2048 -0.3568 -0.2188
  349MOL0     C47046   8.570   3.947   6.370  1.1267  0.0084 -0.4304
  349MOL0     C47047   8.625   4.078   6.424  0.4473 -0.2562  0.0957
  349MOL0     H47048   8.621   3.727   6.808  1.0842  2.0885  0.1830
  349MOL0     H47049   8.629   3.646   7.041 -1.2812 -4.4183 -1.1302
  349MOL0     H47050   8.574   3.532   7.259  0.2638 -1.4808  0.9308
  349MOL0     H47051   8.578   3.712   7.269 -0.5406  0.1868  5.6681
  349MOL0     H47052   8.566   3.614   7.485  0.2308 -1.5876 -0.0163
  349MOL0     H47053   8.400   3.560   7.458  1.2945 -1.4184 -3.8000
  349MOL0     H47054   8.482   3.857   7.445  0.0724 -1.4223 -5.8334
  349MOL0     H47055   8.423   3.762   7.592  0.7159 -0.1006  0.1640
  349MOL0     H47056   8.264   3.817   7.335 -3.8965 -1.4707 -0.9471
  349MOL0     H47057   8.224   3.697   7.460  1.1797 -0.8988 -1.4974
  349MOL0     H47058   8.217   3.887   7.627  0.2672 -0.4058 -0.3854
  349MOL0     H47059   8.294   3.991   7.506 -1.2217  0.6136 -0.3676
  349MOL0     H47060   8.075   4.005   7.382  1.6864  2.8008  0.8195
  349MOL0     H47061   8.005   3.883   7.488 -1.4974  1.8105  1.6697
  349MOL0     H47062   8.036   4.053   7.679  1.4838  0.3076  0.1799
  349MOL0     H47063   7.927   4.100   7.555 -0.3551  1.4350  1.6238
  349MOL0     H47064   8.179   4.202   7.628  1.4863 -1.8761 -3.2443
  349MOL0     H47065   8.138   4.253   7.459  3.9803 -1.7015 -0.3023
  349MOL0     H47066   7.964   4.294   7.806 -1.0046  1.8229  1.2801
  349MOL0     H47067   7.686   4.535   7.800 -0.6602  0.2967  2.3552
  349MOL0     H47068   7.818   4.495   7.915  0.2225  1.4928 -0.2976
  349MOL0     H47069   7.936   4.670   7.912 -0.7318  0.0410  1.6466
  349MOL0     H47070   7.858   4.730   7.752 -5.5040  0.3081 -1.4165
  349MOL0     H47071   7.678   4.712   7.985 -1.9541 -0.8370 -2.1922
  349MOL0     H47072   7.669   4.798   7.832 -1.4672  0.7921  0.3059
  349MOL0     H47073   7.717   4.960   7.995 -2.4750 -2.6205  0.9871
  349MOL0     H47074   7.862   4.933   7.902 -2.2289  1.2201 -0.9797
  349MOL0     H47075   7.998   4.877   8.330  0.0438  1.4307  1.6266
  349MOL0     H47076   7.926   4.804   8.549  1.2761 -0.3605 -0.8211
  349MOL0     H47077   7.542   4.588   8.778  1.5547  1.2032 -1.9988
  349MOL0     H47078   7.515   4.451   8.978 -0.0510  0.7114 -1.6590
  349MOL0     H47079   7.663   4.401   9.374  2.2753 -1.7070 -1.0758
  349MOL0     H47080   7.756   4.539   9.334  0.6034 -1.0210 -1.5907
  349MOL0     H47081   7.545   4.672   9.304 -0.2409 -1.0070 -0.4412
  349MOL0     H47082   7.449   4.530   9.341 -1.1591  0.4024 -0.3304
  349MOL0     H47083   7.575   4.524   9.568  0.4227 -0.2143 -1.7117
  349MOL0     H47084   7.641   4.674   9.524  0.5474 -0.0343 -0.7967
  349MOL0     H47085   7.388   4.755   9.502 -0.2545  1.2599  1.8906
  349MOL0     H47086   7.444   4.732   9.671  0.7403  0.8531 -0.4280
  349MOL0     H47087   7.365   4.520   9.694 -3.5798 -1.3042  1.3569
  349MOL0     H47088   7.288   4.500   9.538 -0.4221 -1.0477  2.2603
  349MOL0     H47089   7.178   4.709   9.737 -3.5464 -2.0231  1.6561
  349MOL0     H47090   7.156   4.717   9.569  0.6406  2.2442  1.9978
  349MOL0     H47091   7.085   4.478   9.578  3.1179 -0.1329  0.1872
  349MOL0     H47092   6.978   4.599   9.636 -0.8686 -2.0047 -2.2211
  349MOL0     H47093   7.160   4.442   9.822 -0.1563 -0.9884 -1.4336
  349MOL0     H47094   7.053   4.561   9.879  2.9923  3.5255 -2.6002
  349MOL0     H47095   7.851   4.634   9.161 -2.3537  1.5907  1.4738
  349MOL0     H47096   7.898   4.750   8.949  0.1475  1.4133  4.8741
  349MOL0     H47097   7.522   4.791   8.402  0.3935  1.9847 -0.2280
  349MOL0     H47098   7.603   4.816   8.165 -0.8780 -2.4232  1.0339
  349MOL0     H47099   8.202   3.718   7.080 -0.7803  0.0030 -0.2498
  349MOL0     H47100   8.184   3.789   6.849 -0.6349  0.5975  1.5354
  349MOL0     H47101   8.385   3.669   6.456  1.3429 -0.3667  1.3346
  349MOL0     H47102   8.375   3.645   6.223 -1.3477  2.7805 -2.4797
  349MOL0     H47103   8.486   3.604   6.014 -2.9094  0.5781  0.7970
  349MOL0     H47104   8.500   3.689   5.871  1.6155 -0.2403  0.3360
  349MOL0     H47105   8.251   3.768   5.892  1.1569 -0.6775 -0.8693
  349MOL0     H47106   8.234   3.680   6.038 -2.4776  2.4678 -1.1307
  349MOL0     H47107   8.288   3.469   5.957  3.0914  2.3172  1.3270
  349MOL0     H47108   8.335   3.550   5.797  0.3005  2.0232  0.0184
  349MOL0     H47109   8.111   3.623   5.771 -1.0646 -1.1144 -2.1282
  349MOL0     H47110   8.102   3.447   5.776 -3.4877  0.8516  1.5968
  349MOL0     H47111   7.889   3.600   6.133 -0.2336 -1.6064  0.3767
  349MOL0     H47112   8.613   3.982   6.156 -0.4687  0.0211 -0.0714
  349MOL0     H47113   8.711   4.061   6.491 -0.2428 -1.3755  0.7385
  349MOL0     H47114   8.677   4.129   6.343 -0.4479 -1.1240 -1.0556
  349MOL0     H47115   8.550   4.135   6.478  0.9716 -1.4806  2.2689
  350MOL0     O47116  10.650   6.419  11.425  0.7506 -0.4651 -0.1432
  350MOL0     C47117  10.573   6.497  11.477 -0.0751  0.2649  0.0290
  350MOL0     O47118  10.449   6.470  11.509  1.5391 -0.4080  0.3510
  350MOL0     C47119  10.382   6.360  11.446  0.2482  0.8942 -0.2617
  350MOL0     C47120  10.342   6.355  11.318 -0.1366 -0.1790  0.3724
  350MOL0     C47121  10.290   6.245  11.257  0.2981  0.6489  0.1542
  350MOL0     C47122  10.257   6.135  11.330 -0.3800 -0.4730  0.1971
  350MOL0     O47123  10.192   6.028  11.272  0.2900  0.0829 -0.2275
  350MOL0     C47124  10.133   6.038  11.144 -0.5440  0.0967 -0.5335
  350MOL0     C47125  10.090   5.898  11.091 -0.7707 -1.1547  0.1913
  350MOL0     C47126   9.962   5.848  11.162 -0.2021 -0.4778  0.3575
  350MOL0     C47127   9.907   5.740  11.080 -0.1329 -0.3145  0.2062
  350MOL0     C47128   9.774   5.695  11.136 -0.2208 -0.1376 -0.4461
  350MOL0     C47129   9.662   5.759  11.051 -0.5392  0.6694  0.0911
  350MOL0     C47130   9.522   5.682  11.057 -0.2901  0.0652 -0.0579
  350MOL0     C47131   9.455   5.691  11.189  0.7824  0.6839 -0.1278
  350MOL0     N47132   9.303   5.721  11.177  0.2689  0.1195 -0.5197
  350MOL0     C47133   9.258   5.843  11.161  0.5475 -0.4439  0.6319
  350MOL0     C47134   9.128   5.833  11.135  0.0941 -0.3786 -0.6029
  350MOL0     C47135   9.024   5.939  11.110 -0.1504 -0.8268 -0.6330
  350MOL0     C47136   8.993   6.018  11.236 -0.1915 -0.2976 -0.3040
  350MOL0     C47137   8.939   6.155  11.197 -0.4354  0.9885  0.2124
  350MOL0     C47138   8.934   6.257  11.315 -0.6481 -0.0653  0.5213
  350MOL0     O47139   9.045   6.243  11.408  0.0973  0.2137 -0.1435
  350MOL0     C47140   9.064   6.356  11.488 -1.1832 -0.1312  0.2361
  350MOL0     C47141   9.168   6.354  11.580  0.4261  0.1085 -0.0594
  350MOL0     C47142   9.185   6.450  11.676  0.5604  0.9253 -0.9848
  350MOL0     C47143   9.097   6.561  11.684 -0.2350 -1.4770  0.1074
  350MOL0     C47144   9.109   6.670  11.782 -0.2458 -0.1167  0.1842
  350MOL0     O47145   9.215   6.663  11.871  0.1970 -0.0300  0.5704
  350MOL0     C47146   9.251   6.752  11.966 -1.0430  0.0530  0.1615
  350MOL0     C47147   9.391   6.757  11.995  0.6374  0.2848  0.1818
  350MOL0     C47148   9.432   6.851  12.084  0.3850  0.4526  0.0173
  350MOL0     C47149   9.346   6.919  12.161 -0.4734 -0.0745  0.6755
  350MOL0     O47150   9.369   7.002  12.272  0.2994 -0.7608 -0.5390
  350MOL0     C47151   9.501   7.024  12.305  0.3670 -0.3947 -0.0092
  350MOL0     C47152   9.531   6.929  12.422 -0.4538  0.3399  0.3658
  350MOL0     C47153   9.678   6.886  12.429 -0.0178 -0.2710 -0.0461
  350MOL0     C47154   9.717   6.810  12.562 -1.2903  0.8542 -0.1901
  350MOL0     C47155   9.865   6.798  12.574  0.4427  0.0211  0.3857
  350MOL0     C47156   9.913   6.765  12.712 -0.1284 -0.4821 -0.9735
  350MOL0     C47157  10.067   6.749  12.725  0.8528  0.1560  0.5982
  350MOL0     C47158  10.143   6.885  12.722 -0.1583  0.0317  0.0775
  350MOL0    Cl47159  10.305   6.876  12.791 -0.5620  0.2457  0.1821
  350MOL0     C47160   9.205   6.908  12.136 -0.2783 -0.0539 -0.7815
  350MOL0     C47161   9.156   6.816  12.044 -0.2966  0.3247  0.3314
  350MOL0     O47162   9.020   6.761  11.779 -0.3895  0.3914 -0.5679
  350MOL0     C47163   8.988   6.570  11.594 -0.2907  0.2117  0.7751
  350MOL0     C47164   8.977   6.469  11.497  0.2711 -0.6114  0.0367
  350MOL0     N47165   9.092   5.697  11.127  0.4291  0.8825 -0.4371
  350MOL0     N47166   9.202   5.636  11.165 -0.2250  0.6071  0.4850
  350MOL0     C47167  10.297   6.125  11.461 -0.6579 -0.3675 -0.1786
  350MOL0     C47168  10.363   6.238  11.517 -0.4126 -0.0606  0.3551
  350MOL0     C47169  10.618   6.639  11.488  0.0768  1.0211 -0.7605
  350MOL0     C47170  10.726   6.669  11.577  0.7539 -0.0336 -1.0861
  350MOL0     C47171  10.766   6.795  11.594 -0.1891 -0.2910  0.6626
  350MOL0     C47172  10.720   6.899  11.515 -0.6759  0.1919 -0.4183
  350MOL0     O47173  10.761   7.028  11.514  0.1986  0.1734 -0.0626
  350MOL0     C47174  10.904   7.051  11.533  1.0407 -0.3566  0.9724
  350MOL0     C47175  10.922   7.197  11.550  0.5960 -0.5306 -0.2782
  350MOL0     C47176  11.064   7.219  11.592  0.3610 -0.2485 -0.2861
  350MOL0     C47177  11.155   7.249  11.476 -0.3970  0.1029  0.1250
  350MOL0     C47178  11.201   7.124  11.417 -0.2355  0.8326  0.0289
  350MOL0     C47179  11.243   7.021  11.370 -0.9017  1.0137 -0.1826
  350MOL0     C47180  10.619   6.874  11.426  0.8810  0.2096 -0.3382
  350MOL0     C47181  10.559   6.749  11.421  0.2647 -0.4624  0.3357
  350MOL0     C47182  10.439   6.735  11.326  0.2904 -0.3963 -0.1442
  350MOL0     H47183  10.351   6.450  11.265 -3.5977 -0.6790 -1.3795
  350MOL0     H47184  10.256   6.260  11.156 -1.5771  0.2485  0.6836
  350MOL0     H47185  10.050   6.109  11.149 -3.4268 -3.0450 -0.1123
  350MOL0     H47186  10.197   6.093  11.074  0.6972 -0.5962  0.0474
  350MOL0     H47187  10.178   5.834  11.101  1.0852  0.5096 -3.4869
  350MOL0     H47188  10.073   5.905  10.983  1.8625  0.9749 -0.1946
  350MOL0     H47189   9.895   5.933  11.174  3.0173  2.1366  1.4059
  350MOL0     H47190   9.985   5.804  11.260 -1.4541  0.7505  1.2385
  350MOL0     H47191   9.902   5.763  10.973  3.1151 -1.5080 -0.3288
  350MOL0     H47192   9.974   5.654  11.086 -0.9233 -0.8449  3.2641
  350MOL0     H47193   9.771   5.587  11.121  0.8807 -0.4913  1.5946
  350MOL0     H47194   9.758   5.718  11.242 -3.8725  0.6359 -1.0355
  350MOL0     H47195   9.648   5.861  11.090  0.7985  0.0601  2.4103
  350MOL0     H47196   9.686   5.754  10.945 -1.3577 -1.2713 -0.0342
  350MOL0     H47197   9.549   5.577  11.047  0.6036  0.2898 -0.1216
  350MOL0     H47198   9.457   5.707  10.972 -1.8647 -2.2049  0.4132
  350MOL0     H47199   9.467   5.599  11.248  2.5677  0.6324 -0.5187
  350MOL0     H47200   9.509   5.769  11.245  1.0883  0.5812 -0.2789
  350MOL0     H47201   9.318   5.932  11.176  1.3963 -1.5768  5.6734
  350MOL0     H47202   9.060   6.006  11.031 -0.6892  0.9531  0.5886
  350MOL0     H47203   8.932   5.892  11.072 -2.4321  0.7360  2.4772
  350MOL0     H47204   8.924   5.961  11.299  2.1419  1.1809  4.0433
  350MOL0     H47205   9.091   6.021  11.285  0.1294 -1.9629 -0.7888
  350MOL0     H47206   8.837   6.142  11.161 -1.2184  1.7608  2.0147
  350MOL0     H47207   9.007   6.199  11.123 -0.4953 -3.0241 -2.5104
  350MOL0     H47208   8.841   6.245  11.370 -1.0520 -0.0290 -0.1456
  350MOL0     H47209   8.937   6.355  11.267  0.6630  0.0929  0.8932
  350MOL0     H47210   9.238   6.271  11.574 -1.6807 -1.7042 -2.3816
  350MOL0     H47211   9.261   6.435  11.751  0.3537  0.4364 -0.8672
  350MOL0     H47212   9.458   6.710  11.923 -0.4062 -1.1988  0.1349
  350MOL0     H47213   9.539   6.854  12.102  0.1036  0.0004  2.1139
  350MOL0     H47214   9.568   7.014  12.220  2.3338 -0.0326  1.4283
  350MOL0     H47215   9.517   7.123  12.348  0.3344 -0.5526  0.3708
  350MOL0     H47216   9.518   6.997  12.507 -0.0102  2.1180 -0.9433
  350MOL0     H47217   9.463   6.844  12.432 -1.2842  0.8201 -1.0369
  350MOL0     H47218   9.716   6.827  12.345 -0.9897  0.2215 -0.8480
  350MOL0     H47219   9.741   6.975  12.417  1.2910 -1.2869 -1.0298
  350MOL0     H47220   9.687   6.705  12.549  2.0865 -0.3811  0.8249
  350MOL0     H47221   9.662   6.854  12.645 -0.1585  0.3726  0.8389
  350MOL0     H47222   9.912   6.889  12.533  0.2331 -0.3548 -0.7290
  350MOL0     H47223   9.897   6.716  12.509  1.3715  0.3588  0.3999
  350MOL0     H47224   9.881   6.826  12.798  1.4413 -2.9467  1.5235
  350MOL0     H47225   9.880   6.666  12.744 -0.3784 -0.5601 -1.4684
  350MOL0     H47226  10.104   6.685  12.644  0.0178 -0.1617  0.4553
  350MOL0     H47227  10.095   6.703  12.820 -0.3038 -5.0600 -1.2405
  350MOL0     H47228  10.153   6.929  12.622 -1.7526  1.9211  0.6898
  350MOL0     H47229  10.081   6.947  12.787  0.1061 -1.5212  1.9055
  350MOL0     H47230   9.139   6.976  12.189  1.5235 -0.1593  1.7922
  350MOL0     H47231   9.050   6.799  12.024 -0.8196 -1.7443  4.0406
  350MOL0     H47232   8.909   6.644  11.601  1.6251  2.2803  1.6996
  350MOL0     H47233   8.895   6.492  11.429  0.2482  1.9591  0.8409
  350MOL0     H47234  10.291   6.029  11.512  2.1438 -0.3015  0.4399
  350MOL0     H47235  10.402   6.231  11.619  4.7485 -2.0561 -1.3890
  350MOL0     H47236  10.777   6.584  11.622  0.7644 -0.7298 -2.3703
  350MOL0     H47237  10.828   6.829  11.676  1.3877 -0.5260 -0.3808
  350MOL0     H47238  10.953   7.023  11.440 -1.1198 -1.2349  0.0391
  350MOL0     H47239  10.936   6.990  11.619  1.2834 -2.2064 -0.3694
  350MOL0     H47240  10.859   7.244  11.626  0.9953  3.8459 -2.3572
  350MOL0     H47241  10.900   7.233  11.449  1.4288 -0.6222 -0.4961
  350MOL0     H47242  11.104   7.139  11.655 -1.7026 -0.2827  1.0469
  350MOL0     H47243  11.070   7.304  11.660  2.3040 -1.9952  1.9084
  350MOL0     H47244  11.117   7.301  11.388 -0.3349 -2.1618 -1.2960
  350MOL0     H47245  11.246   7.294  11.519  0.8729 -3.1372  1.1514
  350MOL0     H47246  11.275   6.930  11.322 -0.9557  1.0346 -0.2576
  350MOL0     H47247  10.586   6.955  11.362  1.8119 -0.0928 -1.2361
  350MOL0     H47248  10.417   6.840  11.306  1.0069  0.8825  4.6208
  350MOL0     H47249  10.458   6.675  11.237  1.6536 -3.4288  2.0044
  350MOL0     H47250  10.354   6.697  11.384  0.0794 -0.3375 -0.4102
  351MOL0     O47251   6.733   1.384   6.345  0.4160 -0.5917 -0.4075
  351MOL0     C47252   6.838   1.328   6.340 -0.9376 -0.4416 -0.3504
  351MOL0     O47253   6.894   1.252   6.444  0.5158 -0.2830  0.7731
  351MOL0     C47254   6.831   1.244   6.562 -1.0065 -0.4165  0.1379
  351MOL0     C47255   6.707   1.190   6.573 -0.2562 -0.4113 -0.5966
  351MOL0     C47256   6.626   1.198   6.688  0.3191 -0.4655 -0.7893
  351MOL0     C47257   6.686   1.269   6.799 -0.3405 -0.0386  0.1587
  351MOL0     O47258   6.623   1.290   6.924  0.2683  0.0141  0.0584
  351MOL0     C47259   6.487   1.336   6.921 -0.0826  0.6770  0.7797
  351MOL0     C47260   6.428   1.342   7.060  0.2418  0.0536  0.1724
  351MOL0     C47261   6.270   1.373   7.060  0.5677 -0.0979  0.3948
  351MOL0     C47262   6.225   1.407   7.192  0.2069  0.7799 -0.0603
  351MOL0     C47263   6.078   1.372   7.188  1.2081  0.2350  0.5649
  351MOL0     C47264   5.992   1.413   7.311 -0.1848 -0.1682 -0.1687
  351MOL0     C47265   6.013   1.559   7.363 -0.6395  0.0148  0.0952
  351MOL0     C47266   5.905   1.591   7.456  0.3575 -0.8971 -0.1425
  351MOL0     N47267   5.942   1.724   7.516 -0.0692  0.7948 -0.6600
  351MOL0     C47268   5.926   1.843   7.450  0.0661  0.2538 -0.4306
  351MOL0     C47269   5.946   1.935   7.553 -0.4584 -0.0162 -0.3157
  351MOL0     C47270   5.940   2.079   7.536  0.1372 -0.7220 -0.2293
  351MOL0     C47271   5.804   2.121   7.477 -0.2609  0.6182 -0.6676
  351MOL0     C47272   5.689   2.086   7.576  0.4358  0.0096 -0.3822
  351MOL0     C47273   5.562   2.132   7.516 -0.5133 -0.1995  0.5768
  351MOL0     O47274   5.524   2.071   7.388 -0.1069  0.4404 -0.4008
  351MOL0     C47275   5.515   1.933   7.389  0.7927  0.1305  0.1165
  351MOL0     C47276   5.575   1.866   7.288 -0.4165 -0.8534 -0.1905
  351MOL0     C47277   5.579   1.723   7.275  0.0318 -0.1773 -0.5689
  351MOL0     C47278   5.497   1.649   7.361 -0.7494 -0.4501  0.0330
  351MOL0     C47279   5.487   1.504   7.349  0.3279  0.5947 -0.4473
  351MOL0     O47280   5.591   1.451   7.294  0.1725  0.6415  0.4848
  351MOL0     C47281   5.584   1.344   7.202  0.6856  0.7562 -0.1355
  351MOL0     C47282   5.506   1.363   7.092  0.2263  0.1778  0.2817
  351MOL0     C47283   5.483   1.265   7.008  0.8444  0.1732 -0.3790
  351MOL0     C47284   5.534   1.136   7.029  1.0429 -0.8098  0.0170
  351MOL0     O47285   5.489   1.023   6.960 -0.4320  0.3053  0.1792
  351MOL0     C47286   5.352   0.999   6.905 -0.0066  0.9724 -0.4753
  351MOL0     C47287   5.334   0.856   6.859  0.4843  0.0103  0.0188
  351MOL0     C47288   5.202   0.800   6.915  0.7835  0.0250 -0.4422
  351MOL0     C47289   5.163   0.669   6.845 -0.1424 -0.0023 -0.3705
  351MOL0     C47290   5.034   0.614   6.901  0.2019 -0.6346  0.2421
  351MOL0     C47291   4.994   0.476   6.854  0.2270 -0.7208  0.9411
  351MOL0     C47292   4.852   0.436   6.896 -0.8363 -0.4237 -0.3368
  351MOL0     C47293   4.832   0.295   6.841  0.5975  0.2779  0.5537
  351MOL0    Cl47294   4.956   0.170   6.896  0.0160  0.0083  0.3703
  351MOL0     C47295   5.621   1.115   7.138  0.5303  0.1783  0.1270
  351MOL0     C47296   5.648   1.218   7.228 -0.2160  1.1501  0.0992
  351MOL0     O47297   5.378   1.452   7.388 -0.5776 -0.1747  0.4468
  351MOL0     C47298   5.443   1.719   7.469 -0.2652  0.5845  0.6580
  351MOL0     C47299   5.439   1.858   7.480  0.4584  0.7070  0.4418
  351MOL0     N47300   5.967   1.874   7.672 -0.0522  0.5838  0.0416
  351MOL0     N47301   5.956   1.748   7.650  0.4891 -1.2100  0.4450
  351MOL0     C47302   6.812   1.316   6.783 -0.7274  0.3779  1.1430
  351MOL0     C47303   6.894   1.309   6.672  0.6570  0.2717 -0.4855
  351MOL0     C47304   6.901   1.326   6.204 -0.1406 -0.4345 -0.3823
  351MOL0     C47305   6.826   1.349   6.091 -0.3412 -0.0621 -0.2074
  351MOL0     C47306   6.886   1.356   5.966 -0.3119  0.2751  0.0346
  351MOL0     C47307   7.019   1.343   5.940  0.1071  0.0626 -0.8522
  351MOL0     O47308   7.070   1.366   5.811  0.3723  0.3323  0.3681
  351MOL0     C47309   7.203   1.329   5.781 -0.2354  0.7681  0.0631
  351MOL0     C47310   7.247   1.337   5.631  0.4831  0.3114  1.0553
  351MOL0     C47311   7.257   1.485   5.589 -0.1279  0.6086 -0.5700
  351MOL0     C47312   7.351   1.518   5.479  0.0982 -0.0129  0.3080
  351MOL0     C47313   7.415   1.648   5.500  0.3294 -0.2802  0.9975
  351MOL0     C47314   7.475   1.754   5.501  0.0718 -1.0284  0.7325
  351MOL0     C47315   7.093   1.305   6.057  0.7105  0.9247  0.2785
  351MOL0     C47316   7.037   1.287   6.179 -0.5090 -0.0791 -0.1880
  351MOL0     C47317   7.132   1.258   6.288 -0.1774  0.0136  0.7833
  351MOL0     H47318   6.664   1.145   6.485 -1.0481  0.9043 -0.9160
  351MOL0     H47319   6.529   1.149   6.692 -0.1517  0.5331  0.9672
  351MOL0     H47320   6.481   1.430   6.865  0.9830 -0.2405 -0.9478
  351MOL0     H47321   6.423   1.263   6.873  2.2034 -1.2299  0.4306
  351MOL0     H47322   6.477   1.424   7.113 -0.7984  2.1714 -1.9574
  351MOL0     H47323   6.451   1.250   7.115 -2.4481  0.2549  1.8046
  351MOL0     H47324   6.228   1.276   7.033  0.3931 -0.0928  0.6523
  351MOL0     H47325   6.249   1.462   6.999  0.4052 -0.3337  0.1061
  351MOL0     H47326   6.263   1.353   7.279 -2.5017 -0.1650  0.6608
  351MOL0     H47327   6.223   1.516   7.204 -4.1467  1.0102 -0.9271
  351MOL0     H47328   6.040   1.423   7.100 -1.7613 -1.8588  0.5005
  351MOL0     H47329   6.067   1.264   7.172  2.1609  0.0426  1.0896
  351MOL0     H47330   5.888   1.381   7.297 -0.2010 -0.3410  0.3513
  351MOL0     H47331   6.036   1.350   7.388 -1.8941  1.2732  2.0940
  351MOL0     H47332   6.011   1.635   7.284  1.5557  0.3129  0.2704
  351MOL0     H47333   6.112   1.567   7.410  0.6010 -3.2284 -1.6431
  351MOL0     H47334   5.806   1.590   7.409 -0.7522 -1.9104  2.0847
  351MOL0     H47335   5.896   1.523   7.540  0.3236 -0.5912  0.1048
  351MOL0     H47336   5.903   1.873   7.348 -1.8932  0.3965  0.0234
  351MOL0     H47337   5.965   2.126   7.631 -0.6960 -0.2841 -0.2157
  351MOL0     H47338   6.016   2.100   7.460 -0.2279 -3.8161 -1.6293
  351MOL0     H47339   5.811   2.229   7.458 -1.6452  0.1074 -5.4741
  351MOL0     H47340   5.787   2.071   7.381  0.3643  0.5500 -0.7491
  351MOL0     H47341   5.697   2.131   7.675  1.2073 -2.9835  1.0391
  351MOL0     H47342   5.683   1.979   7.598 -0.9251  0.3014  0.8856
  351MOL0     H47343   5.569   2.241   7.507  3.4118 -0.3693  0.1610
  351MOL0     H47344   5.486   2.112   7.592 -2.2410 -1.2115 -1.3196
  351MOL0     H47345   5.615   1.928   7.208 -0.3634  0.1210  0.5870
  351MOL0     H47346   5.628   1.684   7.186 -1.0603  2.9824 -2.7368
  351MOL0     H47347   5.471   1.465   7.083  2.1645  0.9806  1.1467
  351MOL0     H47348   5.412   1.274   6.926 -0.8526 -1.8441  0.7590
  351MOL0     H47349   5.277   1.029   6.979  0.4902  0.8306  0.0936
  351MOL0     H47350   5.335   1.064   6.819 -0.9598  0.5141 -0.6443
  351MOL0     H47351   5.323   0.848   6.750 -0.2498 -0.4925  0.1221
  351MOL0     H47352   5.421   0.804   6.900  2.7236  3.7376  0.4374
  351MOL0     H47353   5.212   0.791   7.023 -0.2536 -1.7889 -0.4669
  351MOL0     H47354   5.119   0.868   6.892  0.7019  0.4295  0.9921
  351MOL0     H47355   5.244   0.596   6.856  1.9521  2.0031 -1.5907
  351MOL0     H47356   5.146   0.698   6.741 -1.7482  5.0713  1.0025
  351MOL0     H47357   4.952   0.685   6.890 -0.1679 -0.6389  2.4930
  351MOL0     H47358   5.049   0.626   7.009  0.6138  2.8352 -0.0803
  351MOL0     H47359   5.004   0.463   6.746 -3.4401  1.3152  0.1958
  351MOL0     H47360   5.058   0.410   6.915 -0.2990  0.7269  3.1747
  351MOL0     H47361   4.777   0.503   6.852 -2.2760 -1.2780  0.7515
  351MOL0     H47362   4.839   0.441   7.004  1.4621  0.8832 -0.0520
  351MOL0     H47363   4.732   0.274   6.881  1.1830  0.5455  2.2628
  351MOL0     H47364   4.830   0.275   6.734  0.6348 -1.7509  0.8784
  351MOL0     H47365   5.656   1.014   7.158  0.2875 -0.0829 -0.7039
  351MOL0     H47366   5.709   1.214   7.318 -1.3443 -0.6404  0.8455
  351MOL0     H47367   5.399   1.657   7.546 -0.0812 -3.4748 -2.1809
  351MOL0     H47368   5.391   1.921   7.555 -1.5555  2.6851 -2.3072
  351MOL0     H47369   6.845   1.374   6.869 -1.4603  1.5142  0.6873
  351MOL0     H47370   6.993   1.353   6.665  0.2529  0.8496 -4.4760
  351MOL0     H47371   6.718   1.356   6.095 -0.4040 -1.3242  2.3097
  351MOL0     H47372   6.827   1.372   5.877  2.3740  1.7933 -1.5915
  351MOL0     H47373   7.225   1.225   5.807 -1.4298  0.3195 -0.6551
  351MOL0     H47374   7.271   1.383   5.847  0.4474  0.4196 -0.3453
  351MOL0     H47375   7.172   1.300   5.561 -1.1639  0.6697  2.5534
  351MOL0     H47376   7.341   1.280   5.631  0.7870  0.8110  0.7741
  351MOL0     H47377   7.280   1.547   5.676 -1.6804 -0.0225  0.3399
  351MOL0     H47378   7.155   1.508   5.556 -1.5916 -3.1953  0.7114
  351MOL0     H47379   7.434   1.448   5.468  2.7881  2.8545  0.9909
  351MOL0     H47380   7.307   1.513   5.379 -1.1390 -0.5077  0.8469
  351MOL0     H47381   7.521   1.850   5.514  1.1070 -1.3141 -0.5608
  351MOL0     H47382   7.197   1.276   6.046  0.6424 -0.0111  1.7943
  351MOL0     H47383   7.123   1.150   6.301  2.1505 -0.6999 -2.3747
  351MOL0     H47384   7.231   1.281   6.249 -0.4412  0.9318  0.6213
  351MOL0     H47385   7.120   1.311   6.383 -1.1450 -1.0804  1.2986
  352MOL0     O47386   1.282  10.815   1.700  0.3638  0.3815  0.0436
  352MOL0     C47387   1.305  10.864   1.596 -0.1235  0.1598 -0.2422
  352MOL0     O47388   1.263  10.812   1.468 -0.2598 -0.0383 -0.0336
  352MOL0     C47389   1.232  10.680   1.462 -0.6901  1.3128 -0.8483
  352MOL0     C47390   1.316  10.581   1.530  0.3737  0.3475  0.2254
  352MOL0     C47391   1.294  10.444   1.500  0.4997  0.2343  0.5165
  352MOL0     C47392   1.191  10.403   1.414 -0.4762  0.6751 -0.5468
  352MOL0     O47393   1.199  10.264   1.387 -0.1287 -0.7179 -0.5501
  352MOL0     C47394   1.088  10.205   1.321  0.4177  0.6329  0.5014
  352MOL0     C47395   1.131  10.077   1.258 -0.2244  0.2667  0.3673
  352MOL0     C47396   1.018  10.010   1.177 -0.7485  0.3404  0.9460
  352MOL0     C47397   1.082   9.899   1.085 -0.6433  0.3039 -0.2067
  352MOL0     C47398   1.181   9.947   0.979 -0.0041  0.6043  0.4134
  352MOL0     C47399   1.133  10.072   0.907 -0.9351  0.5038  0.2698
  352MOL0     C47400   1.000  10.051   0.828  0.0194 -0.0121 -0.0799
  352MOL0     C47401   0.998   9.922   0.738  0.0803 -0.0413 -0.6925
  352MOL0     N47402   1.090   9.933   0.623  1.0677  0.6815 -0.2828
  352MOL0     C47403   1.219   9.871   0.611  0.0864  0.4386 -0.6890
  352MOL0     C47404   1.269   9.925   0.505 -1.0011 -1.0028  0.9080
  352MOL0     C47405   1.404   9.895   0.447  0.6441  0.7296 -1.0318
  352MOL0     C47406   1.518   9.982   0.507  0.4925  0.0769 -0.3124
  352MOL0     C47407   1.637   9.962   0.426 -0.7465  0.1956  0.0184
  352MOL0     C47408   1.754  10.035   0.496 -0.1478 -0.0011 -0.2347
  352MOL0     O47409   1.874  10.008   0.420  0.3119 -0.5776 -0.4098
  352MOL0     C47410   1.996  10.061   0.469 -0.2579  0.6122  0.3551
  352MOL0     C47411   2.015  10.108   0.599 -0.1258 -0.3555  0.4883
  352MOL0     C47412   2.141  10.151   0.639 -0.4130  0.5558 -0.4512
  352MOL0     C47413   2.251  10.156   0.551 -0.3977 -0.1097 -0.3910
  352MOL0     C47414   2.384  10.192   0.604 -0.3986 -0.0770  0.3568
  352MOL0     O47415   2.493  10.128   0.561  0.4435  0.2206 -0.3461
  352MOL0     C47416   2.616  10.174   0.604 -1.0658  0.3382 -0.5809
  352MOL0     C47417   2.674  10.292   0.559 -0.3704  0.0723 -0.0220
  352MOL0     C47418   2.807  10.319   0.587 -0.4640  0.7722  0.5360
  352MOL0     C47419   2.893  10.234   0.668  1.1264  0.6805  0.1882
  352MOL0     O47420   3.028  10.247   0.689  0.5746  0.3157  0.4822
  352MOL0     C47421   3.079  10.362   0.614  0.5031 -0.5055 -0.2801
  352MOL0     C47422   3.231  10.385   0.644  0.4960 -0.1334 -0.6399
  352MOL0     C47423   3.266  10.422   0.785 -0.1327 -0.4572 -0.6240
  352MOL0     C47424   3.306  10.302   0.862 -0.0443  0.7428  0.0411
  352MOL0     C47425   3.359  10.314   1.003 -0.8705  0.1004  1.0459
  352MOL0     C47426   3.423  10.179   1.047 -0.4349 -0.2474 -0.2366
  352MOL0     C47427   3.456  10.188   1.197 -0.1046 -1.4379  0.8054
  352MOL0     C47428   3.493  10.050   1.254 -0.6520  0.0765  0.7625
  352MOL0    Cl47429   3.655  10.003   1.202 -0.0795 -0.0424 -0.1517
  352MOL0     C47430   2.829  10.116   0.708  1.1275 -0.9582 -0.4049
  352MOL0     C47431   2.703  10.079   0.664 -0.0352 -0.5370  0.4899
  352MOL0     O47432   2.386  10.288   0.681 -0.9311 -0.0990 -0.4297
  352MOL0     C47433   2.238  10.103   0.421 -0.7526  0.1645 -1.3078
  352MOL0     C47434   2.112  10.058   0.389  0.5316 -0.0251  0.7173
  352MOL0     N47435   1.189  10.020   0.451  0.1124 -0.2066  0.4604
  352MOL0     N47436   1.074  10.015   0.519  0.5120  0.1771  0.0598
  352MOL0     C47437   1.119  10.498   1.341 -0.4143  0.5382  0.1239
  352MOL0     C47438   1.143  10.637   1.367  0.6746  0.6265 -0.2898
  352MOL0     C47439   1.353  10.998   1.589 -0.3142 -0.2075  0.4298
  352MOL0     C47440   1.454  11.032   1.679  0.3052 -0.2138 -0.4320
  352MOL0     C47441   1.534  11.150   1.660 -0.1633 -0.8189  0.5028
  352MOL0     C47442   1.504  11.248   1.565  0.7527 -0.9890 -0.4291
  352MOL0     O47443   1.576  11.369   1.569  0.1259  0.7709  0.9776
  352MOL0     C47444   1.551  11.483   1.486  0.6895  0.8152 -0.2907
  352MOL0     C47445   1.677  11.526   1.412  0.2225 -0.0795 -0.4021
  352MOL0     C47446   1.798  11.575   1.500 -0.4229  0.7683 -0.6363
  352MOL0     C47447   1.930  11.511   1.450  0.5712 -0.2884 -0.2068
  352MOL0     C47448   1.929  11.367   1.467  0.1166  0.7804 -0.1341
  352MOL0     C47449   1.941  11.243   1.475  0.3107 -0.1708 -0.9092
  352MOL0     C47450   1.397  11.217   1.480 -0.1315  0.3911 -0.3229
  352MOL0     C47451   1.322  11.096   1.483  0.9023 -0.4461 -0.5081
  352MOL0     C47452   1.198  11.081   1.389  0.1129  0.5689 -0.4370
  352MOL0     H47453   1.378  10.610   1.614  1.3047 -1.1646  0.0956
  352MOL0     H47454   1.360  10.367   1.540  0.1089 -2.5291 -3.5672
  352MOL0     H47455   1.014  10.169   1.393  1.6566 -1.7216  0.6936
  352MOL0     H47456   1.028  10.264   1.250 -0.0640 -3.1046 -2.5333
  352MOL0     H47457   1.165  10.008   1.335  1.9324 -2.3194 -2.6065
  352MOL0     H47458   1.218  10.109   1.199 -2.2658  1.0565 -2.4731
  352MOL0     H47459   0.955  10.079   1.120 -3.2211 -2.5466 -0.0982
  352MOL0     H47460   0.940   9.968   1.240 -1.0257  2.7713  2.3694
  352MOL0     H47461   1.121   9.818   1.147 -1.7998 -0.3216 -0.2504
  352MOL0     H47462   1.001   9.851   1.029  0.1561 -1.3474 -0.0120
  352MOL0     H47463   1.274   9.964   1.034 -0.2710  0.3162  0.9537
  352MOL0     H47464   1.202   9.857   0.920  2.5376  2.2488 -1.4110
  352MOL0     H47465   1.127  10.157   0.977 -0.7806  0.2835  0.5544
  352MOL0     H47466   1.209  10.099   0.833 -0.0410 -2.8507 -0.1994
  352MOL0     H47467   0.982  10.134   0.759 -2.0219  0.4404  0.9542
  352MOL0     H47468   0.915  10.055   0.896 -0.9430 -0.1456 -1.2356
  352MOL0     H47469   1.024   9.831   0.793 -0.4980 -1.5120 -2.7075
  352MOL0     H47470   0.897   9.918   0.696  0.1129  4.1449 -1.5505
  352MOL0     H47471   1.261   9.796   0.678  0.5588  0.4566 -0.9598
  352MOL0     H47472   1.427   9.791   0.471  0.1668  0.7384 -0.5004
  352MOL0     H47473   1.392   9.907   0.339 -1.2191 -1.3054 -1.1018
  352MOL0     H47474   1.486  10.087   0.507 -1.3354 -0.3518 -3.4199
  352MOL0     H47475   1.534   9.947   0.610 -0.6704 -0.6751 -0.3660
  352MOL0     H47476   1.633   9.996   0.322 -1.0980 -1.4090 -0.5208
  352MOL0     H47477   1.646   9.853   0.425 -0.9063  0.1824 -0.0170
  352MOL0     H47478   1.766   9.994   0.597  1.4128  1.4272  0.2095
  352MOL0     H47479   1.726  10.141   0.500  0.3779  0.1255  0.3219
  352MOL0     H47480   1.927  10.127   0.660 -0.8329  2.6712 -1.2303
  352MOL0     H47481   2.143  10.183   0.743 -4.1566 -0.4948  0.0933
  352MOL0     H47482   2.605  10.359   0.509 -2.2014 -1.1996  0.6940
  352MOL0     H47483   2.842  10.417   0.558  0.4393 -0.0726 -1.3592
  352MOL0     H47484   3.060  10.354   0.506  2.6096 -0.7479 -0.6715
  352MOL0     H47485   3.024  10.449   0.652 -1.8571 -1.7879 -0.6059
  352MOL0     H47486   3.281  10.290   0.626 -2.0284 -1.6432 -0.1505
  352MOL0     H47487   3.261  10.455   0.565  0.8277  0.4892  0.0186
  352MOL0     H47488   3.353  10.487   0.772 -0.2758 -0.4227 -1.5326
  352MOL0     H47489   3.196  10.487   0.838  1.5520  0.7926  0.1547
  352MOL0     H47490   3.384  10.249   0.807  0.3922 -3.6380  4.1784
  352MOL0     H47491   3.219  10.235   0.856  0.9808 -0.6459  0.1879
  352MOL0     H47492   3.280  10.357   1.065  2.0845  2.1253  3.7367
  352MOL0     H47493   3.440  10.388   1.005 -0.3583 -0.3072 -1.2582
  352MOL0     H47494   3.355  10.096   1.025 -1.5602  0.5294  0.1982
  352MOL0     H47495   3.516  10.165   0.991  0.1588  0.8543  0.4452
  352MOL0     H47496   3.367  10.232   1.243 -1.7687 -2.9993 -0.7391
  352MOL0     H47497   3.527  10.271   1.207 -2.7434  1.0723  0.0457
  352MOL0     H47498   3.484  10.056   1.363 -3.9379  2.4273  0.4959
  352MOL0     H47499   3.420   9.975   1.224 -0.5668 -0.2360  1.3216
  352MOL0     H47500   2.881  10.039   0.765  0.1211 -2.2151 -1.1496
  352MOL0     H47501   2.656   9.984   0.686  1.5952 -1.6643 -0.6433
  352MOL0     H47502   2.316  10.095   0.346  1.1954 -0.5749  0.6791
  352MOL0     H47503   2.107  10.034   0.283  0.2905  2.3622  0.1342
  352MOL0     H47504   1.045  10.473   1.267 -2.8821  0.2755  2.5125
  352MOL0     H47505   1.086  10.715   1.318  1.0658  3.3186  3.1159
  352MOL0     H47506   1.486  10.957   1.751 -0.6535 -0.7337 -0.5344
  352MOL0     H47507   1.622  11.159   1.723 -0.6997 -1.9302  1.4439
  352MOL0     H47508   1.511  11.567   1.543 -0.4869  0.8281 -1.1038
  352MOL0     H47509   1.474  11.471   1.410  0.2030  2.2557 -0.0661
  352MOL0     H47510   1.652  11.617   1.358 -1.0077  0.4567  1.0162
  352MOL0     H47511   1.712  11.452   1.339  1.9569  0.3753 -0.0774
  352MOL0     H47512   1.783  11.544   1.603 -4.0783  0.7469 -1.0574
  352MOL0     H47513   1.815  11.683   1.496  0.8613  0.5830 -0.6403
  352MOL0     H47514   1.962  11.540   1.350  2.4016  0.1607  0.4651
  352MOL0     H47515   2.007  11.562   1.509 -1.5387  4.0553 -0.8003
  352MOL0     H47516   1.945  11.138   1.497  1.9876 -0.4411 -2.2720
  352MOL0     H47517   1.374  11.293   1.406 -0.5009 -1.2149 -1.9295
  352MOL0     H47518   1.125  11.009   1.430  1.7736 -2.9129 -3.0642
  352MOL0     H47519   1.153  11.179   1.375  0.1471  1.0454  2.2385
  352MOL0     H47520   1.230  11.039   1.293 -2.9018  2.6027 -2.5168
  353MOL0     O47521   1.867   6.873   1.292  0.4198 -0.3204 -0.2186
  353MOL0     C47522   1.866   6.751   1.297 -0.2316  0.5564 -0.7488
  353MOL0     O47523   1.940   6.673   1.384  0.5565 -0.3504  0.4490
  353MOL0     C47524   2.021   6.748   1.469 -0.2464 -0.5654  1.1306
  353MOL0     C47525   1.960   6.852   1.539 -0.1110 -0.7579  0.9137
  353MOL0     C47526   2.030   6.930   1.633 -0.2311  0.2281  0.3174
  353MOL0     C47527   2.167   6.905   1.649  0.0634  0.6734  0.5540
  353MOL0     O47528   2.249   6.966   1.739  0.5883 -0.0456  0.1434
  353MOL0     C47529   2.232   7.108   1.727 -0.2006 -0.0771 -0.5081
  353MOL0     C47530   2.342   7.174   1.809  0.5267  0.3142 -0.2387
  353MOL0     C47531   2.483   7.170   1.749 -0.4170 -0.0110  0.2289
  353MOL0     C47532   2.523   7.291   1.659 -0.0004  0.4252  1.6547
  353MOL0     C47533   2.656   7.265   1.590 -0.1633  0.4416 -0.0315
  353MOL0     C47534   2.682   7.377   1.491  0.1455  1.2806  0.9611
  353MOL0     C47535   2.826   7.381   1.436  1.2647  0.3396  0.0651
  353MOL0     C47536   2.917   7.422   1.550  0.3811  0.5484  0.0390
  353MOL0     N47537   3.062   7.394   1.509 -0.5584 -0.8403 -0.8876
  353MOL0     C47538   3.128   7.279   1.499  0.3903  0.8432  0.2912
  353MOL0     C47539   3.261   7.307   1.477 -0.2384 -0.2329  0.3206
  353MOL0     C47540   3.366   7.203   1.460  0.1812 -0.3159  0.4713
  353MOL0     C47541   3.488   7.259   1.397  0.2584  0.2182  0.0021
  353MOL0     C47542   3.605   7.154   1.403 -0.3810 -0.0331  0.2212
  353MOL0     C47543   3.700   7.195   1.295 -0.2613  0.8960 -0.0467
  353MOL0     O47544   3.824   7.125   1.321  1.0919  0.4108  0.1263
  353MOL0     C47545   3.939   7.157   1.254  0.4937 -0.1453  0.4274
  353MOL0     C47546   4.051   7.075   1.285 -1.2192 -0.9240  0.0731
  353MOL0     C47547   4.175   7.092   1.220 -0.2166 -0.5551  0.1998
  353MOL0     C47548   4.190   7.190   1.116  0.9095  0.0411 -0.2055
  353MOL0     C47549   4.316   7.185   1.037 -0.8024  0.0340  0.5722
  353MOL0     O47550   4.411   7.107   1.078  0.1697  0.5983  0.4020
  353MOL0     C47551   4.520   7.086   0.996  0.2024 -0.7759 -0.4844
  353MOL0     C47552   4.649   7.126   1.041  0.0392 -0.2499  0.6691
  353MOL0     C47553   4.760   7.122   0.956  0.5192 -0.4739  0.2924
  353MOL0     C47554   4.744   7.093   0.825 -0.3945  0.0522  0.0174
  353MOL0     O47555   4.853   7.083   0.745  0.6420 -0.1995 -0.4350
  353MOL0     C47556   4.922   7.200   0.699 -0.6581 -0.9300 -0.0915
  353MOL0     C47557   4.960   7.192   0.552  0.9648  0.3270  0.7761
  353MOL0     C47558   5.047   7.302   0.509  0.9109  0.6055 -0.0491
  353MOL0     C47559   5.067   7.300   0.355  0.8903  0.0933 -0.2403
  353MOL0     C47560   5.174   7.389   0.306  1.2597 -0.2715  0.2895
  353MOL0     C47561   5.128   7.544   0.282 -0.4994 -0.2646  1.0065
  353MOL0     C47562   5.028   7.614   0.376 -0.1947  0.3137  0.6651
  353MOL0     C47563   4.996   7.752   0.324  0.1448 -0.8442  0.8333
  353MOL0    Cl47564   5.128   7.862   0.376 -0.3948  0.1126 -0.0132
  353MOL0     C47565   4.621   7.058   0.776  0.3623 -0.4160 -0.2390
  353MOL0     C47566   4.510   7.056   0.857 -0.0575 -1.0535  0.1135
  353MOL0     O47567   4.325   7.257   0.939 -0.4611 -0.3639  0.1365
  353MOL0     C47568   4.080   7.273   1.088 -0.2486  0.5463  0.6715
  353MOL0     C47569   3.961   7.258   1.158 -0.3482  0.2585  0.9595
  353MOL0     N47570   3.270   7.443   1.481  0.7108  0.5413 -0.0483
  353MOL0     N47571   3.160   7.490   1.511  0.5334 -0.2232  0.1228
  353MOL0     C47572   2.225   6.795   1.581  0.4888 -0.0695 -0.2258
  353MOL0     C47573   2.150   6.715   1.491 -0.9303  0.4739 -0.5327
  353MOL0     C47574   1.762   6.676   1.223 -0.7004 -0.0864  0.4518
  353MOL0     C47575   1.751   6.534   1.246  0.1041 -0.0861  0.4883
  353MOL0     C47576   1.659   6.461   1.170  0.2860  0.0935 -0.3950
  353MOL0     C47577   1.586   6.512   1.075  0.4961  0.8973  0.8104
  353MOL0     O47578   1.499   6.426   1.021 -0.1879 -0.0272 -0.5582
  353MOL0     C47579   1.366   6.467   1.010 -0.1417  0.1125 -0.7599
  353MOL0     C47580   1.295   6.370   0.935  0.5408  1.6067  1.2467
  353MOL0     C47581   1.332   6.384   0.783  0.3724 -0.9825  0.5490
  353MOL0     C47582   1.268   6.281   0.686  0.2358  0.9226  0.1943
  353MOL0     C47583   1.124   6.295   0.672  0.9997 -0.0602 -0.5308
  353MOL0     C47584   1.003   6.324   0.669 -0.0149 -1.1054  0.7672
  353MOL0     C47585   1.589   6.653   1.056  0.2684 -0.3718 -0.4611
  353MOL0     C47586   1.668   6.737   1.129 -0.1747  1.4194 -0.2327
  353MOL0     C47587   1.669   6.879   1.084  0.1500  0.5383  0.3725
  353MOL0     H47588   1.856   6.875   1.521 -0.1088 -0.8987  0.7215
  353MOL0     H47589   1.976   7.002   1.694 -2.0751 -3.8438  4.0021
  353MOL0     H47590   2.226   7.153   1.627 -2.0625  0.8385 -0.0082
  353MOL0     H47591   2.144   7.155   1.770  1.0867  2.1073 -0.0945
  353MOL0     H47592   2.328   7.131   1.909  2.0463 -0.0712 -0.1655
  353MOL0     H47593   2.311   7.278   1.822  2.3669  1.0880 -1.6202
  353MOL0     H47594   2.498   7.080   1.687  0.4063 -0.7942  1.5176
  353MOL0     H47595   2.545   7.160   1.838 -2.8884 -1.3866  1.9211
  353MOL0     H47596   2.455   7.313   1.576  0.0861  0.7325  1.6662
  353MOL0     H47597   2.532   7.381   1.719 -0.8762  1.2850  0.5379
  353MOL0     H47598   2.731   7.255   1.669  0.1572 -3.5075 -0.6003
  353MOL0     H47599   2.653   7.174   1.529 -3.5443  0.6155 -0.2776
  353MOL0     H47600   2.616   7.377   1.404  3.2536 -0.6775 -1.6266
  353MOL0     H47601   2.657   7.466   1.550 -2.3070  0.0619  1.8657
  353MOL0     H47602   2.849   7.463   1.368  2.2254  0.2638  0.2777
  353MOL0     H47603   2.856   7.286   1.392  0.3965 -2.8308  5.3891
  353MOL0     H47604   2.895   7.526   1.574 -2.1236 -0.1490  1.1334
  353MOL0     H47605   2.901   7.377   1.648 -2.1985 -0.3099 -0.6988
  353MOL0     H47606   3.077   7.183   1.499 -1.6781  1.7797 -2.5444
  353MOL0     H47607   3.393   7.176   1.563  0.7935 -0.3391  0.3104
  353MOL0     H47608   3.327   7.116   1.406 -0.2895 -0.3481  0.8613
  353MOL0     H47609   3.466   7.290   1.295 -0.5836  0.1062  0.1420
  353MOL0     H47610   3.530   7.343   1.452 -1.4892  0.6138  0.8297
  353MOL0     H47611   3.566   7.052   1.404 -0.1601 -0.1184  1.2701
  353MOL0     H47612   3.659   7.164   1.498 -1.2309  0.4683  0.6628
  353MOL0     H47613   3.726   7.301   1.292 -0.7315  1.0125 -0.0459
  353MOL0     H47614   3.660   7.168   1.197 -1.1518 -2.9963  1.2178
  353MOL0     H47615   4.044   6.992   1.355  4.7071 -1.1431  0.9029
  353MOL0     H47616   4.257   7.030   1.254 -1.5576 -0.9429  2.9597
  353MOL0     H47617   4.669   7.167   1.139  1.5302 -1.5091  0.9314
  353MOL0     H47618   4.856   7.128   1.006  1.1065 -0.1847 -0.8322
  353MOL0     H47619   4.853   7.285   0.705 -0.6782 -0.8599 -1.1872
  353MOL0     H47620   5.005   7.223   0.767 -1.5612 -2.5100  1.6432
  353MOL0     H47621   5.000   7.097   0.515 -0.1144 -0.4057  1.4347
  353MOL0     H47622   4.868   7.207   0.496  0.6845  0.5114  1.2837
  353MOL0     H47623   4.998   7.392   0.547 -1.4055  0.2096 -1.8892
  353MOL0     H47624   5.142   7.301   0.563 -0.6054  0.9275  2.8415
  353MOL0     H47625   4.981   7.318   0.290  0.5442  1.9348  0.6596
  353MOL0     H47626   5.103   7.198   0.337  0.7530 -0.2337  1.2492
  353MOL0     H47627   5.215   7.351   0.212  1.0957  0.9943 -0.3293
  353MOL0     H47628   5.251   7.394   0.382  1.0344  1.3708  0.4492
  353MOL0     H47629   5.221   7.602   0.285 -0.2943 -0.6254  2.9513
  353MOL0     H47630   5.086   7.556   0.182  0.4939 -0.2332  0.5853
  353MOL0     H47631   5.066   7.622   0.478 -2.2561  0.6990  1.4622
  353MOL0     H47632   4.936   7.554   0.377  0.6068 -0.9675  1.4757
  353MOL0     H47633   4.972   7.763   0.218  2.1996 -1.5066  0.2644
  353MOL0     H47634   4.905   7.774   0.382 -0.0997 -2.6884  1.2110
  353MOL0     H47635   4.619   7.036   0.670  1.6033 -0.4591 -0.2667
  353MOL0     H47636   4.410   7.055   0.815  0.6476 -2.6838 -1.6857
  353MOL0     H47637   4.082   7.339   1.002 -1.1026 -0.3947 -0.1006
  353MOL0     H47638   3.869   7.303   1.121 -0.5605  0.3737  1.6071
  353MOL0     H47639   2.326   6.772   1.615  0.4603  0.1435 -0.0002
  353MOL0     H47640   2.191   6.630   1.438 -2.4858 -0.4729 -0.2858
  353MOL0     H47641   1.820   6.481   1.310 -0.5117 -3.0380 -1.0623
  353MOL0     H47642   1.651   6.354   1.183 -2.2266  0.1726 -0.7115
  353MOL0     H47643   1.348   6.566   0.967  1.5873 -0.2757 -2.4978
  353MOL0     H47644   1.323   6.468   1.111  0.2805 -0.3663 -0.5722
  353MOL0     H47645   1.190   6.387   0.958 -0.0619 -0.3369  0.1740
  353MOL0     H47646   1.320   6.266   0.959  2.9773  2.0352  0.8482
  353MOL0     H47647   1.439   6.369   0.765  0.2501 -0.9631 -0.2581
  353MOL0     H47648   1.313   6.483   0.739 -0.5586 -1.0596  0.7551
  353MOL0     H47649   1.304   6.298   0.584 -1.6528  4.0353 -0.0591
  353MOL0     H47650   1.272   6.177   0.720 -2.7200  0.8409  0.5606
  353MOL0     H47651   0.897   6.337   0.670  0.1060 -0.0463  0.8009
  353MOL0     H47652   1.530   6.698   0.977 -0.3688 -2.4752 -1.2429
  353MOL0     H47653   1.574   6.902   1.034 -1.8726 -2.5550  2.3840
  353MOL0     H47654   1.672   6.936   1.177  2.2886 -3.3080  2.9706
  353MOL0     H47655   1.755   6.905   1.023 -0.3008 -0.7600 -0.8806
  354MOL0     O47656   1.604   6.502   7.828 -0.5405  0.1884  0.2172
  354MOL0     C47657   1.639   6.397   7.871  0.2460 -0.6601 -0.2856
  354MOL0     O47658   1.763   6.371   7.898  0.4853  0.1598  0.5896
  354MOL0     C47659   1.873   6.454   7.873  0.1276 -0.3733  1.3555
  354MOL0     C47660   1.966   6.441   7.970  0.8672 -0.3419 -0.1496
  354MOL0     C47661   2.088   6.505   7.956 -0.2622 -0.7560 -0.6391
  354MOL0     C47662   2.119   6.598   7.857  0.0525 -0.1882  0.2534
  354MOL0     O47663   2.243   6.656   7.867 -0.2042 -0.3488  0.5642
  354MOL0     C47664   2.327   6.633   7.752  0.3979 -0.3507  0.0297
  354MOL0     C47665   2.298   6.740   7.641 -0.2843  0.4538 -0.7730
  354MOL0     C47666   2.253   6.882   7.688  0.0573 -0.2690  0.5514
  354MOL0     C47667   2.361   6.955   7.780 -0.0888 -0.6792  1.1604
  354MOL0     C47668   2.353   7.113   7.763 -0.2723 -0.6509 -0.7766
  354MOL0     C47669   2.433   7.185   7.871 -0.1388 -0.8605  0.4172
  354MOL0     C47670   2.586   7.158   7.881  0.1063 -0.1488  0.7659
  354MOL0     C47671   2.674   7.248   7.792  0.2157  0.0163  0.1297
  354MOL0     N47672   2.810   7.272   7.844  0.4046 -0.3493  0.0131
  354MOL0     C47673   2.921   7.251   7.773 -0.6426  0.5397  0.0301
  354MOL0     C47674   3.027   7.304   7.849  0.3679  0.4947 -0.7031
  354MOL0     C47675   3.174   7.304   7.812  0.0800  0.2960  0.0761
  354MOL0     C47676   3.235   7.172   7.858 -0.3595 -0.3607  0.3402
  354MOL0     C47677   3.217   7.064   7.752 -0.1016 -0.7592  0.3502
  354MOL0     C47678   3.297   6.943   7.800  0.7162 -0.6681  0.6352
  354MOL0     O47679   3.237   6.892   7.913 -0.8829 -0.1618 -0.3574
  354MOL0     C47680   3.285   6.778   7.975 -1.6188 -0.0476 -0.7474
  354MOL0     C47681   3.210   6.738   8.088  0.2164  0.4429  0.7846
  354MOL0     C47682   3.238   6.619   8.152  0.1997 -0.6896  0.9763
  354MOL0     C47683   3.352   6.542   8.117 -0.1650  0.2772 -0.4637
  354MOL0     C47684   3.403   6.441   8.213 -0.7577 -0.1812 -0.0832
  354MOL0     O47685   3.323   6.416   8.321  0.5499  0.3002 -0.0784
  354MOL0     C47686   3.373   6.324   8.406  0.7265 -0.7741  0.3320
  354MOL0     C47687   3.298   6.209   8.424 -0.9078  0.0630  0.2701
  354MOL0     C47688   3.323   6.122   8.525  0.1503  1.2249 -0.9377
  354MOL0     C47689   3.431   6.138   8.609 -0.0694 -0.1803  1.0284
  354MOL0     O47690   3.454   6.057   8.721  0.3154  0.4199 -0.4020
  354MOL0     C47691   3.481   6.116   8.846 -0.1523  0.8676  1.1668
  354MOL0     C47692   3.442   6.022   8.962 -0.8728  0.0257  0.6937
  354MOL0     C47693   3.457   6.089   9.103 -0.5073 -0.5714 -0.6868
  354MOL0     C47694   3.426   5.972   9.198  0.0960  0.8308 -0.1201
  354MOL0     C47695   3.416   6.018   9.343 -0.5505 -0.3160 -0.1302
  354MOL0     C47696   3.381   5.902   9.436 -0.8537  0.2467 -0.5094
  354MOL0     C47697   3.507   5.824   9.474  0.2744  0.0606 -0.2525
  354MOL0     C47698   3.457   5.697   9.552  0.2142  0.2493  1.2619
  354MOL0    Cl47699   3.410   5.565   9.435 -0.3121  0.2761  0.1642
  354MOL0     C47700   3.519   6.242   8.578 -0.0323 -0.2596  0.5653
  354MOL0     C47701   3.484   6.336   8.485  0.3632 -0.3173  0.3728
  354MOL0     O47702   3.516   6.399   8.200 -0.6922  0.2468 -0.8556
  354MOL0     C47703   3.434   6.590   8.008  0.4223  0.7882 -0.9612
  354MOL0     C47704   3.399   6.700   7.937  0.1644 -0.9538 -0.4651
  354MOL0     N47705   2.967   7.351   7.966  0.5249 -1.0216 -1.1670
  354MOL0     N47706   2.843   7.334   7.964  0.8890 -1.3187  0.3404
  354MOL0     C47707   2.025   6.611   7.755  0.0529  1.1081 -0.3236
  354MOL0     C47708   1.897   6.548   7.767 -1.2495  0.5020  1.4180
  354MOL0     C47709   1.536   6.294   7.901  1.2552  0.7284  0.5712
  354MOL0     C47710   1.560   6.206   8.006 -0.3763  0.5870  0.3775
  354MOL0     C47711   1.487   6.096   8.032 -0.1946  0.9976  0.0723
  354MOL0     C47712   1.377   6.066   7.960  0.5268  0.5358  0.3805
  354MOL0     O47713   1.320   5.944   7.979 -0.3304 -0.0433  0.0951
  354MOL0     C47714   1.217   5.938   8.078 -0.1356 -0.2792 -0.6970
  354MOL0     C47715   1.087   6.009   8.036 -0.3784 -0.6489 -0.6990
  354MOL0     C47716   0.959   5.939   8.088 -0.8416 -0.4425  0.2051
  354MOL0     C47717   0.829   6.006   8.046 -0.4350  0.0138  0.2671
  354MOL0     C47718   0.716   5.911   8.065  0.5039  0.0481  1.1260
  354MOL0     C47719   0.624   5.841   8.100  0.2432 -0.1207  0.0822
  354MOL0     C47720   1.347   6.145   7.849 -0.4622  0.4715 -0.1288
  354MOL0     C47721   1.424   6.265   7.818  0.2243 -0.4766  0.9723
  354MOL0     C47722   1.395   6.332   7.682 -0.8346 -0.1693  0.0795
  354MOL0     H47723   1.945   6.373   8.052  1.9070  1.2268  1.5016
  354MOL0     H47724   2.156   6.488   8.039 -0.9136  1.1636  0.3355
  354MOL0     H47725   2.424   6.638   7.802 -0.6799 -0.0294  2.2117
  354MOL0     H47726   2.320   6.532   7.712  2.1849  0.0383 -1.3684
  354MOL0     H47727   2.216   6.710   7.574 -2.2708  3.9148 -0.1621
  354MOL0     H47728   2.387   6.731   7.578  1.0072 -1.7160  1.2205
  354MOL0     H47729   2.151   6.882   7.728 -0.7373 -3.3084 -1.1550
  354MOL0     H47730   2.239   6.935   7.593 -1.4057  3.3063  2.5775
  354MOL0     H47731   2.332   6.921   7.879 -2.6007  0.8894  1.0677
  354MOL0     H47732   2.464   6.921   7.766 -0.3251 -1.9545  2.3202
  354MOL0     H47733   2.393   7.138   7.665  2.2436 -2.1367 -0.2258
  354MOL0     H47734   2.248   7.143   7.762 -0.1844  0.0080  1.8915
  354MOL0     H47735   2.417   7.293   7.865 -1.4552 -1.1068 -1.1573
  354MOL0     H47736   2.392   7.148   7.966 -0.1497 -4.7665 -0.9579
  354MOL0     H47737   2.594   7.052   7.853 -0.9931  0.1159 -0.6175
  354MOL0     H47738   2.614   7.171   7.986 -2.0970  3.3494  1.0489
  354MOL0     H47739   2.692   7.203   7.694 -0.2760  4.5932 -2.3397
  354MOL0     H47740   2.612   7.335   7.771 -0.4754  0.0022  1.9514
  354MOL0     H47741   2.913   7.204   7.676 -3.4687 -1.8425  1.2602
  354MOL0     H47742   3.194   7.316   7.705  1.0754  1.5822  0.3750
  354MOL0     H47743   3.218   7.388   7.867  1.4176 -0.2141 -0.1573
  354MOL0     H47744   3.343   7.165   7.873 -0.5549 -0.3639  1.8599
  354MOL0     H47745   3.194   7.144   7.956 -0.3171  1.5649  0.9669
  354MOL0     H47746   3.262   7.104   7.661  0.2264  2.0371  1.6268
  354MOL0     H47747   3.112   7.036   7.740 -0.3964 -0.9504  2.7475
  354MOL0     H47748   3.397   6.987   7.809 -0.6292  3.6149 -2.4260
  354MOL0     H47749   3.306   6.865   7.724  1.7762 -0.4241  0.4927
  354MOL0     H47750   3.124   6.802   8.103 -0.8891  0.3435 -3.6611
  354MOL0     H47751   3.177   6.600   8.240 -3.5902  3.3036 -0.4268
  354MOL0     H47752   3.213   6.175   8.366 -0.2106 -2.3111  0.5229
  354MOL0     H47753   3.256   6.041   8.552 -3.1616  3.3701 -1.9411
  354MOL0     H47754   3.587   6.144   8.856 -0.0083  0.4343  0.8784
  354MOL0     H47755   3.418   6.203   8.863  0.9357  1.9307  0.0244
  354MOL0     H47756   3.340   5.988   8.939 -0.5336  0.4366 -1.6885
  354MOL0     H47757   3.514   5.940   8.955 -0.3210  0.3882  1.9356
  354MOL0     H47758   3.561   6.115   9.126 -0.8916  1.0769 -0.6831
  354MOL0     H47759   3.388   6.169   9.129  0.2113 -0.2535  0.2720
  354MOL0     H47760   3.513   5.908   9.206 -1.2347 -0.9576  0.7820
  354MOL0     H47761   3.341   5.915   9.160  0.6213 -0.5692  0.7442
  354MOL0     H47762   3.333   6.089   9.347 -1.3454 -1.2473  0.6830
  354MOL0     H47763   3.503   6.081   9.366 -0.8902 -0.9254  3.4467
  354MOL0     H47764   3.335   5.934   9.530  1.7103  1.2402  0.4949
  354MOL0     H47765   3.314   5.831   9.387 -0.8298  0.2745 -0.5824
  354MOL0     H47766   3.560   5.888   9.545  0.0586  0.1874 -0.2041
  354MOL0     H47767   3.566   5.784   9.391 -1.0309  0.2904 -1.3240
  354MOL0     H47768   3.538   5.653   9.611  1.0781 -1.5000 -1.0929
  354MOL0     H47769   3.369   5.725   9.611  0.2313  1.3873  0.7895
  354MOL0     H47770   3.614   6.242   8.630  0.0648 -3.6164  0.6202
  354MOL0     H47771   3.564   6.407   8.466  1.2276 -0.5377  2.8709
  354MOL0     H47772   3.513   6.522   7.982 -0.2520 -0.9124  1.1399
  354MOL0     H47773   3.454   6.734   7.849 -3.3458  2.3445 -1.6370
  354MOL0     H47774   2.056   6.682   7.678  2.8576 -1.6244 -1.9549
  354MOL0     H47775   1.826   6.570   7.689 -0.9658 -0.1645  0.9593
  354MOL0     H47776   1.645   6.223   8.071  0.3588 -0.1717 -0.3480
  354MOL0     H47777   1.515   6.038   8.119  0.3861 -1.6650 -1.7664
  354MOL0     H47778   1.248   5.968   8.179 -0.3199  0.9875 -0.9977
  354MOL0     H47779   1.187   5.833   8.088 -2.5728  0.2862 -1.3429
  354MOL0     H47780   1.083   6.018   7.927 -0.9598  1.1674 -0.5744
  354MOL0     H47781   1.090   6.109   8.080  0.1782 -0.8948 -0.1586
  354MOL0     H47782   0.958   5.932   8.197 -0.1007 -0.9718  0.1896
  354MOL0     H47783   0.962   5.836   8.049 -1.5430 -0.3871 -0.0201
  354MOL0     H47784   0.822   6.102   8.097  3.1482  1.7314 -2.0367
  354MOL0     H47785   0.831   6.038   7.941 -1.1946 -1.4302 -0.2171
  354MOL0     H47786   0.547   5.771   8.128  0.8657  0.4130  3.5686
  354MOL0     H47787   1.268   6.104   7.788 -0.4400  0.9028 -0.4553
  354MOL0     H47788   1.488   6.357   7.630  0.5658 -0.2771  2.3931
  354MOL0     H47789   1.329   6.266   7.625 -1.1607  0.1932  0.0309
  354MOL0     H47790   1.355   6.431   7.704 -1.4795 -0.2455 -0.7271
  355MOL0     O47791   3.682   8.398   2.339 -0.2600 -0.7215 -0.6394
  355MOL0     C47792   3.685   8.517   2.315 -0.2813 -0.0983  0.8604
  355MOL0     O47793   3.602   8.588   2.234 -0.0081  0.0269  0.0667
  355MOL0     C47794   3.490   8.526   2.188  0.9791 -0.3883  0.0242
  355MOL0     C47795   3.398   8.489   2.288 -0.0833  0.3434  0.8352
  355MOL0     C47796   3.277   8.427   2.250 -0.0380  0.4539 -0.0782
  355MOL0     C47797   3.244   8.411   2.118  0.3976  0.1821 -0.4178
  355MOL0     O47798   3.122   8.359   2.087  0.0598  0.0728 -0.0717
  355MOL0     C47799   3.136   8.255   1.979 -0.1721 -0.4300 -0.5427
  355MOL0     C47800   3.008   8.176   2.009  0.7900  0.6633  0.8927
  355MOL0     C47801   2.998   8.112   2.153  0.4217 -0.1763  0.5729
  355MOL0     C47802   2.866   8.042   2.170 -0.0377 -0.5163 -0.6945
  355MOL0     C47803   2.853   8.006   2.317  0.7006 -0.4230  0.2630
  355MOL0     C47804   2.789   8.114   2.407  1.0885 -0.0690 -0.5877
  355MOL0     C47805   2.783   8.059   2.551  0.7680  0.1112  0.7671
  355MOL0     C47806   2.671   7.958   2.562 -0.5260 -0.2229 -0.0780
  355MOL0     N47807   2.675   7.891   2.688 -0.0994 -1.1122  0.5099
  355MOL0     C47808   2.673   7.965   2.804 -0.1336  0.5026  0.0343
  355MOL0     C47809   2.728   7.872   2.897  0.4664 -0.5608  0.3047
  355MOL0     C47810   2.744   7.892   3.045  0.3512  0.0326 -0.0365
  355MOL0     C47811   2.841   8.006   3.073 -0.5761 -0.2265 -0.0692
  355MOL0     C47812   2.979   7.984   3.021 -1.0337  0.7026 -0.2321
  355MOL0     C47813   3.084   8.077   3.093  0.5159  0.3719  0.1284
  355MOL0     O47814   3.114   8.034   3.224  0.1027  0.2041  0.6231
  355MOL0     C47815   3.202   8.095   3.304  0.1887 -0.1213  0.2139
  355MOL0     C47816   3.300   8.182   3.259 -0.5983  0.0818 -0.2757
  355MOL0     C47817   3.407   8.214   3.345  0.1560 -0.6662  0.2175
  355MOL0     C47818   3.406   8.186   3.481  0.9362  1.0077  0.3311
  355MOL0     C47819   3.488   8.249   3.587  0.3591 -1.2739 -0.5027
  355MOL0     O47820   3.450   8.269   3.710 -0.3005  0.0478  0.3762
  355MOL0     C47821   3.553   8.313   3.793  0.1682  0.3158 -0.2923
  355MOL0     C47822   3.649   8.223   3.835 -0.0091 -1.4804 -0.5977
  355MOL0     C47823   3.757   8.283   3.910 -0.1318 -0.6479 -0.7629
  355MOL0     C47824   3.759   8.419   3.953 -0.1083  0.1427  0.1784
  355MOL0     O47825   3.853   8.465   4.048  0.0945 -0.3453 -0.8603
  355MOL0     C47826   3.875   8.606   4.067 -0.0279  0.3994  0.2041
  355MOL0     C47827   4.018   8.629   4.116 -0.0516 -0.0274 -0.6489
  355MOL0     C47828   4.061   8.776   4.158  0.2522  1.3845 -1.0513
  355MOL0     C47829   3.970   8.826   4.265 -0.0734  0.4559  0.1049
  355MOL0     C47830   4.038   8.950   4.327 -0.1201 -0.7841 -1.0399
  355MOL0     C47831   4.084   9.058   4.231  0.5995 -0.1167  0.1107
  355MOL0     C47832   4.089   9.201   4.282  0.6210  0.5328 -0.7038
  355MOL0     C47833   4.188   9.228   4.397  0.2362  0.7462 -0.0218
  355MOL0    Cl47834   4.130   9.209   4.566 -0.0494  0.2133  0.0387
  355MOL0     C47835   3.649   8.506   3.904 -1.0052 -0.2012 -0.0085
  355MOL0     C47836   3.555   8.456   3.818 -0.0692  0.2765  0.7608
  355MOL0     O47837   3.597   8.284   3.539  0.3979 -0.1882  0.0895
  355MOL0     C47838   3.290   8.103   3.524 -0.3773 -0.2800  1.1408
  355MOL0     C47839   3.193   8.059   3.432  0.4239  0.0569  0.6070
  355MOL0     N47840   2.740   7.752   2.821  0.2304  0.0845  0.5414
  355MOL0     N47841   2.711   7.763   2.696  0.0016  0.0963 -0.9135
  355MOL0     C47842   3.333   8.459   2.015 -0.7983 -0.1328  0.1460
  355MOL0     C47843   3.458   8.514   2.055  0.1065 -0.7796 -0.4434
  355MOL0     C47844   3.797   8.591   2.383  0.1356 -0.0007  0.3346
  355MOL0     C47845   3.817   8.729   2.345  0.5806  1.4842 -0.0330
  355MOL0     C47846   3.925   8.802   2.390 -0.3217  0.5554 -0.8192
  355MOL0     C47847   4.002   8.745   2.496 -1.0973  0.3923  0.5495
  355MOL0     O47848   4.080   8.821   2.574  0.0653  0.4522  0.8327
  355MOL0     C47849   4.186   8.888   2.495 -0.2604  0.3507 -0.2184
  355MOL0     C47850   4.316   8.836   2.556  0.5518 -0.9449 -0.3154
  355MOL0     C47851   4.312   8.824   2.712 -1.0850  0.6804 -0.2448
  355MOL0     C47852   4.456   8.770   2.753  0.7220  0.1235 -0.5587
  355MOL0     C47853   4.542   8.890   2.781  0.9362  0.1814 -0.8380
  355MOL0     C47854   4.622   8.974   2.812  0.5115 -0.1751 -0.2829
  355MOL0     C47855   3.989   8.619   2.536  0.0955 -0.7183 -0.4625
  355MOL0     C47856   3.890   8.536   2.477 -0.3891  0.0789 -0.4908
  355MOL0     C47857   3.883   8.401   2.534 -0.6642 -0.1870 -0.1194
  355MOL0     H47858   3.420   8.484   2.394  1.2451  2.2797  0.6927
  355MOL0     H47859   3.206   8.387   2.321 -1.1778  0.0357 -1.4086
  355MOL0     H47860   3.137   8.300   1.879  1.4951  2.7663  0.7358
  355MOL0     H47861   3.217   8.183   1.991  0.7489  0.4059 -1.5408
  355MOL0     H47862   2.999   8.108   1.924 -1.0773  3.8205 -1.6797
  355MOL0     H47863   2.930   8.250   1.990 -0.7117 -0.4942  2.2368
  355MOL0     H47864   3.022   8.178   2.237  0.4727  0.0519  0.3820
  355MOL0     H47865   3.080   8.040   2.153 -1.9773 -3.1977 -1.8542
  355MOL0     H47866   2.781   8.101   2.135 -2.7346 -3.5464  0.2677
  355MOL0     H47867   2.876   7.949   2.113 -2.7307 -4.0948  3.9456
  355MOL0     H47868   2.812   7.905   2.331  2.5335 -1.3898 -0.9465
  355MOL0     H47869   2.952   8.003   2.363  0.5036 -0.1511  0.7143
  355MOL0     H47870   2.853   8.202   2.420  1.0115 -0.4488  4.7206
  355MOL0     H47871   2.694   8.156   2.373  1.8602  2.4561  0.1511
  355MOL0     H47872   2.765   8.139   2.623 -2.4857 -0.0001  0.2230
  355MOL0     H47873   2.879   8.012   2.574  1.2835  0.8181  0.1206
  355MOL0     H47874   2.581   8.018   2.542 -0.8277 -1.1953 -1.8466
  355MOL0     H47875   2.675   7.881   2.485 -2.4410  2.0239 -2.6520
  355MOL0     H47876   2.641   8.066   2.826 -1.3185  1.0468 -3.4903
  355MOL0     H47877   2.647   7.907   3.093  1.3933 -2.4836  3.2771
  355MOL0     H47878   2.783   7.803   3.096  0.6061 -0.1413 -0.5229
  355MOL0     H47879   2.798   8.098   3.033 -1.1401 -0.7643 -0.7192
  355MOL0     H47880   2.841   8.005   3.183  0.4283 -2.9082 -0.0273
  355MOL0     H47881   2.989   8.005   2.914  0.2247  0.5631 -0.1535
  355MOL0     H47882   3.012   7.880   3.034 -1.4641  0.4353 -1.2112
  355MOL0     H47883   3.045   8.179   3.091 -0.3003  0.0954  1.1728
  355MOL0     H47884   3.172   8.078   3.028  0.2052 -0.2151 -0.3075
  355MOL0     H47885   3.305   8.210   3.154  0.0784  0.8323 -0.0570
  355MOL0     H47886   3.496   8.271   3.318  0.0568  1.1382  3.1895
  355MOL0     H47887   3.646   8.117   3.816  0.4859 -1.8789  1.3781
  355MOL0     H47888   3.843   8.222   3.937  0.5295 -1.3410 -3.9400
  355MOL0     H47889   3.875   8.651   3.967  2.2199 -0.6301 -0.3274
  355MOL0     H47890   3.794   8.651   4.125 -2.4724 -0.1910 -2.5493
  355MOL0     H47891   4.042   8.550   4.187  0.9957  0.7753 -0.0642
  355MOL0     H47892   4.093   8.603   4.041  1.4454 -0.4318  0.9141
  355MOL0     H47893   4.157   8.767   4.209 -1.4905  2.5357  2.8975
  355MOL0     H47894   4.055   8.847   4.076 -0.2499  3.8986  1.0274
  355MOL0     H47895   3.965   8.759   4.352  2.3372 -0.2969 -0.2506
  355MOL0     H47896   3.871   8.857   4.230  0.2622  0.7841 -0.5677
  355MOL0     H47897   4.122   8.907   4.382 -1.6888 -2.8447 -0.0810
  355MOL0     H47898   3.961   8.996   4.390  1.3448  1.5209 -0.8149
  355MOL0     H47899   4.181   9.039   4.184 -0.8047 -0.7235 -2.7688
  355MOL0     H47900   4.011   9.067   4.150  2.7464  2.8460 -1.6925
  355MOL0     H47901   3.996   9.224   4.335  0.6609 -1.0296  0.0831
  355MOL0     H47902   4.116   9.276   4.207  1.0923  1.6100  0.5039
  355MOL0     H47903   4.273   9.161   4.380  0.6110  1.6982 -2.2516
  355MOL0     H47904   4.219   9.332   4.389  2.9219 -0.0077 -0.3449
  355MOL0     H47905   3.637   8.608   3.939 -1.5165 -0.0926 -0.4834
  355MOL0     H47906   3.463   8.509   3.793  1.1621  3.7767  2.9613
  355MOL0     H47907   3.278   8.081   3.630 -1.3445  0.6730  1.2411
  355MOL0     H47908   3.108   7.997   3.461  0.5014 -1.2981 -1.8004
  355MOL0     H47909   3.300   8.458   1.912  1.2161 -0.4872 -0.5386
  355MOL0     H47910   3.530   8.542   1.978  1.9466 -4.1942 -0.1395
  355MOL0     H47911   3.743   8.777   2.282 -1.1892  0.7902  1.4255
  355MOL0     H47912   3.928   8.909   2.367  0.0609  1.0878  1.4808
  355MOL0     H47913   4.188   8.995   2.517 -1.5702  0.0320  1.6974
  355MOL0     H47914   4.190   8.871   2.387  1.2763  0.9109 -0.2716
  355MOL0     H47915   4.404   8.891   2.521  3.1235 -5.1875 -1.4160
  355MOL0     H47916   4.325   8.734   2.516 -0.9704 -1.6402  1.0123
  355MOL0     H47917   4.245   8.739   2.730  1.4885 -1.5595 -0.6856
  355MOL0     H47918   4.279   8.918   2.756  0.1686  1.8222 -1.6367
  355MOL0     H47919   4.451   8.707   2.842  1.7808  1.8760  0.8251
  355MOL0     H47920   4.502   8.707   2.675 -0.9987 -1.4995 -0.3292
  355MOL0     H47921   4.696   9.049   2.834 -2.2107  1.7458  3.4788
  355MOL0     H47922   4.061   8.582   2.609  0.0459 -1.4813 -0.7918
  355MOL0     H47923   3.960   8.380   2.610 -3.1166 -0.6506  2.4129
  355MOL0     H47924   3.790   8.396   2.590 -1.3278  2.0749 -0.9119
  355MOL0     H47925   3.890   8.322   2.459 -0.2165 -1.6194  1.3626
  356MOL0     O47926   7.666   9.589   6.095 -0.1539  0.4537 -0.0332
  356MOL0     C47927   7.614   9.680   6.032 -0.0441 -0.2039  0.0474
  356MOL0     O47928   7.486   9.677   5.987 -0.5602 -1.0439  0.1398
  356MOL0     C47929   7.376   9.624   6.052 -0.3379 -0.3290  0.1115
  356MOL0     C47930   7.272   9.706   6.064  0.6237  0.7489 -0.0484
  356MOL0     C47931   7.149   9.651   6.102  0.2434 -0.7193  0.9065
  356MOL0     C47932   7.134   9.521   6.141  0.4487  0.5479 -0.2083
  356MOL0     O47933   7.021   9.473   6.198  0.6703 -0.0844 -0.2588
  356MOL0     C47934   6.935   9.406   6.103 -0.9558 -0.9283 -0.0000
  356MOL0     C47935   6.830   9.503   6.045 -0.6290  0.3260 -0.2234
  356MOL0     C47936   6.699   9.433   6.018  0.2016  0.1943 -0.0021
  356MOL0     C47937   6.595   9.506   5.923 -0.0186  0.2185 -0.5709
  356MOL0     C47938   6.467   9.419   5.926 -0.4167  0.0466  0.2015
  356MOL0     C47939   6.355   9.498   5.852 -0.3038  0.0803  0.9487
  356MOL0     C47940   6.358   9.503   5.695  0.2358  0.2352  0.6390
  356MOL0     C47941   6.324   9.359   5.637 -0.2054  0.1156  0.2646
  356MOL0     N47942   6.182   9.327   5.630  0.1564  0.2062  0.1040
  356MOL0     C47943   6.087   9.373   5.543  1.0564  0.4127  1.0452
  356MOL0     C47944   5.975   9.313   5.592  0.4034 -1.5168  0.5469
  356MOL0     C47945   5.836   9.346   5.554 -0.5232  0.2412 -0.7789
  356MOL0     C47946   5.787   9.274   5.427 -0.6548 -2.0508 -0.4816
  356MOL0     C47947   5.636   9.296   5.385 -0.1170 -0.0004 -0.5367
  356MOL0     C47948   5.608   9.432   5.325 -0.1402  1.2674  0.2406
  356MOL0     O47949   5.478   9.419   5.263 -0.0326  0.9051  0.3859
  356MOL0     C47950   5.460   9.357   5.137 -0.4980 -0.8887 -0.3273
  356MOL0     C47951   5.332   9.320   5.106  1.0968 -1.3327 -0.7082
  356MOL0     C47952   5.305   9.232   5.008 -0.1667 -1.1089  0.8282
  356MOL0     C47953   5.414   9.182   4.929 -0.3151  0.2579  1.0563
  356MOL0     C47954   5.389   9.087   4.809 -0.8287 -0.6475  0.2029
  356MOL0     O47955   5.490   9.051   4.727 -0.4614  0.0783 -0.0320
  356MOL0     C47956   5.466   8.966   4.623  0.9578  0.0787 -0.8013
  356MOL0     C47957   5.389   9.001   4.505 -0.3796 -1.2250  0.1639
  356MOL0     C47958   5.403   8.925   4.390 -0.2712  1.2637  0.4452
  356MOL0     C47959   5.468   8.800   4.394 -1.1680 -0.4712  0.5260
  356MOL0     O47960   5.474   8.712   4.284 -0.4040 -0.6447 -0.5188
  356MOL0     C47961   5.377   8.726   4.178 -0.4567 -0.2361  0.0572
  356MOL0     C47962   5.418   8.659   4.039  0.6841 -0.1772  0.1183
  356MOL0     C47963   5.541   8.726   3.967 -0.3511 -0.3054  0.6315
  356MOL0     C47964   5.500   8.852   3.894 -0.4008 -0.3176  0.2109
  356MOL0     C47965   5.605   8.913   3.808  0.8135  0.7773  0.1041
  356MOL0     C47966   5.544   9.020   3.724  0.3905  0.2776  0.0363
  356MOL0     C47967   5.636   9.057   3.602 -0.3196 -0.3210  0.5144
  356MOL0     C47968   5.602   9.205   3.548 -0.2846 -0.0048 -0.1208
  356MOL0    Cl47969   5.437   9.191   3.466  0.0863 -0.3519  0.0848
  356MOL0     C47970   5.530   8.759   4.512 -0.3810 -0.2214  0.0330
  356MOL0     C47971   5.529   8.843   4.625  0.6788  0.5940  0.5401
  356MOL0     O47972   5.274   9.044   4.809 -0.2996 -0.0625 -0.4790
  356MOL0     C47973   5.548   9.227   4.953  0.8368 -0.1584  0.7387
  356MOL0     C47974   5.567   9.312   5.054 -1.2386  1.2815  0.0108
  356MOL0     N47975   6.004   9.232   5.706 -0.3274 -0.1995  0.0538
  356MOL0     N47976   6.131   9.233   5.712 -0.9873 -0.7359  0.2938
  356MOL0     C47977   7.242   9.434   6.133 -0.1847  0.5872 -0.3735
  356MOL0     C47978   7.360   9.488   6.076 -0.3152  0.4357 -0.3993
  356MOL0     C47979   7.681   9.803   5.996  0.6799  0.5332 -0.2732
  356MOL0     C47980   7.823   9.806   6.010  0.2993 -0.0215  0.0705
  356MOL0     C47981   7.901   9.916   5.968  0.1645 -0.4154 -0.3419
  356MOL0     C47982   7.832  10.027   5.919  0.8691 -0.1008 -0.6395
  356MOL0     O47983   7.915  10.126   5.869 -0.3160  0.9991 -0.2640
  356MOL0     C47984   7.851  10.247   5.828  0.2340 -0.3753 -0.1935
  356MOL0     C47985   7.944  10.352   5.776 -0.3774  0.7986 -0.3423
  356MOL0     C47986   8.057  10.392   5.871  0.0246 -0.5740  0.6239
  356MOL0     C47987   8.171  10.452   5.789  0.1903  0.5565  0.6350
  356MOL0     C47988   8.258  10.527   5.879 -0.0372 -0.3702 -0.1044
  356MOL0     C47989   8.329  10.576   5.964  0.9088  0.3303 -0.5987
  356MOL0     C47990   7.696  10.031   5.913  0.7421 -0.2268 -0.3512
  356MOL0     C47991   7.617   9.927   5.949 -0.3569  0.8718 -0.4487
  356MOL0     C47992   7.468   9.943   5.922 -0.1198 -0.2447  0.6434
  356MOL0     H47993   7.266   9.810   6.033 -1.8933  0.6059 -0.2405
  356MOL0     H47994   7.067   9.720   6.119  1.6797  1.3556 -0.1490
  356MOL0     H47995   7.004   9.355   6.035  0.1744 -1.4825  1.5201
  356MOL0     H47996   6.882   9.328   6.158 -1.0779  1.7109  3.9788
  356MOL0     H47997   6.877   9.541   5.954  2.2339 -0.2089  0.9167
  356MOL0     H47998   6.813   9.585   6.114  1.6459  1.4617 -0.9264
  356MOL0     H47999   6.660   9.410   6.118  1.8610  1.1819  0.9231
  356MOL0     H48000   6.728   9.339   5.970  0.0555  0.4025 -0.5039
  356MOL0     H48001   6.574   9.605   5.963 -0.8619 -0.1457 -0.0889
  356MOL0     H48002   6.630   9.523   5.821 -0.8743 -0.3322 -0.9738
  356MOL0     H48003   6.481   9.318   5.886  0.3350  1.6394 -4.0084
  356MOL0     H48004   6.448   9.405   6.033  2.7689 -0.9110  0.7739
  356MOL0     H48005   6.266   9.463   5.903 -0.7977  0.4532  0.3552
  356MOL0     H48006   6.369   9.603   5.880 -3.6479  0.2581  2.4455
  356MOL0     H48007   6.457   9.535   5.659  0.1422 -0.4870 -0.3020
  356MOL0     H48008   6.282   9.566   5.649 -1.9591  0.4694  4.1632
  356MOL0     H48009   6.363   9.357   5.535  2.4611 -0.3807  1.2138
  356MOL0     H48010   6.366   9.280   5.699 -1.6568 -0.8080  0.1250
  356MOL0     H48011   6.098   9.447   5.464  1.4848 -2.5879 -1.8962
  356MOL0     H48012   5.767   9.318   5.633  1.1557 -0.8276  0.3783
  356MOL0     H48013   5.832   9.455   5.543 -0.3998  0.1377 -2.0059
  356MOL0     H48014   5.850   9.316   5.348  0.5500 -1.4428  0.7503
  356MOL0     H48015   5.816   9.168   5.437  2.9969 -1.3000 -1.4337
  356MOL0     H48016   5.582   9.273   5.477 -0.9482 -0.5244 -1.1410
  356MOL0     H48017   5.594   9.220   5.318 -1.9702  1.3134 -0.9193
  356MOL0     H48018   5.686   9.450   5.250  2.8323 -2.6334  2.0984
  356MOL0     H48019   5.606   9.514   5.397 -2.4472  1.4674  0.0082
  356MOL0     H48020   5.254   9.341   5.178  2.8326 -0.4200  1.0059
  356MOL0     H48021   5.204   9.198   4.989 -1.7679  3.2162  0.4574
  356MOL0     H48022   5.337   9.096   4.509  1.2542 -0.3215  0.9430
  356MOL0     H48023   5.366   8.969   4.298  0.4242 -0.9155 -0.9547
  356MOL0     H48024   5.290   8.678   4.224 -0.1688 -0.4641  0.3694
  356MOL0     H48025   5.344   8.827   4.155 -0.3035 -0.1001  0.4269
  356MOL0     H48026   5.454   8.557   4.053 -1.1527 -0.9151 -0.2020
  356MOL0     H48027   5.339   8.651   3.964  2.2942 -4.0000 -1.4292
  356MOL0     H48028   5.611   8.743   4.050 -0.8543 -1.5571  1.3358
  356MOL0     H48029   5.582   8.652   3.897  0.4203  0.2110  0.5262
  356MOL0     H48030   5.458   8.926   3.963 -2.6420 -0.3536 -1.0043
  356MOL0     H48031   5.416   8.830   3.828 -0.1796 -0.8565  0.1090
  356MOL0     H48032   5.644   8.835   3.741  1.2078  1.2114 -0.1765
  356MOL0     H48033   5.689   8.953   3.867  1.8195 -2.1651  0.8634
  356MOL0     H48034   5.450   8.985   3.681  1.4178 -1.3920 -0.9596
  356MOL0     H48035   5.496   9.108   3.767 -1.9634  0.0439 -1.8950
  356MOL0     H48036   5.633   8.985   3.519 -1.1108  1.8203 -1.4225
  356MOL0     H48037   5.740   9.076   3.631  0.0506 -1.2589 -0.1539
  356MOL0     H48038   5.590   9.263   3.640 -1.3781 -0.1153 -0.1782
  356MOL0     H48039   5.677   9.252   3.484  1.8168 -5.2712 -2.0273
  356MOL0     H48040   5.586   8.667   4.519  2.6691  1.5951  2.0696
  356MOL0     H48041   5.593   8.818   4.709  1.3185  4.8746  1.5674
  356MOL0     H48042   5.625   9.190   4.885 -0.0240 -1.7446  0.5990
  356MOL0     H48043   5.673   9.330   5.072 -1.1790 -1.3905  3.3531
  356MOL0     H48044   7.242   9.335   6.177 -0.7862  0.3987 -0.7841
  356MOL0     H48045   7.447   9.430   6.046 -0.7253 -0.0773 -0.6106
  356MOL0     H48046   7.885   9.720   6.035  3.1654  1.2445 -2.0456
  356MOL0     H48047   8.009   9.909   5.977  0.0537  0.1319  2.3797
  356MOL0     H48048   7.802  10.289   5.916  0.7967 -1.1452  0.5093
  356MOL0     H48049   7.769  10.231   5.758  0.3867 -1.0153 -0.2307
  356MOL0     H48050   7.877  10.437   5.763 -1.9490 -0.3768 -0.2467
  356MOL0     H48051   7.976  10.313   5.679 -4.0318 -1.0115 -0.9839
  356MOL0     H48052   8.100  10.302   5.916  0.3649 -0.7893 -0.1197
  356MOL0     H48053   8.015  10.461   5.944  0.4920  1.1281 -0.6568
  356MOL0     H48054   8.229  10.367   5.750 -2.1467 -1.0494  0.4704
  356MOL0     H48055   8.134  10.522   5.713  1.6435  1.5031  0.7615
  356MOL0     H48056   8.375  10.634   6.041 -0.3055 -0.7997  1.0450
  356MOL0     H48057   7.648  10.124   5.885  0.3269  0.1656  1.5727
  356MOL0     H48058   7.420   9.924   6.018 -0.9591 -1.0083  0.0833
  356MOL0     H48059   7.431  10.041   5.891 -2.2196 -0.8149  1.2495
  356MOL0     H48060   7.431   9.868   5.853  0.7900  0.2833 -0.4606
  357MOL0     O48061   5.964   1.116   4.775  0.4585 -0.3372 -0.2257
  357MOL0     C48062   5.912   1.024   4.713  0.0814  0.1940 -0.1197
  357MOL0     O48063   5.789   1.020   4.667  0.4170  0.5982 -0.1819
  357MOL0     C48064   5.715   1.138   4.664 -0.5316 -0.5911  0.0588
  357MOL0     C48065   5.646   1.166   4.783 -0.1693 -0.0941 -0.4968
  357MOL0     C48066   5.576   1.287   4.794  0.1077 -0.3014  0.1609
  357MOL0     C48067   5.570   1.375   4.688 -0.4077  0.5783 -1.3519
  357MOL0     O48068   5.524   1.506   4.699  0.0593  1.0160 -0.0239
  357MOL0     C48069   5.577   1.578   4.814  0.4841  0.6408 -0.4388
  357MOL0     C48070   5.585   1.733   4.791  0.5090 -0.2828  0.3227
  357MOL0     C48071   5.692   1.776   4.695 -0.1757 -0.0216  0.2496
  357MOL0     C48072   5.840   1.749   4.745 -0.3361 -1.2684  0.3685
  357MOL0     C48073   5.940   1.730   4.627  0.9524  0.5630  0.0297
  357MOL0     C48074   6.081   1.687   4.667 -0.2818  0.4852 -0.1470
  357MOL0     C48075   6.116   1.556   4.749  0.0787 -0.2805 -0.9811
  357MOL0     C48076   6.052   1.433   4.695 -0.1479 -0.0291 -0.4599
  357MOL0     N48077   6.114   1.384   4.576  0.4646 -0.5428  0.3035
  357MOL0     C48078   6.066   1.431   4.455  0.4088 -0.8036 -0.3403
  357MOL0     C48079   6.112   1.347   4.363 -0.6085 -0.8530 -0.2260
  357MOL0     C48080   6.088   1.351   4.218 -0.7086 -0.5697 -0.0074
  357MOL0     C48081   5.961   1.292   4.187  0.0742  1.1198  0.6081
  357MOL0     C48082   5.939   1.254   4.038 -0.2409 -0.6551 -0.3148
  357MOL0     C48083   5.808   1.176   4.018  0.9384  0.0125  0.5086
  357MOL0     O48084   5.770   1.203   3.881 -0.1550  0.1459  0.5960
  357MOL0     C48085   5.658   1.138   3.828 -0.0182  0.1562 -0.6707
  357MOL0     C48086   5.565   1.091   3.909  0.7365  0.1472 -0.1262
  357MOL0     C48087   5.446   1.037   3.861 -0.0742  0.6142 -0.0789
  357MOL0     C48088   5.419   1.036   3.716 -0.5833 -0.0839  0.1153
  357MOL0     C48089   5.289   0.988   3.656 -1.2509  0.4553  0.2526
  357MOL0     O48090   5.282   0.996   3.525 -0.2000  0.0680  0.3155
  357MOL0     C48091   5.165   0.989   3.459  0.6608  0.1724  1.2154
  357MOL0     C48092   5.149   0.913   3.333 -0.3340 -1.0730 -0.5178
  357MOL0     C48093   5.022   0.905   3.271  0.2945  0.2310 -0.4131
  357MOL0     C48094   4.903   0.973   3.315 -0.9656  0.2136  0.1590
  357MOL0     O48095   4.790   0.945   3.242  0.0761  0.5888  0.0350
  357MOL0     C48096   4.680   1.041   3.262 -0.5594  0.0951  0.4461
  357MOL0     C48097   4.581   1.003   3.146 -0.1294  0.3321  0.5441
  357MOL0     C48098   4.468   1.093   3.163 -0.1091  0.0266  0.0835
  357MOL0     C48099   4.367   1.050   3.064  0.3869  0.3941 -0.9361
  357MOL0     C48100   4.415   1.056   2.915  0.1630 -0.0375  0.3574
  357MOL0     C48101   4.301   1.055   2.815 -0.6734 -0.8714 -0.0554
  357MOL0     C48102   4.368   1.093   2.683 -0.2516  0.4199  0.0970
  357MOL0     C48103   4.268   1.107   2.572 -0.8230  0.4685  0.4068
  357MOL0    Cl48104   4.349   1.139   2.423  0.0617 -0.4053  0.0896
  357MOL0     C48105   4.921   1.044   3.437 -0.5405  0.1763 -0.2555
  357MOL0     C48106   5.047   1.059   3.496 -0.7245 -0.4498  0.0408
  357MOL0     O48107   5.203   0.958   3.736 -0.3021 -0.0332  0.3279
  357MOL0     C48108   5.518   1.094   3.632  0.0329  0.7273  0.8634
  357MOL0     C48109   5.635   1.138   3.690  0.1388 -0.4212  0.1379
  357MOL0     N48110   6.201   1.254   4.423 -0.1045 -0.4400  0.2599
  357MOL0     N48111   6.197   1.275   4.553  0.0154  0.0465  0.1901
  357MOL0     C48112   5.647   1.344   4.576 -0.2194 -0.2219 -1.4338
  357MOL0     C48113   5.720   1.226   4.564  0.4612 -0.3956 -0.6449
  357MOL0     C48114   5.993   0.895   4.699  0.1009  1.2403 -0.3997
  357MOL0     C48115   6.110   0.886   4.774 -0.4954 -0.0814  0.0615
  357MOL0     C48116   6.193   0.779   4.762 -0.0012  0.2929  1.1386
  357MOL0     C48117   6.165   0.677   4.684 -0.2958 -0.7501 -0.5122
  357MOL0     O48118   6.247   0.570   4.686 -0.3086  0.1729 -0.6736
  357MOL0     C48119   6.318   0.555   4.565  0.0424 -0.5643 -0.0259
  357MOL0     C48120   6.461   0.560   4.586  1.1919 -0.0395  1.0659
  357MOL0     C48121   6.513   0.483   4.709 -0.2340 -0.3200  0.3964
  357MOL0     C48122   6.654   0.446   4.681  0.0610  0.7612 -1.3402
  357MOL0     C48123   6.711   0.391   4.804 -0.2611 -0.3540 -0.7197
  357MOL0     C48124   6.757   0.339   4.903 -0.7186 -0.7621 -0.8042
  357MOL0     C48125   6.049   0.678   4.615  0.4542  0.2842 -0.6857
  357MOL0     C48126   5.960   0.789   4.622  0.3534 -0.4002  1.1693
  357MOL0     C48127   5.835   0.782   4.545 -0.7553 -0.5302 -1.0590
  357MOL0     H48128   5.639   1.099   4.868 -1.4572  2.2716  1.3911
  357MOL0     H48129   5.515   1.306   4.882 -1.6730  1.7353 -1.3880
  357MOL0     H48130   5.512   1.563   4.901 -2.6370  3.0124 -2.1575
  357MOL0     H48131   5.672   1.540   4.854  0.6408  0.9330 -0.5296
  357MOL0     H48132   5.605   1.777   4.889 -0.3128 -2.1022  1.3551
  357MOL0     H48133   5.500   1.780   4.739  1.0680  0.3679 -0.0175
  357MOL0     H48134   5.691   1.884   4.676  4.3490 -0.1731 -2.0217
  357MOL0     H48135   5.673   1.730   4.597 -3.4862 -1.1537  1.2585
  357MOL0     H48136   5.881   1.833   4.803  1.6722 -2.7226  1.1782
  357MOL0     H48137   5.842   1.653   4.796 -2.1490 -2.1658 -1.1229
  357MOL0     H48138   5.906   1.642   4.572  2.9211 -0.8754  0.9825
  357MOL0     H48139   5.948   1.816   4.561  0.5256 -0.5208 -1.4708
  357MOL0     H48140   6.147   1.697   4.581  1.9536 -0.1929  1.3809
  357MOL0     H48141   6.123   1.761   4.736 -1.7838 -0.7060  2.1781
  357MOL0     H48142   6.085   1.570   4.853  2.2493 -0.6368 -0.2334
  357MOL0     H48143   6.223   1.537   4.765 -0.4314 -0.6652  2.7883
  357MOL0     H48144   6.061   1.353   4.768 -1.0453  0.1236 -0.1666
  357MOL0     H48145   5.946   1.448   4.671 -0.5531  0.4364  1.4545
  357MOL0     H48146   5.993   1.505   4.425 -0.1879  0.1691  3.0961
  357MOL0     H48147   6.088   1.459   4.199 -1.5940 -0.5002  0.3447
  357MOL0     H48148   6.165   1.301   4.158  1.6790 -2.0777  3.9157
  357MOL0     H48149   5.952   1.194   4.235 -1.3731  0.5505 -0.7415
  357MOL0     H48150   5.881   1.359   4.221 -1.8158 -2.2002  3.3103
  357MOL0     H48151   6.024   1.200   3.994  0.0779  0.6107 -1.3331
  357MOL0     H48152   5.941   1.354   3.994  0.4485  0.3067  1.8097
  357MOL0     H48153   5.735   1.222   4.085 -0.3248 -0.3415 -0.5763
  357MOL0     H48154   5.819   1.072   4.050 -1.7864  0.8023  4.9112
  357MOL0     H48155   5.580   1.078   4.016  0.5266 -3.4924 -0.4045
  357MOL0     H48156   5.361   1.000   3.917  1.5136  0.4928  2.4176
  357MOL0     H48157   5.234   0.856   3.299  2.2444 -0.1424  3.5839
  357MOL0     H48158   5.002   0.840   3.186 -0.2674  0.5186 -0.5075
  357MOL0     H48159   4.623   1.028   3.355 -4.1964  0.8342 -1.4796
  357MOL0     H48160   4.720   1.142   3.261 -1.1321  0.3279 -0.1495
  357MOL0     H48161   4.629   1.000   3.048 -0.2854 -3.3129  0.4619
  357MOL0     H48162   4.554   0.898   3.158  2.9719 -0.9651 -2.3221
  357MOL0     H48163   4.433   1.095   3.267 -0.5922  4.9752  0.0534
  357MOL0     H48164   4.507   1.190   3.133  0.9697 -0.6771 -0.8433
  357MOL0     H48165   4.283   1.115   3.089 -2.1954 -3.5652  1.8765
  357MOL0     H48166   4.321   0.951   3.075 -2.1399  1.3746 -1.9557
  357MOL0     H48167   4.471   0.964   2.891 -1.5157 -0.7323 -1.1898
  357MOL0     H48168   4.484   1.138   2.896  0.7102 -0.8597 -1.5133
  357MOL0     H48169   4.253   0.956   2.815 -3.2281  0.2258  2.6921
  357MOL0     H48170   4.227   1.129   2.847  0.4203 -0.5141  1.7876
  357MOL0     H48171   4.441   1.013   2.669  0.3167  0.9172  0.1841
  357MOL0     H48172   4.429   1.183   2.687 -0.5269  0.6021  0.2282
  357MOL0     H48173   4.202   1.021   2.557 -2.1510  1.9583 -3.7092
  357MOL0     H48174   4.196   1.189   2.584  0.9543  2.3401 -1.0861
  357MOL0     H48175   4.834   1.087   3.487  0.3742  2.0204 -0.1427
  357MOL0     H48176   5.042   1.108   3.593  1.5856  0.7568 -0.3937
  357MOL0     H48177   5.506   1.092   3.524  0.7875 -3.8507  0.6874
  357MOL0     H48178   5.707   1.191   3.628 -2.5539  0.4835 -2.4439
  357MOL0     H48179   5.658   1.426   4.506 -0.2972  0.4010 -0.7307
  357MOL0     H48180   5.788   1.206   4.482  2.0803  1.2122  0.2247
  357MOL0     H48181   6.138   0.962   4.846  0.1515  0.7376 -1.0162
  357MOL0     H48182   6.281   0.782   4.825  1.7465 -0.2593 -1.1388
  357MOL0     H48183   6.297   0.617   4.478  1.5274 -0.6058 -0.4449
  357MOL0     H48184   6.285   0.456   4.530 -1.2370  0.0626 -0.6632
  357MOL0     H48185   6.500   0.660   4.564 -1.0970  0.3465 -1.8683
  357MOL0     H48186   6.513   0.513   4.502  1.9552 -1.2399  2.1782
  357MOL0     H48187   6.464   0.387   4.725  1.6045 -0.7968  4.8359
  357MOL0     H48188   6.505   0.539   4.803  0.8321  3.4844 -1.5840
  357MOL0     H48189   6.661   0.369   4.605 -1.3008  0.1391 -0.8671
  357MOL0     H48190   6.714   0.530   4.645  0.2216  1.0360 -0.4664
  357MOL0     H48191   6.776   0.293   4.998  0.5628 -0.9757 -1.1408
  357MOL0     H48192   6.015   0.589   4.563 -0.8684 -0.2185  0.9168
  357MOL0     H48193   5.747   0.803   4.606 -0.6694 -0.9484 -0.7850
  357MOL0     H48194   5.839   0.838   4.451 -2.4395 -1.8341 -1.9519
  357MOL0     H48195   5.813   0.686   4.497 -1.0994 -0.9238 -0.1376
  358MOL0     O48196  11.095   2.800   0.100  0.5957 -0.0589 -0.6212
  358MOL0     C48197  11.090   2.683   0.058 -0.0026  0.3986 -0.4635
  358MOL0     O48198  10.972   2.598   0.059  0.0910 -0.1563  0.1797
  358MOL0     C48199  10.851   2.636   0.109 -0.5906 -0.0867  0.5956
  358MOL0     C48200  10.749   2.535   0.130 -0.3524 -0.7129  1.2017
  358MOL0     C48201  10.617   2.575   0.156  0.6373 -0.7966  0.3787
  358MOL0     C48202  10.576   2.710   0.159 -0.4480  0.5295 -0.6760
  358MOL0     O48203  10.443   2.740   0.159  0.4235 -0.3111  0.4268
  358MOL0     C48204  10.398   2.719   0.298  0.7018  0.7179  0.0381
  358MOL0     C48205  10.246   2.707   0.304  0.3955  0.3024 -0.4507
  358MOL0     C48206  10.196   2.586   0.218 -1.1965 -0.4123  0.0273
  358MOL0     C48207  10.051   2.587   0.189 -0.1695  0.3366  0.5398
  358MOL0     C48208   9.953   2.578   0.298 -0.0570  0.5062 -0.4232
  358MOL0     C48209   9.972   2.484   0.412  0.9042 -1.2094  0.5117
  358MOL0     C48210   9.999   2.341   0.389  0.2279  0.2798  0.2462
  358MOL0     C48211   9.906   2.269   0.288 -0.3442  0.5376  0.0394
  358MOL0     N48212   9.961   2.131   0.253 -0.1646 -0.7520  0.3602
  358MOL0     C48213  10.062   2.115   0.162  0.2928  0.6456  0.9291
  358MOL0     C48214  10.080   1.979   0.159 -0.4990  1.3153 -0.3909
  358MOL0     C48215  10.158   1.898   0.060 -0.8474 -0.7963 -0.7213
  358MOL0     C48216  10.062   1.828  -0.032  0.2911  0.3343  0.5133
  358MOL0     C48217  10.137   1.747  -0.144  0.6231  0.0400 -0.0794
  358MOL0     C48218  10.224   1.642  -0.094 -0.9296  0.9820 -0.6646
  358MOL0     O48219  10.352   1.703  -0.056  1.0270 -0.3269  0.2458
  358MOL0     C48220  10.441   1.629   0.008  0.1903 -0.2546 -0.5612
  358MOL0     C48221  10.546   1.703   0.070 -0.3197  0.6951  0.3010
  358MOL0     C48222  10.651   1.639   0.127  0.5487 -0.6620 -0.0883
  358MOL0     C48223  10.667   1.497   0.120  1.0601 -0.1929  0.5009
  358MOL0     C48224  10.778   1.426   0.198 -0.7006  0.2168  0.6760
  358MOL0     O48225  10.864   1.500   0.277  0.1833  0.3094 -0.5867
  358MOL0     C48226  10.986   1.450   0.292 -0.0450  0.5530 -0.4681
  358MOL0     C48227  11.049   1.417   0.411 -0.4908 -0.6470 -0.3322
  358MOL0     C48228  11.180   1.375   0.416 -0.2434  1.0504 -0.3329
  358MOL0     C48229  11.254   1.380   0.296 -0.1140 -0.1918  0.3715
  358MOL0     O48230  11.391   1.367   0.299  0.5590  0.0068  0.7322
  358MOL0     C48231  11.470   1.460   0.372 -0.4150 -0.7975  0.4581
  358MOL0     C48232  11.606   1.464   0.298 -0.5667  0.3157  0.3952
  358MOL0     C48233  11.702   1.547   0.385 -0.4878 -0.2138 -0.1753
  358MOL0     C48234  11.679   1.696   0.362  0.1110  0.2906 -0.9804
  358MOL0     C48235  11.764   1.777   0.462 -0.2188 -0.2409  0.7105
  358MOL0     C48236  11.916   1.783   0.415 -0.1811 -0.1951  0.0098
  358MOL0     C48237  12.002   1.815   0.543 -0.3647  0.0275 -0.1520
  358MOL0     C48238  12.138   1.867   0.496 -0.8138 -0.0972  0.1056
  358MOL0    Cl48239  12.232   1.725   0.436 -0.0921  0.1962 -0.0677
  358MOL0     C48240  11.196   1.405   0.172  0.6205  0.5331 -0.2772
  358MOL0     C48241  11.059   1.448   0.173 -0.7132 -0.4182 -1.2870
  358MOL0     O48242  10.804   1.309   0.177  0.8162  0.2737 -0.2902
  358MOL0     C48243  10.557   1.430   0.052 -0.2576  0.3438  0.2714
  358MOL0     C48244  10.446   1.494   0.003 -0.4413  1.0291  0.2164
  358MOL0     N48245   9.995   1.916   0.253 -0.3101 -0.3320 -0.7877
  358MOL0     N48246   9.933   2.011   0.309 -0.8247 -0.8340  0.3400
  358MOL0     C48247  10.670   2.812   0.141 -0.4125  0.6671 -0.2018
  358MOL0     C48248  10.804   2.771   0.122  0.5099 -0.2141 -0.1947
  358MOL0     C48249  11.211   2.628   0.001  0.3550  0.0632 -0.3068
  358MOL0     C48250  11.301   2.567   0.081  0.8358 -0.2564 -0.4411
  358MOL0     C48251  11.414   2.518   0.025  0.1367 -0.1860  0.0429
  358MOL0     C48252  11.435   2.520  -0.114 -0.0501 -0.2928 -0.8093
  358MOL0     O48253  11.533   2.469  -0.186 -0.0196 -0.0579 -0.5445
  358MOL0     C48254  11.658   2.536  -0.185 -0.5734 -0.9726 -0.3024
  358MOL0     C48255  11.664   2.682  -0.249  0.8310  0.4018 -0.1274
  358MOL0     C48256  11.608   2.673  -0.388 -0.2983 -0.6877 -0.8763
  358MOL0     C48257  11.643   2.803  -0.470  0.1007 -0.2539 -0.2327
  358MOL0     C48258  11.564   2.808  -0.582  0.5819 -0.4534 -0.1223
  358MOL0     C48259  11.494   2.824  -0.682  0.4569 -0.6598  0.4520
  358MOL0     C48260  11.346   2.584  -0.196  0.2902 -0.7096 -0.2930
  358MOL0     C48261  11.230   2.645  -0.145 -1.6739 -0.0561 -0.2130
  358MOL0     C48262  11.132   2.719  -0.244 -0.2625  0.4183  0.0226
  358MOL0     H48263  10.771   2.429   0.129 -1.1585 -0.8945 -1.0347
  358MOL0     H48264  10.551   2.490   0.166  0.7006 -1.3042 -2.5935
  358MOL0     H48265  10.428   2.624   0.344 -0.2841 -0.3447 -1.4441
  358MOL0     H48266  10.430   2.803   0.361 -0.2458  1.7029 -0.7519
  358MOL0     H48267  10.202   2.798   0.261  1.7422  1.0653 -0.2811
  358MOL0     H48268  10.219   2.698   0.409  1.2837  0.3843 -0.2038
  358MOL0     H48269  10.230   2.493   0.264  3.0984 -0.7034 -3.0677
  358MOL0     H48270  10.249   2.600   0.123 -2.0317  2.1303 -0.1502
  358MOL0     H48271  10.029   2.676   0.130 -0.4835  1.6723  2.5933
  358MOL0     H48272  10.035   2.496   0.129 -2.4077  0.2286  1.2202
  358MOL0     H48273   9.918   2.678   0.325 -0.2961  0.4737 -0.6150
  358MOL0     H48274   9.871   2.540   0.237  0.2441  2.9628 -2.5387
  358MOL0     H48275  10.056   2.518   0.474  0.3238 -0.7756  1.0737
  358MOL0     H48276   9.885   2.491   0.478  1.4320 -0.8942  1.1822
  358MOL0     H48277  10.015   2.299   0.488  1.7959  1.7055  0.6533
  358MOL0     H48278  10.098   2.339   0.343  2.2472 -0.0281  4.2210
  358MOL0     H48279   9.806   2.255   0.331  0.2335  0.7723  1.5003
  358MOL0     H48280   9.894   2.337   0.202  2.8094 -1.3416 -2.1177
  358MOL0     H48281  10.108   2.188   0.097  0.8137  0.1121  0.6855
  358MOL0     H48282  10.230   1.969   0.017  0.5112 -0.8338  1.3353
  358MOL0     H48283  10.225   1.837   0.122  1.4266  3.4833  1.4978
  358MOL0     H48284   9.994   1.770   0.030 -1.3938  1.7349  0.0324
  358MOL0     H48285  10.003   1.904  -0.082 -0.4398 -1.7194 -1.9575
  358MOL0     H48286  10.196   1.810  -0.211 -3.2612  3.2442 -0.8816
  358MOL0     H48287  10.056   1.714  -0.211  0.4597  0.0285  0.1213
  358MOL0     H48288  10.248   1.562  -0.165 -2.2959 -0.5159  0.4666
  358MOL0     H48289  10.178   1.591  -0.009 -0.9108 -1.9962 -2.3086
  358MOL0     H48290  10.541   1.811   0.076  2.3956  0.8947  0.3516
  358MOL0     H48291  10.717   1.701   0.186  1.3743 -0.5333 -1.1274
  358MOL0     H48292  10.998   1.409   0.507  0.9078 -0.9017  0.4292
  358MOL0     H48293  11.229   1.344   0.507 -0.3078 -0.9210 -0.9159
  358MOL0     H48294  11.417   1.556   0.374 -0.7999 -1.0105  0.5220
  358MOL0     H48295  11.464   1.433   0.478  0.8201  2.9744  1.6900
  358MOL0     H48296  11.659   1.369   0.288 -0.5274  0.5216 -2.0838
  358MOL0     H48297  11.599   1.503   0.196  1.6829 -0.1666 -0.0081
  358MOL0     H48298  11.685   1.513   0.487 -2.2462  0.6871 -0.1265
  358MOL0     H48299  11.805   1.520   0.361 -0.3057  1.1457 -1.0312
  358MOL0     H48300  11.576   1.726   0.382  0.5207  0.8156  0.4905
  358MOL0     H48301  11.700   1.727   0.259 -0.9332 -0.8120 -1.5520
  358MOL0     H48302  11.753   1.748   0.567  2.4970  1.1559  1.4768
  358MOL0     H48303  11.734   1.882   0.463  2.0293  0.7201 -3.8723
  358MOL0     H48304  11.957   1.692   0.370 -1.2478 -2.2367  2.9089
  358MOL0     H48305  11.926   1.866   0.345  2.2355  0.5963  1.1932
  358MOL0     H48306  12.005   1.721   0.600 -1.2113 -0.2152 -0.4907
  358MOL0     H48307  11.962   1.894   0.607  1.0431  0.8552 -0.2601
  358MOL0     H48308  12.110   1.941   0.420 -3.9201 -0.9127  0.3215
  358MOL0     H48309  12.191   1.907   0.583  0.5018 -0.0938 -0.6707
  358MOL0     H48310  11.258   1.412   0.083 -1.7039  2.5340 -1.8612
  358MOL0     H48311  11.028   1.490   0.078  3.8960  0.2481 -2.7270
  358MOL0     H48312  10.549   1.322   0.060  0.7877  0.4093  3.3719
  358MOL0     H48313  10.358   1.437  -0.026 -0.9816  1.8905  0.1136
  358MOL0     H48314  10.640   2.916   0.146 -2.6764  0.0550 -0.1763
  358MOL0     H48315  10.871   2.848   0.084 -1.0757  0.7964 -1.0200
  358MOL0     H48316  11.287   2.560   0.189 -2.6189  0.9643 -0.6865
  358MOL0     H48317  11.491   2.486   0.094  2.3999  3.6325 -0.4326
  358MOL0     H48318  11.725   2.474  -0.245  1.5217  0.7038  0.1843
  358MOL0     H48319  11.701   2.547  -0.085  2.9897 -2.5982 -1.4967
  358MOL0     H48320  11.769   2.713  -0.244  1.2105 -0.9487  1.3425
  358MOL0     H48321  11.597   2.754  -0.201 -3.9036 -1.5205 -3.1301
  358MOL0     H48322  11.499   2.663  -0.387 -0.6260  1.9897 -2.4334
  358MOL0     H48323  11.664   2.598  -0.445  3.5285  2.2077 -1.2853
  358MOL0     H48324  11.625   2.893  -0.410  2.6882 -0.2991  0.7370
  358MOL0     H48325  11.751   2.811  -0.487  0.0414  2.0178  0.1640
  358MOL0     H48326  11.433   2.837  -0.769  1.6073  1.2160 -0.1448
  358MOL0     H48327  11.345   2.578  -0.305  2.6203  1.0628 -0.4747
  358MOL0     H48328  11.163   2.818  -0.278 -0.7885  0.1276 -1.3882
  358MOL0     H48329  11.138   2.662  -0.337 -1.0011 -0.6380  0.5899
  358MOL0     H48330  11.028   2.726  -0.208 -0.0350  1.9924  0.4328
  359MOL0     O48331   2.625   9.106  10.983  0.1164  0.7496 -0.5171
  359MOL0     C48332   2.599   9.004  11.055 -1.1790 -0.0178 -0.4941
  359MOL0     O48333   2.699   8.935  11.129  0.0923 -0.1961 -0.4922
  359MOL0     C48334   2.829   8.972  11.114  0.0200  1.0230 -0.3260
  359MOL0     C48335   2.901   8.946  10.996 -0.1693  0.3035  0.2475
  359MOL0     C48336   3.031   9.006  10.980 -0.2167  0.4774 -0.7180
  359MOL0     C48337   3.094   9.082  11.081  0.8283 -0.1741  1.4181
  359MOL0     O48338   3.215   9.149  11.061 -0.0264  0.5270  0.3346
  359MOL0     C48339   3.226   9.268  11.148 -0.0798 -0.2459  0.2877
  359MOL0     C48340   3.304   9.371  11.071 -0.2538 -0.0897  0.0574
  359MOL0     C48341   3.287   9.518  11.129  0.2364 -0.4232 -0.3772
  359MOL0     C48342   3.397   9.547  11.237 -0.2018  0.1857  0.0817
  359MOL0     C48343   3.532   9.609  11.185  0.0603  0.0111  1.9417
  359MOL0     C48344   3.631   9.653  11.294  0.3161  0.2472 -0.2753
  359MOL0     C48345   3.736   9.734  11.218  0.2806 -0.9583 -0.0894
  359MOL0     C48346   3.871   9.707  11.271  0.6676 -0.4208  0.4457
  359MOL0     N48347   3.882   9.803  11.380  0.3449 -0.0293 -1.0298
  359MOL0     C48348   3.837   9.776  11.511  1.0534  1.0728 -0.4083
  359MOL0     C48349   3.825   9.895  11.576  0.0199 -1.2108 -0.4512
  359MOL0     C48350   3.804   9.922  11.719 -0.0229  0.5654 -0.5192
  359MOL0     C48351   3.758   9.802  11.809  0.4415 -0.3309  0.9479
  359MOL0     C48352   3.610   9.808  11.829  0.2702  0.5990  0.6158
  359MOL0     C48353   3.518   9.766  11.708 -1.3083  0.0882  0.1065
  359MOL0     O48354   3.479   9.632  11.702 -0.6624  0.1750 -0.2063
  359MOL0     C48355   3.360   9.589  11.658  0.7532 -0.4125  0.2581
  359MOL0     C48356   3.251   9.673  11.638  0.0203  0.5364 -0.4332
  359MOL0     C48357   3.129   9.616  11.598 -0.9715 -0.4775 -0.1133
  359MOL0     C48358   3.111   9.482  11.564  0.0397  0.0844  0.0124
  359MOL0     C48359   2.989   9.425  11.509 -0.3850 -0.2509 -0.2898
  359MOL0     O48360   2.889   9.514  11.472  1.1169  0.6136  0.1499
  359MOL0     C48361   2.778   9.473  11.413  0.6511 -0.0672 -1.4511
  359MOL0     C48362   2.654   9.503  11.480  0.6531  0.2450 -0.2386
  359MOL0     C48363   2.529   9.455  11.431  0.6660  0.1253  0.2098
  359MOL0     C48364   2.519   9.365  11.325 -0.1171  0.1489  0.0822
  359MOL0     O48365   2.403   9.315  11.288 -0.0175 -0.6824 -0.6164
  359MOL0     C48366   2.354   9.348  11.154 -0.7283  0.0602  0.1404
  359MOL0     C48367   2.315   9.494  11.129 -0.3001 -1.1456 -1.1627
  359MOL0     C48368   2.248   9.514  10.989 -0.2188  0.0425 -0.2292
  359MOL0     C48369   2.287   9.645  10.914 -0.1499  0.8586 -0.0774
  359MOL0     C48370   2.215   9.652  10.778 -0.2394  0.0859  0.2022
  359MOL0     C48371   2.269   9.777  10.707  1.2418  0.3268 -0.9260
  359MOL0     C48372   2.417   9.769  10.676  0.0901 -0.2841  0.3428
  359MOL0     C48373   2.454   9.874  10.559 -0.0073 -0.2773 -0.5807
  359MOL0    Cl48374   2.433  10.050  10.627 -0.1690  0.0861 -0.2013
  359MOL0     C48375   2.643   9.335  11.266 -0.7556  0.9031  0.3543
  359MOL0     C48376   2.766   9.382  11.310 -0.0733  1.0921  0.8653
  359MOL0     O48377   2.978   9.307  11.489 -0.0381  0.2601 -0.0365
  359MOL0     C48378   3.215   9.403  11.594  0.4179  0.7672 -0.2266
  359MOL0     C48379   3.343   9.454  11.628  0.4630 -0.4880  1.2180
  359MOL0     N48380   3.873   9.999  11.485  0.3351  0.2366  0.3815
  359MOL0     N48381   3.906   9.940  11.368  0.1895  0.1581 -0.4023
  359MOL0     C48382   3.021   9.088  11.201  0.4051  0.4028 -0.1537
  359MOL0     C48383   2.888   9.036  11.218  0.2079 -1.0012  0.2058
  359MOL0     C48384   2.458   8.966  11.082 -0.0331  0.3759 -0.0846
  359MOL0     C48385   2.431   8.903  11.204  0.1922  0.4309  1.0113
  359MOL0     C48386   2.301   8.860  11.236  0.5801 -0.0402 -0.3774
  359MOL0     C48387   2.183   8.903  11.163 -0.9590 -0.2854  0.9964
  359MOL0     O48388   2.058   8.884  11.211  0.3846 -0.0181 -0.5043
  359MOL0     C48389   2.034   8.833  11.338  0.4568  1.1994 -0.0082
  359MOL0     C48390   1.876   8.837  11.362  0.2599 -0.3840 -0.6138
  359MOL0     C48391   1.796   8.739  11.260  0.9289 -0.1791 -0.6271
  359MOL0     C48392   1.661   8.793  11.212  0.1329  0.0329  0.1100
  359MOL0     C48393   1.552   8.801  11.314  0.0655 -0.4654  0.8865
  359MOL0     C48394   1.451   8.811  11.381  0.6454 -0.0969 -0.9278
  359MOL0     C48395   2.211   8.970  11.044 -0.3743  0.5288 -0.1602
  359MOL0     C48396   2.342   9.000  11.000 -0.3571 -0.4169  0.2942
  359MOL0     C48397   2.357   9.057  10.869  0.0837  0.3513  0.4322
  359MOL0     H48398   2.862   8.880  10.920  0.6576 -0.1615  0.2190
  359MOL0     H48399   3.091   9.007  10.890  1.3796  4.6986  0.1774
  359MOL0     H48400   3.131   9.315  11.174 -0.1078  0.5492 -1.1340
  359MOL0     H48401   3.289   9.243  11.234  0.8276 -1.4527 -0.6939
  359MOL0     H48402   3.266   9.369  10.969 -0.9589  3.2622  0.1370
  359MOL0     H48403   3.413   9.359  11.071  0.0649  2.4343  0.3909
  359MOL0     H48404   3.187   9.527  11.174 -0.2083 -1.2335 -1.1761
  359MOL0     H48405   3.292   9.593  11.050  2.2422  1.1567  1.1366
  359MOL0     H48406   3.360   9.632  11.295  0.8455  0.2022  0.7342
  359MOL0     H48407   3.418   9.459  11.297  0.3413  0.6301  0.5589
  359MOL0     H48408   3.573   9.538  11.113 -1.3578  0.8241  0.2568
  359MOL0     H48409   3.502   9.701  11.134 -0.3654  0.3450  2.7719
  359MOL0     H48410   3.576   9.719  11.362 -4.6613 -0.6252 -2.9914
  359MOL0     H48411   3.668   9.561  11.341 -1.8519 -0.7770 -0.4223
  359MOL0     H48412   3.719   9.842  11.228  0.1792 -1.0705  1.1573
  359MOL0     H48413   3.735   9.707  11.112  0.7744  1.2275 -0.7005
  359MOL0     H48414   3.883   9.600  11.293  2.4201  0.2293  3.1756
  359MOL0     H48415   3.942   9.742  11.195 -0.7089  2.5273  0.3658
  359MOL0     H48416   3.814   9.675  11.542 -3.2362  1.9918  0.1286
  359MOL0     H48417   3.893   9.973  11.757  2.6666 -2.0436 -2.8930
  359MOL0     H48418   3.736  10.007  11.729  0.0221  0.6992 -1.3095
  359MOL0     H48419   3.780   9.706  11.761  1.8507 -1.0574  2.9004
  359MOL0     H48420   3.799   9.800  11.910  0.8621 -2.1083  0.7723
  359MOL0     H48421   3.589   9.913  11.847  2.9452  1.2856  0.0845
  359MOL0     H48422   3.580   9.741  11.910 -2.2818  1.0251  0.1230
  359MOL0     H48423   3.558   9.787  11.608 -3.5303  2.2924 -0.4254
  359MOL0     H48424   3.426   9.824  11.708 -3.8803 -3.6248 -0.8477
  359MOL0     H48425   3.259   9.772  11.682  1.0224 -1.2181  3.7986
  359MOL0     H48426   3.041   9.678  11.581 -0.8105 -0.5835 -1.3758
  359MOL0     H48427   2.659   9.570  11.565  1.9941  3.0941 -2.3916
  359MOL0     H48428   2.438   9.469  11.488  2.2801  0.6409  2.7923
  359MOL0     H48429   2.429   9.315  11.082  1.7828  0.5612  2.3361
  359MOL0     H48430   2.273   9.277  11.140  0.0061 -1.0171  1.1827
  359MOL0     H48431   2.244   9.517  11.208  1.5134  0.5641  0.0738
  359MOL0     H48432   2.398   9.565  11.133 -1.3819  0.4531 -4.1357
  359MOL0     H48433   2.265   9.427  10.924  0.8410  2.2697 -3.1366
  359MOL0     H48434   2.138   9.518  10.987 -0.3887  0.0234 -5.7737
  359MOL0     H48435   2.395   9.640  10.895 -0.0982 -2.0389  0.5363
  359MOL0     H48436   2.265   9.719  10.991  0.9498 -0.3243  1.4318
  359MOL0     H48437   2.107   9.650  10.796  0.1612 -3.1405  3.4105
  359MOL0     H48438   2.249   9.575  10.708  1.4662 -0.0787  1.1555
  359MOL0     H48439   2.214   9.784  10.612  1.1015  0.1429 -0.8584
  359MOL0     H48440   2.250   9.866  10.768  1.0432 -0.9728  0.9792
  359MOL0     H48441   2.452   9.672  10.638  3.7772  0.3427  1.6889
  359MOL0     H48442   2.474   9.798  10.765 -1.3377  0.3511  1.0744
  359MOL0     H48443   2.557   9.866  10.522  0.7670  3.0255  0.5164
  359MOL0     H48444   2.381   9.867  10.479  0.9075  2.8351 -1.8313
  359MOL0     H48445   2.646   9.271  11.178  0.3175 -1.0101  1.7001
  359MOL0     H48446   2.860   9.354  11.265  0.4074  2.0496  1.2557
  359MOL0     H48447   3.213   9.298  11.567 -0.3256 -0.0542  2.6704
  359MOL0     H48448   3.435   9.397  11.636 -0.1023 -1.6362 -0.0662
  359MOL0     H48449   3.068   9.141  11.284 -1.4329  1.8951  0.0026
  359MOL0     H48450   2.829   9.076  11.299 -0.4261  2.5038 -1.7676
  359MOL0     H48451   2.520   8.883  11.262  0.6067  3.1114  1.4251
  359MOL0     H48452   2.286   8.811  11.332 -3.3104 -0.6115 -1.1090
  359MOL0     H48453   2.070   8.894  11.421  2.1157  1.7441 -1.0933
  359MOL0     H48454   2.056   8.727  11.354  0.3301  1.6262  3.8894
  359MOL0     H48455   1.840   8.940  11.356  0.8494 -0.1619 -0.3675
  359MOL0     H48456   1.865   8.796  11.463  0.6629  0.8000 -0.0743
  359MOL0     H48457   1.773   8.644  11.311 -0.7401  0.2239 -0.5524
  359MOL0     H48458   1.859   8.704  11.178  0.3646 -0.1738 -1.0712
  359MOL0     H48459   1.682   8.892  11.170  0.6305  0.7853  2.0445
  359MOL0     H48460   1.624   8.739  11.124 -3.1166  2.5489 -0.2541
  359MOL0     H48461   1.362   8.815  11.441  1.4734  1.1206  0.2779
  359MOL0     H48462   2.112   8.990  11.005 -1.3823  0.0020  1.9793
  359MOL0     H48463   2.449   9.034  10.815 -1.0268 -1.0376 -0.9406
  359MOL0     H48464   2.283   9.011  10.803  0.4128  0.9851 -0.3903
  359MOL0     H48465   2.333   9.164  10.858  1.6266  0.5689 -1.2668
  360MOL0     O48466  11.073   0.662   5.857  0.5282 -0.2163 -1.1426
  360MOL0     C48467  11.126   0.568   5.798  0.6152  0.0118 -0.5610
  360MOL0     O48468  11.090   0.510   5.671  0.0939 -0.1884 -0.8077
  360MOL0     C48469  10.969   0.541   5.615 -0.2406 -0.0072 -0.0390
  360MOL0     C48470  10.864   0.450   5.641 -0.8750 -0.2592 -0.3418
  360MOL0     C48471  10.739   0.495   5.607 -0.0490  0.5319 -0.0744
  360MOL0     C48472  10.718   0.612   5.533 -1.1863 -0.3898 -0.5656
  360MOL0     O48473  10.589   0.646   5.500 -0.2048 -0.4899 -0.1112
  360MOL0     C48474  10.501   0.669   5.618 -0.6988  0.4134 -0.3787
  360MOL0     C48475  10.358   0.695   5.567  0.0067 -0.0993 -0.2382
  360MOL0     C48476  10.305   0.563   5.502 -0.0734  1.1452 -0.4261
  360MOL0     C48477  10.160   0.593   5.458  0.1171 -0.5277  0.9956
  360MOL0     C48478  10.099   0.471   5.389 -0.7446  0.5837  0.7017
  360MOL0     C48479   9.960   0.512   5.337 -0.3045 -0.4693  0.4058
  360MOL0     C48480   9.874   0.403   5.271  1.0343  0.4621 -0.7344
  360MOL0     C48481   9.912   0.365   5.128 -0.2209 -0.0894 -0.1669
  360MOL0     N48482   9.824   0.273   5.062 -0.5716 -0.0760  0.3790
  360MOL0     C48483   9.767   0.161   5.114 -0.1306  0.3136  0.1850
  360MOL0     C48484   9.690   0.113   5.012 -0.1499 -0.6568  0.0981
  360MOL0     C48485   9.596   0.003   4.995  0.1477  0.0872 -0.2054
  360MOL0     C48486   9.477   0.040   4.901 -0.1183 -0.4784 -0.9549
  360MOL0     C48487   9.383  -0.089   4.880 -0.6615 -0.3043 -0.2357
  360MOL0     C48488   9.259  -0.065   4.791 -0.1042  0.2885  0.0995
  360MOL0     O48489   9.194   0.066   4.823 -0.0613 -0.1097 -0.5000
  360MOL0     C48490   9.108   0.132   4.736 -0.5610 -0.5848  0.7099
  360MOL0     C48491   9.064   0.257   4.772 -0.1454  0.0730 -0.5888
  360MOL0     C48492   8.960   0.317   4.697  0.1936 -0.2293  0.6272
  360MOL0     C48493   8.903   0.260   4.582 -0.2677  0.9528 -0.4383
  360MOL0     C48494   8.794   0.327   4.506  0.2668 -0.7609  1.0829
  360MOL0     O48495   8.726   0.242   4.425  0.8315 -0.5462  0.0201
  360MOL0     C48496   8.652   0.305   4.327  0.5743  0.2949 -0.0182
  360MOL0     C48497   8.689   0.418   4.249  0.5151 -0.0809  0.9555
  360MOL0     C48498   8.605   0.471   4.152  0.1751 -0.0145 -0.1664
  360MOL0     C48499   8.477   0.418   4.127 -0.3065  0.1560 -0.0988
  360MOL0     O48500   8.399   0.446   4.023  0.1678 -0.2528 -0.5332
  360MOL0     C48501   8.463   0.532   3.924  0.7675 -0.5101  0.6527
  360MOL0     C48502   8.391   0.509   3.790 -0.3977 -0.7530  0.4272
  360MOL0     C48503   8.230   0.516   3.805 -0.1743 -0.2600 -0.4664
  360MOL0     C48504   8.154   0.533   3.673 -0.0848  0.0481 -0.2439
  360MOL0     C48505   8.174   0.425   3.574  0.3870  0.1206  0.1531
  360MOL0     C48506   8.147   0.283   3.620  1.0474 -0.1906 -0.1256
  360MOL0     C48507   8.184   0.172   3.517  0.1720  0.1156 -1.0967
  360MOL0     C48508   8.132   0.037   3.557 -0.6096 -0.0106  0.3319
  360MOL0    Cl48509   8.183  -0.064   3.405 -0.3273  0.1597 -0.5854
  360MOL0     C48510   8.433   0.311   4.206 -0.0570  0.0812  0.1857
  360MOL0     C48511   8.517   0.260   4.313 -0.6027 -0.3166 -0.5035
  360MOL0     O48512   8.779   0.447   4.516  0.1811 -0.5413  0.0908
  360MOL0     C48513   8.947   0.133   4.552  0.4924 -0.3960  0.3992
  360MOL0     C48514   9.046   0.070   4.627  0.3826 -0.4613  0.4622
  360MOL0     N48515   9.717   0.187   4.899  0.5942 -0.0319  1.0353
  360MOL0     N48516   9.804   0.272   4.922 -0.4319  0.3440  0.0682
  360MOL0     C48517  10.827   0.692   5.512  0.3003 -0.1516  0.5876
  360MOL0     C48518  10.951   0.669   5.567  0.4056  0.5226  0.3853
  360MOL0     C48519  11.244   0.518   5.879  0.0356  0.3426  0.4942
  360MOL0     C48520  11.289   0.592   5.994  0.0368  0.3704  0.1566
  360MOL0     C48521  11.413   0.565   6.053  0.1101 -0.1985  0.4734
  360MOL0     C48522  11.487   0.457   6.010  0.5435  0.1136  0.0874
  360MOL0     O48523  11.610   0.441   6.073  0.1919  0.2654 -0.2585
  360MOL0     C48524  11.701   0.355   6.008 -0.2017  0.2219 -0.0221
  360MOL0     C48525  11.846   0.418   6.035  0.3797 -0.6921 -0.1091
  360MOL0     C48526  11.952   0.368   5.927  0.2103 -0.7029 -0.4318
  360MOL0     C48527  12.094   0.423   5.966  0.2542 -0.3249 -0.4832
  360MOL0     C48528  12.204   0.364   5.883  0.5404  0.7590 -0.6866
  360MOL0     C48529  12.294   0.309   5.822 -0.7111 -0.1666 -0.5381
  360MOL0     C48530  11.430   0.380   5.904 -0.8915  0.4321 -0.5529
  360MOL0     C48531  11.302   0.392   5.855  0.1024  0.4769  0.2203
  360MOL0     C48532  11.257   0.289   5.751 -0.0083  0.2619 -0.0566
  360MOL0     H48533  10.881   0.361   5.701 -1.5877  0.7996  1.4967
  360MOL0     H48534  10.656   0.428   5.630  0.0220  0.5105  0.1164
  360MOL0     H48535  10.506   0.592   5.695 -1.2667  3.2234  2.7282
  360MOL0     H48536  10.533   0.762   5.667 -0.6294  1.0238 -1.5524
  360MOL0     H48537  10.356   0.777   5.494  0.1702  0.6451  0.5814
  360MOL0     H48538  10.302   0.728   5.654  0.3103 -1.5326  0.5156
  360MOL0     H48539  10.295   0.483   5.577  3.1496 -0.1725 -1.2478
  360MOL0     H48540  10.358   0.515   5.420  0.9829 -2.7825  2.2771
  360MOL0     H48541  10.102   0.607   5.550 -1.8123  2.7420 -0.5682
  360MOL0     H48542  10.154   0.685   5.400  2.8247  0.6397  2.4122
  360MOL0     H48543  10.159   0.444   5.302  2.1505  0.7860  2.4884
  360MOL0     H48544  10.095   0.385   5.456 -2.8496  1.1786  1.4409
  360MOL0     H48545   9.898   0.559   5.414 -1.8303 -2.6970  0.6299
  360MOL0     H48546   9.974   0.599   5.273  1.1648  0.3368  1.7461
  360MOL0     H48547   9.768   0.428   5.271  0.3421 -2.0764 -2.9027
  360MOL0     H48548   9.862   0.306   5.321 -3.2264  0.1960 -1.8786
  360MOL0     H48549   9.873   0.453   5.076 -3.9508 -1.2378  0.3579
  360MOL0     H48550  10.018   0.350   5.106 -0.1069 -0.6719  0.7269
  360MOL0     H48551   9.789   0.111   5.208  0.8106  0.3014 -0.0368
  360MOL0     H48552   9.649  -0.079   4.945  3.8624  1.0926  1.7085
  360MOL0     H48553   9.554  -0.031   5.090  1.1626 -2.0554 -0.4745
  360MOL0     H48554   9.410   0.122   4.928  2.9058  2.6880 -2.2124
  360MOL0     H48555   9.518   0.075   4.806  0.7779  1.5032  0.0911
  360MOL0     H48556   9.358  -0.132   4.978  2.8119  0.9664  1.3799
  360MOL0     H48557   9.442  -0.170   4.836  0.1598 -0.9278  1.8666
  360MOL0     H48558   9.192  -0.146   4.820  0.0301 -0.4961 -1.6694
  360MOL0     H48559   9.288  -0.081   4.686 -0.8868 -0.1149 -0.0618
  360MOL0     H48560   9.123   0.308   4.848  2.5180 -1.9818 -1.1391
  360MOL0     H48561   8.928   0.414   4.735  4.1679  1.2755  0.6813
  360MOL0     H48562   8.790   0.456   4.262 -0.0475  2.9749 -2.0066
  360MOL0     H48563   8.624   0.573   4.121 -0.3153  0.2343  0.3396
  360MOL0     H48564   8.459   0.637   3.952 -4.3028 -0.7250  1.7384
  360MOL0     H48565   8.563   0.499   3.896 -0.2292 -1.2987 -2.3099
  360MOL0     H48566   8.425   0.578   3.713  0.5311  0.4684  1.8778
  360MOL0     H48567   8.418   0.411   3.749  2.8748  0.2686 -0.0890
  360MOL0     H48568   8.206   0.429   3.866 -0.4815  0.5037  0.5347
  360MOL0     H48569   8.204   0.601   3.869 -1.7791 -0.5912 -0.6415
  360MOL0     H48570   8.186   0.627   3.627  0.1915  2.1588  3.7904
  360MOL0     H48571   8.052   0.550   3.709  1.0343 -1.3268  4.1757
  360MOL0     H48572   8.275   0.415   3.534  0.6548 -1.7628  1.1693
  360MOL0     H48573   8.112   0.434   3.485 -2.0750  1.3404  1.8682
  360MOL0     H48574   8.195   0.271   3.717 -0.5885  1.8794  1.0375
  360MOL0     H48575   8.038   0.278   3.632  1.3287 -0.5923  3.2600
  360MOL0     H48576   8.292   0.165   3.503  0.2751  1.3117 -0.9491
  360MOL0     H48577   8.142   0.202   3.420  1.1189 -0.4069 -1.6892
  360MOL0     H48578   8.198   0.015   3.641  2.2600  0.3729 -1.6609
  360MOL0     H48579   8.026   0.025   3.581 -0.2232 -1.6180  1.3834
  360MOL0     H48580   8.334   0.267   4.202 -1.9126  3.9221 -0.0817
  360MOL0     H48581   8.476   0.186   4.382 -0.5320  0.4214  0.3566
  360MOL0     H48582   8.898   0.077   4.473 -0.1468  1.0977 -0.2961
  360MOL0     H48583   9.062  -0.037   4.614  1.5050 -0.0777 -1.8122
  360MOL0     H48584  10.819   0.784   5.455 -1.0983 -0.1602  0.7259
  360MOL0     H48585  11.033   0.740   5.571  1.8424 -1.0515 -0.0747
  360MOL0     H48586  11.228   0.674   6.032 -1.1788 -0.5047  0.1621
  360MOL0     H48587  11.444   0.634   6.131  2.0331 -1.4183  0.8751
  360MOL0     H48588  11.690   0.349   5.899  3.0330  0.6469 -0.4700
  360MOL0     H48589  11.696   0.258   6.058  0.5480  1.8361  3.5087
  360MOL0     H48590  11.879   0.401   6.138  0.8184  0.7618  0.0105
  360MOL0     H48591  11.841   0.527   6.028  2.0838 -0.5596  0.3367
  360MOL0     H48592  11.924   0.410   5.830 -0.4991  0.2205  0.1542
  360MOL0     H48593  11.949   0.259   5.913  0.0212 -0.4383 -2.7830
  360MOL0     H48594  12.104   0.532   5.964  1.3288 -0.4034 -0.2269
  360MOL0     H48595  12.109   0.396   6.071  2.8064  3.5286  0.3461
  360MOL0     H48596  12.368   0.267   5.759 -0.7926  0.9119 -1.3870
  360MOL0     H48597  11.489   0.290   5.888 -1.3059 -0.2582  1.4203
  360MOL0     H48598  11.298   0.191   5.776 -0.8606 -0.2264 -0.5175
  360MOL0     H48599  11.149   0.276   5.762  0.2344 -0.8530  1.3822
  360MOL0     H48600  11.277   0.313   5.646  1.3374  0.9498  0.3308
  361MOL0     O48601   0.320  11.358   7.508  0.4162  0.6304  0.3436
  361MOL0     C48602   0.326  11.349   7.384  1.4359 -0.2844 -0.8256
  361MOL0     O48603   0.218  11.346   7.305 -0.3626  0.1160  0.0836
  361MOL0     C48604   0.090  11.285   7.333 -0.0238 -0.1671  0.5414
  361MOL0     C48605  -0.019  11.334   7.271  0.4093 -0.4568  0.1425
  361MOL0     C48606  -0.141  11.305   7.328 -0.7302  0.0401  1.2478
  361MOL0     C48607  -0.159  11.204   7.419  0.4142 -0.4494  0.5059
  361MOL0     O48608  -0.277  11.170   7.471 -0.2249  0.5135 -0.5042
  361MOL0     C48609  -0.361  11.270   7.526 -0.6795 -0.2506  0.8614
  361MOL0     C48610  -0.415  11.225   7.665 -0.4408 -0.1790 -0.5686
  361MOL0     C48611  -0.310  11.246   7.781  0.3381  0.5387 -0.1469
  361MOL0     C48612  -0.402  11.254   7.905  0.2581 -0.1359  0.4608
  361MOL0     C48613  -0.338  11.270   8.045 -0.1000 -0.1087  0.1000
  361MOL0     C48614  -0.450  11.271   8.153 -0.1973  0.4659  0.2385
  361MOL0     C48615  -0.410  11.265   8.302 -0.2585  0.3328 -0.3280
  361MOL0     C48616  -0.337  11.392   8.359  0.0014  0.0016 -0.3702
  361MOL0     N48617  -0.415  11.515   8.349  0.7740 -0.1491 -0.3407
  361MOL0     C48618  -0.550  11.531   8.380 -0.3150  0.5778  0.3201
  361MOL0     C48619  -0.573  11.655   8.324 -0.0996  0.6575 -0.8568
  361MOL0     C48620  -0.702  11.725   8.294 -0.6279  0.0102  0.0962
  361MOL0     C48621  -0.816  11.670   8.387  0.3933  0.6609  0.6298
  361MOL0     C48622  -0.947  11.753   8.374 -0.2273 -0.1203  0.1022
  361MOL0     C48623  -0.924  11.900   8.422  0.2483  0.1352 -0.1690
  361MOL0     O48624  -1.043  11.978   8.452  0.1935 -0.2231 -0.0701
  361MOL0     C48625  -1.117  12.040   8.348  1.0146 -0.3644 -0.1042
  361MOL0     C48626  -1.113  12.012   8.211 -0.5504  0.2189  0.2435
  361MOL0     C48627  -1.202  12.063   8.113  0.4251 -0.0205 -0.9834
  361MOL0     C48628  -1.303  12.145   8.148  0.1942 -0.2001  0.2005
  361MOL0     C48629  -1.412  12.186   8.055 -0.5072 -0.2151  0.0007
  361MOL0     O48630  -1.524  12.243   8.091  0.2520  0.0438 -0.9078
  361MOL0     C48631  -1.599  12.311   7.994 -0.1833  0.2694 -1.1307
  361MOL0     C48632  -1.716  12.253   7.946  0.0759 -0.0362  0.3487
  361MOL0     C48633  -1.810  12.324   7.866  0.1585 -0.1120  0.6555
  361MOL0     C48634  -1.779  12.453   7.837 -0.0726 -0.4059  1.4655
  361MOL0     O48635  -1.871  12.520   7.754  0.2504  0.1794  0.1458
  361MOL0     C48636  -1.850  12.657   7.722  0.4202  0.9470 -0.2467
  361MOL0     C48637  -1.985  12.716   7.682  0.3640  0.5781 -0.1077
  361MOL0     C48638  -1.950  12.850   7.618  0.2205  0.1384  0.4387
  361MOL0     C48639  -2.081  12.909   7.570 -0.4958  0.6435  0.0647
  361MOL0     C48640  -2.116  12.869   7.421  0.8267 -0.3034 -0.5334
  361MOL0     C48641  -2.249  12.945   7.381 -1.2981 -0.0053  0.1585
  361MOL0     C48642  -2.260  13.103   7.361 -0.1893  0.9815  0.4793
  361MOL0     C48643  -2.411  13.152   7.389 -0.2126  0.0188  0.1123
  361MOL0    Cl48644  -2.452  13.132   7.558  0.5481  0.0366 -0.3345
  361MOL0     C48645  -1.656  12.510   7.875  0.0438 -0.5609 -0.1816
  361MOL0     C48646  -1.578  12.444   7.962  0.2187 -0.2944  0.9241
  361MOL0     O48647  -1.385  12.155   7.935  0.6272 -0.6545 -0.5313
  361MOL0     C48648  -1.316  12.183   8.283 -0.5958  0.5702  0.0009
  361MOL0     C48649  -1.229  12.125   8.384 -0.0049 -0.3354 -0.4657
  361MOL0     N48650  -0.457  11.704   8.266  0.2946 -0.0355 -0.0530
  361MOL0     N48651  -0.360  11.627   8.299  0.2617  0.1115  0.6883
  361MOL0     C48652  -0.046  11.129   7.454  0.5921  0.0975 -0.5459
  361MOL0     C48653   0.080  11.174   7.419  0.2180  1.1044  0.0646
  361MOL0     C48654   0.451  11.396   7.322 -0.8330  0.1514 -0.4267
  361MOL0     C48655   0.454  11.414   7.181  0.2188  0.0033  0.4373
  361MOL0     C48656   0.560  11.458   7.114 -0.4925 -0.3891  1.2954
  361MOL0     C48657   0.682  11.485   7.176  0.2808 -0.1390 -0.3609
  361MOL0     O48658   0.799  11.525   7.129 -0.7248 -0.5415 -0.2568
  361MOL0     C48659   0.813  11.592   6.998 -0.4584 -0.2715 -0.2054
  361MOL0     C48660   0.775  11.747   6.998 -0.2827 -0.1416  0.2434
  361MOL0     C48661   0.896  11.823   7.067  0.5516 -0.2048  0.5567
  361MOL0     C48662   1.012  11.847   6.968 -0.1212 -0.4635  0.7541
  361MOL0     C48663   1.103  11.948   7.021 -0.6629  0.9565  0.1146
  361MOL0     C48664   1.187  12.021   7.073 -0.0562  0.1901  0.3012
  361MOL0     C48665   0.686  11.461   7.315 -0.0195 -0.5231  0.0802
  361MOL0     C48666   0.574  11.414   7.393  0.6515 -0.1448  0.7019
  361MOL0     C48667   0.603  11.394   7.549 -0.0473 -1.0200 -0.2109
  361MOL0     H48668  -0.006  11.423   7.210 -0.2260  1.5412  2.7489
  361MOL0     H48669  -0.219  11.365   7.283  0.0276 -0.1323 -0.3447
  361MOL0     H48670  -0.304  11.359   7.557 -0.8450 -0.0438  0.5762
  361MOL0     H48671  -0.448  11.286   7.461  0.1496 -2.6231 -0.9628
  361MOL0     H48672  -0.435  11.118   7.655 -0.2356 -0.0910 -2.4262
  361MOL0     H48673  -0.504  11.285   7.680  0.2986  0.7217  0.3177
  361MOL0     H48674  -0.259  11.342   7.770  0.9803  0.5720  2.3402
  361MOL0     H48675  -0.236  11.166   7.785  1.8476  1.8103 -1.4031
  361MOL0     H48676  -0.456  11.350   7.899 -0.4032 -0.5208  0.1527
  361MOL0     H48677  -0.474  11.173   7.897  0.3843 -0.0965 -1.8365
  361MOL0     H48678  -0.258  11.197   8.060 -0.8351 -0.5462  2.2236
  361MOL0     H48679  -0.283  11.365   8.055 -0.5453  0.0662  1.0798
  361MOL0     H48680  -0.503  11.365   8.136 -1.3013  0.3086  2.4441
  361MOL0     H48681  -0.521  11.191   8.130 -1.1544  2.2971 -4.1106
  361MOL0     H48682  -0.348  11.175   8.312 -0.4546  0.3664  1.6248
  361MOL0     H48683  -0.503  11.262   8.360 -0.3142  1.4934 -0.3376
  361MOL0     H48684  -0.318  11.374   8.465 -2.0813 -1.6176 -0.2145
  361MOL0     H48685  -0.240  11.409   8.310  1.6662  0.0789  2.6835
  361MOL0     H48686  -0.618  11.449   8.401 -0.2730  0.2671 -0.7015
  361MOL0     H48687  -0.693  11.831   8.318  0.7637  0.1505 -0.9178
  361MOL0     H48688  -0.720  11.708   8.187  0.6459 -3.0291  0.2551
  361MOL0     H48689  -0.836  11.568   8.353 -1.2662  1.1310  0.1468
  361MOL0     H48690  -0.785  11.679   8.491 -1.8902  1.5806  1.2776
  361MOL0     H48691  -1.018  11.693   8.432 -1.1160 -1.2228 -2.0114
  361MOL0     H48692  -0.988  11.760   8.273  0.5628 -0.7641 -0.2676
  361MOL0     H48693  -0.874  11.957   8.344 -0.2321  1.1905  0.2643
  361MOL0     H48694  -0.857  11.898   8.509 -1.0467 -0.4898  0.8499
  361MOL0     H48695  -1.031  11.949   8.177  0.1916  1.7677 -0.9687
  361MOL0     H48696  -1.193  12.015   8.016  2.9817 -1.2781 -0.2179
  361MOL0     H48697  -1.728  12.147   7.964  2.1663  0.1212  3.3439
  361MOL0     H48698  -1.896  12.297   7.805 -0.0431  3.3560 -0.7885
  361MOL0     H48699  -1.823  12.695   7.821  0.3458 -2.2720  1.1474
  361MOL0     H48700  -1.771  12.664   7.647  1.2506  0.0599  0.5129
  361MOL0     H48701  -2.033  12.644   7.615  0.5688 -0.2562  0.6205
  361MOL0     H48702  -2.052  12.728   7.769  1.6689 -2.2280  1.4260
  361MOL0     H48703  -1.909  12.918   7.694 -0.2539 -0.4808  1.2692
  361MOL0     H48704  -1.882  12.853   7.532 -0.7115 -0.9190 -0.3574
  361MOL0     H48705  -2.066  13.017   7.573 -0.0365  0.6688 -1.8128
  361MOL0     H48706  -2.156  12.883   7.645 -0.9621  1.7797  0.0080
  361MOL0     H48707  -2.135  12.762   7.414  2.6688 -0.6094 -1.1995
  361MOL0     H48708  -2.037  12.896   7.351 -2.2293 -1.8351 -4.9958
  361MOL0     H48709  -2.271  12.897   7.284 -0.4789  1.4361 -0.7652
  361MOL0     H48710  -2.323  12.910   7.454  0.0511 -2.6815  0.3785
  361MOL0     H48711  -2.215  13.132   7.265  0.1118  2.1533  0.9492
  361MOL0     H48712  -2.188  13.158   7.423 -0.3588  3.0442 -1.0314
  361MOL0     H48713  -2.416  13.260   7.375 -1.3751 -0.1031 -0.6314
  361MOL0     H48714  -2.465  13.098   7.309  1.1138 -0.8367 -0.2453
  361MOL0     H48715  -1.616  12.606   7.845 -0.8048  0.3908  1.6157
  361MOL0     H48716  -1.491  12.502   7.994 -1.6347  2.8554  0.7234
  361MOL0     H48717  -1.402  12.249   8.295 -2.1012 -1.1175 -1.0080
  361MOL0     H48718  -1.247  12.150   8.488  3.4862  2.4174 -0.3506
  361MOL0     H48719  -0.062  11.039   7.512  1.0309  1.0400  1.1227
  361MOL0     H48720   0.171  11.132   7.460  0.9597  0.8658 -1.7255
  361MOL0     H48721   0.361  11.407   7.125  0.2381 -1.4824  0.5548
  361MOL0     H48722   0.550  11.477   7.008 -4.7299  3.2201  2.0436
  361MOL0     H48723   0.739  11.543   6.934 -1.0870 -1.6632  1.5064
  361MOL0     H48724   0.919  11.584   6.972  0.1550  2.0358  1.2763
  361MOL0     H48725   0.680  11.768   7.049 -0.7373  1.1006 -1.0431
  361MOL0     H48726   0.766  11.778   6.894 -1.1182 -2.0843 -0.3111
  361MOL0     H48727   0.935  11.775   7.157  0.2881  1.5804  1.6720
  361MOL0     H48728   0.861  11.918   7.108  0.0229 -1.0794  2.2328
  361MOL0     H48729   1.067  11.752   6.963 -0.6403 -0.7161 -3.1623
  361MOL0     H48730   0.989  11.871   6.864 -0.8548 -2.2935  0.4577
  361MOL0     H48731   1.271  12.068   7.120  0.3169 -1.1164  0.9920
  361MOL0     H48732   0.774  11.486   7.373 -1.3168  0.3587  1.7444
  361MOL0     H48733   0.669  11.476   7.580 -0.1088 -0.5897 -1.2016
  361MOL0     H48734   0.514  11.395   7.612 -1.1684 -2.5962 -1.6913
  361MOL0     H48735   0.666  11.309   7.577  1.4626  0.4709  1.1842
  362MOL0     O48736  10.884  10.301   9.790  0.0064 -0.0012  0.2876
  362MOL0     C48737  10.998  10.295   9.755  0.2988 -1.0354  0.2837
  362MOL0     O48738  11.099  10.362   9.817  0.1606  0.6126  0.3483
  362MOL0     C48739  11.081  10.458   9.907 -1.2016 -0.7327  0.7952
  362MOL0     C48740  11.120  10.433  10.046 -0.5238  0.0109  0.0944
  362MOL0     C48741  11.114  10.528  10.147  0.0909 -0.0515  0.1590
  362MOL0     C48742  11.068  10.655  10.119  0.2143  0.5459 -0.3925
  362MOL0     O48743  11.043  10.729  10.235 -0.1247 -0.2237 -0.1945
  362MOL0     C48744  11.013  10.865  10.234 -0.2221 -0.4825  0.1885
  362MOL0     C48745  11.076  10.904  10.361  0.5571 -0.9492  0.4307
  362MOL0     C48746  11.052  11.057  10.387  0.3498 -0.2098  0.1843
  362MOL0     C48747  11.136  11.156  10.303 -0.1779 -0.2066  0.6239
  362MOL0     C48748  11.069  11.294  10.298 -0.3939  0.4078  0.4593
  362MOL0     C48749  11.156  11.377  10.202  0.2903 -0.4987 -1.2720
  362MOL0     C48750  11.092  11.509  10.171  1.2281 -0.8663  0.6932
  362MOL0     C48751  11.202  11.602  10.108  1.0394  0.4200 -0.8054
  362MOL0     N48752  11.157  11.740  10.118 -0.0038  0.3857 -1.1018
  362MOL0     C48753  11.058  11.794  10.034  0.1346 -0.1412 -0.4927
  362MOL0     C48754  11.044  11.920  10.083  1.2420  1.1448 -0.2625
  362MOL0     C48755  10.942  12.010  10.020  0.4823 -0.2163 -0.8331
  362MOL0     C48756  10.935  12.148  10.077  0.1896 -0.0242 -0.0403
  362MOL0     C48757  11.067  12.219  10.075 -0.4008  0.1955 -0.0043
  362MOL0     C48758  11.039  12.367  10.108 -0.4199  0.0019  0.1628
  362MOL0     O48759  11.156  12.444  10.094 -0.5769 -0.4863 -0.3488
  362MOL0     C48760  11.266  12.404  10.168  0.0435 -0.4338 -1.0084
  362MOL0     C48761  11.267  12.334  10.289  0.1983 -0.0359  0.8840
  362MOL0     C48762  11.384  12.326  10.366  0.5338  0.0451 -0.5700
  362MOL0     C48763  11.502  12.397  10.333 -1.1821 -0.7920 -0.5391
  362MOL0     C48764  11.625  12.408  10.416  0.4742  0.4782  0.3987
  362MOL0     O48765  11.690  12.527  10.406 -0.6511  0.3343 -0.0472
  362MOL0     C48766  11.814  12.546  10.480  1.2952  0.0156 -1.0308
  362MOL0     C48767  11.924  12.449  10.482  1.2300 -0.6568 -0.3923
  362MOL0     C48768  12.035  12.476  10.565  0.1865 -0.2074 -1.0829
  362MOL0     C48769  12.045  12.600  10.636 -0.9607 -0.5663 -0.0803
  362MOL0     O48770  12.151  12.637  10.715  0.4643 -0.0443 -0.6880
  362MOL0     C48771  12.280  12.574  10.711 -0.3783  1.1294  0.3835
  362MOL0     C48772  12.290  12.447  10.796  0.0180  0.5207  0.1420
  362MOL0     C48773  12.253  12.473  10.938  0.5951  0.8660 -0.7494
  362MOL0     C48774  12.298  12.363  11.038  0.7803 -0.5163 -0.6098
  362MOL0     C48775  12.271  12.407  11.183 -0.3397 -0.4484 -0.1106
  362MOL0     C48776  12.390  12.485  11.253  0.4269  0.1643  0.6054
  362MOL0     C48777  12.459  12.400  11.357 -0.4406  0.4056 -0.4224
  362MOL0     C48778  12.576  12.471  11.428 -0.0397  0.8096  0.7878
  362MOL0    Cl48779  12.511  12.589  11.542  0.2251 -0.1459 -0.4419
  362MOL0     C48780  11.947  12.690  10.619  0.5649  0.0797 -0.3083
  362MOL0     C48781  11.829  12.666  10.550  0.5659 -0.3628  0.3360
  362MOL0     O48782  11.657  12.314  10.486 -0.2263 -0.3541 -0.4143
  362MOL0     C48783  11.499  12.474  10.213 -0.1399 -0.3461  0.1394
  362MOL0     C48784  11.379  12.477  10.140  0.9425  0.6409 -0.4674
  362MOL0     N48785  11.114  11.937  10.203 -0.1302 -0.6421 -1.0145
  362MOL0     N48786  11.185  11.825  10.224  0.3704  0.0495 -0.2247
  362MOL0     C48787  11.024  10.684   9.986 -0.3016 -0.1592 -0.2680
  362MOL0     C48788  11.036  10.591   9.875  0.0540 -0.1569  0.0999
  362MOL0     C48789  11.038  10.245   9.621  0.3091 -0.5544  0.1659
  362MOL0     C48790  11.172  10.215   9.584  0.2440 -0.7214 -0.2271
  362MOL0     C48791  11.206  10.172   9.455 -0.8243 -0.5845 -0.6837
  362MOL0     C48792  11.112  10.144   9.366  0.2105 -0.2341 -0.7022
  362MOL0     O48793  11.133  10.078   9.248 -0.2586 -0.9317  0.0964
  362MOL0     C48794  11.228   9.978   9.230  0.1234 -0.5937 -0.2543
  362MOL0     C48795  11.192   9.853   9.147 -0.1245 -0.1978 -0.3118
  362MOL0     C48796  11.149   9.901   9.012 -0.1084 -0.8643 -0.1997
  362MOL0     C48797  11.128   9.787   8.912  0.0824  0.0483  0.1652
  362MOL0     C48798  11.245   9.703   8.898  1.4558  0.5893  0.5305
  362MOL0     C48799  11.319   9.625   8.872 -0.2185 -0.3435  0.3526
  362MOL0     C48800  10.979  10.183   9.392  0.0252 -0.1594  0.1779
  362MOL0     C48801  10.935  10.225   9.520  1.0176  0.4871 -0.6140
  362MOL0     C48802  10.790  10.228   9.526  1.4884  0.7041  0.0542
  362MOL0     H48803  11.162  10.340  10.082  3.0264  1.5412  0.2577
  362MOL0     H48804  11.143  10.505  10.249 -1.0742  0.8770  0.7254
  362MOL0     H48805  11.057  10.919  10.150  0.1337  0.5833  1.0284
  362MOL0     H48806  10.905  10.882  10.234 -0.4919 -2.0393  0.2545
  362MOL0     H48807  11.183  10.884  10.353  0.7707  0.2348  0.0047
  362MOL0     H48808  11.037  10.853  10.449  3.5300 -4.3773 -0.0266
  362MOL0     H48809  11.075  11.078  10.492 -2.7670 -0.5214  1.0211
  362MOL0     H48810  10.945  11.079  10.381  0.3960  0.2169  0.8368
  362MOL0     H48811  11.238  11.171  10.337 -0.2793 -0.2345  0.9411
  362MOL0     H48812  11.150  11.108  10.206 -2.4067 -1.2003  0.7235
  362MOL0     H48813  10.968  11.284  10.256  0.6346  1.6734 -2.6527
  362MOL0     H48814  11.049  11.335  10.397 -3.3359 -0.2522  0.2298
  362MOL0     H48815  11.244  11.393  10.264 -1.0470 -1.1595  0.8958
  362MOL0     H48816  11.180  11.323  10.110 -1.7906 -1.6732 -1.1881
  362MOL0     H48817  11.047  11.568  10.251 -1.4395  0.9128 -1.9194
  362MOL0     H48818  11.005  11.492  10.106  0.9875  0.4134  0.6518
  362MOL0     H48819  11.302  11.592  10.151  0.1633 -0.4471  1.1560
  362MOL0     H48820  11.216  11.570  10.005  2.3119 -1.5905 -0.0832
  362MOL0     H48821  11.000  11.741   9.959 -0.7070 -2.2130  1.4962
  362MOL0     H48822  10.950  12.021   9.911 -3.3880  0.9837 -1.1392
  362MOL0     H48823  10.847  11.958  10.034  0.3912  0.7242  3.3947
  362MOL0     H48824  10.851  12.204  10.034 -3.1654 -1.9080  3.4428
  362MOL0     H48825  10.919  12.133  10.184 -0.2962 -3.9893 -0.5242
  362MOL0     H48826  11.109  12.213   9.974  1.6934 -1.6030  0.8821
  362MOL0     H48827  11.143  12.180  10.144 -2.8123 -1.2986  1.9666
  362MOL0     H48828  11.003  12.360  10.211  0.0410 -1.2600  0.2602
  362MOL0     H48829  10.958  12.405  10.045 -1.6631 -0.2140  1.5802
  362MOL0     H48830  11.183  12.272  10.319 -2.2712  2.2367 -0.7664
  362MOL0     H48831  11.374  12.267  10.457 -3.3939  0.7719 -0.3508
  362MOL0     H48832  11.917  12.360  10.420 -4.6446 -1.1442  0.4588
  362MOL0     H48833  12.120  12.408  10.568  0.6108  0.3476  0.6702
  362MOL0     H48834  12.315  12.541  10.612 -0.8298 -0.6943  0.7926
  362MOL0     H48835  12.357  12.639  10.752  3.1367 -3.9307  2.8878
  362MOL0     H48836  12.228  12.366  10.759  1.1041  1.2508 -3.6594
  362MOL0     H48837  12.394  12.416  10.804 -0.8585 -2.2814  3.7211
  362MOL0     H48838  12.286  12.569  10.979 -1.0079  0.7520  0.8930
  362MOL0     H48839  12.144  12.471  10.939  0.6041 -0.7817 -0.8703
  362MOL0     H48840  12.405  12.344  11.025  1.0821 -2.1018  3.0427
  362MOL0     H48841  12.244  12.270  11.019  2.0441 -0.9035 -2.6735
  362MOL0     H48842  12.238  12.324  11.246  3.3077 -0.4288  2.0842
  362MOL0     H48843  12.189  12.479  11.179  0.7747  0.8564 -0.2068
  362MOL0     H48844  12.469  12.524  11.189 -0.9164  2.9613  0.4752
  362MOL0     H48845  12.339  12.574  11.290  0.2068 -0.3419  1.5574
  362MOL0     H48846  12.505  12.312  11.311 -0.6512 -0.5016  1.0011
  362MOL0     H48847  12.386  12.369  11.433 -1.2735 -1.1895 -1.7817
  362MOL0     H48848  12.635  12.403  11.490 -1.5544 -1.8509 -0.4857
  362MOL0     H48849  12.643  12.513  11.353 -2.3829  0.8930 -1.4018
  362MOL0     H48850  11.969  12.789  10.658 -1.0859  0.6257 -0.6634
  362MOL0     H48851  11.747  12.738  10.542  0.4906 -0.6179 -1.8293
  362MOL0     H48852  11.590  12.522  10.181 -0.4946 -0.5249 -1.2081
  362MOL0     H48853  11.381  12.540  10.052  0.7332 -0.2702 -1.1422
  362MOL0     H48854  10.991  10.787   9.973 -0.4028 -0.2015 -0.3367
  362MOL0     H48855  11.006  10.624   9.776 -0.2531  0.1552  0.2922
  362MOL0     H48856  11.250  10.242   9.655  1.6857 -1.6470 -1.4111
  362MOL0     H48857  11.309  10.157   9.422 -0.2451  0.5002  0.5276
  362MOL0     H48858  11.254   9.941   9.330  0.6321 -3.5938 -1.4021
  362MOL0     H48859  11.322  10.024   9.196  1.5274 -3.6020 -0.7672
  362MOL0     H48860  11.107   9.806   9.197  2.2720 -3.0788  1.3625
  362MOL0     H48861  11.269   9.776   9.154 -1.4199 -1.5292 -0.3223
  362MOL0     H48862  11.219   9.975   8.973 -0.5101 -1.9860 -3.3305
  362MOL0     H48863  11.051   9.948   9.029 -0.7889 -2.7705  1.6743
  362MOL0     H48864  11.041   9.733   8.952 -2.2516  2.9311 -0.6699
  362MOL0     H48865  11.081   9.829   8.822 -0.5511  0.2532  0.5796
  362MOL0     H48866  11.403   9.560   8.859  0.6648  0.9401 -0.5996
  362MOL0     H48867  10.902  10.161   9.318 -1.7655  2.7062  1.0197
  362MOL0     H48868  10.736  10.150   9.470 -2.8797  0.9191  3.4021
  362MOL0     H48869  10.739  10.214   9.622 -0.6962  2.0833 -0.8155
  362MOL0     H48870  10.756  10.328   9.497 -0.4083  0.4283  1.1577
  363MOL0     O48871   0.581   3.169   1.346  0.1965 -0.2747  0.0052
  363MOL0     C48872   0.632   3.094   1.271  0.5539  0.3590  0.1273
  363MOL0     O48873   0.683   2.971   1.301  0.2220 -0.4911 -0.2126
  363MOL0     C48874   0.657   2.922   1.422  0.2703 -0.2102 -1.1790
  363MOL0     C48875   0.739   2.951   1.540  0.5542 -0.1774  0.3563
  363MOL0     C48876   0.709   2.896   1.664 -0.9864 -0.3766  0.0577
  363MOL0     C48877   0.595   2.815   1.673  1.0649  0.2413  0.4947
  363MOL0     O48878   0.554   2.770   1.793 -0.8645 -0.1923  0.0356
  363MOL0     C48879   0.560   2.630   1.795 -0.4569 -0.0561  0.2035
  363MOL0     C48880   0.570   2.573   1.938 -0.7400  0.0351  0.4063
  363MOL0     C48881   0.475   2.643   2.037  0.7640 -0.1682  0.2201
  363MOL0     C48882   0.328   2.625   1.996  0.1780  0.6014  0.5496
  363MOL0     C48883   0.235   2.679   2.105 -0.5858  0.2889 -1.0223
  363MOL0     C48884   0.088   2.691   2.047  0.4437  0.6952  0.2754
  363MOL0     C48885  -0.008   2.758   2.149 -1.0287 -0.5859  0.3821
  363MOL0     C48886  -0.131   2.807   2.079 -0.7450 -0.2227  0.5497
  363MOL0     N48887  -0.225   2.872   2.173  0.0286 -0.6081  0.1005
  363MOL0     C48888  -0.255   3.007   2.195  0.4662  0.2828  0.5620
  363MOL0     C48889  -0.372   2.999   2.269  0.3147 -0.1175  0.2289
  363MOL0     C48890  -0.427   3.127   2.315  0.8395  0.6555  0.0204
  363MOL0     C48891  -0.564   3.128   2.370 -0.5989 -0.1526 -0.3449
  363MOL0     C48892  -0.625   3.271   2.382  0.5217 -1.1335 -0.1420
  363MOL0     C48893  -0.537   3.369   2.455  0.2194  0.2664  0.2949
  363MOL0     O48894  -0.520   3.316   2.592 -0.1343 -0.8624  0.3068
  363MOL0     C48895  -0.437   3.380   2.677 -0.5206 -0.0582 -0.0304
  363MOL0     C48896  -0.354   3.481   2.633  0.7235 -0.0978 -0.0612
  363MOL0     C48897  -0.258   3.550   2.717  0.6321 -0.2671  0.2407
  363MOL0     C48898  -0.238   3.506   2.850 -0.3223  0.7002  0.4687
  363MOL0     C48899  -0.138   3.570   2.930 -0.8636 -0.6688  0.1945
  363MOL0     O48900  -0.071   3.686   2.886 -0.2570  0.0688 -0.0284
  363MOL0     C48901   0.013   3.760   2.964 -0.1515 -0.7130  0.5709
  363MOL0     C48902   0.003   3.770   3.108  0.0038  1.0535 -1.0018
  363MOL0     C48903   0.091   3.844   3.178 -0.2203 -0.0363  0.1930
  363MOL0     C48904   0.204   3.896   3.113 -0.6949 -0.6194  0.2673
  363MOL0     O48905   0.289   3.976   3.185 -0.2076 -0.8177  0.2191
  363MOL0     C48906   0.356   4.080   3.118 -0.5407 -0.1770  0.3004
  363MOL0     C48907   0.465   4.149   3.194  0.3115  0.4017 -0.3713
  363MOL0     C48908   0.420   4.193   3.336 -0.5368  0.5244 -0.2007
  363MOL0     C48909   0.512   4.300   3.403  0.2415 -0.2345  0.2308
  363MOL0     C48910   0.651   4.257   3.426 -0.4137  0.4816  0.5495
  363MOL0     C48911   0.732   4.355   3.491  0.3920  0.3474  0.3023
  363MOL0     C48912   0.720   4.352   3.644 -0.3702  0.2908  0.9765
  363MOL0     C48913   0.796   4.476   3.702 -0.0908  0.7312 -0.1863
  363MOL0    Cl48914   0.972   4.461   3.670  0.3864  0.1514 -0.0780
  363MOL0     C48915   0.225   3.873   2.973 -0.1116  0.5962 -0.2789
  363MOL0     C48916   0.122   3.813   2.896 -0.1552  0.0403 -0.3711
  363MOL0     O48917  -0.121   3.520   3.042 -0.6394 -0.3782 -0.8153
  363MOL0     C48918  -0.304   3.394   2.889  1.5143  0.0151  0.3969
  363MOL0     C48919  -0.404   3.337   2.806 -0.0844 -0.0127  0.7513
  363MOL0     N48920  -0.397   2.864   2.290 -1.8651  0.6321 -0.4896
  363MOL0     N48921  -0.312   2.790   2.238  0.0930 -0.1631 -0.5377
  363MOL0     C48922   0.513   2.788   1.562 -0.1906  0.1352 -0.3236
  363MOL0     C48923   0.549   2.832   1.438  0.6435  0.1247  0.9435
  363MOL0     C48924   0.638   3.137   1.130 -0.0692  0.1734 -1.0875
  363MOL0     C48925   0.646   3.280   1.119 -0.3136  1.7244 -0.1554
  363MOL0     C48926   0.668   3.338   0.998  0.9303 -0.2962  0.1149
  363MOL0     C48927   0.653   3.263   0.884  0.7922  0.1932  1.1610
  363MOL0     O48928   0.640   3.339   0.772  0.7045  0.1214  0.2345
  363MOL0     C48929   0.623   3.288   0.636  0.2396 -0.1274  0.3307
  363MOL0     C48930   0.742   3.337   0.557  0.4300 -1.0232 -0.3543
  363MOL0     C48931   0.873   3.259   0.596  0.3228 -0.2358  0.8833
  363MOL0     C48932   0.988   3.264   0.493 -0.5994 -0.0612  0.4413
  363MOL0     C48933   1.100   3.197   0.558  0.9150 -0.0455 -0.1340
  363MOL0     C48934   1.197   3.159   0.625 -1.2566  0.2073  0.4364
  363MOL0     C48935   0.650   3.126   0.891 -0.8777 -0.2673 -0.3402
  363MOL0     C48936   0.649   3.058   1.010 -0.4768 -0.5344  0.2360
  363MOL0     C48937   0.647   2.904   1.001  0.0338 -0.8071  0.1545
  363MOL0     H48938   0.835   3.002   1.544 -0.3244  1.4816  2.2950
  363MOL0     H48939   0.773   2.903   1.751 -1.4318 -1.2686  0.4726
  363MOL0     H48940   0.474   2.584   1.745 -0.0672  0.0196 -0.5560
  363MOL0     H48941   0.652   2.601   1.744  0.9574  1.5048  1.7432
  363MOL0     H48942   0.669   2.571   1.985  0.1007 -0.5871 -1.2928
  363MOL0     H48943   0.546   2.467   1.930 -1.5630  0.1459  1.2985
  363MOL0     H48944   0.495   2.750   2.036  0.3966 -0.1008 -0.0382
  363MOL0     H48945   0.486   2.607   2.140 -2.8861  1.8255  1.4974
  363MOL0     H48946   0.297   2.675   1.903 -1.9430  0.8683  1.3670
  363MOL0     H48947   0.297   2.520   1.995  1.0201  0.2836  2.6449
  363MOL0     H48948   0.222   2.609   2.189  0.1261  1.0742 -0.2397
  363MOL0     H48949   0.265   2.774   2.150 -4.3138  0.1893  2.2545
  363MOL0     H48950   0.102   2.755   1.959  1.8661  0.8241  0.5744
  363MOL0     H48951   0.037   2.599   2.018  0.0832  0.7787  0.6333
  363MOL0     H48952   0.040   2.839   2.204  0.4771 -1.2623  0.1162
  363MOL0     H48953  -0.021   2.674   2.217  1.6222 -1.6027 -0.2542
  363MOL0     H48954  -0.089   2.883   2.012  0.7812 -1.1080  0.4599
  363MOL0     H48955  -0.188   2.723   2.037 -0.2298 -1.7596  2.7743
  363MOL0     H48956  -0.208   3.095   2.152  0.4702  0.2188  0.4365
  363MOL0     H48957  -0.366   3.162   2.399  2.2325  1.6588 -1.3459
  363MOL0     H48958  -0.420   3.208   2.242 -3.9004 -0.3196 -1.8590
  363MOL0     H48959  -0.628   3.069   2.304 -3.0375  2.5915 -0.6266
  363MOL0     H48960  -0.565   3.069   2.462 -1.4287 -0.2331 -0.3974
  363MOL0     H48961  -0.729   3.271   2.415 -0.3548  3.8723 -2.0132
  363MOL0     H48962  -0.637   3.295   2.276  0.6039  0.7672  0.2444
  363MOL0     H48963  -0.578   3.470   2.446  0.2597  0.1522 -1.6375
  363MOL0     H48964  -0.437   3.391   2.416  0.8163  0.5896  1.9287
  363MOL0     H48965  -0.355   3.519   2.531 -0.4288 -3.2146 -1.3030
  363MOL0     H48966  -0.205   3.634   2.672 -0.0121 -1.2869 -2.5581
  363MOL0     H48967  -0.082   3.732   3.165  0.1261 -1.4665 -2.3508
  363MOL0     H48968   0.099   3.848   3.286  0.0711 -1.5327  0.2517
  363MOL0     H48969   0.400   4.037   3.028 -0.3710  0.2231  0.1865
  363MOL0     H48970   0.269   4.137   3.085 -0.6095 -1.0084 -1.0239
  363MOL0     H48971   0.553   4.087   3.210  1.1642  1.4665 -0.8313
  363MOL0     H48972   0.496   4.234   3.133 -0.9126 -0.5281 -2.4153
  363MOL0     H48973   0.328   4.249   3.318  1.0403  3.3962 -0.0023
  363MOL0     H48974   0.395   4.110   3.401 -0.8903 -0.6271 -1.7417
  363MOL0     H48975   0.458   4.339   3.489 -3.6098  1.4485 -2.6363
  363MOL0     H48976   0.513   4.381   3.330 -1.8325  1.8500  2.3358
  363MOL0     H48977   0.689   4.247   3.323 -2.8146 -2.2777 -0.2106
  363MOL0     H48978   0.653   4.160   3.477 -0.3604 -0.3984 -1.0453
  363MOL0     H48979   0.835   4.329   3.467  1.0377  1.6200  1.5113
  363MOL0     H48980   0.719   4.452   3.442  1.8054 -1.4634 -4.0849
  363MOL0     H48981   0.742   4.251   3.679 -0.4252  0.6475  2.0752
  363MOL0     H48982   0.615   4.365   3.671  0.1398 -0.9660  3.8733
  363MOL0     H48983   0.761   4.565   3.650  0.2020  1.4913  0.8871
  363MOL0     H48984   0.767   4.480   3.808 -2.9646  0.0550 -0.8582
  363MOL0     H48985   0.316   3.895   2.918  0.5295  1.7993  1.1740
  363MOL0     H48986   0.143   3.801   2.790 -0.0076 -0.1113 -0.3260
  363MOL0     H48987  -0.311   3.360   2.992  3.0629 -1.1646  0.1484
  363MOL0     H48988  -0.472   3.262   2.846  2.3434 -1.4360  2.4513
  363MOL0     H48989   0.417   2.738   1.571  1.2589 -2.4992  2.6638
  363MOL0     H48990   0.487   2.796   1.356  0.0557  2.9347  0.0479
  363MOL0     H48991   0.652   3.350   1.202  1.1562  0.8717  0.5072
  363MOL0     H48992   0.677   3.444   0.978  6.6059 -0.2153  1.5780
  363MOL0     H48993   0.529   3.328   0.597  2.0229  1.3343 -2.7753
  363MOL0     H48994   0.623   3.179   0.626 -1.9902 -0.1930  0.4615
  363MOL0     H48995   0.749   3.441   0.591  2.3889 -1.4759  0.8376
  363MOL0     H48996   0.726   3.335   0.449  0.2176  0.2503 -0.3708
  363MOL0     H48997   0.842   3.155   0.586  3.1667 -1.0509 -0.4449
  363MOL0     H48998   0.919   3.280   0.693  1.2604 -1.1730  0.6519
  363MOL0     H48999   0.954   3.225   0.396  1.1737  1.3058 -0.8119
  363MOL0     H49000   1.013   3.367   0.466  0.7883  0.1397  2.3119
  363MOL0     H49001   1.270   3.141   0.701 -1.8289 -0.3272  0.8653
  363MOL0     H49002   0.665   3.065   0.802  0.3043 -1.9361  0.9425
  363MOL0     H49003   0.601   2.870   1.094 -4.5874  2.3547 -0.6604
  363MOL0     H49004   0.596   2.863   0.914 -1.1535  1.9031 -0.5066
  363MOL0     H49005   0.752   2.871   1.005 -0.3058 -1.9694 -0.1919
  364MOL0     O49006   0.015  10.012   9.509  0.3829 -1.0566  0.4874
  364MOL0     C49007   0.042   9.900   9.540  0.4323 -0.0287  0.5606
  364MOL0     O49008   0.058   9.859   9.669 -0.6949  0.1253 -0.5832
  364MOL0     C49009   0.032   9.939   9.773  0.7774  0.8114  0.3834
  364MOL0     C49010   0.123   9.931   9.873  0.1134  0.5070 -0.3380
  364MOL0     C49011   0.098  10.010   9.995  0.1754 -0.0552  1.0952
  364MOL0     C49012  -0.013  10.093  10.005 -0.3128  0.3305 -0.3280
  364MOL0     O49013  -0.047  10.154  10.124  0.1153 -0.4958 -0.2196
  364MOL0     C49014   0.056  10.171  10.226 -0.0182 -0.0006  0.4051
  364MOL0     C49015   0.007  10.259  10.341 -0.0665  0.4164 -0.5439
  364MOL0     C49016  -0.065  10.188  10.453 -0.7220  0.1474  0.4653
  364MOL0     C49017  -0.210  10.169  10.441 -0.5732 -0.0225 -0.2955
  364MOL0     C49018  -0.286  10.085  10.547 -0.2597  1.1790 -0.7720
  364MOL0     C49019  -0.425  10.053  10.499  0.7759 -0.5210  0.2189
  364MOL0     C49020  -0.521   9.978  10.600  0.4593  0.0164  0.2413
  364MOL0     C49021  -0.573  10.058  10.716  0.5171  0.2291 -0.9881
  364MOL0     N49022  -0.654   9.978  10.807 -0.1742  0.1763 -0.3302
  364MOL0     C49023  -0.744   9.882  10.779 -0.3124  0.5453  0.6783
  364MOL0     C49024  -0.774   9.832  10.901  1.1043 -0.0821 -0.6378
  364MOL0     C49025  -0.868   9.713  10.917  0.0157 -0.0014 -1.1080
  364MOL0     C49026  -0.837   9.619  11.041  0.8073 -0.3460 -0.7610
  364MOL0     C49027  -0.955   9.594  11.148 -0.0389 -0.3930  0.9158
  364MOL0     C49028  -1.002   9.726  11.221 -0.5235 -0.6822  0.0226
  364MOL0     O49029  -1.104   9.791  11.138 -0.1442  0.0157 -0.2140
  364MOL0     C49030  -1.142   9.919  11.158 -0.2675 -0.5812 -0.0727
  364MOL0     C49031  -1.205   9.978  11.056 -0.1413  0.2932 -0.0649
  364MOL0     C49032  -1.272  10.108  11.071  0.1499 -0.3990 -0.2766
  364MOL0     C49033  -1.250  10.171  11.191 -0.3289  0.3020 -0.2032
  364MOL0     C49034  -1.327  10.294  11.207  0.6571  0.4411  0.2390
  364MOL0     O49035  -1.299  10.366  11.322 -0.0287 -0.3975 -0.3083
  364MOL0     C49036  -1.379  10.472  11.353  1.2317  0.8829  0.0582
  364MOL0     C49037  -1.337  10.604  11.348 -0.1888 -0.5758  0.2560
  364MOL0     C49038  -1.405  10.712  11.394  0.5602  0.7556 -0.1118
  364MOL0     C49039  -1.523  10.699  11.453 -0.5131  0.1606  0.1336
  364MOL0     O49040  -1.587  10.806  11.512 -0.1103  0.2156  0.5074
  364MOL0     C49041  -1.553  10.808  11.651  0.6928  0.3741  0.3629
  364MOL0     C49042  -1.663  10.880  11.724  0.5153  0.3485  1.0970
  364MOL0     C49043  -1.786  10.780  11.711  0.2240  0.5112  0.0798
  364MOL0     C49044  -1.909  10.826  11.801 -0.4341  0.9195  0.0779
  364MOL0     C49045  -2.018  10.725  11.807 -0.3061 -0.6772  0.2187
  364MOL0     C49046  -1.981  10.609  11.903  1.0122 -0.5143  0.3645
  364MOL0     C49047  -2.111  10.522  11.934 -0.5046 -0.3960  0.1372
  364MOL0     C49048  -2.073  10.376  11.963  0.4485 -0.2699  0.2688
  364MOL0    Cl49049  -1.958  10.383  12.101 -0.3400 -0.4204 -0.2816
  364MOL0     C49050  -1.573  10.564  11.457  0.4230  0.1863  0.4605
  364MOL0     C49051  -1.505  10.452  11.411  0.4883 -0.6344 -0.7182
  364MOL0     O49052  -1.421  10.325  11.133  0.2696  1.3349 -0.2897
  364MOL0     C49053  -1.179  10.111  11.291 -0.8936 -0.7501  0.5574
  364MOL0     C49054  -1.119   9.989  11.280  0.3811 -0.0198 -0.5866
  364MOL0     N49055  -0.706   9.901  10.995 -0.4195  0.6315  1.1744
  364MOL0     N49056  -0.636   9.995  10.939  0.5589  0.1345  0.1200
  364MOL0     C49057  -0.110  10.090   9.908 -0.4256 -0.5279  0.2158
  364MOL0     C49058  -0.094  10.017   9.787 -0.0480  0.1811 -0.7958
  364MOL0     C49059   0.080   9.801   9.426 -0.3202 -0.6543  0.2408
  364MOL0     C49060   0.072   9.856   9.291 -1.0774  0.7426  0.2253
  364MOL0     C49061   0.090   9.775   9.181 -0.4886  0.3288  0.5001
  364MOL0     C49062   0.131   9.644   9.199 -0.7255  0.1143 -0.5834
  364MOL0     O49063   0.148   9.574   9.081  0.0460  0.2720 -0.2388
  364MOL0     C49064   0.168   9.437   9.069  0.8889 -0.5956  0.0503
  364MOL0     C49065   0.042   9.350   9.090  0.7494  1.0202 -0.0408
  364MOL0     C49066   0.057   9.202   9.042  0.8010  0.3309  0.8126
  364MOL0     C49067   0.189   9.148   9.088  0.6915  0.0193  0.0739
  364MOL0     C49068   0.183   9.002   9.105 -0.2507  0.4144  0.6893
  364MOL0     C49069   0.200   8.881   9.122 -0.5243  0.5611 -0.0781
  364MOL0     C49070   0.154   9.591   9.331  0.3624 -0.4912 -0.2022
  364MOL0     C49071   0.128   9.670   9.441  0.5184  0.6393 -0.6633
  364MOL0     C49072   0.157   9.602   9.571  0.2763 -0.8208  0.2260
  364MOL0     H49073   0.198   9.854   9.857  0.1711  0.4281  0.3141
  364MOL0     H49074   0.170   9.999  10.076  0.2392 -0.7846  0.9517
  364MOL0     H49075   0.083  10.072  10.266 -1.8345  0.1174  2.0599
  364MOL0     H49076   0.147  10.215  10.184  0.4562  0.7047  2.0795
  364MOL0     H49077  -0.067  10.335  10.313  2.8180  4.2749  1.3384
  364MOL0     H49078   0.095  10.311  10.378  2.7789 -3.7243 -0.7837
  364MOL0     H49079  -0.045  10.236  10.549 -1.6659  2.0579 -0.2385
  364MOL0     H49080  -0.009  10.097  10.479 -0.3403  0.7071  1.6824
  364MOL0     H49081  -0.250  10.270  10.444 -0.5753  0.0415 -1.9360
  364MOL0     H49082  -0.237  10.138  10.340 -5.4901 -0.2688  0.8024
  364MOL0     H49083  -0.241   9.987  10.566 -2.3602  0.2448 -0.3829
  364MOL0     H49084  -0.290  10.143  10.639  0.0272 -1.3996  0.9824
  364MOL0     H49085  -0.464  10.152  10.470  2.4570  0.2233  0.3843
  364MOL0     H49086  -0.410   9.988  10.413  1.5246 -0.4081  0.2615
  364MOL0     H49087  -0.458   9.903  10.648 -1.2898 -1.7128 -0.0637
  364MOL0     H49088  -0.605   9.930  10.549  0.9898  0.4477 -1.0797
  364MOL0     H49089  -0.495  10.117  10.766  0.7567  0.4188 -1.5714
  364MOL0     H49090  -0.652  10.130  10.691  0.3651  2.6558  4.9570
  364MOL0     H49091  -0.781   9.858  10.680  0.5163  1.9774 -0.0077
  364MOL0     H49092  -0.973   9.743  10.914  0.1359  0.7428  0.6544
  364MOL0     H49093  -0.854   9.640  10.837 -2.1394 -1.4444 -0.2479
  364MOL0     H49094  -0.810   9.517  11.013  0.7609 -0.2142 -1.3009
  364MOL0     H49095  -0.759   9.659  11.107 -1.3748  1.2106  1.0562
  364MOL0     H49096  -0.915   9.524  11.221 -0.2678  0.7911  2.2282
  364MOL0     H49097  -1.040   9.559  11.089 -0.2430  1.1631  0.2299
  364MOL0     H49098  -0.916   9.793  11.223 -2.2521  1.6343  1.0445
  364MOL0     H49099  -1.041   9.696  11.318 -1.6434 -2.2084 -0.8490
  364MOL0     H49100  -1.226   9.925  10.964  3.0398 -1.2757 -0.0495
  364MOL0     H49101  -1.336  10.154  10.996 -0.6956  0.3727  0.8816
  364MOL0     H49102  -1.251  10.615  11.282 -1.6348  0.0645 -1.6101
  364MOL0     H49103  -1.371  10.809  11.360  1.8093 -0.7727 -3.7430
  364MOL0     H49104  -1.538  10.709  11.694 -0.3303  0.7711  1.7029
  364MOL0     H49105  -1.463  10.868  11.664  2.2679 -2.0679  1.3787
  364MOL0     H49106  -1.631  10.879  11.828  2.9161 -2.9364  0.4992
  364MOL0     H49107  -1.680  10.980  11.680  0.1532  0.3480  1.2376
  364MOL0     H49108  -1.820  10.765  11.609  1.2588  0.4821 -0.2688
  364MOL0     H49109  -1.760  10.685  11.758  2.7778  0.9156 -0.3991
  364MOL0     H49110  -1.943  10.917  11.751  0.5781  1.0703 -0.3683
  364MOL0     H49111  -1.884  10.857  11.903 -2.1566  0.9200  0.5274
  364MOL0     H49112  -2.023  10.682  11.706  1.4379 -0.4416 -0.0017
  364MOL0     H49113  -2.112  10.778  11.826 -0.9315 -1.2094 -1.2506
  364MOL0     H49114  -1.907  10.540  11.862  0.0136 -0.2246 -2.0663
  364MOL0     H49115  -1.937  10.653  11.993 -0.7040 -2.6459  2.3749
  364MOL0     H49116  -2.179  10.514  11.849  0.7182  2.8420 -1.3270
  364MOL0     H49117  -2.158  10.561  12.025 -0.3310 -2.0209  0.9606
  364MOL0     H49118  -2.166  10.321  11.976  0.0377  0.6630  1.4599
  364MOL0     H49119  -2.033  10.332  11.871 -0.7679  3.3915 -2.2363
  364MOL0     H49120  -1.668  10.567  11.510 -0.6809  3.1081 -1.4011
  364MOL0     H49121  -1.542  10.351  11.424  1.5962 -0.7036  2.8735
  364MOL0     H49122  -1.180  10.177  11.377 -1.2061  3.6851 -2.4605
  364MOL0     H49123  -1.083   9.941  11.370  1.9167  1.0896 -0.5686
  364MOL0     H49124  -0.189  10.164   9.910 -2.0749 -2.2275  2.6300
  364MOL0     H49125  -0.173  10.007   9.713 -0.2937  2.3881 -0.8941
  364MOL0     H49126   0.029   9.952   9.266  1.3177  1.6705 -0.5613
  364MOL0     H49127   0.072   9.821   9.084  3.5086  3.4945  1.0005
  364MOL0     H49128   0.253   9.395   9.122  0.9759  1.9805  2.1090
  364MOL0     H49129   0.204   9.429   8.965  1.3177  2.6677 -0.1338
  364MOL0     H49130  -0.043   9.392   9.036 -1.7106 -1.8130  1.3437
  364MOL0     H49131   0.012   9.354   9.195  0.7235  0.0521 -0.0038
  364MOL0     H49132   0.047   9.194   8.933 -1.6996  3.1915  0.7185
  364MOL0     H49133  -0.022   9.137   9.081  0.7911 -1.6092 -2.1290
  364MOL0     H49134   0.265   9.181   9.017 -1.4132  1.8704 -1.4685
  364MOL0     H49135   0.217   9.186   9.187 -0.6191  0.9901  0.0922
  364MOL0     H49136   0.224   8.778   9.139  1.5108  1.4172  3.1392
  364MOL0     H49137   0.198   9.492   9.331  0.3123 -0.5132 -0.2369
  364MOL0     H49138   0.180   9.498   9.549  1.0165 -0.7742  0.7379
  364MOL0     H49139   0.236   9.651   9.628  0.1119 -2.6206  2.0830
  364MOL0     H49140   0.064   9.608   9.629  0.1950  2.4562 -0.0230
  365MOL0     O49141   2.336   9.333   9.590 -0.0371  0.0316  0.2386
  365MOL0     C49142   2.431   9.272   9.634 -0.6047  0.3444 -1.3502
  365MOL0     O49143   2.562   9.299   9.615 -0.6351 -0.5268 -0.2051
  365MOL0     C49144   2.590   9.387   9.520  0.0171 -1.0594  0.4753
  365MOL0     C49145   2.627   9.518   9.554 -0.1505  0.8807 -0.1690
  365MOL0     C49146   2.667   9.614   9.457  0.0319 -0.0121  0.2273
  365MOL0     C49147   2.658   9.583   9.323 -0.7555 -0.2951 -0.1213
  365MOL0     O49148   2.692   9.685   9.233 -1.2795  0.1348  0.2183
  365MOL0     C49149   2.624   9.678   9.106  0.4227 -0.1744 -0.3283
  365MOL0     C49150   2.678   9.777   9.008 -0.4912 -0.4618  0.7118
  365MOL0     C49151   2.578   9.809   8.886 -1.1696  0.6438 -0.2176
  365MOL0     C49152   2.627   9.759   8.748  0.0690 -0.0692 -0.1653
  365MOL0     C49153   2.512   9.732   8.659  0.3444  0.1142 -0.0969
  365MOL0     C49154   2.414   9.856   8.635  0.7063 -0.1518 -0.0158
  365MOL0     C49155   2.306   9.817   8.525 -0.3555  0.3639 -0.5097
  365MOL0     C49156   2.224   9.694   8.550 -0.2976  0.1148 -0.6370
  365MOL0     N49157   2.083   9.714   8.514  0.2646  0.6010  0.6799
  365MOL0     C49158   1.993   9.765   8.600 -0.6044 -0.0998  0.1648
  365MOL0     C49159   1.878   9.778   8.523  0.8046 -0.3498  0.1320
  365MOL0     C49160   1.749   9.826   8.582 -0.2468  0.2351  0.8607
  365MOL0     C49161   1.674   9.707   8.647  1.1294  0.3106 -0.3108
  365MOL0     C49162   1.533   9.745   8.687  0.1935  0.6242 -0.4266
  365MOL0     C49163   1.455   9.616   8.720 -0.0198 -0.9190  1.0783
  365MOL0     O49164   1.446   9.522   8.610  0.0022  0.4907 -0.0560
  365MOL0     C49165   1.335   9.446   8.604  0.4199 -1.3468  0.7851
  365MOL0     C49166   1.247   9.414   8.711 -0.2280  0.1907 -0.9444
  365MOL0     C49167   1.146   9.318   8.699  0.1494 -0.5180  0.5825
  365MOL0     C49168   1.112   9.265   8.569  0.6994  0.6243  1.2520
  365MOL0     C49169   0.994   9.178   8.552 -0.8672  0.3448  1.0042
  365MOL0     O49170   0.965   9.139   8.417  0.6730 -0.5767 -0.0160
  365MOL0     C49171   0.859   9.054   8.377 -0.6615  0.1387  0.7825
  365MOL0     C49172   0.801   8.957   8.452 -0.4030 -0.4982  0.0782
  365MOL0     C49173   0.700   8.877   8.391  0.5583  0.2037 -0.4503
  365MOL0     C49174   0.651   8.889   8.258 -0.2925 -0.8451 -0.5275
  365MOL0     O49175   0.555   8.819   8.191 -0.1462 -0.5376 -0.0923
  365MOL0     C49176   0.470   8.731   8.271 -0.2658 -0.6289 -0.1679
  365MOL0     C49177   0.381   8.650   8.187  1.3842  0.6793 -0.2262
  365MOL0     C49178   0.464   8.558   8.103 -1.1415 -0.7394  0.3590
  365MOL0     C49179   0.378   8.437   8.077 -0.4508 -0.1053  0.0098
  365MOL0     C49180   0.441   8.306   8.018 -1.0424  0.7187  0.8073
  365MOL0     C49181   0.394   8.181   8.082 -0.7541 -0.2933 -0.0111
  365MOL0     C49182   0.447   8.060   8.018 -0.2059 -0.4685 -0.3500
  365MOL0     C49183   0.387   7.939   8.086 -0.2537 -1.0391 -0.4298
  365MOL0    Cl49184   0.212   7.908   8.047 -0.5692  0.2077 -0.0313
  365MOL0     C49185   0.717   8.995   8.189  0.5035 -0.8484  0.0317
  365MOL0     C49186   0.817   9.073   8.244  0.4298 -0.9298 -0.3435
  365MOL0     O49187   0.938   9.135   8.651  0.7204  1.3584 -0.0182
  365MOL0     C49188   1.196   9.306   8.465 -0.5471  0.1448 -0.4354
  365MOL0     C49189   1.306   9.391   8.477 -0.3996  0.1296 -0.2661
  365MOL0     N49190   1.906   9.734   8.395 -0.3711  0.3290  0.1525
  365MOL0     N49191   2.029   9.696   8.395  0.7027  0.0939 -0.6068
  365MOL0     C49192   2.635   9.445   9.284  0.2218 -0.9652 -0.2008
  365MOL0     C49193   2.592   9.353   9.381  0.3888  1.3757  0.2928
  365MOL0     C49194   2.400   9.154   9.713  0.4241  0.4817 -0.4770
  365MOL0     C49195   2.472   9.039   9.668  0.2637 -1.1722 -0.4403
  365MOL0     C49196   2.441   8.920   9.722  0.1204 -0.3568 -0.6752
  365MOL0     C49197   2.348   8.897   9.828  0.1793 -0.2860  0.9273
  365MOL0     O49198   2.327   8.765   9.869 -0.1466 -0.5553  0.4004
  365MOL0     C49199   2.191   8.731   9.831  0.3760 -0.0527 -0.2284
  365MOL0     C49200   2.171   8.573   9.832 -0.2625 -0.3959 -0.1929
  365MOL0     C49201   2.282   8.494   9.768  0.1862 -0.0852  0.0610
  365MOL0     C49202   2.320   8.532   9.628 -0.9264  0.0728 -0.3127
  365MOL0     C49203   2.227   8.492   9.525  0.1882 -0.4157 -0.3734
  365MOL0     C49204   2.150   8.455   9.440  0.1728 -0.0412  0.4567
  365MOL0     C49205   2.273   9.011   9.870 -0.4020  0.7002  0.6597
  365MOL0     C49206   2.295   9.138   9.809  0.1949  0.5852 -0.0241
  365MOL0     C49207   2.193   9.245   9.832  0.0520 -0.2415 -0.3290
  365MOL0     H49208   2.635   9.551   9.657 -2.1003 -0.2841  0.4066
  365MOL0     H49209   2.709   9.709   9.489 -1.5980  1.6060 -2.1315
  365MOL0     H49210   2.637   9.580   9.058 -0.6803 -0.5330  0.0662
  365MOL0     H49211   2.517   9.697   9.116 -0.1180 -0.0970 -4.5685
  365MOL0     H49212   2.775   9.749   8.965 -0.7458  2.5192 -2.2014
  365MOL0     H49213   2.690   9.869   9.067  1.6922  2.9703 -4.3581
  365MOL0     H49214   2.565   9.918   8.888 -2.0108  0.5624 -0.7957
  365MOL0     H49215   2.481   9.768   8.915  0.0489 -0.8546  2.0950
  365MOL0     H49216   2.692   9.840   8.714 -0.6618  0.5657 -0.0675
  365MOL0     H49217   2.687   9.667   8.757  1.1843  0.6779  0.2563
  365MOL0     H49218   2.547   9.707   8.559 -0.0823  0.0003 -0.2183
  365MOL0     H49219   2.448   9.651   8.695 -0.2136 -1.0387 -3.3996
  365MOL0     H49220   2.363   9.891   8.725  2.4350 -1.4002  1.5346
  365MOL0     H49221   2.473   9.942   8.601  0.5763 -0.6697 -1.6160
  365MOL0     H49222   2.358   9.796   8.431 -3.3194 -1.5614 -1.8579
  365MOL0     H49223   2.241   9.904   8.511 -0.8217 -0.0666 -1.0849
  365MOL0     H49224   2.267   9.615   8.488  1.6801 -0.3650  1.2057
  365MOL0     H49225   2.231   9.649   8.650  0.9880 -0.1188 -0.8155
  365MOL0     H49226   2.018   9.791   8.702  1.1523 -2.3255  0.3735
  365MOL0     H49227   1.750   9.905   8.657  0.9626  0.4107  0.6874
  365MOL0     H49228   1.699   9.871   8.496  1.8352  1.5261  0.2417
  365MOL0     H49229   1.667   9.625   8.575 -0.0788 -1.2919  1.5367
  365MOL0     H49230   1.733   9.671   8.732  2.6919 -0.5781 -1.7142
  365MOL0     H49231   1.475   9.793   8.607 -3.5766 -1.6603  0.6632
  365MOL0     H49232   1.542   9.806   8.777  3.9511 -0.8071  0.3587
  365MOL0     H49233   1.357   9.656   8.747  0.6850  0.8034  1.2511
  365MOL0     H49234   1.512   9.564   8.797 -0.9219 -2.8917  0.4694
  365MOL0     H49235   1.252   9.454   8.811  4.2487 -0.2105 -0.7976
  365MOL0     H49236   1.082   9.289   8.782 -3.5494  0.0144 -1.8022
  365MOL0     H49237   0.841   8.925   8.547 -0.4385  3.5215  1.6511
  365MOL0     H49238   0.656   8.810   8.463 -0.0105  1.7592  0.6930
  365MOL0     H49239   0.531   8.674   8.342  0.5905  2.7674  2.0324
  365MOL0     H49240   0.403   8.783   8.340  1.3046 -0.7688  1.5389
  365MOL0     H49241   0.327   8.584   8.256  2.7063 -0.1471  0.0568
  365MOL0     H49242   0.311   8.704   8.122 -2.8262 -4.3224 -0.4968
  365MOL0     H49243   0.493   8.599   8.006 -1.6747 -0.2168  0.4177
  365MOL0     H49244   0.558   8.525   8.149  0.1252  1.7180 -0.2895
  365MOL0     H49245   0.294   8.480   8.022  1.9855  3.3938 -1.2951
  365MOL0     H49246   0.342   8.402   8.174 -0.6586  1.0286  0.3499
  365MOL0     H49247   0.550   8.310   8.025 -0.8062 -1.7297 -0.1971
  365MOL0     H49248   0.420   8.300   7.911 -2.3608 -2.2883  1.1214
  365MOL0     H49249   0.421   8.177   8.188 -0.9305  4.4013  0.4467
  365MOL0     H49250   0.286   8.174   8.068 -0.5505 -1.6990 -1.1071
  365MOL0     H49251   0.556   8.051   8.014 -0.2354 -0.8911 -0.2320
  365MOL0     H49252   0.425   8.054   7.911  2.2108  2.1199 -1.1203
  365MOL0     H49253   0.443   7.854   8.046  2.4029  1.6974 -3.0296
  365MOL0     H49254   0.399   7.947   8.195 -0.4991  0.8478 -0.5132
  365MOL0     H49255   0.692   9.017   8.085  2.1677  0.5676 -0.1091
  365MOL0     H49256   0.873   9.142   8.182 -0.7159 -0.6198 -1.0680
  365MOL0     H49257   1.179   9.267   8.365  1.4888  0.1937 -0.8607
  365MOL0     H49258   1.378   9.407   8.397  0.5048 -1.6581  0.1378
  365MOL0     H49259   2.649   9.406   9.184 -1.6008 -2.3179  0.0004
  365MOL0     H49260   2.577   9.249   9.353 -1.9514  1.6416  0.3716
  365MOL0     H49261   2.552   9.052   9.597  0.0264  3.2265 -0.2298
  365MOL0     H49262   2.500   8.836   9.689  1.3500 -0.6694  2.0737
  365MOL0     H49263   2.166   8.771   9.732 -0.0785 -0.3968 -0.2593
  365MOL0     H49264   2.121   8.781   9.899  0.3625 -0.3350 -0.0318
  365MOL0     H49265   2.067   8.552   9.807 -1.1288 -0.3548  2.9057
  365MOL0     H49266   2.158   8.537   9.935 -1.1858  3.3079  1.1395
  365MOL0     H49267   2.256   8.388   9.772  0.6725 -0.1848  0.8404
  365MOL0     H49268   2.373   8.500   9.828 -0.4206 -0.9923  1.1239
  365MOL0     H49269   2.332   8.640   9.623 -0.9202  0.1089  0.4369
  365MOL0     H49270   2.417   8.497   9.592  0.0472  2.2184  0.1251
  365MOL0     H49271   2.066   8.446   9.374  0.8177 -0.5366 -0.3125
  365MOL0     H49272   2.199   9.014   9.949 -0.7859  3.9876  0.2936
  365MOL0     H49273   2.232   9.337   9.876 -2.8809  0.1777  1.6742
  365MOL0     H49274   2.133   9.268   9.743  0.2651  2.3644  0.1386
  365MOL0     H49275   2.124   9.210   9.909 -0.6698 -0.5923 -1.1056
  366MOL0     O49276   2.514   1.536  11.106  0.5804  0.0038  0.0892
  366MOL0     C49277   2.571   1.428  11.111  0.4536 -0.5895 -0.1838
  366MOL0     O49278   2.672   1.395  11.032 -0.3525 -0.3198 -0.1600
  366MOL0     C49279   2.692   1.469  10.916 -0.2493 -0.0256 -1.1469
  366MOL0     C49280   2.771   1.588  10.917  0.9859  0.3243 -0.2326
  366MOL0     C49281   2.777   1.656  10.801 -0.4319 -1.1205 -0.3658
  366MOL0     C49282   2.720   1.619  10.685 -0.1097 -0.6606 -0.2302
  366MOL0     O49283   2.734   1.703  10.578  0.5085 -0.4989  0.8161
  366MOL0     C49284   2.622   1.798  10.557  1.7487  1.2756 -0.0778
  366MOL0     C49285   2.647   1.880  10.429  0.0823  0.1675  0.5097
  366MOL0     C49286   2.541   1.988  10.429  0.0322  0.1004  0.8990
  366MOL0     C49287   2.562   2.074  10.310  0.2371  0.4105 -0.8938
  366MOL0     C49288   2.460   2.188  10.307 -0.7446 -0.1584  0.3193
  366MOL0     C49289   2.478   2.288  10.187  0.1255 -1.0532 -0.0782
  366MOL0     C49290   2.376   2.404  10.197 -0.4103 -0.4167  0.7206
  366MOL0     C49291   2.429   2.518  10.270 -0.3407  0.3703 -0.2332
  366MOL0     N49292   2.356   2.637  10.250  0.6213  1.0882  0.7313
  366MOL0     C49293   2.299   2.666  10.131 -0.2537  0.2057  1.0370
  366MOL0     C49294   2.260   2.800  10.153 -0.6481 -0.0352  0.2336
  366MOL0     C49295   2.200   2.891  10.047 -0.1931 -0.0286 -0.4788
  366MOL0     C49296   2.288   2.934   9.934 -0.4979  0.8803  0.5677
  366MOL0     C49297   2.403   3.036   9.977  0.0232  1.0428 -0.6302
  366MOL0     C49298   2.523   3.014   9.886 -0.5368 -0.8505  0.3947
  366MOL0     O49299   2.564   2.875   9.871 -0.4638 -0.1065 -0.0527
  366MOL0     C49300   2.670   2.826   9.946 -1.1704 -0.2064  0.5557
  366MOL0     C49301   2.774   2.905  10.002  0.0444  0.5492  0.2510
  366MOL0     C49302   2.859   2.849  10.096  0.0351  0.6283 -0.2939
  366MOL0     C49303   2.851   2.708  10.133  0.0973  0.3570 -0.3194
  366MOL0     C49304   2.931   2.641  10.230 -0.1900  0.4194  0.9686
  366MOL0     O49305   2.878   2.522  10.278  0.3557 -0.4986 -0.7252
  366MOL0     C49306   2.945   2.424  10.349  0.0428  0.6950  0.1679
  366MOL0     C49307   2.878   2.314  10.396 -0.1629 -0.3891  0.1941
  366MOL0     C49308   2.935   2.201  10.458  0.4903 -0.5679 -0.3121
  366MOL0     C49309   3.078   2.206  10.478  0.1295  0.1972  0.1167
  366MOL0     O49310   3.150   2.101  10.532 -0.8952 -0.2585  0.2994
  366MOL0     C49311   3.086   2.029  10.631 -0.2135 -0.7436 -0.3329
  366MOL0     C49312   3.080   2.115  10.769 -0.4194  0.5028  0.9420
  366MOL0     C49313   3.004   2.034  10.879  0.2078  0.7353 -0.9158
  366MOL0     C49314   3.092   1.925  10.938 -0.9215 -0.8046  0.1069
  366MOL0     C49315   3.030   1.831  11.036  0.1978  0.6126 -0.4116
  366MOL0     C49316   3.096   1.833  11.170 -0.1217 -0.9935  0.2534
  366MOL0     C49317   3.038   1.961  11.240 -1.1662  0.0165 -0.3232
  366MOL0     C49318   3.138   2.027  11.328 -0.1873  0.5178 -0.6228
  366MOL0    Cl49319   3.062   2.165  11.406  0.3125 -0.2339 -0.3689
  366MOL0     C49320   3.142   2.304  10.413 -0.1428 -0.8895 -0.3050
  366MOL0     C49321   3.085   2.408  10.344  0.1048 -0.3591 -0.7113
  366MOL0     O49322   3.034   2.690  10.267  0.2637 -0.6176 -0.2819
  366MOL0     C49323   2.747   2.632  10.072  0.2715  0.0199  0.6174
  366MOL0     C49324   2.665   2.704   9.984 -0.0012 -0.5055  0.6060
  366MOL0     N49325   2.282   2.838  10.282 -0.2161  0.7050  0.1042
  366MOL0     N49326   2.346   2.741  10.335 -0.4180 -0.1971  0.3241
  366MOL0     C49327   2.641   1.499  10.684 -0.1226 -1.0689  0.2952
  366MOL0     C49328   2.628   1.427  10.800  0.1496 -0.3215  0.0889
  366MOL0     C49329   2.537   1.358  11.235 -0.5892 -0.1022 -0.6519
  366MOL0     C49330   2.417   1.373  11.300 -0.5229 -0.2177 -0.2582
  366MOL0     C49331   2.391   1.314  11.424 -1.0735  0.2096 -0.1170
  366MOL0     C49332   2.480   1.225  11.484 -0.1925 -0.6386  0.4934
  366MOL0     O49333   2.465   1.158  11.603  0.7563 -0.0805  0.0951
  366MOL0     C49334   2.435   1.019  11.574  0.4186 -1.0028  0.2828
  366MOL0     C49335   2.559   0.941  11.608 -1.6603  0.7724 -0.4670
  366MOL0     C49336   2.535   0.797  11.669  0.1451 -0.5387  0.8046
  366MOL0     C49337   2.493   0.798  11.811 -0.2435  0.2050 -0.1324
  366MOL0     C49338   2.601   0.794  11.912  0.4961  0.2052 -0.5997
  366MOL0     C49339   2.674   0.790  12.010  0.3301 -0.7487  0.6816
  366MOL0     C49340   2.604   1.213  11.419  0.3847 -0.5508 -0.8384
  366MOL0     C49341   2.641   1.273  11.303  0.7173 -0.2915  0.6802
  366MOL0     C49342   2.789   1.257  11.253  0.4192  0.6358  0.4055
  366MOL0     H49343   2.831   1.620  11.001 -1.7838 -0.6714  2.3139
  366MOL0     H49344   2.829   1.751  10.804 -1.6991 -0.3924 -0.8170
  366MOL0     H49345   2.525   1.750  10.545  3.1585 -1.9695  0.4060
  366MOL0     H49346   2.618   1.858  10.648  0.7678  0.2341  0.5933
  366MOL0     H49347   2.621   1.817  10.343  0.7405 -0.1670  0.5442
  366MOL0     H49348   2.748   1.924  10.429  0.0792  0.1802 -0.1841
  366MOL0     H49349   2.562   2.058  10.511  2.0943  1.8823 -1.0104
  366MOL0     H49350   2.440   1.946  10.435  1.0745 -3.2069 -1.8283
  366MOL0     H49351   2.664   2.114  10.313  0.2269  0.5812 -2.0604
  366MOL0     H49352   2.558   2.007  10.224 -0.9204 -0.8634  0.1229
  366MOL0     H49353   2.357   2.150  10.300 -1.3086  1.0028  1.7984
  366MOL0     H49354   2.476   2.249  10.396 -2.8228  1.7652 -0.5206
  366MOL0     H49355   2.578   2.330  10.172  0.0730 -1.7204 -2.8002
  366MOL0     H49356   2.454   2.215  10.109  0.3128 -1.0813 -0.1109
  366MOL0     H49357   2.290   2.365  10.251  1.5669 -2.9464  2.2823
  366MOL0     H49358   2.347   2.428  10.094 -2.3251 -1.4462  0.9791
  366MOL0     H49359   2.429   2.495  10.377  3.7795  0.4945 -0.0667
  366MOL0     H49360   2.536   2.529  10.251 -0.3825 -0.1408 -0.7713
  366MOL0     H49361   2.290   2.606  10.041 -1.8518 -0.4225  1.5858
  366MOL0     H49362   2.133   2.820   9.998  0.5839 -0.5929 -0.7187
  366MOL0     H49363   2.137   2.975  10.081 -0.2231  0.5657 -1.9439
  366MOL0     H49364   2.331   2.852   9.878  0.7898  2.3011 -0.6086
  366MOL0     H49365   2.225   2.989   9.863  2.8928  3.5946 -0.6330
  366MOL0     H49366   2.441   2.993  10.070  1.4671 -1.5593 -2.3081
  366MOL0     H49367   2.372   3.141   9.972 -1.1428  0.6566 -1.7901
  366MOL0     H49368   2.602   3.082   9.919  0.1025 -2.0414  1.3562
  366MOL0     H49369   2.500   3.042   9.783  0.0711  0.3495  0.5694
  366MOL0     H49370   2.780   3.012   9.984  0.7978  0.5791  0.6724
  366MOL0     H49371   2.928   2.920  10.141 -0.2088  0.8897 -0.3365
  366MOL0     H49372   2.773   2.320  10.368 -0.3447  1.2252  1.0838
  366MOL0     H49373   2.871   2.117  10.482 -2.7119  0.7073 -3.4721
  366MOL0     H49374   2.991   1.982  10.606  0.5730 -1.5230 -2.0228
  366MOL0     H49375   3.158   1.948  10.647  2.3185  1.7663  2.1195
  366MOL0     H49376   3.179   2.132  10.812 -0.7670 -1.7592  2.8912
  366MOL0     H49377   3.026   2.207  10.747 -2.6422 -0.7576  0.7393
  366MOL0     H49378   2.969   2.108  10.951  0.2793 -2.3195  2.5436
  366MOL0     H49379   2.922   1.980  10.831 -1.1514 -1.7534  3.6954
  366MOL0     H49380   3.175   1.982  10.983  0.1952 -0.6108 -2.0499
  366MOL0     H49381   3.144   1.867  10.862 -1.0415 -0.4817 -0.2250
  366MOL0     H49382   3.060   1.736  10.992 -0.2112  0.4671 -0.3793
  366MOL0     H49383   2.920   1.838  11.035  0.1473  0.6541  1.5553
  366MOL0     H49384   3.062   1.744  11.223 -2.2418 -0.1122  0.4819
  366MOL0     H49385   3.205   1.829  11.164 -0.0502  0.0202  0.6716
  366MOL0     H49386   2.952   1.929  11.300 -0.5898 -3.1577 -1.0547
  366MOL0     H49387   2.999   2.029  11.163 -1.5780  0.7088  0.4725
  366MOL0     H49388   3.178   1.961  11.405  1.0377  2.6232  0.6657
  366MOL0     H49389   3.220   2.063  11.264  0.9835  1.1294  1.1396
  366MOL0     H49390   3.250   2.313  10.425 -0.1213 -0.2653 -0.8764
  366MOL0     H49391   3.134   2.491  10.296 -3.0925  1.7001 -0.6965
  366MOL0     H49392   2.738   2.524  10.074 -3.8555  0.0471 -2.3476
  366MOL0     H49393   2.593   2.639   9.936  0.6004  0.2212 -1.3681
  366MOL0     H49394   2.600   1.476  10.586  3.6772  0.4954 -1.9270
  366MOL0     H49395   2.562   1.341  10.799 -0.3914 -0.0525 -4.2465
  366MOL0     H49396   2.335   1.418  11.243 -1.8494 -0.6578  1.2291
  366MOL0     H49397   2.295   1.330  11.473  0.4184 -0.7969  3.4029
  366MOL0     H49398   2.418   0.987  11.471 -1.9988 -2.2219  0.9975
  366MOL0     H49399   2.349   0.985  11.632  0.0857 -0.5625  0.0596
  366MOL0     H49400   2.626   0.991  11.679  0.9122 -3.5424  0.4704
  366MOL0     H49401   2.613   0.926  11.514  2.4007 -4.4533  2.1880
  366MOL0     H49402   2.627   0.740  11.652  0.1157  0.1583 -2.3576
  366MOL0     H49403   2.466   0.744  11.604  0.1710  3.6898 -3.1920
  366MOL0     H49404   2.426   0.882  11.831 -0.3625  0.1907 -0.4605
  366MOL0     H49405   2.440   0.703  11.824  0.8004 -0.7417 -2.3411
  366MOL0     H49406   2.742   0.794  12.093  0.6004 -0.3944  0.4473
  366MOL0     H49407   2.677   1.153  11.473 -0.4387  0.3004  1.3234
  366MOL0     H49408   2.857   1.219  11.329  0.1669  0.9127  0.7725
  366MOL0     H49409   2.793   1.182  11.173 -0.9646  0.2015  0.7149
  366MOL0     H49410   2.833   1.346  11.207  0.2355 -1.0202 -3.3027
  367MOL0     O49411   6.682   7.667   7.010  0.2402 -0.1567 -0.1752
  367MOL0     C49412   6.772   7.750   7.046 -0.1673 -0.3465 -0.2300
  367MOL0     O49413   6.757   7.890   7.045 -0.2959 -0.4245 -0.6489
  367MOL0     C49414   6.642   7.945   7.008  0.2832 -0.1672 -0.4205
  367MOL0     C49415   6.646   8.052   6.918 -0.3735  0.3194 -0.1660
  367MOL0     C49416   6.537   8.125   6.899 -0.4936  0.2859  1.5579
  367MOL0     C49417   6.417   8.103   6.959 -1.0387  0.4351  0.3208
  367MOL0     O49418   6.308   8.183   6.935 -0.3682  0.0696  0.4348
  367MOL0     C49419   6.329   8.329   6.930 -0.4255  0.0903 -0.2591
  367MOL0     C49420   6.380   8.386   7.063 -0.0402 -0.3650  0.4715
  367MOL0     C49421   6.287   8.364   7.174 -1.3705 -0.4335 -0.9287
  367MOL0     C49422   6.342   8.445   7.295  0.4287  0.3644  0.4045
  367MOL0     C49423   6.263   8.403   7.425 -0.6863 -0.6904 -0.0761
  367MOL0     C49424   6.311   8.481   7.547 -0.5867 -0.6223  0.1772
  367MOL0     C49425   6.239   8.440   7.674 -1.1696  0.4761 -0.8634
  367MOL0     C49426   6.311   8.510   7.794  0.3407 -0.3954 -0.1090
  367MOL0     N49427   6.329   8.656   7.786 -0.3525  0.0802  0.4413
  367MOL0     C49428   6.407   8.725   7.698  0.0356  1.2147 -0.1962
  367MOL0     C49429   6.343   8.842   7.680  0.9647 -0.3485 -1.1039
  367MOL0     C49430   6.400   8.953   7.595  0.0441 -0.8052 -0.6480
  367MOL0     C49431   6.358   9.093   7.631 -0.1003  0.2920 -0.6644
  367MOL0     C49432   6.225   9.120   7.568  0.3773  0.5929  0.3811
  367MOL0     C49433   6.172   9.255   7.608 -0.6614 -0.3494 -0.1769
  367MOL0     O49434   6.250   9.372   7.562  0.3352 -0.1403 -0.1103
  367MOL0     C49435   6.240   9.419   7.431 -0.4129 -0.1831  0.5701
  367MOL0     C49436   6.332   9.526   7.409  0.1855  0.6166  0.6035
  367MOL0     C49437   6.347   9.588   7.280  1.1254 -1.1056 -0.0449
  367MOL0     C49438   6.286   9.537   7.168  0.3653  1.5232 -0.0157
  367MOL0     C49439   6.325   9.586   7.028  1.2249 -0.4319 -0.0088
  367MOL0     O49440   6.422   9.679   7.028 -0.6690 -0.2266  0.1734
  367MOL0     C49441   6.479   9.742   6.914  0.0687  0.1120 -0.6146
  367MOL0     C49442   6.519   9.872   6.923  0.9958  0.2718  0.2565
  367MOL0     C49443   6.600   9.927   6.823  0.0330  0.4331  0.1759
  367MOL0     C49444   6.642   9.857   6.711 -0.3817 -0.6574  0.2551
  367MOL0     O49445   6.715   9.904   6.602 -0.9447 -0.5575 -0.1081
  367MOL0     C49446   6.855   9.892   6.635 -0.3276  0.2565 -0.1087
  367MOL0     C49447   6.928   9.956   6.519 -0.0695 -0.7172  0.0757
  367MOL0     C49448   7.072   9.916   6.521 -0.0260  0.2425 -0.9460
  367MOL0     C49449   7.135   9.972   6.397 -0.1979  0.0082  0.3676
  367MOL0     C49450   7.290   9.979   6.399  0.3440  0.5904  0.4194
  367MOL0     C49451   7.361   9.848   6.420 -0.1767  0.4099 -0.7017
  367MOL0     C49452   7.516   9.838   6.373  0.1384 -0.0516  0.5326
  367MOL0     C49453   7.590   9.720   6.440  0.1361  0.4918  0.4929
  367MOL0    Cl49454   7.755   9.690   6.381 -0.1566 -0.1659  0.1138
  367MOL0     C49455   6.605   9.721   6.703 -0.1851 -0.5013 -0.6235
  367MOL0     C49456   6.522   9.663   6.807 -1.1007  0.7163 -0.7153
  367MOL0     O49457   6.277   9.535   6.932 -0.0626 -0.0099 -0.0145
  367MOL0     C49458   6.196   9.433   7.190 -0.1669 -0.6396 -0.2720
  367MOL0     C49459   6.166   9.372   7.317 -0.0349 -0.6379  0.2002
  367MOL0     N49460   6.234   8.839   7.766 -0.7226  0.8997  0.1443
  367MOL0     N49461   6.225   8.729   7.830  0.0743  0.0553 -0.1531
  367MOL0     C49462   6.402   7.993   7.042 -0.1696  0.1365 -0.2146
  367MOL0     C49463   6.515   7.920   7.067 -0.9582 -0.5952 -0.4498
  367MOL0     C49464   6.899   7.689   7.087 -0.3551 -0.7958  0.2905
  367MOL0     C49465   6.948   7.567   7.045 -0.4411  0.0386  0.1777
  367MOL0     C49466   7.083   7.519   7.064 -0.4892 -0.2251  0.0748
  367MOL0     C49467   7.174   7.600   7.135  0.3246  0.3895 -0.0028
  367MOL0     O49468   7.302   7.548   7.175 -0.2629 -0.2558  0.4517
  367MOL0     C49469   7.422   7.632   7.150  0.7438 -0.6255  0.0586
  367MOL0     C49470   7.464   7.586   7.001 -0.0032  0.4121 -0.7104
  367MOL0     C49471   7.536   7.459   7.014  0.6889 -0.2642 -0.0387
  367MOL0     C49472   7.566   7.406   6.875 -0.8157 -0.1677  0.2961
  367MOL0     C49473   7.620   7.267   6.889  0.6869 -0.7342 -0.2353
  367MOL0     C49474   7.651   7.154   6.915  0.3958 -0.2020  1.3928
  367MOL0     C49475   7.128   7.722   7.174 -0.3055 -0.9079 -0.0065
  367MOL0     C49476   6.995   7.759   7.171  1.0415  0.2117  1.4329
  367MOL0     C49477   6.966   7.884   7.253  0.4087 -0.3609 -0.6238
  367MOL0     H49478   6.748   8.074   6.889 -0.1433 -0.9697 -0.4245
  367MOL0     H49479   6.542   8.208   6.829 -0.2242 -0.5573  0.5575
  367MOL0     H49480   6.396   8.362   6.851 -3.5743  2.3274 -2.2406
  367MOL0     H49481   6.230   8.371   6.908 -0.2033  2.3506  2.4463
  367MOL0     H49482   6.390   8.492   7.038  3.4807 -0.7186 -0.2534
  367MOL0     H49483   6.483   8.356   7.086  0.4385 -2.0775 -3.1315
  367MOL0     H49484   6.266   8.257   7.190 -2.4003 -0.1563 -0.2789
  367MOL0     H49485   6.187   8.399   7.146 -1.0477  1.0095 -0.3685
  367MOL0     H49486   6.445   8.423   7.327 -0.7510  0.4707  4.9175
  367MOL0     H49487   6.328   8.551   7.273  1.5064  1.1165  2.9188
  367MOL0     H49488   6.156   8.418   7.408 -1.0947 -1.0050  1.8850
  367MOL0     H49489   6.281   8.297   7.446 -0.3798 -0.9373 -1.5242
  367MOL0     H49490   6.420   8.479   7.553 -0.4504 -1.3053 -1.7836
  367MOL0     H49491   6.281   8.585   7.536  1.6640  0.0992  0.2666
  367MOL0     H49492   6.243   8.336   7.708 -2.2488  0.5581 -0.4289
  367MOL0     H49493   6.130   8.454   7.668 -1.3760  0.3586  1.6303
  367MOL0     H49494   6.262   8.487   7.889  0.7984  1.7397  0.7039
  367MOL0     H49495   6.405   8.454   7.802  0.3420 -0.1319  2.2177
  367MOL0     H49496   6.488   8.685   7.636  0.4993  2.2469 -0.2812
  367MOL0     H49497   6.506   8.933   7.614 -0.8430 -4.1055  1.7159
  367MOL0     H49498   6.382   8.936   7.489  1.4017  0.4860 -1.1187
  367MOL0     H49499   6.348   9.103   7.739  0.8216  1.2500 -0.6548
  367MOL0     H49500   6.433   9.160   7.587 -0.1254  0.7468 -0.0223
  367MOL0     H49501   6.153   9.043   7.595 -1.8014  3.0983  2.2871
  367MOL0     H49502   6.227   9.116   7.459  1.0457  0.4375  0.3952
  367MOL0     H49503   6.177   9.262   7.718  2.4741  1.6928 -0.3228
  367MOL0     H49504   6.066   9.266   7.585 -1.3571 -0.8727  2.4528
  367MOL0     H49505   6.402   9.558   7.486  1.4197 -1.5289  0.4763
  367MOL0     H49506   6.415   9.672   7.280  1.1505 -1.0253  2.7640
  367MOL0     H49507   6.497   9.939   7.005 -0.1805 -2.5497  2.3979
  367MOL0     H49508   6.631  10.031   6.832  3.3246 -0.5607  1.8268
  367MOL0     H49509   6.890   9.943   6.726 -0.9340  2.9196 -1.2721
  367MOL0     H49510   6.885   9.787   6.634 -1.0677  0.0346 -0.2422
  367MOL0     H49511   6.882   9.939   6.421 -2.7289  0.8989  0.9382
  367MOL0     H49512   6.920  10.064   6.533 -0.0023 -0.5409 -1.1451
  367MOL0     H49513   7.125   9.961   6.605  1.0118  0.6210 -1.7745
  367MOL0     H49514   7.076   9.807   6.522  2.5976  0.2807 -0.2223
  367MOL0     H49515   7.106  10.077   6.384  1.3524  0.3125 -0.9981
  367MOL0     H49516   7.118   9.913   6.306  1.1382 -0.6131  0.4974
  367MOL0     H49517   7.320  10.052   6.475  2.9954 -0.4535  0.4824
  367MOL0     H49518   7.328  10.020   6.305 -0.9092  0.9560  0.0545
  367MOL0     H49519   7.357   9.824   6.526 -1.2625 -2.5009 -1.3164
  367MOL0     H49520   7.296   9.775   6.372  0.4216 -0.0009 -0.8971
  367MOL0     H49521   7.564   9.935   6.394  0.7931 -0.7330  2.4134
  367MOL0     H49522   7.520   9.813   6.266  1.0586  2.4078 -0.0862
  367MOL0     H49523   7.583   9.737   6.548 -0.4545 -4.0774  1.3858
  367MOL0     H49524   7.528   9.631   6.424 -1.0426  0.4898  4.0633
  367MOL0     H49525   6.641   9.663   6.619 -0.9736  0.9145 -1.9897
  367MOL0     H49526   6.501   9.557   6.813 -0.5768  0.6638  0.3135
  367MOL0     H49527   6.137   9.405   7.103  0.6775  0.5991 -1.2719
  367MOL0     H49528   6.093   9.294   7.336  1.9184 -1.8604  3.6737
  367MOL0     H49529   6.308   7.974   7.094  0.4341  2.9728  2.2641
  367MOL0     H49530   6.498   7.834   7.130 -0.6314  0.2924  0.8810
  367MOL0     H49531   6.874   7.507   6.992  1.4706 -1.2640 -1.1751
  367MOL0     H49532   7.112   7.418   7.037 -0.9258 -0.8888  1.9762
  367MOL0     H49533   7.496   7.612   7.228  0.0761 -2.7514  0.2002
  367MOL0     H49534   7.393   7.737   7.140  2.8293  0.1732  1.7265
  367MOL0     H49535   7.523   7.662   6.948  1.9215 -1.7260 -1.8034
  367MOL0     H49536   7.374   7.566   6.944 -1.6732  2.3889  1.0427
  367MOL0     H49537   7.468   7.392   7.067 -1.2818  1.1905 -0.5917
  367MOL0     H49538   7.625   7.462   7.077  1.0960 -1.2639 -0.5446
  367MOL0     H49539   7.476   7.417   6.813  0.0678  1.5902 -0.7495
  367MOL0     H49540   7.642   7.466   6.824 -0.2733 -0.1220  1.1479
  367MOL0     H49541   7.690   7.055   6.928 -0.0738 -0.9219 -1.9063
  367MOL0     H49542   7.189   7.799   7.219 -1.0090 -0.3511  0.0036
  367MOL0     H49543   6.862   7.866   7.281  0.2035  2.4313  0.6661
  367MOL0     H49544   7.027   7.891   7.343  0.4540 -0.1984 -0.6672
  367MOL0     H49545   6.973   7.973   7.190 -2.0913  0.3640  0.0374
  368MOL0     O49546   2.577   9.948   4.726  0.3821  0.2666  0.6127
  368MOL0     C49547   2.662   9.960   4.639 -0.7337  0.6969 -0.4797
  368MOL0     O49548   2.651   9.947   4.498  0.6565  0.5873  0.2530
  368MOL0     C49549   2.536   9.959   4.444 -0.0258  0.7493 -0.4970
  368MOL0     C49550   2.446  10.060   4.479  0.3010  0.6332 -0.2136
  368MOL0     C49551   2.312  10.055   4.423  0.6764  0.6805 -0.0671
  368MOL0     C49552   2.265   9.952   4.333 -0.0865  0.1854 -0.1409
  368MOL0     O49553   2.135   9.946   4.282  0.3761  0.4608 -0.0475
  368MOL0     C49554   2.068  10.070   4.238 -0.0285  0.6039  0.8711
  368MOL0     C49555   1.924  10.043   4.184 -0.7653 -0.1710  0.2058
  368MOL0     C49556   1.837   9.960   4.287  1.2375 -0.1496  0.2231
  368MOL0     C49557   1.693   9.944   4.219 -0.0898  0.3989  0.4459
  368MOL0     C49558   1.585   9.880   4.318 -0.6038  0.3364  0.5650
  368MOL0     C49559   1.564   9.983   4.434 -0.6333  0.8934  0.5811
  368MOL0     C49560   1.436   9.949   4.522 -0.9670  0.6408 -1.1498
  368MOL0     C49561   1.307   9.963   4.455  0.6533 -0.5363 -0.6680
  368MOL0     N49562   1.189   9.930   4.540 -0.3779 -0.4895 -0.0682
  368MOL0     C49563   1.186   9.911   4.673 -0.3013 -0.9429 -0.5847
  368MOL0     C49564   1.082   9.833   4.689  0.6411  1.0563 -0.3016
  368MOL0     C49565   1.048   9.786   4.825  0.2837  1.2422  0.0514
  368MOL0     C49566   0.899   9.811   4.852 -0.3191 -0.2830 -0.0857
  368MOL0     C49567   0.856   9.959   4.869 -0.0925  0.3971  0.1551
  368MOL0     C49568   0.706   9.969   4.895 -0.3352  0.2106  0.4352
  368MOL0     O49569   0.625   9.916   4.787  0.4125 -0.6539 -0.3326
  368MOL0     C49570   0.500   9.866   4.807 -0.7226 -0.2176  0.7974
  368MOL0     C49571   0.426   9.889   4.922 -0.8759  0.7293 -0.3680
  368MOL0     C49572   0.305   9.823   4.958 -0.0684  0.6225 -0.0074
  368MOL0     C49573   0.247   9.729   4.863 -0.0417  0.9043 -0.8459
  368MOL0     C49574   0.107   9.673   4.885  0.2657  0.1514  0.0938
  368MOL0     O49575   0.064   9.674   5.013 -0.7438  0.5461 -0.3667
  368MOL0     C49576  -0.029   9.590   5.065  0.0580  0.2361 -0.8936
  368MOL0     C49577  -0.078   9.629   5.191 -1.4091 -0.3883  0.1212
  368MOL0     C49578  -0.156   9.536   5.267 -1.0111  0.0414 -0.5724
  368MOL0     C49579  -0.172   9.400   5.216  0.1102 -0.7868 -0.8126
  368MOL0     O49580  -0.238   9.319   5.305 -0.5539 -0.2155  0.6004
  368MOL0     C49581  -0.201   9.182   5.306 -0.6076  0.1890 -0.2909
  368MOL0     C49582  -0.288   9.120   5.416  0.5432 -0.2984  0.1817
  368MOL0     C49583  -0.268   9.172   5.565 -0.4249  0.3620 -0.1421
  368MOL0     C49584  -0.343   9.065   5.658  0.0786  0.1015  0.7790
  368MOL0     C49585  -0.345   9.075   5.814 -0.2757 -0.6535  0.1000
  368MOL0     C49586  -0.445   8.973   5.877 -0.0572 -0.0446 -0.1633
  368MOL0     C49587  -0.428   8.976   6.032  0.4400 -0.1367 -0.0299
  368MOL0     C49588  -0.532   8.892   6.096 -0.1770  0.0531 -0.0410
  368MOL0    Cl49589  -0.492   8.859   6.268  0.8122 -0.4612 -0.1421
  368MOL0     C49590  -0.128   9.366   5.091  0.2641  0.0498 -0.4335
  368MOL0     C49591  -0.054   9.458   5.015  1.5429 -0.2235  0.6355
  368MOL0     O49592   0.041   9.628   4.784 -0.5327 -0.5054  0.3443
  368MOL0     C49593   0.321   9.709   4.744  0.9160  0.3344  0.7828
  368MOL0     C49594   0.447   9.780   4.715  0.1238 -0.4081 -0.2286
  368MOL0     N49595   1.014   9.815   4.571  0.5559 -0.2341 -0.4426
  368MOL0     N49596   1.082   9.879   4.476 -0.0871 -0.2293 -0.4084
  368MOL0     C49597   2.361   9.872   4.290 -0.4609  0.7338  0.6867
  368MOL0     C49598   2.495   9.871   4.343  0.7428 -0.5726  0.1834
  368MOL0     C49599   2.810   9.974   4.673  0.2956  0.2803  0.1850
  368MOL0     C49600   2.905  10.017   4.564  0.5009  0.1804  0.1698
  368MOL0     C49601   3.030  10.067   4.602  0.3302  0.7470  0.2172
  368MOL0     C49602   3.075  10.076   4.732  0.8094 -0.2945 -0.8032
  368MOL0     O49603   3.191  10.122   4.780  0.3817 -0.1715  0.0261
  368MOL0     C49604   3.283  10.185   4.695 -0.8158  0.4051 -0.8504
  368MOL0     C49605   3.368  10.078   4.623 -0.6400 -0.3179  0.4547
  368MOL0     C49606   3.466  10.150   4.536  0.0183  0.3506 -0.5595
  368MOL0     C49607   3.573  10.050   4.463 -0.8948  0.0947  0.4359
  368MOL0     C49608   3.623  10.116   4.337  0.3127 -0.3037  0.4376
  368MOL0     C49609   3.677  10.164   4.243  0.9099 -0.3360 -0.3084
  368MOL0     C49610   2.994  10.010   4.826 -0.4599 -0.4023 -0.0285
  368MOL0     C49611   2.857   9.971   4.807  0.6138 -0.6042  0.3324
  368MOL0     C49612   2.775   9.947   4.928  0.4717  0.0038  0.2969
  368MOL0     H49613   2.450  10.132   4.560 -1.8201 -0.0892  0.5930
  368MOL0     H49614   2.236  10.129   4.447  1.2726  1.5369 -0.7659
  368MOL0     H49615   2.054  10.150   4.311 -2.1104  0.1797  0.9959
  368MOL0     H49616   2.125  10.113   4.155  2.4991 -0.6283  1.8639
  368MOL0     H49617   1.934   9.991   4.089 -2.4826  0.6410 -0.4574
  368MOL0     H49618   1.881  10.141   4.164  0.9455  0.2329 -1.8853
  368MOL0     H49619   1.836  10.020   4.378  0.2195 -0.6499  0.5635
  368MOL0     H49620   1.873   9.865   4.328 -1.8797 -1.7216 -0.3497
  368MOL0     H49621   1.658  10.034   4.166 -1.8366 -1.8231 -2.5016
  368MOL0     H49622   1.711   9.861   4.151  1.4097 -0.2222  1.5564
  368MOL0     H49623   1.488   9.878   4.267 -1.3642 -2.3929  1.9543
  368MOL0     H49624   1.618   9.784   4.358 -1.1852  1.0228  2.8246
  368MOL0     H49625   1.649   9.992   4.503 -0.6547 -1.1162  0.9183
  368MOL0     H49626   1.550  10.080   4.385 -0.5372  0.2194 -0.8207
  368MOL0     H49627   1.434  10.022   4.604 -1.2615  0.0231 -0.6069
  368MOL0     H49628   1.449   9.851   4.569 -3.7770  0.8566  0.3417
  368MOL0     H49629   1.298  10.067   4.423  3.0958  0.6176  1.9295
  368MOL0     H49630   1.304   9.892   4.372 -0.9863 -2.7020  1.1023
  368MOL0     H49631   1.253   9.947   4.750 -1.0974  0.6534 -0.6023
  368MOL0     H49632   1.065   9.679   4.838  0.7305  1.3193  0.1245
  368MOL0     H49633   1.110   9.833   4.902 -0.9596  4.0586 -0.5208
  368MOL0     H49634   0.835   9.760   4.780 -2.1883 -1.1161  2.0657
  368MOL0     H49635   0.880   9.764   4.949  4.4739  2.5210  2.5905
  368MOL0     H49636   0.886  10.014   4.779 -0.0896  1.3477  0.7136
  368MOL0     H49637   0.896  10.007   4.959  0.2724  1.2055 -0.4282
  368MOL0     H49638   0.674  10.074   4.891 -0.8939  0.0028 -2.0232
  368MOL0     H49639   0.697   9.921   4.993  0.6586 -0.4319  0.2232
  368MOL0     H49640   0.479   9.957   4.987  0.7254  0.5355 -1.4090
  368MOL0     H49641   0.251   9.830   5.052  1.6685 -0.6423  1.1500
  368MOL0     H49642  -0.063   9.732   5.222  1.1011 -0.1151 -1.7165
  368MOL0     H49643  -0.201   9.559   5.363 -0.2209 -2.6299  0.5416
  368MOL0     H49644  -0.229   9.132   5.212 -4.4268  1.3958  0.0401
  368MOL0     H49645  -0.094   9.174   5.327 -0.1954  1.0273 -1.8664
  368MOL0     H49646  -0.392   9.135   5.384  0.9148 -1.0713 -1.5115
  368MOL0     H49647  -0.260   9.015   5.411 -0.1792 -0.4871 -0.0390
  368MOL0     H49648  -0.162   9.180   5.591 -0.8227  0.5600  1.4787
  368MOL0     H49649  -0.301   9.274   5.585 -0.7226  0.3942 -0.7692
  368MOL0     H49650  -0.310   8.963   5.634  0.0533  0.6095 -1.6697
  368MOL0     H49651  -0.443   9.081   5.618  1.1365  1.0765 -1.6818
  368MOL0     H49652  -0.369   9.179   5.841 -1.1610  0.5381 -4.4095
  368MOL0     H49653  -0.246   9.066   5.858 -1.0015  2.4662  2.7819
  368MOL0     H49654  -0.543   9.020   5.866  0.9892  1.9210 -1.5824
  368MOL0     H49655  -0.441   8.875   5.828 -0.4737  0.2743 -0.8502
  368MOL0     H49656  -0.445   9.077   6.071  1.6164 -0.1499  0.5330
  368MOL0     H49657  -0.329   8.933   6.048  0.4909 -0.9264 -2.0994
  368MOL0     H49658  -0.636   8.925   6.090 -0.5486 -0.2602  3.0879
  368MOL0     H49659  -0.526   8.790   6.056  1.8693 -0.0718  0.4316
  368MOL0     H49660  -0.151   9.268   5.048  0.0382  0.4297 -1.1991
  368MOL0     H49661  -0.030   9.429   4.913 -0.3417 -0.9010  0.3612
  368MOL0     H49662   0.270   9.644   4.674 -1.1030  2.9828 -0.3749
  368MOL0     H49663   0.482   9.745   4.619  0.6351 -2.6282  0.7054
  368MOL0     H49664   2.344   9.808   4.204 -0.2616  3.4111 -1.4805
  368MOL0     H49665   2.559   9.792   4.305  0.2216 -1.5827  1.3200
  368MOL0     H49666   2.881  10.029   4.459  3.9141  1.6485 -0.5686
  368MOL0     H49667   3.084  10.098   4.513 -0.1796  2.0576  0.3387
  368MOL0     H49668   3.342  10.248   4.762 -2.0674  0.3500  0.3240
  368MOL0     H49669   3.240  10.254   4.622 -1.1615 -0.9424 -1.9638
  368MOL0     H49670   3.311  10.012   4.557  1.1238 -0.6785 -0.7576
  368MOL0     H49671   3.404  10.027   4.713 -0.3150 -2.0072 -0.5893
  368MOL0     H49672   3.524  10.212   4.605 -0.0084  0.0974 -0.3048
  368MOL0     H49673   3.414  10.208   4.460 -0.2972 -1.0881 -1.4856
  368MOL0     H49674   3.663  10.030   4.523 -1.6925 -0.2235  1.5523
  368MOL0     H49675   3.519   9.961   4.430 -0.2979 -1.1655  2.6312
  368MOL0     H49676   3.727  10.206   4.159  0.4421  0.2278 -0.3166
  368MOL0     H49677   3.019  10.009   4.932 -3.4583  1.7558  0.8437
  368MOL0     H49678   2.714   9.857   4.913  0.9688 -0.3564  0.4107
  368MOL0     H49679   2.849   9.933   5.007  1.1548 -0.1991 -0.3685
  368MOL0     H49680   2.704  10.024   4.959 -1.4242 -1.8104  0.7005
  369MOL0     O49681   0.956   7.042  10.549  0.3620  0.0834 -0.8045
  369MOL0     C49682   0.906   7.100  10.644  0.6008 -0.0356 -0.4567
  369MOL0     O49683   0.897   7.230  10.668 -0.0632  0.1531  0.3097
  369MOL0     C49684   0.950   7.315  10.579 -0.0800  0.6315 -0.1601
  369MOL0     C49685   0.881   7.420  10.547  1.0233  0.4875  0.1312
  369MOL0     C49686   0.942   7.521  10.468  0.4888 -0.1233 -0.0933
  369MOL0     C49687   1.070   7.517  10.420 -0.0638  0.6638  0.6987
  369MOL0     O49688   1.116   7.621  10.337  0.1039 -0.1995  0.3786
  369MOL0     C49689   1.254   7.627  10.306 -0.3380 -0.5819  0.6676
  369MOL0     C49690   1.279   7.750  10.221 -0.1609  0.0405 -0.2947
  369MOL0     C49691   1.259   7.750  10.064 -0.5938  0.3746 -0.0253
  369MOL0     C49692   1.370   7.674   9.993 -0.5753  1.2169  0.5315
  369MOL0     C49693   1.332   7.630   9.847  0.5200 -0.8002 -0.2381
  369MOL0     C49694   1.451   7.653   9.756 -0.4376  0.4725  0.5237
  369MOL0     C49695   1.428   7.585   9.624 -0.5156 -0.8090 -0.1937
  369MOL0     C49696   1.481   7.658   9.498  0.4605 -0.6140  0.7176
  369MOL0     N49697   1.628   7.662   9.479  0.0049 -1.0237 -0.0206
  369MOL0     C49698   1.689   7.575   9.390 -0.5015 -0.0911 -0.7339
  369MOL0     C49699   1.821   7.611   9.388  0.8742  0.5708 -0.3938
  369MOL0     C49700   1.936   7.562   9.300 -0.5969 -0.1329 -0.6880
  369MOL0     C49701   1.999   7.437   9.364 -0.0150 -0.3978 -0.1797
  369MOL0     C49702   1.916   7.312   9.385  0.3368 -0.6675  0.8525
  369MOL0     C49703   1.983   7.193   9.458 -0.4805 -0.7369  0.7838
  369MOL0     O49704   2.078   7.145   9.374 -0.5268  0.4260 -0.2021
  369MOL0     C49705   2.158   7.038   9.412 -0.2960 -0.5289 -0.4086
  369MOL0     C49706   2.282   7.040   9.374  0.6526  0.6082  0.1498
  369MOL0     C49707   2.370   6.929   9.416  0.5118  0.1144  0.7926
  369MOL0     C49708   2.320   6.824   9.486 -0.0395 -0.8653  0.9034
  369MOL0     C49709   2.405   6.708   9.519 -0.4578 -1.3173  0.5322
  369MOL0     O49710   2.345   6.587   9.523  0.7594 -0.2853 -0.0132
  369MOL0     C49711   2.405   6.464   9.559 -0.0516  0.5944  0.0181
  369MOL0     C49712   2.340   6.346   9.522 -0.3839 -0.4512  0.4198
  369MOL0     C49713   2.387   6.218   9.557  0.2911  0.6262 -0.4693
  369MOL0     C49714   2.487   6.199   9.651 -0.6602 -1.1903 -0.1026
  369MOL0     O49715   2.526   6.074   9.695  0.7799  0.3650 -0.3389
  369MOL0     C49716   2.430   5.984   9.752 -0.5719 -0.6151  0.5432
  369MOL0     C49717   2.482   5.953   9.889 -0.2370 -0.0349  0.0720
  369MOL0     C49718   2.618   5.879   9.902  0.6214  0.5930  1.0500
  369MOL0     C49719   2.609   5.749   9.829 -0.2967 -0.1396  1.0338
  369MOL0     C49720   2.719   5.648   9.886  0.6348  0.0300  0.4414
  369MOL0     C49721   2.695   5.511   9.812  0.0442 -0.0446  0.6093
  369MOL0     C49722   2.777   5.401   9.880 -0.3828 -0.2766 -0.1658
  369MOL0     C49723   2.720   5.267   9.853 -0.0201 -0.3829  0.1022
  369MOL0    Cl49724   2.572   5.220   9.969 -0.0990  0.3942  0.7022
  369MOL0     C49725   2.555   6.322   9.698  0.5231 -0.3910 -0.5011
  369MOL0     C49726   2.513   6.451   9.639 -0.1628 -0.1709  0.4869
  369MOL0     O49727   2.519   6.731   9.559  0.0656 -0.2434  0.4025
  369MOL0     C49728   2.186   6.831   9.520 -1.6320 -0.0218 -0.4227
  369MOL0     C49729   2.096   6.935   9.479  0.1622 -0.7928 -0.0179
  369MOL0     N49730   1.838   7.712   9.474 -0.2090  0.3292  0.2786
  369MOL0     N49731   1.724   7.733   9.534 -0.2156  0.1605 -0.0649
  369MOL0     C49732   1.139   7.405  10.444 -0.0096 -0.8922 -0.1771
  369MOL0     C49733   1.083   7.308  10.530 -0.8669 -0.0818  0.9058
  369MOL0     C49734   0.838   7.012  10.746 -0.2681 -1.3152 -0.4164
  369MOL0     C49735   0.708   7.053  10.778  0.3082 -0.2478 -0.7219
  369MOL0     C49736   0.627   6.977  10.863  0.8724 -0.0551  0.0422
  369MOL0     C49737   0.665   6.846  10.894  0.2695  0.1462  0.1774
  369MOL0     O49738   0.588   6.767  10.974  0.4569 -0.0187  0.8568
  369MOL0     C49739   0.593   6.623  10.945  0.2106 -0.3045  0.2040
  369MOL0     C49740   0.479   6.559  11.006  0.4234  0.3618 -0.4536
  369MOL0     C49741   0.511   6.406  10.983 -0.2887  0.7536  0.4571
  369MOL0     C49742   0.378   6.318  10.970 -0.1475  0.2175 -0.1627
  369MOL0     C49743   0.320   6.301  11.100 -0.5385  0.1014 -0.3238
  369MOL0     C49744   0.257   6.294  11.202  0.3201  0.0620 -0.4376
  369MOL0     C49745   0.796   6.808  10.855  0.2964 -0.2255 -0.1645
  369MOL0     C49746   0.886   6.888  10.784 -0.5489  0.4721 -0.8479
  369MOL0     C49747   1.024   6.839  10.749  0.2643  0.5469 -0.2497
  369MOL0     H49748   0.783   7.444  10.587 -0.2811  1.0592 -3.0624
  369MOL0     H49749   0.883   7.610  10.447 -0.2532 -1.1408 -2.7052
  369MOL0     H49750   1.310   7.636  10.399 -1.6135  0.2766  1.3985
  369MOL0     H49751   1.285   7.538  10.251  0.9730 -1.8807  3.3368
  369MOL0     H49752   1.380   7.788  10.241  0.6146 -1.4993 -1.1266
  369MOL0     H49753   1.206   7.822  10.260 -1.4644 -0.0543 -2.4065
  369MOL0     H49754   1.246   7.850  10.023 -0.8900  1.2301  2.0003
  369MOL0     H49755   1.161   7.706  10.044 -1.1339  1.4384  0.2051
  369MOL0     H49756   1.462   7.732  10.007  1.5025 -1.1652 -1.8520
  369MOL0     H49757   1.388   7.576  10.039  0.3085  2.9843  4.3351
  369MOL0     H49758   1.300   7.525   9.847  1.1568 -1.0813  2.4788
  369MOL0     H49759   1.247   7.687   9.809 -0.0626 -0.1993  1.8289
  369MOL0     H49760   1.474   7.757   9.731  1.5192 -0.4404 -2.0111
  369MOL0     H49761   1.531   7.595   9.804 -1.2203 -3.6082 -2.5208
  369MOL0     H49762   1.320   7.571   9.611 -0.6381  0.2446 -0.3422
  369MOL0     H49763   1.463   7.481   9.622 -1.0518 -0.9849 -0.8420
  369MOL0     H49764   1.439   7.616   9.406  1.0166  1.1426 -0.3992
  369MOL0     H49765   1.448   7.762   9.501  0.7819 -0.5073  3.6990
  369MOL0     H49766   1.640   7.499   9.330 -0.5281 -1.0673  0.4854
  369MOL0     H49767   1.888   7.543   9.204  1.1480 -1.1838 -1.4076
  369MOL0     H49768   2.016   7.637   9.300  0.1056 -0.8674 -1.4043
  369MOL0     H49769   2.085   7.404   9.305  0.7616  0.9527  0.1391
  369MOL0     H49770   2.045   7.466   9.459 -0.9011  0.6276 -0.0401
  369MOL0     H49771   1.868   7.277   9.293 -2.4703  2.8753  0.7339
  369MOL0     H49772   1.826   7.332   9.443 -1.2694  1.1798 -2.0501
  369MOL0     H49773   1.908   7.121   9.492 -0.0250 -1.2904  0.6347
  369MOL0     H49774   2.043   7.222   9.544  0.4931  0.0018 -0.1173
  369MOL0     H49775   2.324   7.133   9.337 -2.5200  2.0857 -0.1438
  369MOL0     H49776   2.474   6.927   9.383  0.1571  0.9491 -0.4521
  369MOL0     H49777   2.250   6.372   9.467  0.0700  2.2784  0.8032
  369MOL0     H49778   2.327   6.136   9.519  0.6557  0.3097 -0.3603
  369MOL0     H49779   2.333   6.032   9.768 -1.3816 -2.7731  2.8111
  369MOL0     H49780   2.416   5.888   9.702 -1.3125 -0.7201  0.9407
  369MOL0     H49781   2.477   6.048   9.944 -2.1788 -0.3242  0.4638
  369MOL0     H49782   2.409   5.892   9.943  1.1421 -2.0885 -0.2861
  369MOL0     H49783   2.692   5.948   9.858 -2.3022  2.4389 -1.3479
  369MOL0     H49784   2.636   5.872  10.010 -1.2576 -2.5245  1.2650
  369MOL0     H49785   2.623   5.763   9.721  0.0581  2.6927  1.3787
  369MOL0     H49786   2.509   5.706   9.845 -1.2738  2.0203  1.0177
  369MOL0     H49787   2.696   5.640   9.993  0.7161 -1.2705  0.3727
  369MOL0     H49788   2.820   5.684   9.869  0.8962 -1.6405 -2.0593
  369MOL0     H49789   2.593   5.483   9.840  0.5549 -0.3174  2.3141
  369MOL0     H49790   2.704   5.520   9.704 -0.6243 -0.2447  0.5318
  369MOL0     H49791   2.789   5.417   9.987 -0.1045 -2.0150  0.0917
  369MOL0     H49792   2.874   5.404   9.830 -0.5505  0.1989 -0.4743
  369MOL0     H49793   2.678   5.260   9.751 -2.5513 -1.3183  1.1120
  369MOL0     H49794   2.796   5.189   9.859 -0.5487 -0.8012  2.2172
  369MOL0     H49795   2.633   6.307   9.772 -0.0415 -2.9099 -0.3475
  369MOL0     H49796   2.571   6.538   9.670  0.9513 -1.6844  2.9560
  369MOL0     H49797   2.157   6.734   9.559  1.8655 -1.3424 -0.7840
  369MOL0     H49798   1.996   6.922   9.520  0.6056 -1.1944  0.9739
  369MOL0     H49799   1.240   7.397  10.404  0.6639  3.2483  0.2646
  369MOL0     H49800   1.151   7.225  10.548 -2.3572 -2.0095 -1.6338
  369MOL0     H49801   0.676   7.146  10.732  0.5445  1.3606  2.1299
  369MOL0     H49802   0.529   7.012  10.893  1.3924  0.7250  0.8678
  369MOL0     H49803   0.688   6.592  10.989 -0.6631  0.5112  2.8547
  369MOL0     H49804   0.590   6.591  10.840 -2.4378 -2.8772  0.9072
  369MOL0     H49805   0.380   6.587  10.968 -0.0799  0.9463  1.1899
  369MOL0     H49806   0.478   6.581  11.113  0.9412  0.7861 -0.5314
  369MOL0     H49807   0.582   6.375  11.059 -0.5741  3.8051  2.1169
  369MOL0     H49808   0.567   6.385  10.891 -0.0481  0.9253  0.5640
  369MOL0     H49809   0.303   6.373  10.913  1.9834  1.9595 -1.4560
  369MOL0     H49810   0.402   6.221  10.927  0.5492 -0.2784  1.2784
  369MOL0     H49811   0.219   6.285  11.302  0.4258  0.9425 -0.3078
  369MOL0     H49812   0.835   6.708  10.875 -1.0088 -0.6898  0.1668
  369MOL0     H49813   1.049   6.767  10.827  0.5930 -0.7287 -1.4963
  369MOL0     H49814   1.015   6.804  10.645  0.5516 -0.0601 -0.0740
  369MOL0     H49815   1.103   6.915  10.744  0.2774  0.5525  0.0464
  370MOL0     O49816   0.137  10.207   4.454 -0.3706 -0.2259 -0.1133
  370MOL0     C49817   0.036  10.181   4.398 -0.4040  1.2677  0.2817
  370MOL0     O49818  -0.027  10.264   4.308  0.6595  0.0235 -0.0407
  370MOL0     C49819   0.013  10.390   4.307 -0.4401  0.5938  0.3904
  370MOL0     C49820   0.130  10.428   4.241  0.0594 -0.5774  0.2016
  370MOL0     C49821   0.155  10.566   4.208  0.7620 -0.2294 -0.2350
  370MOL0     C49822   0.069  10.672   4.267  0.1034  0.1696 -0.3034
  370MOL0     O49823   0.074  10.806   4.243  0.0417 -0.3579 -0.4826
  370MOL0     C49824   0.112  10.848   4.112  0.7966  0.3695 -0.4975
  370MOL0     C49825   0.069  11.001   4.085  0.4916 -0.3511 -1.0437
  370MOL0     C49826  -0.076  11.037   4.124 -1.6310 -0.1794  0.2095
  370MOL0     C49827  -0.118  11.181   4.101 -0.5569 -1.4928 -0.8389
  370MOL0     C49828  -0.269  11.204   4.147 -1.0335 -0.7638 -0.1687
  370MOL0     C49829  -0.374  11.185   4.031  0.0948 -1.0400  0.4339
  370MOL0     C49830  -0.509  11.230   4.083  1.2726 -0.5061  0.1641
  370MOL0     C49831  -0.544  11.381   4.068  0.5335 -0.2181  0.4699
  370MOL0     N49832  -0.627  11.400   3.949 -0.4713  1.3792  0.5220
  370MOL0     C49833  -0.574  11.416   3.827 -0.6217  0.4856 -0.1627
  370MOL0     C49834  -0.685  11.413   3.741 -0.5238  0.2299 -1.1120
  370MOL0     C49835  -0.685  11.434   3.590 -0.6785  0.6374  0.7421
  370MOL0     C49836  -0.557  11.375   3.529 -0.6210  0.0181 -0.1209
  370MOL0     C49837  -0.576  11.225   3.492  0.6095 -0.4905  1.0807
  370MOL0     C49838  -0.482  11.174   3.388  0.0248  0.6996  0.6253
  370MOL0     O49839  -0.506  11.236   3.253  0.4627 -0.2831  0.5352
  370MOL0     C49840  -0.620  11.188   3.187 -0.1910  0.4210  0.9475
  370MOL0     C49841  -0.695  11.286   3.121  0.4083 -0.8922 -0.5944
  370MOL0     C49842  -0.821  11.250   3.064 -0.2818  0.1230  0.5185
  370MOL0     C49843  -0.869  11.122   3.072 -0.8448 -0.1567  1.0580
  370MOL0     C49844  -0.988  11.086   3.004 -0.2173 -1.0497  0.3415
  370MOL0     O49845  -1.045  11.183   2.923 -0.9856 -0.1993 -1.2441
  370MOL0     C49846  -1.163  11.158   2.878  0.6626  0.1203  0.4629
  370MOL0     C49847  -1.186  11.177   2.745 -0.5557 -1.2391 -0.1873
  370MOL0     C49848  -1.311  11.180   2.678 -0.0279  0.3879 -0.9123
  370MOL0     C49849  -1.424  11.173   2.754  0.0299 -0.4385 -0.6756
  370MOL0     O49850  -1.550  11.180   2.699  1.1132  0.7736 -0.3073
  370MOL0     C49851  -1.559  11.196   2.562  0.1124  0.3280 -0.3937
  370MOL0     C49852  -1.702  11.201   2.522  0.2945 -0.2104 -0.0941
  370MOL0     C49853  -1.753  11.337   2.558 -0.3612 -0.1108  0.1627
  370MOL0     C49854  -1.887  11.370   2.506  0.0173 -0.8356 -0.6577
  370MOL0     C49855  -1.932  11.506   2.573 -0.3178 -0.7716 -0.5888
  370MOL0     C49856  -2.069  11.546   2.519  0.5572 -0.4131 -0.4362
  370MOL0     C49857  -2.113  11.685   2.556  0.7357 -0.0091 -0.5473
  370MOL0     C49858  -2.247  11.737   2.494 -0.4267  0.1977 -0.4536
  370MOL0    Cl49859  -2.317  11.599   2.405  0.1544  0.0569 -0.1313
  370MOL0     C49860  -1.402  11.162   2.892  0.1022  0.1438  0.7484
  370MOL0     C49861  -1.277  11.151   2.955 -0.1489  0.3440 -0.8071
  370MOL0     O49862  -1.031  10.973   3.028  0.6431  0.2144 -0.2859
  370MOL0     C49863  -0.799  11.027   3.153 -0.2157  0.2414  0.3740
  370MOL0     C49864  -0.672  11.058   3.211  0.4546 -0.8252 -0.7132
  370MOL0     N49865  -0.792  11.369   3.821 -1.0600 -0.5329 -0.0882
  370MOL0     N49866  -0.755  11.364   3.937  1.2723  0.0510 -0.4745
  370MOL0     C49867  -0.041  10.628   4.348 -0.3681 -0.0547 -0.6548
  370MOL0     C49868  -0.076  10.487   4.354 -0.7750  0.1559  0.8081
  370MOL0     C49869  -0.026  10.054   4.424  0.5402 -0.9940  0.8822
  370MOL0     C49870  -0.157  10.030   4.363 -0.2890  0.3124 -0.5870
  370MOL0     C49871  -0.241   9.923   4.389 -0.4069 -0.4916 -0.2599
  370MOL0     C49872  -0.199   9.823   4.468  0.4271  0.0403  0.5715
  370MOL0     O49873  -0.281   9.717   4.477 -0.0643  0.8960  0.8390
  370MOL0     C49874  -0.368   9.715   4.591  0.1950 -0.0338 -0.5470
  370MOL0     C49875  -0.471   9.592   4.605 -0.3867  0.2444  0.4556
  370MOL0     C49876  -0.603   9.615   4.525 -0.1479 -0.2338 -0.2085
  370MOL0     C49877  -0.696   9.491   4.523  0.1438  0.6839 -0.1748
  370MOL0     C49878  -0.764   9.490   4.654  0.0395 -0.0015 -0.0321
  370MOL0     C49879  -0.837   9.469   4.748  0.6350  0.7984  1.0643
  370MOL0     C49880  -0.069   9.835   4.524 -0.1388  0.0074 -0.2412
  370MOL0     C49881   0.017   9.944   4.506 -0.5635  0.3191  0.2988
  370MOL0     C49882   0.158   9.938   4.558  0.6891 -0.2067  0.0076
  370MOL0     H49883   0.203  10.354   4.208  0.6677 -0.1665  0.6166
  370MOL0     H49884   0.236  10.605   4.146 -0.2609 -0.0851 -1.5208
  370MOL0     H49885   0.218  10.825   4.097  0.6340 -3.0892  2.3024
  370MOL0     H49886   0.071  10.782   4.035 -1.8484  0.2746  0.8907
  370MOL0     H49887   0.082  11.036   3.982  1.6167 -0.2056 -0.8660
  370MOL0     H49888   0.141  11.057   4.145 -0.3592  2.2115 -2.2514
  370MOL0     H49889  -0.097  11.015   4.229  2.2619  0.1176  1.2048
  370MOL0     H49890  -0.127  10.970   4.054  2.8772 -2.8577 -0.9932
  370MOL0     H49891  -0.052  11.249   4.157 -2.0507  0.3745 -1.2183
  370MOL0     H49892  -0.104  11.203   3.995 -0.0521 -0.1383 -0.5116
  370MOL0     H49893  -0.298  11.135   4.227 -2.5898  0.3265  0.2466
  370MOL0     H49894  -0.270  11.307   4.183  2.8020  0.0167 -1.7859
  370MOL0     H49895  -0.347  11.243   3.942 -0.7072  0.1927  0.9723
  370MOL0     H49896  -0.384  11.079   4.006  1.9466 -0.9640 -0.8480
  370MOL0     H49897  -0.522  11.203   4.188  2.3115  1.2275  0.7696
  370MOL0     H49898  -0.581  11.172   4.024 -0.9694  1.7052  0.5474
  370MOL0     H49899  -0.605  11.420   4.151 -0.8326  2.1141 -1.4956
  370MOL0     H49900  -0.454  11.443   4.073 -1.1012  2.2494  1.8412
  370MOL0     H49901  -0.472  11.437   3.800 -0.3556  0.0322  0.4691
  370MOL0     H49902  -0.770  11.395   3.534  2.3926 -1.9193 -2.6355
  370MOL0     H49903  -0.702  11.539   3.567  0.5820  0.2264 -2.6738
  370MOL0     H49904  -0.545  11.422   3.431  2.7816  0.2742  0.3205
  370MOL0     H49905  -0.473  11.388   3.597  0.5333 -3.9086 -0.5060
  370MOL0     H49906  -0.677  11.214   3.452  0.4624  1.8516  0.6209
  370MOL0     H49907  -0.578  11.182   3.593 -3.1271  0.1913  1.4473
  370MOL0     H49908  -0.477  11.064   3.387  0.0825  0.6761  1.7598
  370MOL0     H49909  -0.383  11.208   3.418  1.1856 -2.2250  0.4176
  370MOL0     H49910  -0.651  11.384   3.103 -0.4353 -1.1086 -4.8190
  370MOL0     H49911  -0.862  11.333   3.008  1.3583 -0.2271 -1.3360
  370MOL0     H49912  -1.095  11.184   2.686 -0.9325  1.4003 -0.5836
  370MOL0     H49913  -1.317  11.171   2.570 -4.5923 -3.3762 -0.6772
  370MOL0     H49914  -1.508  11.281   2.516  2.4533 -1.8695 -2.0991
  370MOL0     H49915  -1.514  11.109   2.514  1.7080  0.6961  0.3849
  370MOL0     H49916  -1.710  11.178   2.415 -0.8478  0.0187 -0.0723
  370MOL0     H49917  -1.744  11.119   2.581  2.4750 -0.2094  1.5676
  370MOL0     H49918  -1.759  11.340   2.667  0.2359 -3.8044  0.4270
  370MOL0     H49919  -1.686  11.415   2.519 -0.2752 -1.5257 -2.8928
  370MOL0     H49920  -1.950  11.287   2.542  0.3510  0.3075  2.9309
  370MOL0     H49921  -1.889  11.380   2.397  0.6124 -2.1352 -0.8168
  370MOL0     H49922  -1.855  11.580   2.552 -0.1837 -0.7465 -0.0193
  370MOL0     H49923  -1.924  11.502   2.682 -1.2649 -0.9512 -0.5156
  370MOL0     H49924  -2.067  11.534   2.411  1.2125 -2.7711 -0.2211
  370MOL0     H49925  -2.142  11.481   2.568  1.4687 -0.0425  1.5057
  370MOL0     H49926  -2.027  11.749   2.536  0.7151  0.9090  1.9453
  370MOL0     H49927  -2.139  11.680   2.663 -1.1707 -2.4981 -1.0270
  370MOL0     H49928  -2.308  11.771   2.577  0.8037 -0.2227  0.6540
  370MOL0     H49929  -2.222  11.817   2.424 -1.9269  1.6143  0.5469
  370MOL0     H49930  -1.499  11.175   2.939 -0.1010  2.2663 -0.1642
  370MOL0     H49931  -1.264  11.145   3.063 -0.4098  0.8484 -0.7412
  370MOL0     H49932  -0.829  10.924   3.163 -2.5393  1.0139  2.3964
  370MOL0     H49933  -0.615  10.982   3.263  1.4817 -1.0480 -2.0995
  370MOL0     H49934  -0.095  10.696   4.414  1.2585 -0.7736  1.5397
  370MOL0     H49935  -0.173  10.453   4.389 -1.4747  2.0299  0.8007
  370MOL0     H49936  -0.203  10.103   4.297 -0.7322 -0.0471 -0.6839
  370MOL0     H49937  -0.343   9.923   4.352 -0.2512  0.3747 -0.7210
  370MOL0     H49938  -0.416   9.812   4.577  3.8790  1.6520 -2.8340
  370MOL0     H49939  -0.304   9.712   4.680 -2.3207  1.7130  1.4695
  370MOL0     H49940  -0.484   9.581   4.713  2.1248  1.3716  0.9400
  370MOL0     H49941  -0.428   9.502   4.560 -0.5104  1.6293 -2.7781
  370MOL0     H49942  -0.582   9.632   4.419  0.8816 -0.1202  0.0069
  370MOL0     H49943  -0.652   9.701   4.571  1.2180  0.6334 -0.3233
  370MOL0     H49944  -0.772   9.496   4.444 -0.7942 -1.3253  0.5277
  370MOL0     H49945  -0.640   9.400   4.500 -1.9985  0.1309 -4.1341
  370MOL0     H49946  -0.915   9.458   4.820 -2.0054  2.1834 -1.4080
  370MOL0     H49947  -0.030   9.748   4.576 -1.5493  0.2802  1.3454
  370MOL0     H49948   0.238   9.955   4.486  1.1428  0.0855  0.5656
  370MOL0     H49949   0.170  10.000   4.647  0.5789 -0.1136 -0.0420
  370MOL0     H49950   0.164   9.839   4.604  1.0952  0.9623  2.6915
  371MOL0     O49951   9.889  11.003  10.357 -0.0326  1.4238 -0.0672
  371MOL0     C49952   9.925  10.887  10.348 -0.0615  0.1264  0.2098
  371MOL0     O49953   9.850  10.775  10.300  0.1596 -0.1114 -0.3777
  371MOL0     C49954   9.730  10.808  10.234  0.3910 -0.1877 -0.5507
  371MOL0     C49955   9.716  10.907  10.139  0.4578 -0.4934 -0.6616
  371MOL0     C49956   9.588  10.933  10.084 -0.4522 -0.7082 -0.2594
  371MOL0     C49957   9.476  10.857  10.117 -0.3267  0.5517  0.9281
  371MOL0     O49958   9.353  10.893  10.080  0.6521 -0.4654  0.6099
  371MOL0     C49959   9.334  10.984   9.969  0.4825  0.3063 -0.5212
  371MOL0     C49960   9.305  11.123  10.016  0.5577  0.0232 -0.3759
  371MOL0     C49961   9.200  11.134  10.124 -1.6694  0.0361 -0.1300
  371MOL0     C49962   9.214  11.280  10.183 -0.5333 -0.1472 -0.3148
  371MOL0     C49963   9.155  11.403  10.108 -1.0036 -0.1485 -0.0529
  371MOL0     C49964   9.170  11.544  10.173  0.1846  0.3570  0.0042
  371MOL0     C49965   9.101  11.545  10.311  0.6894  0.4734  0.1147
  371MOL0     C49966   8.946  11.528  10.308  0.4256  0.1819 -0.7979
  371MOL0     N49967   8.888  11.630  10.220 -0.5569  0.5916 -0.1723
  371MOL0     C49968   8.894  11.765  10.248  0.0921 -0.7297  0.1342
  371MOL0     C49969   8.834  11.817  10.141  0.9271 -0.1376 -0.7447
  371MOL0     C49970   8.820  11.976  10.128 -0.1049 -0.1167  0.3441
  371MOL0     C49971   8.673  12.023  10.137  0.2004 -0.3189  0.6527
  371MOL0     C49972   8.665  12.165  10.080 -0.5812  0.2197 -1.2712
  371MOL0     C49973   8.522  12.232  10.084 -0.2119 -0.7493  0.3990
  371MOL0     O49974   8.424  12.154  10.004 -0.2325  1.0030  0.2367
  371MOL0     C49975   8.292  12.172  10.012 -0.5604 -0.1593 -0.3234
  371MOL0     C49976   8.219  12.096   9.925  0.2427  0.2686 -0.0017
  371MOL0     C49977   8.075  12.107   9.921 -0.4369 -0.2409 -0.1155
  371MOL0     C49978   8.013  12.202  10.000 -0.1710 -0.6225 -0.9137
  371MOL0     C49979   7.861  12.211  10.016  0.4556 -0.5882  0.7222
  371MOL0     O49980   7.814  12.270  10.130 -0.3048 -0.1311 -0.2229
  371MOL0     C49981   7.679  12.281  10.174 -0.1528 -0.4369  0.6411
  371MOL0     C49982   7.556  12.234  10.110  0.6728  0.4966 -0.4311
  371MOL0     C49983   7.439  12.263  10.178 -0.6515  0.2524 -0.3201
  371MOL0     C49984   7.440  12.349  10.292  0.1038  0.6037  0.3546
  371MOL0     O49985   7.307  12.365  10.337 -0.1405 -0.2652 -0.3748
  371MOL0     C49986   7.281  12.447  10.455 -0.6455 -0.4137 -0.0768
  371MOL0     C49987   7.188  12.555  10.409 -0.6337 -0.5618  0.1805
  371MOL0     C49988   7.039  12.527  10.429 -0.1171 -0.8857  0.4600
  371MOL0     C49989   6.990  12.448  10.307 -0.0826 -0.6620 -0.0186
  371MOL0     C49990   6.859  12.376  10.328 -0.5123 -0.0493  0.7031
  371MOL0     C49991   6.830  12.293  10.207  0.6067  0.8300  0.4487
  371MOL0     C49992   6.678  12.289  10.172 -0.2151 -0.2154 -1.1452
  371MOL0     C49993   6.637  12.390  10.060 -0.5185 -0.6924 -0.5912
  371MOL0    Cl49994   6.478  12.361   9.995  0.1068  0.3168 -0.1092
  371MOL0     C49995   7.556  12.406  10.334  0.9947 -0.9960 -0.0266
  371MOL0     C49996   7.675  12.370  10.281 -0.5271  0.6821  1.1842
  371MOL0     O49997   7.795  12.140   9.947  0.2138  0.1195 -0.1288
  371MOL0     C49998   8.089  12.289  10.085  0.1835 -0.1234  0.2674
  371MOL0     C49999   8.226  12.266  10.099 -0.4958 -0.0107 -0.1530
  371MOL0     N50000   8.810  11.724  10.044  0.3041  0.3972  0.2003
  371MOL0     N50001   8.836  11.609  10.098 -0.3905  0.0701  0.1234
  371MOL0     C50002   9.495  10.753  10.202 -0.2610 -0.7764 -0.3092
  371MOL0     C50003   9.615  10.724  10.261 -0.9769 -0.3089 -0.6717
  371MOL0     C50004  10.060  10.854  10.394  1.0267 -0.1335 -0.1814
  371MOL0     C50005  10.125  10.951  10.476 -0.8783  0.4293  1.0696
  371MOL0     C50006  10.244  10.938  10.528  0.2672  0.2019  0.5940
  371MOL0     C50007  10.316  10.815  10.514 -0.2519  0.1035 -0.3071
  371MOL0     O50008  10.445  10.783  10.582  0.0231 -0.5190  0.5446
  371MOL0     C50009  10.486  10.875  10.680  0.1873 -0.1761  0.6815
  371MOL0     C50010  10.629  10.834  10.716  0.2026 -0.1012 -0.4288
  371MOL0     C50011  10.681  10.919  10.831  0.2285  0.6907  0.1574
  371MOL0     C50012  10.813  10.860  10.896  1.1868  0.6034  0.2027
  371MOL0     C50013  10.908  10.965  10.935 -0.5098 -0.7726  0.0706
  371MOL0     C50014  10.980  11.058  10.972 -0.4816  0.2745 -0.2671
  371MOL0     C50015  10.272  10.725  10.417  0.0333  0.3852 -1.2050
  371MOL0     C50016  10.141  10.739  10.363 -0.7446 -0.6001  0.4138
  371MOL0     C50017  10.097  10.642  10.267  0.5057 -0.3706  0.6479
  371MOL0     H50018   9.804  10.964  10.111 -0.8221  0.5749 -2.7307
  371MOL0     H50019   9.594  11.017  10.016  1.4145  0.5544  1.3658
  371MOL0     H50020   9.408  10.979   9.889  1.5317  0.3310  0.4310
  371MOL0     H50021   9.243  10.943   9.924  1.5426 -0.2032 -2.3088
  371MOL0     H50022   9.277  11.183   9.929  1.7795 -0.2747 -1.0094
  371MOL0     H50023   9.401  11.163  10.050  0.4595  1.7111 -1.9525
  371MOL0     H50024   9.230  11.059  10.197  0.5359  1.1552  0.2103
  371MOL0     H50025   9.099  11.116  10.086 -0.9010 -1.4783 -1.6065
  371MOL0     H50026   9.167  11.270  10.282  3.5592 -1.2174  1.7428
  371MOL0     H50027   9.316  11.307  10.211 -1.7480  1.1874  3.5958
  371MOL0     H50028   9.200  11.405  10.008  1.7111  5.2935  0.9612
  371MOL0     H50029   9.049  11.379  10.090 -1.4505  0.5706  1.4549
  371MOL0     H50030   9.278  11.564  10.175 -0.0339  2.4696 -2.9688
  371MOL0     H50031   9.131  11.628  10.115  1.3168  1.2650  0.4999
  371MOL0     H50032   9.117  11.628  10.380 -1.3730 -0.2030  1.5171
  371MOL0     H50033   9.142  11.462  10.369  0.6000  2.2272  2.8239
  371MOL0     H50034   8.916  11.425  10.284  0.0864  0.3365 -1.0465
  371MOL0     H50035   8.909  11.548  10.409 -0.3491  1.9775 -1.3807
  371MOL0     H50036   8.922  11.820  10.337  0.0132 -1.8059  0.8397
  371MOL0     H50037   8.890  12.023  10.197  1.4545  2.0597 -2.5185
  371MOL0     H50038   8.861  12.009  10.033 -1.0261  4.3773  1.2583
  371MOL0     H50039   8.614  11.968  10.064  0.4408 -0.6890  0.7361
  371MOL0     H50040   8.623  12.017  10.235 -1.5518 -0.7804 -0.2313
  371MOL0     H50041   8.692  12.154   9.975  1.7720 -0.9955 -0.6135
  371MOL0     H50042   8.733  12.239  10.125 -1.6829 -0.3409  1.5301
  371MOL0     H50043   8.537  12.331  10.039  2.5185 -0.9598  0.7034
  371MOL0     H50044   8.478  12.239  10.185  0.3492  0.0000  0.5980
  371MOL0     H50045   8.270  12.015   9.873 -0.1145 -1.3131  1.9622
  371MOL0     H50046   8.012  12.049   9.854  0.0353 -1.5969  0.5852
  371MOL0     H50047   7.549  12.170  10.022 -0.0269 -0.1609  0.0909
  371MOL0     H50048   7.345  12.217  10.148  0.1784 -0.1157 -2.5906
  371MOL0     H50049   7.232  12.385  10.530  0.0464 -0.5106  0.3103
  371MOL0     H50050   7.371  12.487  10.502 -1.8686 -1.5065  3.4753
  371MOL0     H50051   7.204  12.648  10.465 -2.0047  0.4706 -1.0752
  371MOL0     H50052   7.208  12.575  10.303  0.9979  1.3872  0.8026
  371MOL0     H50053   7.027  12.470  10.522 -1.6351  0.9051  1.4478
  371MOL0     H50054   6.973  12.615  10.438 -1.7165 -1.4103 -3.9610
  371MOL0     H50055   7.052  12.359  10.292 -2.4277 -2.0445 -2.5419
  371MOL0     H50056   6.989  12.500  10.212  2.0711  2.9250  1.7097
  371MOL0     H50057   6.791  12.461  10.340  0.3642  1.0136 -1.3165
  371MOL0     H50058   6.865  12.316  10.419 -1.5859 -0.5990  0.4258
  371MOL0     H50059   6.889  12.308  10.117  0.1269 -1.0433 -0.2230
  371MOL0     H50060   6.848  12.195  10.253 -4.6455 -0.9709 -0.6199
  371MOL0     H50061   6.625  12.308  10.266 -1.5372 -2.7208 -1.3061
  371MOL0     H50062   6.660  12.184  10.151 -0.7221  0.0909 -2.3223
  371MOL0     H50063   6.633  12.488  10.108  1.7407 -2.0189  2.6843
  371MOL0     H50064   6.697  12.384   9.969 -0.4081 -0.6105 -0.5228
  371MOL0     H50065   7.558  12.480  10.414  2.0008  1.4722 -2.1692
  371MOL0     H50066   7.771  12.398  10.324 -0.5983 -1.6742  3.1219
  371MOL0     H50067   8.045  12.361  10.154 -3.2772 -0.7868 -1.0239
  371MOL0     H50068   8.284  12.315  10.177  0.0313 -2.2834  0.9944
  371MOL0     H50069   9.402  10.702  10.224 -0.0884 -0.8554  0.2730
  371MOL0     H50070   9.615  10.641  10.331 -0.1677  0.0078 -0.2860
  371MOL0     H50071  10.065  11.033  10.512  1.0442  1.2809  2.4718
  371MOL0     H50072  10.287  11.021  10.583  2.0004  1.0357 -1.8678
  371MOL0     H50073  10.421  10.867  10.768 -0.5911 -0.4919  0.0789
  371MOL0     H50074  10.497  10.977  10.645  0.0824 -0.2705  0.3754
  371MOL0     H50075  10.695  10.839  10.629  0.1197 -0.1015 -0.4906
  371MOL0     H50076  10.621  10.734  10.760 -0.3062  1.1502  2.5830
  371MOL0     H50077  10.604  10.939  10.906 -1.0640 -1.4904 -0.4940
  371MOL0     H50078  10.713  11.017  10.793  1.3557  0.7844  1.2692
  371MOL0     H50079  10.796  10.801  10.987  1.2086 -0.0118 -0.1835
  371MOL0     H50080  10.872  10.793  10.832  2.5986  1.0663  0.9642
  371MOL0     H50081  11.045  11.128  11.021 -4.2955  2.2754  2.4295
  371MOL0     H50082  10.335  10.643  10.383 -1.0799 -0.8611 -0.3494
  371MOL0     H50083  10.050  10.707  10.193  2.9768  0.6002 -0.1964
  371MOL0     H50084  10.175  10.579  10.223  2.2882  1.4806  1.0146
  371MOL0     H50085  10.021  10.572  10.302  1.6240 -3.2983 -2.2531
  372MOL0     O50086   9.321   8.357   2.675  0.1451 -0.4905 -0.2337
  372MOL0     C50087   9.381   8.388   2.574  1.4105 -0.4561 -0.8447
  372MOL0     O50088   9.396   8.306   2.466 -0.2413 -0.3179 -0.0348
  372MOL0     C50089   9.344   8.180   2.481  0.3013  0.2105  0.4525
  372MOL0     C50090   9.229   8.151   2.407 -0.5660 -0.2908 -0.4487
  372MOL0     C50091   9.186   8.016   2.419 -0.0052  0.9923  0.2149
  372MOL0     C50092   9.254   7.915   2.492 -0.7740 -0.5175 -0.2909
  372MOL0     O50093   9.219   7.780   2.508 -0.4682 -0.9469  0.4725
  372MOL0     C50094   9.134   7.723   2.411  0.0147 -0.3719  0.0878
  372MOL0     C50095   9.137   7.568   2.433 -0.1956 -0.4003  0.3447
  372MOL0     C50096   9.038   7.505   2.339  0.5108  1.2651 -0.1764
  372MOL0     C50097   9.028   7.360   2.395 -0.8504  0.2003  0.0032
  372MOL0     C50098   8.913   7.284   2.342 -0.4041  0.2085  0.8358
  372MOL0     C50099   8.787   7.320   2.424 -0.7572  0.2616  0.2653
  372MOL0     C50100   8.677   7.236   2.362  0.0188 -0.1663 -0.3463
  372MOL0     C50101   8.548   7.245   2.441  0.0809 -0.3239  1.1124
  372MOL0     N50102   8.440   7.179   2.368 -0.4182  0.1448 -0.4998
  372MOL0     C50103   8.388   7.057   2.401 -0.3439 -0.0769  0.8258
  372MOL0     C50104   8.281   7.039   2.321  0.3937 -0.2569 -0.1710
  372MOL0     C50105   8.198   6.913   2.320 -0.4679  0.0707  0.6326
  372MOL0     C50106   8.158   6.863   2.183 -1.0652  0.0822  1.5349
  372MOL0     C50107   8.273   6.829   2.087 -0.3654  0.4518 -1.0336
  372MOL0     C50108   8.373   6.728   2.154 -1.4586 -0.2912 -0.1029
  372MOL0     O50109   8.305   6.622   2.225 -0.1871 -0.8534 -0.1536
  372MOL0     C50110   8.257   6.509   2.165  0.0972  1.1575  0.5893
  372MOL0     C50111   8.242   6.400   2.247  0.3070 -0.1870  0.0508
  372MOL0     C50112   8.211   6.274   2.188 -0.2920  0.5062  0.8034
  372MOL0     C50113   8.182   6.256   2.051 -0.1021  0.0848  0.0833
  372MOL0     C50114   8.158   6.134   1.979  0.1192 -0.2585 -0.9609
  372MOL0     O50115   8.123   6.141   1.846  0.1164 -0.4381 -0.1682
  372MOL0     C50116   8.086   6.021   1.793 -0.2167 -0.8105  0.0511
  372MOL0     C50117   7.978   5.950   1.861 -0.7779  0.8101  0.2359
  372MOL0     C50118   7.935   5.830   1.809 -0.6461  0.3542  0.1917
  372MOL0     C50119   8.001   5.759   1.706 -0.9982 -1.0088 -0.0017
  372MOL0     O50120   7.939   5.649   1.652 -0.1099 -0.3111  0.5732
  372MOL0     C50121   7.917   5.558   1.759  0.6849  0.1796 -0.5107
  372MOL0     C50122   7.868   5.422   1.708 -0.2964  0.5204 -0.3670
  372MOL0     C50123   7.893   5.321   1.825  0.2849 -0.0100 -0.0857
  372MOL0     C50124   7.809   5.347   1.957 -0.6959  0.3518 -0.9201
  372MOL0     C50125   7.860   5.261   2.075  0.1168  0.5570  0.4152
  372MOL0     C50126   7.831   5.103   2.064 -0.1355 -0.2842  0.5575
  372MOL0     C50127   7.892   5.026   2.180 -0.3807  0.0461  0.4848
  372MOL0     C50128   7.900   4.872   2.165 -0.4635 -0.0545 -0.3496
  372MOL0    Cl50129   7.739   4.787   2.162 -0.2844 -0.5061  0.3132
  372MOL0     C50130   8.111   5.828   1.639  0.2721  0.1068 -0.2646
  372MOL0     C50131   8.147   5.957   1.680 -0.1069 -0.1912  0.1445
  372MOL0     O50132   8.162   6.026   2.045 -0.1659 -0.6993  0.4925
  372MOL0     C50133   8.193   6.378   1.976  0.5970 -0.1002  0.0847
  372MOL0     C50134   8.236   6.497   2.032 -0.0472 -0.7316 -0.0545
  372MOL0     N50135   8.277   7.152   2.236  0.1694 -0.9810 -0.2309
  372MOL0     N50136   8.372   7.233   2.261  0.0092  0.8053  0.5818
  372MOL0     C50137   9.375   7.953   2.550 -0.2340 -0.3162  0.5964
  372MOL0     C50138   9.419   8.082   2.549  0.1700  0.7556  0.6425
  372MOL0     C50139   9.445   8.523   2.564 -0.3796  0.4345  0.5429
  372MOL0     C50140   9.567   8.545   2.493 -0.2646 -0.0949 -0.1806
  372MOL0     C50141   9.634   8.667   2.498 -0.4460 -1.1896  0.1410
  372MOL0     C50142   9.573   8.786   2.558 -0.5366  0.1078 -0.2525
  372MOL0     O50143   9.634   8.908   2.573 -0.2181 -0.3489 -0.0282
  372MOL0     C50144   9.694   8.968   2.456  0.0860  0.7470  0.4477
  372MOL0     C50145   9.717   9.121   2.477  0.8790  0.0556  0.3964
  372MOL0     C50146   9.773   9.139   2.619  0.3602 -0.0338  0.4321
  372MOL0     C50147   9.900   9.062   2.667 -0.2071  0.0472 -0.0822
  372MOL0     C50148   9.988   9.133   2.765 -0.0173  0.5222 -0.1648
  372MOL0     C50149  10.040   9.202   2.851  0.3710 -0.7536  0.2590
  372MOL0     C50150   9.449   8.765   2.618  1.3909 -0.4369  0.2290
  372MOL0     C50151   9.388   8.637   2.620  0.4910 -0.5364  0.9580
  372MOL0     C50152   9.276   8.634   2.723 -0.2269 -0.0564 -0.0774
  372MOL0     H50153   9.160   8.221   2.360 -1.5589 -1.3378 -0.6157
  372MOL0     H50154   9.091   7.988   2.376  0.0844  4.4073 -2.5696
  372MOL0     H50155   9.033   7.754   2.438 -0.0787 -1.9080  1.6733
  372MOL0     H50156   9.159   7.744   2.307  1.2779 -2.3758 -0.0765
  372MOL0     H50157   9.118   7.546   2.538 -4.0282 -4.2804 -0.8356
  372MOL0     H50158   9.239   7.535   2.412  0.5385 -1.4893  4.6628
  372MOL0     H50159   9.071   7.506   2.235  1.6709 -0.9953  0.1040
  372MOL0     H50160   8.939   7.551   2.337  0.1981  0.7598  1.6244
  372MOL0     H50161   9.128   7.327   2.365  1.9846  6.0003  1.6775
  372MOL0     H50162   9.025   7.356   2.504 -1.5528 -1.5401 -0.0451
  372MOL0     H50163   8.899   7.317   2.239  0.8766 -1.6729 -0.0036
  372MOL0     H50164   8.933   7.178   2.327 -0.8428  0.3590 -1.0494
  372MOL0     H50165   8.797   7.291   2.529 -2.0546  0.9982  0.6226
  372MOL0     H50166   8.760   7.425   2.424  1.6267  1.0574 -3.4945
  372MOL0     H50167   8.704   7.130   2.358  1.6197  0.1510  0.9204
  372MOL0     H50168   8.646   7.268   2.262 -0.4285 -2.9021 -1.1603
  372MOL0     H50169   8.558   7.208   2.544  2.2911 -0.7763  0.7853
  372MOL0     H50170   8.524   7.352   2.437  0.5794 -0.2362 -1.8737
  372MOL0     H50171   8.425   6.985   2.473  1.5149 -0.1527 -0.1541
  372MOL0     H50172   8.249   6.833   2.375  0.7984 -0.3340 -1.0429
  372MOL0     H50173   8.109   6.926   2.381  0.0210 -1.5172  1.7306
  372MOL0     H50174   8.089   6.778   2.182  0.5459 -1.3010 -0.1229
  372MOL0     H50175   8.099   6.946   2.143 -1.1079  0.4142  2.2851
  372MOL0     H50176   8.332   6.916   2.053 -0.0720  0.6066 -0.1406
  372MOL0     H50177   8.237   6.789   1.991 -1.0283 -1.5915  0.0162
  372MOL0     H50178   8.427   6.787   2.229  1.0816  0.0207 -2.0415
  372MOL0     H50179   8.447   6.689   2.084  2.0619 -0.5044  3.4377
  372MOL0     H50180   8.267   6.412   2.352 -2.7624  0.0768  0.8466
  372MOL0     H50181   8.205   6.185   2.249  2.3222 -1.0713 -1.0361
  372MOL0     H50182   7.928   5.986   1.950  1.0665 -0.2116  1.7874
  372MOL0     H50183   7.840   5.793   1.845  0.4816 -2.7339  0.2938
  372MOL0     H50184   8.011   5.544   1.814  0.2371  0.3033  0.2903
  372MOL0     H50185   7.853   5.587   1.842  1.7667 -0.2539  0.5081
  372MOL0     H50186   7.759   5.425   1.699 -0.5126 -1.1881  1.1857
  372MOL0     H50187   7.922   5.395   1.616  0.8659  0.3999  0.3424
  372MOL0     H50188   7.872   5.219   1.792 -1.3099  0.3481 -0.2867
  372MOL0     H50189   7.999   5.328   1.851 -0.1760 -0.3153  2.0575
  372MOL0     H50190   7.704   5.326   1.935 -0.4282 -1.7214 -0.4398
  372MOL0     H50191   7.815   5.447   2.000  3.5929 -0.5079  1.0974
  372MOL0     H50192   7.827   5.295   2.174  2.8923  0.0937  1.6131
  372MOL0     H50193   7.968   5.277   2.087  0.2790  0.6437 -1.0451
  372MOL0     H50194   7.722   5.093   2.067 -0.2534  0.9160  0.4362
  372MOL0     H50195   7.873   5.077   1.966  2.1399  1.4120  1.0120
  372MOL0     H50196   7.832   5.045   2.270 -1.9848 -3.2825  0.2643
  372MOL0     H50197   7.995   5.061   2.187 -0.5744  0.2498  2.7957
  372MOL0     H50198   7.955   4.843   2.075  1.5273  2.2912  0.0081
  372MOL0     H50199   7.968   4.829   2.239  0.6185 -2.8348 -2.7645
  372MOL0     H50200   8.164   5.769   1.565 -0.6032 -0.5606 -0.3769
  372MOL0     H50201   8.228   6.002   1.625  2.4859 -2.4008  1.8941
  372MOL0     H50202   8.182   6.392   1.869  2.2837 -0.6584 -0.1982
  372MOL0     H50203   8.239   6.584   1.967 -2.6720  0.1192  0.8277
  372MOL0     H50204   9.440   7.886   2.605  1.4019  0.2082 -0.6299
  372MOL0     H50205   9.515   8.104   2.595  1.1734  0.4900 -1.2537
  372MOL0     H50206   9.619   8.457   2.456 -2.6650 -0.4653 -2.9660
  372MOL0     H50207   9.734   8.682   2.458 -0.8212 -0.8560 -0.6805
  372MOL0     H50208   9.620   8.953   2.376  0.2442  3.4403 -0.2908
  372MOL0     H50209   9.782   8.914   2.417 -1.6551 -2.1273  0.1785
  372MOL0     H50210   9.627   9.183   2.471  1.2198  0.6669  1.3063
  372MOL0     H50211   9.779   9.159   2.395 -3.3029  4.0364 -1.3814
  372MOL0     H50212   9.693   9.111   2.689 -1.6683 -0.3587 -1.9025
  372MOL0     H50213   9.793   9.246   2.630 -2.1819  0.6162 -0.6450
  372MOL0     H50214   9.887   8.962   2.708 -0.6006  0.8228  1.8080
  372MOL0     H50215   9.955   9.049   2.573 -1.7457  1.3733 -1.2389
  372MOL0     H50216  10.081   9.259   2.932 -0.9252  1.3396 -0.4464
  372MOL0     H50217   9.405   8.848   2.671  1.4247 -0.1856 -0.1318
  372MOL0     H50218   9.246   8.737   2.744 -0.4990 -0.3903  1.2973
  372MOL0     H50219   9.187   8.585   2.682 -1.5339  2.5037 -0.5078
  372MOL0     H50220   9.304   8.582   2.815 -2.1004 -2.0447 -0.5366
  373MOL0     O50221   6.491   1.390   5.914  0.7493  0.0773 -1.9925
  373MOL0     C50222   6.566   1.459   5.848 -0.7662 -0.5218  0.3432
  373MOL0     O50223   6.648   1.555   5.903 -0.5146 -0.2057  0.1172
  373MOL0     C50224   6.621   1.632   6.011  0.1349 -0.7306 -0.2223
  373MOL0     C50225   6.727   1.709   6.053 -0.1962  0.2224 -0.3112
  373MOL0     C50226   6.731   1.780   6.164 -0.3660  0.6130 -0.3139
  373MOL0     C50227   6.613   1.798   6.236  0.3702 -0.2212  0.8301
  373MOL0     O50228   6.620   1.894   6.335  1.0009  0.7359  0.7553
  373MOL0     C50229   6.506   1.943   6.392 -0.0859 -0.4652  0.6421
  373MOL0     C50230   6.532   2.051   6.493  0.2073 -0.3488 -0.3818
  373MOL0     C50231   6.416   2.142   6.519 -0.1021  0.5710  0.3887
  373MOL0     C50232   6.449   2.232   6.639 -0.2942 -0.4960  0.6833
  373MOL0     C50233   6.361   2.349   6.670 -0.3976 -0.2958 -0.3501
  373MOL0     C50234   6.413   2.430   6.797 -0.3905  0.5624  0.5253
  373MOL0     C50235   6.347   2.560   6.799 -0.1830  1.2080  0.1670
  373MOL0     C50236   6.195   2.559   6.802 -0.5986  0.0639 -0.2992
  373MOL0     N50237   6.139   2.478   6.917  0.0386 -0.6547  0.1581
  373MOL0     C50238   6.086   2.519   7.036 -0.2587 -0.3571  0.2617
  373MOL0     C50239   6.046   2.404   7.088 -0.0415 -0.2861  0.1755
  373MOL0     C50240   5.955   2.402   7.207 -0.2092 -0.5716  0.6794
  373MOL0     C50241   5.813   2.444   7.182 -0.8738 -0.8952 -0.2382
  373MOL0     C50242   5.741   2.366   7.067  0.2144  0.3552 -0.2142
  373MOL0     C50243   5.705   2.223   7.114  0.1203  0.0402  0.1548
  373MOL0     O50244   5.599   2.157   7.037 -0.6288 -0.5001 -0.2390
  373MOL0     C50245   5.632   2.043   6.969  0.7564  0.1233 -1.0810
  373MOL0     C50246   5.744   2.032   6.886  1.1026 -0.2883 -0.0206
  373MOL0     C50247   5.767   1.911   6.817  0.7215 -0.3925  0.1887
  373MOL0     C50248   5.680   1.801   6.823  0.5600  0.6486  0.1093
  373MOL0     C50249   5.702   1.668   6.767 -0.8281 -0.1551 -0.4159
  373MOL0     O50250   5.604   1.570   6.785 -0.9847  0.4442 -0.0779
  373MOL0     C50251   5.619   1.444   6.728  0.4873  0.1063 -0.9713
  373MOL0     C50252   5.507   1.391   6.670  0.4455 -0.0215 -0.1946
  373MOL0     C50253   5.499   1.258   6.623 -0.4834  0.2900 -0.0315
  373MOL0     C50254   5.623   1.180   6.642  0.6077  0.1566 -0.6494
  373MOL0     O50255   5.638   1.046   6.602 -1.2402  0.5092  0.5162
  373MOL0     C50256   5.527   0.977   6.547 -0.4273  0.5160 -0.1787
  373MOL0     C50257   5.571   0.833   6.537  0.7628  0.1448  0.2730
  373MOL0     C50258   5.462   0.733   6.494  0.2930  0.0059  0.0848
  373MOL0     C50259   5.410   0.757   6.352 -0.2748 -0.3367  0.0402
  373MOL0     C50260   5.330   0.636   6.309  0.1251 -0.0346  0.3138
  373MOL0     C50261   5.239   0.665   6.185 -0.1569  1.4730 -0.5364
  373MOL0     C50262   5.128   0.770   6.221 -0.9745 -0.4255 -0.3114
  373MOL0     C50263   5.020   0.803   6.112 -0.4047  0.3168 -0.8171
  373MOL0    Cl50264   4.878   0.894   6.180 -0.0428 -0.0523  0.0514
  373MOL0     C50265   5.738   1.239   6.706  0.2832  0.7121 -0.2276
  373MOL0     C50266   5.731   1.368   6.757 -0.6905 -0.8956 -0.4010
  373MOL0     O50267   5.799   1.650   6.704 -0.3679  0.3064 -0.4620
  373MOL0     C50268   5.561   1.824   6.900 -0.2299 -0.0678 -0.4124
  373MOL0     C50269   5.535   1.938   6.969 -0.2545 -0.2553  0.9371
  373MOL0     N50270   6.083   2.294   7.008  0.2868 -0.0986 -0.7398
  373MOL0     N50271   6.128   2.341   6.899 -0.8456 -0.2525 -0.4393
  373MOL0     C50272   6.497   1.723   6.191 -0.4249 -0.5137 -0.7156
  373MOL0     C50273   6.495   1.637   6.083 -0.8227 -0.4739 -0.0727
  373MOL0     C50274   6.588   1.424   5.703  0.3562 -0.1956 -0.2553
  373MOL0     C50275   6.698   1.485   5.644  0.8198 -0.0411 -1.0366
  373MOL0     C50276   6.747   1.452   5.520  0.0580  0.6742  0.0190
  373MOL0     C50277   6.680   1.350   5.447  0.4938 -0.3076  0.0117
  373MOL0     O50278   6.724   1.319   5.326  0.6570  0.4632  0.4484
  373MOL0     C50279   6.782   1.423   5.249  0.4281 -0.2403  0.1915
  373MOL0     C50280   6.819   1.378   5.108 -0.3633  0.0960 -0.4116
  373MOL0     C50281   6.705   1.303   5.030  0.2847  0.1220 -0.1856
  373MOL0     C50282   6.566   1.373   5.048 -0.5241 -0.8669 -0.5057
  373MOL0     C50283   6.476   1.334   4.936 -0.1624  0.3099 -1.0869
  373MOL0     C50284   6.399   1.298   4.851 -0.3753 -0.1498 -0.6787
  373MOL0     C50285   6.561   1.300   5.497 -0.8820 -0.5621 -0.0945
  373MOL0     C50286   6.513   1.332   5.623 -0.5046 -0.0946 -0.2558
  373MOL0     C50287   6.393   1.254   5.683 -0.6743  0.0087  0.0041
  373MOL0     H50288   6.816   1.706   5.991 -0.7954 -0.5504 -1.1761
  373MOL0     H50289   6.818   1.838   6.194 -0.8529  0.8136  0.7740
  373MOL0     H50290   6.435   1.971   6.314 -0.2764 -0.1426  0.9329
  373MOL0     H50291   6.458   1.857   6.440 -1.1772 -0.0930  0.2558
  373MOL0     H50292   6.616   2.107   6.451 -1.6604  1.9057 -1.3254
  373MOL0     H50293   6.560   2.015   6.593 -0.8293  0.5827  0.2781
  373MOL0     H50294   6.320   2.093   6.536 -1.4932  1.5222 -3.5964
  373MOL0     H50295   6.398   2.207   6.432 -0.7562  0.7638  0.6616
  373MOL0     H50296   6.443   2.163   6.724  1.6323 -2.6446 -0.7930
  373MOL0     H50297   6.553   2.264   6.638 -0.9541  1.8860  1.4822
  373MOL0     H50298   6.356   2.410   6.580 -1.2403  0.2054  0.0163
  373MOL0     H50299   6.260   2.309   6.685 -1.7797  2.2579 -2.0034
  373MOL0     H50300   6.407   2.376   6.892  0.1398  0.2063  0.3619
  373MOL0     H50301   6.519   2.443   6.775 -0.3518  0.1490  0.4585
  373MOL0     H50302   6.378   2.611   6.707  1.3292  0.4745  0.2425
  373MOL0     H50303   6.391   2.616   6.882  1.0187  0.6934 -0.0940
  373MOL0     H50304   6.165   2.660   6.832  1.9677  1.1726 -1.1760
  373MOL0     H50305   6.156   2.539   6.702  0.7213 -0.1285 -0.7889
  373MOL0     H50306   6.066   2.621   7.067 -0.5223 -0.6053  0.9144
  373MOL0     H50307   5.960   2.303   7.254  0.3775 -0.3830  1.0360
  373MOL0     H50308   5.994   2.470   7.284  0.3480 -0.2673  0.1455
  373MOL0     H50309   5.753   2.451   7.273 -1.2235 -1.0072 -0.4589
  373MOL0     H50310   5.830   2.544   7.140  0.8386 -0.9438  0.2880
  373MOL0     H50311   5.808   2.364   6.981 -0.3116  1.5759 -0.6674
  373MOL0     H50312   5.649   2.420   7.042 -1.0604 -1.8675 -0.6228
  373MOL0     H50313   5.665   2.224   7.216  1.4995  0.1399  0.7116
  373MOL0     H50314   5.801   2.171   7.102 -1.4590 -2.8833 -0.9674
  373MOL0     H50315   5.808   2.118   6.872 -0.8392  1.3480  0.7623
  373MOL0     H50316   5.853   1.908   6.752  0.8158 -2.2835  0.3416
  373MOL0     H50317   5.415   1.448   6.666 -0.2705 -0.9502  1.6205
  373MOL0     H50318   5.404   1.225   6.580  1.2438 -0.6071 -3.5576
  373MOL0     H50319   5.452   0.997   6.624 -0.1731  0.8965 -0.0291
  373MOL0     H50320   5.512   1.016   6.446  2.8222 -0.1149 -1.0315
  373MOL0     H50321   5.648   0.822   6.460 -1.2303 -3.2271 -1.4301
  373MOL0     H50322   5.608   0.794   6.633 -0.2731 -2.4121 -0.2998
  373MOL0     H50323   5.490   0.628   6.492 -1.8515 -0.6152  0.1046
  373MOL0     H50324   5.376   0.733   6.562 -0.0636 -0.5233 -0.3561
  373MOL0     H50325   5.498   0.760   6.286 -1.1923 -0.4080 -1.2147
  373MOL0     H50326   5.355   0.850   6.334 -0.9440 -0.4475  1.3934
  373MOL0     H50327   5.261   0.608   6.390 -2.1159  1.7403 -0.8554
  373MOL0     H50328   5.401   0.556   6.285  2.2377  0.9014  2.9388
  373MOL0     H50329   5.305   0.695   6.103  0.7944  1.2594  0.1262
  373MOL0     H50330   5.192   0.571   6.156  0.5667  1.1276 -0.6039
  373MOL0     H50331   5.182   0.862   6.245  0.0009 -0.9761 -0.3467
  373MOL0     H50332   5.067   0.729   6.302 -1.9489 -0.1280 -0.8752
  373MOL0     H50333   5.063   0.860   6.029  1.0341  2.2400  1.1022
  373MOL0     H50334   4.979   0.709   6.075  2.6872 -0.3627 -2.9078
  373MOL0     H50335   5.826   1.175   6.708 -1.0094 -1.1307  0.2652
  373MOL0     H50336   5.824   1.413   6.791 -1.7356  0.2346  1.1161
  373MOL0     H50337   5.478   1.756   6.916 -1.7044  1.7381  0.0367
  373MOL0     H50338   5.443   1.958   7.022 -0.4116  1.4676  0.0941
  373MOL0     H50339   6.405   1.730   6.250  0.2610 -1.8500  0.5902
  373MOL0     H50340   6.413   1.570   6.059 -2.4393  1.6678 -0.8398
  373MOL0     H50341   6.756   1.560   5.697 -0.4858  1.0500 -1.0937
  373MOL0     H50342   6.837   1.506   5.491 -1.7524  2.7372 -2.1857
  373MOL0     H50343   6.879   1.454   5.289  1.4714 -2.7584 -0.1711
  373MOL0     H50344   6.716   1.510   5.239 -5.1721 -3.8696  1.2015
  373MOL0     H50345   6.893   1.301   5.133 -0.7003 -0.6082 -1.4955
  373MOL0     H50346   6.865   1.460   5.052  0.3822  0.6510  0.9580
  373MOL0     H50347   6.692   1.202   5.068 -1.6794 -0.7696 -2.9304
  373MOL0     H50348   6.730   1.300   4.923 -1.2185  2.2752 -0.6780
  373MOL0     H50349   6.521   1.327   5.137 -0.4925  0.8318  0.4118
  373MOL0     H50350   6.561   1.482   5.053  0.4551 -0.8154 -0.5285
  373MOL0     H50351   6.327   1.265   4.780  0.4475 -4.2075  0.1162
  373MOL0     H50352   6.501   1.225   5.446 -0.2141 -1.5071  0.4647
  373MOL0     H50353   6.329   1.202   5.610 -2.4706  0.9696  0.8212
  373MOL0     H50354   6.423   1.178   5.756  0.7263 -1.4285 -1.9381
  373MOL0     H50355   6.323   1.332   5.713 -1.8378 -0.9099 -0.2418
  374MOL0     O50356   7.476   1.143   8.584  0.6220  0.2943 -0.5825
  374MOL0     C50357   7.574   1.200   8.636  0.7410 -0.8924  0.2958
  374MOL0     O50358   7.623   1.181   8.768  0.8670 -0.1060  0.4368
  374MOL0     C50359   7.558   1.102   8.860 -0.5647  0.2432 -0.2921
  374MOL0     C50360   7.612   1.103   8.988 -0.2423  0.1037 -0.3220
  374MOL0     C50361   7.564   1.030   9.096 -0.8107  0.2659  0.0861
  374MOL0     C50362   7.447   0.954   9.085 -0.3415  0.7017  0.7618
  374MOL0     O50363   7.408   0.875   9.179 -0.0161  0.7365  0.0212
  374MOL0     C50364   7.393   0.939   9.310  0.4111 -0.3536  1.1102
  374MOL0     C50365   7.266   1.017   9.306 -0.8125 -0.2299 -1.0945
  374MOL0     C50366   7.146   0.915   9.322  0.7374  0.7914  0.4409
  374MOL0     C50367   7.122   0.815   9.197  0.2774 -1.2195 -0.1475
  374MOL0     C50368   6.990   0.740   9.201 -0.5247  0.3699 -0.5444
  374MOL0     C50369   7.003   0.608   9.278 -0.1045  0.8155 -0.4886
  374MOL0     C50370   6.869   0.544   9.300 -0.9616 -0.9377 -0.3016
  374MOL0     C50371   6.879   0.414   9.382 -0.9664 -0.7220 -0.6512
  374MOL0     N50372   6.958   0.314   9.316  0.5413 -0.0452  0.0095
  374MOL0     C50373   7.042   0.229   9.382  0.4598  0.4893  1.5606
  374MOL0     C50374   7.089   0.150   9.288 -0.3642 -0.2114 -0.2112
  374MOL0     C50375   7.166   0.033   9.330  0.4269  0.7467  0.3438
  374MOL0     C50376   7.309   0.039   9.287 -0.0654  0.1429  1.0855
  374MOL0     C50377   7.397  -0.071   9.338 -0.1211  0.2105  0.9095
  374MOL0     C50378   7.418  -0.184   9.235  0.2273  0.8442  0.7844
  374MOL0     O50379   7.475  -0.144   9.116 -0.5306 -0.0600 -0.0252
  374MOL0     C50380   7.614  -0.138   9.110  0.1299 -0.1211  0.9106
  374MOL0     C50381   7.707  -0.208   9.182  0.5685 -0.5688  0.1546
  374MOL0     C50382   7.846  -0.184   9.167 -0.0075 -1.4123 -0.0136
  374MOL0     C50383   7.891  -0.090   9.065  0.5908  0.0362  1.0312
  374MOL0     C50384   8.034  -0.079   9.033 -0.1687  0.1819 -0.3276
  374MOL0     O50385   8.136  -0.111   9.118 -0.1255 -0.0988 -0.3730
  374MOL0     C50386   8.256  -0.139   9.048 -0.6636  0.5690 -0.3938
  374MOL0     C50387   8.287  -0.274   9.002 -0.2929 -1.2537 -0.1286
  374MOL0     C50388   8.415  -0.293   8.940  0.6549 -0.3830 -0.5794
  374MOL0     C50389   8.508  -0.193   8.906 -0.2166  0.4344  0.4155
  374MOL0     O50390   8.635  -0.220   8.850  0.1373 -0.8112 -0.2375
  374MOL0     C50391   8.664  -0.345   8.776 -0.3351  0.1250  1.1459
  374MOL0     C50392   8.793  -0.318   8.696  0.2813  1.3944  0.3781
  374MOL0     C50393   8.852  -0.453   8.642 -0.3226 -0.2152 -0.0206
  374MOL0     C50394   8.969  -0.424   8.541  0.0870  0.5253 -0.3445
  374MOL0     C50395   9.044  -0.552   8.494  0.6131  0.0755  0.2349
  374MOL0     C50396   8.946  -0.636   8.417 -0.6115  0.6306  0.0660
  374MOL0     C50397   9.011  -0.767   8.372 -0.4690 -0.0295  0.2228
  374MOL0     C50398   8.956  -0.891   8.437  1.2718  0.6222 -0.6473
  374MOL0    Cl50399   8.777  -0.913   8.403 -0.3723 -0.1521  0.3811
  374MOL0     C50400   8.481  -0.072   8.960  0.0604  0.1805 -0.2234
  374MOL0     C50401   8.362  -0.047   9.033  0.1757 -0.0964  0.7229
  374MOL0     O50402   8.048  -0.052   8.915 -0.2151 -0.7521  0.1773
  374MOL0     C50403   7.791  -0.017   9.002 -0.5552 -0.3436  0.5938
  374MOL0     C50404   7.658  -0.046   9.018 -0.1182 -0.0373 -0.4356
  374MOL0     N50405   7.039   0.178   9.169 -0.5854  0.5481  0.0878
  374MOL0     N50406   6.954   0.275   9.183 -0.1212 -0.5435 -0.4298
  374MOL0     C50407   7.382   0.957   8.957  0.9558 -0.6423  0.0371
  374MOL0     C50408   7.437   1.030   8.849 -0.6220 -0.7082 -0.4239
  374MOL0     C50409   7.661   1.274   8.549  0.0262 -0.5121 -0.1797
  374MOL0     C50410   7.790   1.302   8.604 -0.8960  0.2341  0.9051
  374MOL0     C50411   7.886   1.358   8.523 -1.1703  0.5461  0.5629
  374MOL0     C50412   7.863   1.401   8.391  0.1572  1.2694 -1.0236
  374MOL0     O50413   7.962   1.451   8.316 -0.1340  0.2179  0.0759
  374MOL0     C50414   8.088   1.488   8.377 -0.5271 -0.3602  0.8228
  374MOL0     C50415   8.089   1.610   8.471  0.6670 -0.6634  0.0224
  374MOL0     C50416   8.217   1.601   8.553 -0.2451 -0.7675 -0.6244
  374MOL0     C50417   8.270   1.712   8.643  0.8990 -0.6705  0.4943
  374MOL0     C50418   8.289   1.839   8.579 -0.2910  0.0324 -0.7634
  374MOL0     C50419   8.300   1.955   8.544  0.1685 -0.0171  0.8135
  374MOL0     C50420   7.738   1.373   8.341  0.6368  0.1647  0.1842
  374MOL0     C50421   7.635   1.315   8.413  1.0628  0.6297 -0.2936
  374MOL0     C50422   7.499   1.307   8.343  0.3389  1.0017 -0.0513
  374MOL0     H50423   7.712   1.145   8.999  0.7455 -1.8215 -1.5227
  374MOL0     H50424   7.629   1.019   9.182  0.2172  0.7487 -0.6118
  374MOL0     H50425   7.385   0.862   9.388 -1.4709 -0.7075  0.6271
  374MOL0     H50426   7.477   1.005   9.332  0.6746 -0.0493 -0.7067
  374MOL0     H50427   7.263   1.079   9.216  2.7331  0.7899 -0.6355
  374MOL0     H50428   7.256   1.076   9.397  3.1524  0.1591 -0.7552
  374MOL0     H50429   7.056   0.976   9.334  1.8079  2.4147  0.4280
  374MOL0     H50430   7.158   0.847   9.407 -0.1783  1.3600  1.0454
  374MOL0     H50431   7.131   0.868   9.102  6.8139 -1.8200 -0.3807
  374MOL0     H50432   7.207   0.747   9.184  2.0822  0.9608 -0.4283
  374MOL0     H50433   6.919   0.809   9.246  0.8483 -0.2261  2.8703
  374MOL0     H50434   6.969   0.722   9.095  0.0661  0.8001 -0.7369
  374MOL0     H50435   7.063   0.533   9.224 -1.6122  0.0743 -1.1969
  374MOL0     H50436   7.041   0.616   9.380  0.2934  0.5555 -0.6102
  374MOL0     H50437   6.831   0.507   9.204 -2.8030 -1.6069  0.6243
  374MOL0     H50438   6.792   0.609   9.342 -1.7458 -3.2729  2.2361
  374MOL0     H50439   6.915   0.443   9.481 -2.1189  3.2752 -1.2350
  374MOL0     H50440   6.781   0.368   9.399 -1.9100  1.3003 -0.3972
  374MOL0     H50441   7.067   0.240   9.487  2.6388  3.6115  0.8722
  374MOL0     H50442   7.168   0.024   9.439 -0.5307 -1.1575  0.2603
  374MOL0     H50443   7.109  -0.054   9.293  0.8657  0.1188  1.1246
  374MOL0     H50444   7.304   0.040   9.178  1.5734 -3.6072  0.8373
  374MOL0     H50445   7.360   0.131   9.318  1.8810 -0.5097  0.0096
  374MOL0     H50446   7.363  -0.105   9.436 -2.1205 -1.8031 -0.3793
  374MOL0     H50447   7.497  -0.031   9.358  0.3955 -1.1247  1.0591
  374MOL0     H50448   7.321  -0.215   9.196  0.3927  0.6389  0.5399
  374MOL0     H50449   7.476  -0.268   9.273  2.9485  1.2439 -2.1082
  374MOL0     H50450   7.670  -0.288   9.245 -0.7314 -0.8510 -0.9146
  374MOL0     H50451   7.923  -0.228   9.230  2.3917  1.6934 -0.5372
  374MOL0     H50452   8.214  -0.354   9.010  2.3627 -3.6927  1.8214
  374MOL0     H50453   8.430  -0.394   8.902 -3.6209 -1.7527  0.7744
  374MOL0     H50454   8.673  -0.435   8.838 -2.3679 -1.8081 -1.1765
  374MOL0     H50455   8.586  -0.368   8.703  0.7836 -1.3960  0.3585
  374MOL0     H50456   8.767  -0.254   8.611 -0.7957 -0.9453 -1.1512
  374MOL0     H50457   8.867  -0.259   8.753  0.2632 -1.6662  3.9726
  374MOL0     H50458   8.890  -0.522   8.718 -1.0648 -1.3502 -0.6441
  374MOL0     H50459   8.765  -0.506   8.604 -1.4973  1.1088  0.7167
  374MOL0     H50460   9.043  -0.363   8.593 -0.5470 -0.9787  2.5178
  374MOL0     H50461   8.922  -0.369   8.458 -1.7955 -1.3697 -0.6237
  374MOL0     H50462   9.080  -0.614   8.577 -1.2293 -2.9667 -1.0212
  374MOL0     H50463   9.132  -0.521   8.438  2.8933 -1.4911  2.7053
  374MOL0     H50464   8.853  -0.652   8.472 -0.5541 -0.8350 -0.2300
  374MOL0     H50465   8.918  -0.573   8.332 -0.8035 -0.8712 -1.0162
  374MOL0     H50466   9.119  -0.766   8.385 -0.4235  0.8282 -0.1422
  374MOL0     H50467   9.003  -0.773   8.263 -2.9115 -2.2000  0.4065
  374MOL0     H50468   9.016  -0.976   8.403  1.4612  1.7432 -3.4244
  374MOL0     H50469   8.973  -0.886   8.545  7.5257  2.0069 -1.2787
  374MOL0     H50470   8.545   0.014   8.942  0.1165  0.7573  2.2786
  374MOL0     H50471   8.346   0.054   9.069  3.8330  0.2120  1.8753
  374MOL0     H50472   7.824   0.056   8.929  2.4707 -1.2669  0.9132
  374MOL0     H50473   7.584   0.019   8.971  1.2786 -0.0367 -2.7632
  374MOL0     H50474   7.292   0.902   8.934  0.6126  0.7641 -2.4118
  374MOL0     H50475   7.364   1.028   8.769 -2.7847 -1.0288  1.4489
  374MOL0     H50476   7.812   1.286   8.709  2.3088  1.1126  0.4606
  374MOL0     H50477   7.985   1.348   8.566 -1.4864  3.0112  2.0183
  374MOL0     H50478   8.158   1.495   8.293 -1.4408 -1.9773 -0.1262
  374MOL0     H50479   8.125   1.400   8.430 -1.6306 -0.8859  0.7438
  374MOL0     H50480   7.997   1.628   8.527 -0.6028 -0.1636 -2.1013
  374MOL0     H50481   8.092   1.688   8.394 -0.6243 -0.5794  0.0427
  374MOL0     H50482   8.302   1.576   8.489 -0.5362 -2.5908 -0.3599
  374MOL0     H50483   8.211   1.511   8.616  1.5630 -2.1542 -2.3054
  374MOL0     H50484   8.207   1.726   8.731  1.2308  0.8811  0.5092
  374MOL0     H50485   8.369   1.676   8.674  1.2013  0.5277  0.9385
  374MOL0     H50486   8.323   2.051   8.504 -2.0176 -0.5770 -2.0615
  374MOL0     H50487   7.718   1.409   8.241 -0.0754  1.5706  0.8005
  374MOL0     H50488   7.423   1.330   8.418  0.3197 -1.0194  0.6081
  374MOL0     H50489   7.487   1.370   8.254 -1.7013  0.3842 -0.2500
  374MOL0     H50490   7.485   1.214   8.289 -1.2772  0.6352  0.9431
  375MOL0     O50491  10.146   2.479   2.515 -0.0146 -0.2756  0.0145
  375MOL0     C50492  10.210   2.379   2.538  0.0368  0.0600 -0.1550
  375MOL0     O50493  10.272   2.359   2.665 -0.0379  0.7839  0.4026
  375MOL0     C50494  10.278   2.453   2.763 -0.2203 -0.1361  0.4584
  375MOL0     C50495  10.179   2.540   2.796  0.6306  0.2149 -0.2531
  375MOL0     C50496  10.205   2.646   2.883  0.7390  0.1740 -0.9937
  375MOL0     C50497  10.328   2.650   2.957 -0.3836  0.2275  0.1046
  375MOL0     O50498  10.369   2.743   3.054  0.5634 -0.3770 -0.2908
  375MOL0     C50499  10.255   2.807   3.115 -0.4793  0.1287 -0.9333
  375MOL0     C50500  10.295   2.905   3.226  0.4554 -0.1473 -0.0757
  375MOL0     C50501  10.389   2.847   3.323  0.6715 -0.2879 -0.4336
  375MOL0     C50502  10.548   2.860   3.292  0.2617  0.2594 -0.5333
  375MOL0     C50503  10.623   2.795   3.404  0.2123 -0.6076  0.0108
  375MOL0     C50504  10.770   2.790   3.369 -0.4594  0.1510 -1.6543
  375MOL0     C50505  10.845   2.706   3.470 -0.3808  0.9516  0.5517
  375MOL0     C50506  10.925   2.599   3.400  0.7120  0.3821  0.0686
  375MOL0     N50507  11.027   2.657   3.310  0.3210 -0.4716 -0.1548
  375MOL0     C50508  11.098   2.602   3.206 -1.1814 -0.1313 -0.8561
  375MOL0     C50509  11.167   2.698   3.142  0.4350 -0.1827 -1.1922
  375MOL0     C50510  11.276   2.691   3.036  0.3248  0.9433  0.2062
  375MOL0     C50511  11.398   2.794   3.042 -0.3453  0.9176 -0.4104
  375MOL0     C50512  11.374   2.940   3.068 -0.5271  0.4089 -0.4900
  375MOL0     C50513  11.494   3.026   3.013 -0.5709 -0.2522  0.1960
  375MOL0     O50514  11.625   2.981   3.052  0.3139 -0.1867 -0.0222
  375MOL0     C50515  11.733   3.013   2.980  0.4241  1.0997  0.4582
  375MOL0     C50516  11.839   3.078   3.036  0.2262 -0.3376  0.1714
  375MOL0     C50517  11.964   3.087   2.965 -0.6330 -0.2233  0.5404
  375MOL0     C50518  11.986   3.009   2.841  0.6092 -0.3114  0.3239
  375MOL0     C50519  12.112   3.001   2.770 -0.3312 -0.7523  0.1686
  375MOL0     O50520  12.217   3.052   2.823 -0.3892  0.2086 -1.0586
  375MOL0     C50521  12.331   3.076   2.746  0.2037  0.2258  0.8914
  375MOL0     C50522  12.452   3.021   2.789  0.4583 -0.0953 -0.4232
  375MOL0     C50523  12.574   3.061   2.720  0.1123  0.1403  0.2502
  375MOL0     C50524  12.572   3.162   2.621 -0.1266  0.3696 -0.5957
  375MOL0     O50525  12.698   3.199   2.583  0.2520  0.3928  0.5888
  375MOL0     C50526  12.717   3.283   2.462  0.4606 -0.4900 -0.6056
  375MOL0     C50527  12.733   3.189   2.342  0.9508 -0.5076  0.2302
  375MOL0     C50528  12.603   3.155   2.278  0.2756  0.8048  0.6477
  375MOL0     C50529  12.623   3.087   2.135  0.4211 -0.4869 -0.1547
  375MOL0     C50530  12.487   3.060   2.072 -1.2879 -0.5811 -0.7024
  375MOL0     C50531  12.486   2.975   1.940 -0.2556  0.1532 -0.8047
  375MOL0     C50532  12.562   2.840   1.954 -0.0734  0.5667  0.0992
  375MOL0     C50533  12.493   2.720   1.895  0.0389  0.2570 -0.5193
  375MOL0    Cl50534  12.434   2.735   1.726  0.0951  0.1024 -0.2904
  375MOL0     C50535  12.451   3.192   2.563  0.1033 -0.5753 -0.0751
  375MOL0     C50536  12.334   3.159   2.628  0.0195  0.1398 -0.1624
  375MOL0     O50537  12.116   2.933   2.666  0.3567 -0.9272  0.0723
  375MOL0     C50538  11.878   2.930   2.805 -0.6565  0.3450  0.6032
  375MOL0     C50539  11.758   2.937   2.865  0.3269 -0.0066  0.9942
  375MOL0     N50540  11.135   2.818   3.206  0.0155  0.2238 -0.9313
  375MOL0     N50541  11.067   2.791   3.313 -0.2873  0.3895 -0.0338
  375MOL0     C50542  10.428   2.555   2.931 -0.1281  0.2809 -1.3655
  375MOL0     C50543  10.398   2.456   2.837  0.1299  0.9214  0.0156
  375MOL0     C50544  10.237   2.288   2.422  0.3632 -0.5991 -0.4975
  375MOL0     C50545  10.342   2.200   2.431  0.1502 -0.4944  0.3876
  375MOL0     C50546  10.379   2.116   2.329  0.1004  0.8244  0.3887
  375MOL0     C50547  10.296   2.106   2.208  0.5673 -0.2179 -0.6091
  375MOL0     O50548  10.325   2.005   2.119 -0.0118 -0.0348 -0.5068
  375MOL0     C50549  10.225   1.978   2.012 -0.0340 -0.0324  0.3822
  375MOL0     C50550  10.228   1.836   1.949 -0.4516 -0.2102  0.2626
  375MOL0     C50551  10.196   1.719   2.030 -0.4373  0.4500 -0.8320
  375MOL0     C50552  10.049   1.698   2.055  0.2489  1.0425 -0.3457
  375MOL0     C50553   9.979   1.636   1.936  0.1639 -1.8161  0.4816
  375MOL0     C50554   9.926   1.579   1.842  0.7347  1.0796 -0.0023
  375MOL0     C50555  10.204   2.210   2.194  0.1034  0.7246  0.5490
  375MOL0     C50556  10.157   2.289   2.304 -0.1788  0.6479  0.2737
  375MOL0     C50557  10.021   2.367   2.288  0.5294 -0.0579  0.0880
  375MOL0     H50558  10.091   2.557   2.736  1.3408 -2.7797 -2.3735
  375MOL0     H50559  10.128   2.718   2.907 -1.1574 -1.8717 -0.6695
  375MOL0     H50560  10.204   2.870   3.042  1.9787  2.7360 -0.5845
  375MOL0     H50561  10.185   2.736   3.161 -0.2904 -0.9410 -2.2513
  375MOL0     H50562  10.214   2.946   3.288  2.1455 -0.7543  2.7167
  375MOL0     H50563  10.341   2.997   3.189  0.3586  0.1824  0.6047
  375MOL0     H50564  10.362   2.742   3.339 -0.0088  0.1273  1.3834
  375MOL0     H50565  10.376   2.894   3.421 -1.0758 -1.1098 -0.2311
  375MOL0     H50566  10.572   2.823   3.192 -0.5939  1.4599 -1.1968
  375MOL0     H50567  10.570   2.966   3.283  1.8553 -0.0224 -0.4098
  375MOL0     H50568  10.601   2.846   3.499 -1.8966 -2.6630  0.7059
  375MOL0     H50569  10.587   2.694   3.424  3.0288 -1.2544  2.5437
  375MOL0     H50570  10.794   2.765   3.265 -1.6708 -0.0350 -1.9094
  375MOL0     H50571  10.816   2.889   3.374  0.3165 -0.1976  3.3782
  375MOL0     H50572  10.780   2.650   3.537 -1.1259  0.2570 -0.7241
  375MOL0     H50573  10.905   2.767   3.539 -0.2209 -0.1031  1.3641
  375MOL0     H50574  10.974   2.542   3.480  0.4728 -4.9147 -3.0871
  375MOL0     H50575  10.866   2.527   3.344  1.1216 -1.0552  1.4132
  375MOL0     H50576  11.115   2.496   3.196 -0.3560 -0.2164  1.0293
  375MOL0     H50577  11.313   2.588   3.034  1.1197  1.2186 -0.2523
  375MOL0     H50578  11.226   2.710   2.940  0.9560 -0.1038 -0.3610
  375MOL0     H50579  11.466   2.766   3.123 -0.5676 -0.1746 -0.5896
  375MOL0     H50580  11.445   2.778   2.944  2.1173 -3.4089  1.1984
  375MOL0     H50581  11.360   2.971   3.172 -0.4699  0.8684 -0.6174
  375MOL0     H50582  11.291   2.981   3.011 -0.1186 -1.0172 -2.2016
  375MOL0     H50583  11.484   3.130   3.045 -0.8009  0.4290 -1.9627
  375MOL0     H50584  11.486   3.019   2.904  0.8925  0.2849  0.0335
  375MOL0     H50585  11.829   3.134   3.129  0.6823 -1.5781  1.0015
  375MOL0     H50586  12.045   3.148   3.005 -0.6826 -2.8436  5.3805
  375MOL0     H50587  12.451   2.960   2.879  2.5742 -1.0235 -0.9604
  375MOL0     H50588  12.676   3.034   2.745  0.7152  2.1985  0.1782
  375MOL0     H50589  12.641   3.360   2.442  5.6850  5.5808 -0.3306
  375MOL0     H50590  12.806   3.341   2.489 -1.1697  0.8945  2.3212
  375MOL0     H50591  12.797   3.239   2.269 -0.0180  0.1549 -0.1787
  375MOL0     H50592  12.787   3.096   2.365 -1.7202 -2.0276  0.7904
  375MOL0     H50593  12.565   3.074   2.341  0.5061 -1.3728 -1.8584
  375MOL0     H50594  12.525   3.231   2.271 -1.4926 -0.7756  1.9220
  375MOL0     H50595  12.683   2.997   2.150 -2.4841 -2.1377  2.8260
  375MOL0     H50596  12.691   3.144   2.071  4.1322 -2.9198  1.3123
  375MOL0     H50597  12.456   3.158   2.035 -0.6314 -0.3279 -0.5978
  375MOL0     H50598  12.423   3.032   2.156  1.4034  0.0789  1.7575
  375MOL0     H50599  12.384   2.948   1.909 -0.7790  0.6397  0.4439
  375MOL0     H50600  12.527   3.032   1.856  0.8143  0.9332  0.2217
  375MOL0     H50601  12.563   2.812   2.059 -2.7063  2.3419  0.6972
  375MOL0     H50602  12.660   2.844   1.906 -1.4174  0.6729 -2.8435
  375MOL0     H50603  12.549   2.628   1.914 -0.2287  0.4057  1.2231
  375MOL0     H50604  12.411   2.695   1.964 -1.3435 -2.5270 -2.9623
  375MOL0     H50605  12.447   3.274   2.493  0.4606  2.4555  3.1594
  375MOL0     H50606  12.244   3.202   2.587 -1.4814 -0.8933  1.8651
  375MOL0     H50607  11.891   2.859   2.724  1.2126 -0.9435  1.9504
  375MOL0     H50608  11.686   2.877   2.810  2.6099 -0.5827 -1.5998
  375MOL0     H50609  10.516   2.557   2.994 -2.3605 -0.2588  1.9954
  375MOL0     H50610  10.480   2.386   2.830 -3.1105 -3.8314  3.0448
  375MOL0     H50611  10.390   2.200   2.529  2.5648  3.2840 -0.5999
  375MOL0     H50612  10.458   2.041   2.336  1.1616  1.3824 -3.2533
  375MOL0     H50613  10.243   2.056   1.938  0.7609  0.3034  0.9154
  375MOL0     H50614  10.122   1.991   2.045 -0.2100 -0.6284  0.0822
  375MOL0     H50615  10.331   1.814   1.922 -0.7149 -2.3231  0.7933
  375MOL0     H50616  10.172   1.836   1.854  0.2499 -1.0915 -0.1651
  375MOL0     H50617  10.259   1.719   2.119  0.5480  0.4929 -1.5162
  375MOL0     H50618  10.224   1.626   1.980  0.5916  0.7264 -0.7825
  375MOL0     H50619  10.033   1.623   2.133 -1.5879  2.3394  0.6047
  375MOL0     H50620   9.994   1.789   2.083 -2.5728 -0.1578 -1.6036
  375MOL0     H50621   9.885   1.522   1.761  0.1140 -2.4305  2.5323
  375MOL0     H50622  10.146   2.201   2.102  3.2814 -4.4906 -1.3828
  375MOL0     H50623   9.961   2.334   2.203  2.5497  0.3741 -1.5928
  375MOL0     H50624   9.965   2.376   2.381  0.9014 -0.5942  0.3742
  375MOL0     H50625  10.042   2.471   2.263 -1.3120  1.0231  2.6048
  376MOL0     O50626   7.846   2.234   6.182 -0.4354  0.3303 -0.2705
  376MOL0     C50627   7.749   2.284   6.128 -0.1481 -0.1843 -0.3471
  376MOL0     O50628   7.630   2.295   6.184  0.1937 -0.5909 -0.3428
  376MOL0     C50629   7.577   2.202   6.268  0.2496  0.9070 -1.6009
  376MOL0     C50630   7.503   2.246   6.384  0.2739 -0.0145  0.2456
  376MOL0     C50631   7.448   2.158   6.474  0.5695 -0.8545  0.3965
  376MOL0     C50632   7.464   2.022   6.461 -0.7712 -0.4938  0.5592
  376MOL0     O50633   7.427   1.918   6.548 -0.8133 -0.4339  0.0875
  376MOL0     C50634   7.544   1.846   6.597  0.4653 -0.8558  0.2482
  376MOL0     C50635   7.566   1.883   6.743 -0.3934  0.2982 -0.2329
  376MOL0     C50636   7.468   1.837   6.850 -0.0645  0.4454 -0.6534
  376MOL0     C50637   7.330   1.898   6.831 -0.0192  0.6072 -0.0769
  376MOL0     C50638   7.248   1.889   6.963  0.0208 -0.1768 -0.5124
  376MOL0     C50639   7.202   1.747   6.982  0.3341 -0.2653  0.7263
  376MOL0     C50640   7.139   1.724   7.117 -0.2101 -0.4164 -0.0279
  376MOL0     C50641   7.237   1.741   7.234 -0.4433 -0.5497  0.1145
  376MOL0     N50642   7.186   1.690   7.360  0.6886 -0.0773 -0.6116
  376MOL0     C50643   7.167   1.560   7.394  0.0238  0.5489  0.2912
  376MOL0     C50644   7.129   1.556   7.522 -1.0306  0.2316 -0.2886
  376MOL0     C50645   7.078   1.427   7.595  0.2394  0.0821  0.0336
  376MOL0     C50646   7.082   1.448   7.749 -0.7928  0.0942 -0.3042
  376MOL0     C50647   7.219   1.436   7.809  0.4944 -0.4471  0.4435
  376MOL0     C50648   7.309   1.307   7.797 -0.4570 -0.6563  0.3144
  376MOL0     O50649   7.299   1.215   7.908  0.3155 -0.0993 -0.3388
  376MOL0     C50650   7.183   1.158   7.954 -0.2133 -1.1034 -0.0020
  376MOL0     C50651   7.064   1.158   7.886 -0.2223 -0.4013 -0.3750
  376MOL0     C50652   6.952   1.099   7.942  1.0963 -0.5824  0.1505
  376MOL0     C50653   6.953   1.051   8.063  1.3223 -0.0010 -0.3193
  376MOL0     C50654   6.848   0.973   8.115 -0.2429 -0.8582  0.4915
  376MOL0     O50655   6.895   0.875   8.205 -0.1515  0.2169  0.3951
  376MOL0     C50656   6.805   0.783   8.246  0.0790 -0.0943  0.1369
  376MOL0     C50657   6.719   0.709   8.158 -1.0267 -0.1655 -0.2131
  376MOL0     C50658   6.644   0.608   8.208 -0.2426  0.8983 -0.6953
  376MOL0     C50659   6.635   0.585   8.340 -0.4365 -0.1330 -0.5862
  376MOL0     O50660   6.552   0.475   8.371  0.7085 -0.0407 -0.6718
  376MOL0     C50661   6.424   0.522   8.415  0.1117  0.9583 -0.0049
  376MOL0     C50662   6.339   0.392   8.433  1.0088  0.0583 -0.3643
  376MOL0     C50663   6.193   0.425   8.496 -0.5562 -0.4137  1.1654
  376MOL0     C50664   6.204   0.524   8.616  0.3308  0.1657  0.5141
  376MOL0     C50665   6.067   0.579   8.665  0.6983  0.8324 -0.9196
  376MOL0     C50666   5.977   0.472   8.727  0.0147  0.5958  0.5047
  376MOL0     C50667   5.851   0.516   8.806 -1.1860  0.0241 -0.1868
  376MOL0     C50668   5.813   0.418   8.916 -0.0202  0.3387  0.5444
  376MOL0    Cl50669   5.813   0.257   8.853  0.3747 -0.3899  0.2046
  376MOL0     C50670   6.716   0.650   8.431  0.6709 -0.2320  1.0235
  376MOL0     C50671   6.801   0.750   8.381  0.2138 -0.9554 -0.6413
  376MOL0     O50672   6.729   0.985   8.075 -0.5157  0.1438  0.7653
  376MOL0     C50673   7.072   1.051   8.132 -0.1871 -0.0428 -0.0525
  376MOL0     C50674   7.189   1.105   8.078 -0.4334 -0.1621  0.9880
  376MOL0     N50675   7.137   1.689   7.571 -0.2043  0.6085  0.6464
  376MOL0     N50676   7.166   1.762   7.469 -0.5721 -0.0442 -1.1210
  376MOL0     C50677   7.528   1.986   6.344 -0.0559  0.5032 -0.1175
  376MOL0     C50678   7.591   2.065   6.249 -0.1883  0.2262  0.5783
  376MOL0     C50679   7.761   2.349   5.988 -0.0902 -1.0568 -0.0191
  376MOL0     C50680   7.661   2.438   5.940  0.3595 -0.7652 -1.0023
  376MOL0     C50681   7.678   2.517   5.822  0.1795  0.0759  0.4988
  376MOL0     C50682   7.791   2.485   5.741  0.5486 -0.9116 -0.2881
  376MOL0     O50683   7.820   2.551   5.624 -0.3844  0.1715 -0.0924
  376MOL0     C50684   7.844   2.689   5.641  0.4023 -0.6890  0.7205
  376MOL0     C50685   7.974   2.714   5.714 -0.3292  0.1515 -0.0054
  376MOL0     C50686   8.095   2.671   5.622  0.0906  0.0072 -0.8252
  376MOL0     C50687   8.131   2.775   5.514 -0.2408  0.1111 -0.5798
  376MOL0     C50688   8.227   2.877   5.566 -0.5350 -0.2778 -0.3353
  376MOL0     C50689   8.298   2.974   5.578 -0.3965 -0.5623 -0.1180
  376MOL0     C50690   7.884   2.392   5.784 -0.4024 -0.2753  0.6134
  376MOL0     C50691   7.874   2.322   5.902  0.0559  0.3460  0.5391
  376MOL0     C50692   7.992   2.223   5.933  0.1896 -0.9985 -0.5012
  376MOL0     H50693   7.490   2.350   6.412 -1.3549  0.7751 -2.8591
  376MOL0     H50694   7.393   2.184   6.563 -0.3787 -1.3691 -0.0302
  376MOL0     H50695   7.548   1.738   6.583  1.6555 -0.4589 -3.4260
  376MOL0     H50696   7.632   1.875   6.539 -0.9379  0.9582 -1.0895
  376MOL0     H50697   7.585   1.990   6.732 -3.9258  1.0049 -0.7286
  376MOL0     H50698   7.660   1.843   6.782 -0.6415  0.6735  0.7670
  376MOL0     H50699   7.505   1.852   6.952 -2.6549 -0.4790  0.5022
  376MOL0     H50700   7.466   1.728   6.843  0.7031  0.2842  1.0471
  376MOL0     H50701   7.324   2.007   6.816  0.1360  0.5781 -0.3481
  376MOL0     H50702   7.282   1.845   6.748  3.3500  0.1535 -1.9224
  376MOL0     H50703   7.311   1.920   7.047  0.2567 -1.3782 -0.2338
  376MOL0     H50704   7.160   1.953   6.961  0.1177 -0.0353 -0.2334
  376MOL0     H50705   7.135   1.719   6.901  1.3710 -0.4503 -0.0970
  376MOL0     H50706   7.286   1.678   6.971  1.0861  0.6833  0.3518
  376MOL0     H50707   7.106   1.620   7.123  1.6356 -0.9695  1.8442
  376MOL0     H50708   7.060   1.799   7.127  0.3863  0.4426 -1.3707
  376MOL0     H50709   7.335   1.694   7.222 -0.2188  0.4513 -2.6169
  376MOL0     H50710   7.256   1.848   7.242 -5.9584  0.9924 -2.4014
  376MOL0     H50711   7.169   1.469   7.334 -0.9022 -0.8284  2.2718
  376MOL0     H50712   6.973   1.407   7.570 -1.0013  2.2914  2.9066
  376MOL0     H50713   7.135   1.337   7.571  1.0113  0.5169  0.1989
  376MOL0     H50714   7.039   1.545   7.773  2.1723  1.0547  1.5896
  376MOL0     H50715   7.007   1.384   7.796 -1.0086  1.4427  1.2484
  376MOL0     H50716   7.188   1.441   7.915  1.5418 -0.7182  0.7680
  376MOL0     H50717   7.277   1.524   7.781 -0.5991  0.6780  1.5789
  376MOL0     H50718   7.404   1.360   7.785 -1.4858  1.0922 -0.4816
  376MOL0     H50719   7.298   1.242   7.709  1.7076 -1.9217  0.8952
  376MOL0     H50720   7.048   1.179   7.781  1.5176 -5.4957 -1.9686
  376MOL0     H50721   6.855   1.111   7.894 -0.4589 -0.3310  3.1113
  376MOL0     H50722   6.734   0.723   8.051  1.7163  1.2085  0.2681
  376MOL0     H50723   6.588   0.548   8.137  1.7120 -1.2576 -0.5347
  376MOL0     H50724   6.451   0.577   8.506  0.9187  0.6823 -0.0693
  376MOL0     H50725   6.371   0.587   8.345 -0.2602  0.0996 -0.5347
  376MOL0     H50726   6.331   0.338   8.338  0.2156  2.4945 -1.7829
  376MOL0     H50727   6.382   0.325   8.508 -0.8630  2.7392  3.4055
  376MOL0     H50728   6.130   0.476   8.423 -0.2518  1.4846  2.1819
  376MOL0     H50729   6.143   0.333   8.528 -1.2654 -0.7802 -0.8471
  376MOL0     H50730   6.265   0.612   8.590  0.6134  0.1196  1.0077
  376MOL0     H50731   6.251   0.473   8.701 -1.1659  0.1558  1.3699
  376MOL0     H50732   6.024   0.628   8.578  0.8991  1.4946 -0.6505
  376MOL0     H50733   6.064   0.657   8.742  1.3765  0.5773 -0.6252
  376MOL0     H50734   5.958   0.406   8.641 -2.7560  1.2073  0.5684
  376MOL0     H50735   6.048   0.413   8.786  1.5845  3.0392  1.1901
  376MOL0     H50736   5.761   0.504   8.745 -0.8296  0.6735 -0.8545
  376MOL0     H50737   5.868   0.620   8.839  1.7249 -0.7839  1.1652
  376MOL0     H50738   5.882   0.434   8.999  2.7863 -3.0937 -0.8549
  376MOL0     H50739   5.711   0.444   8.945 -0.5368  1.9473 -2.3018
  376MOL0     H50740   6.711   0.638   8.539 -0.5607 -0.3220  0.9706
  376MOL0     H50741   6.861   0.808   8.450 -2.7624 -0.7119  1.9707
  376MOL0     H50742   7.090   1.003   8.228  0.6664 -0.3715 -0.3722
  376MOL0     H50743   7.284   1.099   8.130 -0.2738  0.3179  0.7567
  376MOL0     H50744   7.520   1.879   6.326 -3.8189  0.6266 -0.0155
  376MOL0     H50745   7.644   2.032   6.161 -1.0651 -1.3251  0.5960
  376MOL0     H50746   7.576   2.449   6.007  1.1803  0.3017 -0.1246
  376MOL0     H50747   7.603   2.590   5.792  0.0724  0.6398  2.0495
  376MOL0     H50748   7.763   2.740   5.693  0.5643  0.8581 -0.4705
  376MOL0     H50749   7.857   2.737   5.544  0.8865 -1.2794  0.4856
  376MOL0     H50750   7.977   2.652   5.804  0.4135 -0.2541 -0.3054
  376MOL0     H50751   7.974   2.819   5.744  0.9923  0.3115 -0.5256
  376MOL0     H50752   8.083   2.576   5.569  3.2248 -0.4731 -0.8581
  376MOL0     H50753   8.186   2.657   5.682  1.0201 -0.9640 -2.3981
  376MOL0     H50754   8.179   2.711   5.440  1.4364 -2.8012  2.7085
  376MOL0     H50755   8.051   2.840   5.478  0.4269  0.5284 -1.3446
  376MOL0     H50756   8.379   3.043   5.592 -2.4766  2.2852 -1.0797
  376MOL0     H50757   7.973   2.391   5.722 -1.9303  0.0450 -1.6956
  376MOL0     H50758   8.063   2.233   5.850 -1.0364  2.7955 -1.3326
  376MOL0     H50759   8.040   2.249   6.027  0.6841  0.5556 -1.1496
  376MOL0     H50760   7.956   2.120   5.939 -1.6078 -0.5523 -2.5012
  377MOL0     O50761   2.983   7.707   3.955  0.5987 -0.0372 -0.4550
  377MOL0     C50762   2.942   7.797   3.879  0.5691 -0.5249 -0.4061
  377MOL0     O50763   3.010   7.905   3.833  0.4436 -0.7330 -0.4603
  377MOL0     C50764   3.136   7.918   3.878  0.0603 -0.4925  0.4850
  377MOL0     C50765   3.238   7.861   3.793  0.0537  0.2364 -0.2753
  377MOL0     C50766   3.373   7.881   3.822 -0.1823 -0.0087  0.7608
  377MOL0     C50767   3.406   7.945   3.943  0.3183  0.1405 -0.0606
  377MOL0     O50768   3.543   7.949   3.981 -0.6486 -0.5080  0.3983
  377MOL0     C50769   3.587   7.954   4.117  1.3137  0.2478 -0.5977
  377MOL0     C50770   3.723   7.888   4.129 -0.0271  0.2043 -0.3187
  377MOL0     C50771   3.733   7.753   4.056  1.5958  0.1489 -0.4846
  377MOL0     C50772   3.875   7.691   4.056 -0.7552 -0.0225  0.2141
  377MOL0     C50773   3.979   7.745   3.961 -0.1314 -0.0411  0.6376
  377MOL0     C50774   4.112   7.674   3.982  0.2643  1.0939  0.0426
  377MOL0     C50775   4.202   7.697   3.858 -0.8231  0.4912  0.1417
  377MOL0     C50776   4.336   7.718   3.908 -0.6274 -0.5411 -0.2173
  377MOL0     N50777   4.396   7.602   3.977  0.6026  0.3318  0.0617
  377MOL0     C50778   4.449   7.486   3.923 -0.0499  0.4030  0.4054
  377MOL0     C50779   4.486   7.413   4.037 -1.0490  0.1625  0.4315
  377MOL0     C50780   4.544   7.268   4.030 -0.9015  0.5314 -0.1986
  377MOL0     C50781   4.619   7.198   3.908 -0.5653 -0.0996  0.4387
  377MOL0     C50782   4.567   7.058   3.882  0.4729 -0.1127  0.7382
  377MOL0     C50783   4.651   6.974   3.786  0.0559  0.2758 -0.4995
  377MOL0     O50784   4.790   6.974   3.827  0.0670 -0.6164  0.2018
  377MOL0     C50785   4.872   6.877   3.771 -1.6713 -0.2193  0.3153
  377MOL0     C50786   4.992   6.857   3.840  0.0921  1.1078  0.6160
  377MOL0     C50787   5.077   6.757   3.790  0.6674  0.4109  0.0498
  377MOL0     C50788   5.068   6.690   3.672 -0.8369 -0.4874  0.1124
  377MOL0     C50789   5.173   6.589   3.637  0.8711 -0.5797 -0.7577
  377MOL0     O50790   5.225   6.520   3.733  0.7128 -0.2961  0.2402
  377MOL0     C50791   5.341   6.451   3.718 -0.3559 -0.4645 -0.6020
  377MOL0     C50792   5.472   6.516   3.716  0.8881  0.0055  1.0161
  377MOL0     C50793   5.589   6.442   3.692  0.3662 -0.7256  0.2187
  377MOL0     C50794   5.578   6.302   3.691 -0.2552  0.2866  0.1666
  377MOL0     O50795   5.690   6.223   3.682  0.3534  0.6633  0.4145
  377MOL0     C50796   5.786   6.229   3.789  1.0188 -0.0869  0.2873
  377MOL0     C50797   5.754   6.169   3.928  0.5973  1.0688  0.4107
  377MOL0     C50798   5.709   6.025   3.923  0.0213  0.1291  0.2215
  377MOL0     C50799   5.820   5.928   3.869 -0.3551  0.7642 -0.2533
  377MOL0     C50800   5.767   5.782   3.888 -0.1633 -0.1416 -1.0081
  377MOL0     C50801   5.875   5.665   3.869  0.8808  0.0432 -0.7009
  377MOL0     C50802   5.984   5.663   3.980 -0.9795  0.4200 -0.4373
  377MOL0     C50803   5.985   5.526   4.042  0.0461  0.2064 -1.1334
  377MOL0    Cl50804   5.882   5.509   4.179 -0.4763 -0.1407  0.1452
  377MOL0     C50805   5.459   6.234   3.715 -0.2718 -0.3522 -0.2325
  377MOL0     C50806   5.338   6.307   3.718  1.3716 -0.5810  0.0459
  377MOL0     O50807   5.222   6.593   3.529 -0.1618 -0.0190 -0.1943
  377MOL0     C50808   4.943   6.718   3.603 -0.4400 -0.5328 -0.2212
  377MOL0     C50809   4.850   6.809   3.655 -0.7842 -0.3945  0.1594
  377MOL0     N50810   4.463   7.491   4.147  0.0121 -0.2835 -0.0755
  377MOL0     N50811   4.397   7.600   4.111  1.3209  0.9025  0.1175
  377MOL0     C50812   3.302   8.004   4.026 -0.9407 -0.6276  0.2284
  377MOL0     C50813   3.168   7.992   3.990  0.2392 -0.5843 -0.2568
  377MOL0     C50814   2.799   7.791   3.829 -0.9497  0.4112 -0.3324
  377MOL0     C50815   2.762   7.868   3.717  0.6347  0.0794 -0.3113
  377MOL0     C50816   2.645   7.846   3.644 -0.4419 -0.0488 -0.4590
  377MOL0     C50817   2.558   7.752   3.682  1.5308 -0.1658  0.1041
  377MOL0     O50818   2.438   7.720   3.627  0.3533  0.1215  0.9039
  377MOL0     C50819   2.399   7.773   3.504 -0.1349  0.1894 -0.0780
  377MOL0     C50820   2.264   7.708   3.474 -0.2192  0.2109 -0.4148
  377MOL0     C50821   2.189   7.771   3.359  0.5900  0.3900  1.0817
  377MOL0     C50822   2.136   7.904   3.409 -0.2914 -0.8339  0.4963
  377MOL0     C50823   2.055   7.990   3.309 -0.3217  1.0776  0.3248
  377MOL0     C50824   1.994   8.052   3.230  0.7354  0.3243  0.4088
  377MOL0     C50825   2.576   7.697   3.807  0.7656  0.6925 -0.2451
  377MOL0     C50826   2.690   7.712   3.884  0.0862 -0.6338 -0.1936
  377MOL0     C50827   2.692   7.660   4.021 -0.8171 -1.0306 -0.2230
  377MOL0     H50828   3.220   7.801   3.705 -0.8150  1.2798 -0.8310
  377MOL0     H50829   3.451   7.833   3.765 -0.4540 -0.2523  0.5931
  377MOL0     H50830   3.594   8.058   4.148 -2.2525  0.2390  0.7245
  377MOL0     H50831   3.514   7.904   4.182 -1.4417 -1.0660 -4.3399
  377MOL0     H50832   3.768   7.888   4.229 -1.7235  0.6459  0.4670
  377MOL0     H50833   3.786   7.941   4.057 -2.9168 -0.2565 -3.4271
  377MOL0     H50834   3.701   7.762   3.952  1.6060  1.2188 -0.4017
  377MOL0     H50835   3.674   7.674   4.104 -1.6385  2.0619 -1.0770
  377MOL0     H50836   3.918   7.685   4.157 -0.1525 -1.5811 -0.0997
  377MOL0     H50837   3.862   7.586   4.028 -3.9667  0.5744 -0.8195
  377MOL0     H50838   3.941   7.724   3.861  1.1905 -1.9577  0.4714
  377MOL0     H50839   3.969   7.852   3.976  0.2667  0.2380 -0.9331
  377MOL0     H50840   4.163   7.710   4.072  2.1653 -1.5484  0.1632
  377MOL0     H50841   4.100   7.565   3.994  0.5499  1.3119  3.0868
  377MOL0     H50842   4.174   7.778   3.790  3.8005 -0.4383 -3.3665
  377MOL0     H50843   4.208   7.605   3.798  0.3440 -0.3928  1.5253
  377MOL0     H50844   4.395   7.737   3.818 -1.3073 -0.6331 -0.6896
  377MOL0     H50845   4.342   7.811   3.966  0.8140  0.1294 -1.3957
  377MOL0     H50846   4.464   7.474   3.817 -1.8299  3.0945 -0.2612
  377MOL0     H50847   4.616   7.257   4.112 -2.7023  0.0164  1.3940
  377MOL0     H50848   4.451   7.216   4.054  0.0080 -0.0954  2.3370
  377MOL0     H50849   4.606   7.249   3.813 -0.9016 -1.5209 -0.3047
  377MOL0     H50850   4.726   7.197   3.933 -0.7505 -0.6025  1.2744
  377MOL0     H50851   4.471   7.072   3.831  0.0373  1.1593  1.8655
  377MOL0     H50852   4.556   7.001   3.975 -2.8737  1.2594  1.3399
  377MOL0     H50853   4.651   7.021   3.687 -1.2312  3.0038  0.7002
  377MOL0     H50854   4.608   6.874   3.776  1.3533 -0.3715  0.0698
  377MOL0     H50855   5.018   6.906   3.933  1.9918 -0.8821  1.2217
  377MOL0     H50856   5.169   6.738   3.845  0.5310 -0.3895  0.0051
  377MOL0     H50857   5.464   6.622   3.738  0.9418 -0.3385  2.9059
  377MOL0     H50858   5.682   6.498   3.696 -1.9855  3.5150  2.0837
  377MOL0     H50859   5.879   6.181   3.756  0.7195 -1.5184  1.4453
  377MOL0     H50860   5.805   6.335   3.808 -3.3448  0.4456  2.8714
  377MOL0     H50861   5.850   6.179   3.981 -0.1767  2.5466  1.6064
  377MOL0     H50862   5.680   6.226   3.984  0.1134 -1.8605  3.0954
  377MOL0     H50863   5.694   5.990   4.025  1.1764  1.5851  0.9227
  377MOL0     H50864   5.611   6.014   3.875 -0.0471  1.1962  0.0746
  377MOL0     H50865   5.911   5.944   3.929 -0.2954  0.7645 -0.3446
  377MOL0     H50866   5.845   5.939   3.763  0.6695 -0.9664 -0.2305
  377MOL0     H50867   5.681   5.775   3.820 -1.2367 -2.6076  0.4951
  377MOL0     H50868   5.731   5.783   3.991  0.4752  0.1433 -0.7800
  377MOL0     H50869   5.829   5.565   3.863  0.1650  0.1422  2.0915
  377MOL0     H50870   5.917   5.673   3.768 -2.1038 -1.0944 -2.1883
  377MOL0     H50871   5.963   5.737   4.058 -2.6741  1.9996 -2.2962
  377MOL0     H50872   6.080   5.685   3.933 -1.0434  0.2124 -0.6670
  377MOL0     H50873   5.953   5.454   3.967  2.3403 -3.2960  0.9452
  377MOL0     H50874   6.084   5.490   4.074 -2.3031 -3.5582  2.9993
  377MOL0     H50875   5.475   6.127   3.717 -1.3317 -0.5302 -0.5398
  377MOL0     H50876   5.243   6.256   3.709  0.4856  0.4780  2.5376
  377MOL0     H50877   4.934   6.682   3.501  0.9416  0.7614 -0.8411
  377MOL0     H50878   4.764   6.843   3.597 -1.4914  1.3510  2.0981
  377MOL0     H50879   3.340   8.068   4.105 -1.0448  0.1635 -0.3488
  377MOL0     H50880   3.097   8.055   4.042  0.7619 -1.5465  1.7079
  377MOL0     H50881   2.831   7.944   3.678 -0.4576  1.8871  1.1204
  377MOL0     H50882   2.640   7.904   3.552 -0.7647  3.1364  1.4169
  377MOL0     H50883   2.473   7.747   3.428  1.6377 -0.8902  1.8838
  377MOL0     H50884   2.387   7.881   3.513 -2.6989 -0.2077  3.6821
  377MOL0     H50885   2.197   7.700   3.560 -0.7809  0.6869 -0.7939
  377MOL0     H50886   2.295   7.613   3.430  2.0835  1.0063 -0.6340
  377MOL0     H50887   2.103   7.708   3.332  0.8684  0.3051  0.3601
  377MOL0     H50888   2.264   7.783   3.280 -0.2725  2.3515  0.5012
  377MOL0     H50889   2.070   7.899   3.496 -0.0905  2.3639  0.9635
  377MOL0     H50890   2.222   7.966   3.434 -0.1987 -0.3471 -0.9398
  377MOL0     H50891   1.932   8.109   3.164  1.8685 -0.5457 -1.4858
  377MOL0     H50892   2.502   7.629   3.848  2.2541 -2.2234 -2.0788
  377MOL0     H50893   2.690   7.746   4.090 -1.7322  0.2814 -1.8281
  377MOL0     H50894   2.599   7.610   4.051  0.6792 -2.9970  1.4610
  377MOL0     H50895   2.773   7.592   4.047  0.4715  1.1677  2.0366
  378MOL0     O50896  10.814   6.086   5.523 -1.3803 -0.2892 -0.4773
  378MOL0     C50897  10.768   6.186   5.573 -0.3355 -0.7585  0.0493
  378MOL0     O50898  10.841   6.297   5.594 -0.1592  0.6567  0.3009
  378MOL0     C50899  10.953   6.318   5.516 -0.9711  0.1606  0.3894
  378MOL0     C50900  10.955   6.303   5.376  0.0621  0.4532 -0.5272
  378MOL0     C50901  11.078   6.317   5.308  0.5033 -0.3619 -0.2243
  378MOL0     C50902  11.200   6.342   5.383 -0.0638  0.0977 -0.8370
  378MOL0     O50903  11.317   6.366   5.318  0.9293 -0.9181 -0.3068
  378MOL0     C50904  11.341   6.279   5.216  0.2418  0.5438  0.2761
  378MOL0     C50905  11.491   6.293   5.177  0.3031  0.1920  0.1246
  378MOL0     C50906  11.526   6.208   5.049  0.6542  0.3450  0.4196
  378MOL0     C50907  11.681   6.182   5.044  0.6809 -0.0668  0.0455
  378MOL0     C50908  11.711   6.097   4.920  0.5144  0.8034  1.2060
  378MOL0     C50909  11.689   5.942   4.924 -0.3365 -0.0947  0.0756
  378MOL0     C50910  11.706   5.884   4.780  0.8755  0.0297  0.9643
  378MOL0     C50911  11.702   5.725   4.797  1.2813 -0.1786 -0.4971
  378MOL0     N50912  11.725   5.647   4.676  0.4773  0.1781  0.3503
  378MOL0     C50913  11.616   5.596   4.605 -0.3445  0.1076  0.0321
  378MOL0     C50914  11.681   5.537   4.504 -0.2532 -0.0605  0.6595
  378MOL0     C50915  11.621   5.452   4.391 -0.8725  0.0795 -0.5220
  378MOL0     C50916  11.585   5.548   4.272 -0.7665  0.3740 -0.5683
  378MOL0     C50917  11.582   5.482   4.138  0.2759  0.0043  0.3720
  378MOL0     C50918  11.461   5.391   4.122  0.3219  0.3248 -0.0295
  378MOL0     O50919  11.347   5.473   4.140 -0.1000 -0.1700 -0.4288
  378MOL0     C50920  11.226   5.425   4.148  0.8269 -0.0796 -0.7246
  378MOL0     C50921  11.188   5.283   4.157  0.9363  0.6298  0.1583
  378MOL0     C50922  11.055   5.243   4.161  0.9420 -0.2883 -0.0237
  378MOL0     C50923  10.951   5.335   4.162 -0.2510  0.7438  0.3096
  378MOL0     C50924  10.814   5.294   4.192  0.6083 -0.6689 -0.6047
  378MOL0     O50925  10.729   5.379   4.127  0.2274  0.2623  0.1616
  378MOL0     C50926  10.593   5.396   4.142  0.0068 -0.0200 -0.2395
  378MOL0     C50927  10.523   5.478   4.054 -0.3506 -0.8910  0.6313
  378MOL0     C50928  10.392   5.517   4.077 -0.2853  0.5271 -0.1939
  378MOL0     C50929  10.310   5.457   4.172 -0.0299 -0.9920 -0.2306
  378MOL0     O50930  10.182   5.487   4.197  0.1430 -0.7847  0.1376
  378MOL0     C50931  10.117   5.591   4.109  0.4308  0.3086  0.7910
  378MOL0     C50932  10.132   5.722   4.183 -0.2187  0.6567 -0.1845
  378MOL0     C50933  10.061   5.836   4.107  0.2252 -0.6403  0.3286
  378MOL0     C50934  10.055   5.974   4.178  0.1500 -0.3139  1.0481
  378MOL0     C50935   9.975   5.968   4.312 -0.0505  0.0597  0.5397
  378MOL0     C50936  10.006   6.081   4.407 -0.8279 -0.3665 -0.2047
  378MOL0     C50937   9.931   6.208   4.357 -0.7934  0.3238 -0.0998
  378MOL0     C50938  10.018   6.336   4.355  0.0325 -0.3180  0.1653
  378MOL0    Cl50939  10.072   6.385   4.504  0.2542  0.1358  0.0663
  378MOL0     C50940  10.373   5.355   4.241 -0.2913  0.6427 -0.5563
  378MOL0     C50941  10.509   5.317   4.225  0.2971 -0.1724 -0.4585
  378MOL0     O50942  10.785   5.196   4.261 -0.0279 -0.8186  0.1825
  378MOL0     C50943  10.984   5.476   4.168 -0.4796 -0.2015  0.3913
  378MOL0     C50944  11.121   5.518   4.155 -0.6063 -0.0864 -0.7393
  378MOL0     N50945  11.817   5.554   4.505 -0.3562  0.3266 -0.4924
  378MOL0     N50946  11.849   5.623   4.620  0.4294  0.4932  0.0762
  378MOL0     C50947  11.191   6.367   5.520  1.1040  0.3776  0.2440
  378MOL0     C50948  11.072   6.353   5.589  0.5521 -0.0991  0.0762
  378MOL0     C50949  10.627   6.183   5.619  0.0073  0.4650  0.5499
  378MOL0     C50950  10.597   6.269   5.721 -0.1289  0.2473  0.1109
  378MOL0     C50951  10.456   6.298   5.764 -0.7725 -0.2047 -0.0308
  378MOL0     C50952  10.360   6.225   5.707  1.1710 -0.1196 -0.1804
  378MOL0     O50953  10.229   6.248   5.748 -0.2270  0.5768 -0.8208
  378MOL0     C50954  10.124   6.174   5.692  0.1402 -0.0785  0.0992
  378MOL0     C50955  10.049   6.247   5.585 -0.3766  0.3731 -0.5783
  378MOL0     C50956   9.905   6.206   5.586  0.2479  0.8506  1.2340
  378MOL0     C50957   9.809   6.276   5.491 -0.3697 -0.2282 -0.0548
  378MOL0     C50958   9.683   6.328   5.563  0.1301  0.1384  0.1947
  378MOL0     C50959   9.584   6.384   5.613  0.8714 -0.5763  0.6294
  378MOL0     C50960  10.393   6.143   5.599  1.2351  0.2627 -0.0787
  378MOL0     C50961  10.522   6.113   5.556 -0.5096  0.1248 -1.0401
  378MOL0     C50962  10.540   6.046   5.420 -0.5103  0.0780 -0.1886
  378MOL0     H50963  10.862   6.280   5.325 -0.7496 -2.3496  1.9185
  378MOL0     H50964  11.073   6.307   5.200 -3.1123 -7.1253  0.0027
  378MOL0     H50965  11.306   6.179   5.241  0.0651  0.4663 -0.2635
  378MOL0     H50966  11.280   6.300   5.127 -0.3334 -1.2422  0.2184
  378MOL0     H50967  11.542   6.254   5.265 -3.1533 -1.2564  1.6861
  378MOL0     H50968  11.513   6.396   5.147 -0.8519 -0.5934 -4.0464
  378MOL0     H50969  11.495   6.258   4.958  0.7240 -0.2040  0.0905
  378MOL0     H50970  11.468   6.115   5.053 -0.5426  0.9912 -1.0212
  378MOL0     H50971  11.720   6.284   5.044 -3.1954  1.5969 -0.4337
  378MOL0     H50972  11.715   6.122   5.129 -0.5216 -2.0380 -0.7945
  378MOL0     H50973  11.648   6.131   4.837  1.6607 -1.6407 -0.8315
  378MOL0     H50974  11.811   6.125   4.885 -0.4183 -1.6328 -4.5840
  378MOL0     H50975  11.761   5.895   4.991 -0.3617 -1.5446 -0.8635
  378MOL0     H50976  11.592   5.920   4.971  0.4461  0.3156  1.9867
  378MOL0     H50977  11.797   5.930   4.740 -0.7030  0.1606 -2.8258
  378MOL0     H50978  11.626   5.916   4.712  0.2315 -1.2759  1.0668
  378MOL0     H50979  11.776   5.683   4.866  1.6169 -1.6587 -1.6962
  378MOL0     H50980  11.601   5.717   4.837  0.5504  2.1564 -1.6763
  378MOL0     H50981  11.509   5.596   4.624 -0.2699 -0.0612  0.4612
  378MOL0     H50982  11.684   5.369   4.359  0.9851  1.1100  0.3217
  378MOL0     H50983  11.527   5.411   4.430  0.1894 -2.0009 -0.0394
  378MOL0     H50984  11.505   5.618   4.297 -0.3351  0.6200  0.1570
  378MOL0     H50985  11.667   5.620   4.268 -1.9281  1.8427  0.8699
  378MOL0     H50986  11.672   5.426   4.113 -2.0480 -2.4581 -3.5790
  378MOL0     H50987  11.583   5.566   4.067  0.6913 -0.4387 -0.1552
  378MOL0     H50988  11.465   5.314   4.199  1.1241  2.4697  2.2156
  378MOL0     H50989  11.441   5.354   4.022  2.1414  2.0719 -1.1120
  378MOL0     H50990  11.260   5.203   4.168 -0.5294 -0.5795  1.3300
  378MOL0     H50991  11.027   5.139   4.164  0.0098 -0.0462  0.0490
  378MOL0     H50992  10.580   5.526   3.975  0.2602 -0.2795  1.4306
  378MOL0     H50993  10.349   5.588   4.008 -3.1855  0.2208  1.1455
  378MOL0     H50994  10.165   5.595   4.011 -1.6232 -2.2596 -0.4296
  378MOL0     H50995  10.010   5.580   4.090  0.5072  1.5056 -0.4190
  378MOL0     H50996  10.099   5.715   4.287  0.1510  2.5476  0.0862
  378MOL0     H50997  10.237   5.753   4.176 -0.6206  1.8422 -1.4797
  378MOL0     H50998  10.120   5.852   4.016 -0.4500  1.6235  0.2383
  378MOL0     H50999   9.957   5.813   4.085  0.8665 -5.0125  0.9268
  378MOL0     H51000  10.018   6.050   4.110 -0.0866 -0.1023  1.4093
  378MOL0     H51001  10.157   6.013   4.190  0.0056  0.1254  0.8707
  378MOL0     H51002   9.989   5.874   4.367 -0.6056 -1.2684 -1.4883
  378MOL0     H51003   9.867   5.980   4.296  0.0188  0.9327  0.7208
  378MOL0     H51004   9.970   6.057   4.508 -0.1326  2.3218  0.7883
  378MOL0     H51005  10.113   6.103   4.414 -1.0574  1.8046 -2.1952
  378MOL0     H51006   9.850   6.230   4.427  1.1646  1.5871  1.9058
  378MOL0     H51007   9.894   6.196   4.254 -1.3523  1.7175 -0.0837
  378MOL0     H51008  10.106   6.347   4.291 -1.5813  0.2151 -2.1114
  378MOL0     H51009   9.945   6.409   4.319  0.8065 -0.9769 -3.1421
  378MOL0     H51010  10.309   5.295   4.305  2.6401 -0.6325  1.4143
  378MOL0     H51011  10.538   5.240   4.295 -1.6380 -1.5011 -1.0155
  378MOL0     H51012  10.911   5.556   4.175  1.0891  1.2560  0.5894
  378MOL0     H51013  11.158   5.620   4.147 -0.5950  0.1302  1.4657
  378MOL0     H51014  11.277   6.401   5.576  0.0965  1.9924  0.8567
  378MOL0     H51015  11.064   6.370   5.696 -2.3312 -0.0865 -0.0518
  378MOL0     H51016  10.676   6.334   5.758 -0.5060  1.0720 -0.4856
  378MOL0     H51017  10.428   6.370   5.841 -2.1451 -1.3311  0.5705
  378MOL0     H51018  10.068   6.153   5.784  2.2187  1.2674  1.7550
  378MOL0     H51019  10.151   6.075   5.656  0.3057  0.4906 -1.4123
  378MOL0     H51020  10.097   6.222   5.489 -3.8179  1.5425 -2.7924
  378MOL0     H51021  10.046   6.356   5.591 -1.2657  0.3013  0.5325
  378MOL0     H51022   9.867   6.225   5.686 -1.4745  1.6051  0.4727
  378MOL0     H51023   9.890   6.103   5.550 -1.0435  0.9085  1.5641
  378MOL0     H51024   9.861   6.351   5.431  2.0765 -1.8180 -0.0694
  378MOL0     H51025   9.765   6.211   5.415 -3.3055  0.5683  0.8149
  378MOL0     H51026   9.506   6.446   5.653 -0.2736  0.7761 -3.2123
  378MOL0     H51027  10.327   6.081   5.540  0.5368 -1.1123  2.0179
  378MOL0     H51028  10.446   6.041   5.365 -0.1199  0.1122 -0.8763
  378MOL0     H51029  10.606   6.100   5.351  1.6744 -1.3979  0.6213
  378MOL0     H51030  10.585   5.946   5.417  2.1948  1.1967 -0.5550
  379MOL0     O51031   3.983   4.765   8.693 -0.5227  0.0358 -0.2405
  379MOL0     C51032   3.963   4.797   8.576 -0.3591  0.0870 -0.5307
  379MOL0     O51033   4.049   4.865   8.494 -0.4407  0.5583 -0.7753
  379MOL0     C51034   4.168   4.895   8.548  0.5938 -0.0687 -0.9136
  379MOL0     C51035   4.269   4.803   8.567 -0.4146 -0.0922  0.9370
  379MOL0     C51036   4.387   4.840   8.626 -0.7711  0.6297 -0.1522
  379MOL0     C51037   4.412   4.968   8.659  0.2088 -0.0277 -0.1668
  379MOL0     O51038   4.531   5.001   8.702 -0.5611 -0.7673  1.0725
  379MOL0     C51039   4.551   5.054   8.828  0.1983 -0.7060 -0.2223
  379MOL0     C51040   4.695   5.032   8.874 -0.4894  0.0324  0.1440
  379MOL0     C51041   4.789   5.109   8.773 -0.5063 -0.0288  0.2873
  379MOL0     C51042   4.768   5.260   8.777 -1.0103 -0.0252  0.4379
  379MOL0     C51043   4.865   5.330   8.691 -0.2309 -0.0908  0.3595
  379MOL0     C51044   4.815   5.372   8.553  0.2019 -0.7222  0.9139
  379MOL0     C51045   4.920   5.458   8.476 -0.0147  0.3755  0.0236
  379MOL0     C51046   4.895   5.482   8.326 -0.6359 -0.4643 -0.5884
  379MOL0     N51047   4.774   5.570   8.312 -0.4748 -0.1397  0.2747
  379MOL0     C51048   4.773   5.714   8.307  0.1383 -0.1046  0.3539
  379MOL0     C51049   4.640   5.745   8.288 -0.6432 -0.2472  0.2035
  379MOL0     C51050   4.594   5.885   8.278 -0.7167  0.0767  0.1114
  379MOL0     C51051   4.508   5.922   8.161  0.4150 -0.4972 -0.4158
  379MOL0     C51052   4.441   6.062   8.174 -0.2111  0.1458  1.2438
  379MOL0     C51053   4.538   6.158   8.248  0.8299 -0.0946  0.7278
  379MOL0     O51054   4.477   6.292   8.232  0.2910 -0.1459 -0.8031
  379MOL0     C51055   4.491   6.393   8.328 -0.7409  1.0004  0.3510
  379MOL0     C51056   4.597   6.389   8.423  0.6770 -0.8531  0.2269
  379MOL0     C51057   4.610   6.496   8.507  1.1108 -0.1155 -0.1545
  379MOL0     C51058   4.529   6.610   8.507  0.4352 -0.2767  0.6827
  379MOL0     C51059   4.551   6.725   8.602  0.8159  0.3810  0.7983
  379MOL0     O51060   4.462   6.823   8.591 -0.0621 -0.2179 -0.0188
  379MOL0     C51061   4.483   6.933   8.669  0.3407 -0.1170  0.5258
  379MOL0     C51062   4.422   6.955   8.796 -0.1439 -0.4158  0.9367
  379MOL0     C51063   4.452   7.071   8.871 -1.0356 -0.0588 -0.1365
  379MOL0     C51064   4.539   7.172   8.818  0.4987  0.1238  0.5500
  379MOL0     O51065   4.583   7.282   8.885  0.4562 -0.4089 -0.4754
  379MOL0     C51066   4.616   7.263   9.028 -0.3189 -0.6033  0.1037
  379MOL0     C51067   4.756   7.307   9.055  0.5831 -0.2077 -0.2682
  379MOL0     C51068   4.798   7.320   9.205 -0.3785  0.1419 -0.0321
  379MOL0     C51069   4.777   7.185   9.276  0.6414  0.2077  0.6291
  379MOL0     C51070   4.817   7.202   9.427 -0.5989 -0.2900  0.6312
  379MOL0     C51071   4.807   7.069   9.496 -0.5513  0.1744 -0.5503
  379MOL0     C51072   4.917   6.970   9.449  0.5779 -0.2504  0.0351
  379MOL0     C51073   4.918   6.847   9.528  0.3653  0.9049 -0.1848
  379MOL0    Cl51074   4.775   6.740   9.510  0.0133 -0.3435  0.6122
  379MOL0     C51075   4.576   7.159   8.685 -0.1240  0.0193  0.3983
  379MOL0     C51076   4.557   7.034   8.613 -0.1104  0.2763 -0.8115
  379MOL0     O51077   4.647   6.718   8.678 -0.1620  0.0616 -0.2495
  379MOL0     C51078   4.427   6.607   8.411  0.3947  0.6770  0.0975
  379MOL0     C51079   4.397   6.497   8.338 -0.2461  0.6209 -0.3059
  379MOL0     N51080   4.562   5.631   8.281  0.2947  0.9935 -0.1692
  379MOL0     N51081   4.644   5.528   8.284 -0.1317 -0.6765  0.2429
  379MOL0     C51082   4.316   5.071   8.648 -0.1003 -0.2567  0.3312
  379MOL0     C51083   4.196   5.036   8.585 -0.3729  0.4457 -0.2673
  379MOL0     C51084   3.833   4.773   8.523 -0.1369 -0.0923  0.0652
  379MOL0     C51085   3.783   4.845   8.409 -0.0083  0.4938  0.8377
  379MOL0     C51086   3.656   4.842   8.372  0.3234 -0.6572  0.0570
  379MOL0     C51087   3.564   4.764   8.444 -0.5915  0.0695 -0.1642
  379MOL0     O51088   3.432   4.763   8.408  0.6488  0.2768 -0.1570
  379MOL0     C51089   3.355   4.641   8.402 -0.1170 -0.0305  0.0593
  379MOL0     C51090   3.254   4.647   8.292 -0.7636 -0.2541  0.2891
  379MOL0     C51091   3.106   4.684   8.334  0.7528 -0.2373 -0.5302
  379MOL0     C51092   3.094   4.831   8.388  0.6122  0.1307  0.1971
  379MOL0     C51093   3.021   4.908   8.291  0.7843 -0.2562 -0.1382
  379MOL0     C51094   2.958   4.970   8.208  0.5800 -0.5023  0.1136
  379MOL0     C51095   3.605   4.689   8.546 -0.8513  0.2548 -0.5622
  379MOL0     C51096   3.732   4.694   8.598  0.0947 -0.1666  0.4871
  379MOL0     C51097   3.764   4.604   8.714 -0.2429  0.3537  0.5475
  379MOL0     H51098   4.247   4.697   8.556 -0.1120 -0.2798  2.0047
  379MOL0     H51099   4.458   4.761   8.648 -1.8275 -0.4843 -0.6281
  379MOL0     H51100   4.516   5.158   8.828 -1.8958 -1.3669 -0.1630
  379MOL0     H51101   4.489   4.994   8.896 -0.4808 -0.3071 -0.4745
  379MOL0     H51102   4.707   4.924   8.887  1.7300  0.1054 -0.8408
  379MOL0     H51103   4.731   5.075   8.968  1.0379  1.8465 -1.1906
  379MOL0     H51104   4.772   5.064   8.674  1.0326 -0.4880  0.2143
  379MOL0     H51105   4.890   5.081   8.802 -1.2825 -2.5840  0.8268
  379MOL0     H51106   4.668   5.287   8.743 -1.8136 -2.0268  1.0257
  379MOL0     H51107   4.784   5.287   8.882 -0.5033  1.7215 -0.0634
  379MOL0     H51108   4.867   5.423   8.748 -2.9878 -0.9769  2.1345
  379MOL0     H51109   4.962   5.280   8.688  0.5589  1.3914  0.1907
  379MOL0     H51110   4.789   5.283   8.495 -0.4023  0.0786 -0.0756
  379MOL0     H51111   4.720   5.425   8.556  1.0627  1.0738 -0.9358
  379MOL0     H51112   5.014   5.406   8.493  0.0384 -0.2432 -1.9339
  379MOL0     H51113   4.919   5.555   8.527 -2.2541  0.5703 -0.2472
  379MOL0     H51114   4.984   5.534   8.292  0.1098  0.2521  2.2261
  379MOL0     H51115   4.874   5.385   8.278 -2.7581 -0.9805  1.2219
  379MOL0     H51116   4.858   5.781   8.300  0.0354 -0.1190 -1.9806
  379MOL0     H51117   4.545   5.903   8.374 -0.4558 -3.3073  0.9727
  379MOL0     H51118   4.687   5.943   8.268  1.0657 -2.7997 -1.0897
  379MOL0     H51119   4.568   5.920   8.070  0.7553  1.4250 -0.2899
  379MOL0     H51120   4.435   5.841   8.155  0.9079 -1.1252  1.4132
  379MOL0     H51121   4.353   6.049   8.237 -0.4377 -2.4251  0.5086
  379MOL0     H51122   4.403   6.087   8.075 -1.7515 -3.5055  0.7788
  379MOL0     H51123   4.638   6.160   8.202  0.8889  2.6973  0.7838
  379MOL0     H51124   4.551   6.124   8.351 -0.9615  0.8035  1.3036
  379MOL0     H51125   4.662   6.304   8.401  1.0212  0.0841 -2.8090
  379MOL0     H51126   4.691   6.490   8.579 -0.8141  2.5818  2.4553
  379MOL0     H51127   4.350   6.885   8.836 -1.7676  1.4307  1.4452
  379MOL0     H51128   4.418   7.071   8.974 -1.8698 -1.6904 -0.3766
  379MOL0     H51129   4.540   7.323   9.079  0.8675  1.9849 -0.9724
  379MOL0     H51130   4.619   7.157   9.053 -1.4068 -0.5496  0.4954
  379MOL0     H51131   4.816   7.237   8.996  0.6548 -0.8144  0.5055
  379MOL0     H51132   4.773   7.410   9.021 -2.4543 -0.0966 -1.7914
  379MOL0     H51133   4.906   7.334   9.216 -0.2584 -0.0945 -0.8540
  379MOL0     H51134   4.734   7.391   9.258 -1.0076 -2.7964  3.6071
  379MOL0     H51135   4.829   7.107   9.219  0.8921 -1.9377  3.5524
  379MOL0     H51136   4.669   7.164   9.272  0.7389 -0.6944  1.9756
  379MOL0     H51137   4.762   7.280   9.479  1.1391  0.4930  1.3495
  379MOL0     H51138   4.921   7.232   9.436 -0.6607  0.1919 -0.2069
  379MOL0     H51139   4.819   7.087   9.603  0.8211 -1.9008 -0.3111
  379MOL0     H51140   4.705   7.033   9.476 -0.7797  1.0071 -0.9273
  379MOL0     H51141   5.015   7.018   9.461  0.1237  0.8764 -0.6441
  379MOL0     H51142   4.897   6.952   9.343  0.0102  4.7750 -0.9378
  379MOL0     H51143   5.011   6.792   9.508  0.7383  1.9904 -1.6259
  379MOL0     H51144   4.919   6.875   9.634 -1.6667  1.9122 -0.3881
  379MOL0     H51145   4.632   7.238   8.637 -0.7764 -0.3850 -1.0770
  379MOL0     H51146   4.609   7.038   8.517  1.8588  4.3822  0.1974
  379MOL0     H51147   4.354   6.687   8.401 -1.0319 -0.1058  3.1460
  379MOL0     H51148   4.310   6.509   8.274 -0.4661 -1.5150 -0.4531
  379MOL0     H51149   4.339   5.176   8.662  0.8784 -0.2158 -1.3125
  379MOL0     H51150   4.126   5.115   8.560 -0.6316 -0.4396 -2.5367
  379MOL0     H51151   3.848   4.910   8.352 -1.4782  0.9912 -0.3222
  379MOL0     H51152   3.619   4.892   8.284 -0.6542 -1.8684 -0.2450
  379MOL0     H51153   3.315   4.634   8.504  1.8315  1.3450  0.9869
  379MOL0     H51154   3.428   4.562   8.382  0.8486  0.6449  0.7720
  379MOL0     H51155   3.251   4.551   8.241 -0.8791 -0.5930  0.9184
  379MOL0     H51156   3.273   4.730   8.223 -0.9857 -0.8342 -0.4846
  379MOL0     H51157   3.071   4.614   8.410  0.5045  0.7269  0.2685
  379MOL0     H51158   3.041   4.682   8.247  0.9088  2.4012 -0.7734
  379MOL0     H51159   3.047   4.826   8.487 -1.8383 -3.9015 -0.9493
  379MOL0     H51160   3.192   4.879   8.398  1.5569 -2.0360  2.2687
  379MOL0     H51161   2.887   5.012   8.138 -1.1016  1.6958  2.9050
  379MOL0     H51162   3.536   4.621   8.595 -0.0048  0.1418  0.5154
  379MOL0     H51163   3.779   4.662   8.806  0.7027 -0.3319  0.8499
  379MOL0     H51164   3.695   4.521   8.730 -1.8484  1.3357 -0.9390
  379MOL0     H51165   3.859   4.556   8.687 -1.2647 -2.0646  1.0153
  380MOL0     O51166   6.130   6.634   4.588  0.3789  0.6675  0.2686
  380MOL0     C51167   6.125   6.530   4.659 -0.5726  0.6277 -0.2405
  380MOL0     O51168   6.013   6.480   4.718 -0.0822  0.1369 -0.2816
  380MOL0     C51169   5.893   6.545   4.703  0.6838  0.0887  0.9526
  380MOL0     C51170   5.786   6.466   4.647 -0.9449 -0.1307 -0.4445
  380MOL0     C51171   5.659   6.521   4.632 -0.2207  0.0494 -0.2998
  380MOL0     C51172   5.629   6.652   4.675  0.0675  1.3128  0.3222
  380MOL0     O51173   5.504   6.701   4.660 -0.8373  0.0839 -0.3831
  380MOL0     C51174   5.405   6.627   4.737 -0.0554 -0.8287 -0.1894
  380MOL0     C51175   5.328   6.723   4.828  0.4045 -0.4088 -0.5197
  380MOL0     C51176   5.273   6.652   4.953 -0.5399  0.1119  0.6066
  380MOL0     C51177   5.191   6.748   5.037 -0.3836 -0.2240  0.1595
  380MOL0     C51178   5.073   6.811   4.969 -0.7814  0.0731  0.4028
  380MOL0     C51179   4.986   6.893   5.069  0.4105  0.0716 -0.1471
  380MOL0     C51180   4.880   6.806   5.135  0.1842 -0.1565 -0.7256
  380MOL0     C51181   4.763   6.777   5.041  0.5046 -0.0316 -0.0172
  380MOL0     N51182   4.655   6.705   5.100 -0.0238  0.1139 -0.0408
  380MOL0     C51183   4.571   6.751   5.197 -0.2692 -0.2353  0.0251
  380MOL0     C51184   4.512   6.643   5.257 -0.6374  0.4010 -0.4260
  380MOL0     C51185   4.406   6.637   5.363  0.0837 -0.1533 -0.1733
  380MOL0     C51186   4.263   6.621   5.309 -0.0520 -0.6583 -0.9677
  380MOL0     C51187   4.256   6.478   5.235  0.4226  0.0787 -0.4172
  380MOL0     C51188   4.299   6.346   5.318  0.6734 -0.2078 -0.3486
  380MOL0     O51189   4.250   6.361   5.451  0.0722 -0.5319  0.3386
  380MOL0     C51190   4.121   6.341   5.478  0.2854 -1.0234 -0.7291
  380MOL0     C51191   4.023   6.303   5.384 -0.6379  0.3035 -0.5371
  380MOL0     C51192   3.890   6.293   5.425 -0.2230  0.5806 -0.3198
  380MOL0     C51193   3.863   6.306   5.559 -0.7245 -0.6294  1.1801
  380MOL0     C51194   3.720   6.289   5.604 -0.5008  0.2895  0.7712
  380MOL0     O51195   3.632   6.359   5.519 -0.6052  0.5855 -0.2293
  380MOL0     C51196   3.509   6.381   5.570 -0.0340 -1.0806  0.0121
  380MOL0     C51197   3.467   6.511   5.597  0.0444  0.4937 -0.0635
  380MOL0     C51198   3.321   6.526   5.617  0.3419 -0.0046 -0.0824
  380MOL0     C51199   3.235   6.419   5.621  0.5673  0.8390  0.4722
  380MOL0     O51200   3.098   6.428   5.650 -0.3003  0.6763 -0.1281
  380MOL0     C51201   3.036   6.551   5.622 -0.8992 -0.0913  0.7338
  380MOL0     C51202   2.889   6.522   5.609  0.4723 -0.1124  1.4294
  380MOL0     C51203   2.805   6.652   5.594  0.1863 -0.2946  0.2249
  380MOL0     C51204   2.655   6.617   5.561  0.0372 -0.9723  1.0210
  380MOL0     C51205   2.559   6.728   5.538  0.1565 -0.0846  0.4187
  380MOL0     C51206   2.552   6.825   5.660  1.3012 -0.5560 -1.1444
  380MOL0     C51207   2.464   6.950   5.650  0.3097 -0.1433  0.3270
  380MOL0     C51208   2.512   7.063   5.737  0.5426 -0.5213 -0.2704
  380MOL0    Cl51209   2.389   7.193   5.720 -0.3116  0.3527 -0.1289
  380MOL0     C51210   3.283   6.289   5.619 -0.5673  0.9879  0.0281
  380MOL0     C51211   3.416   6.274   5.578  0.2247 -0.6061 -0.2697
  380MOL0     O51212   3.689   6.240   5.714  0.0855 -0.1582 -1.5796
  380MOL0     C51213   3.961   6.328   5.655  0.1059  0.2447  0.6096
  380MOL0     C51214   4.087   6.362   5.612  0.6285  0.9830  0.3178
  380MOL0     N51215   4.553   6.537   5.173 -0.4318  0.0035 -0.6955
  380MOL0     N51216   4.631   6.565   5.084  0.6715 -0.4890  0.6790
  380MOL0     C51217   5.740   6.736   4.713  0.0066  0.4106 -0.3645
  380MOL0     C51218   5.871   6.680   4.730 -0.0072  0.5020  0.1088
  380MOL0     C51219   6.246   6.454   4.688 -0.2834  0.4802 -1.3890
  380MOL0     C51220   6.243   6.354   4.795 -0.6166  1.2033  0.1667
  380MOL0     C51221   6.362   6.292   4.841  0.1093 -0.1234 -0.5842
  380MOL0     C51222   6.480   6.315   4.787 -0.7441  0.0476  0.3369
  380MOL0     O51223   6.587   6.248   4.839  0.0926  0.1450 -0.2376
  380MOL0     C51224   6.652   6.333   4.937 -0.6582  0.1478 -0.7685
  380MOL0     C51225   6.771   6.275   5.017  0.1102  0.6276 -0.5695
  380MOL0     C51226   6.778   6.113   5.028  0.1482  0.6244  0.1016
  380MOL0     C51227   6.889   6.079   5.131  0.6579 -1.2134  0.2671
  380MOL0     C51228   7.020   6.113   5.072 -0.0895 -0.2079  0.4685
  380MOL0     C51229   7.128   6.147   5.038  0.0047 -0.2386 -0.1662
  380MOL0     C51230   6.488   6.411   4.682  0.6681  0.0273  0.1550
  380MOL0     C51231   6.375   6.472   4.628 -0.0296 -0.2989  0.2809
  380MOL0     C51232   6.392   6.559   4.502  0.6234 -0.0214 -0.6620
  380MOL0     H51233   5.802   6.364   4.614 -1.4100  0.5367 -2.9296
  380MOL0     H51234   5.579   6.456   4.596 -0.0851 -1.3678  1.7810
  380MOL0     H51235   5.341   6.571   4.667 -2.9374  2.2840 -0.2807
  380MOL0     H51236   5.458   6.560   4.805  1.5816  0.4639 -0.1253
  380MOL0     H51237   5.238   6.751   4.772  2.1239  1.7160 -2.3949
  380MOL0     H51238   5.394   6.805   4.855  1.5246 -1.8638  1.4253
  380MOL0     H51239   5.347   6.600   5.014 -1.9407 -2.2763  0.4290
  380MOL0     H51240   5.214   6.564   4.924  1.3904 -0.9070 -0.4899
  380MOL0     H51241   5.166   6.677   5.116  2.0503  0.7317  1.9218
  380MOL0     H51242   5.254   6.829   5.076 -0.5294 -0.9566  2.0265
  380MOL0     H51243   5.107   6.880   4.891  0.9946 -1.2364 -0.0387
  380MOL0     H51244   5.019   6.723   4.931  3.7268 -1.9072 -2.2321
  380MOL0     H51245   5.048   6.949   5.140  2.6322 -1.8765 -0.3838
  380MOL0     H51246   4.937   6.971   5.011 -1.6593 -0.5145  0.7429
  380MOL0     H51247   4.837   6.858   5.221 -1.7153  0.1929 -1.8367
  380MOL0     H51248   4.916   6.708   5.168 -0.5579  0.1709  1.1604
  380MOL0     H51249   4.723   6.865   4.991 -1.7373 -2.9908 -3.9917
  380MOL0     H51250   4.795   6.725   4.950 -0.0908 -0.3342 -0.0568
  380MOL0     H51251   4.557   6.858   5.211 -1.7656  0.0256 -2.7433
  380MOL0     H51252   4.429   6.569   5.445 -1.6339 -0.4753  0.0630
  380MOL0     H51253   4.407   6.729   5.421 -0.7628  1.2812 -2.2917
  380MOL0     H51254   4.189   6.628   5.389  1.2703 -1.4848  0.3754
  380MOL0     H51255   4.243   6.695   5.231 -5.4606 -1.3597 -0.6277
  380MOL0     H51256   4.309   6.472   5.139 -0.3723 -1.2939 -0.7900
  380MOL0     H51257   4.150   6.468   5.214  0.2373  2.3397 -0.8204
  380MOL0     H51258   4.408   6.345   5.318  0.6766 -0.8369 -0.8679
  380MOL0     H51259   4.275   6.254   5.263 -0.3404  0.3343 -0.8469
  380MOL0     H51260   4.045   6.286   5.280 -2.5095 -0.6109 -0.8209
  380MOL0     H51261   3.805   6.265   5.364 -1.6692 -0.1230  1.9164
  380MOL0     H51262   3.533   6.597   5.593 -1.0655  1.4504  1.2070
  380MOL0     H51263   3.278   6.623   5.638  1.3669  0.7302 -1.2148
  380MOL0     H51264   3.062   6.624   5.699  0.2545 -0.3667  0.6289
  380MOL0     H51265   3.070   6.593   5.527 -0.8668  1.8656  1.5523
  380MOL0     H51266   2.871   6.452   5.527  0.9278  1.5954 -0.2135
  380MOL0     H51267   2.851   6.486   5.705  1.7188  0.5129  2.1846
  380MOL0     H51268   2.797   6.703   5.690 -0.3121 -1.2093  0.6845
  380MOL0     H51269   2.845   6.720   5.518  2.2010 -1.3588  0.2651
  380MOL0     H51270   2.620   6.546   5.637 -1.9151  0.3158  1.4062
  380MOL0     H51271   2.670   6.579   5.459 -0.9476  2.1257 -0.3976
  380MOL0     H51272   2.460   6.682   5.537  0.1143  0.0069  0.4655
  380MOL0     H51273   2.593   6.784   5.451  0.1734  2.3306  1.9092
  380MOL0     H51274   2.515   6.762   5.741  0.7596  2.6899  1.2882
  380MOL0     H51275   2.646   6.860   5.702 -1.1838  3.2341  1.9137
  380MOL0     H51276   2.365   6.919   5.683 -0.3723 -2.9193 -3.5999
  380MOL0     H51277   2.464   6.988   5.547  2.1755 -0.1146  0.3001
  380MOL0     H51278   2.515   7.039   5.844  0.8271  0.1818 -0.1101
  380MOL0     H51279   2.610   7.099   5.702 -0.2181  1.3606 -0.6186
  380MOL0     H51280   3.225   6.197   5.626  0.7860  0.0513 -0.7241
  380MOL0     H51281   3.454   6.175   5.554  1.5549 -0.0609 -0.5001
  380MOL0     H51282   3.931   6.328   5.759 -1.0915 -0.4873  0.2836
  380MOL0     H51283   4.151   6.400   5.691  1.8363  0.3046 -0.3005
  380MOL0     H51284   5.719   6.840   4.735  1.7846  0.9315 -0.9404
  380MOL0     H51285   5.951   6.744   4.767 -0.3384  2.0787 -1.7220
  380MOL0     H51286   6.154   6.327   4.851 -0.0840  0.0778  0.5020
  380MOL0     H51287   6.346   6.225   4.925  0.3976  0.2748 -0.2081
  380MOL0     H51288   6.582   6.360   5.016  1.9180  1.9496  1.0717
  380MOL0     H51289   6.695   6.421   4.888  0.3360  0.2832  0.3188
  380MOL0     H51290   6.766   6.313   5.119  1.0044 -1.7892  0.4371
  380MOL0     H51291   6.860   6.319   4.971  2.0672 -2.9798 -0.5959
  380MOL0     H51292   6.793   6.070   4.928 -4.4504  1.3022 -1.1324
  380MOL0     H51293   6.684   6.075   5.068  0.4559  1.6644  1.9012
  380MOL0     H51294   6.882   6.144   5.219 -0.2932  1.5469 -1.7015
  380MOL0     H51295   6.884   5.973   5.157 -3.0168 -1.7529 -1.8783
  380MOL0     H51296   7.221   6.183   4.998  0.7756 -1.7498  0.2047
  380MOL0     H51297   6.575   6.435   4.621  0.6166  1.7943  0.7278
  380MOL0     H51298   6.495   6.578   4.469  0.4914  5.3971  1.0642
  380MOL0     H51299   6.329   6.511   4.427  0.4496 -1.9926  0.6705
  380MOL0     H51300   6.343   6.654   4.524 -2.4249 -1.6410  0.1590
  381MOL0     O51301   4.951   8.694   1.506  0.6563  1.1081 -0.3953
  381MOL0     C51302   4.961   8.683   1.631 -0.2363  0.4447  0.4867
  381MOL0     O51303   5.058   8.605   1.692 -0.0261  0.1682 -0.1031
  381MOL0     C51304   5.143   8.549   1.604 -1.1525 -0.0370  0.5130
  381MOL0     C51305   5.234   8.644   1.548 -0.0388  0.7805 -1.0917
  381MOL0     C51306   5.347   8.599   1.468 -0.8634 -0.5981  1.0470
  381MOL0     C51307   5.332   8.464   1.417  0.3334 -0.0020  0.5322
  381MOL0     O51308   5.412   8.420   1.305  0.1407 -0.5132  0.7854
  381MOL0     C51309   5.463   8.525   1.218 -1.2936 -0.5405 -0.1329
  381MOL0     C51310   5.563   8.459   1.121 -0.2343 -0.1205 -0.2891
  381MOL0     C51311   5.588   8.556   1.003  0.2994 -0.1879 -0.5861
  381MOL0     C51312   5.671   8.479   0.891  0.1936  0.2124 -0.3193
  381MOL0     C51313   5.708   8.553   0.760 -0.1242 -0.6075 -0.3297
  381MOL0     C51314   5.787   8.674   0.773  0.0929 -0.6385 -0.2934
  381MOL0     C51315   5.929   8.652   0.831  0.9024  0.0296  0.1874
  381MOL0     C51316   6.025   8.765   0.789  0.4624  0.9995 -0.0243
  381MOL0     N51317   5.983   8.894   0.823  0.2448 -0.2698  0.4959
  381MOL0     C51318   6.032   8.959   0.928  0.6385 -0.0108  0.3001
  381MOL0     C51319   5.962   9.079   0.921  0.9361  0.3993  0.1073
  381MOL0     C51320   5.936   9.188   1.018  0.0107 -0.1596  0.1105
  381MOL0     C51321   5.923   9.158   1.165 -0.0101  0.2314  0.3316
  381MOL0     C51322   5.798   9.079   1.209  0.5219 -0.6051  0.1073
  381MOL0     C51323   5.769   8.939   1.138 -0.5297 -0.9342  0.0304
  381MOL0     O51324   5.645   8.898   1.198  0.7444  0.1890  1.0098
  381MOL0     C51325   5.527   8.944   1.137  0.5766 -0.1974 -0.0242
  381MOL0     C51326   5.504   9.051   1.054 -0.3358 -1.1944 -0.4537
  381MOL0     C51327   5.376   9.086   1.014  0.2714  0.4405 -0.7942
  381MOL0     C51328   5.260   9.010   1.048  0.4167  0.3644 -0.1168
  381MOL0     C51329   5.123   9.059   1.012 -0.3124  0.4646 -0.2378
  381MOL0     O51330   5.124   9.161   0.923 -1.1574  0.2578  0.5406
  381MOL0     C51331   5.007   9.193   0.860  0.5831 -0.3275 -0.5601
  381MOL0     C51332   4.933   9.105   0.772 -0.2943  0.6626 -0.5550
  381MOL0     C51333   4.815   9.152   0.715 -0.1263  0.2669  0.5502
  381MOL0     C51334   4.766   9.281   0.733  0.6863  0.2984  0.0559
  381MOL0     O51335   4.663   9.338   0.668 -0.2896 -0.2666 -0.2574
  381MOL0     C51336   4.648   9.314   0.525 -0.6097  0.0740  0.6170
  381MOL0     C51337   4.536   9.217   0.500 -0.3894  0.0063 -0.3534
  381MOL0     C51338   4.445   9.255   0.388 -0.1844 -0.7077 -0.5186
  381MOL0     C51339   4.341   9.153   0.340  0.8416 -0.7234  0.4833
  381MOL0     C51340   4.239   9.205   0.248  0.9634 -0.1299  0.8718
  381MOL0     C51341   4.124   9.284   0.317  0.6296 -0.0549  0.3419
  381MOL0     C51342   4.003   9.290   0.215  0.4792  0.2015  0.4948
  381MOL0     C51343   3.876   9.341   0.279  0.2033  0.4425  0.1832
  381MOL0    Cl51344   3.737   9.311   0.172  0.1247  0.4404 -0.5611
  381MOL0     C51345   4.833   9.366   0.825  0.0944  0.1214 -0.0668
  381MOL0     C51346   4.950   9.321   0.890 -0.6112  0.8027 -0.2885
  381MOL0     O51347   5.021   8.998   1.052 -0.3202 -0.5712 -0.0217
  381MOL0     C51348   5.287   8.898   1.131 -0.3131  0.1569  0.0054
  381MOL0     C51349   5.414   8.873   1.180 -0.0184  1.2234 -0.3904
  381MOL0     N51350   5.874   9.083   0.815 -0.6621 -0.3446  0.8443
  381MOL0     N51351   5.891   8.973   0.753 -0.1432  0.4496 -0.6938
  381MOL0     C51352   5.232   8.368   1.459 -0.2063  0.2951  0.7031
  381MOL0     C51353   5.144   8.412   1.565  1.2651  0.0377  0.3241
  381MOL0     C51354   4.864   8.746   1.718 -0.2256 -0.1653  1.1457
  381MOL0     C51355   4.903   8.743   1.857  0.1897 -0.0170  0.9401
  381MOL0     C51356   4.818   8.784   1.957  0.0511 -0.1703  0.5029
  381MOL0     C51357   4.693   8.846   1.923  0.8362  0.2741  0.3262
  381MOL0     O51358   4.609   8.884   2.027  0.2108  1.2627 -0.3559
  381MOL0     C51359   4.658   9.000   2.104  0.2445  0.1870  0.6612
  381MOL0     C51360   4.762   8.978   2.220  0.6450 -0.2003  0.2183
  381MOL0     C51361   4.741   8.856   2.309  0.4350  0.2854  0.5610
  381MOL0     C51362   4.864   8.820   2.402 -0.5057 -1.1696  0.5606
  381MOL0     C51363   4.895   8.925   2.502 -0.4683 -0.5471  0.3978
  381MOL0     C51364   4.930   9.009   2.584 -0.4062 -0.2431 -0.7123
  381MOL0     C51365   4.660   8.862   1.786 -0.7275  1.1650 -0.8632
  381MOL0     C51366   4.744   8.821   1.680 -0.9420 -0.1029 -0.7757
  381MOL0     C51367   4.714   8.850   1.539 -0.1446  0.0987  0.0326
  381MOL0     H51368   5.234   8.746   1.585  0.6411  0.1764  0.6837
  381MOL0     H51369   5.424   8.668   1.436  0.3201 -1.6121  1.6448
  381MOL0     H51370   5.378   8.567   1.163  0.1116 -0.4694 -2.4073
  381MOL0     H51371   5.514   8.604   1.273 -1.9758 -0.1085 -0.1166
  381MOL0     H51372   5.520   8.368   1.078 -1.2451 -0.0056  0.4425
  381MOL0     H51373   5.654   8.438   1.177 -0.7581 -0.0263  0.6120
  381MOL0     H51374   5.643   8.642   1.045 -0.8565 -0.1057  0.8335
  381MOL0     H51375   5.495   8.586   0.954 -0.2873 -1.3286 -0.2121
  381MOL0     H51376   5.764   8.435   0.927  1.3164  0.5759 -2.5709
  381MOL0     H51377   5.608   8.392   0.871 -1.5600  1.5045 -0.7140
  381MOL0     H51378   5.749   8.485   0.685  0.2473  1.7450 -2.4086
  381MOL0     H51379   5.610   8.576   0.718  0.5081 -0.4472 -1.7708
  381MOL0     H51380   5.804   8.709   0.671 -3.8940 -1.9097 -1.5893
  381MOL0     H51381   5.730   8.743   0.836 -1.7242 -1.5044 -0.9315
  381MOL0     H51382   5.967   8.557   0.793 -0.6752 -0.5807  0.0700
  381MOL0     H51383   5.918   8.651   0.940 -1.3082 -3.9482  0.1078
  381MOL0     H51384   6.126   8.746   0.827  0.3879  1.7704  0.5837
  381MOL0     H51385   6.036   8.757   0.680 -3.6282  3.4485 -0.8352
  381MOL0     H51386   6.103   8.930   1.005  0.8736  0.3597  0.2249
  381MOL0     H51387   6.028   9.247   1.027  0.7913 -1.3388  0.0826
  381MOL0     H51388   5.859   9.256   0.980 -0.4799 -0.7526  0.0347
  381MOL0     H51389   6.006   9.092   1.196  0.0552 -0.2395 -0.8095
  381MOL0     H51390   5.925   9.249   1.226  1.1914 -1.1476  2.4980
  381MOL0     H51391   5.716   9.145   1.182  0.2490  0.1222  2.4412
  381MOL0     H51392   5.803   9.074   1.318 -0.6288 -0.8934  0.1522
  381MOL0     H51393   5.851   8.874   1.169  0.6259  1.1534  1.7072
  381MOL0     H51394   5.754   8.955   1.031 -1.2757 -1.0226  0.1207
  381MOL0     H51395   5.581   9.113   1.008 -0.0059  1.0186  2.7921
  381MOL0     H51396   5.374   9.180   0.960  1.6581  0.4338 -0.8988
  381MOL0     H51397   4.974   9.005   0.760  0.3107  0.9658 -1.1084
  381MOL0     H51398   4.763   9.090   0.643  1.0690 -0.4313  0.2531
  381MOL0     H51399   4.610   9.406   0.481 -1.2768 -0.4175  0.1446
  381MOL0     H51400   4.738   9.276   0.475 -1.8375  2.1277 -3.6399
  381MOL0     H51401   4.582   9.123   0.465 -2.0578 -1.3731  1.0110
  381MOL0     H51402   4.487   9.198   0.596  1.0376  0.1860  0.4442
  381MOL0     H51403   4.392   9.344   0.422  3.1177  0.3371  2.4748
  381MOL0     H51404   4.499   9.298   0.302  1.9565  0.3425  1.2527
  381MOL0     H51405   4.296   9.117   0.433 -0.1079  1.3304  0.8707
  381MOL0     H51406   4.390   9.068   0.290 -0.2458 -0.3220 -1.3594
  381MOL0     H51407   4.197   9.120   0.194  2.2348 -1.1847  1.4988
  381MOL0     H51408   4.285   9.272   0.174  3.0962 -1.0073  1.3362
  381MOL0     H51409   4.087   9.226   0.402 -1.0988 -0.5916 -0.7102
  381MOL0     H51410   4.162   9.376   0.360  2.7470 -1.0939  0.8507
  381MOL0     H51411   3.991   9.192   0.167  1.4684  0.8078 -1.0880
  381MOL0     H51412   4.023   9.368   0.141  2.8041  0.4083  1.2616
  381MOL0     H51413   3.849   9.288   0.371  0.5030  0.2281  0.1473
  381MOL0     H51414   3.894   9.447   0.303 -0.9587  0.7704 -0.2881
  381MOL0     H51415   4.797   9.468   0.817 -2.1067 -0.4417  1.6574
  381MOL0     H51416   5.004   9.388   0.956  0.0490 -1.5991  1.8046
  381MOL0     H51417   5.206   8.836   1.166  0.1034 -0.9043 -0.8186
  381MOL0     H51418   5.423   8.805   1.264 -2.5303  1.3787  0.0866
  381MOL0     H51419   5.212   8.271   1.415 -1.2700  0.6257  0.4299
  381MOL0     H51420   5.084   8.325   1.588  2.6702 -1.1474 -0.4168
  381MOL0     H51421   4.996   8.695   1.887 -0.6830 -4.3092 -2.2307
  381MOL0     H51422   4.834   8.763   2.062 -0.5492 -3.5760  0.0299
  381MOL0     H51423   4.572   9.053   2.147  1.8692  2.8043  0.9067
  381MOL0     H51424   4.702   9.070   2.032  2.6765  0.2045  2.0560
  381MOL0     H51425   4.755   9.066   2.284 -1.0099  0.1784 -0.4419
  381MOL0     H51426   4.863   8.989   2.179  0.3904  2.6700  0.1779
  381MOL0     H51427   4.708   8.773   2.246 -2.3362  0.7399  1.2999
  381MOL0     H51428   4.664   8.887   2.380  1.4059  1.8164  1.0108
  381MOL0     H51429   4.838   8.722   2.442  0.0495 -0.9913  1.3803
  381MOL0     H51430   4.955   8.812   2.342 -0.8423  2.8924 -0.7725
  381MOL0     H51431   4.969   9.087   2.646  0.0580 -1.5980  0.7814
  381MOL0     H51432   4.557   8.893   1.766 -0.5897  1.8037 -0.5938
  381MOL0     H51433   4.713   8.759   1.477 -2.9178 -1.8823  2.6564
  381MOL0     H51434   4.615   8.897   1.541  0.2488  0.9803 -0.7377
  381MOL0     H51435   4.793   8.915   1.500  0.8904 -1.2464 -0.1974
  382MOL0     O51436   7.120   8.762   2.113  0.1808 -0.0943  0.0977
  382MOL0     C51437   7.165   8.647   2.114 -0.3544 -0.8685  0.8227
  382MOL0     O51438   7.212   8.578   2.227  0.0317 -0.0416  0.5029
  382MOL0     C51439   7.187   8.646   2.342 -1.0484 -0.5724  0.1838
  382MOL0     C51440   7.298   8.725   2.381  1.6095  0.9174 -0.6095
  382MOL0     C51441   7.296   8.780   2.508  0.0453  0.5743 -0.0544
  382MOL0     C51442   7.191   8.748   2.598  0.9206 -0.5404 -0.2006
  382MOL0     O51443   7.195   8.797   2.724 -0.0519 -0.0175 -0.2039
  382MOL0     C51444   7.313   8.846   2.800  0.8552 -0.4002 -0.2761
  382MOL0     C51445   7.264   8.880   2.947 -0.6549  0.9349  0.8841
  382MOL0     C51446   7.376   8.975   3.016  0.5696 -0.3789 -0.4017
  382MOL0     C51447   7.305   9.027   3.134  0.1689 -0.3245  1.8574
  382MOL0     C51448   7.397   9.113   3.227 -0.0455  1.1147 -0.2758
  382MOL0     C51449   7.433   9.254   3.185  0.3599 -0.1072 -0.2659
  382MOL0     C51450   7.491   9.349   3.294  0.1582 -0.4126  0.2818
  382MOL0     C51451   7.379   9.377   3.403  0.2461 -0.3883  0.8712
  382MOL0     N51452   7.389   9.516   3.456  0.5096 -0.3095 -0.7169
  382MOL0     C51453   7.354   9.632   3.392 -0.9841  0.9246  0.4012
  382MOL0     C51454   7.369   9.737   3.472  1.0073 -0.6899  0.4775
  382MOL0     C51455   7.351   9.885   3.427  0.0469 -0.0729 -0.1943
  382MOL0     C51456   7.409   9.988   3.517  0.1537 -0.0406  0.3173
  382MOL0     C51457   7.567   9.986   3.537  1.1982 -0.1911 -1.0834
  382MOL0     C51458   7.624  10.133   3.541  0.4869 -0.3412 -1.1370
  382MOL0     O51459   7.546  10.213   3.633  0.0549  0.0319 -0.8132
  382MOL0     C51460   7.553  10.346   3.626  0.5149 -0.9227  0.1849
  382MOL0     C51461   7.429  10.416   3.649 -0.4347  0.6895  0.0127
  382MOL0     C51462   7.425  10.549   3.637 -0.5238  0.2168 -0.4500
  382MOL0     C51463   7.537  10.623   3.605 -0.1253 -0.5516  0.5632
  382MOL0     C51464   7.515  10.771   3.605 -0.1789 -0.6693  0.2056
  382MOL0     O51465   7.394  10.823   3.638  0.7848 -0.2077  0.2921
  382MOL0     C51466   7.362  10.957   3.628  0.6121 -0.0116 -0.6102
  382MOL0     C51467   7.249  10.994   3.703 -0.7453  0.0208 -0.4465
  382MOL0     C51468   7.206  11.128   3.710 -0.5061  0.0555 -0.7206
  382MOL0     C51469   7.267  11.230   3.643 -0.7461  0.2441 -0.5410
  382MOL0     O51470   7.222  11.363   3.654  0.5113  0.8110  0.0784
  382MOL0     C51471   7.205  11.452   3.535 -0.8867 -0.3144 -0.0750
  382MOL0     C51472   7.139  11.581   3.578 -0.6523  0.2282  0.0272
  382MOL0     C51473   7.254  11.678   3.579  0.1020  0.7156  0.1178
  382MOL0     C51474   7.218  11.818   3.612  0.2141  0.0972  0.1472
  382MOL0     C51475   7.334  11.927   3.592 -0.0244 -0.0026 -0.5529
  382MOL0     C51476   7.455  11.905   3.686  0.4545 -0.5128  0.3740
  382MOL0     C51477   7.559  12.007   3.653  0.3585  0.1648 -0.5779
  382MOL0     C51478   7.654  12.024   3.764 -0.4875  0.9823 -0.2549
  382MOL0    Cl51479   7.763  12.158   3.712  0.4114 -0.0970 -0.0918
  382MOL0     C51480   7.377  11.193   3.562 -0.5074 -0.5709 -0.3258
  382MOL0     C51481   7.431  11.054   3.559  0.3834 -0.4771  0.3795
  382MOL0     O51482   7.617  10.839   3.596  0.4255 -0.0095 -0.0525
  382MOL0     C51483   7.656  10.558   3.581 -0.2504  0.0221  1.0463
  382MOL0     C51484   7.675  10.418   3.590  0.2508 -0.6381 -0.3843
  382MOL0     N51485   7.400   9.688   3.600 -0.7939 -0.4257 -0.3929
  382MOL0     N51486   7.421   9.553   3.587  0.0814 -0.4031  0.8927
  382MOL0     C51487   7.091   8.663   2.557 -0.0298 -0.0152 -0.6582
  382MOL0     C51488   7.086   8.615   2.426 -0.0182  0.2489  0.2422
  382MOL0     C51489   7.162   8.567   1.985 -0.0414 -0.6059 -0.0587
  382MOL0     C51490   7.163   8.420   2.006  0.3953 -0.0893  0.5484
  382MOL0     C51491   7.154   8.332   1.893 -0.2011  0.7265 -1.1037
  382MOL0     C51492   7.134   8.380   1.762 -0.6473  0.4624  0.0518
  382MOL0     O51493   7.104   8.290   1.665  0.8768  0.7566  0.3203
  382MOL0     C51494   7.070   8.343   1.531 -0.1086  0.5534 -0.2967
  382MOL0     C51495   7.083   8.235   1.427  0.1207  0.7440 -0.4276
  382MOL0     C51496   6.964   8.138   1.416  0.5798 -0.4460 -0.3216
  382MOL0     C51497   6.982   8.016   1.506  0.2367 -0.8428 -0.6470
  382MOL0     C51498   6.854   7.930   1.475  0.6748  1.2057 -0.1519
  382MOL0     C51499   6.768   7.838   1.452  0.3182 -0.4144  0.2990
  382MOL0     C51500   7.146   8.521   1.747 -0.0990  0.7055 -0.7819
  382MOL0     C51501   7.158   8.614   1.850 -0.5510 -0.5155 -0.0508
  382MOL0     C51502   7.164   8.758   1.814 -0.5747 -0.2709 -0.1745
  382MOL0     H51503   7.371   8.755   2.306  4.2879 -1.4586  0.8574
  382MOL0     H51504   7.382   8.835   2.546  1.8077 -1.3523 -1.0116
  382MOL0     H51505   7.385   8.765   2.817 -2.6502 -3.3835  1.9373
  382MOL0     H51506   7.334   8.944   2.757 -0.1994  0.4164  0.9914
  382MOL0     H51507   7.273   8.784   2.998 -4.3288  0.5678  1.0895
  382MOL0     H51508   7.163   8.916   2.964 -0.8655  0.5473  0.4757
  382MOL0     H51509   7.424   9.043   2.945 -0.4161 -1.5483 -2.2630
  382MOL0     H51510   7.456   8.912   3.057 -0.7030  0.0724  3.1105
  382MOL0     H51511   7.222   9.092   3.105 -0.3004 -0.4422  2.9274
  382MOL0     H51512   7.263   8.938   3.182 -0.2889 -2.0333 -1.4116
  382MOL0     H51513   7.355   9.107   3.328 -0.2855 -3.9472 -0.3890
  382MOL0     H51514   7.490   9.057   3.243 -1.2454 -0.3854  2.0690
  382MOL0     H51515   7.507   9.241   3.106  0.4374  2.2193 -0.6572
  382MOL0     H51516   7.352   9.307   3.135 -1.3615 -0.6651  1.7509
  382MOL0     H51517   7.514   9.445   3.247 -0.2025 -0.1282  0.6799
  382MOL0     H51518   7.579   9.298   3.333 -0.7322 -0.6357  2.0922
  382MOL0     H51519   7.287   9.367   3.345  0.3062  1.3632  0.4102
  382MOL0     H51520   7.375   9.301   3.481 -0.9663 -0.1426  1.0750
  382MOL0     H51521   7.321   9.622   3.289 -1.1014 -1.9205  0.6354
  382MOL0     H51522   7.402   9.902   3.332  0.2077  2.7767  0.3152
  382MOL0     H51523   7.244   9.901   3.417 -0.4175 -2.1981  0.7947
  382MOL0     H51524   7.375  10.080   3.469 -1.4424 -1.4684 -1.4840
  382MOL0     H51525   7.356   9.986   3.612 -1.8481  1.2227 -0.7010
  382MOL0     H51526   7.620   9.937   3.455  0.8808  1.2169 -2.1652
  382MOL0     H51527   7.588   9.943   3.636  2.2318  2.0151 -0.2896
  382MOL0     H51528   7.619  10.169   3.438 -3.4921  1.2238 -0.5743
  382MOL0     H51529   7.726  10.142   3.577 -0.0645  1.7128  0.0372
  382MOL0     H51530   7.339  10.357   3.664 -0.5891  0.1616 -2.5513
  382MOL0     H51531   7.334  10.603   3.660  0.9176  1.9609  1.6904
  382MOL0     H51532   7.182  10.930   3.760 -0.5110  0.7485  0.6828
  382MOL0     H51533   7.123  11.149   3.776  0.5656 -1.5139  1.2226
  382MOL0     H51534   7.303  11.474   3.493 -0.4857  0.3097  1.1423
  382MOL0     H51535   7.143  11.391   3.468  0.7434 -1.3264 -0.7406
  382MOL0     H51536   7.063  11.600   3.502 -0.2229 -0.4434 -0.5815
  382MOL0     H51537   7.096  11.573   3.678 -1.0961 -1.4689 -0.2651
  382MOL0     H51538   7.335  11.650   3.647 -0.7116 -0.4403  0.6436
  382MOL0     H51539   7.290  11.684   3.476 -2.5517 -1.1254 -1.0446
  382MOL0     H51540   7.178  11.818   3.713 -0.2260  5.3404  0.2393
  382MOL0     H51541   7.131  11.848   3.553 -1.2572 -1.6596  1.3250
  382MOL0     H51542   7.293  12.027   3.603 -2.2155 -0.8351 -0.7455
  382MOL0     H51543   7.378  11.923   3.492  0.6245  2.2001 -0.4045
  382MOL0     H51544   7.410  11.932   3.782 -1.1233  2.1796 -1.0293
  382MOL0     H51545   7.492  11.802   3.676 -1.1305 -1.0103 -0.8093
  382MOL0     H51546   7.513  12.103   3.630 -1.5626 -0.6132 -0.1281
  382MOL0     H51547   7.619  11.972   3.569  1.4477 -0.3817  0.3876
  382MOL0     H51548   7.605  12.062   3.855  2.0777 -2.0255  2.6639
  382MOL0     H51549   7.709  11.931   3.781 -2.0033  0.0238 -0.3597
  382MOL0     H51550   7.431  11.269   3.506  0.4710 -2.2690 -1.8064
  382MOL0     H51551   7.511  11.049   3.486 -1.6579 -0.5663 -1.9907
  382MOL0     H51552   7.749  10.614   3.573 -0.6316  0.6793  1.2050
  382MOL0     H51553   7.771  10.373   3.565  1.4924  2.1053 -0.9599
  382MOL0     H51554   7.032   8.634   2.643  1.4193 -0.5090  0.2170
  382MOL0     H51555   7.011   8.560   2.370  0.2164  0.8079 -0.6455
  382MOL0     H51556   7.170   8.377   2.106 -2.3812  1.2029  1.3869
  382MOL0     H51557   7.146   8.227   1.919  0.1193 -0.9590 -6.5238
  382MOL0     H51558   7.142   8.419   1.499 -0.8409  0.5856 -1.9695
  382MOL0     H51559   6.971   8.389   1.529  0.6197  2.3402 -4.0518
  382MOL0     H51560   7.179   8.187   1.452 -0.1204 -0.4829 -1.7098
  382MOL0     H51561   7.093   8.286   1.331 -0.9051  2.5706  0.3798
  382MOL0     H51562   6.957   8.107   1.311 -0.4220 -1.5407  0.0451
  382MOL0     H51563   6.876   8.192   1.453  1.9842  0.5214  1.7743
  382MOL0     H51564   7.077   7.965   1.490  0.7394 -0.6317  1.3861
  382MOL0     H51565   6.988   8.055   1.608  3.0497  2.1453 -1.8118
  382MOL0     H51566   6.687   7.775   1.422 -0.0354  0.8643 -1.6432
  382MOL0     H51567   7.141   8.556   1.644 -1.0436  1.1624 -0.5862
  382MOL0     H51568   7.259   8.795   1.854 -2.5594  3.9806  1.2044
  382MOL0     H51569   7.168   8.774   1.706  0.9786  0.5633 -0.0274
  382MOL0     H51570   7.087   8.819   1.861 -0.4590 -1.3126  1.4649
  383MOL0     O51571   5.117   3.240   2.876 -0.2088  0.2330  0.3165
  383MOL0     C51572   5.034   3.284   2.962  0.2309 -0.9964  1.0396
  383MOL0     O51573   5.032   3.254   3.094  0.2148 -0.3851 -0.4758
  383MOL0     C51574   5.138   3.181   3.140  0.4287 -0.9817 -0.2069
  383MOL0     C51575   5.243   3.234   3.204  0.1335  0.3984  0.4814
  383MOL0     C51576   5.348   3.154   3.257  0.0768  0.0297  0.5338
  383MOL0     C51577   5.352   3.014   3.243  0.7486  0.1358 -0.3683
  383MOL0     O51578   5.454   2.945   3.305  0.0600 -0.9879  0.1228
  383MOL0     C51579   5.493   2.818   3.248  0.0438 -1.1706  0.1316
  383MOL0     C51580   5.633   2.784   3.294 -0.5892  0.6631 -0.8477
  383MOL0     C51581   5.736   2.893   3.236 -0.4165 -0.7426 -0.0056
  383MOL0     C51582   5.779   2.991   3.345 -0.1026  0.7718  0.9984
  383MOL0     C51583   5.915   3.061   3.304 -0.0611  0.1045 -0.7021
  383MOL0     C51584   5.920   3.151   3.179 -0.0747 -0.6195  0.5080
  383MOL0     C51585   5.801   3.236   3.156  0.5520 -0.6057  0.6815
  383MOL0     C51586   5.804   3.365   3.250  0.1637  0.1026 -0.4601
  383MOL0     N51587   5.742   3.485   3.195  0.4717 -0.1572 -0.5539
  383MOL0     C51588   5.606   3.494   3.173  0.7495 -0.6849 -0.2845
  383MOL0     C51589   5.597   3.595   3.083 -0.2842 -0.1070  0.8531
  383MOL0     C51590   5.474   3.623   3.012 -0.4952  0.1879  0.3995
  383MOL0     C51591   5.466   3.553   2.870 -1.1641 -0.7086 -0.5813
  383MOL0     C51592   5.437   3.396   2.892  0.3131  0.2984  0.3208
  383MOL0     C51593   5.430   3.319   2.767  0.0553  0.7154  1.8093
  383MOL0     O51594   5.556   3.262   2.731 -0.3717  0.6316 -0.7217
  383MOL0     C51595   5.591   3.145   2.800 -1.3478  0.9927  0.4105
  383MOL0     C51596   5.516   3.044   2.863  0.4948 -0.7284 -1.0465
  383MOL0     C51597   5.578   2.931   2.902  0.0709  0.1367  0.2638
  383MOL0     C51598   5.717   2.908   2.882 -0.2133  0.8136 -1.2586
  383MOL0     C51599   5.789   2.785   2.918 -0.7929  0.8411  0.1333
  383MOL0     O51600   5.704   2.687   2.930  0.0528 -0.1913 -0.0386
  383MOL0     C51601   5.746   2.557   2.968 -0.1699  0.2898 -0.0789
  383MOL0     C51602   5.647   2.459   2.953  0.6700 -0.7245  0.0123
  383MOL0     C51603   5.667   2.327   2.985 -0.0712 -0.5867 -0.0399
  383MOL0     C51604   5.789   2.291   3.052 -0.1942  0.8733 -0.3257
  383MOL0     O51605   5.824   2.170   3.101 -0.4546 -0.8171  0.6584
  383MOL0     C51606   5.777   2.062   3.019 -0.7888 -0.0750 -0.3188
  383MOL0     C51607   5.828   1.921   3.054 -0.2011  0.3396  0.2881
  383MOL0     C51608   5.805   1.886   3.195  0.6097 -0.1496  0.3276
  383MOL0     C51609   5.827   1.737   3.233  0.7774  0.3478 -0.1077
  383MOL0     C51610   5.729   1.655   3.148  0.3746  0.3993  0.4209
  383MOL0     C51611   5.710   1.519   3.215 -0.2004  0.0884  0.2516
  383MOL0     C51612   5.602   1.435   3.143 -0.5500  0.0119 -0.5192
  383MOL0     C51613   5.618   1.283   3.172  0.9643 -0.5276 -0.3061
  383MOL0    Cl51614   5.575   1.250   3.345  0.1203  0.1246  0.5802
  383MOL0     C51615   5.887   2.387   3.074 -0.3261 -0.6250 -0.0754
  383MOL0     C51616   5.855   2.523   3.049  0.2823  0.3432 -0.4141
  383MOL0     O51617   5.910   2.786   2.949  0.2224  0.8448 -0.0045
  383MOL0     C51618   5.788   3.007   2.824  0.2448  0.0762 -0.2967
  383MOL0     C51619   5.724   3.121   2.780 -0.5710 -0.9553 -0.4024
  383MOL0     N51620   5.725   3.652   3.069 -0.2944  0.0166 -0.5756
  383MOL0     N51621   5.812   3.585   3.133  0.4486  0.1955  0.6589
  383MOL0     C51622   5.248   2.957   3.171 -0.1696  0.0812 -0.4600
  383MOL0     C51623   5.137   3.039   3.122 -0.6032 -0.3192 -0.6257
  383MOL0     C51624   4.910   3.363   2.922  0.2825  0.6944 -0.3205
  383MOL0     C51625   4.791   3.333   2.991 -1.5616 -0.8986  0.0446
  383MOL0     C51626   4.682   3.420   2.990 -0.2387 -0.0018 -1.4931
  383MOL0     C51627   4.697   3.537   2.908 -1.3827 -0.8592 -0.1613
  383MOL0     O51628   4.588   3.623   2.879  0.3170 -0.6136 -0.2391
  383MOL0     C51629   4.462   3.608   2.951 -0.9720 -0.4848 -0.6383
  383MOL0     C51630   4.404   3.747   2.957 -0.2149  0.4476 -0.3121
  383MOL0     C51631   4.275   3.759   3.046 -0.0241 -0.0559  0.3175
  383MOL0     C51632   4.144   3.706   2.977 -0.1746 -0.6379 -0.0334
  383MOL0     C51633   4.036   3.794   3.026 -0.1776 -0.4559 -0.3386
  383MOL0     C51634   3.938   3.851   3.059 -0.8788 -1.4026  0.5329
  383MOL0     C51635   4.798   3.557   2.818 -0.7447  0.3081 -0.4861
  383MOL0     C51636   4.908   3.475   2.829  0.1155  0.2578  0.0919
  383MOL0     C51637   5.035   3.510   2.742  0.0308  0.0299 -0.4338
  383MOL0     H51638   5.250   3.338   3.234 -1.4499  0.8586 -0.6199
  383MOL0     H51639   5.419   3.207   3.320 -1.2601  2.3926  0.1978
  383MOL0     H51640   5.424   2.742   3.286 -0.5995 -1.4210 -1.4721
  383MOL0     H51641   5.482   2.825   3.140 -1.2926  1.3581  0.3499
  383MOL0     H51642   5.654   2.684   3.255  0.5655  0.1731  0.9148
  383MOL0     H51643   5.631   2.777   3.403  1.4562  3.9845 -0.4662
  383MOL0     H51644   5.686   2.945   3.154 -1.8106 -2.4007 -0.2580
  383MOL0     H51645   5.829   2.844   3.206 -0.1182  0.1825 -0.6178
  383MOL0     H51646   5.702   3.069   3.351 -2.6001 -1.2251 -1.8435
  383MOL0     H51647   5.792   2.929   3.434 -0.6183 -3.2875 -1.5055
  383MOL0     H51648   5.944   3.116   3.394  0.7529  2.0956 -2.1130
  383MOL0     H51649   5.990   2.982   3.302 -2.3253 -2.1856 -0.1110
  383MOL0     H51650   6.012   3.210   3.174  0.7686 -1.9041  0.3966
  383MOL0     H51651   5.937   3.091   3.089  0.1033  0.2994 -0.0758
  383MOL0     H51652   5.704   3.185   3.150 -0.6026  1.5085  0.2979
  383MOL0     H51653   5.821   3.287   3.061 -1.0042  3.6599  2.3628
  383MOL0     H51654   5.754   3.347   3.346  0.0902  2.8222  0.0999
  383MOL0     H51655   5.907   3.393   3.274  0.1432 -0.1274 -0.1037
  383MOL0     H51656   5.525   3.428   3.201  0.6174  0.9285  3.8550
  383MOL0     H51657   5.389   3.585   3.069 -0.6852 -3.3038 -1.8974
  383MOL0     H51658   5.469   3.731   2.992  0.9641  0.2189  0.0742
  383MOL0     H51659   5.386   3.599   2.811 -1.7907 -1.4619 -0.3389
  383MOL0     H51660   5.554   3.566   2.807 -1.2512  0.3706 -0.4910
  383MOL0     H51661   5.345   3.369   2.945  0.5663 -2.4795 -0.4823
  383MOL0     H51662   5.519   3.353   2.951 -0.5385 -0.2533  1.1400
  383MOL0     H51663   5.386   3.386   2.692 -0.7981 -1.5895  0.1295
  383MOL0     H51664   5.364   3.235   2.791  0.0065  0.1379 -0.1551
  383MOL0     H51665   5.409   3.061   2.878  1.0632  2.0818  0.4545
  383MOL0     H51666   5.510   2.860   2.949  0.1123 -0.0123  0.0984
  383MOL0     H51667   5.554   2.482   2.902 -2.0356 -0.0556  4.6939
  383MOL0     H51668   5.602   2.248   2.952  1.0788 -2.2352  1.4354
  383MOL0     H51669   5.670   2.046   3.036 -0.7952  0.8464  0.6196
  383MOL0     H51670   5.773   2.082   2.912 -3.4048  1.8929  0.0481
  383MOL0     H51671   5.771   1.844   3.003  1.0033 -0.2792 -0.1713
  383MOL0     H51672   5.936   1.910   3.037  0.7612  1.1613  4.5388
  383MOL0     H51673   5.864   1.959   3.253 -3.3111  1.7010  2.3894
  383MOL0     H51674   5.698   1.903   3.205  0.7198  0.4772  0.5130
  383MOL0     H51675   5.806   1.735   3.340 -0.9278  0.3332 -0.4109
  383MOL0     H51676   5.928   1.710   3.201  1.9599  2.1761  1.7763
  383MOL0     H51677   5.766   1.644   3.046  4.8164 -3.3520  2.1129
  383MOL0     H51678   5.633   1.708   3.147  0.0603 -0.1545  0.6276
  383MOL0     H51679   5.808   1.473   3.197 -0.5567 -0.6776  0.2251
  383MOL0     H51680   5.693   1.539   3.321 -0.1685  0.7505  0.1313
  383MOL0     H51681   5.612   1.447   3.035 -0.1040 -1.2583 -0.6275
  383MOL0     H51682   5.509   1.470   3.189 -0.5435 -2.3009  1.4154
  383MOL0     H51683   5.546   1.245   3.099 -1.8438  2.4521  0.6699
  383MOL0     H51684   5.721   1.246   3.160  0.8444 -2.2886  2.9715
  383MOL0     H51685   5.980   2.360   3.123 -0.7803  1.2147  2.0055
  383MOL0     H51686   5.921   2.603   3.082 -1.2173  1.5038 -0.1014
  383MOL0     H51687   5.894   2.989   2.813  0.6030  1.0788  1.1608
  383MOL0     H51688   5.776   3.197   2.723  0.6611  0.8054  2.7788
  383MOL0     H51689   5.243   2.848   3.166  1.7083 -0.0407 -0.4812
  383MOL0     H51690   5.052   2.993   3.072 -1.5917 -0.4977  1.1408
  383MOL0     H51691   4.790   3.243   3.051  1.3532 -0.1225  1.3918
  383MOL0     H51692   4.599   3.398   3.055 -0.4630  1.9336 -1.0605
  383MOL0     H51693   4.483   3.586   3.057 -1.2197  0.6237 -0.3410
  383MOL0     H51694   4.403   3.532   2.900  0.3278 -1.1858 -1.1494
  383MOL0     H51695   4.371   3.785   2.860 -1.9221 -1.0954 -0.3949
  383MOL0     H51696   4.484   3.816   2.986  0.2333 -0.4002  0.5211
  383MOL0     H51697   4.263   3.865   3.072 -0.5806  0.0495 -0.3445
  383MOL0     H51698   4.288   3.709   3.142  0.6112  1.8812  1.2922
  383MOL0     H51699   4.167   3.714   2.870 -2.6132 -1.3751 -0.6621
  383MOL0     H51700   4.113   3.603   2.996  0.4583 -0.8313 -0.0209
  383MOL0     H51701   3.852   3.905   3.093  0.7158  1.5404  0.2095
  383MOL0     H51702   4.799   3.640   2.748 -0.5569 -1.8585 -3.2021
  383MOL0     H51703   5.086   3.420   2.707 -0.7627 -1.4773  1.9838
  383MOL0     H51704   5.016   3.574   2.655  3.5305  1.2568 -0.4662
  383MOL0     H51705   5.103   3.572   2.802 -0.6524  2.7564 -2.2896
  384MOL0     O51706   9.839   9.245   4.949  0.9958  0.9328  0.3797
  384MOL0     C51707   9.825   9.187   4.836 -0.0486  0.0802 -0.2072
  384MOL0     O51708   9.784   9.058   4.818  0.1424 -0.1005  1.4683
  384MOL0     C51709   9.806   8.964   4.915  0.6295  0.4675 -1.5989
  384MOL0     C51710   9.932   8.920   4.960  0.2381  0.6249  0.8340
  384MOL0     C51711   9.953   8.824   5.060  0.1717  0.2367 -0.7596
  384MOL0     C51712   9.840   8.767   5.124 -0.0673  0.0976  0.4514
  384MOL0     O51713   9.839   8.667   5.219  0.2418 -0.1327  0.5859
  384MOL0     C51714   9.967   8.591   5.242  0.5767  0.0962 -0.4054
  384MOL0     C51715   9.919   8.502   5.356 -0.0493  0.0968 -0.3878
  384MOL0     C51716   9.795   8.422   5.321  0.1762 -0.5395  0.6125
  384MOL0     C51717   9.746   8.347   5.439  0.3847  0.0605 -0.0809
  384MOL0     C51718   9.667   8.222   5.399  0.2708  0.7668 -0.0757
  384MOL0     C51719   9.604   8.157   5.517  0.1448 -0.6950 -0.5254
  384MOL0     C51720   9.544   8.018   5.475 -1.3866  0.2741  0.4120
  384MOL0     C51721   9.470   7.922   5.577 -1.0615 -0.7878 -0.1716
  384MOL0     N51722   9.329   7.960   5.621  1.1572 -1.1795  1.0042
  384MOL0     C51723   9.212   7.956   5.543 -0.6553 -0.1129  0.1494
  384MOL0     C51724   9.112   8.010   5.627 -1.1660 -0.1337  0.4281
  384MOL0     C51725   8.968   8.042   5.591  0.0691  0.0180 -0.1572
  384MOL0     C51726   8.956   8.120   5.454  0.1125  0.6982  0.8042
  384MOL0     C51727   8.841   8.222   5.466  0.0194  0.2939 -0.2883
  384MOL0     C51728   8.815   8.302   5.338 -0.8596  1.2572  0.2779
  384MOL0     O51729   8.911   8.409   5.328 -0.6074 -0.0120 -0.4354
  384MOL0     C51730   8.902   8.478   5.208 -0.5672 -0.3573  0.1050
  384MOL0     C51731   8.832   8.437   5.091  0.1681 -0.5224  0.0183
  384MOL0     C51732   8.832   8.510   4.977  0.1734 -0.2456  1.0474
  384MOL0     C51733   8.892   8.636   4.965 -0.8458 -0.0298 -0.5976
  384MOL0     C51734   8.874   8.737   4.855 -0.0742 -0.5579  0.8247
  384MOL0     O51735   8.773   8.711   4.762  0.4309 -0.1925  0.3838
  384MOL0     C51736   8.758   8.803   4.667 -0.6127  0.4155 -0.6501
  384MOL0     C51737   8.665   8.905   4.695 -0.3470  0.4752 -0.1893
  384MOL0     C51738   8.649   8.999   4.586  0.3414 -0.1872  0.1705
  384MOL0     C51739   8.697   8.985   4.455 -1.0289  0.1960  0.5902
  384MOL0     O51740   8.658   9.060   4.349  0.1787 -0.0028 -0.0291
  384MOL0     C51741   8.593   9.186   4.361  0.1270 -0.1698 -0.2072
  384MOL0     C51742   8.622   9.275   4.242 -0.0822  0.4826  0.3966
  384MOL0     C51743   8.777   9.300   4.223  0.3430  0.0215  0.2682
  384MOL0     C51744   8.858   9.397   4.317 -0.6667  0.4340 -0.3035
  384MOL0     C51745   8.870   9.532   4.252  0.3501 -0.6144 -0.4547
  384MOL0     C51746   8.746   9.618   4.254 -0.8974 -0.3858 -0.6324
  384MOL0     C51747   8.776   9.766   4.209  0.1884 -0.0720  0.1031
  384MOL0     C51748   8.690   9.880   4.274  0.4466  0.5711  0.5716
  384MOL0    Cl51749   8.635   9.861   4.444  0.4960 -0.0958  0.1053
  384MOL0     C51750   8.773   8.862   4.437 -0.4352 -0.2680  0.1343
  384MOL0     C51751   8.804   8.780   4.539  0.0209  0.6099 -0.8465
  384MOL0     O51752   8.939   8.847   4.855  1.0771 -0.0384 -0.0099
  384MOL0     C51753   8.959   8.676   5.079 -0.8029 -0.0957 -0.2956
  384MOL0     C51754   8.965   8.596   5.198  0.6575 -0.1879  0.0482
  384MOL0     N51755   9.180   8.064   5.735  0.9452  0.0570 -0.5972
  384MOL0     N51756   9.295   8.026   5.736 -0.9807 -0.0947  0.7552
  384MOL0     C51757   9.709   8.804   5.078 -1.1425  0.2636  0.5472
  384MOL0     C51758   9.694   8.901   4.969 -0.5338  0.3934 -0.1250
  384MOL0     C51759   9.851   9.263   4.702 -0.2036 -0.3038  0.8879
  384MOL0     C51760   9.866   9.198   4.581  0.1304 -0.0744  0.6721
  384MOL0     C51761   9.889   9.265   4.459  0.1735 -1.1382  0.0398
  384MOL0     C51762   9.899   9.409   4.463  0.7537  0.9305 -0.0521
  384MOL0     O51763   9.917   9.471   4.349 -0.8151 -0.2579  0.1748
  384MOL0     C51764  10.027   9.564   4.344  0.3298 -0.4194  0.4461
  384MOL0     C51765  10.068   9.608   4.200  0.5041 -0.0860 -0.0584
  384MOL0     C51766   9.935   9.660   4.135 -0.6071  0.0806 -0.6321
  384MOL0     C51767   9.966   9.713   3.993 -1.2369  0.4242  0.3741
  384MOL0     C51768  10.027   9.608   3.908  0.3063  0.3982 -0.7165
  384MOL0     C51769  10.087   9.532   3.829 -0.1174  0.0259 -0.4546
  384MOL0     C51770   9.885   9.476   4.582  0.6708 -0.5335 -0.9946
  384MOL0     C51771   9.856   9.416   4.703  1.1109 -0.4389  0.1400
  384MOL0     C51772   9.830   9.501   4.824 -0.2787  1.0005 -0.2404
  384MOL0     H51773  10.017   8.977   4.922  0.0705  0.0529 -0.4569
  384MOL0     H51774  10.053   8.791   5.087 -0.1413  0.1495  0.3581
  384MOL0     H51775  10.009   8.541   5.155  2.2353 -0.2959  0.5718
  384MOL0     H51776  10.050   8.659   5.263  0.5298  0.1367 -0.3512
  384MOL0     H51777   9.896   8.571   5.439 -2.3837 -1.3701  0.2574
  384MOL0     H51778  10.007   8.445   5.386  1.1602  1.2789 -1.5462
  384MOL0     H51779   9.823   8.357   5.237 -0.3680 -1.2716  0.9809
  384MOL0     H51780   9.713   8.482   5.282  1.0010 -1.3522 -2.6946
  384MOL0     H51781   9.818   8.323   5.517  0.9404  2.2273  0.1537
  384MOL0     H51782   9.676   8.414   5.491 -2.0639 -1.2191 -1.5599
  384MOL0     H51783   9.583   8.251   5.336  1.1952  2.5709 -0.5358
  384MOL0     H51784   9.735   8.148   5.355  0.9640  2.3905 -1.8513
  384MOL0     H51785   9.674   8.163   5.601  0.8080  2.2033 -1.1819
  384MOL0     H51786   9.527   8.219   5.564 -0.2735 -2.2758  1.0172
  384MOL0     H51787   9.630   7.964   5.433 -3.4152  0.3238 -4.4989
  384MOL0     H51788   9.476   8.027   5.390 -2.5489 -1.7630  1.0405
  384MOL0     H51789   9.461   7.827   5.524 -3.1429 -0.3933 -0.5943
  384MOL0     H51790   9.516   7.902   5.675 -0.4252 -1.1665 -0.5385
  384MOL0     H51791   9.193   7.905   5.449  1.8106 -0.6051 -0.1418
  384MOL0     H51792   8.900   7.956   5.596  3.1610 -2.6281  0.0443
  384MOL0     H51793   8.932   8.109   5.670  0.9545  0.8639 -0.4529
  384MOL0     H51794   9.048   8.175   5.431  0.3877  0.4445  1.2879
  384MOL0     H51795   8.945   8.042   5.378 -0.6047  0.0280  1.5849
  384MOL0     H51796   8.859   8.302   5.538 -2.0426  1.8952 -1.4355
  384MOL0     H51797   8.754   8.171   5.506  0.3107 -1.0399 -1.2877
  384MOL0     H51798   8.717   8.350   5.344 -1.4033  0.5455 -1.8990
  384MOL0     H51799   8.810   8.238   5.249 -1.3326  0.6919  0.7116
  384MOL0     H51800   8.768   8.351   5.078 -0.9047  0.0814  1.1114
  384MOL0     H51801   8.789   8.457   4.893  1.9984 -3.7674  2.1154
  384MOL0     H51802   8.623   8.909   4.795  0.2879  0.6310  0.0824
  384MOL0     H51803   8.591   9.089   4.605 -0.6457 -0.8839  0.5429
  384MOL0     H51804   8.486   9.166   4.371 -0.1519  1.5324  0.3674
  384MOL0     H51805   8.633   9.230   4.453 -0.1177 -1.8188  0.7320
  384MOL0     H51806   8.588   9.211   4.160 -0.9031  0.4471  0.7561
  384MOL0     H51807   8.562   9.366   4.233  1.6127  1.4307 -2.7150
  384MOL0     H51808   8.839   9.210   4.226  0.2627 -0.0006  1.6935
  384MOL0     H51809   8.781   9.340   4.121 -1.7917  1.6744  0.7541
  384MOL0     H51810   8.961   9.361   4.314 -1.4008 -1.7808 -0.5614
  384MOL0     H51811   8.819   9.409   4.419 -1.0804  2.7397 -0.6803
  384MOL0     H51812   8.894   9.517   4.146 -0.4238 -0.6049 -0.6354
  384MOL0     H51813   8.959   9.588   4.285 -0.4461  2.4966 -3.1074
  384MOL0     H51814   8.670   9.584   4.183  0.7066  0.8403 -3.1114
  384MOL0     H51815   8.701   9.608   4.353  0.7130 -0.7829  0.0878
  384MOL0     H51816   8.762   9.775   4.101 -3.1046 -0.2583  0.4085
  384MOL0     H51817   8.882   9.789   4.228 -0.2052  4.2590 -1.8357
  384MOL0     H51818   8.758   9.966   4.275 -0.2750  1.1710 -0.3147
  384MOL0     H51819   8.611   9.899   4.201  0.5583 -3.4519 -0.8574
  384MOL0     H51820   8.799   8.833   4.336 -0.5846  0.1352 -0.0218
  384MOL0     H51821   8.880   8.708   4.511 -3.0609 -2.1807 -2.7032
  384MOL0     H51822   9.000   8.775   5.095  3.8001 -1.7821 -0.1830
  384MOL0     H51823   9.016   8.637   5.284 -0.7499  1.0880  0.3104
  384MOL0     H51824   9.623   8.768   5.135 -0.9290 -1.7635 -0.3323
  384MOL0     H51825   9.596   8.934   4.935 -0.8013  1.6281  1.6633
  384MOL0     H51826   9.870   9.090   4.580 -1.2546 -0.1484  0.8532
  384MOL0     H51827   9.899   9.212   4.365  3.8951  0.2505 -0.5382
  384MOL0     H51828  10.112   9.524   4.399  0.7500  1.6187  1.3882
  384MOL0     H51829  10.001   9.658   4.394 -0.4861 -0.9837  1.1182
  384MOL0     H51830  10.119   9.528   4.146  0.2298  0.4494 -1.1205
  384MOL0     H51831  10.146   9.684   4.210  0.0610  0.4864 -0.8642
  384MOL0     H51832   9.881   9.726   4.204  1.2923 -0.2677  1.3223
  384MOL0     H51833   9.861   9.581   4.120 -1.0476  0.2361  0.5593
  384MOL0     H51834   9.869   9.736   3.948 -0.0482  2.0232 -1.5116
  384MOL0     H51835  10.028   9.803   3.995 -0.8881  0.3226 -2.1999
  384MOL0     H51836  10.140   9.475   3.756 -0.9133 -0.9645 -0.2879
  384MOL0     H51837   9.884   9.584   4.590 -1.4390 -0.6885  3.3679
  384MOL0     H51838   9.824   9.610   4.812  1.5972  1.3555  1.4999
  384MOL0     H51839   9.739   9.469   4.875  1.0000 -0.1005  1.4637
  384MOL0     H51840   9.916   9.497   4.892 -1.2785  1.8412  1.1342
  385MOL0     O51841  11.215   0.781   1.107  1.1200 -0.1757 -1.3240
  385MOL0     C51842  11.239   0.884   1.158  0.0014 -0.0032 -0.1984
  385MOL0     O51843  11.357   0.919   1.216 -0.1860 -0.2255  0.0121
  385MOL0     C51844  11.463   0.870   1.148 -0.5779  0.4703  0.0236
  385MOL0     C51845  11.531   0.969   1.074  0.4664 -0.0150 -0.2973
  385MOL0     C51846  11.640   0.941   0.992 -0.5478  0.2526 -0.2225
  385MOL0     C51847  11.680   0.798   0.978 -0.8610  0.4229  0.4580
  385MOL0     O51848  11.780   0.760   0.882 -0.9113 -0.5788  0.1451
  385MOL0     C51849  11.832   0.853   0.790  0.1069  0.5255 -0.0462
  385MOL0     C51850  11.902   0.788   0.680  0.2412 -0.4380  0.5487
  385MOL0     C51851  12.039   0.740   0.722  0.2100  0.2912 -0.7206
  385MOL0     C51852  12.104   0.676   0.593 -0.0500  0.0362 -0.0464
  385MOL0     C51853  12.265   0.652   0.602 -0.6892 -0.3256 -0.0497
  385MOL0     C51854  12.321   0.590   0.474 -0.5566 -1.0916 -0.3285
  385MOL0     C51855  12.320   0.680   0.355  0.2956  1.0646 -0.0483
  385MOL0     C51856  12.421   0.631   0.250 -0.6905  0.0798 -0.5830
  385MOL0     N51857  12.563   0.642   0.290  1.3770 -0.3389 -1.6264
  385MOL0     C51858  12.638   0.542   0.326 -1.3418 -0.3189  0.0040
  385MOL0     C51859  12.765   0.592   0.309 -0.6463 -0.4760  0.0934
  385MOL0     C51860  12.875   0.504   0.336  0.2535  0.7398 -0.6962
  385MOL0     C51861  12.880   0.487   0.497 -0.2544 -0.3479 -0.2820
  385MOL0     C51862  13.021   0.444   0.538 -0.2650 -1.1479  0.1638
  385MOL0     C51863  13.028   0.438   0.697  0.0251  0.1892 -0.1620
  385MOL0     O51864  13.039   0.564   0.758 -0.6816  0.0371 -0.0185
  385MOL0     C51865  13.077   0.572   0.888 -0.6358  0.7739 -0.9155
  385MOL0     C51866  13.055   0.464   0.976 -0.8985  0.1435  1.0534
  385MOL0     C51867  13.087   0.469   1.109  1.0516  0.5474  0.1733
  385MOL0     C51868  13.135   0.594   1.164  0.4964  0.1834  0.5835
  385MOL0     C51869  13.138   0.614   1.310 -0.3699  0.0087  0.6421
  385MOL0     O51870  13.119   0.493   1.373 -0.3328  0.1108 -0.1580
  385MOL0     C51871  13.137   0.483   1.511  0.5559 -0.4663  0.4804
  385MOL0     C51872  13.237   0.551   1.587 -0.6086 -0.1264 -0.2752
  385MOL0     C51873  13.255   0.531   1.724 -0.1874 -0.9398  0.3976
  385MOL0     C51874  13.178   0.447   1.795 -0.5574 -0.1974  0.1756
  385MOL0     O51875  13.224   0.428   1.922  0.0936  0.4050 -0.7230
  385MOL0     C51876  13.140   0.334   1.996  0.2996 -0.8139 -0.8116
  385MOL0     C51877  13.206   0.326   2.139  0.0319  0.1510 -0.6380
  385MOL0     C51878  13.360   0.298   2.143  0.4754 -0.8189  0.0544
  385MOL0     C51879  13.408   0.268   2.290  0.4501 -1.0882  0.0682
  385MOL0     C51880  13.552   0.219   2.281  0.7619 -0.0278  0.0431
  385MOL0     C51881  13.613   0.203   2.420 -0.6938 -0.7415 -0.2285
  385MOL0     C51882  13.750   0.140   2.417 -0.9010  0.3956  0.3274
  385MOL0     C51883  13.808   0.131   2.555 -0.2842 -0.0846  0.2769
  385MOL0    Cl51884  13.975   0.079   2.556  0.0041  0.0347  0.0365
  385MOL0     C51885  13.085   0.370   1.719  0.7429 -0.0531 -0.0121
  385MOL0     C51886  13.059   0.395   1.585 -0.9309 -0.1297  0.4026
  385MOL0     O51887  13.147   0.722   1.359  0.4316 -0.2045  0.3463
  385MOL0     C51888  13.161   0.700   1.083  0.5243 -0.9056 -0.0109
  385MOL0     C51889  13.128   0.694   0.947  0.1043 -0.5636 -1.0418
  385MOL0     N51890  12.755   0.711   0.251 -0.6129 -0.4323 -0.3490
  385MOL0     N51891  12.635   0.745   0.243 -0.3544 -0.5379  0.0517
  385MOL0     C51892  11.613   0.697   1.058  0.6822 -0.0926 -0.0798
  385MOL0     C51893  11.502   0.733   1.145 -0.5017 -0.2432  0.0631
  385MOL0     C51894  11.125   0.970   1.187  0.4952  0.2245 -0.1366
  385MOL0     C51895  11.150   1.072   1.275  0.0250 -0.0148  0.1658
  385MOL0     C51896  11.063   1.178   1.315 -0.0358  0.1808  0.3325
  385MOL0     C51897  10.938   1.184   1.254  1.2895  0.1603  0.1657
  385MOL0     O51898  10.839   1.278   1.283 -0.7811  0.1745  0.7401
  385MOL0     C51899  10.692   1.240   1.272 -0.1173 -0.1633 -0.1875
  385MOL0     C51900  10.643   1.151   1.384  0.7000  0.9777 -0.0741
  385MOL0     C51901  10.673   0.994   1.378 -0.2953  0.5949  0.4735
  385MOL0     C51902  10.599   0.931   1.486 -0.3526 -0.0544 -1.0297
  385MOL0     C51903  10.687   0.867   1.585  0.3130  0.3340  0.1467
  385MOL0     C51904  10.766   0.816   1.670 -0.6110 -0.6052  0.3095
  385MOL0     C51905  10.910   1.085   1.156 -0.4409 -0.2593 -0.1934
  385MOL0     C51906  10.999   0.978   1.120  0.4048 -0.5195  0.9181
  385MOL0     C51907  10.970   0.889   1.000 -0.0885  0.2209 -0.4955
  385MOL0     H51908  11.498   1.072   1.081 -0.8806 -0.2755 -1.9905
  385MOL0     H51909  11.679   1.025   0.936 -1.1318  2.5898  2.6386
  385MOL0     H51910  11.753   0.915   0.745  2.2647  2.4587 -1.3830
  385MOL0     H51911  11.895   0.921   0.848 -0.1629  0.3659  0.4485
  385MOL0     H51912  11.910   0.857   0.596 -1.4172 -1.8596 -0.8777
  385MOL0     H51913  11.837   0.713   0.633  0.8552  0.1108 -1.2620
  385MOL0     H51914  12.031   0.671   0.807  0.6343  1.6652  0.4687
  385MOL0     H51915  12.086   0.832   0.758 -2.3858  0.7722  1.8338
  385MOL0     H51916  12.058   0.582   0.560 -0.4029  0.7387 -1.6434
  385MOL0     H51917  12.092   0.740   0.505  0.0534 -0.6134 -0.5425
  385MOL0     H51918  12.316   0.742   0.637 -0.1499  0.6079 -2.9749
  385MOL0     H51919  12.287   0.579   0.681  2.0609  0.7608  0.2790
  385MOL0     H51920  12.428   0.565   0.474 -0.1288  0.1829 -3.6313
  385MOL0     H51921  12.268   0.500   0.442 -2.6888 -0.6631  1.8257
  385MOL0     H51922  12.347   0.782   0.381 -2.4689  1.5143  1.5049
  385MOL0     H51923  12.213   0.690   0.334 -0.0337  1.4926  1.7158
  385MOL0     H51924  12.414   0.523   0.235  2.8364  0.1024 -3.7848
  385MOL0     H51925  12.407   0.684   0.155 -1.5388  1.0777  0.0668
  385MOL0     H51926  12.599   0.444   0.351 -2.9351 -0.3507 -2.2435
  385MOL0     H51927  12.863   0.404   0.293 -2.8285  1.1745 -1.0781
  385MOL0     H51928  12.963   0.555   0.298  0.3870  1.2641  0.2901
  385MOL0     H51929  12.857   0.582   0.546 -0.3348 -1.7110  2.5255
  385MOL0     H51930  12.806   0.419   0.541  0.1285 -1.1721 -0.8773
  385MOL0     H51931  13.091   0.521   0.504 -0.9794 -1.0774 -1.2354
  385MOL0     H51932  13.052   0.349   0.492 -0.6464 -1.3894  0.4091
  385MOL0     H51933  13.115   0.379   0.726 -1.7052 -2.8658 -0.7466
  385MOL0     H51934  12.948   0.374   0.735  0.8413  0.1808  1.6265
  385MOL0     H51935  13.015   0.371   0.938  0.0868  0.5780 -1.2615
  385MOL0     H51936  13.066   0.383   1.172 -2.1336 -0.5982 -2.1207
  385MOL0     H51937  13.300   0.619   1.531 -0.1854 -1.8000 -1.9303
  385MOL0     H51938  13.326   0.587   1.784 -0.8556 -0.2915  0.6108
  385MOL0     H51939  13.032   0.345   2.008  0.5784 -0.4777  2.0808
  385MOL0     H51940  13.151   0.231   1.961  3.6993 -1.6005  1.9806
  385MOL0     H51941  13.186   0.417   2.197  1.1125 -0.7292  1.2025
  385MOL0     H51942  13.164   0.238   2.188 -1.7236 -0.6830 -3.4244
  385MOL0     H51943  13.381   0.211   2.079 -1.1517 -1.3708  0.2069
  385MOL0     H51944  13.408   0.384   2.097  2.9067 -1.2956  1.5542
  385MOL0     H51945  13.346   0.189   2.334  0.1824 -0.1599  1.4063
  385MOL0     H51946  13.399   0.363   2.343 -1.9270 -0.2598 -1.7029
  385MOL0     H51947  13.614   0.285   2.220  3.8689 -2.2842  0.5203
  385MOL0     H51948  13.541   0.119   2.237  0.4204  0.7742 -1.7594
  385MOL0     H51949  13.614   0.295   2.479 -0.1191 -1.0232  0.2118
  385MOL0     H51950  13.547   0.135   2.475  1.7418 -2.4880  0.7306
  385MOL0     H51951  13.823   0.192   2.355  2.8754 -3.1891  1.3098
  385MOL0     H51952  13.745   0.035   2.388  2.0327 -1.5737  5.6126
  385MOL0     H51953  13.806   0.232   2.598 -2.0856 -0.6297  1.6078
  385MOL0     H51954  13.743   0.067   2.615  0.5877 -1.6566 -0.4038
  385MOL0     H51955  13.020   0.294   1.761 -2.8127  1.9827 -1.3526
  385MOL0     H51956  12.977   0.347   1.532 -0.3285  1.1629 -1.8561
  385MOL0     H51957  13.216   0.785   1.122  1.2704 -0.9283 -0.9758
  385MOL0     H51958  13.149   0.779   0.882  1.8664 -1.3676 -1.5870
  385MOL0     H51959  11.644   0.593   1.056  2.9674  0.5458 -1.0007
  385MOL0     H51960  11.433   0.666   1.196  0.2322 -1.0747 -0.0046
  385MOL0     H51961  11.238   1.070   1.338 -2.5326 -0.3165  4.0620
  385MOL0     H51962  11.095   1.258   1.381 -1.1191  1.8494 -1.0847
  385MOL0     H51963  10.663   1.202   1.174 -1.3031 -0.1169  0.1400
  385MOL0     H51964  10.639   1.334   1.285  1.0403  0.5788 -0.6402
  385MOL0     H51965  10.536   1.168   1.392  0.0244 -1.8702 -1.8132
  385MOL0     H51966  10.687   1.189   1.477 -0.1668 -2.1784  1.7848
  385MOL0     H51967  10.780   0.989   1.398 -0.3740  0.7114  0.9217
  385MOL0     H51968  10.655   0.951   1.279  1.4119 -1.4555  0.9770
  385MOL0     H51969  10.519   0.988   1.534 -0.1823 -1.6232  1.2791
  385MOL0     H51970  10.543   0.844   1.448 -0.1873 -0.5302 -0.2062
  385MOL0     H51971  10.832   0.765   1.737 -1.3771 -2.3457 -0.1763
  385MOL0     H51972  10.822   1.086   1.093  2.5023 -3.5316 -5.0474
  385MOL0     H51973  10.963   0.785   1.034 -0.7346  0.3783 -0.1385
  385MOL0     H51974  10.874   0.911   0.953  0.3036  0.8039 -1.0477
  385MOL0     H51975  11.050   0.888   0.925  1.1003  1.4656  0.6970
  386MOL0     O51976   0.459   9.970   8.985  0.6255 -0.9985 -0.2897
  386MOL0     C51977   0.569   9.952   9.041  0.1156 -0.2939  0.3418
  386MOL0     O51978   0.673  10.031   9.055 -0.4400 -1.0187 -0.4850
  386MOL0     C51979   0.697  10.144   8.990 -0.4489  0.6053 -0.1621
  386MOL0     C51980   0.601  10.246   8.979 -0.4210 -0.0889 -0.2701
  386MOL0     C51981   0.641  10.367   8.910  0.3796  0.1075  0.1632
  386MOL0     C51982   0.777  10.393   8.868 -0.4617  0.5393 -0.1048
  386MOL0     O51983   0.813  10.504   8.803  0.8065 -0.9655 -0.9837
  386MOL0     C51984   0.809  10.479   8.657  1.1042  0.4754 -0.0418
  386MOL0     C51985   0.868  10.598   8.584 -0.2751 -0.1210 -0.0809
  386MOL0     C51986   0.979  10.550   8.486 -0.4252  0.6430  0.3446
  386MOL0     C51987   1.029  10.659   8.380 -0.1408  0.2273 -1.2149
  386MOL0     C51988   1.140  10.603   8.289  0.5205  0.1481  0.8156
  386MOL0     C51989   1.117  10.462   8.217 -1.2032 -0.5037 -0.0897
  386MOL0     C51990   1.014  10.459   8.103 -0.4883 -0.3727  0.4831
  386MOL0     C51991   0.885  10.389   8.147  0.8539 -0.1974  0.0133
  386MOL0     N51992   0.802  10.356   8.032 -0.3865  0.7469  0.5784
  386MOL0     C51993   0.757  10.443   7.935 -1.0087 -0.8667  0.0636
  386MOL0     C51994   0.745  10.364   7.824 -0.3225  0.0944  0.4347
  386MOL0     C51995   0.713  10.410   7.693  0.6394 -1.0741  0.7335
  386MOL0     C51996   0.561  10.393   7.670 -0.1022  1.0632 -0.6686
  386MOL0     C51997   0.522  10.486   7.559 -0.5224  0.3194  0.8697
  386MOL0     C51998   0.374  10.480   7.511 -0.6102 -0.0523  0.1525
  386MOL0     O51999   0.358  10.550   7.385  0.6026  0.0201 -0.5354
  386MOL0     C52000   0.261  10.500   7.299  0.5684 -0.7475 -0.2065
  386MOL0     C52001   0.156  10.404   7.328  0.5687 -0.8083  0.3979
  386MOL0     C52002   0.081  10.357   7.221 -1.4980  0.4587 -0.2246
  386MOL0     C52003   0.083  10.409   7.094 -0.5627  0.9940  0.3164
  386MOL0     C52004  -0.016  10.359   6.998 -0.4365 -0.1246  0.3710
  386MOL0     O52005  -0.109  10.259   7.034  0.1051 -0.0808  0.3548
  386MOL0     C52006  -0.183  10.196   6.943  0.2440  0.8726 -0.0485
  386MOL0     C52007  -0.201  10.063   6.963 -0.1659 -0.8986 -0.3317
  386MOL0     C52008  -0.286   9.978   6.882 -0.1133 -0.5475 -0.0864
  386MOL0     C52009  -0.354  10.031   6.776 -0.8062 -0.4096 -0.6672
  386MOL0     O52010  -0.443   9.965   6.697  0.2641 -0.2267 -0.2006
  386MOL0     C52011  -0.442   9.818   6.693 -0.2961 -0.0137 -0.5664
  386MOL0     C52012  -0.565   9.759   6.620 -0.1977  0.0947  0.0461
  386MOL0     C52013  -0.689   9.788   6.708  0.1261 -0.0131 -0.5276
  386MOL0     C52014  -0.807   9.697   6.666  0.1288  0.4599  0.0359
  386MOL0     C52015  -0.937   9.734   6.728 -0.5164  0.1797 -0.4996
  386MOL0     C52016  -1.034   9.623   6.693  0.3310  0.1764  0.2160
  386MOL0     C52017  -1.158   9.634   6.789 -0.0235 -1.2940  0.2875
  386MOL0     C52018  -1.264   9.519   6.760 -0.5238 -0.6502  0.2533
  386MOL0    Cl52019  -1.399   9.558   6.856 -0.1415 -0.1164 -0.0468
  386MOL0     C52020  -0.333  10.171   6.763 -0.1223 -0.2369  0.0645
  386MOL0     C52021  -0.259  10.253   6.842 -0.3693  0.2874  0.9074
  386MOL0     O52022   0.010  10.392   6.882  0.2672 -0.3742 -0.0167
  386MOL0     C52023   0.178  10.503   7.074  0.1362 -0.0738  0.2816
  386MOL0     C52024   0.265  10.554   7.172  0.5821 -0.3968 -0.1586
  386MOL0     N52025   0.768  10.228   7.860  0.2207 -0.3656  0.6519
  386MOL0     N52026   0.808  10.228   7.982 -0.2172 -0.5046 -0.0289
  386MOL0     C52027   0.874  10.299   8.895 -0.2314 -0.0557  0.3062
  386MOL0     C52028   0.830  10.178   8.956 -0.0991 -0.1648  0.2196
  386MOL0     C52029   0.573   9.822   9.112 -0.0387  0.8118  0.8900
  386MOL0     C52030   0.457   9.735   9.130  0.4160 -0.2575  0.3348
  386MOL0     C52031   0.468   9.604   9.181 -0.3058  1.7274 -0.4306
  386MOL0     C52032   0.592   9.553   9.213  1.2038  0.4915  0.2496
  386MOL0     O52033   0.593   9.424   9.253  0.5328 -0.7185 -0.5279
  386MOL0     C52034   0.700   9.331   9.268 -0.4064  0.3761 -0.4494
  386MOL0     C52035   0.739   9.280   9.130  0.0336 -0.0198  0.0133
  386MOL0     C52036   0.859   9.189   9.141  0.5475  0.0568  0.3337
  386MOL0     C52037   0.903   9.139   8.994 -0.0473 -0.1242 -0.4787
  386MOL0     C52038   1.013   9.044   9.005 -0.6755 -0.0171  0.3326
  386MOL0     C52039   1.102   8.971   9.030  1.2453 -0.1397 -0.0648
  386MOL0     C52040   0.705   9.629   9.186  0.2940  1.0045 -0.4737
  386MOL0     C52041   0.698   9.754   9.134  0.0463 -0.2893 -0.0036
  386MOL0     C52042   0.835   9.809   9.116  0.7831  0.0669 -0.4034
  386MOL0     H52043   0.500  10.212   8.999  0.2203 -3.6831 -2.2844
  386MOL0     H52044   0.576  10.448   8.879 -1.2277 -0.7161  1.2402
  386MOL0     H52045   0.853  10.383   8.629 -2.6257 -0.7003 -2.6908
  386MOL0     H52046   0.708  10.472   8.615  1.9433 -1.6642 -1.8913
  386MOL0     H52047   0.895  10.684   8.646  0.2688  0.0921 -0.6041
  386MOL0     H52048   0.785  10.633   8.522 -0.8396  1.6305  1.5837
  386MOL0     H52049   0.937  10.472   8.422 -0.4409  0.4084  0.6415
  386MOL0     H52050   1.062  10.507   8.543  0.9372 -1.5090 -2.9507
  386MOL0     H52051   0.939  10.676   8.320 -1.1579  3.1872  0.9436
  386MOL0     H52052   1.048  10.750   8.436 -2.9624  0.1468  0.0393
  386MOL0     H52053   1.171  10.680   8.217 -0.9211 -1.0610 -1.2088
  386MOL0     H52054   1.230  10.586   8.350  0.4442 -2.9372  0.2438
  386MOL0     H52055   1.213  10.439   8.171 -0.1541  0.7288  1.4038
  386MOL0     H52056   1.098  10.384   8.290 -0.8806 -2.1549 -1.6966
  386MOL0     H52057   1.055  10.397   8.023 -3.1765  0.6371 -1.8753
  386MOL0     H52058   0.992  10.560   8.065 -0.4250 -0.0300  1.3364
  386MOL0     H52059   0.912  10.292   8.190 -1.7333 -1.1003 -0.2428
  386MOL0     H52060   0.826  10.445   8.220 -2.6488 -0.4124 -2.3890
  386MOL0     H52061   0.732  10.548   7.925 -1.4018 -0.7000  2.3708
  386MOL0     H52062   0.754  10.510   7.676 -2.1767  0.1638  0.5079
  386MOL0     H52063   0.762  10.345   7.619 -3.8808 -3.6897 -0.3635
  386MOL0     H52064   0.538  10.293   7.630 -0.1529  1.1023 -0.7352
  386MOL0     H52065   0.513  10.408   7.767  3.5171  1.6550  1.2044
  386MOL0     H52066   0.581  10.458   7.471  1.8848 -0.3257  2.5627
  386MOL0     H52067   0.524  10.590   7.594 -0.8609  0.1706  1.3380
  386MOL0     H52068   0.310  10.520   7.590 -1.7513  1.6500 -1.5418
  386MOL0     H52069   0.342  10.376   7.501  2.4245 -0.9949 -0.7837
  386MOL0     H52070   0.128  10.358   7.422  1.3822 -1.1400  0.4823
  386MOL0     H52071   0.012  10.274   7.238 -1.1836  0.5201  1.6329
  386MOL0     H52072  -0.151  10.014   7.045 -0.5538 -2.2541 -0.8877
  386MOL0     H52073  -0.284   9.875   6.917 -1.4418 -1.4592 -2.4465
  386MOL0     H52074  -0.348   9.785   6.647 -0.4772 -0.2492 -0.7735
  386MOL0     H52075  -0.444   9.770   6.791  1.2750 -0.3073 -0.6541
  386MOL0     H52076  -0.572   9.800   6.519 -1.5184 -1.4858 -0.5579
  386MOL0     H52077  -0.549   9.652   6.605  2.4445  0.6663 -1.8349
  386MOL0     H52078  -0.670   9.770   6.815 -5.0023  1.3323  0.8795
  386MOL0     H52079  -0.722   9.892   6.711  0.6991  0.1568  0.0716
  386MOL0     H52080  -0.775   9.593   6.673 -2.2735 -0.4452 -1.3715
  386MOL0     H52081  -0.814   9.716   6.558  1.6768  1.2610  0.0430
  386MOL0     H52082  -0.974   9.832   6.696  0.7428  0.1834 -2.0401
  386MOL0     H52083  -0.923   9.745   6.836  2.1517 -0.1346 -0.7594
  386MOL0     H52084  -1.066   9.638   6.590  3.8805 -0.0068 -1.0398
  386MOL0     H52085  -0.986   9.525   6.704  0.7352  0.5460  2.0722
  386MOL0     H52086  -1.200   9.734   6.775  1.1726 -0.7672  0.2993
  386MOL0     H52087  -1.120   9.628   6.891  1.0977 -0.8567 -0.0787
  386MOL0     H52088  -1.295   9.523   6.655 -1.4396 -1.2680  0.4847
  386MOL0     H52089  -1.224   9.418   6.766  1.8412  0.1514 -0.7546
  386MOL0     H52090  -0.368  10.204   6.666  1.8952 -1.2069 -1.0651
  386MOL0     H52091  -0.255  10.358   6.815  1.9558 -0.4517 -2.2715
  386MOL0     H52092   0.190  10.554   6.979 -1.4167  1.9736  1.1004
  386MOL0     H52093   0.338  10.630   7.146 -2.1564  1.5821 -2.6390
  386MOL0     H52094   0.979  10.312   8.869  0.3475  0.1662  2.5712
  386MOL0     H52095   0.907  10.105   8.980  0.2486  0.0358 -0.2734
  386MOL0     H52096   0.358   9.773   9.105  0.9153  1.6224  1.0809
  386MOL0     H52097   0.388   9.538   9.213 -0.5568  1.4173 -1.6378
  386MOL0     H52098   0.668   9.244   9.327 -0.7906  1.7680  1.5281
  386MOL0     H52099   0.785   9.367   9.326 -0.8569  0.4319  0.1960
  386MOL0     H52100   0.752   9.369   9.067 -1.5891 -0.1622 -0.5581
  386MOL0     H52101   0.650   9.231   9.089  0.2962  1.5218 -2.6113
  386MOL0     H52102   0.833   9.098   9.195  0.7539 -0.6673 -0.7440
  386MOL0     H52103   0.937   9.250   9.189  0.4492  0.3179  0.1635
  386MOL0     H52104   0.816   9.094   8.944  0.5844 -0.5297 -1.2531
  386MOL0     H52105   0.930   9.232   8.943  0.1113  0.3363  0.4308
  386MOL0     H52106   1.177   8.899   9.056  0.7110  0.3289  3.1429
  386MOL0     H52107   0.803   9.590   9.214 -0.4296  1.3461  3.0406
  386MOL0     H52108   0.849   9.886   9.040 -0.1279  0.5810 -0.0693
  386MOL0     H52109   0.852   9.860   9.212 -0.7630 -1.0870  0.5295
  386MOL0     H52110   0.910   9.732   9.094  2.6560  1.9021 -0.8580
  387MOL0     O52111   5.270   2.268   3.072 -0.4631  0.0993  0.1634
  387MOL0     C52112   5.314   2.317   3.174  0.2070 -0.8928 -0.0363
  387MOL0     O52113   5.305   2.459   3.210  0.4527  0.5536  0.4049
  387MOL0     C52114   5.244   2.530   3.109 -0.0936 -1.2937 -0.1687
  387MOL0     C52115   5.103   2.548   3.104 -0.1023 -0.3858  0.9845
  387MOL0     C52116   5.048   2.622   2.998 -0.4569 -0.8972 -0.7783
  387MOL0     C52117   5.134   2.694   2.916 -0.3441  0.2851 -0.1323
  387MOL0     O52118   5.058   2.759   2.824  0.1183 -0.2069  0.4677
  387MOL0     C52119   5.078   2.738   2.683 -0.3084  0.5155 -1.6487
  387MOL0     C52120   4.975   2.659   2.600  0.2074 -0.8264 -0.3952
  387MOL0     C52121   4.936   2.512   2.655 -0.3418  0.0987  1.0716
  387MOL0     C52122   5.028   2.398   2.602 -0.0857  1.5718 -0.4323
  387MOL0     C52123   5.171   2.418   2.650  0.0679 -0.9906  1.4435
  387MOL0     C52124   5.246   2.294   2.645 -0.3036  0.9730  0.5133
  387MOL0     C52125   5.223   2.212   2.516  0.1743 -0.5974  0.5507
  387MOL0     C52126   5.351   2.124   2.474 -0.3600 -0.9199  0.0652
  387MOL0     N52127   5.415   2.058   2.590  0.5506 -0.0327  1.5718
  387MOL0     C52128   5.363   1.943   2.654 -0.1948  0.2779  0.0569
  387MOL0     C52129   5.470   1.907   2.726 -0.0509  0.0180 -0.5326
  387MOL0     C52130   5.485   1.785   2.806 -0.3465  0.6880  0.2756
  387MOL0     C52131   5.499   1.664   2.704 -0.1847 -0.6678 -0.2288
  387MOL0     C52132   5.554   1.550   2.787 -0.0621  0.1876  0.2615
  387MOL0     C52133   5.578   1.427   2.690  0.3245 -0.1307  0.6887
  387MOL0     O52134   5.625   1.316   2.749 -0.4004  0.1200  0.1543
  387MOL0     C52135   5.748   1.311   2.805 -0.1107 -0.0343 -0.0426
  387MOL0     C52136   5.846   1.427   2.802  0.3082  0.0640 -0.5863
  387MOL0     C52137   5.960   1.428   2.877 -0.3384  0.1561  0.0617
  387MOL0     C52138   5.994   1.308   2.956  0.9666 -0.0567 -0.1716
  387MOL0     C52139   6.117   1.302   3.037 -0.1605 -0.8336 -0.7329
  387MOL0     O52140   6.186   1.191   3.060 -0.4520  1.7458 -0.3855
  387MOL0     C52141   6.296   1.203   3.141 -0.1817 -0.7295 -0.2371
  387MOL0     C52142   6.422   1.238   3.090 -0.5445 -0.3859  0.1884
  387MOL0     C52143   6.522   1.254   3.178  0.2616 -0.3541  0.2409
  387MOL0     C52144   6.504   1.215   3.315 -0.0279  0.7563 -0.0467
  387MOL0     O52145   6.586   1.219   3.416 -0.2131 -1.0604  0.4398
  387MOL0     C52146   6.703   1.297   3.393 -0.5424 -0.4011  0.0465
  387MOL0     C52147   6.785   1.313   3.521  0.0816  0.4484  0.3242
  387MOL0     C52148   6.723   1.408   3.615 -0.3130 -0.7144  1.2664
  387MOL0     C52149   6.809   1.431   3.728 -0.4085  0.1173  0.6191
  387MOL0     C52150   6.741   1.505   3.835  0.5558  0.4632 -1.1440
  387MOL0     C52151   6.718   1.653   3.814 -0.5393  0.4864 -0.0652
  387MOL0     C52152   6.648   1.713   3.935  0.3075 -0.1581 -0.1930
  387MOL0     C52153   6.597   1.853   3.904  0.3018  0.2483 -0.6257
  387MOL0    Cl52154   6.737   1.962   3.867  0.0968 -0.2634  0.1814
  387MOL0     C52155   6.378   1.170   3.359  0.4276  0.7019 -0.6142
  387MOL0     C52156   6.275   1.169   3.268 -0.5007 -0.5993  0.4133
  387MOL0     O52157   6.150   1.414   3.074 -0.3858 -0.9130  0.0272
  387MOL0     C52158   5.900   1.202   2.959  0.0448 -1.0227 -1.2977
  387MOL0     C52159   5.785   1.208   2.892  0.4468 -0.2175 -0.6674
  387MOL0     N52160   5.572   2.004   2.733  0.6531  0.0856 -0.0981
  387MOL0     N52161   5.541   2.090   2.634 -0.4706  1.0025  0.3136
  387MOL0     C52162   5.271   2.687   2.927 -0.2561 -0.5426  0.0010
  387MOL0     C52163   5.320   2.606   3.031 -0.2613 -0.2975 -1.0203
  387MOL0     C52164   5.396   2.232   3.267 -0.9783  1.1834  0.7222
  387MOL0     C52165   5.508   2.273   3.339 -0.1315  0.5090  0.7177
  387MOL0     C52166   5.575   2.204   3.435  0.2132 -0.2446 -0.1482
  387MOL0     C52167   5.556   2.068   3.441  0.9941  0.8292 -0.7433
  387MOL0     O52168   5.626   1.975   3.511  0.2594 -0.1129  0.3048
  387MOL0     C52169   5.709   2.004   3.625  0.6981  0.5230  0.7236
  387MOL0     C52170   5.845   2.043   3.573  0.1227  0.1731 -0.4393
  387MOL0     C52171   5.930   2.070   3.695 -0.5083 -0.3273 -0.6825
  387MOL0     C52172   6.027   2.190   3.675  0.1088  0.1627  1.3139
  387MOL0     C52173   6.133   2.196   3.777  1.0946 -0.2814 -0.1750
  387MOL0     C52174   6.216   2.237   3.858 -0.2199  0.9686  0.0848
  387MOL0     C52175   5.453   2.013   3.371 -0.5267 -0.4847  0.3079
  387MOL0     C52176   5.367   2.083   3.285 -0.9627  0.0405 -0.1444
  387MOL0     C52177   5.258   1.996   3.217 -0.3199 -0.2586  0.1448
  387MOL0     H52178   5.047   2.483   3.170  1.6477 -1.5590  1.3733
  387MOL0     H52179   4.941   2.637   2.993 -0.4669  0.0576  1.3832
  387MOL0     H52180   5.106   2.832   2.634  3.8271  1.5562  2.0632
  387MOL0     H52181   5.175   2.688   2.677 -0.6453 -0.1653 -1.6020
  387MOL0     H52182   5.005   2.662   2.495 -0.8367 -0.4778 -0.7035
  387MOL0     H52183   4.878   2.710   2.604 -0.6950 -2.5366  1.1665
  387MOL0     H52184   4.844   2.486   2.603 -2.2305  1.9732  3.2468
  387MOL0     H52185   4.920   2.502   2.763 -1.7858 -0.7161  0.8069
  387MOL0     H52186   5.001   2.297   2.636  1.9586  0.4857 -1.8353
  387MOL0     H52187   5.034   2.395   2.493  0.7798 -2.6467 -0.4203
  387MOL0     H52188   5.210   2.491   2.579 -5.1827  1.2555  0.3758
  387MOL0     H52189   5.171   2.461   2.751 -5.5905  1.1265  0.8830
  387MOL0     H52190   5.351   2.322   2.650 -0.7322  2.7138  0.4729
  387MOL0     H52191   5.242   2.233   2.736  1.0523  0.0186 -0.0367
  387MOL0     H52192   5.210   2.281   2.432 -1.7999 -0.1477  1.1802
  387MOL0     H52193   5.130   2.154   2.518  0.4961 -1.4179 -2.6624
  387MOL0     H52194   5.325   2.047   2.401 -1.6933 -0.9180  0.5267
  387MOL0     H52195   5.429   2.188   2.432 -1.2457 -0.1647 -0.4641
  387MOL0     H52196   5.264   1.898   2.657 -1.8569  3.6761  1.9585
  387MOL0     H52197   5.565   1.801   2.879 -1.4400  0.8639  1.4615
  387MOL0     H52198   5.399   1.773   2.872 -1.8121  0.3466 -1.6169
  387MOL0     H52199   5.399   1.638   2.667 -1.2025  0.5419  1.5178
  387MOL0     H52200   5.557   1.690   2.615 -2.3851  0.1410 -1.5122
  387MOL0     H52201   5.486   1.510   2.863  3.1728 -1.2843  2.5802
  387MOL0     H52202   5.648   1.591   2.824  1.5526  1.2484 -4.3899
  387MOL0     H52203   5.636   1.450   2.601  1.5864 -1.1149  1.2304
  387MOL0     H52204   5.474   1.416   2.656 -0.4071 -1.8327  3.1877
  387MOL0     H52205   5.826   1.507   2.731 -0.8986 -0.4959 -0.9085
  387MOL0     H52206   6.038   1.503   2.871  3.2724 -3.2717 -0.0562
  387MOL0     H52207   6.435   1.257   2.984  1.0144 -2.5759 -0.0768
  387MOL0     H52208   6.614   1.304   3.149 -1.1761  1.1043 -2.2159
  387MOL0     H52209   6.774   1.269   3.315  3.3449  2.9540  1.9949
  387MOL0     H52210   6.663   1.397   3.373  0.3049 -0.2568 -0.9569
  387MOL0     H52211   6.806   1.219   3.573  0.4897 -0.6995 -1.8358
  387MOL0     H52212   6.882   1.354   3.489  0.7990  1.0488  2.9967
  387MOL0     H52213   6.699   1.499   3.558  2.6250 -0.3291  0.4610
  387MOL0     H52214   6.629   1.364   3.650 -1.5669  1.7425  1.1859
  387MOL0     H52215   6.885   1.502   3.696 -2.3079  2.4366  0.9304
  387MOL0     H52216   6.855   1.336   3.757 -0.3573  0.1912  0.7800
  387MOL0     H52217   6.804   1.500   3.924  1.1618 -0.6732 -1.6277
  387MOL0     H52218   6.646   1.457   3.862 -0.2627  2.9751  0.9298
  387MOL0     H52219   6.813   1.703   3.797  0.0478 -0.5914 -0.0242
  387MOL0     H52220   6.652   1.658   3.726  0.5111  0.0120 -0.9111
  387MOL0     H52221   6.720   1.718   4.018  0.3732 -0.2853 -0.2410
  387MOL0     H52222   6.574   1.636   3.962  0.9016 -0.7028 -0.0865
  387MOL0     H52223   6.522   1.864   3.826  1.2008 -0.6092 -1.6407
  387MOL0     H52224   6.554   1.894   3.996 -0.6608 -1.0415 -0.4872
  387MOL0     H52225   6.347   1.146   3.460  1.2620  2.8869  0.2144
  387MOL0     H52226   6.185   1.131   3.314 -0.7710  1.2892  1.5669
  387MOL0     H52227   5.930   1.114   3.014  0.9830 -0.6607 -1.2086
  387MOL0     H52228   5.719   1.122   2.888 -2.2585  1.6743  0.3764
  387MOL0     H52229   5.336   2.747   2.864 -1.7626  1.1299 -0.0153
  387MOL0     H52230   5.424   2.600   3.060  0.3465 -3.0096 -3.3570
  387MOL0     H52231   5.536   2.377   3.336 -1.7349  1.1246  3.6778
  387MOL0     H52232   5.656   2.259   3.482  0.1502 -2.6578  3.0979
  387MOL0     H52233   5.704   1.917   3.692  2.8963  0.5153  0.9690
  387MOL0     H52234   5.667   2.085   3.685  1.8889  0.6532  1.4220
  387MOL0     H52235   5.843   2.130   3.507  0.1883  0.3713 -0.1793
  387MOL0     H52236   5.893   1.966   3.512  1.8165  0.4684  0.4726
  387MOL0     H52237   5.990   1.986   3.731  1.4853  1.2219 -0.2411
  387MOL0     H52238   5.868   2.092   3.782  0.6944  0.2213  0.0654
  387MOL0     H52239   6.076   2.199   3.578  1.0844  3.2527  1.9799
  387MOL0     H52240   5.956   2.273   3.682  1.5719  1.3250  3.5017
  387MOL0     H52241   6.275   2.276   3.939 -3.5839  5.3031  0.8031
  387MOL0     H52242   5.430   1.910   3.397  1.1754 -0.7781  0.7970
  387MOL0     H52243   5.280   1.965   3.115  4.4051  0.2505  0.7671
  387MOL0     H52244   5.229   1.911   3.279 -3.0119  0.5650  0.1016
  387MOL0     H52245   5.174   2.065   3.212 -0.7238 -0.4908  2.4363
  388MOL0     O52246   4.094   2.253   1.269 -0.3741 -0.1783  0.0913
  388MOL0     C52247   4.208   2.208   1.249  0.1368 -0.4535 -0.3172
  388MOL0     O52248   4.315   2.235   1.319 -0.0845 -0.1567  0.2927
  388MOL0     C52249   4.286   2.311   1.433  0.7292  0.1002  0.8176
  388MOL0     C52250   4.312   2.451   1.434 -0.0936 -0.6927  0.0538
  388MOL0     C52251   4.274   2.534   1.545  0.2609 -0.0252  0.1754
  388MOL0     C52252   4.218   2.466   1.654 -0.8869 -0.1247 -0.3448
  388MOL0     O52253   4.183   2.543   1.762  0.0264 -0.6480 -0.2523
  388MOL0     C52254   4.123   2.489   1.883 -0.0156 -0.1279  0.7009
  388MOL0     C52255   4.070   2.603   1.980 -0.0778  0.1150 -0.2923
  388MOL0     C52256   3.961   2.685   1.922  0.6683 -0.6046 -0.2795
  388MOL0     C52257   3.830   2.602   1.920 -0.1772 -0.6981 -0.0268
  388MOL0     C52258   3.704   2.683   1.868  1.7975 -0.2854 -0.3766
  388MOL0     C52259   3.583   2.586   1.871 -0.0829  0.1729  0.0506
  388MOL0     C52260   3.442   2.664   1.892 -0.3186  0.8916  1.0672
  388MOL0     C52261   3.412   2.692   2.035  0.9698  0.2114 -0.1883
  388MOL0     N52262   3.268   2.707   2.049  0.0438 -1.2607 -0.3378
  388MOL0     C52263   3.190   2.802   1.971 -0.5224  0.8202  0.2309
  388MOL0     C52264   3.068   2.797   2.030 -0.1905 -0.6511 -0.2887
  388MOL0     C52265   2.944   2.875   1.982  0.7232 -0.5504  0.2696
  388MOL0     C52266   2.923   2.978   2.106 -0.3561  0.8500 -0.6378
  388MOL0     C52267   2.819   3.088   2.063 -0.3125 -0.1122  0.2303
  388MOL0     C52268   2.676   3.033   2.033  0.4016  0.7061  0.2667
  388MOL0     O52269   2.633   2.935   2.134 -0.3120  0.0205 -0.7390
  388MOL0     C52270   2.504   2.927   2.167  0.2159 -1.1731 -0.0660
  388MOL0     C52271   2.461   2.802   2.210 -0.0198 -0.0767  0.1886
  388MOL0     C52272   2.334   2.775   2.258 -1.1929  0.1868 -0.3180
  388MOL0     C52273   2.243   2.881   2.273  0.3298 -0.5966 -0.0362
  388MOL0     C52274   2.107   2.856   2.325 -0.0710  0.1667 -0.2390
  388MOL0     O52275   2.090   2.738   2.393 -0.4237 -0.4389 -0.8929
  388MOL0     C52276   1.963   2.708   2.439 -0.3339 -0.1524  0.0276
  388MOL0     C52277   1.842   2.714   2.369 -0.4236 -0.0221  0.0137
  388MOL0     C52278   1.726   2.681   2.433  1.2495 -0.0195  0.2203
  388MOL0     C52279   1.722   2.633   2.566  0.4655 -0.1714  1.3466
  388MOL0     O52280   1.603   2.603   2.607 -0.2189  1.1952  0.2616
  388MOL0     C52281   1.569   2.667   2.724 -0.0913 -0.5303 -0.6306
  388MOL0     C52282   1.420   2.654   2.762  0.6382 -0.5622 -0.3355
  388MOL0     C52283   1.322   2.743   2.677 -0.4901 -0.3009  0.4628
  388MOL0     C52284   1.335   2.738   2.522  0.1543  0.1994  0.8648
  388MOL0     C52285   1.218   2.798   2.447  0.1326  0.4274 -0.9932
  388MOL0     C52286   1.072   2.749   2.473 -0.8241  0.6818 -0.6988
  388MOL0     C52287   0.961   2.826   2.401 -0.2755  0.1632  0.2357
  388MOL0     C52288   0.824   2.768   2.435 -0.7381  0.1068  0.1215
  388MOL0    Cl52289   0.820   2.596   2.368 -0.2402 -0.1786  0.1934
  388MOL0     C52290   1.838   2.629   2.637 -1.3420  0.7347  0.4628
  388MOL0     C52291   1.951   2.668   2.574 -0.0097  0.5893  0.4422
  388MOL0     O52292   2.025   2.944   2.313  1.0279  0.1633 -0.3991
  388MOL0     C52293   2.282   3.012   2.227 -0.1599  1.1566 -0.8903
  388MOL0     C52294   2.414   3.035   2.182 -0.2316 -0.1865 -0.4324
  388MOL0     N52295   3.075   2.711   2.144  0.1811  0.1414  1.0426
  388MOL0     N52296   3.193   2.666   2.153 -0.5182  1.2028 -1.0830
  388MOL0     C52297   4.206   2.328   1.660  0.9213  0.3252 -0.0028
  388MOL0     C52298   4.241   2.252   1.548 -0.4848  0.8286 -0.8317
  388MOL0     C52299   4.227   2.133   1.122 -0.3664  0.9174 -0.8918
  388MOL0     C52300   4.149   2.016   1.097 -0.3594  0.3519 -0.0255
  388MOL0     C52301   4.166   1.940   0.980  0.1607 -0.0609 -0.5455
  388MOL0     C52302   4.259   1.982   0.880  0.0845  0.2659 -0.1852
  388MOL0     O52303   4.274   1.895   0.775  0.5569 -0.3440  0.0237
  388MOL0     C52304   4.377   1.928   0.682  0.3185 -0.2121 -0.9736
  388MOL0     C52305   4.389   1.802   0.602 -0.3860  0.3137 -0.4068
  388MOL0     C52306   4.449   1.678   0.667 -0.1762  0.0072 -0.0144
  388MOL0     C52307   4.545   1.692   0.789  0.7665 -0.5493 -0.2035
  388MOL0     C52308   4.663   1.772   0.766 -0.8092  0.5634  0.9875
  388MOL0     C52309   4.749   1.845   0.721 -0.7925 -0.3898 -0.4594
  388MOL0     C52310   4.321   2.100   0.893 -0.5701  0.0589 -0.0273
  388MOL0     C52311   4.308   2.183   1.013 -0.3771 -0.4146 -0.6743
  388MOL0     C52312   4.375   2.312   1.020 -0.1143  0.8928  0.0137
  388MOL0     H52313   4.348   2.505   1.346 -1.8918 -2.0392 -1.5840
  388MOL0     H52314   4.290   2.641   1.552 -0.9836  0.0533  3.0775
  388MOL0     H52315   4.039   2.429   1.846  0.1265 -0.6230  1.1791
  388MOL0     H52316   4.198   2.423   1.927  0.1430  0.6741  1.6696
  388MOL0     H52317   4.146   2.682   1.983 -2.6713  2.7170  1.0015
  388MOL0     H52318   4.052   2.559   2.078 -0.0723 -0.2247 -0.4385
  388MOL0     H52319   3.977   2.716   1.819 -1.3559 -0.0557 -0.4775
  388MOL0     H52320   3.954   2.777   1.981  1.0698 -1.2919  0.8717
  388MOL0     H52321   3.839   2.516   1.854  0.3851  1.0685 -2.3760
  388MOL0     H52322   3.816   2.577   2.026  1.6074 -1.1036  0.1404
  388MOL0     H52323   3.685   2.768   1.933  1.2617 -0.9637  0.3700
  388MOL0     H52324   3.716   2.727   1.769  2.5721 -0.1868 -0.2520
  388MOL0     H52325   3.570   2.534   1.776  2.4373  2.9448 -2.0056
  388MOL0     H52326   3.599   2.514   1.952 -2.8208 -0.5536  0.0230
  388MOL0     H52327   3.361   2.607   1.844  1.9049 -1.1120 -0.5369
  388MOL0     H52328   3.449   2.759   1.838  1.5209  0.4972  0.5490
  388MOL0     H52329   3.452   2.607   2.091  2.8207  0.9545 -0.3241
  388MOL0     H52330   3.470   2.779   2.067 -1.8616  1.3100  2.5130
  388MOL0     H52331   3.235   2.856   1.889 -1.2412  0.3686 -0.4751
  388MOL0     H52332   2.959   2.934   1.891  2.3131 -0.6693  0.4243
  388MOL0     H52333   2.856   2.812   1.976  0.8530 -0.6405 -0.8785
  388MOL0     H52334   2.877   2.915   2.183  1.0753  0.9537  0.3339
  388MOL0     H52335   3.022   3.011   2.138  0.8000 -2.2796 -0.6923
  388MOL0     H52336   2.856   3.148   1.979  1.8903 -0.2416  1.0548
  388MOL0     H52337   2.794   3.136   2.158  0.0984  0.3336  0.1159
  388MOL0     H52338   2.661   2.993   1.932 -1.4137 -0.6542  1.0417
  388MOL0     H52339   2.607   3.118   2.030 -0.7088 -0.1801 -2.3328
  388MOL0     H52340   2.529   2.719   2.190  1.1209  1.4455 -3.0238
  388MOL0     H52341   2.312   2.670   2.275  0.8528 -0.1838  0.4154
  388MOL0     H52342   1.844   2.757   2.270 -0.7323 -0.6169 -0.2543
  388MOL0     H52343   1.635   2.693   2.375  0.0072  0.3451  2.1348
  388MOL0     H52344   1.616   2.625   2.813 -0.1460  2.6203  1.0205
  388MOL0     H52345   1.600   2.771   2.713  1.2620 -0.9501 -0.8943
  388MOL0     H52346   1.382   2.552   2.749 -0.3226  0.0663 -3.4264
  388MOL0     H52347   1.405   2.670   2.869  0.3103  0.1884 -0.4897
  388MOL0     H52348   1.219   2.718   2.704 -2.0706  1.9819 -2.8532
  388MOL0     H52349   1.347   2.847   2.702 -2.7899  0.3672  0.1509
  388MOL0     H52350   1.350   2.635   2.488 -0.1677  0.5392 -0.3406
  388MOL0     H52351   1.423   2.790   2.484 -1.9688  1.0954 -3.4080
  388MOL0     H52352   1.230   2.782   2.339 -2.7794  1.6671 -1.6136
  388MOL0     H52353   1.219   2.907   2.459 -0.2081  0.4917 -1.4877
  388MOL0     H52354   1.071   2.641   2.458  1.8916  0.1020  2.1921
  388MOL0     H52355   1.054   2.766   2.580 -0.9670  1.3161 -0.8222
  388MOL0     H52356   0.982   2.818   2.294  2.6560  1.1161  0.6469
  388MOL0     H52357   0.976   2.931   2.424  1.8372  0.4240 -1.9139
  388MOL0     H52358   0.796   2.768   2.541 -0.9380 -2.1548  0.1200
  388MOL0     H52359   0.753   2.840   2.393 -0.2698  0.3849 -0.2031
  388MOL0     H52360   1.830   2.591   2.738 -1.4853 -2.0629 -0.5137
  388MOL0     H52361   2.045   2.654   2.626 -1.2661 -2.1467  2.2427
  388MOL0     H52362   2.212   3.093   2.246 -0.4879  0.7415 -0.2957
  388MOL0     H52363   2.450   3.138   2.175 -1.5421  0.3589  0.4657
  388MOL0     H52364   4.178   2.276   1.751  2.7015 -0.6113  0.0528
  388MOL0     H52365   4.223   2.145   1.547 -0.2817  0.6993 -4.7234
  388MOL0     H52366   4.079   1.988   1.175  0.4053 -1.0079  0.1977
  388MOL0     H52367   4.115   1.846   0.963  0.0253 -0.1936  0.5165
  388MOL0     H52368   4.471   1.955   0.730  0.4378 -0.2507 -1.1882
  388MOL0     H52369   4.333   2.011   0.627 -0.1116  0.4276  0.2859
  388MOL0     H52370   4.456   1.834   0.521  0.8481 -1.1547 -0.0088
  388MOL0     H52371   4.293   1.764   0.567 -1.0006 -1.4114  2.7726
  388MOL0     H52372   4.496   1.623   0.585  0.3851 -0.5230  0.6484
  388MOL0     H52373   4.363   1.620   0.702  0.0337 -0.6996 -0.6253
  388MOL0     H52374   4.483   1.713   0.877  0.2596  2.4448 -1.1663
  388MOL0     H52375   4.576   1.592   0.821 -0.7039 -0.5231  1.4675
  388MOL0     H52376   4.823   1.918   0.693  1.8342 -2.5026  0.5168
  388MOL0     H52377   4.386   2.141   0.817 -0.7058  0.0108 -0.1683
  388MOL0     H52378   4.335   2.369   1.105  1.5733 -2.6674  3.5191
  388MOL0     H52379   4.480   2.294   1.044 -0.6370 -1.2172  0.9159
  388MOL0     H52380   4.374   2.367   0.926 -1.3976 -1.9470 -1.7714
  389MOL0     O52381   1.309   9.158   6.702  0.4937 -0.3408  0.0383
  389MOL0     C52382   1.252   9.270   6.708  0.7520 -0.3601  0.4811
  389MOL0     O52383   1.115   9.289   6.701  0.0583  0.0772 -0.1553
  389MOL0     C52384   1.042   9.175   6.658 -0.5665 -0.4491 -0.5474
  389MOL0     C52385   1.071   9.087   6.547  0.7730 -0.1421  0.0901
  389MOL0     C52386   0.980   8.989   6.506 -0.5203 -0.8291 -0.3027
  389MOL0     C52387   0.850   8.999   6.559  0.0094  0.7196 -0.0691
  389MOL0     O52388   0.742   8.928   6.497  0.0422  0.1624 -0.0010
  389MOL0     C52389   0.620   8.894   6.571 -0.0191  0.7425  0.2489
  389MOL0     C52390   0.639   8.823   6.712 -0.3230 -0.4180 -0.2188
  389MOL0     C52391   0.711   8.692   6.687  0.2803  1.2035  0.4130
  389MOL0     C52392   0.733   8.628   6.821  0.4530 -0.3424  0.6621
  389MOL0     C52393   0.727   8.471   6.820 -1.1191  0.1719  0.4784
  389MOL0     C52394   0.585   8.410   6.811  0.3078  0.5807 -0.3526
  389MOL0     C52395   0.585   8.250   6.832  0.5425 -0.1605  0.5210
  389MOL0     C52396   0.641   8.180   6.708 -0.3747 -1.0407 -1.0239
  389MOL0     N52397   0.625   8.036   6.729 -0.8578  0.8147  0.0432
  389MOL0     C52398   0.687   7.946   6.642 -0.5003  0.3105  0.6992
  389MOL0     C52399   0.636   7.823   6.676 -0.5614 -0.7005 -0.7318
  389MOL0     C52400   0.671   7.686   6.627  0.0218 -0.8349  0.1160
  389MOL0     C52401   0.625   7.660   6.479 -0.2034  0.9855 -0.0291
  389MOL0     C52402   0.668   7.522   6.435  0.3026 -0.2406 -0.9886
  389MOL0     C52403   0.625   7.496   6.294  0.2167  0.5900 -0.7034
  389MOL0     O52404   0.684   7.375   6.252 -0.1187  0.1623 -0.2053
  389MOL0     C52405   0.597   7.273   6.226  0.0269 -0.8291  0.4748
  389MOL0     C52406   0.520   7.273   6.106  0.0795  0.8273  0.5815
  389MOL0     C52407   0.450   7.156   6.068 -0.0238 -0.0609  0.5664
  389MOL0     C52408   0.438   7.055   6.155 -0.1720 -0.4372  0.5172
  389MOL0     C52409   0.347   6.939   6.121 -0.0695 -0.4813 -0.3817
  389MOL0     O52410   0.295   6.869   6.229 -0.0322 -0.4137  0.2725
  389MOL0     C52411   0.202   6.770   6.196  0.4621  0.3171  0.1685
  389MOL0     C52412   0.075   6.761   6.251  0.2027 -0.1823 -0.0689
  389MOL0     C52413  -0.012   6.659   6.226  0.9138 -0.7495  0.4754
  389MOL0     C52414   0.025   6.558   6.131  0.2280  0.5401  0.7641
  389MOL0     O52415  -0.067   6.454   6.111  0.2019  0.5967  1.0999
  389MOL0     C52416  -0.025   6.322   6.146 -0.3145 -0.8829 -0.7404
  389MOL0     C52417   0.002   6.301   6.294  0.0992 -0.5021  0.0793
  389MOL0     C52418  -0.129   6.306   6.381 -0.4928  0.1333 -0.2721
  389MOL0     C52419  -0.211   6.171   6.375  0.9078  0.6445 -0.1967
  389MOL0     C52420  -0.351   6.198   6.431 -0.0519 -0.1852 -0.2421
  389MOL0     C52421  -0.420   6.067   6.411  0.6937  0.7800 -0.0234
  389MOL0     C52422  -0.578   6.078   6.431 -0.3827  0.2733  0.7524
  389MOL0     C52423  -0.625   6.104   6.565  0.6043 -0.4304 -0.0456
  389MOL0    Cl52424  -0.508   6.035   6.691  0.0540 -0.3488 -0.1748
  389MOL0     C52425   0.155   6.556   6.084  1.2044  0.4038  0.6097
  389MOL0     C52426   0.238   6.664   6.110 -0.0074 -0.0978  1.0251
  389MOL0     O52427   0.301   6.929   6.006 -0.7102  0.0218 -0.2255
  389MOL0     C52428   0.510   7.059   6.278  0.3562 -0.7641 -0.4132
  389MOL0     C52429   0.588   7.171   6.311  1.0904  0.4976 -0.4916
  389MOL0     N52430   0.530   7.841   6.769  0.3240 -0.6686 -0.1024
  389MOL0     N52431   0.527   7.966   6.795  0.7933  0.6857  0.1630
  389MOL0     C52432   0.820   9.094   6.658 -0.5619 -0.2642  0.0621
  389MOL0     C52433   0.915   9.178   6.715 -0.8000  0.3084 -0.3286
  389MOL0     C52434   1.349   9.382   6.754 -0.3431 -0.0089 -0.2314
  389MOL0     C52435   1.469   9.385   6.693 -0.5893  0.5322 -0.0087
  389MOL0     C52436   1.565   9.489   6.718  0.6398 -0.0316 -0.7723
  389MOL0     C52437   1.528   9.585   6.809 -0.4251  0.4454  0.0708
  389MOL0     O52438   1.608   9.687   6.857  0.6303  0.1773  0.5059
  389MOL0     C52439   1.748   9.668   6.841  0.2754 -0.4880  0.6776
  389MOL0     C52440   1.839   9.770   6.921  0.6771 -0.3468  0.3659
  389MOL0     C52441   1.986   9.753   6.891  0.0270  0.6317  0.3797
  389MOL0     C52442   2.019   9.790   6.745  0.3471  0.4034 -0.5840
  389MOL0     C52443   2.157   9.805   6.738  0.4136  0.3229 -0.3614
  389MOL0     C52444   2.274   9.820   6.726 -0.5281 -0.9111  0.2622
  389MOL0     C52445   1.407   9.573   6.872 -0.2348 -0.5624 -0.1625
  389MOL0     C52446   1.317   9.470   6.854  0.3233  0.7938  1.0621
  389MOL0     C52447   1.195   9.456   6.929 -0.3099 -0.1623 -0.6646
  389MOL0     H52448   1.169   9.100   6.502 -0.0429  0.3672 -1.5941
  389MOL0     H52449   0.989   8.933   6.414 -1.0483 -1.3141 -0.0648
  389MOL0     H52450   0.552   8.976   6.593 -1.5419 -0.4366  0.1057
  389MOL0     H52451   0.573   8.822   6.503 -0.3418  0.3596  0.8728
  389MOL0     H52452   0.544   8.812   6.766 -1.4232 -1.2893 -2.2225
  389MOL0     H52453   0.708   8.894   6.758  0.2767  1.6075 -3.8229
  389MOL0     H52454   0.807   8.702   6.636  1.1339  1.0275  1.9299
  389MOL0     H52455   0.649   8.621   6.631  1.4404  0.8099 -0.4188
  389MOL0     H52456   0.828   8.670   6.853 -1.2052  2.7514  1.9755
  389MOL0     H52457   0.660   8.665   6.894  0.5918 -1.7008  1.5271
  389MOL0     H52458   0.790   8.432   6.740  1.1344 -1.2422  2.7895
  389MOL0     H52459   0.758   8.434   6.918  0.7344  0.9002  0.2122
  389MOL0     H52460   0.523   8.453   6.891 -0.4125 -0.1567 -0.5038
  389MOL0     H52461   0.531   8.432   6.718  0.1865 -0.7760 -0.6152
  389MOL0     H52462   0.481   8.217   6.835  0.3102  0.5698  0.5759
  389MOL0     H52463   0.637   8.224   6.925 -0.4540  3.2313  2.1810
  389MOL0     H52464   0.582   8.210   6.620 -2.0862  1.9469  0.9595
  389MOL0     H52465   0.746   8.208   6.696 -1.3412  2.9603 -1.6140
  389MOL0     H52466   0.765   7.974   6.571 -0.2916  2.0379  1.5413
  389MOL0     H52467   0.778   7.665   6.628  0.4083  1.0284  0.9212
  389MOL0     H52468   0.621   7.620   6.700 -2.0584 -1.7933 -2.0189
  389MOL0     H52469   0.517   7.667   6.466 -0.0856  0.5725 -1.3398
  389MOL0     H52470   0.668   7.738   6.416 -2.9901  0.8964 -2.2201
  389MOL0     H52471   0.633   7.440   6.498 -0.9803  1.5526  0.7102
  389MOL0     H52472   0.778   7.517   6.440  0.2321 -0.3753  0.7830
  389MOL0     H52473   0.627   7.576   6.220 -0.6060 -1.2596 -2.8517
  389MOL0     H52474   0.518   7.479   6.307  0.2371  1.4571  0.9352
  389MOL0     H52475   0.534   7.346   6.027  2.9804 -0.2620 -0.0686
  389MOL0     H52476   0.409   7.149   5.968 -3.6801 -0.4914  1.9606
  389MOL0     H52477   0.038   6.844   6.310  2.1970  0.5166  0.2603
  389MOL0     H52478  -0.108   6.656   6.277  0.6957  1.7848  0.3387
  389MOL0     H52479  -0.098   6.244   6.122  0.8762 -1.2435 -3.5999
  389MOL0     H52480   0.064   6.293   6.089 -0.7078 -1.1790 -1.2076
  389MOL0     H52481   0.046   6.202   6.310  0.2190 -0.2141  1.7245
  389MOL0     H52482   0.071   6.375   6.334 -1.1409  1.6350 -1.5414
  389MOL0     H52483  -0.101   6.335   6.483 -2.6109 -2.6371  1.2435
  389MOL0     H52484  -0.189   6.387   6.339  1.5419  2.1915  0.5304
  389MOL0     H52485  -0.159   6.093   6.431  0.3992  2.1807  2.5884
  389MOL0     H52486  -0.225   6.139   6.271  0.0068  0.6902 -0.0983
  389MOL0     H52487  -0.395   6.283   6.378 -1.6201 -0.7660  0.0678
  389MOL0     H52488  -0.344   6.233   6.534  0.3135  0.6118 -0.5298
  389MOL0     H52489  -0.401   6.021   6.314 -4.2779 -0.5911 -0.5772
  389MOL0     H52490  -0.374   5.993   6.478  1.0191  1.9302  1.0745
  389MOL0     H52491  -0.621   5.978   6.417  1.3400 -0.6054  1.3458
  389MOL0     H52492  -0.618   6.150   6.359  0.1736 -0.6248 -0.4777
  389MOL0     H52493  -0.636   6.212   6.578 -0.1246 -0.4817 -0.2148
  389MOL0     H52494  -0.722   6.057   6.584  1.2828 -2.0887 -0.4799
  389MOL0     H52495   0.185   6.466   6.030 -0.2364  0.2090  0.0835
  389MOL0     H52496   0.335   6.675   6.062  0.2013  1.8790  1.7876
  389MOL0     H52497   0.494   6.976   6.347  2.5109  0.5216  1.7960
  389MOL0     H52498   0.638   7.167   6.407 -0.1660  1.7633  0.2647
  389MOL0     H52499   0.720   9.120   6.690 -0.8910 -1.4141  0.0157
  389MOL0     H52500   0.887   9.261   6.780 -0.1144 -0.5729  1.1412
  389MOL0     H52501   1.492   9.310   6.618 -0.8543 -2.6398  2.8506
  389MOL0     H52502   1.662   9.491   6.669  1.1679  2.2900  0.2880
  389MOL0     H52503   1.767   9.679   6.734  1.1839 -1.0557  0.7685
  389MOL0     H52504   1.781   9.568   6.869  1.0779  0.2800  2.7480
  389MOL0     H52505   1.825   9.755   7.028 -0.7271  0.1127  0.2650
  389MOL0     H52506   1.816   9.876   6.906  2.5425  0.3483  1.9357
  389MOL0     H52507   2.012   9.647   6.899  2.1924  1.1212  0.4143
  389MOL0     H52508   2.039   9.812   6.965 -2.8594  1.8245  1.6360
  389MOL0     H52509   2.001   9.706   6.677  3.5082  0.4824 -1.7229
  389MOL0     H52510   1.977   9.887   6.716 -0.3324 -0.0668 -1.2270
  389MOL0     H52511   2.379   9.832   6.708 -1.0803  0.7916 -2.4249
  389MOL0     H52512   1.394   9.645   6.952  4.7191  1.1271 -0.5217
  389MOL0     H52513   1.098   9.479   6.883 -1.5703  0.7010  2.1985
  389MOL0     H52514   1.194   9.351   6.961 -0.9681  0.6256  2.1445
  389MOL0     H52515   1.198   9.521   7.017  1.6887  3.0308 -2.8750
  390MOL0     O52516   3.873   7.564   2.463 -0.1667  0.3896  0.0085
  390MOL0     C52517   3.761   7.617   2.451  0.1653 -0.1444 -0.7707
  390MOL0     O52518   3.682   7.655   2.552  0.3030 -0.1624  0.4045
  390MOL0     C52519   3.728   7.657   2.677  0.4543  0.1843 -0.2273
  390MOL0     C52520   3.756   7.533   2.738  0.3012  0.7798 -0.4974
  390MOL0     C52521   3.810   7.523   2.867 -0.8997  0.4044 -0.0337
  390MOL0     C52522   3.845   7.651   2.931 -0.0256  0.9278 -0.4930
  390MOL0     O52523   3.911   7.645   3.049 -0.7157 -0.0971 -0.4502
  390MOL0     C52524   3.906   7.542   3.149  0.3080  0.5087 -0.1063
  390MOL0     C52525   3.936   7.610   3.284  0.0287  0.2022  0.4639
  390MOL0     C52526   4.077   7.685   3.274  0.4486  0.9480 -0.4017
  390MOL0     C52527   4.121   7.750   3.406 -0.0535  0.2927  0.1043
  390MOL0     C52528   4.258   7.826   3.387 -0.9329 -0.0839  0.4427
  390MOL0     C52529   4.302   7.909   3.508 -0.6872  0.2670  0.3206
  390MOL0     C52530   4.379   8.032   3.457  0.3875  0.0365  0.0977
  390MOL0     C52531   4.509   7.994   3.383 -0.7848 -0.3271  1.1045
  390MOL0     N52532   4.614   8.085   3.424 -0.4059 -0.1755  0.4523
  390MOL0     C52533   4.631   8.199   3.341 -0.2745  0.0541  0.4409
  390MOL0     C52534   4.749   8.248   3.377  0.8037 -0.6269  0.5069
  390MOL0     C52535   4.826   8.356   3.312 -0.4885  0.0168  0.9707
  390MOL0     C52536   4.852   8.488   3.391  0.2273  0.0293 -0.8047
  390MOL0     C52537   4.945   8.571   3.295  0.3891  0.9977  0.2492
  390MOL0     C52538   4.949   8.721   3.339 -0.2980  0.6543 -0.3235
  390MOL0     O52539   4.986   8.736   3.488  0.1980 -0.4537  0.8039
  390MOL0     C52540   5.108   8.681   3.521 -0.0812  0.6904 -0.2859
  390MOL0     C52541   5.116   8.608   3.634  0.3830 -0.4610 -0.2404
  390MOL0     C52542   5.237   8.563   3.685  0.3356 -0.6382 -0.5127
  390MOL0     C52543   5.359   8.583   3.616 -0.0394  0.0368  0.2925
  390MOL0     C52544   5.489   8.524   3.648 -0.2322  0.0224  0.2397
  390MOL0     O52545   5.608   8.566   3.578  0.2626 -1.0449 -0.2399
  390MOL0     C52546   5.737   8.513   3.600 -0.2023 -0.6226 -0.3641
  390MOL0     C52547   5.856   8.590   3.583 -0.4631 -0.1586  0.8747
  390MOL0     C52548   5.986   8.547   3.603  0.5416 -0.3679  0.8997
  390MOL0     C52549   6.004   8.416   3.647 -0.0682  0.1328 -0.1787
  390MOL0     O52550   6.136   8.380   3.659  0.1800  0.5558  0.0623
  390MOL0     C52551   6.178   8.265   3.736  0.2882  1.0474 -0.5547
  390MOL0     C52552   6.327   8.288   3.774  1.2911  0.4343  0.0377
  390MOL0     C52553   6.400   8.152   3.791 -0.2673 -0.1217  0.6988
  390MOL0     C52554   6.543   8.162   3.840 -0.0162 -0.4155 -0.0516
  390MOL0     C52555   6.642   8.193   3.733 -0.3163  0.5649  0.3480
  390MOL0     C52556   6.656   8.077   3.625 -0.5641 -0.1215  1.0155
  390MOL0     C52557   6.792   8.086   3.545  0.1556 -0.1173 -0.2002
  390MOL0     C52558   6.774   8.000   3.422  0.2841  0.8254 -0.7405
  390MOL0    Cl52559   6.738   7.828   3.465 -0.1722 -0.0886 -0.0553
  390MOL0     C52560   5.894   8.333   3.659  0.2551  0.3609 -0.3786
  390MOL0     C52561   5.763   8.381   3.638  0.4978 -0.5507 -0.3739
  390MOL0     O52562   5.479   8.432   3.728  0.2106  0.0447 -0.1117
  390MOL0     C52563   5.349   8.658   3.492 -0.6623 -0.0985  0.9221
  390MOL0     C52564   5.226   8.719   3.463  0.3307 -0.4779 -0.0471
  390MOL0     N52565   4.803   8.155   3.476 -0.7735  0.3778 -0.3687
  390MOL0     N52566   4.717   8.066   3.506 -0.3062 -0.1318 -0.4692
  390MOL0     C52567   3.802   7.774   2.873  0.3376 -0.8738 -0.3321
  390MOL0     C52568   3.741   7.779   2.746  0.5103  0.0937  1.4009
  390MOL0     C52569   3.706   7.634   2.312  0.8211 -0.1403 -0.3666
  390MOL0     C52570   3.753   7.546   2.214 -0.4986  0.4038  0.9308
  390MOL0     C52571   3.685   7.547   2.084 -0.3578 -0.2596  0.8829
  390MOL0     C52572   3.592   7.645   2.044 -0.6874  0.5943  0.5258
  390MOL0     O52573   3.536   7.667   1.920 -0.1575  0.7080  0.0790
  390MOL0     C52574   3.576   7.566   1.830  0.3769  0.2464  0.3705
  390MOL0     C52575   3.510   7.607   1.698 -0.0267  0.3534 -0.3887
  390MOL0     C52576   3.527   7.750   1.650  0.1624  0.2731  0.6853
  390MOL0     C52577   3.465   7.791   1.521 -0.1439 -0.1364  0.4045
  390MOL0     C52578   3.486   7.709   1.396 -1.0713 -0.1288 -0.6123
  390MOL0     C52579   3.503   7.625   1.308 -0.1828 -0.4227  0.1936
  390MOL0     C52580   3.557   7.733   2.145 -0.5818  0.2039  0.8344
  390MOL0     C52581   3.612   7.732   2.274 -0.2303 -0.3046 -0.4855
  390MOL0     C52582   3.546   7.814   2.378  0.3244  0.3283 -0.2600
  390MOL0     H52583   3.733   7.440   2.687 -1.2194  0.3242  0.9566
  390MOL0     H52584   3.829   7.424   2.906 -0.2706  0.7562  0.5566
  390MOL0     H52585   3.807   7.495   3.151  0.5899 -0.0775  1.9373
  390MOL0     H52586   3.978   7.461   3.131  0.2628  0.4467 -0.0120
  390MOL0     H52587   3.936   7.529   3.357  1.3200  0.9449  1.3328
  390MOL0     H52588   3.865   7.692   3.291  2.6460  2.5647  1.5156
  390MOL0     H52589   4.077   7.757   3.191 -0.5949  1.2637 -0.1350
  390MOL0     H52590   4.153   7.616   3.236 -0.3423  0.5991 -1.3997
  390MOL0     H52591   4.044   7.821   3.437 -0.3952 -0.3188  0.6612
  390MOL0     H52592   4.125   7.676   3.486  2.2397 -0.9033 -0.9945
  390MOL0     H52593   4.332   7.748   3.368 -1.9386 -1.1813  0.8758
  390MOL0     H52594   4.247   7.890   3.299 -2.7905  0.2808  0.8901
  390MOL0     H52595   4.209   7.947   3.551 -1.0182  1.2899 -1.1935
  390MOL0     H52596   4.360   7.845   3.575 -2.2248 -2.1098 -0.5158
  390MOL0     H52597   4.402   8.090   3.547  0.7626  0.4083 -0.2335
  390MOL0     H52598   4.316   8.103   3.404  2.1918  2.8608  1.4943
  390MOL0     H52599   4.548   7.894   3.406  0.3564 -0.6813 -1.9509
  390MOL0     H52600   4.496   7.991   3.275  4.1775 -2.4833  0.2800
  390MOL0     H52601   4.579   8.207   3.246  0.0989 -0.5945  0.1768
  390MOL0     H52602   4.920   8.304   3.291 -1.8210 -3.0875  2.1229
  390MOL0     H52603   4.782   8.371   3.213  4.0112  2.5232 -0.9663
  390MOL0     H52604   4.759   8.545   3.404  1.8036  2.5125  0.2746
  390MOL0     H52605   4.903   8.475   3.487  1.7862  0.5475 -1.5311
  390MOL0     H52606   4.914   8.563   3.190  1.5273 -1.8417  0.0367
  390MOL0     H52607   5.045   8.526   3.287 -0.7163 -1.3282 -2.4475
  390MOL0     H52608   4.850   8.753   3.305  0.2788 -0.8926 -3.8617
  390MOL0     H52609   5.012   8.781   3.274  3.3827  1.1198  3.2867
  390MOL0     H52610   5.023   8.573   3.675  1.3320 -1.9694  0.7040
  390MOL0     H52611   5.237   8.500   3.774 -0.6315 -2.3766 -1.6889
  390MOL0     H52612   5.839   8.692   3.552 -0.9204 -0.4910 -0.0209
  390MOL0     H52613   6.073   8.610   3.584  0.6441 -0.3725  1.3599
  390MOL0     H52614   6.110   8.251   3.821 -1.7725  1.5664 -2.0425
  390MOL0     H52615   6.177   8.180   3.667  0.6791 -0.0013  0.6905
  390MOL0     H52616   6.385   8.335   3.694  4.7889  1.2279  2.7849
  390MOL0     H52617   6.331   8.349   3.865 -1.2917  1.9670 -0.7724
  390MOL0     H52618   6.333   8.092   3.854 -3.5334  0.3698 -1.9846
  390MOL0     H52619   6.416   8.095   3.699  1.1738  3.0143 -1.1374
  390MOL0     H52620   6.558   8.063   3.883 -3.0421 -0.0440  2.1587
  390MOL0     H52621   6.547   8.233   3.923 -1.9349 -0.1347 -0.1373
  390MOL0     H52622   6.740   8.208   3.780 -1.9174  0.7639  3.9567
  390MOL0     H52623   6.609   8.283   3.680 -0.5840 -0.7857 -1.9132
  390MOL0     H52624   6.655   7.983   3.681  1.9828 -0.5401  0.4774
  390MOL0     H52625   6.567   8.082   3.562 -0.1276  6.3344  0.1867
  390MOL0     H52626   6.870   8.036   3.604 -2.7886  1.1860  5.5783
  390MOL0     H52627   6.811   8.189   3.515 -0.7742  0.1401  0.0544
  390MOL0     H52628   6.689   8.027   3.359 -0.6371  1.0562  0.5694
  390MOL0     H52629   6.862   8.001   3.357 -1.0192 -0.8803 -2.6712
  390MOL0     H52630   5.909   8.228   3.685  1.5353  0.4792 -0.5737
  390MOL0     H52631   5.675   8.317   3.644 -0.7359  1.0923 -0.2582
  390MOL0     H52632   5.436   8.664   3.427 -1.0413 -2.2619  0.1079
  390MOL0     H52633   5.230   8.796   3.387  1.0242 -0.7863 -0.3349
  390MOL0     H52634   3.833   7.860   2.931  1.1842 -0.9989 -0.5884
  390MOL0     H52635   3.714   7.871   2.695 -0.7642 -2.0985 -2.2243
  390MOL0     H52636   3.823   7.465   2.234  0.7272 -0.0710 -3.9796
  390MOL0     H52637   3.732   7.479   2.014 -0.0106 -0.5615  1.3976
  390MOL0     H52638   3.553   7.467   1.870  0.0064  0.5946  1.0457
  390MOL0     H52639   3.684   7.569   1.813  0.3154  2.3282  0.0255
  390MOL0     H52640   3.404   7.584   1.713  0.3161 -0.0495  1.6077
  390MOL0     H52641   3.536   7.542   1.614 -0.7722  2.6995 -2.5738
  390MOL0     H52642   3.635   7.765   1.644 -0.1261  3.6254  2.0078
  390MOL0     H52643   3.489   7.822   1.723  1.1203  1.0323  0.4376
  390MOL0     H52644   3.357   7.805   1.528  0.0283  2.0797 -0.4673
  390MOL0     H52645   3.513   7.887   1.502 -2.4364  1.1616  0.8389
  390MOL0     H52646   3.515   7.553   1.229 -0.0965 -0.7953  0.5428
  390MOL0     H52647   3.485   7.813   2.130  1.0865  1.9274  1.5965
  390MOL0     H52648   3.607   7.863   2.455 -0.0980 -0.4726  0.6026
  390MOL0     H52649   3.482   7.890   2.332 -0.3862 -1.2121 -1.9116
  390MOL0     H52650   3.486   7.743   2.435  0.9207 -1.3668 -1.6391
  391MOL0     O52651   0.673   7.522   2.298 -0.3881  1.0168  0.3825
  391MOL0     C52652   0.793   7.547   2.281 -0.1991  0.3659 -0.1991
  391MOL0     O52653   0.873   7.607   2.373 -0.0301 -0.1066 -0.0056
  391MOL0     C52654   0.833   7.622   2.500  0.0854  0.0151 -0.0414
  391MOL0     C52655   0.852   7.756   2.548  0.2657 -0.0416  0.0585
  391MOL0     C52656   0.828   7.778   2.683 -1.0612  0.3177  0.7484
  391MOL0     C52657   0.773   7.678   2.771 -0.3220 -0.3810  0.0307
  391MOL0     O52658   0.742   7.716   2.900  0.4265 -0.1217 -0.6651
  391MOL0     C52659   0.772   7.625   3.007 -0.1044 -0.4860  0.0563
  391MOL0     C52660   0.774   7.708   3.127  0.1394 -0.5352  0.1926
  391MOL0     C52661   0.645   7.778   3.160 -0.4004 -0.5175  0.1357
  391MOL0     C52662   0.644   7.848   3.299 -1.3135 -0.1405  0.2338
  391MOL0     C52663   0.514   7.916   3.330  0.2190  0.0695 -0.8013
  391MOL0     C52664   0.435   7.968   3.213  0.0438 -0.5603 -0.8694
  391MOL0     C52665   0.314   8.064   3.258 -0.2980  0.9146  0.1645
  391MOL0     C52666   0.294   8.189   3.168 -0.4977 -0.0570 -0.7420
  391MOL0     N52667   0.221   8.296   3.235 -0.5358 -0.2357  0.1903
  391MOL0     C52668   0.100   8.279   3.289  0.2918 -0.1108 -0.7644
  391MOL0     C52669   0.064   8.412   3.314 -0.6394  0.1523  0.1916
  391MOL0     C52670  -0.078   8.457   3.369 -0.0151 -0.4782  0.5431
  391MOL0     C52671  -0.200   8.452   3.278 -0.2942  0.5300  0.7869
  391MOL0     C52672  -0.323   8.503   3.346 -0.2886 -0.1453  0.7089
  391MOL0     C52673  -0.433   8.446   3.275  0.7088  0.0746  0.5111
  391MOL0     O52674  -0.433   8.479   3.142  0.8158 -0.1471  0.8742
  391MOL0     C52675  -0.510   8.398   3.056  0.9629 -0.3836 -1.0060
  391MOL0     C52676  -0.644   8.349   3.084  0.5082  0.3591  0.1353
  391MOL0     C52677  -0.714   8.265   2.998 -0.0717 -0.1067 -1.1114
  391MOL0     C52678  -0.657   8.236   2.872 -0.8393  0.4112 -0.6275
  391MOL0     C52679  -0.725   8.163   2.772  0.3086  0.6440  0.2558
  391MOL0     O52680  -0.862   8.154   2.771  0.7162 -0.5431 -0.0116
  391MOL0     C52681  -0.917   8.102   2.657 -0.2063 -0.6052 -0.8322
  391MOL0     C52682  -0.930   7.963   2.660 -0.4033  0.6406  0.0010
  391MOL0     C52683  -0.961   7.885   2.542  0.2803  0.3409  0.3333
  391MOL0     C52684  -0.983   7.950   2.417 -0.5717  0.1890 -0.2139
  391MOL0     O52685  -1.029   7.868   2.316 -0.5954 -0.1867 -0.7894
  391MOL0     C52686  -1.101   7.931   2.214  0.1335  0.2584 -0.3280
  391MOL0     C52687  -1.204   7.828   2.172 -1.1075 -1.0232  0.3597
  391MOL0     C52688  -1.300   7.784   2.294  0.3406  0.2122  0.3691
  391MOL0     C52689  -1.392   7.676   2.234  0.3974 -0.2129  0.1462
  391MOL0     C52690  -1.414   7.568   2.332  0.6427  0.2441 -0.1855
  391MOL0     C52691  -1.547   7.499   2.288  0.5192 -0.0892  0.2498
  391MOL0     C52692  -1.572   7.373   2.373 -1.3193  0.3069 -0.2355
  391MOL0     C52693  -1.715   7.334   2.394 -0.7618  0.5150 -0.7157
  391MOL0    Cl52694  -1.753   7.176   2.478 -0.5279 -0.2233  0.3949
  391MOL0     C52695  -0.950   8.090   2.421 -0.2582 -0.2340 -0.1686
  391MOL0     C52696  -0.921   8.170   2.538 -0.4645  0.1232 -0.8760
  391MOL0     O52697  -0.652   8.115   2.687 -0.0695  0.3597  0.0104
  391MOL0     C52698  -0.529   8.287   2.839  0.0060  0.0931 -1.1557
  391MOL0     C52699  -0.460   8.368   2.930 -0.7842  1.0293  0.2141
  391MOL0     N52700   0.163   8.499   3.272 -0.0818  0.3671  0.5824
  391MOL0     N52701   0.254   8.432   3.218  0.5837  0.2876  0.5535
  391MOL0     C52702   0.736   7.560   2.711  0.3460  0.2440 -0.2392
  391MOL0     C52703   0.770   7.524   2.578  0.1278 -0.3463 -0.0288
  391MOL0     C52704   0.854   7.522   2.150  0.4334 -0.1608  0.0757
  391MOL0     C52705   0.970   7.587   2.117 -0.1094  0.5930  0.0657
  391MOL0     C52706   1.015   7.595   1.983 -0.0095 -0.1122 -0.1908
  391MOL0     C52707   0.945   7.531   1.881 -0.8014 -0.7622 -0.0596
  391MOL0     O52708   1.002   7.575   1.764 -0.0742 -0.2210  0.6221
  391MOL0     C52709   0.928   7.580   1.637  0.7689 -0.1651 -0.2340
  391MOL0     C52710   0.947   7.716   1.578  0.8677 -0.5886 -0.8427
  391MOL0     C52711   1.073   7.735   1.494  0.7565 -0.8145 -0.3320
  391MOL0     C52712   1.199   7.731   1.576  0.4632 -0.0857  0.3943
  391MOL0     C52713   1.310   7.707   1.490  0.6227  0.1953  0.4734
  391MOL0     C52714   1.407   7.677   1.423 -0.8830 -1.0102 -0.4704
  391MOL0     C52715   0.831   7.464   1.912  0.3699 -0.1585  0.4279
  391MOL0     C52716   0.784   7.450   2.042  0.2450  0.4483 -1.1265
  391MOL0     C52717   0.653   7.390   2.067 -0.3618  0.8112  0.8015
  391MOL0     H52718   0.886   7.837   2.484 -1.1941  1.3585  0.9628
  391MOL0     H52719   0.836   7.878   2.724 -1.1847 -0.0023  1.5683
  391MOL0     H52720   0.694   7.549   3.014 -0.5690  0.0954  1.9380
  391MOL0     H52721   0.869   7.579   2.988  1.1485  2.9737 -2.9042
  391MOL0     H52722   0.860   7.775   3.137  2.1052 -2.9934  0.7511
  391MOL0     H52723   0.794   7.642   3.213  3.0134  0.7806  0.6416
  391MOL0     H52724   0.560   7.710   3.161  0.6993 -1.9944 -1.0836
  391MOL0     H52725   0.628   7.846   3.077  1.7264 -0.6683 -0.4834
  391MOL0     H52726   0.658   7.766   3.371  1.0323 -0.3675 -0.3899
  391MOL0     H52727   0.730   7.915   3.291 -0.2860 -1.4432 -0.0816
  391MOL0     H52728   0.459   7.843   3.390  3.7100 -3.2110 -1.2099
  391MOL0     H52729   0.540   8.002   3.393 -2.3163 -0.6490  1.4106
  391MOL0     H52730   0.506   8.032   3.161  1.0519  1.2428  2.4402
  391MOL0     H52731   0.398   7.892   3.144 -3.2434 -1.4631  1.6178
  391MOL0     H52732   0.348   8.100   3.356  0.5288  3.1188 -0.8529
  391MOL0     H52733   0.226   7.999   3.261 -0.8280  1.1220 -4.5060
  391MOL0     H52734   0.395   8.226   3.151  0.4657 -1.9861  0.3913
  391MOL0     H52735   0.248   8.165   3.072  0.8869 -1.2227 -1.1505
  391MOL0     H52736   0.050   8.183   3.301  1.3160 -0.6109 -0.3400
  391MOL0     H52737  -0.093   8.401   3.462 -0.5838 -2.0079 -0.4107
  391MOL0     H52738  -0.066   8.561   3.401  0.1401 -0.9424  2.0788
  391MOL0     H52739  -0.183   8.511   3.188  3.0397 -1.7728 -0.2726
  391MOL0     H52740  -0.210   8.348   3.246  0.2970 -0.0255  2.2982
  391MOL0     H52741  -0.332   8.611   3.338 -1.4827 -0.3913 -2.5532
  391MOL0     H52742  -0.321   8.467   3.449  0.8889 -1.5213  0.2424
  391MOL0     H52743  -0.531   8.480   3.310  1.2972  0.0802  2.2760
  391MOL0     H52744  -0.440   8.336   3.274 -1.0948  0.1478  0.4520
  391MOL0     H52745  -0.702   8.381   3.170 -1.4519  2.2940 -1.7785
  391MOL0     H52746  -0.811   8.232   3.034  0.7105  1.1163  2.6653
  391MOL0     H52747  -0.906   7.914   2.754  2.8411  2.6847  0.4011
  391MOL0     H52748  -0.968   7.777   2.550 -0.4401  0.4882  2.3665
  391MOL0     H52749  -1.148   8.025   2.244  0.2292  1.6833 -4.0886
  391MOL0     H52750  -1.033   7.948   2.129  1.6122  1.9675  1.1180
  391MOL0     H52751  -1.266   7.863   2.090  0.0955 -0.0608 -0.1638
  391MOL0     H52752  -1.142   7.744   2.140  3.3869  2.1429 -0.2105
  391MOL0     H52753  -1.257   7.751   2.389  1.9432 -1.1215 -0.7728
  391MOL0     H52754  -1.360   7.873   2.318  1.9734  1.3749  0.3488
  391MOL0     H52755  -1.345   7.643   2.141 -0.5237  1.5129 -0.9751
  391MOL0     H52756  -1.488   7.719   2.206  0.0156 -0.9511  0.2781
  391MOL0     H52757  -1.425   7.613   2.431 -3.4460  3.8775 -1.9683
  391MOL0     H52758  -1.332   7.496   2.327 -1.1362 -1.8198 -2.7090
  391MOL0     H52759  -1.633   7.563   2.309 -0.1892 -1.2218  0.9481
  391MOL0     H52760  -1.549   7.469   2.183 -4.3096  0.3752 -0.0555
  391MOL0     H52761  -1.523   7.400   2.467 -2.1306  3.0072 -0.4795
  391MOL0     H52762  -1.513   7.289   2.338  1.7860  0.1884  4.3407
  391MOL0     H52763  -1.760   7.421   2.444 -1.2289 -0.0093 -0.2218
  391MOL0     H52764  -1.767   7.323   2.299  0.0604 -0.0507 -1.1146
  391MOL0     H52765  -0.966   8.142   2.327  3.0329 -1.2369 -1.3949
  391MOL0     H52766  -0.921   8.277   2.526 -1.0506  0.2663  0.2607
  391MOL0     H52767  -0.480   8.249   2.750 -1.8386 -1.4778 -1.5827
  391MOL0     H52768  -0.360   8.400   2.902 -0.3445  1.2079  1.9010
  391MOL0     H52769   0.682   7.490   2.774 -0.4078  1.7722  0.8808
  391MOL0     H52770   0.743   7.426   2.540 -0.9145  1.1286 -3.5515
  391MOL0     H52771   1.029   7.633   2.195  1.3487 -1.9841  0.5727
  391MOL0     H52772   1.104   7.657   1.972  0.2658 -0.6857 -1.3324
  391MOL0     H52773   0.827   7.551   1.667  0.4778  2.5714  1.8455
  391MOL0     H52774   0.965   7.506   1.565  1.1594  0.1596 -0.3704
  391MOL0     H52775   0.941   7.789   1.659 -0.5008  4.9048 -5.2153
  391MOL0     H52776   0.868   7.741   1.506  0.3638  3.5689  0.8430
  391MOL0     H52777   1.068   7.831   1.442 -0.9049 -0.3209  0.6611
  391MOL0     H52778   1.078   7.664   1.411 -0.9769 -0.2900 -0.9330
  391MOL0     H52779   1.218   7.817   1.641  2.2614 -1.1439  1.3462
  391MOL0     H52780   1.189   7.647   1.646  0.5111  2.3395  3.5502
  391MOL0     H52781   1.483   7.647   1.353  0.4508 -1.4822  1.1161
  391MOL0     H52782   0.770   7.425   1.831 -1.6029  2.8738  0.3020
  391MOL0     H52783   0.651   7.339   2.163  2.2152 -0.3239  0.3502
  391MOL0     H52784   0.566   7.455   2.054 -2.3525 -1.7256  0.6027
  391MOL0     H52785   0.638   7.306   1.998 -2.2512 -0.3456  2.5192
  392MOL0     O52786   3.192   9.150   8.254  0.4698 -0.2721  0.3151
  392MOL0     C52787   3.151   9.243   8.183 -0.0340  0.0320 -0.5794
  392MOL0     O52788   3.112   9.373   8.226  0.0248 -0.3027 -0.3334
  392MOL0     C52789   3.146   9.419   8.351 -0.3459 -0.5918  0.1325
  392MOL0     C52790   3.282   9.435   8.397 -0.2074  0.0287 -0.1928
  392MOL0     C52791   3.313   9.473   8.535  0.3377 -0.2148  0.3283
  392MOL0     C52792   3.206   9.503   8.621 -0.3186  0.2510 -0.2860
  392MOL0     O52793   3.245   9.578   8.735  0.3463  0.0139  0.0040
  392MOL0     C52794   3.301   9.507   8.842 -0.0668 -0.0234  0.0788
  392MOL0     C52795   3.301   9.598   8.961 -0.4725 -0.3654 -0.2575
  392MOL0     C52796   3.151   9.655   8.987 -0.1980 -0.7318 -0.2124
  392MOL0     C52797   3.144   9.672   9.135 -0.5136 -0.6633  0.4364
  392MOL0     C52798   3.018   9.730   9.192  0.0564 -0.1109  0.9588
  392MOL0     C52799   3.006   9.706   9.342 -0.7258 -0.5530  0.3106
  392MOL0     C52800   3.113   9.763   9.424 -0.8570 -0.0036  0.6620
  392MOL0     C52801   3.080   9.787   9.568 -0.2070 -0.2766  0.4756
  392MOL0     N52802   2.950   9.855   9.589  0.3545 -0.1444 -0.5785
  392MOL0     C52803   2.913   9.959   9.511 -0.0900  0.1868  0.2005
  392MOL0     C52804   2.779   9.973   9.542 -0.8755 -0.6498  0.2240
  392MOL0     C52805   2.676  10.045   9.452 -0.1298 -0.5617  0.0428
  392MOL0     C52806   2.544   9.983   9.436  0.5699 -0.7892  0.6073
  392MOL0     C52807   2.475  10.051   9.323  0.1286 -0.2533 -0.0014
  392MOL0     C52808   2.329   9.990   9.317 -0.4294 -0.2506  0.3814
  392MOL0     O52809   2.340   9.846   9.292  0.3845 -0.3437 -1.0413
  392MOL0     C52810   2.237   9.765   9.335 -0.3551 -0.4410 -0.1779
  392MOL0     C52811   2.275   9.635   9.355 -0.1201  0.2355  0.4182
  392MOL0     C52812   2.191   9.535   9.401  0.3783  0.1718 -0.2812
  392MOL0     C52813   2.060   9.568   9.440  0.1863 -0.4983 -0.0332
  392MOL0     C52814   1.971   9.461   9.495  0.0882 -0.2458  0.0707
  392MOL0     O52815   1.842   9.488   9.516 -0.5449  0.0557  1.1610
  392MOL0     C52816   1.744   9.390   9.508  0.3777 -0.6362 -0.1540
  392MOL0     C52817   1.653   9.382   9.612 -0.1853 -0.5339  0.1372
  392MOL0     C52818   1.551   9.289   9.610 -0.3332 -0.1795  0.7576
  392MOL0     C52819   1.533   9.208   9.496  0.7065 -0.2548  0.4588
  392MOL0     O52820   1.417   9.125   9.495 -0.3147 -0.0291  0.4783
  392MOL0     C52821   1.451   8.989   9.514 -0.9895 -0.3493  0.9042
  392MOL0     C52822   1.323   8.913   9.521  1.0959  0.1419  0.0773
  392MOL0     C52823   1.231   8.900   9.399  0.1322 -0.3760  0.6460
  392MOL0     C52824   1.124   8.782   9.430 -0.2138  0.2990 -0.2082
  392MOL0     C52825   1.026   8.788   9.314  0.0865 -0.8179 -0.4565
  392MOL0     C52826   0.893   8.715   9.356  0.1501  0.0828 -0.7009
  392MOL0     C52827   0.789   8.760   9.253 -0.3122 -0.0115 -0.2587
  392MOL0     C52828   0.642   8.712   9.290 -0.3572  0.6195  0.1684
  392MOL0    Cl52829   0.524   8.749   9.168 -0.3470 -0.0387 -0.4319
  392MOL0     C52830   1.616   9.220   9.389  0.2265  0.3470  0.0706
  392MOL0     C52831   1.724   9.312   9.397 -0.3116  0.3540  0.0863
  392MOL0     O52832   2.016   9.346   9.517 -0.6103 -0.2538  0.3772
  392MOL0     C52833   2.019   9.705   9.425 -0.5265  1.1395  0.1243
  392MOL0     C52834   2.111   9.808   9.378 -0.5184  0.2022  0.6635
  392MOL0     N52835   2.754   9.900   9.653 -1.0427 -0.1049  0.9891
  392MOL0     N52836   2.856   9.828   9.688  0.5271  1.1480  0.5542
  392MOL0     C52837   3.075   9.492   8.570  0.3067 -0.3594  0.3916
  392MOL0     C52838   3.042   9.452   8.439 -0.1312 -0.2029 -1.1870
  392MOL0     C52839   3.112   9.197   8.041  0.3581 -0.0576 -0.6298
  392MOL0     C52840   3.030   9.289   7.975 -0.1399  0.4094  0.3196
  392MOL0     C52841   3.001   9.275   7.838  0.4271  0.0065 -0.0776
  392MOL0     C52842   3.044   9.158   7.764  0.3723 -0.7177  0.2905
  392MOL0     O52843   3.026   9.144   7.635  0.4569  0.1525 -0.3174
  392MOL0     C52844   2.916   9.211   7.574 -0.4893  0.5650  0.1086
  392MOL0     C52845   2.910   9.165   7.429  0.0603  0.2327  0.5518
  392MOL0     C52846   2.871   9.019   7.415 -0.2274 -0.4665 -0.1178
  392MOL0     C52847   2.958   8.953   7.296  0.3916 -0.9688  0.9475
  392MOL0     C52848   2.972   9.034   7.171 -0.4195  0.6857 -0.2867
  392MOL0     C52849   2.995   9.101   7.067 -0.1620  0.6715  0.1886
  392MOL0     C52850   3.124   9.065   7.836  0.2191  0.2086  0.0402
  392MOL0     C52851   3.160   9.083   7.972 -0.1756  0.0252  0.6549
  392MOL0     C52852   3.261   8.980   8.030 -0.7161  0.1398 -0.5371
  392MOL0     H52853   3.362   9.421   8.325 -0.0419  1.2539 -0.2602
  392MOL0     H52854   3.417   9.484   8.564 -0.0916  1.8643  1.2944
  392MOL0     H52855   3.242   9.416   8.859  0.7049 -0.5369  0.0545
  392MOL0     H52856   3.399   9.475   8.805  0.8279 -1.1436  3.1499
  392MOL0     H52857   3.379   9.673   8.944 -0.3151  0.1956  2.3681
  392MOL0     H52858   3.339   9.549   9.052  5.3551  1.0324 -1.4931
  392MOL0     H52859   3.082   9.582   8.945 -0.2038 -1.6783  1.3533
  392MOL0     H52860   3.151   9.751   8.935 -1.7056 -0.4350  0.2935
  392MOL0     H52861   3.156   9.575   9.184  0.6909  0.3318  2.2445
  392MOL0     H52862   3.234   9.726   9.165 -1.1958 -0.0084  1.3572
  392MOL0     H52863   3.020   9.839   9.176  2.5029 -0.0337  1.3887
  392MOL0     H52864   2.942   9.689   9.124 -1.0914  4.1796 -0.6995
  392MOL0     H52865   2.913   9.752   9.377  1.3383  4.0225  0.4531
  392MOL0     H52866   3.001   9.598   9.358 -1.3587 -0.9291 -2.0588
  392MOL0     H52867   3.130   9.857   9.369  0.4235 -0.7120 -0.2044
  392MOL0     H52868   3.194   9.690   9.418  0.2468  1.2427 -0.2372
  392MOL0     H52869   3.070   9.696   9.628  3.6797  0.0095  1.8552
  392MOL0     H52870   3.153   9.856   9.612 -0.6359  0.8963 -0.5789
  392MOL0     H52871   2.963  10.001   9.424 -2.6403  0.3523 -1.2770
  392MOL0     H52872   2.675  10.145   9.495 -0.4679 -0.7465  0.4744
  392MOL0     H52873   2.724  10.063   9.355 -0.8217 -0.4904 -0.2930
  392MOL0     H52874   2.552   9.875   9.419 -0.9484 -0.7789 -0.2803
  392MOL0     H52875   2.484  10.005   9.525  0.5400  2.0121 -0.0097
  392MOL0     H52876   2.518  10.002   9.235  0.4599  0.2157 -0.1048
  392MOL0     H52877   2.486  10.159   9.339 -0.9435  0.4507 -3.3476
  392MOL0     H52878   2.273  10.045   9.241  0.1119  0.2845  0.3615
  392MOL0     H52879   2.279  10.014   9.411  3.5386  0.4675  2.5442
  392MOL0     H52880   2.380   9.612   9.341 -0.4451 -0.8693 -0.2775
  392MOL0     H52881   2.227   9.432   9.398  1.5216  0.5699 -0.9350
  392MOL0     H52882   1.663   9.438   9.705  1.0690 -0.4683 -0.0244
  392MOL0     H52883   1.488   9.275   9.697 -0.6433  1.5310  0.8493
  392MOL0     H52884   1.504   8.956   9.424 -1.6699  1.6635 -0.3122
  392MOL0     H52885   1.511   8.961   9.601 -2.5939 -3.0713  1.2344
  392MOL0     H52886   1.354   8.811   9.546  1.4490  0.6824  1.9909
  392MOL0     H52887   1.261   8.953   9.601 -1.2711 -0.9304 -1.1344
  392MOL0     H52888   1.177   8.993   9.381 -3.1682 -1.9311  1.6744
  392MOL0     H52889   1.286   8.862   9.312 -2.1653 -2.9530  0.1986
  392MOL0     H52890   1.086   8.814   9.527 -0.1972  3.4591 -1.1075
  392MOL0     H52891   1.163   8.680   9.434  0.3492  0.2867 -3.1953
  392MOL0     H52892   1.065   8.745   9.221 -0.2080 -2.8562  0.3143
  392MOL0     H52893   0.995   8.892   9.302  1.8923 -0.1198  0.4489
  392MOL0     H52894   0.907   8.607   9.348 -2.8757 -0.4383 -0.0342
  392MOL0     H52895   0.860   8.733   9.459 -0.2185  0.7977 -0.9381
  392MOL0     H52896   0.819   8.715   9.158  0.7472  1.0219 -0.4371
  392MOL0     H52897   0.781   8.868   9.239  3.3230  0.3474 -0.7233
  392MOL0     H52898   0.649   8.606   9.316  2.0405  0.7893  0.4227
  392MOL0     H52899   0.608   8.758   9.383  0.8547  1.3276  0.2877
  392MOL0     H52900   1.606   9.150   9.306  0.6167 -1.9336  1.8447
  392MOL0     H52901   1.792   9.315   9.312 -0.4285  2.3125  0.0039
  392MOL0     H52902   1.918   9.738   9.444 -0.4972  1.4223 -0.1970
  392MOL0     H52903   2.082   9.912   9.367  0.3648  0.4260  0.3350
  392MOL0     H52904   3.003   9.524   8.645  1.4480  1.0943  0.9338
  392MOL0     H52905   2.940   9.458   8.401 -0.6244  1.1227  0.2412
  392MOL0     H52906   3.003   9.383   8.022 -0.8809  0.6591 -0.5815
  392MOL0     H52907   2.946   9.349   7.781 -0.7865 -1.0851 -0.3633
  392MOL0     H52908   2.933   9.318   7.585  0.8894  0.2811  1.0644
  392MOL0     H52909   2.821   9.184   7.622  0.5491 -1.0189  1.4068
  392MOL0     H52910   3.013   9.182   7.396 -0.8062  2.3800 -1.2429
  392MOL0     H52911   2.852   9.233   7.368  3.3156  0.3825 -2.7337
  392MOL0     H52912   2.768   9.002   7.383  0.2504 -2.2158 -0.8179
  392MOL0     H52913   2.888   8.964   7.508  1.3482  2.3655  1.4155
  392MOL0     H52914   3.057   8.925   7.331  0.5270 -0.8964  0.6285
  392MOL0     H52915   2.903   8.862   7.269 -2.7613  1.1190 -0.3199
  392MOL0     H52916   3.017   9.147   6.972  0.4034 -2.7720 -1.4851
  392MOL0     H52917   3.171   8.982   7.784  0.1110  2.0815 -3.3769
  392MOL0     H52918   3.309   8.917   7.955 -2.4375  1.8639 -3.2507
  392MOL0     H52919   3.346   9.025   8.081  0.4581 -2.6788  0.1600
  392MOL0     H52920   3.209   8.906   8.092 -0.6568 -0.5619 -1.3006
  393MOL0     O52921   2.401   9.679   5.489 -0.6409 -0.5574 -0.3615
  393MOL0     C52922   2.333   9.783   5.484 -0.0739  0.4227  0.0167
  393MOL0     O52923   2.295   9.840   5.370  0.0774  0.2919  0.0999
  393MOL0     C52924   2.323   9.765   5.254 -0.0326 -0.5631  0.1741
  393MOL0     C52925   2.375   9.824   5.142  0.2697 -0.8174  0.0845
  393MOL0     C52926   2.407   9.762   5.015 -0.6034 -0.3678 -0.7990
  393MOL0     C52927   2.368   9.622   5.004  0.1575  0.2031 -0.3240
  393MOL0     O52928   2.393   9.545   4.895 -0.5974  0.6881  0.1040
  393MOL0     C52929   2.482   9.594   4.803 -0.3914 -1.2383  0.5116
  393MOL0     C52930   2.493   9.500   4.688 -0.1813  0.4776 -0.4202
  393MOL0     C52931   2.584   9.553   4.578  1.2563 -0.4547 -0.2503
  393MOL0     C52932   2.727   9.584   4.624  0.5327 -0.4357 -0.7372
  393MOL0     C52933   2.827   9.629   4.520  0.5274  0.6497  0.3290
  393MOL0     C52934   2.962   9.612   4.585 -0.9027  0.3811  0.0885
  393MOL0     C52935   3.071   9.617   4.478 -0.3960 -0.8519 -0.2556
  393MOL0     C52936   3.202   9.646   4.550 -0.6791  0.3614 -0.3908
  393MOL0     N52937   3.317   9.658   4.451  0.5174  0.4717 -0.3278
  393MOL0     C52938   3.432   9.582   4.462  0.5051  0.2660  0.7460
  393MOL0     C52939   3.494   9.631   4.350 -0.3453 -0.0929 -0.0832
  393MOL0     C52940   3.636   9.605   4.306  0.2125  0.0364 -0.0950
  393MOL0     C52941   3.645   9.513   4.175 -0.1752 -0.3765  0.2066
  393MOL0     C52942   3.797   9.494   4.137  0.5632  0.1026  0.0004
  393MOL0     C52943   3.805   9.380   4.037 -0.3921 -0.8693 -0.1272
  393MOL0     O52944   3.737   9.262   4.075  0.5316 -0.3606  0.2388
  393MOL0     C52945   3.732   9.169   3.983  0.2576 -0.3122 -0.5135
  393MOL0     C52946   3.765   9.182   3.850  1.2038 -0.6161 -0.1754
  393MOL0     C52947   3.746   9.073   3.769 -0.5253  0.7661 -0.2639
  393MOL0     C52948   3.674   8.958   3.801  0.2577  0.6564 -0.2370
  393MOL0     C52949   3.629   8.862   3.693 -0.4563 -1.2327 -0.3608
  393MOL0     O52950   3.653   8.893   3.565 -0.7512 -0.1360  0.1230
  393MOL0     C52951   3.618   8.803   3.460  0.3178 -0.3288  0.1648
  393MOL0     C52952   3.694   8.688   3.454 -0.4404  0.4842  0.1822
  393MOL0     C52953   3.664   8.597   3.353 -0.0183  1.0525 -0.6887
  393MOL0     C52954   3.561   8.611   3.253 -0.7172 -1.0241  0.1916
  393MOL0     O52955   3.539   8.518   3.150 -1.0040  0.0055 -0.3278
  393MOL0     C52956   3.641   8.535   3.045 -0.3744 -0.4012  0.3626
  393MOL0     C52957   3.599   8.464   2.918  0.0259  0.4635 -0.6687
  393MOL0     C52958   3.568   8.320   2.961 -0.8975 -0.0146  0.3922
  393MOL0     C52959   3.583   8.226   2.848 -0.0455 -0.5542  0.8355
  393MOL0     C52960   3.478   8.252   2.735  0.8078 -0.3513  0.1672
  393MOL0     C52961   3.487   8.157   2.621  0.1272 -0.3248  0.4834
  393MOL0     C52962   3.392   8.184   2.503 -0.3053  0.2652  0.4810
  393MOL0     C52963   3.266   8.103   2.494 -0.4621 -0.1198  0.0463
  393MOL0    Cl52964   3.165   8.122   2.639 -0.1327  0.4800  0.0463
  393MOL0     C52965   3.491   8.733   3.265  0.5234 -0.0226  0.4245
  393MOL0     C52966   3.512   8.826   3.368  0.3145  0.3018  0.9454
  393MOL0     O52967   3.560   8.767   3.729  0.3016  0.5237 -0.0282
  393MOL0     C52968   3.617   8.949   3.932  0.1433 -0.0318  0.5653
  393MOL0     C52969   3.659   9.053   4.020 -0.4447 -0.7768  0.0728
  393MOL0     N52970   3.424   9.728   4.291  0.5691 -0.3573 -0.2953
  393MOL0     N52971   3.324   9.751   4.360  0.8755 -0.0618 -0.0325
  393MOL0     C52972   2.304   9.563   5.116 -0.0431 -0.4701 -0.0366
  393MOL0     C52973   2.289   9.633   5.239  0.2129 -0.0701  0.3438
  393MOL0     C52974   2.267   9.835   5.611  0.7140 -0.4819  0.8106
  393MOL0     C52975   2.247   9.974   5.624  0.1752  0.2264 -0.0421
  393MOL0     C52976   2.201  10.032   5.743 -0.1108  0.1616 -0.2079
  393MOL0     C52977   2.196   9.957   5.863 -0.1287  0.4030  0.3428
  393MOL0     O52978   2.164  10.016   5.984  0.8351  0.5308 -0.7412
  393MOL0     C52979   2.186   9.937   6.095  0.1630  0.0297  0.2605
  393MOL0     C52980   2.196  10.042   6.207 -0.1608  0.4256 -0.3550
  393MOL0     C52981   2.169   9.978   6.346  0.2818  0.4450 -0.3191
  393MOL0     C52982   2.155  10.077   6.460  0.4320 -0.5838  0.2004
  393MOL0     C52983   2.292  10.102   6.505  0.0580  0.3067 -0.3787
  393MOL0     C52984   2.410  10.126   6.538  0.4944 -0.7082 -0.6314
  393MOL0     C52985   2.219   9.820   5.848 -0.5656 -0.5422  0.8436
  393MOL0     C52986   2.242   9.753   5.726 -1.1330 -0.1388  1.0146
  393MOL0     C52987   2.258   9.597   5.735  0.1937  0.6292  0.6436
  393MOL0     H52988   2.393   9.929   5.162 -2.2773  0.0625 -1.7958
  393MOL0     H52989   2.448   9.831   4.943  4.8489 -0.2363  1.9412
  393MOL0     H52990   2.451   9.693   4.768  1.4452 -0.9093 -0.2841
  393MOL0     H52991   2.578   9.619   4.850 -2.4334  4.1698  2.7161
  393MOL0     H52992   2.396   9.484   4.639  0.0722  0.5702 -0.9571
  393MOL0     H52993   2.532   9.403   4.720 -1.3140  0.4371  0.9437
  393MOL0     H52994   2.535   9.641   4.535 -0.9662 -2.1806 -1.4408
  393MOL0     H52995   2.584   9.480   4.497  3.2415 -0.3395 -0.4017
  393MOL0     H52996   2.729   9.666   4.697  0.7776 -0.7122 -0.4311
  393MOL0     H52997   2.768   9.499   4.678  0.4974  1.4571  2.5620
  393MOL0     H52998   2.814   9.574   4.426 -0.1609 -1.8018  1.7678
  393MOL0     H52999   2.799   9.729   4.486  0.7333  0.0809 -1.6664
  393MOL0     H53000   2.977   9.703   4.645 -0.3071  0.9297 -0.8676
  393MOL0     H53001   2.969   9.524   4.649 -1.3725 -0.0923 -0.5008
  393MOL0     H53002   3.041   9.697   4.410  0.2187 -0.4907 -0.1022
  393MOL0     H53003   3.073   9.520   4.426  0.5082 -0.3445 -1.2037
  393MOL0     H53004   3.204   9.736   4.612  0.5159 -0.9632  1.6271
  393MOL0     H53005   3.219   9.564   4.620 -4.2152  1.3934  1.9698
  393MOL0     H53006   3.468   9.508   4.532  0.1917  0.6973  1.3681
  393MOL0     H53007   3.685   9.702   4.295  1.0663 -0.3499  0.1366
  393MOL0     H53008   3.698   9.564   4.386  2.8113  0.7825 -1.5908
  393MOL0     H53009   3.593   9.423   4.210 -1.8224  0.1402 -0.7939
  393MOL0     H53010   3.590   9.558   4.092 -3.5029  0.2809  2.5582
  393MOL0     H53011   3.860   9.470   4.224 -0.6756 -1.4042  0.5379
  393MOL0     H53012   3.848   9.579   4.091  2.7360 -1.3414 -0.3721
  393MOL0     H53013   3.906   9.346   4.012 -0.1383  2.0367 -3.9297
  393MOL0     H53014   3.759   9.422   3.947  0.2876  1.1472  0.4069
  393MOL0     H53015   3.817   9.271   3.815 -2.4080  0.3729 -3.8247
  393MOL0     H53016   3.779   9.083   3.666 -0.1644  0.3379 -0.1923
  393MOL0     H53017   3.766   8.666   3.532 -2.0457  0.0544  1.6027
  393MOL0     H53018   3.726   8.508   3.348 -3.6699 -1.9390  1.0255
  393MOL0     H53019   3.664   8.639   3.020 -3.0659 -0.3116 -2.2877
  393MOL0     H53020   3.723   8.482   3.096 -0.3284 -0.8510 -0.1754
  393MOL0     H53021   3.506   8.509   2.882 -2.5012 -3.4176  0.4638
  393MOL0     H53022   3.683   8.485   2.850  0.9248  3.5751  1.1808
  393MOL0     H53023   3.638   8.270   3.028  0.3290  0.4993 -0.4746
  393MOL0     H53024   3.473   8.328   3.014 -0.9224  1.1837  0.2050
  393MOL0     H53025   3.576   8.122   2.881 -2.4913 -0.5190  0.5638
  393MOL0     H53026   3.685   8.237   2.808 -0.0853  1.3283  1.1335
  393MOL0     H53027   3.469   8.356   2.701  0.5497 -0.9134 -1.5596
  393MOL0     H53028   3.384   8.243   2.789 -0.3241  2.0548 -1.2420
  393MOL0     H53029   3.588   8.156   2.578  0.7158  2.8545  1.5126
  393MOL0     H53030   3.474   8.053   2.651 -1.8543 -0.2805 -0.0932
  393MOL0     H53031   3.446   8.165   2.410 -4.4201 -2.1788 -1.6541
  393MOL0     H53032   3.352   8.286   2.508 -2.2196 -0.5137  3.5348
  393MOL0     H53033   3.196   8.132   2.414 -3.3594  1.6686  2.9725
  393MOL0     H53034   3.285   7.998   2.471  0.4580  0.4454 -2.0921
  393MOL0     H53035   3.425   8.755   3.181  1.9524  1.3513 -0.3988
  393MOL0     H53036   3.465   8.924   3.364  1.7919  1.0518  1.2884
  393MOL0     H53037   3.557   8.864   3.962 -0.5686  0.3448  0.2286
  393MOL0     H53038   3.618   9.045   4.120 -1.9239  1.6428 -0.2628
  393MOL0     H53039   2.260   9.463   5.114 -2.6161  0.5170 -3.3103
  393MOL0     H53040   2.232   9.580   5.315  1.5623  0.0614  1.4849
  393MOL0     H53041   2.269  10.047   5.547 -0.1063 -0.6390 -0.9747
  393MOL0     H53042   2.180  10.138   5.748  2.4389  0.6995  0.4804
  393MOL0     H53043   2.273   9.871   6.089 -0.7503 -1.1918  0.0677
  393MOL0     H53044   2.097   9.873   6.108 -2.5166  3.5669  0.9750
  393MOL0     H53045   2.115  10.114   6.193 -2.6763 -2.1261  0.1448
  393MOL0     H53046   2.296  10.088   6.204 -0.6713  1.5274 -2.0999
  393MOL0     H53047   2.235   9.892   6.360 -0.9240 -0.5538 -0.5476
  393MOL0     H53048   2.076   9.922   6.335 -0.0457  0.4468  1.9835
  393MOL0     H53049   2.109  10.173   6.433 -3.7902 -2.4759 -0.0399
  393MOL0     H53050   2.086  10.047   6.539  0.7920  1.6935  1.4629
  393MOL0     H53051   2.514  10.146   6.556  0.6061 -0.7401 -1.2431
  393MOL0     H53052   2.206   9.752   5.932 -0.7689 -1.3241  0.1920
  393MOL0     H53053   2.185   9.546   5.799  0.4643 -0.7488 -0.1037
  393MOL0     H53054   2.249   9.555   5.634  0.1984 -0.4402  1.0647
  393MOL0     H53055   2.357   9.558   5.758  0.7326  0.1949 -2.0681
  394MOL0     O53056  10.659  10.619   5.290  0.7500  0.3248 -0.7068
  394MOL0     C53057  10.762  10.665   5.247 -0.2180 -0.0347 -0.5044
  394MOL0     O53058  10.820  10.618   5.134  0.4731  0.7273 -0.1853
  394MOL0     C53059  10.754  10.552   5.033  0.4579 -0.2834 -0.7824
  394MOL0     C53060  10.703  10.423   5.058 -0.1294 -0.5144  0.2091
  394MOL0     C53061  10.633  10.360   4.953  1.0852  0.5535 -0.6571
  394MOL0     C53062  10.640  10.407   4.823 -0.5085 -0.5213  1.1077
  394MOL0     O53063  10.593  10.328   4.716  0.3938  0.6568 -0.8127
  394MOL0     C53064  10.604  10.374   4.572  0.7942 -0.2393 -0.1440
  394MOL0     C53065  10.527  10.280   4.482 -0.1176 -0.8481  0.6890
  394MOL0     C53066  10.373  10.286   4.507 -0.3546 -0.1141  0.5400
  394MOL0     C53067  10.293  10.334   4.380 -0.6223  0.1684 -0.5857
  394MOL0     C53068  10.144  10.295   4.407  0.4157  0.6524 -0.0078
  394MOL0     C53069  10.068  10.296   4.273 -0.3394 -0.1556  0.6696
  394MOL0     C53070  10.127  10.202   4.160  0.3239  0.4092  0.0874
  394MOL0     C53071  10.154  10.050   4.174  0.2914  1.8405  0.0758
  394MOL0     N53072  10.096   9.977   4.293  0.2040 -0.3069 -0.2112
  394MOL0     C53073   9.969   9.976   4.337 -0.2717 -0.9344  0.1840
  394MOL0     C53074   9.967   9.918   4.456  1.9795  0.0246 -0.5766
  394MOL0     C53075   9.840   9.901   4.544  0.6455  0.2655  0.0410
  394MOL0     C53076   9.864   9.944   4.690  0.7505 -0.5949 -0.8873
  394MOL0     C53077   9.960  10.078   4.707  0.3276  0.0325 -0.0930
  394MOL0     C53078   9.905  10.171   4.822 -0.9310  0.2345  0.0483
  394MOL0     O53079   9.777  10.213   4.777 -0.3019  0.0262 -0.0415
  394MOL0     C53080   9.771  10.278   4.659 -0.4204 -0.0416 -0.6834
  394MOL0     C53081   9.842  10.391   4.619  0.7842 -0.1738  0.2308
  394MOL0     C53082   9.824  10.448   4.489 -1.0782 -1.0022 -0.2651
  394MOL0     C53083   9.736  10.396   4.392 -0.2494 -0.2782 -0.4877
  394MOL0     C53084   9.713  10.451   4.258  0.5805 -0.6011 -0.4407
  394MOL0     O53085   9.794  10.559   4.223  0.4570  0.3991 -0.8281
  394MOL0     C53086   9.782  10.623   4.097  0.3450  0.1989 -0.4788
  394MOL0     C53087   9.794  10.762   4.096  0.3344 -0.4660 -0.3962
  394MOL0     C53088   9.774  10.829   3.973 -0.8310 -0.1211 -0.3227
  394MOL0     C53089   9.749  10.761   3.854  0.5434  0.6132  0.2211
  394MOL0     O53090   9.736  10.851   3.752  0.5706  0.4062 -0.0636
  394MOL0     C53091   9.688  10.813   3.618  0.1859  0.3494  0.1074
  394MOL0     C53092   9.720  10.938   3.538  1.3219 -0.0335  0.1463
  394MOL0     C53093   9.867  10.965   3.506 -0.0444 -1.1944 -0.0301
  394MOL0     C53094   9.884  11.062   3.390 -0.6689 -0.8772 -1.2810
  394MOL0     C53095  10.019  11.072   3.328  0.5685 -0.0630  0.0338
  394MOL0     C53096  10.125  11.108   3.429  0.4987  0.2275 -0.5573
  394MOL0     C53097  10.263  11.093   3.367 -0.0341 -0.3585  0.7583
  394MOL0     C53098  10.323  11.230   3.342 -0.1883  0.1637  0.1493
  394MOL0    Cl53099  10.359  11.309   3.502  0.5826 -0.4161  0.3016
  394MOL0     C53100   9.730  10.624   3.862 -0.0439 -0.0824 -0.2079
  394MOL0     C53101   9.754  10.557   3.976  0.0027  0.5846 -0.5797
  394MOL0     O53102   9.619  10.404   4.186  0.2522 -1.0178  0.1615
  394MOL0     C53103   9.670  10.272   4.432 -0.3347  0.6921 -0.4931
  394MOL0     C53104   9.678  10.224   4.567 -0.0919 -0.8507  0.3408
  394MOL0     N53105  10.096   9.879   4.481  0.3188  0.1902 -0.5116
  394MOL0     N53106  10.174   9.917   4.383  0.7720 -0.1510 -0.0247
  394MOL0     C53107  10.697  10.537   4.805 -0.1037 -0.2841  0.0029
  394MOL0     C53108  10.748  10.616   4.911 -0.3141  0.6356  0.6608
  394MOL0     C53109  10.835  10.767   5.328 -0.6493 -0.5234 -0.1021
  394MOL0     C53110  10.963  10.794   5.290  0.1497 -0.1779 -0.0530
  394MOL0     C53111  11.032  10.906   5.327  0.2763  0.1546 -0.3964
  394MOL0     C53112  10.983  10.985   5.432  0.3296  0.2974 -0.7842
  394MOL0     O53113  11.046  11.095   5.460  0.2840 -0.2114  1.4043
  394MOL0     C53114  11.002  11.173   5.568 -0.3239 -0.3182 -0.5978
  394MOL0     C53115  11.101  11.275   5.620  0.1858 -0.3398  0.5498
  394MOL0     C53116  11.141  11.391   5.537  1.3381  0.4302 -0.5875
  394MOL0     C53117  11.025  11.492   5.536 -1.6444 -0.0912  0.2213
  394MOL0     C53118  11.072  11.606   5.445 -0.8886 -0.0960  0.0607
  394MOL0     C53119  11.100  11.701   5.377  0.6181 -0.6366 -0.2166
  394MOL0     C53120  10.854  10.954   5.489  0.1305 -0.1222 -0.0383
  394MOL0     C53121  10.781  10.842   5.435  0.0396 -1.0367 -0.2708
  394MOL0     C53122  10.634  10.833   5.475  0.2690 -0.7540 -0.2752
  394MOL0     H53123  10.721  10.377   5.155  0.8814 -0.5794  0.0046
  394MOL0     H53124  10.581  10.267   4.970  1.2068  0.7385  0.8677
  394MOL0     H53125  10.579  10.478   4.553  0.0590 -0.6267 -1.4226
  394MOL0     H53126  10.712  10.376   4.552  1.3398 -4.9607  1.1516
  394MOL0     H53127  10.572  10.188   4.519  0.3970 -0.0335  2.1335
  394MOL0     H53128  10.551  10.304   4.378  0.1220 -3.2857  0.0995
  394MOL0     H53129  10.345  10.353   4.589 -2.9641 -3.1868  2.3863
  394MOL0     H53130  10.339  10.189   4.542  0.1027  0.0700  1.5215
  394MOL0     H53131  10.299  10.442   4.364 -0.2486  0.2333 -0.0116
  394MOL0     H53132  10.336  10.273   4.300 -0.7920  0.8194 -1.1876
  394MOL0     H53133  10.132  10.200   4.459  2.6102  1.4603  2.1677
  394MOL0     H53134  10.108  10.375   4.472  0.4285  2.1260 -1.7343
  394MOL0     H53135   9.962  10.271   4.287 -0.5250  0.3513  0.2296
  394MOL0     H53136  10.065  10.400   4.241 -0.8019 -0.4409 -0.2548
  394MOL0     H53137  10.216  10.257   4.128  0.0092 -0.6260 -2.8436
  394MOL0     H53138  10.051  10.216   4.083 -0.2187  2.2099  0.8980
  394MOL0     H53139  10.111   9.997   4.089 -0.3396  1.8519  0.3808
  394MOL0     H53140  10.263  10.042   4.173  0.5087  4.0905 -0.5297
  394MOL0     H53141   9.881  10.017   4.289 -0.4328 -1.1437  0.3004
  394MOL0     H53142   9.753   9.951   4.501 -0.0005 -1.3386 -0.5932
  394MOL0     H53143   9.812   9.796   4.530 -0.0411  0.5545 -0.8266
  394MOL0     H53144   9.771   9.962   4.745  2.9714  0.2083  2.9375
  394MOL0     H53145   9.902   9.861   4.751 -0.9657  0.0258  1.1705
  394MOL0     H53146   9.975  10.130   4.612 -0.7084 -1.0071 -0.8583
  394MOL0     H53147  10.063  10.054   4.735  1.7636  3.9698 -1.3674
  394MOL0     H53148   9.971  10.259   4.828  1.1141 -1.3249  1.8260
  394MOL0     H53149   9.895  10.120   4.918  1.6908  0.8335  0.7225
  394MOL0     H53150   9.901  10.440   4.696  1.5761 -1.1332  0.2482
  394MOL0     H53151   9.875  10.542   4.467  1.9830 -2.6229 -0.6098
  394MOL0     H53152   9.829  10.804   4.190 -2.5063  2.0702 -0.2921
  394MOL0     H53153   9.782  10.938   3.975 -0.5512 -0.1502  0.6731
  394MOL0     H53154   9.744  10.725   3.585  0.4865  0.7790 -0.5377
  394MOL0     H53155   9.579  10.800   3.616 -0.2714  3.4802 -1.4056
  394MOL0     H53156   9.662  10.936   3.446 -1.5832 -0.7992  1.8437
  394MOL0     H53157   9.678  11.025   3.591  1.5780 -0.2770  0.7569
  394MOL0     H53158   9.914  11.010   3.594  1.2929 -0.9203 -0.8492
  394MOL0     H53159   9.918  10.871   3.485  3.0926  0.3672  0.0160
  394MOL0     H53160   9.840  11.155   3.426 -3.1013 -2.1551 -0.6776
  394MOL0     H53161   9.818  11.027   3.310 -1.1634 -3.1814  0.0187
  394MOL0     H53162  10.019  11.151   3.253 -0.9104  2.8627  2.8830
  394MOL0     H53163  10.032  10.970   3.291  2.9882  0.1101  0.2564
  394MOL0     H53164  10.104  11.207   3.468 -0.0789 -0.5112  1.0846
  394MOL0     H53165  10.113  11.031   3.506  1.8668  0.7530  0.2076
  394MOL0     H53166  10.251  11.031   3.278 -0.0962 -0.1937  0.6502
  394MOL0     H53167  10.334  11.035   3.425  0.1620 -1.4233 -0.4995
  394MOL0     H53168  10.422  11.223   3.296  0.2013 -0.4806  1.0782
  394MOL0     H53169  10.255  11.292   3.282  1.9412  1.5586 -0.9335
  394MOL0     H53170   9.732  10.565   3.771  0.4928 -0.8425  0.2889
  394MOL0     H53171   9.750  10.449   3.976  0.9115  0.5450 -1.1334
  394MOL0     H53172   9.604  10.221   4.362 -0.3749  0.1097 -0.0465
  394MOL0     H53173   9.615  10.136   4.582 -0.3487 -0.4371  1.7930
  394MOL0     H53174  10.700  10.583   4.707 -1.7921  0.5952  0.3192
  394MOL0     H53175  10.790  10.716   4.901 -0.7749  0.8072  0.3559
  394MOL0     H53176  11.014  10.736   5.213 -0.4372  0.1222 -0.6783
  394MOL0     H53177  11.124  10.927   5.274  0.6888  0.7502  0.5471
  394MOL0     H53178  10.988  11.098   5.646  3.2690 -1.3340 -0.7583
  394MOL0     H53179  10.908  11.226   5.552 -0.5133  0.1127  1.6590
  394MOL0     H53180  11.198  11.229   5.641  0.1159 -0.6183  0.2654
  394MOL0     H53181  11.044  11.310   5.706  0.5299  3.6645 -0.6534
  394MOL0     H53182  11.160  11.354   5.436  0.6317  0.9103 -0.9022
  394MOL0     H53183  11.232  11.437   5.576  2.6621 -1.6077 -1.1190
  394MOL0     H53184  10.943  11.442   5.484 -1.0234  0.1192 -0.9716
  394MOL0     H53185  10.994  11.522   5.637  2.0904 -1.4069  1.9461
  394MOL0     H53186  11.127  11.786   5.318  2.5629 -0.8204  0.3668
  394MOL0     H53187  10.803  11.028   5.550 -0.0918  1.3867 -1.9680
  394MOL0     H53188  10.563  10.860   5.397  1.6060  2.3635 -0.5520
  394MOL0     H53189  10.602  10.735   5.512  1.1859 -0.3369  1.7440
  394MOL0     H53190  10.617  10.896   5.563 -2.0340 -2.0850  0.3469
  395MOL0     O53191   9.564   0.388   0.111  0.0709  0.0590  0.5820
  395MOL0     C53192   9.593   0.342   0.218  0.0472  1.3781  0.2390
  395MOL0     O53193   9.500   0.294   0.309  0.8852  0.6503  0.0775
  395MOL0     C53194   9.365   0.298   0.289  0.3682  0.0167 -0.2546
  395MOL0     C53195   9.294   0.382   0.367  0.3445 -0.4585  0.0083
  395MOL0     C53196   9.163   0.413   0.339  0.3327  0.7081  0.7711
  395MOL0     C53197   9.093   0.353   0.230  0.1548 -0.4551  0.5375
  395MOL0     O53198   8.960   0.376   0.198  0.2880  0.1569 -0.6915
  395MOL0     C53199   8.878   0.449   0.300 -0.5761  0.2349  0.2084
  395MOL0     C53200   8.740   0.480   0.246 -0.0974 -0.1603 -0.3719
  395MOL0     C53201   8.673   0.357   0.201 -0.1923 -0.2647  0.8553
  395MOL0     C53202   8.526   0.350   0.232 -0.1957 -0.5396  1.0056
  395MOL0     C53203   8.459   0.221   0.179 -0.4115 -0.5518 -0.5640
  395MOL0     C53204   8.310   0.240   0.184 -0.8999  0.0155 -0.2863
  395MOL0     C53205   8.249   0.107   0.142 -0.0030  0.3822 -0.3097
  395MOL0     C53206   8.268  -0.006   0.247  0.4779  0.2173 -0.7281
  395MOL0     N53207   8.173  -0.119   0.217  0.2940  0.3019 -0.4871
  395MOL0     C53208   8.037  -0.110   0.212  0.8959 -0.2687 -0.6609
  395MOL0     C53209   7.992  -0.234   0.190  0.0558  0.0046 -0.1995
  395MOL0     C53210   7.842  -0.272   0.183  0.5119  0.7913  0.2220
  395MOL0     C53211   7.784  -0.279   0.328 -0.4573 -0.5587 -0.1978
  395MOL0     C53212   7.660  -0.368   0.320  0.2875 -0.1838 -0.4796
  395MOL0     C53213   7.546  -0.316   0.225 -0.5242  0.7918 -0.1276
  395MOL0     O53214   7.534  -0.170   0.239  0.1825  0.4473 -0.2142
  395MOL0     C53215   7.441  -0.103   0.157 -0.3618 -0.1428  0.3374
  395MOL0     C53216   7.317  -0.151   0.095  0.3723  0.0805 -0.3763
  395MOL0     C53217   7.252  -0.063   0.015 -0.3679  0.0036 -0.4787
  395MOL0     C53218   7.302   0.072  -0.016  0.2466 -0.8869  0.5857
  395MOL0     C53219   7.233   0.160  -0.116 -0.5978 -0.1133  0.9759
  395MOL0     O53220   7.320   0.252  -0.185 -0.2828  0.0257 -0.2161
  395MOL0     C53221   7.257   0.345  -0.261 -0.0878 -0.4625 -0.9190
  395MOL0     C53222   7.220   0.468  -0.199 -0.7224 -0.0691 -0.3908
  395MOL0     C53223   7.155   0.568  -0.281 -0.2563  0.1136 -0.1226
  395MOL0     C53224   7.126   0.545  -0.415  0.8068  0.5281  0.6525
  395MOL0     O53225   7.054   0.636  -0.491  0.2913  0.4545 -0.0286
  395MOL0     C53226   7.002   0.612  -0.626  0.2460 -0.3747  0.2827
  395MOL0     C53227   6.879   0.711  -0.656 -0.3227 -0.5437 -0.3667
  395MOL0     C53228   6.920   0.853  -0.604 -0.6189  0.2193  0.5441
  395MOL0     C53229   6.811   0.949  -0.646  0.0380 -0.8207  0.1426
  395MOL0     C53230   6.850   1.097  -0.640 -0.3564  0.3709 -0.8831
  395MOL0     C53231   6.721   1.183  -0.625 -0.2388 -0.0961 -0.6372
  395MOL0     C53232   6.753   1.324  -0.596  0.7930 -0.0179  0.0126
  395MOL0     C53233   6.639   1.409  -0.559 -0.0594 -0.5006  0.5073
  395MOL0    Cl53234   6.537   1.420  -0.691  0.2742 -0.2156 -0.0916
  395MOL0     C53235   7.161   0.422  -0.468  0.7875  0.7414 -0.5798
  395MOL0     C53236   7.226   0.326  -0.392  0.3727 -0.2975 -0.8324
  395MOL0     O53237   7.114   0.143  -0.145 -0.1638  0.4297 -0.0468
  395MOL0     C53238   7.425   0.110   0.044  0.0072 -0.8369  0.3074
  395MOL0     C53239   7.485   0.018   0.129  0.2951  0.1084  0.7412
  395MOL0     N53240   8.097  -0.315   0.207 -0.2616 -0.1292  1.1561
  395MOL0     N53241   8.207  -0.249   0.224  0.6570  0.5178 -0.2615
  395MOL0     C53242   9.161   0.253   0.160  0.2063  0.2444  0.6991
  395MOL0     C53243   9.300   0.228   0.181 -0.5383 -0.7000 -0.8565
  395MOL0     C53244   9.732   0.353   0.262  0.4208  0.3548 -0.0746
  395MOL0     C53245   9.801   0.233   0.310  0.3235 -1.1190 -0.0900
  395MOL0     C53246   9.935   0.236   0.354 -0.5277 -0.7466  0.0046
  395MOL0     C53247  10.004   0.355   0.352 -0.3763 -0.2106  0.6245
  395MOL0     O53248  10.144   0.348   0.395  0.2149  0.4306 -0.4788
  395MOL0     C53249  10.206   0.472   0.419  0.5468  0.0730 -0.2553
  395MOL0     C53250  10.349   0.432   0.451  0.5148 -0.2925 -0.0689
  395MOL0     C53251  10.358   0.306   0.538  0.2957 -1.1234 -0.3756
  395MOL0     C53252  10.504   0.255   0.572 -1.1814 -0.3309 -0.3007
  395MOL0     C53253  10.584   0.209   0.462  0.1141  0.7722  0.1725
  395MOL0     C53254  10.650   0.171   0.366  0.2189  0.1608 -0.5586
  395MOL0     C53255   9.936   0.475   0.306 -0.3205  0.3125 -0.1920
  395MOL0     C53256   9.804   0.477   0.255 -0.2903 -0.5161 -1.2865
  395MOL0     C53257   9.737   0.607   0.220 -0.6205  0.7545 -0.2575
  395MOL0     H53258   9.338   0.429   0.455  3.0031 -1.4337 -0.7088
  395MOL0     H53259   9.105   0.485   0.395  0.5315  0.2694  1.5531
  395MOL0     H53260   8.881   0.389   0.391  2.0804 -2.1982 -1.2864
  395MOL0     H53261   8.932   0.544   0.310  1.5521 -0.6228 -2.1305
  395MOL0     H53262   8.737   0.545   0.158 -0.1454  2.1659  1.2389
  395MOL0     H53263   8.677   0.517   0.327 -1.6975 -1.1868 -1.1036
  395MOL0     H53264   8.726   0.274   0.249  0.3995 -0.2301  0.2701
  395MOL0     H53265   8.684   0.342   0.094 -1.3503  2.7611  0.2309
  395MOL0     H53266   8.512   0.371   0.339  0.3330  2.7521  0.5414
  395MOL0     H53267   8.482   0.439   0.188  2.7786  1.8820  2.5125
  395MOL0     H53268   8.483   0.198   0.075  1.1626 -1.4108 -0.0567
  395MOL0     H53269   8.500   0.141   0.242 -1.3114 -0.2021  0.4964
  395MOL0     H53270   8.280   0.267   0.286 -0.3072  2.1498 -0.6205
  395MOL0     H53271   8.275   0.324   0.124 -1.3316  0.0814  0.0488
  395MOL0     H53272   8.290   0.082   0.043  0.3686  0.3393 -0.1465
  395MOL0     H53273   8.144   0.136   0.127  0.2046  0.0722 -2.7496
  395MOL0     H53274   8.369  -0.048   0.240  1.7048  2.8857 -0.1818
  395MOL0     H53275   8.257   0.039   0.346  0.5461  0.8601 -1.0076
  395MOL0     H53276   7.971  -0.023   0.219  1.3916  0.0447  0.4744
  395MOL0     H53277   7.781  -0.205   0.121  0.8010 -0.1261 -1.0827
  395MOL0     H53278   7.833  -0.371   0.137 -2.0233  1.0663 -0.0531
  395MOL0     H53279   7.858  -0.316   0.400 -0.3073  3.5673  2.0775
  395MOL0     H53280   7.744  -0.183   0.364  0.8836  0.4511 -1.3013
  395MOL0     H53281   7.609  -0.385   0.415 -0.6481 -3.6737 -1.4695
  395MOL0     H53282   7.693  -0.467   0.286 -2.3951 -0.9650 -1.0436
  395MOL0     H53283   7.452  -0.370   0.238 -0.5560  0.4429 -1.5807
  395MOL0     H53284   7.575  -0.334   0.121 -2.2697 -3.0735 -0.1393
  395MOL0     H53285   7.274  -0.249   0.110  0.7862 -0.5454 -2.9155
  395MOL0     H53286   7.158  -0.093  -0.030 -0.9059  0.1092  0.5485
  395MOL0     H53287   7.252   0.491  -0.098  0.0145  1.1035 -0.8821
  395MOL0     H53288   7.125   0.661  -0.234  3.2215  0.2702  2.1678
  395MOL0     H53289   7.084   0.627  -0.697  1.0168  1.3994  1.4739
  395MOL0     H53290   6.971   0.507  -0.626  3.0615 -1.2766 -0.5006
  395MOL0     H53291   6.860   0.722  -0.763 -2.7173  2.0098  0.2023
  395MOL0     H53292   6.787   0.685  -0.603  0.3112 -3.4975 -0.5262
  395MOL0     H53293   6.930   0.863  -0.496 -0.8021 -2.0471  0.8335
  395MOL0     H53294   7.016   0.878  -0.650 -0.2629  2.2126  2.2464
  395MOL0     H53295   6.720   0.937  -0.587 -0.1171  1.7324  0.5346
  395MOL0     H53296   6.781   0.931  -0.750  1.7144  1.0229 -0.7359
  395MOL0     H53297   6.904   1.124  -0.731  1.0145 -2.7334 -1.0994
  395MOL0     H53298   6.918   1.112  -0.555 -1.4816  1.2250 -0.1072
  395MOL0     H53299   6.659   1.187  -0.714 -0.9083  2.6389 -0.1428
  395MOL0     H53300   6.663   1.145  -0.540  0.5927 -1.8299 -0.7862
  395MOL0     H53301   6.802   1.369  -0.683 -0.1008 -2.0598 -1.6014
  395MOL0     H53302   6.817   1.329  -0.507  0.9616  0.0775 -0.1123
  395MOL0     H53303   6.583   1.363  -0.477 -0.3514  0.4824  0.8687
  395MOL0     H53304   6.673   1.507  -0.523 -0.1521 -0.4724  0.5172
  395MOL0     H53305   7.129   0.386  -0.566 -0.9218 -1.6547  0.7658
  395MOL0     H53306   7.252   0.233  -0.442  2.7950  1.1161 -2.3851
  395MOL0     H53307   7.463   0.211   0.031 -1.5914 -0.3597 -0.9268
  395MOL0     H53308   7.580   0.040   0.178 -0.4887  0.3606  2.2233
  395MOL0     H53309   9.097   0.200   0.091 -0.5361  2.2350 -0.2023
  395MOL0     H53310   9.355   0.158   0.119  2.1172 -1.4310  2.0849
  395MOL0     H53311   9.739   0.144   0.301  1.2507 -1.6101 -2.4049
  395MOL0     H53312   9.992   0.150   0.390  0.5921  1.4316  4.0618
  395MOL0     H53313  10.169   0.521   0.509  3.8889  0.8727  0.8341
  395MOL0     H53314  10.197   0.539   0.333 -2.1953 -0.8384 -0.7965
  395MOL0     H53315  10.390   0.519   0.503  2.6417 -3.5138  4.2823
  395MOL0     H53316  10.397   0.409   0.355  1.3368 -0.7419  0.4361
  395MOL0     H53317  10.305   0.225   0.488 -0.8356  2.2879 -5.4806
  395MOL0     H53318  10.302   0.332   0.629  2.8959 -0.6013  1.1715
  395MOL0     H53319  10.567   0.326   0.628  1.6866 -2.8076 -0.1087
  395MOL0     H53320  10.497   0.169   0.639  0.5326 -1.6882 -1.7666
  395MOL0     H53321  10.707   0.141   0.281 -0.6082  2.2716 -1.9581
  395MOL0     H53322   9.991   0.568   0.300  0.6135  0.1232  3.2811
  395MOL0     H53323   9.706   0.602   0.115 -0.3461 -0.4015 -0.2972
  395MOL0     H53324   9.647   0.614   0.282 -0.2256  1.6467  0.2314
  395MOL0     H53325   9.806   0.691   0.236  2.0293 -1.2497 -0.3650
  396MOL0     O53326   5.586   4.190   5.304  0.0726 -0.9824  0.0196
  396MOL0     C53327   5.639   4.235   5.199 -0.1924 -0.8003  0.6912
  396MOL0     O53328   5.746   4.328   5.196  0.3429  0.2362  0.8913
  396MOL0     C53329   5.829   4.357   5.302  0.3412  0.2786  0.0201
  396MOL0     C53330   5.909   4.474   5.283 -0.2653 -0.1913 -0.1597
  396MOL0     C53331   5.972   4.528   5.394  1.0910 -0.0227  0.7926
  396MOL0     C53332   5.989   4.454   5.517 -0.4594  0.2937 -0.1458
  396MOL0     O53333   6.061   4.519   5.619  0.1337 -0.3753 -0.2850
  396MOL0     C53334   6.072   4.444   5.744  0.1161 -0.1361  0.5115
  396MOL0     C53335   6.188   4.337   5.736  0.4190  0.7880 -0.3024
  396MOL0     C53336   6.273   4.319   5.862  0.4221 -0.5285  1.1730
  396MOL0     C53337   6.380   4.425   5.889  0.3290  0.3378 -0.2210
  396MOL0     C53338   6.418   4.409   6.032 -0.3335  0.8632  0.1371
  396MOL0     C53339   6.482   4.541   6.075 -0.0280  0.2863  0.7411
  396MOL0     C53340   6.506   4.549   6.230  0.9529  1.3914  1.1121
  396MOL0     C53341   6.557   4.680   6.275  0.6351  0.6484 -0.6589
  396MOL0     N53342   6.697   4.699   6.234 -0.1418 -0.3325 -0.5314
  396MOL0     C53343   6.747   4.800   6.145 -0.1871  0.4850  0.3894
  396MOL0     C53344   6.879   4.765   6.150 -0.0747  0.3225 -0.1843
  396MOL0     C53345   6.987   4.848   6.077 -0.3946 -0.0402 -0.0796
  396MOL0     C53346   6.956   4.834   5.919 -0.8147 -0.8038  0.0182
  396MOL0     C53347   7.056   4.889   5.828 -0.4681 -0.1205 -0.5071
  396MOL0     C53348   7.000   4.958   5.704 -0.3150 -0.5551 -0.2865
  396MOL0     O53349   7.098   5.009   5.620 -0.4827 -0.5403 -0.7341
  396MOL0     C53350   7.065   5.082   5.511 -0.1729  0.4244 -0.4620
  396MOL0     C53351   6.946   5.079   5.437  0.4240  0.3112 -0.5939
  396MOL0     C53352   6.914   5.147   5.319  0.2890  0.2450  0.8406
  396MOL0     C53353   7.013   5.228   5.259 -0.0366  1.8788 -0.9757
  396MOL0     C53354   6.981   5.310   5.135  0.3492 -0.2666 -0.1465
  396MOL0     O53355   6.859   5.280   5.071  0.4657  0.6299  0.4753
  396MOL0     C53356   6.816   5.342   4.955 -0.2328 -0.0778 -0.3508
  396MOL0     C53357   6.706   5.424   4.953 -0.5454 -1.0269  0.1923
  396MOL0     C53358   6.654   5.478   4.840  0.0230 -0.5699 -0.9430
  396MOL0     C53359   6.719   5.461   4.715 -0.4970  0.8727  0.2253
  396MOL0     O53360   6.677   5.515   4.599  0.2761  0.7508  0.6344
  396MOL0     C53361   6.533   5.555   4.580 -1.2583  1.5018 -0.0686
  396MOL0     C53362   6.457   5.470   4.473 -0.3516  0.4177 -0.5929
  396MOL0     C53363   6.313   5.523   4.469  0.4157 -0.1124 -0.0277
  396MOL0     C53364   6.227   5.468   4.351  0.3931  0.0640  0.4061
  396MOL0     C53365   6.218   5.309   4.346 -0.1324  0.4218 -0.2456
  396MOL0     C53366   6.140   5.249   4.463  0.5479  0.2351  0.1197
  396MOL0     C53367   6.163   5.100   4.462  0.7321  0.0823  0.4150
  396MOL0     C53368   6.070   5.028   4.557 -0.7440  0.0960  0.0587
  396MOL0    Cl53369   6.075   5.072   4.728  0.4053  0.1730  0.3714
  396MOL0     C53370   6.825   5.376   4.712  0.4921 -0.7810  0.1766
  396MOL0     C53371   6.870   5.312   4.829  0.5725  0.2364 -0.0578
  396MOL0     O53372   7.053   5.407   5.119  0.4259 -0.8253 -0.1031
  396MOL0     C53373   7.141   5.222   5.318 -0.5188 -0.1102 -0.4444
  396MOL0     C53374   7.159   5.161   5.445  0.2989  0.1971 -0.3661
  396MOL0     N53375   6.913   4.680   6.252  0.1006  0.0853 -0.0754
  396MOL0     N53376   6.800   4.639   6.305  0.1483  0.1862 -0.3239
  396MOL0     C53377   5.932   4.321   5.523  0.7399  0.0259  0.4194
  396MOL0     C53378   5.849   4.281   5.420 -0.0270  0.0548  0.9200
  396MOL0     C53379   5.566   4.201   5.070  0.1930  0.1843  0.1477
  396MOL0     C53380   5.465   4.106   5.073 -0.0508  0.4393  0.3984
  396MOL0     C53381   5.391   4.076   4.958 -0.5051  0.7792  0.1481
  396MOL0     C53382   5.406   4.143   4.834 -0.4416  0.7202  0.1003
  396MOL0     O53383   5.334   4.122   4.719 -0.1122 -0.9755 -1.3111
  396MOL0     C53384   5.334   3.988   4.666  0.5181 -0.0888 -0.1849
  396MOL0     C53385   5.199   3.953   4.604  0.0847  0.2432  0.6752
  396MOL0     C53386   5.151   4.071   4.514  0.1867 -0.0092  0.0103
  396MOL0     C53387   5.030   4.032   4.432  0.0453 -0.3840  0.0724
  396MOL0     C53388   5.059   3.935   4.328  1.0207  0.6301  1.0191
  396MOL0     C53389   5.080   3.846   4.241 -0.2281 -0.8477  0.4931
  396MOL0     C53390   5.506   4.233   4.830  0.2943  0.0737  0.1081
  396MOL0     C53391   5.583   4.264   4.942  0.2612 -0.8778 -0.1935
  396MOL0     C53392   5.676   4.386   4.917  0.9840 -0.5995 -0.0027
  396MOL0     H53393   5.909   4.538   5.196 -1.6540  0.7530  0.4885
  396MOL0     H53394   6.017   4.627   5.399  1.2051 -0.1173  2.5324
  396MOL0     H53395   6.093   4.511   5.828  0.5824  1.0308 -0.4915
  396MOL0     H53396   5.982   4.388   5.770  0.7195 -0.9782  0.8322
  396MOL0     H53397   6.255   4.366   5.654 -1.2228  1.9798 -1.2745
  396MOL0     H53398   6.143   4.240   5.715 -0.5347  0.2771  3.3912
  396MOL0     H53399   6.320   4.221   5.848 -1.9834 -1.5182 -0.7261
  396MOL0     H53400   6.199   4.307   5.942 -2.7101 -1.6611 -1.6748
  396MOL0     H53401   6.465   4.415   5.820  1.1685  2.1363  0.4778
  396MOL0     H53402   6.348   4.529   5.872  0.2737  0.6390  1.6003
  396MOL0     H53403   6.323   4.402   6.086 -0.7631  0.6111 -0.6381
  396MOL0     H53404   6.492   4.329   6.037  1.6688  2.1509 -4.1502
  396MOL0     H53405   6.575   4.559   6.020 -1.0341 -0.6320 -1.3778
  396MOL0     H53406   6.407   4.613   6.043  0.6833  0.3752 -0.8156
  396MOL0     H53407   6.571   4.467   6.263 -0.3388  1.1941  3.3258
  396MOL0     H53408   6.405   4.534   6.269  0.2290  1.7643 -0.5194
  396MOL0     H53409   6.495   4.758   6.228  0.1220  1.5122  1.3055
  396MOL0     H53410   6.543   4.697   6.383  4.3469 -2.2979  0.4953
  396MOL0     H53411   6.691   4.867   6.081 -1.2258 -0.3478  0.4129
  396MOL0     H53412   6.992   4.953   6.106  1.5400  0.5016 -2.1117
  396MOL0     H53413   7.081   4.803   6.108 -0.5969 -2.0783 -2.2040
  396MOL0     H53414   6.924   4.736   5.882 -2.8070  0.1254 -0.8855
  396MOL0     H53415   6.864   4.892   5.906 -0.2883 -0.1294 -0.8024
  396MOL0     H53416   7.119   4.808   5.791  0.5558  0.8058 -0.8261
  396MOL0     H53417   7.118   4.953   5.891 -2.3168  0.5530  0.7011
  396MOL0     H53418   6.928   5.038   5.725  1.1387  0.2473  2.0332
  396MOL0     H53419   6.947   4.883   5.644 -1.7824 -0.5896  1.0073
  396MOL0     H53420   6.869   5.023   5.489  2.0562  0.9211  2.7432
  396MOL0     H53421   6.819   5.129   5.270  1.1996 -0.0463 -0.8921
  396MOL0     H53422   6.664   5.458   5.048  0.3202  3.4443 -0.7997
  396MOL0     H53423   6.561   5.533   4.851  0.8957  0.8412 -0.4064
  396MOL0     H53424   6.474   5.542   4.671 -0.4212 -0.6142  0.2136
  396MOL0     H53425   6.529   5.657   4.539 -0.4717  1.0213 -1.3745
  396MOL0     H53426   6.508   5.484   4.377 -0.6616 -0.0239 -0.8221
  396MOL0     H53427   6.452   5.367   4.507 -0.6511  0.7188  0.3142
  396MOL0     H53428   6.272   5.506   4.569 -1.2248  2.7094 -0.1189
  396MOL0     H53429   6.318   5.633   4.465  0.4949 -0.0182  1.9609
  396MOL0     H53430   6.281   5.506   4.263  0.6194 -0.4540  0.3131
  396MOL0     H53431   6.127   5.510   4.353 -0.7561 -2.3549 -0.9819
  396MOL0     H53432   6.321   5.276   4.358 -0.2635  0.1322  0.1023
  396MOL0     H53433   6.181   5.265   4.252  0.6215 -1.0371  0.1029
  396MOL0     H53434   6.168   5.293   4.560  0.7984 -2.9556  1.6247
  396MOL0     H53435   6.033   5.268   4.454  0.1529 -0.7363  2.1302
  396MOL0     H53436   6.265   5.076   4.494  1.1799  0.1386 -0.8958
  396MOL0     H53437   6.154   5.063   4.359  1.7310  6.2696 -2.3878
  396MOL0     H53438   5.971   5.047   4.513 -1.0122 -0.5394  0.3799
  396MOL0     H53439   6.098   4.922   4.554  2.9762  0.9281 -3.0816
  396MOL0     H53440   6.862   5.349   4.614 -1.0352 -1.1390 -0.3225
  396MOL0     H53441   6.947   5.235   4.825 -1.1783 -1.8158  2.2299
  396MOL0     H53442   7.229   5.266   5.272  0.2616 -0.0586  1.0447
  396MOL0     H53443   7.260   5.178   5.480  1.1014 -1.1577 -1.8746
  396MOL0     H53444   5.928   4.262   5.614 -2.1606 -0.3537  0.1501
  396MOL0     H53445   5.788   4.192   5.431 -1.7167  0.9013 -0.9052
  396MOL0     H53446   5.433   4.046   5.158  0.2175 -0.0328  0.1684
  396MOL0     H53447   5.315   3.999   4.971  1.0632 -1.0035 -0.7907
  396MOL0     H53448   5.350   3.897   4.724 -1.4223 -0.5232 -0.2786
  396MOL0     H53449   5.401   3.994   4.579 -1.0745 -2.1241 -1.6540
  396MOL0     H53450   5.134   3.926   4.687  2.5234  0.1479  2.6720
  396MOL0     H53451   5.215   3.869   4.535 -0.0606  0.2545  0.6266
  396MOL0     H53452   5.232   4.102   4.449  0.5890 -2.0830 -0.5349
  396MOL0     H53453   5.119   4.155   4.577 -2.4499  2.0490 -3.6857
  396MOL0     H53454   4.961   3.986   4.503  4.2908 -0.1345  4.9445
  396MOL0     H53455   4.988   4.119   4.381  0.4174 -2.3269 -3.9216
  396MOL0     H53456   5.104   3.768   4.172  3.3937 -0.0627  0.6829
  396MOL0     H53457   5.512   4.304   4.748 -0.0995  1.6185  1.3590
  396MOL0     H53458   5.688   4.400   4.809 -0.0230 -0.0090 -0.0475
  396MOL0     H53459   5.627   4.479   4.949  0.3947 -0.4017 -1.4074
  396MOL0     H53460   5.778   4.379   4.958  1.2061  1.4395 -0.0640
  397MOL0     O53461  11.008   2.089   7.062  0.8432  0.1471 -0.2408
  397MOL0     C53462  11.033   2.045   6.951 -0.3864 -0.1995 -0.2827
  397MOL0     O53463  11.156   2.033   6.900 -0.5185 -0.1456  0.1544
  397MOL0     C53464  11.270   2.081   6.972 -0.4285  0.0030 -0.5851
  397MOL0     C53465  11.278   2.074   7.111 -0.0205 -0.5104 -0.6503
  397MOL0     C53466  11.409   2.100   7.168  0.1378  0.0347 -0.5865
  397MOL0     C53467  11.511   2.145   7.094  0.6389 -1.2481 -0.7573
  397MOL0     O53468  11.619   2.182   7.170  0.8087  0.5619 -0.1598
  397MOL0     C53469  11.731   2.248   7.119 -0.3634 -0.9566  0.6642
  397MOL0     C53470  11.837   2.147   7.076  0.3792  0.7358  0.2263
  397MOL0     C53471  11.975   2.197   7.016  0.3222 -0.4385  0.5857
  397MOL0     C53472  11.950   2.293   6.896 -0.1976  0.0851  0.3397
  397MOL0     C53473  12.070   2.303   6.802 -0.1514  0.6647 -0.1227
  397MOL0     C53474  12.104   2.184   6.713 -0.4043  0.7728  0.3705
  397MOL0     C53475  12.014   2.167   6.592 -0.9836  0.0713 -0.4149
  397MOL0     C53476  12.036   2.273   6.479  1.3808 -0.7656 -0.5527
  397MOL0     N53477  11.938   2.303   6.379 -0.7163  0.4956  0.2414
  397MOL0     C53478  11.923   2.427   6.323  0.7367 -0.1537  0.9018
  397MOL0     C53479  11.824   2.407   6.229  1.3540 -0.1999  0.4024
  397MOL0     C53480  11.763   2.522   6.147 -0.4096  0.0476 -0.2364
  397MOL0     C53481  11.801   2.495   5.997 -0.5384 -0.8302 -0.5909
  397MOL0     C53482  11.778   2.613   5.901  0.1850  0.2379 -0.2085
  397MOL0     C53483  11.807   2.576   5.754  0.3789 -0.7206 -0.5708
  397MOL0     O53484  11.737   2.654   5.652  0.9102  0.4197 -0.4276
  397MOL0     C53485  11.598   2.666   5.651  0.3320 -0.4065  0.0871
  397MOL0     C53486  11.509   2.578   5.716  0.9036  0.3747 -0.1580
  397MOL0     C53487  11.381   2.590   5.706  0.5434 -0.3997  0.4311
  397MOL0     C53488  11.323   2.689   5.634  0.2853 -0.1817  1.5291
  397MOL0     C53489  11.173   2.682   5.606 -1.2136  0.0986  0.2444
  397MOL0     O53490  11.107   2.617   5.705  0.1374  0.4060 -0.2785
  397MOL0     C53491  10.967   2.640   5.713  0.3386  0.6513 -0.6409
  397MOL0     C53492  10.885   2.548   5.653  0.5910  0.1609 -0.2823
  397MOL0     C53493  10.747   2.577   5.654  0.2958 -0.1748 -0.0494
  397MOL0     C53494  10.689   2.683   5.725 -0.2044  0.4114 -0.0072
  397MOL0     O53495  10.557   2.718   5.700 -0.5574  1.0233  0.9746
  397MOL0     C53496  10.464   2.625   5.645  0.4495 -0.6878  0.5189
  397MOL0     C53497  10.340   2.691   5.597  0.7103 -0.3674 -0.3711
  397MOL0     C53498  10.264   2.611   5.490 -0.2144  0.0953 -0.9457
  397MOL0     C53499  10.121   2.671   5.458 -0.2194  0.1039 -0.0877
  397MOL0     C53500  10.068   2.598   5.329  0.1202  0.5543  0.3250
  397MOL0     C53501   9.918   2.598   5.302 -0.1793 -0.4973 -0.6842
  397MOL0     C53502   9.880   2.742   5.257  0.4796 -0.1955 -1.4403
  397MOL0     C53503   9.725   2.745   5.224 -1.1207 -0.0548  0.0410
  397MOL0    Cl53504   9.679   2.638   5.075 -0.2232 -0.0178  0.3339
  397MOL0     C53505  10.775   2.771   5.791 -0.0722 -0.1863 -0.0838
  397MOL0     C53506  10.916   2.753   5.780  0.1975 -0.4417 -0.8285
  397MOL0     O53507  11.125   2.740   5.503  0.8639  0.8167  0.2232
  397MOL0     C53508  11.401   2.781   5.570 -0.6207  0.5887 -1.0155
  397MOL0     C53509  11.539   2.771   5.579 -0.0164  0.2223  0.3759
  397MOL0     N53510  11.774   2.278   6.232  0.9525  0.1669  0.2173
  397MOL0     N53511  11.847   2.221   6.327 -0.4084  0.7598 -0.6144
  397MOL0     C53512  11.503   2.140   6.951 -1.1008 -0.6859 -1.0232
  397MOL0     C53513  11.386   2.108   6.895  0.1352  0.2789  0.9089
  397MOL0     C53514  10.917   1.975   6.873 -0.7514 -0.2807 -0.4558
  397MOL0     C53515  10.943   1.954   6.730 -0.5794 -0.0209 -0.4312
  397MOL0     C53516  10.844   1.892   6.649  0.3721 -0.6728 -0.2042
  397MOL0     C53517  10.715   1.861   6.688 -0.1005 -0.1718 -0.2083
  397MOL0     O53518  10.629   1.819   6.594  1.0087  0.0158  0.3411
  397MOL0     C53519  10.510   1.746   6.643 -0.0420 -0.4183  0.3910
  397MOL0     C53520  10.407   1.722   6.532  0.0591  0.4485  0.9654
  397MOL0     C53521  10.446   1.642   6.408  0.7737  0.2757 -0.3182
  397MOL0     C53522  10.326   1.641   6.312  0.1989  0.7428 -0.4429
  397MOL0     C53523  10.368   1.646   6.173  0.0942  0.7281 -0.2829
  397MOL0     C53524  10.422   1.632   6.065  0.2500  0.0859  1.1434
  397MOL0     C53525  10.699   1.870   6.830 -0.6611  0.8639  0.3466
  397MOL0     C53526  10.794   1.923   6.923 -0.2113 -0.1088 -0.0577
  397MOL0     C53527  10.760   1.932   7.068  0.7325 -0.3597 -0.0925
  397MOL0     H53528  11.198   2.043   7.178 -2.8114  2.1229 -2.4881
  397MOL0     H53529  11.416   2.096   7.276 -2.6364 -0.2918 -0.3422
  397MOL0     H53530  11.705   2.314   7.036  3.6116  0.2191  0.1546
  397MOL0     H53531  11.773   2.311   7.199 -3.1667 -1.1806  2.4601
  397MOL0     H53532  11.791   2.084   6.999  0.9366  2.7929 -1.8714
  397MOL0     H53533  11.870   2.106   7.172  0.3504  3.3874  1.4603
  397MOL0     H53534  12.040   2.114   6.986  2.5966  0.7145  2.1238
  397MOL0     H53535  12.036   2.232   7.099  1.3696 -1.6982  0.3797
  397MOL0     H53536  11.867   2.254   6.836  0.9446  0.1182 -1.3357
  397MOL0     H53537  11.931   2.395   6.930  2.8849  0.7247  0.4607
  397MOL0     H53538  12.061   2.393   6.741  1.2951  1.0796  0.2342
  397MOL0     H53539  12.154   2.320   6.871  1.2212 -1.4868 -1.1458
  397MOL0     H53540  12.197   2.208   6.660 -0.8597  0.6553 -0.4972
  397MOL0     H53541  12.115   2.094   6.773 -2.8356  0.3472  0.2937
  397MOL0     H53542  11.910   2.168   6.626 -1.2730 -0.7201 -1.2365
  397MOL0     H53543  12.035   2.068   6.551 -0.9966 -0.3904  0.6691
  397MOL0     H53544  12.057   2.364   6.536 -3.6450  0.2433  0.1627
  397MOL0     H53545  12.122   2.243   6.419  1.4721  2.1939 -2.0700
  397MOL0     H53546  11.964   2.526   6.340 -2.7861  1.6660 -0.1601
  397MOL0     H53547  11.654   2.514   6.158 -0.5654 -2.5575 -2.4154
  397MOL0     H53548  11.799   2.619   6.182  0.3799  0.7505 -2.8335
  397MOL0     H53549  11.907   2.470   5.987 -0.5613 -0.7211 -1.1659
  397MOL0     H53550  11.740   2.412   5.962  0.5958 -1.0949 -2.0404
  397MOL0     H53551  11.851   2.687   5.934 -0.4240  1.6260 -1.8244
  397MOL0     H53552  11.676   2.647   5.919 -0.7185 -1.6122 -1.4634
  397MOL0     H53553  11.788   2.472   5.726  5.7960 -3.2265  3.2389
  397MOL0     H53554  11.914   2.589   5.735  1.0705  0.8724  3.3430
  397MOL0     H53555  11.542   2.497   5.780 -0.3686  1.9036  2.5976
  397MOL0     H53556  11.316   2.509   5.738  0.6521 -0.3957  0.6691
  397MOL0     H53557  10.928   2.465   5.598 -1.1339 -0.2555 -1.0749
  397MOL0     H53558  10.689   2.505   5.599  1.1148 -1.6509  0.9487
  397MOL0     H53559  10.505   2.586   5.551  0.9802 -1.8312  1.2115
  397MOL0     H53560  10.434   2.553   5.721 -1.6408  1.5390  1.9494
  397MOL0     H53561  10.283   2.705   5.689  1.8710  0.3981  0.2568
  397MOL0     H53562  10.373   2.788   5.558  1.3028  0.4987  2.1507
  397MOL0     H53563  10.322   2.609   5.398 -0.4428  0.2992 -1.0954
  397MOL0     H53564  10.252   2.511   5.533 -1.1904  1.5440  2.5080
  397MOL0     H53565  10.114   2.776   5.432 -2.6061 -0.2405 -1.0460
  397MOL0     H53566  10.055   2.651   5.543 -1.2776  5.5607  0.7389
  397MOL0     H53567  10.096   2.494   5.348  0.4577  0.3589 -1.0974
  397MOL0     H53568  10.115   2.620   5.233 -0.8571 -1.0581 -0.5733
  397MOL0     H53569   9.891   2.527   5.224 -5.1445  1.0729 -0.7305
  397MOL0     H53570   9.873   2.564   5.396 -1.3082  0.3600 -0.8958
  397MOL0     H53571   9.944   2.767   5.173 -0.5726  1.1285 -1.8942
  397MOL0     H53572   9.893   2.810   5.342  0.2478 -3.3804  1.4051
  397MOL0     H53573   9.669   2.707   5.311 -0.9958 -1.7544 -0.5853
  397MOL0     H53574   9.693   2.847   5.197 -1.2734 -0.5164 -1.6357
  397MOL0     H53575  10.729   2.856   5.840  1.2799  0.6531 -0.2127
  397MOL0     H53576  10.988   2.821   5.823  1.1361 -1.1936 -1.1678
  397MOL0     H53577  11.343   2.855   5.516 -3.5937 -0.8241  0.0459
  397MOL0     H53578  11.609   2.832   5.524  1.2606  0.8709  2.5694
  397MOL0     H53579  11.593   2.154   6.891 -0.1398 -1.2088  0.2542
  397MOL0     H53580  11.377   2.108   6.787  0.7154 -0.3824  0.8557
  397MOL0     H53581  11.042   1.984   6.696  0.2593 -0.2444  1.6510
  397MOL0     H53582  10.855   1.874   6.542 -2.7289  0.9648 -0.9289
  397MOL0     H53583  10.461   1.808   6.719 -0.6339 -2.1532  1.4716
  397MOL0     H53584  10.545   1.649   6.681 -1.4829 -1.4068 -0.6899
  397MOL0     H53585  10.368   1.821   6.505 -0.9556 -0.1391  0.1948
  397MOL0     H53586  10.322   1.670   6.577  0.0952  1.7164  2.5636
  397MOL0     H53587  10.474   1.539   6.436  0.2062 -0.0360 -0.8746
  397MOL0     H53588  10.520   1.698   6.352  2.4524 -1.3155  0.1969
  397MOL0     H53589  10.289   1.538   6.315  1.6378  0.2068 -0.1589
  397MOL0     H53590  10.249   1.711   6.345  0.1843 -0.0580  1.3581
  397MOL0     H53591  10.444   1.640   5.960 -2.7661  1.6363  0.5178
  397MOL0     H53592  10.611   1.824   6.875 -0.3448 -1.1067 -0.9194
  397MOL0     H53593  10.663   1.888   7.095  0.9494 -1.0123 -0.3681
  397MOL0     H53594  10.827   1.871   7.128  3.0703  2.0108 -0.1122
  397MOL0     H53595  10.770   2.038   7.095 -2.2720  0.0703 -0.2805
  398MOL0     O53596   2.889   6.494  10.893  0.5612 -0.2790  0.3375
  398MOL0     C53597   2.767   6.481  10.924 -0.1349 -0.2710 -0.4265
  398MOL0     O53598   2.665   6.496  10.831 -0.9798  0.0472 -0.1010
  398MOL0     C53599   2.701   6.527  10.698 -0.4652 -0.0679 -0.5963
  398MOL0     C53600   2.735   6.426  10.603  0.0087 -0.3042 -0.5454
  398MOL0     C53601   2.749   6.456  10.464 -0.6275  0.7170 -0.5716
  398MOL0     C53602   2.731   6.590  10.424  0.0752  0.9096 -0.0917
  398MOL0     O53603   2.733   6.634  10.293  0.0054 -0.5277 -0.7534
  398MOL0     C53604   2.725   6.533  10.184 -0.0089 -0.3468  0.5660
  398MOL0     C53605   2.701   6.604  10.050 -0.2304 -0.8009 -0.6379
  398MOL0     C53606   2.574   6.687  10.047 -0.4792  0.3940  0.2733
  398MOL0     C53607   2.514   6.746   9.921 -0.2741 -0.2615  1.1243
  398MOL0     C53608   2.406   6.849   9.955 -0.1994  0.4908 -0.9508
  398MOL0     C53609   2.288   6.784  10.030  0.6397  0.3547 -0.0488
  398MOL0     C53610   2.153   6.854  10.043 -0.3367  0.1202  0.2229
  398MOL0     C53611   2.097   6.871   9.900  0.1758 -0.5002  0.5553
  398MOL0     N53612   1.969   6.942   9.899 -0.5495 -0.0606  0.2134
  398MOL0     C53613   1.947   7.069   9.956 -0.8612  0.7039  0.2156
  398MOL0     C53614   1.822   7.100   9.923 -0.0558 -1.1293 -0.6835
  398MOL0     C53615   1.765   7.237   9.951  0.0372 -0.1020  0.9113
  398MOL0     C53616   1.689   7.306   9.839  0.2123 -0.0896 -0.2847
  398MOL0     C53617   1.763   7.357   9.730  0.0716 -0.1811  0.8367
  398MOL0     C53618   1.855   7.478   9.765  0.5189  1.0214 -1.1037
  398MOL0     O53619   1.972   7.444   9.841 -0.3820  0.0883  0.3461
  398MOL0     C53620   2.069   7.535   9.867  0.7148  0.5633 -0.3132
  398MOL0     C53621   2.087   7.663   9.812 -0.0845  0.3387  1.1235
  398MOL0     C53622   2.206   7.736   9.829  0.1238 -0.7962 -0.2340
  398MOL0     C53623   2.297   7.699   9.932  0.4665  0.3749  0.3258
  398MOL0     C53624   2.426   7.768   9.952  0.5207  0.9957 -0.3573
  398MOL0     O53625   2.452   7.887   9.892  0.3960 -0.5408  0.0013
  398MOL0     C53626   2.524   7.982   9.967  0.1165  0.4702  0.3202
  398MOL0     C53627   2.456   8.098  10.004 -0.3959 -0.4976  0.6147
  398MOL0     C53628   2.520   8.205  10.076 -0.2599  0.4274  0.3851
  398MOL0     C53629   2.651   8.183  10.122 -0.3512  0.2445  0.0486
  398MOL0     O53630   2.719   8.293  10.172 -0.4085 -0.5813  0.7030
  398MOL0     C53631   2.831   8.262  10.261 -0.1694  0.0170 -0.2177
  398MOL0     C53632   2.880   8.388  10.336 -0.2624  0.3873  0.6193
  398MOL0     C53633   3.020   8.359  10.397 -0.7386 -0.6476  0.2468
  398MOL0     C53634   3.095   8.479  10.455  1.1258  0.5218 -0.2602
  398MOL0     C53635   3.212   8.438  10.552 -0.6480  0.2671 -0.5855
  398MOL0     C53636   3.167   8.358  10.672  0.2999 -0.3051  0.9861
  398MOL0     C53637   3.262   8.373  10.793 -0.7201 -0.4670 -0.0916
  398MOL0     C53638   3.219   8.315  10.921 -0.5964 -0.3558 -0.7493
  398MOL0    Cl53639   3.046   8.302  10.929 -0.2160  0.4642  0.3490
  398MOL0     C53640   2.712   8.064  10.089  0.2706 -0.0229 -0.7824
  398MOL0     C53641   2.653   7.966  10.014  0.6089  0.6846  1.1120
  398MOL0     O53642   2.498   7.709  10.034 -0.7353 -0.5020  0.7278
  398MOL0     C53643   2.277   7.570   9.989  0.3229  1.1050  0.5784
  398MOL0     C53644   2.167   7.489   9.945  0.5118  0.6363 -0.2917
  398MOL0     N53645   1.769   6.985   9.855 -0.1426  0.8180  0.1033
  398MOL0     N53646   1.853   6.892   9.843 -0.1890 -0.2351 -0.3883
  398MOL0     C53647   2.696   6.686  10.525 -1.8353 -0.2200  0.8792
  398MOL0     C53648   2.672   6.657  10.655  0.4340  0.8509 -0.1581
  398MOL0     C53649   2.740   6.437  11.066 -0.6149  0.6336  0.8498
  398MOL0     C53650   2.616   6.368  11.086 -0.3045 -0.0766 -0.4446
  398MOL0     C53651   2.570   6.332  11.210 -0.0844 -0.3076 -0.5611
  398MOL0     C53652   2.641   6.374  11.322  0.6058 -0.1406 -0.8995
  398MOL0     O53653   2.577   6.342  11.437  0.0974  0.5100  0.2921
  398MOL0     C53654   2.666   6.307  11.551  0.9109 -0.1930  0.1033
  398MOL0     C53655   2.588   6.272  11.672  0.2333  0.0783  0.0793
  398MOL0     C53656   2.470   6.359  11.706 -0.3105  0.3448 -0.5938
  398MOL0     C53657   2.453   6.389  11.856 -0.3580  0.6814 -0.8932
  398MOL0     C53658   2.325   6.452  11.884 -0.0523  0.0588 -0.3829
  398MOL0     C53659   2.213   6.497  11.908  0.6727 -0.7857  0.1379
  398MOL0     C53660   2.760   6.444  11.308  0.2244 -0.9843 -0.2702
  398MOL0     C53661   2.815   6.476  11.183  0.7270 -0.0244  1.5909
  398MOL0     C53662   2.949   6.545  11.166 -0.0740 -0.2244 -0.1375
  398MOL0     H53663   2.744   6.322  10.633  0.8157 -0.6174 -1.7815
  398MOL0     H53664   2.790   6.384  10.394  0.4533  1.4292 -0.6824
  398MOL0     H53665   2.816   6.474  10.176 -0.0287 -1.0072  3.8452
  398MOL0     H53666   2.637   6.468  10.193  0.2293 -0.6107  1.0317
  398MOL0     H53667   2.703   6.527   9.972  0.0925  0.1723 -1.6048
  398MOL0     H53668   2.787   6.671  10.038 -1.8569  1.0344 -2.9389
  398MOL0     H53669   2.580   6.759  10.129 -3.3397  2.1962 -0.9407
  398MOL0     H53670   2.509   6.605  10.081  1.8756 -1.5499  0.3373
  398MOL0     H53671   2.601   6.777   9.862 -0.9423 -2.8956 -1.4818
  398MOL0     H53672   2.467   6.668   9.860 -2.1423  0.8522  1.0566
  398MOL0     H53673   2.439   6.938  10.010  2.7836  1.5709 -4.0823
  398MOL0     H53674   2.370   6.887   9.859 -0.7956  0.2241 -0.8301
  398MOL0     H53675   2.268   6.691   9.977 -0.8932  0.7847 -0.2764
  398MOL0     H53676   2.332   6.766  10.128  2.1617  0.1267 -0.7562
  398MOL0     H53677   2.172   6.954  10.082 -1.2593  0.3778  0.0312
  398MOL0     H53678   2.080   6.801  10.105 -0.7112 -0.3910 -0.6382
  398MOL0     H53679   2.170   6.927   9.841  1.0258 -1.6882  0.4525
  398MOL0     H53680   2.081   6.770   9.861 -0.9807 -0.8872  1.9421
  398MOL0     H53681   2.022   7.114  10.020  3.1234 -3.7893 -0.7661
  398MOL0     H53682   1.691   7.213  10.028 -1.1114 -1.1259 -0.4561
  398MOL0     H53683   1.832   7.309   9.999 -1.4147  3.7310 -2.2291
  398MOL0     H53684   1.612   7.240   9.797  0.0555 -0.4962  0.6166
  398MOL0     H53685   1.636   7.393   9.880  2.8299  2.3762 -1.7327
  398MOL0     H53686   1.704   7.397   9.647 -1.9584  1.4313  2.9377
  398MOL0     H53687   1.828   7.277   9.693 -2.9867 -3.0153  1.0700
  398MOL0     H53688   1.794   7.557   9.809 -0.7324  0.1874 -1.2872
  398MOL0     H53689   1.887   7.528   9.673 -1.7925  0.4216 -2.3070
  398MOL0     H53690   2.008   7.704   9.751 -1.5322 -2.3482  1.0758
  398MOL0     H53691   2.227   7.822   9.767  0.3120 -0.6152  0.0729
  398MOL0     H53692   2.358   8.105   9.957 -0.0273 -0.9642 -0.2452
  398MOL0     H53693   2.479   8.304  10.095  0.3744  0.6560  0.6099
  398MOL0     H53694   2.812   8.188  10.340 -0.6481  1.2795  0.8927
  398MOL0     H53695   2.922   8.239  10.205 -0.5810  0.3510 -1.0345
  398MOL0     H53696   2.876   8.467  10.260 -0.7144 -0.9092 -0.7776
  398MOL0     H53697   2.808   8.404  10.416 -3.0234  1.3544 -1.8519
  398MOL0     H53698   3.007   8.283  10.475 -3.2676 -1.5678 -0.9427
  398MOL0     H53699   3.088   8.321  10.319 -3.1271  1.2080 -3.0111
  398MOL0     H53700   3.022   8.531  10.518 -1.0661 -0.9052 -1.5361
  398MOL0     H53701   3.140   8.545  10.380  1.3180  0.3535 -0.2945
  398MOL0     H53702   3.256   8.532  10.586 -0.7713  0.1334 -0.0499
  398MOL0     H53703   3.287   8.382  10.495  0.5960  2.8599 -1.6626
  398MOL0     H53704   3.068   8.400  10.689  0.5382  0.0783  1.4608
  398MOL0     H53705   3.155   8.254  10.643  2.6892  0.5847 -4.6806
  398MOL0     H53706   3.308   8.472  10.807  0.9971 -1.2678  0.2603
  398MOL0     H53707   3.344   8.312  10.756 -1.0509  0.1246 -1.8672
  398MOL0     H53708   3.263   8.219  10.949  3.0820  1.7620  1.4893
  398MOL0     H53709   3.239   8.389  10.999 -2.9244  0.7587 -1.1154
  398MOL0     H53710   2.816   8.044  10.112 -0.0719  0.5562  1.4737
  398MOL0     H53711   2.712   7.878   9.992 -1.0990 -0.3819  0.5591
  398MOL0     H53712   2.352   7.539  10.060  2.7874  1.2209 -1.8040
  398MOL0     H53713   2.162   7.388   9.986 -0.0814  1.3103  1.3703
  398MOL0     H53714   2.680   6.785  10.484  2.3289  1.8336  3.4774
  398MOL0     H53715   2.647   6.739  10.722  0.8296  1.5889 -0.8960
  398MOL0     H53716   2.553   6.349  10.999 -0.8619 -2.4322  0.3996
  398MOL0     H53717   2.473   6.285  11.226 -0.0651  0.1831  1.1824
  398MOL0     H53718   2.715   6.402  11.576 -0.5138  0.8264 -0.8075
  398MOL0     H53719   2.723   6.217  11.526 -2.1079 -2.8060  1.9194
  398MOL0     H53720   2.652   6.275  11.760  0.0120  3.7545  0.2414
  398MOL0     H53721   2.559   6.166  11.675  1.6402 -0.3738 -0.8931
  398MOL0     H53722   2.379   6.304  11.679 -0.0539 -2.3080  3.0979
  398MOL0     H53723   2.465   6.457  11.658 -0.3135  0.1895 -0.9107
  398MOL0     H53724   2.463   6.294  11.909  0.0163  0.3903 -1.4863
  398MOL0     H53725   2.531   6.462  11.882 -1.1263  1.8880 -1.8484
  398MOL0     H53726   2.109   6.519  11.909  0.5512 -1.3005 -0.4956
  398MOL0     H53727   2.799   6.484  11.401 -2.3031 -1.4685  1.0923
  398MOL0     H53728   2.922   6.651  11.155 -2.8518 -0.6986  1.1683
  398MOL0     H53729   2.999   6.533  11.263 -1.2981  0.9379  0.6849
  398MOL0     H53730   3.021   6.513  11.090  0.6864 -1.3217  0.9921
  399MOL0     O53731   6.256   9.551   8.216  0.2553 -0.3371 -0.0493
  399MOL0     C53732   6.206   9.645   8.149  0.7936 -0.3155  0.8177
  399MOL0     O53733   6.084   9.649   8.101  0.4930  1.1039 -0.7066
  399MOL0     C53734   6.001   9.545   8.119 -0.5006  0.2081  0.8159
  399MOL0     C53735   5.966   9.478   8.002 -0.1930 -0.3266 -0.2701
  399MOL0     C53736   5.882   9.372   8.004 -0.0068 -0.5403  0.4175
  399MOL0     C53737   5.827   9.341   8.132  0.2219  1.3410  0.5701
  399MOL0     O53738   5.743   9.237   8.139 -0.1652  0.6005  0.5534
  399MOL0     C53739   5.602   9.279   8.179  0.3038 -0.3869  0.9729
  399MOL0     C53740   5.507   9.328   8.063 -0.0215 -0.2723  0.3533
  399MOL0     C53741   5.391   9.410   8.111 -0.9054  0.0841  0.4562
  399MOL0     C53742   5.292   9.305   8.169  0.5444 -0.1319 -0.5014
  399MOL0     C53743   5.180   9.390   8.237  0.2931 -0.8831  0.1025
  399MOL0     C53744   5.070   9.301   8.286  0.6729 -0.0904  0.7383
  399MOL0     C53745   4.971   9.376   8.381  0.5391 -0.2777  0.9654
  399MOL0     C53746   4.838   9.299   8.410 -0.0812 -0.1485 -0.6471
  399MOL0     N53747   4.867   9.163   8.443 -1.5932  0.6226 -0.5696
  399MOL0     C53748   4.887   9.051   8.362 -0.6486 -0.6506  0.3233
  399MOL0     C53749   4.902   8.947   8.439  1.1886 -0.0613 -0.2519
  399MOL0     C53750   4.923   8.816   8.366 -0.5696 -0.2147  0.0534
  399MOL0     C53751   4.792   8.768   8.305  0.2521  0.0303 -0.3992
  399MOL0     C53752   4.713   8.699   8.416 -0.0585  0.6945  0.0476
  399MOL0     C53753   4.585   8.640   8.389  0.4041 -0.5732  0.1201
  399MOL0     O53754   4.475   8.727   8.363 -0.2641 -0.0758 -0.2127
  399MOL0     C53755   4.357   8.715   8.434 -0.1130  0.6920 -0.3952
  399MOL0     C53756   4.307   8.596   8.501  0.0166  0.5749  0.7941
  399MOL0     C53757   4.186   8.594   8.557 -0.1770  0.3046 -0.5813
  399MOL0     C53758   4.108   8.706   8.563  1.3264  0.8769  0.5636
  399MOL0     C53759   3.971   8.701   8.639 -0.0360  0.0504 -0.4221
  399MOL0     O53760   3.886   8.814   8.638  1.2814  0.5352  0.0799
  399MOL0     C53761   3.786   8.801   8.732 -0.4470 -0.3606  1.1723
  399MOL0     C53762   3.770   8.892   8.843  0.3160  0.4860  0.6372
  399MOL0     C53763   3.662   8.879   8.938 -0.7642 -0.1534 -0.2660
  399MOL0     C53764   3.566   8.774   8.924  0.0037 -0.6722 -0.6628
  399MOL0     O53765   3.454   8.764   9.010  0.0908  0.0626  0.8263
  399MOL0     C53766   3.317   8.741   8.959 -0.8553 -0.5882 -0.7151
  399MOL0     C53767   3.277   8.850   8.869 -0.1013 -0.7929 -0.2245
  399MOL0     C53768   3.256   8.984   8.948  0.4917  1.1342 -0.8539
  399MOL0     C53769   3.134   8.988   9.040  0.0655  0.8670  0.2842
  399MOL0     C53770   3.111   9.136   9.079 -0.4208 -0.3525  0.0028
  399MOL0     C53771   3.205   9.170   9.199  1.0393 -0.3740  0.3139
  399MOL0     C53772   3.233   9.318   9.218 -0.0143 -0.0058 -0.3504
  399MOL0     C53773   3.278   9.332   9.366 -0.2408 -0.2523 -0.5286
  399MOL0    Cl53774   3.421   9.237   9.407  0.1320  0.1134  0.2221
  399MOL0     C53775   3.569   8.688   8.818 -0.2801 -0.3219 -0.9037
  399MOL0     C53776   3.677   8.704   8.723 -0.0925 -0.1135 -0.1244
  399MOL0     O53777   3.956   8.601   8.713 -0.0732  0.0609 -0.3563
  399MOL0     C53778   4.150   8.811   8.492  0.0920  0.1210  0.1488
  399MOL0     C53779   4.270   8.811   8.431 -0.4102 -0.2227 -0.2122
  399MOL0     N53780   4.903   8.994   8.573 -0.0218 -0.2213 -0.2672
  399MOL0     N53781   4.898   9.121   8.569 -0.0401  0.7873 -0.0673
  399MOL0     C53782   5.871   9.393   8.250 -0.1387 -0.4810 -0.9618
  399MOL0     C53783   5.962   9.503   8.248  0.0693 -0.5551  0.1631
  399MOL0     C53784   6.275   9.771   8.125  0.1785  0.2279 -0.1147
  399MOL0     C53785   6.262   9.836   8.002  0.1205 -0.9725  0.1205
  399MOL0     C53786   6.328   9.957   7.983 -0.4014 -0.1597  0.0799
  399MOL0     C53787   6.416  10.010   8.078  0.0795 -0.3949  0.9914
  399MOL0     O53788   6.492  10.123   8.034  0.6065 -0.2006  0.2875
  399MOL0     C53789   6.598  10.166   8.116 -0.4788 -0.9398 -0.5132
  399MOL0     C53790   6.704  10.237   8.029  0.8306 -0.7720 -0.8802
  399MOL0     C53791   6.767  10.139   7.934  0.3918  1.0543 -0.3650
  399MOL0     C53792   6.809  10.213   7.809  0.0354  0.9656 -1.4478
  399MOL0     C53793   6.869  10.343   7.821 -0.2786 -0.2017 -0.4230
  399MOL0     C53794   6.927  10.449   7.832 -0.4268 -0.0209  0.2206
  399MOL0     C53795   6.422   9.946   8.204 -0.2965 -0.7453 -0.9339
  399MOL0     C53796   6.357   9.826   8.226  0.5213 -0.6354 -0.8138
  399MOL0     C53797   6.379   9.756   8.357  0.0791  1.0494  0.9338
  399MOL0     H53798   6.016   9.510   7.912  1.0491  0.7832  0.7735
  399MOL0     H53799   5.856   9.318   7.913  1.1253  2.0358 -1.5565
  399MOL0     H53800   5.565   9.186   8.224  2.7605 -2.3597 -0.8037
  399MOL0     H53801   5.603   9.355   8.258 -0.9142 -1.2552  1.8642
  399MOL0     H53802   5.469   9.246   8.002 -0.1817  0.1637 -0.1334
  399MOL0     H53803   5.569   9.392   8.000  2.2536 -0.7806  1.9379
  399MOL0     H53804   5.346   9.461   8.026 -0.3254 -3.0096 -1.8678
  399MOL0     H53805   5.422   9.486   8.183  0.2007 -1.1625  1.3400
  399MOL0     H53806   5.264   9.241   8.085  2.0397  1.3026 -2.1800
  399MOL0     H53807   5.340   9.250   8.250  1.8340 -0.2910 -1.3322
  399MOL0     H53808   5.226   9.441   8.322  0.4468  0.7109 -0.8962
  399MOL0     H53809   5.143   9.467   8.169  4.0398  1.4409  0.4310
  399MOL0     H53810   5.008   9.262   8.205 -2.5908 -0.4035  3.1723
  399MOL0     H53811   5.122   9.222   8.342  1.3224 -1.1974 -1.3435
  399MOL0     H53812   4.964   9.468   8.323  2.7369  0.7014  2.1041
  399MOL0     H53813   5.026   9.405   8.471 -1.2306 -0.8351  2.2818
  399MOL0     H53814   4.797   9.338   8.503  0.8262 -2.3149  0.7464
  399MOL0     H53815   4.777   9.308   8.319 -2.0868  0.0157  0.6685
  399MOL0     H53816   4.892   9.059   8.254 -0.6951  4.2688  0.4857
  399MOL0     H53817   4.983   8.830   8.276 -1.8051  1.0781 -0.6165
  399MOL0     H53818   4.971   8.747   8.436  2.3744  1.7420  0.1155
  399MOL0     H53819   4.733   8.854   8.272 -3.4111 -0.9987  2.7474
  399MOL0     H53820   4.811   8.688   8.232  0.5986 -0.1164 -0.1533
  399MOL0     H53821   4.686   8.772   8.494 -1.2405 -0.4262  0.7206
  399MOL0     H53822   4.776   8.619   8.455  0.3393  1.5180  1.1780
  399MOL0     H53823   4.564   8.589   8.484 -4.4381  2.6205  1.1026
  399MOL0     H53824   4.589   8.564   8.310 -1.4370 -0.8133  0.2301
  399MOL0     H53825   4.372   8.509   8.493  0.9093  1.3322 -0.5078
  399MOL0     H53826   4.159   8.501   8.606 -0.5269  1.1984  1.0209
  399MOL0     H53827   3.849   8.965   8.852  0.2902  0.8359 -1.4664
  399MOL0     H53828   3.653   8.948   9.021  0.2331  0.7075 -0.8507
  399MOL0     H53829   3.309   8.648   8.903  2.2363 -2.1738  1.2261
  399MOL0     H53830   3.255   8.735   9.049 -0.9165 -1.0427 -0.7855
  399MOL0     H53831   3.343   8.852   8.781 -0.7841 -0.0883 -0.7411
  399MOL0     H53832   3.174   8.843   8.833 -0.4743 -0.2170  0.6930
  399MOL0     H53833   3.345   8.998   9.010 -1.2740  0.8037  1.9435
  399MOL0     H53834   3.261   9.059   8.868  0.6542 -0.3814 -2.3381
  399MOL0     H53835   3.148   8.927   9.129  0.1214  1.4420  0.6778
  399MOL0     H53836   3.046   8.954   8.985  0.1318  1.7799 -0.4251
  399MOL0     H53837   3.010   9.157   9.115  0.1449  1.7551  0.4695
  399MOL0     H53838   3.131   9.199   8.992 -2.9069  0.1028 -0.3097
  399MOL0     H53839   3.175   9.122   9.292  5.0501 -0.6870  1.6440
  399MOL0     H53840   3.298   9.116   9.179  0.3893 -0.5645 -2.6801
  399MOL0     H53841   3.137   9.367   9.202 -0.1941  0.1556  1.0792
  399MOL0     H53842   3.317   9.345   9.153  1.0090 -3.1981 -0.5442
  399MOL0     H53843   3.299   9.438   9.385 -1.3286 -0.0793 -0.2339
  399MOL0     H53844   3.197   9.299   9.430 -1.3118 -0.6844 -2.0466
  399MOL0     H53845   3.497   8.607   8.805 -1.4823  0.7318 -1.0172
  399MOL0     H53846   3.669   8.641   8.635  0.8643  1.3949 -1.3350
  399MOL0     H53847   4.081   8.894   8.498  0.4594  0.3814  0.8765
  399MOL0     H53848   4.295   8.893   8.365  0.0405 -1.1052 -1.1651
  399MOL0     H53849   5.815   9.352   8.333 -1.3053  1.6972 -0.6090
  399MOL0     H53850   6.013   9.541   8.336 -1.0341 -2.2598  1.6329
  399MOL0     H53851   6.200   9.784   7.929  0.1796 -2.4584  1.0827
  399MOL0     H53852   6.302   9.996   7.885 -1.1525 -1.4136 -0.2404
  399MOL0     H53853   6.641  10.075   8.159  2.0732  0.2393 -0.3435
  399MOL0     H53854   6.567  10.227   8.201  2.3937 -0.6496  0.4360
  399MOL0     H53855   6.789  10.284   8.080  1.2811 -0.4235 -1.9380
  399MOL0     H53856   6.652  10.319   7.980  2.2551  1.2186  0.7441
  399MOL0     H53857   6.705  10.050   7.918 -0.3622  1.2207  1.4241
  399MOL0     H53858   6.859  10.105   7.982 -0.5893  1.3905  1.9107
  399MOL0     H53859   6.885  10.149   7.763  0.0165  0.3498 -0.6420
  399MOL0     H53860   6.720  10.221   7.746 -0.4663  1.9920 -0.6284
  399MOL0     H53861   6.978  10.541   7.848 -0.8353  0.3352 -0.4721
  399MOL0     H53862   6.469  10.003   8.284 -1.3034  1.0617 -1.5729
  399MOL0     H53863   6.296   9.711   8.412  1.7938 -0.4462  2.4447
  399MOL0     H53864   6.455   9.681   8.331 -0.3191  0.7830  0.5341
  399MOL0     H53865   6.419   9.821   8.435 -0.4095 -0.9720  2.9812
  400MOL0     O53866   2.411   4.647   7.168  0.1213 -0.1556  0.1272
  400MOL0     C53867   2.367   4.678   7.054 -0.3884 -0.5477  0.7647
  400MOL0     O53868   2.360   4.799   6.990  0.4357 -0.7200 -0.9040
  400MOL0     C53869   2.396   4.905   7.071 -0.4135  0.2557 -1.0095
  400MOL0     C53870   2.299   4.996   7.106  0.0492 -0.3814 -0.6378
  400MOL0     C53871   2.327   5.111   7.175 -0.1735 -0.3666  0.5698
  400MOL0     C53872   2.460   5.128   7.227  0.0215  0.4763 -0.4878
  400MOL0     O53873   2.509   5.230   7.293 -1.0573 -1.2532 -0.2473
  400MOL0     C53874   2.427   5.304   7.395  0.5614  0.4084  0.5385
  400MOL0     C53875   2.350   5.429   7.349 -0.0657 -0.6169  0.5629
  400MOL0     C53876   2.256   5.469   7.457  0.5823  0.5948  0.1842
  400MOL0     C53877   2.201   5.610   7.460 -0.0272 -0.3543  0.9484
  400MOL0     C53878   2.052   5.625   7.426 -0.8782  0.0731 -0.1107
  400MOL0     C53879   1.994   5.775   7.447 -0.6934  0.7569  0.4603
  400MOL0     C53880   2.063   5.888   7.369  0.1981  0.7262 -0.0373
  400MOL0     C53881   2.033   5.905   7.219 -0.1622 -0.0736  0.8546
  400MOL0     N53882   1.890   5.939   7.191 -0.3621 -0.6758  0.1307
  400MOL0     C53883   1.828   6.044   7.251  0.1979 -0.2667  1.1614
  400MOL0     C53884   1.701   6.035   7.199  0.0266  0.5887  0.2891
  400MOL0     C53885   1.591   6.130   7.228  0.7228  0.4471 -0.6360
  400MOL0     C53886   1.587   6.190   7.374  0.3479 -1.3689  0.3647
  400MOL0     C53887   1.568   6.087   7.489  0.4255  0.8855 -0.1437
  400MOL0     C53888   1.451   5.991   7.470 -0.6995 -0.4064 -0.5355
  400MOL0     O53889   1.480   5.876   7.387  0.4908  0.3247  0.0287
  400MOL0     C53890   1.541   5.766   7.431  0.1006 -0.2604  0.9447
  400MOL0     C53891   1.569   5.739   7.567 -0.1605  0.4200 -0.4014
  400MOL0     C53892   1.638   5.623   7.605  0.4810  0.4139 -0.6132
  400MOL0     C53893   1.683   5.533   7.523  0.4690 -0.4529  0.4527
  400MOL0     C53894   1.766   5.410   7.562  0.2379 -1.1165 -0.1436
  400MOL0     O53895   1.786   5.308   7.471 -0.8047 -0.0192 -0.3071
  400MOL0     C53896   1.877   5.200   7.494  0.9603  0.1247  0.0645
  400MOL0     C53897   1.873   5.116   7.601  1.1604 -0.3877  0.8208
  400MOL0     C53898   1.943   5.001   7.594 -0.3838  0.1545 -0.4938
  400MOL0     C53899   2.018   4.963   7.487 -0.2298 -0.5258  0.9796
  400MOL0     O53900   2.069   4.834   7.489  0.1598  0.3688  0.4751
  400MOL0     C53901   2.080   4.756   7.366  0.4796 -0.1394 -0.0165
  400MOL0     C53902   1.942   4.753   7.304  0.1501  0.1435 -0.0342
  400MOL0     C53903   1.970   4.659   7.184 -0.3450  0.7424 -0.2621
  400MOL0     C53904   1.920   4.712   7.051  0.6488  0.5201  0.7557
  400MOL0     C53905   1.764   4.723   7.049 -1.1052  0.6184  0.2136
  400MOL0     C53906   1.700   4.755   6.910  0.0494  0.6913  0.4392
  400MOL0     C53907   1.547   4.739   6.902  0.9510  0.1289 -0.3721
  400MOL0     C53908   1.485   4.807   6.785  0.7377 -0.7355 -0.2815
  400MOL0    Cl53909   1.547   4.701   6.640 -0.4051  0.1728 -0.1278
  400MOL0     C53910   2.025   5.057   7.386 -0.0752 -1.3028  0.0559
  400MOL0     C53911   1.963   5.177   7.392 -0.5490 -0.3999 -0.1385
  400MOL0     O53912   1.809   5.422   7.680  0.6496  0.9114  0.3584
  400MOL0     C53913   1.661   5.556   7.390  0.2363 -0.1409 -1.1037
  400MOL0     C53914   1.597   5.674   7.334 -0.7818 -0.5002 -0.9457
  400MOL0     N53915   1.701   5.942   7.101  0.3951  0.7843  0.8350
  400MOL0     N53916   1.814   5.879   7.100 -0.3014  0.4267 -0.4430
  400MOL0     C53917   2.557   5.041   7.189 -0.1452  0.1454  1.4478
  400MOL0     C53918   2.526   4.930   7.113 -0.3509 -0.9731  0.5434
  400MOL0     C53919   2.328   4.549   6.975  0.0927  0.3880  0.4480
  400MOL0     C53920   2.302   4.571   6.835 -0.3604 -0.1597 -0.4505
  400MOL0     C53921   2.278   4.460   6.744 -0.3971 -0.1624 -0.0961
  400MOL0     C53922   2.279   4.325   6.794 -0.0127 -0.7494  0.3042
  400MOL0     O53923   2.266   4.221   6.701 -0.3130  0.3125  0.4613
  400MOL0     C53924   2.138   4.166   6.685  0.3203 -0.0163 -0.2984
  400MOL0     C53925   2.150   4.029   6.647  0.2111 -0.4515  0.1858
  400MOL0     C53926   2.023   3.976   6.579  1.0475 -0.3466 -0.6207
  400MOL0     C53927   1.878   4.031   6.621 -0.3293  0.0827  0.0064
  400MOL0     C53928   1.839   4.005   6.764 -0.6933  0.2592  0.1103
  400MOL0     C53929   1.806   3.984   6.878  0.2049  0.0527 -0.0256
  400MOL0     C53930   2.288   4.308   6.931  0.1350  0.1536 -0.9868
  400MOL0     C53931   2.317   4.413   7.024  0.0815 -0.2373  1.0737
  400MOL0     C53932   2.323   4.380   7.170 -0.3721  0.7300 -1.0879
  400MOL0     H53933   2.201   4.979   7.062 -0.2349 -0.4991  0.0383
  400MOL0     H53934   2.251   5.183   7.204  1.6496  1.8888  0.0244
  400MOL0     H53935   2.351   5.243   7.446  2.1172  0.8344  3.5657
  400MOL0     H53936   2.488   5.328   7.482  0.3098 -0.4052  0.9544
  400MOL0     H53937   2.302   5.420   7.250 -0.0043  1.8282  0.2542
  400MOL0     H53938   2.426   5.505   7.329  0.5321 -1.8049 -2.3473
  400MOL0     H53939   2.294   5.449   7.558 -2.3615 -0.8487  1.1269
  400MOL0     H53940   2.166   5.407   7.449  1.2396 -0.2715 -0.6962
  400MOL0     H53941   2.213   5.666   7.553  0.6838 -0.6171  1.0144
  400MOL0     H53942   2.259   5.667   7.387  0.0183 -0.5871  0.8017
  400MOL0     H53943   2.035   5.582   7.327  3.0529 -2.0867 -0.0355
  400MOL0     H53944   2.009   5.556   7.499  1.6389 -0.9887  0.4659
  400MOL0     H53945   1.885   5.777   7.442 -0.7740 -1.3044  0.5770
  400MOL0     H53946   2.018   5.801   7.551  2.2187  0.9423 -0.1667
  400MOL0     H53947   2.168   5.857   7.380 -0.2211 -1.6594 -1.9471
  400MOL0     H53948   2.045   5.980   7.425 -1.2216 -0.8420  2.2589
  400MOL0     H53949   2.096   5.984   7.176  0.1102 -0.7559 -0.0417
  400MOL0     H53950   2.049   5.811   7.166 -1.0527 -0.8760  1.9889
  400MOL0     H53951   1.858   6.119   7.322  0.7926  1.8903 -1.2193
  400MOL0     H53952   1.595   6.202   7.146  2.3790 -1.0309 -1.9526
  400MOL0     H53953   1.496   6.077   7.220 -0.5853  1.9530  2.9941
  400MOL0     H53954   1.674   6.255   7.391 -0.0195 -0.8935  0.4584
  400MOL0     H53955   1.501   6.258   7.374  0.5396 -0.8064 -4.2730
  400MOL0     H53956   1.551   6.146   7.580  0.8035 -1.0707  1.2537
  400MOL0     H53957   1.660   6.031   7.506 -1.1450 -2.0195 -0.7052
  400MOL0     H53958   1.371   6.055   7.433  1.2481  1.9349 -0.9668
  400MOL0     H53959   1.418   5.955   7.568 -2.8512 -0.6197 -1.2850
  400MOL0     H53960   1.520   5.791   7.648 -3.9367 -3.5855  0.2348
  400MOL0     H53961   1.639   5.591   7.709 -2.4506 -2.4910 -1.3314
  400MOL0     H53962   1.819   5.137   7.693  1.2553 -1.7668  1.2095
  400MOL0     H53963   1.928   4.930   7.675 -2.3096 -0.0946 -1.0013
  400MOL0     H53964   2.153   4.808   7.302 -2.7602  0.8824 -3.2392
  400MOL0     H53965   2.109   4.654   7.389 -2.5047 -0.1886  4.6777
  400MOL0     H53966   1.862   4.703   7.358 -2.0908 -0.9372 -3.9416
  400MOL0     H53967   1.904   4.847   7.264 -1.2352 -1.6254 -3.2623
  400MOL0     H53968   2.075   4.631   7.170  0.8612  3.1190  2.7445
  400MOL0     H53969   1.906   4.572   7.198  0.1308  0.5476  0.8405
  400MOL0     H53970   1.957   4.649   6.969 -0.0457  2.9753 -1.5778
  400MOL0     H53971   1.962   4.811   7.035  1.2774  0.0270 -0.8855
  400MOL0     H53972   1.734   4.797   7.124  0.3931 -0.3458  1.8346
  400MOL0     H53973   1.728   4.625   7.082  1.9362  0.1024  2.4877
  400MOL0     H53974   1.726   4.856   6.879  4.1343 -0.4522 -0.4960
  400MOL0     H53975   1.736   4.682   6.836 -0.3526  0.2880  0.6356
  400MOL0     H53976   1.505   4.782   6.993 -1.0360  0.4722 -1.3851
  400MOL0     H53977   1.515   4.635   6.894 -0.3349  0.2516  2.2924
  400MOL0     H53978   1.376   4.813   6.789  0.8411  3.8946  1.3999
  400MOL0     H53979   1.515   4.911   6.770  0.1615 -0.6901 -1.2323
  400MOL0     H53980   2.067   5.013   7.296 -1.7133  1.4641 -2.2188
  400MOL0     H53981   1.976   5.247   7.310 -1.7192  3.0167  2.3746
  400MOL0     H53982   1.697   5.490   7.311  0.9159 -0.6775 -0.3582
  400MOL0     H53983   1.581   5.689   7.228  0.4627 -3.5167 -1.6572
  400MOL0     H53984   2.662   5.055   7.215 -0.1954  1.1397  1.1711
  400MOL0     H53985   2.614   4.872   7.084  1.5241  1.4817  0.9774
  400MOL0     H53986   2.303   4.667   6.784  0.9802 -0.8492 -1.8278
  400MOL0     H53987   2.280   4.482   6.638  2.5079  0.3543 -0.0180
  400MOL0     H53988   2.095   4.223   6.601 -2.8956 -1.1150  0.4438
  400MOL0     H53989   2.078   4.180   6.776  0.4092 -2.8933  0.2877
  400MOL0     H53990   2.168   3.960   6.730  1.0931  1.5548  1.7512
  400MOL0     H53991   2.238   4.031   6.583  1.1552  0.7313  1.4506
  400MOL0     H53992   2.023   3.867   6.590  0.9737 -0.2182  0.7839
  400MOL0     H53993   2.026   3.985   6.470  1.3268 -0.6074 -0.6350
  400MOL0     H53994   1.872   4.136   6.591  4.1386  0.4795 -0.2167
  400MOL0     H53995   1.801   3.985   6.559 -1.1619 -0.4340  1.3693
  400MOL0     H53996   1.768   3.971   6.977 -0.2843 -0.0851 -0.2289
  400MOL0     H53997   2.281   4.203   6.955 -0.2242  0.6958  1.6546
  400MOL0     H53998   2.426   4.381   7.207  0.1854 -4.6465 -1.6646
  400MOL0     H53999   2.274   4.457   7.230 -0.9812  1.0328 -1.9433
  400MOL0     H54000   2.294   4.276   7.185 -3.0456  1.6413  0.8356
  401MOL0     O54001  10.402   9.132   5.585  0.1214 -0.7668 -0.1358
  401MOL0     C54002  10.309   9.115   5.662  0.7867 -0.1891  0.5585
  401MOL0     O54003  10.246   9.210   5.749 -0.0397  0.3127  0.3126
  401MOL0     C54004  10.303   9.334   5.754 -0.4426 -0.1817  0.5765
  401MOL0     C54005  10.309   9.421   5.643 -0.2350  0.4864 -1.0030
  401MOL0     C54006  10.367   9.552   5.646  0.9937  0.4263 -0.7979
  401MOL0     C54007  10.441   9.587   5.759  0.0401 -0.2120 -0.1333
  401MOL0     O54008  10.502   9.707   5.769 -0.9151 -0.2057  0.2676
  401MOL0     C54009  10.635   9.721   5.834  0.4630  0.5156 -0.6678
  401MOL0     C54010  10.669   9.862   5.817  0.0093  0.4144  0.7572
  401MOL0     C54011  10.815   9.878   5.791 -0.2638  0.5411 -0.0193
  401MOL0     C54012  10.843  10.014   5.738  0.1898 -0.0869 -0.2138
  401MOL0     C54013  10.969  10.033   5.665  1.2838  0.1095 -0.0466
  401MOL0     C54014  11.089  10.035   5.762 -0.6128  0.4362 -0.2293
  401MOL0     C54015  11.211  10.105   5.709  0.4049 -0.2030 -1.1971
  401MOL0     C54016  11.347  10.084   5.784  0.8119 -0.8783 -0.3391
  401MOL0     N54017  11.448  10.178   5.728 -0.0008 -0.2430 -0.6286
  401MOL0     C54018  11.467  10.220   5.602 -0.3048 -0.2347 -0.5304
  401MOL0     C54019  11.555  10.319   5.604  0.4379 -0.8203 -0.1463
  401MOL0     C54020  11.603  10.388   5.475 -0.2967 -0.5708 -0.6620
  401MOL0     C54021  11.505  10.408   5.363 -1.5890  0.0235 -0.3814
  401MOL0     C54022  11.368  10.464   5.406  0.5098 -0.4331 -0.0688
  401MOL0     C54023  11.289  10.529   5.297 -0.3369  0.7649  0.6717
  401MOL0     O54024  11.145  10.522   5.298  0.5726 -0.1684  0.6718
  401MOL0     C54025  11.086  10.402   5.306  0.2753 -1.3783  0.2469
  401MOL0     C54026  10.949  10.400   5.363 -0.1009 -0.2854 -0.5006
  401MOL0     C54027  10.879  10.278   5.369 -0.5589  0.6953 -0.5077
  401MOL0     C54028  10.940  10.160   5.320 -0.2470 -0.3603 -1.2633
  401MOL0     C54029  10.868  10.033   5.331  0.5854 -0.0681 -0.1278
  401MOL0     O54030  10.930   9.917   5.341  0.5571 -0.6324 -0.0920
  401MOL0     C54031  10.881   9.786   5.367 -0.2277 -0.3309  0.1033
  401MOL0     C54032  10.768   9.754   5.441 -0.7195  0.1618 -0.1393
  401MOL0     C54033  10.748   9.614   5.474 -0.9088  0.7885 -0.3098
  401MOL0     C54034  10.844   9.510   5.426  1.0290  1.0568 -0.5209
  401MOL0     O54035  10.829   9.373   5.455  0.0437  0.0737 -0.3752
  401MOL0     C54036  10.692   9.321   5.455 -0.4055 -0.3167  0.7890
  401MOL0     C54037  10.682   9.177   5.386 -0.0244 -0.3159 -0.1464
  401MOL0     C54038  10.767   9.065   5.451  0.3779  0.5283 -0.2281
  401MOL0     C54039  10.674   8.967   5.529 -0.1724 -0.1017 -0.1134
  401MOL0     C54040  10.750   8.846   5.588  0.9095  0.3795 -0.2458
  401MOL0     C54041  10.650   8.768   5.669 -0.2884  0.0421 -0.2668
  401MOL0     C54042  10.613   8.827   5.799 -0.5843  0.4331 -0.3983
  401MOL0     C54043  10.590   8.712   5.907  0.1720 -0.0363 -0.6019
  401MOL0    Cl54044  10.452   8.606   5.857  0.5283  0.3947 -0.1622
  401MOL0     C54045  10.949   9.550   5.359  0.8694 -1.0760 -0.0643
  401MOL0     C54046  10.976   9.691   5.343  0.5237  0.6550  0.0518
  401MOL0     O54047  10.746  10.046   5.345 -0.1299 -0.0985 -1.0989
  401MOL0     C54048  11.067  10.171   5.277  0.0764 -0.0154 -0.5807
  401MOL0     C54049  11.153  10.283   5.279 -0.1733 -0.0091  0.0482
  401MOL0     N54050  11.592  10.342   5.733  0.0761 -0.4723  0.0014
  401MOL0     N54051  11.542  10.254   5.809  1.2681 -0.2370  0.0519
  401MOL0     C54052  10.435   9.502   5.870  0.1520 -0.2598 -0.1747
  401MOL0     C54053  10.368   9.381   5.871 -0.2906  0.0180  0.4573
  401MOL0     C54054  10.252   8.982   5.653 -0.0468  0.1426 -0.0893
  401MOL0     C54055  10.290   8.900   5.545 -0.7039 -0.6133 -0.0726
  401MOL0     C54056  10.248   8.771   5.538  0.6397 -1.0674  0.4173
  401MOL0     C54057  10.159   8.717   5.627 -0.9312 -0.5331  0.1354
  401MOL0     O54058  10.113   8.592   5.613  0.2342  0.2791  0.0812
  401MOL0     C54059  10.197   8.478   5.607  0.2548  0.4559 -0.2110
  401MOL0     C54060  10.128   8.350   5.669  0.4562  0.7373 -0.5922
  401MOL0     C54061  10.157   8.350   5.830  0.1153 -0.4622  0.2371
  401MOL0     C54062  10.109   8.228   5.900 -1.1381 -0.5351  0.5370
  401MOL0     C54063  10.164   8.107   5.834 -0.3479  0.0026  0.2677
  401MOL0     C54064  10.179   7.995   5.783  0.0360 -0.1219  0.2560
  401MOL0     C54065  10.110   8.797   5.734 -0.1344 -0.3273  0.2853
  401MOL0     C54066  10.168   8.921   5.757  0.2783  1.0376 -0.2270
  401MOL0     C54067  10.140   8.986   5.891  0.0055 -0.0794 -0.8756
  401MOL0     H54068  10.266   9.405   5.545 -1.5215  3.5090 -1.0415
  401MOL0     H54069  10.362   9.616   5.559 -0.5419  1.4900  0.0145
  401MOL0     H54070  10.633   9.690   5.939  2.6515 -0.6448 -0.9163
  401MOL0     H54071  10.702   9.656   5.777  0.8263  1.5445 -1.4239
  401MOL0     H54072  10.651   9.914   5.912  1.7805  4.2853 -0.8654
  401MOL0     H54073  10.615   9.913   5.737  4.2247  2.3552 -1.1423
  401MOL0     H54074  10.848   9.796   5.726 -0.0527 -3.5290  4.6132
  401MOL0     H54075  10.878   9.878   5.881  2.0517  4.7520 -1.3555
  401MOL0     H54076  10.765  10.042   5.666  0.5624  0.6135 -0.3460
  401MOL0     H54077  10.847  10.083   5.823 -3.1386 -0.3958  0.3172
  401MOL0     H54078  10.978   9.945   5.601 -1.1978 -1.1899  1.2739
  401MOL0     H54079  10.968  10.128   5.611 -2.2438  0.9085  1.1610
  401MOL0     H54080  11.056  10.094   5.848  0.1975  1.2433 -0.4575
  401MOL0     H54081  11.111   9.930   5.786  4.3383  0.5810 -2.8393
  401MOL0     H54082  11.187  10.211   5.700 -2.0401 -0.1505  3.0690
  401MOL0     H54083  11.220  10.067   5.607  0.0876 -0.5814 -1.0895
  401MOL0     H54084  11.319  10.104   5.888  2.3455  1.3528 -0.2946
  401MOL0     H54085  11.387   9.982   5.786 -1.1925 -1.7207 -0.6842
  401MOL0     H54086  11.419  10.178   5.514 -2.1792 -3.5590  1.8213
  401MOL0     H54087  11.635  10.490   5.497  0.0380 -0.6114 -0.9422
  401MOL0     H54088  11.686  10.326   5.440 -0.5451 -0.7622 -0.9237
  401MOL0     H54089  11.557  10.468   5.287  0.6863  0.5450  1.4734
  401MOL0     H54090  11.491  10.309   5.319 -1.6388  0.4742 -1.4170
  401MOL0     H54091  11.384  10.535   5.488 -0.6224  0.6472 -0.7327
  401MOL0     H54092  11.314  10.377   5.445 -1.1526  1.0900  1.2319
  401MOL0     H54093  11.320  10.482   5.203 -1.6081  1.7384 -0.2692
  401MOL0     H54094  11.316  10.634   5.293 -0.6533  0.8424  0.5128
  401MOL0     H54095  10.894  10.487   5.396  1.7585  1.1433 -0.9888
  401MOL0     H54096  10.777  10.281   5.405 -0.4089  1.1045 -0.1022
  401MOL0     H54097  10.701   9.822   5.494  0.8915  0.3403  1.8063
  401MOL0     H54098  10.663   9.596   5.539 -0.9758 -2.6091 -1.1537
  401MOL0     H54099  10.644   9.316   5.553  1.2622 -3.3098  1.5734
  401MOL0     H54100  10.633   9.385   5.388  2.7358 -0.7914 -2.8102
  401MOL0     H54101  10.576   9.151   5.386 -0.1306 -0.1055 -2.2136
  401MOL0     H54102  10.714   9.193   5.282 -1.5029  1.7931 -0.3398
  401MOL0     H54103  10.820   9.009   5.374  0.0399 -0.5351  0.2881
  401MOL0     H54104  10.829   9.113   5.528 -2.4872  1.8122  1.4353
  401MOL0     H54105  10.595   8.939   5.458 -0.6806 -0.8722  0.7369
  401MOL0     H54106  10.624   9.022   5.609  1.3843  0.7812  0.3057
  401MOL0     H54107  10.838   8.876   5.646  1.9524  0.8933 -2.0315
  401MOL0     H54108  10.790   8.796   5.500  2.2259 -1.3362  1.2379
  401MOL0     H54109  10.561   8.754   5.607  1.2579  2.5625 -3.3754
  401MOL0     H54110  10.702   8.675   5.693  4.2674  2.6911  1.4954
  401MOL0     H54111  10.518   8.880   5.795 -1.8865 -1.3968  2.8394
  401MOL0     H54112  10.681   8.903   5.838  0.3300 -0.1948 -0.7301
  401MOL0     H54113  10.683   8.656   5.919  0.0472 -0.4310 -1.3916
  401MOL0     H54114  10.565   8.773   5.994  3.7341  1.5784 -0.5447
  401MOL0     H54115  11.012   9.475   5.313 -0.2722 -0.8325 -2.1771
  401MOL0     H54116  11.061   9.715   5.280 -0.2669 -1.1014 -1.7734
  401MOL0     H54117  11.116  10.075   5.264 -1.4009 -1.5219  3.4530
  401MOL0     H54118  11.256  10.264   5.249 -0.6890 -3.8556  0.1375
  401MOL0     H54119  10.492   9.527   5.959  2.8609  0.4508 -1.9744
  401MOL0     H54120  10.353   9.323   5.961 -0.3814  1.4411  1.3837
  401MOL0     H54121  10.352   8.940   5.466 -1.8489 -1.2710 -1.3388
  401MOL0     H54122  10.282   8.715   5.452  0.2028  1.3408 -1.4450
  401MOL0     H54123  10.288   8.496   5.664 -1.0091 -0.6357  2.2933
  401MOL0     H54124  10.224   8.451   5.504 -1.6587 -3.5394  0.1347
  401MOL0     H54125  10.177   8.267   5.617  1.0371  1.1565 -0.7353
  401MOL0     H54126  10.020   8.354   5.652  0.0043  0.2996  1.8358
  401MOL0     H54127  10.112   8.438   5.876 -1.3746  0.3100 -2.4827
  401MOL0     H54128  10.265   8.355   5.847 -0.0320 -0.6251  1.3234
  401MOL0     H54129  10.133   8.238   6.006  0.0527  0.9265  0.1647
  401MOL0     H54130  10.001   8.214   5.889 -1.0574 -1.8037  1.2304
  401MOL0     H54131  10.198   7.896   5.745 -1.9882 -0.7968  0.8557
  401MOL0     H54132  10.037   8.775   5.811 -1.9850  0.4311 -1.1582
  401MOL0     H54133  10.224   9.046   5.927  0.0935 -1.3863  1.2353
  401MOL0     H54134  10.051   9.047   5.871 -2.6932 -3.6188 -0.8484
  401MOL0     H54135  10.106   8.907   5.959  0.9313 -0.3540 -0.7158
  402MOL0     O54136   9.293   4.029   1.097 -0.8515 -0.4653  0.2267
  402MOL0     C54137   9.338   4.085   0.993 -0.0032  0.1804 -0.9539
  402MOL0     O54138   9.264   4.112   0.882  0.0493 -0.4261 -0.7792
  402MOL0     C54139   9.123   4.124   0.898 -0.0199 -0.8077 -0.4268
  402MOL0     C54140   9.075   4.245   0.956 -0.7892 -0.0563 -0.6459
  402MOL0     C54141   8.936   4.272   0.962 -0.6258 -0.1212  0.6599
  402MOL0     C54142   8.845   4.182   0.905 -0.2328 -0.3460  0.7999
  402MOL0     O54143   8.715   4.213   0.909 -0.0534  0.0899  0.3120
  402MOL0     C54144   8.649   4.285   1.015 -0.2544  0.2620 -0.4603
  402MOL0     C54145   8.662   4.188   1.147  0.3434 -0.6961 -0.3663
  402MOL0     C54146   8.586   4.054   1.131 -1.0051  0.7614 -0.5761
  402MOL0     C54147   8.442   4.072   1.107  0.1247 -0.6079  1.1053
  402MOL0     C54148   8.407   4.055   0.963 -0.4566 -0.0893  0.4048
  402MOL0     C54149   8.364   3.921   0.932  0.2759  0.3540 -0.0007
  402MOL0     C54150   8.383   3.888   0.778  0.8004 -0.5818 -1.0885
  402MOL0     C54151   8.271   3.937   0.675  0.3199  0.4170 -1.2976
  402MOL0     N54152   8.278   4.072   0.647  0.2845 -0.6266 -0.1749
  402MOL0     C54153   8.369   4.121   0.549  0.2721  0.8982 -0.9949
  402MOL0     C54154   8.349   4.255   0.543  0.1730  0.6547 -0.3412
  402MOL0     C54155   8.437   4.345   0.467  0.1175 -0.0526  0.5120
  402MOL0     C54156   8.399   4.357   0.321 -0.3711 -0.5850 -0.0009
  402MOL0     C54157   8.487   4.455   0.252 -0.8478  0.2294  1.6499
  402MOL0     C54158   8.632   4.414   0.249 -0.0933 -0.3404 -0.1384
  402MOL0     O54159   8.650   4.273   0.222 -0.1623 -0.3930 -0.3923
  402MOL0     C54160   8.757   4.213   0.281  0.2799  0.3025  0.1529
  402MOL0     C54161   8.888   4.265   0.295  0.1949  0.3463 -0.6570
  402MOL0     C54162   8.984   4.186   0.354  0.0763  0.3579 -0.1063
  402MOL0     C54163   8.966   4.059   0.403 -0.4317  0.2710 -0.1101
  402MOL0     C54164   9.091   3.975   0.447  0.2189  0.3912 -0.3423
  402MOL0     O54165   9.200   4.047   0.484  0.2404 -0.9043  0.3770
  402MOL0     C54166   9.315   3.984   0.490 -1.0326 -0.2370 -0.0148
  402MOL0     C54167   9.399   4.022   0.600 -0.6989 -0.0826 -0.3336
  402MOL0     C54168   9.533   3.968   0.611  0.3678  1.0102 -0.4931
  402MOL0     C54169   9.584   3.890   0.507 -0.0725 -0.8116 -0.0359
  402MOL0     O54170   9.715   3.842   0.515 -0.7660 -0.3642 -0.0573
  402MOL0     C54171   9.783   3.755   0.421 -0.3129  0.0561  0.2751
  402MOL0     C54172   9.930   3.755   0.456 -0.9432 -0.6958 -0.3042
  402MOL0     C54173  10.000   3.654   0.363 -0.0355  1.1932 -1.0254
  402MOL0     C54174  10.142   3.625   0.415  0.5842  0.1341  0.4431
  402MOL0     C54175  10.236   3.742   0.389 -0.0732 -0.5391 -0.6131
  402MOL0     C54176  10.379   3.690   0.410 -0.2406  0.3162 -0.7621
  402MOL0     C54177  10.434   3.625   0.285 -0.2256  0.3480  0.2535
  402MOL0     C54178  10.551   3.525   0.309  1.0644 -0.0885 -0.2283
  402MOL0    Cl54179  10.574   3.450   0.147 -0.2947  0.4633  0.0351
  402MOL0     C54180   9.502   3.857   0.394 -0.3030  0.4914 -0.6109
  402MOL0     C54181   9.372   3.898   0.391  0.5287  0.7358 -0.1440
  402MOL0     O54182   9.084   3.853   0.445  0.4678  1.3664  0.7064
  402MOL0     C54183   8.837   4.004   0.388  0.2883 -0.5679  0.2706
  402MOL0     C54184   8.738   4.084   0.328 -0.2008  0.1262 -0.2584
  402MOL0     N54185   8.248   4.290   0.640  0.2814 -0.5105  0.3058
  402MOL0     N54186   8.201   4.180   0.694  1.0360  0.1638 -0.6004
  402MOL0     C54187   8.894   4.060   0.851  0.7343 -0.6482 -0.1135
  402MOL0     C54188   9.030   4.032   0.845 -0.4574 -0.2656 -0.3107
  402MOL0     C54189   9.484   4.080   0.971  0.4431 -0.9998  0.0913
  402MOL0     C54190   9.553   3.965   1.013  0.0676  0.1921  0.9325
  402MOL0     C54191   9.688   3.954   1.001 -0.5591 -0.4152 -0.2147
  402MOL0     C54192   9.760   4.065   0.970 -0.4818 -0.2824 -0.5685
  402MOL0     O54193   9.896   4.050   0.988  0.6238 -0.9426 -0.2267
  402MOL0     C54194   9.969   4.119   0.890 -0.1478 -0.4033 -0.2138
  402MOL0     C54195  10.096   4.032   0.866 -1.2223  0.1544  0.6617
  402MOL0     C54196  10.077   3.908   0.777 -0.0328  1.2448 -0.2290
  402MOL0     C54197  10.193   3.817   0.792  0.3381  0.7323 -0.4820
  402MOL0     C54198  10.333   3.862   0.756  0.1193  1.0924 -0.3371
  402MOL0     C54199  10.453   3.883   0.744 -0.1988 -0.3898  0.0702
  402MOL0     C54200   9.700   4.184   0.926  0.3895 -0.0954  0.4788
  402MOL0     C54201   9.559   4.195   0.928  0.2756  0.3121  0.0950
  402MOL0     C54202   9.495   4.327   0.904  1.5543  0.7696 -0.6064
  402MOL0     H54203   9.145   4.316   0.998  0.0542 -1.2722  0.0783
  402MOL0     H54204   8.896   4.369   0.986  1.9802  0.7332  2.0035
  402MOL0     H54205   8.692   4.384   1.030  1.1135 -0.6540  2.0763
  402MOL0     H54206   8.543   4.294   0.988 -0.6347 -2.6070 -0.2478
  402MOL0     H54207   8.621   4.253   1.225  1.5055 -1.0797  0.5945
  402MOL0     H54208   8.766   4.176   1.178  0.4874  1.7142  0.2600
  402MOL0     H54209   8.597   4.001   1.226 -1.9174  1.4199 -0.0972
  402MOL0     H54210   8.630   3.989   1.055  1.7050 -0.7351  2.0595
  402MOL0     H54211   8.388   3.987   1.150  1.0408 -2.3686 -1.0242
  402MOL0     H54212   8.405   4.169   1.141 -1.0496 -0.7229  0.2325
  402MOL0     H54213   8.323   4.118   0.932 -1.8427 -0.9272  2.2623
  402MOL0     H54214   8.486   4.089   0.895 -1.9689  2.2293 -0.3478
  402MOL0     H54215   8.420   3.851   0.994 -0.3289 -1.2414 -1.1694
  402MOL0     H54216   8.258   3.911   0.959 -0.2042 -1.3077 -2.1579
  402MOL0     H54217   8.368   3.780   0.772 -0.9154 -0.4907  0.4802
  402MOL0     H54218   8.478   3.927   0.740  1.3294  1.1563  1.6955
  402MOL0     H54219   8.248   3.879   0.586 -1.8763  2.1332 -1.9570
  402MOL0     H54220   8.183   3.916   0.736  0.7119 -0.4521 -1.0207
  402MOL0     H54221   8.433   4.061   0.486  1.6942  0.8087  0.4586
  402MOL0     H54222   8.421   4.444   0.509  3.9608  0.3329  1.4739
  402MOL0     H54223   8.537   4.304   0.486 -0.9439 -2.2812  1.7371
  402MOL0     H54224   8.405   4.259   0.275 -0.3510 -0.2191 -0.7901
  402MOL0     H54225   8.293   4.383   0.315 -0.5403 -0.3917  2.4838
  402MOL0     H54226   8.487   4.556   0.294 -2.0145  1.4951 -1.1610
  402MOL0     H54227   8.467   4.453   0.144  1.6277 -1.1983  1.1283
  402MOL0     H54228   8.659   4.445   0.351 -2.3888  1.9186 -0.1112
  402MOL0     H54229   8.693   4.480   0.187  3.0538  1.4484  4.2998
  402MOL0     H54230   8.910   4.370   0.273 -1.5467  0.6233 -1.2202
  402MOL0     H54231   9.086   4.224   0.353  1.0415 -1.5294  3.8583
  402MOL0     H54232   9.363   4.095   0.671 -0.8509  1.4805 -1.9293
  402MOL0     H54233   9.599   4.013   0.684  0.4772 -0.2528  0.2138
  402MOL0     H54234   9.744   3.653   0.427  0.8889 -0.3845  0.8066
  402MOL0     H54235   9.773   3.784   0.316 -5.1461  1.2345  0.8013
  402MOL0     H54236   9.979   3.850   0.434  1.8539 -2.2072 -0.9858
  402MOL0     H54237   9.927   3.733   0.564 -3.0182 -0.1695 -0.2008
  402MOL0     H54238   9.951   3.557   0.346  0.7778  0.4103  0.7508
  402MOL0     H54239  10.016   3.686   0.260  1.9100  0.5079 -0.9802
  402MOL0     H54240  10.175   3.525   0.384  0.1751 -0.1471  0.8903
  402MOL0     H54241  10.134   3.599   0.521  0.6015 -3.7716 -0.3425
  402MOL0     H54242  10.217   3.826   0.456  1.8043 -0.4039 -0.2035
  402MOL0     H54243  10.222   3.784   0.289  0.8545  0.0157 -0.5228
  402MOL0     H54244  10.446   3.773   0.432  1.1058 -0.7338 -0.7791
  402MOL0     H54245  10.391   3.627   0.498 -3.3550  0.3276 -0.2062
  402MOL0     H54246  10.472   3.707   0.223 -1.0244  2.0323  1.8785
  402MOL0     H54247  10.348   3.578   0.236 -1.5153  4.4032 -1.9283
  402MOL0     H54248  10.641   3.573   0.349  0.2862 -0.1494  1.6882
  402MOL0     H54249  10.525   3.454   0.388 -0.8181  1.5725  0.7285
  402MOL0     H54250   9.541   3.795   0.314  0.4797 -1.5563  1.2516
  402MOL0     H54251   9.310   3.888   0.303  3.1353  2.3641 -2.3573
  402MOL0     H54252   8.811   3.901   0.409 -1.2207 -1.3041 -4.0791
  402MOL0     H54253   8.634   4.056   0.322 -0.5795  1.0520  1.3064
  402MOL0     H54254   8.812   3.998   0.815 -1.1844  2.2216 -1.0218
  402MOL0     H54255   9.078   3.946   0.801 -0.3826  0.7738 -2.3946
  402MOL0     H54256   9.509   3.879   1.063  2.9550 -1.6031  0.6302
  402MOL0     H54257   9.732   3.862   1.036 -0.3869 -0.4007 -0.3905
  402MOL0     H54258   9.992   4.223   0.915  1.8936 -0.8406 -0.0857
  402MOL0     H54259   9.901   4.120   0.804  0.7318 -0.9329 -0.9282
  402MOL0     H54260  10.135   3.994   0.960  1.5951 -3.9163 -1.8111
  402MOL0     H54261  10.167   4.096   0.813 -0.6291  1.0911  2.4995
  402MOL0     H54262  10.061   3.933   0.672 -0.7536 -1.5073 -0.8613
  402MOL0     H54263   9.989   3.846   0.796  0.5646 -1.2240 -4.2588
  402MOL0     H54264  10.183   3.795   0.899 -2.0350  3.5792  0.0121
  402MOL0     H54265  10.175   3.721   0.742 -2.1582  1.1834 -0.5937
  402MOL0     H54266  10.554   3.889   0.709 -0.2812 -0.2086 -0.1390
  402MOL0     H54267   9.757   4.274   0.910  0.9466 -0.1578  1.9544
  402MOL0     H54268   9.564   4.412   0.897 -0.8699  2.8180 -1.2619
  402MOL0     H54269   9.455   4.314   0.803 -2.7530 -3.2192  1.2398
  402MOL0     H54270   9.408   4.357   0.964 -0.3970  0.0146 -2.9199
  403MOL0     O54271   2.351   0.847   3.273 -0.6163 -0.7115 -0.6318
  403MOL0     C54272   2.401   0.742   3.243  0.1530  0.1042  0.8183
  403MOL0     O54273   2.439   0.700   3.120 -0.1926 -0.0049  0.0368
  403MOL0     C54274   2.435   0.792   3.017 -0.5926  0.1557 -0.8145
  403MOL0     C54275   2.320   0.848   2.968 -0.8876  0.1116 -0.2480
  403MOL0     C54276   2.330   0.933   2.856 -0.7040 -0.5587  0.2480
  403MOL0     C54277   2.459   0.960   2.795 -0.5058  0.3719 -0.0993
  403MOL0     O54278   2.468   1.054   2.697  0.1411 -0.1709  0.4660
  403MOL0     C54279   2.551   1.024   2.584 -0.0138  0.0381 -0.2341
  403MOL0     C54280   2.489   1.066   2.456 -0.0196  0.0638 -0.0969
  403MOL0     C54281   2.347   1.004   2.435 -0.0996  0.1170 -0.1458
  403MOL0     C54282   2.267   1.069   2.325 -0.4209 -0.4472  0.8107
  403MOL0     C54283   2.157   0.980   2.279 -0.1723  0.5258  0.2599
  403MOL0     C54284   2.082   1.023   2.155  0.0888 -0.0050  0.3298
  403MOL0     C54285   2.001   0.910   2.090  0.0514  0.0526  0.4794
  403MOL0     C54286   1.969   0.925   1.937  0.1018 -0.5249 -0.4446
  403MOL0     N54287   1.923   1.065   1.919 -0.8208  0.7255 -0.2159
  403MOL0     C54288   1.834   1.143   1.993  0.0304 -0.2624  1.0040
  403MOL0     C54289   1.853   1.271   1.942 -0.0089  0.3488 -0.1688
  403MOL0     C54290   1.780   1.401   1.985  1.1216  0.9264  0.2087
  403MOL0     C54291   1.670   1.430   1.896  0.0519 -0.7430 -0.2787
  403MOL0     C54292   1.553   1.332   1.927 -0.7081 -0.5850  1.0737
  403MOL0     C54293   1.428   1.376   1.849 -1.0034  0.2541  1.1377
  403MOL0     O54294   1.364   1.269   1.769  0.0611 -1.1287 -0.6153
  403MOL0     C54295   1.410   1.261   1.644  0.0223 -0.4872 -0.6183
  403MOL0     C54296   1.380   1.354   1.549 -0.5191 -0.8757 -0.0675
  403MOL0     C54297   1.408   1.330   1.419  0.1337  0.6476  0.6321
  403MOL0     C54298   1.463   1.205   1.372 -0.0212 -0.0989  0.3767
  403MOL0     C54299   1.474   1.164   1.227  0.4821  1.4193 -0.1598
  403MOL0     O54300   1.598   1.109   1.172 -0.8968  0.0993 -0.9317
  403MOL0     C54301   1.607   1.077   1.040  0.8257  1.0745  0.8508
  403MOL0     C54302   1.495   1.023   0.970  0.6252  1.2878 -0.0749
  403MOL0     C54303   1.511   0.961   0.842  0.6450 -0.1760 -0.0135
  403MOL0     C54304   1.630   1.004   0.768  0.6283 -0.8677 -0.8871
  403MOL0     O54305   1.636   0.977   0.638  0.9944  0.3332 -0.0439
  403MOL0     C54306   1.601   0.844   0.601  0.3328 -0.0020  0.2181
  403MOL0     C54307   1.621   0.845   0.453 -0.1562  0.3040  0.7876
  403MOL0     C54308   1.769   0.885   0.407 -0.0628  0.8017 -0.1276
  403MOL0     C54309   1.795   0.818   0.272 -0.5394  0.2701  0.0395
  403MOL0     C54310   1.931   0.823   0.205 -0.7594  0.2829 -0.6334
  403MOL0     C54311   2.046   0.751   0.281  0.3323  0.0521  0.0482
  403MOL0     C54312   2.032   0.603   0.309  0.1575  0.1959 -0.5998
  403MOL0     C54313   2.169   0.537   0.322 -0.5286 -0.2984  0.5453
  403MOL0    Cl54314   2.257   0.538   0.169  0.1201 -0.8099 -0.2871
  403MOL0     C54315   1.741   1.059   0.835  0.6449 -0.7100 -0.0110
  403MOL0     C54316   1.727   1.087   0.967  0.4647 -0.4404  0.0815
  403MOL0     O54317   1.375   1.194   1.157 -0.6738  0.2172  0.1572
  403MOL0     C54318   1.502   1.117   1.467  0.5421 -0.6756 -0.1960
  403MOL0     C54319   1.473   1.142   1.603 -0.6541 -0.8568 -0.3748
  403MOL0     N54320   1.958   1.273   1.860  0.4904 -0.5548 -0.5200
  403MOL0     N54321   1.996   1.144   1.844  0.2026 -0.3359 -0.0672
  403MOL0     C54322   2.572   0.913   2.861 -0.2618 -0.2181 -0.3619
  403MOL0     C54323   2.562   0.829   2.976 -0.0865  0.4802  0.3930
  403MOL0     C54324   2.418   0.655   3.365  0.3855 -0.5343 -0.9944
  403MOL0     C54325   2.441   0.719   3.498  0.5659 -0.1046  0.3619
  403MOL0     C54326   2.462   0.639   3.611 -0.9069 -0.1019 -0.9421
  403MOL0     C54327   2.457   0.499   3.601  0.5448  0.9770  0.1293
  403MOL0     O54328   2.478   0.414   3.698 -0.0070 -0.3645 -0.5462
  403MOL0     C54329   2.521   0.452   3.828 -0.0105 -0.9251 -0.1463
  403MOL0     C54330   2.419   0.445   3.934  0.3396 -0.1611 -0.6255
  403MOL0     C54331   2.493   0.411   4.076 -0.7802 -0.7362  0.2226
  403MOL0     C54332   2.418   0.335   4.177 -0.6335  0.0983 -0.4964
  403MOL0     C54333   2.275   0.383   4.183 -0.7992  0.7992  0.1869
  403MOL0     C54334   2.158   0.430   4.189 -0.2766 -0.1343 -0.4582
  403MOL0     C54335   2.443   0.437   3.479 -0.3483 -0.0984  0.6523
  403MOL0     C54336   2.420   0.511   3.366 -0.1725 -0.8531  0.1721
  403MOL0     C54337   2.399   0.435   3.235 -1.0783  1.3001  0.5454
  403MOL0     H54338   2.227   0.815   3.013 -0.6411  0.1032  0.2688
  403MOL0     H54339   2.237   0.973   2.817 -0.1372  0.6931  0.1448
  403MOL0     H54340   2.642   1.085   2.587  0.7851 -1.1462  2.3565
  403MOL0     H54341   2.563   0.916   2.573 -2.3119 -0.2934  0.1244
  403MOL0     H54342   2.561   1.049   2.376 -1.0468 -1.3636 -0.7712
  403MOL0     H54343   2.476   1.173   2.471  0.8511 -0.2349  4.2191
  403MOL0     H54344   2.285   1.012   2.525  2.2242 -1.3183  1.6995
  403MOL0     H54345   2.363   0.898   2.412  0.8241 -0.7001  3.5924
  403MOL0     H54346   2.238   1.173   2.341  2.3191  0.2410  1.6967
  403MOL0     H54347   2.345   1.061   2.249 -1.1035  0.6938 -0.0592
  403MOL0     H54348   2.202   0.881   2.269  2.7358  1.9277 -1.9812
  403MOL0     H54349   2.086   0.978   2.363 -0.5358  4.3532  0.2259
  403MOL0     H54350   2.019   1.110   2.178 -0.7001 -0.4733 -0.0431
  403MOL0     H54351   2.158   1.051   2.081 -1.0381  0.2679 -0.7539
  403MOL0     H54352   1.901   0.905   2.135 -1.5290 -0.7184 -2.7628
  403MOL0     H54353   2.065   0.822   2.106 -0.5886 -0.3822  0.7277
  403MOL0     H54354   2.053   0.911   1.867  0.7504 -2.0205  0.5769
  403MOL0     H54355   1.882   0.859   1.932 -1.2039  0.5871  3.7530
  403MOL0     H54356   1.767   1.125   2.076 -0.4521  0.0868  0.6974
  403MOL0     H54357   1.740   1.394   2.086  1.0619 -0.7816  0.1081
  403MOL0     H54358   1.858   1.477   1.981  1.5386  0.4622 -1.7922
  403MOL0     H54359   1.638   1.535   1.892 -1.0135 -1.0020  0.9358
  403MOL0     H54360   1.714   1.423   1.796  0.8462  1.0467 -0.1117
  403MOL0     H54361   1.524   1.329   2.033 -2.5234 -0.7570  0.6103
  403MOL0     H54362   1.574   1.231   1.890 -1.1864 -2.1166  4.5797
  403MOL0     H54363   1.459   1.449   1.774 -0.0088 -0.1847  1.1149
  403MOL0     H54364   1.358   1.427   1.916 -0.8675 -1.3887  2.6110
  403MOL0     H54365   1.343   1.448   1.589 -0.3913 -1.5147  1.6611
  403MOL0     H54366   1.391   1.409   1.346  1.0632  0.8187  0.5901
  403MOL0     H54367   1.393   1.020   1.009  0.6055  0.1952 -0.1729
  403MOL0     H54368   1.427   0.907   0.800  0.7116  0.0252 -0.4162
  403MOL0     H54369   1.659   0.765   0.651  0.5038 -0.1110 -0.1505
  403MOL0     H54370   1.496   0.835   0.629  0.7767 -1.7577  1.5410
  403MOL0     H54371   1.582   0.763   0.392 -1.4957  2.0625 -0.8525
  403MOL0     H54372   1.556   0.926   0.419 -1.1500 -1.1023 -0.8608
  403MOL0     H54373   1.775   0.991   0.380 -0.1646  1.4143  2.0681
  403MOL0     H54374   1.844   0.854   0.479  1.0711  1.0633 -1.1598
  403MOL0     H54375   1.728   0.846   0.191 -2.8742 -2.7307  0.7507
  403MOL0     H54376   1.778   0.712   0.293 -5.9415  1.1070  1.3867
  403MOL0     H54377   1.964   0.927   0.200  0.6563 -0.1286 -0.1952
  403MOL0     H54378   1.937   0.780   0.104  0.9796 -2.4991  0.5234
  403MOL0     H54379   2.124   0.770   0.207  0.1303 -0.6745 -0.3603
  403MOL0     H54380   2.074   0.795   0.377 -2.6783 -0.2169  1.1642
  403MOL0     H54381   1.974   0.564   0.225 -1.1616  2.3778 -0.7771
  403MOL0     H54382   1.976   0.598   0.403  0.8860  2.1104 -0.0168
  403MOL0     H54383   2.231   0.573   0.405  0.5557  2.6692 -1.4014
  403MOL0     H54384   2.149   0.431   0.343 -0.6340 -0.4560 -0.3181
  403MOL0     H54385   1.832   1.090   0.785 -1.7754  0.7052 -4.0105
  403MOL0     H54386   1.814   1.121   1.022  1.4894 -2.6704 -0.0173
  403MOL0     H54387   1.543   1.022   1.432  2.8195 -0.0515  0.6211
  403MOL0     H54388   1.512   1.069   1.673  4.4344  2.9819  1.4808
  403MOL0     H54389   2.671   0.926   2.818  0.4196  2.5704  1.8239
  403MOL0     H54390   2.652   0.784   3.015 -1.3349 -1.7321  0.8824
  403MOL0     H54391   2.452   0.826   3.509 -1.4794  0.1781  0.0340
  403MOL0     H54392   2.464   0.685   3.710 -0.5056  2.4080 -2.0524
  403MOL0     H54393   2.567   0.551   3.820  4.2276 -2.4898  1.7241
  403MOL0     H54394   2.609   0.397   3.861  0.9029  1.1969  1.1992
  403MOL0     H54395   2.357   0.356   3.920 -0.2959  0.0405  0.7112
  403MOL0     H54396   2.360   0.537   3.930 -0.0209 -0.4202 -1.5585
  403MOL0     H54397   2.517   0.509   4.118 -1.9638  0.4860 -1.7835
  403MOL0     H54398   2.587   0.358   4.056 -0.0013  0.2997  0.9871
  403MOL0     H54399   2.417   0.228   4.153 -1.4326  0.2758 -1.3098
  403MOL0     H54400   2.472   0.354   4.271 -1.0438  1.2469 -0.4753
  403MOL0     H54401   2.067   0.482   4.170  0.5881  1.0333 -1.5326
  403MOL0     H54402   2.455   0.329   3.470 -2.0227 -0.1280 -2.0982
  403MOL0     H54403   2.488   0.422   3.172 -1.9392 -1.8639 -0.1459
  403MOL0     H54404   2.369   0.333   3.258 -0.3798  0.0802 -3.2758
  403MOL0     H54405   2.315   0.489   3.192 -0.7473  1.6536  0.3333
  404MOL0     O54406   5.640   8.311   7.053 -0.3392 -0.3374  0.5282
  404MOL0     C54407   5.730   8.401   7.053  0.4021  0.3620 -0.3177
  404MOL0     O54408   5.858   8.392   7.115  0.4894 -0.3894  0.0792
  404MOL0     C54409   5.891   8.277   7.186 -0.3011 -0.0013  0.2691
  404MOL0     C54410   5.916   8.289   7.325 -0.2980  0.9426 -0.5112
  404MOL0     C54411   5.963   8.175   7.391  0.6283 -0.2701  0.2883
  404MOL0     C54412   5.998   8.056   7.322  0.6832  0.3067 -0.0369
  404MOL0     O54413   6.049   7.956   7.398 -0.0552  0.3436 -0.0957
  404MOL0     C54414   5.947   7.886   7.480  0.4430 -0.8729  0.2013
  404MOL0     C54415   6.025   7.808   7.591  0.3885 -1.5361 -0.0504
  404MOL0     C54416   5.909   7.740   7.670  0.2463  0.3509 -0.1754
  404MOL0     C54417   5.960   7.639   7.782  0.2431  0.9396  0.7079
  404MOL0     C54418   6.049   7.705   7.889 -0.1503 -0.0775 -1.1418
  404MOL0     C54419   5.983   7.831   7.953 -0.7626 -0.3663 -0.4639
  404MOL0     C54420   6.006   7.831   8.104  0.1223 -0.3408 -0.3606
  404MOL0     C54421   6.156   7.814   8.148  0.5000 -0.0996  0.5311
  404MOL0     N54422   6.252   7.909   8.089  0.4217 -0.0694 -0.1148
  404MOL0     C54423   6.307   8.007   8.155  0.1739 -0.1248  0.1711
  404MOL0     C54424   6.384   8.073   8.064  0.4813  0.0355 -1.1445
  404MOL0     C54425   6.485   8.174   8.096  0.4693 -0.3095 -0.1547
  404MOL0     C54426   6.458   8.313   8.038  0.1585 -0.6094  0.4706
  404MOL0     C54427   6.549   8.415   8.111 -0.6445 -0.5984 -0.4401
  404MOL0     C54428   6.696   8.374   8.105  0.4003 -0.1951  0.5846
  404MOL0     O54429   6.741   8.373   7.968  0.5991 -0.1715  0.6053
  404MOL0     C54430   6.869   8.316   7.939  0.4940 -0.9021  0.3678
  404MOL0     C54431   6.883   8.233   7.827 -0.1545 -0.4432 -0.7194
  404MOL0     C54432   7.017   8.193   7.790 -0.2751 -0.5003  0.5507
  404MOL0     C54433   7.134   8.228   7.859 -0.8659 -0.0641 -0.2544
  404MOL0     C54434   7.263   8.172   7.834 -0.2640  0.6322  0.0996
  404MOL0     O54435   7.348   8.140   7.938  0.4319  0.1223  0.3508
  404MOL0     C54436   7.454   8.060   7.908 -0.0653  1.0200  0.2858
  404MOL0     C54437   7.552   8.065   7.798  1.2309  0.6313  0.0506
  404MOL0     C54438   7.656   7.981   7.809  0.3192 -0.1760  0.7998
  404MOL0     C54439   7.678   7.893   7.910  0.2398 -0.5960 -0.9368
  404MOL0     O54440   7.781   7.810   7.898 -0.1640  1.4421 -0.5147
  404MOL0     C54441   7.797   7.693   7.987  0.8223 -0.3401 -0.7938
  404MOL0     C54442   7.890   7.597   7.925 -0.6410  0.2941  0.7309
  404MOL0     C54443   7.837   7.508   7.810 -0.1974  0.1046  0.0947
  404MOL0     C54444   7.835   7.594   7.677  0.0276  0.5539  0.0718
  404MOL0     C54445   7.729   7.536   7.582  0.6372 -0.6279 -0.8706
  404MOL0     C54446   7.773   7.542   7.438  0.4449  0.5990  0.5608
  404MOL0     C54447   7.885   7.436   7.416 -0.0323  0.1561  0.6386
  404MOL0     C54448   7.897   7.394   7.264  0.0809 -0.0011  1.1428
  404MOL0    Cl54449   7.919   7.536   7.166 -0.1528  0.3256 -0.0486
  404MOL0     C54450   7.577   7.882   8.012 -0.0274 -0.5064  0.5223
  404MOL0     C54451   7.467   7.961   8.010 -0.1362 -0.0097 -0.3832
  404MOL0     O54452   7.281   8.146   7.717  0.1061 -1.0562 -0.5465
  404MOL0     C54453   7.114   8.308   7.969  0.3355  0.0480  0.0794
  404MOL0     C54454   6.984   8.351   8.017 -1.4792 -0.8225  0.8946
  404MOL0     N54455   6.365   8.020   7.934  0.2325 -0.8312 -0.2915
  404MOL0     N54456   6.294   7.913   7.952  0.3952 -0.0664 -0.1543
  404MOL0     C54457   5.987   8.050   7.183  0.2204 -0.4449  0.9575
  404MOL0     C54458   5.929   8.161   7.115  0.4500  0.9773 -0.8369
  404MOL0     C54459   5.696   8.535   6.993 -0.0515 -0.3203 -0.5120
  404MOL0     C54460   5.557   8.568   6.996 -0.1732  0.1710  0.6559
  404MOL0     C54461   5.502   8.675   6.924 -0.5563 -0.4478 -0.4012
  404MOL0     C54462   5.600   8.770   6.871  0.4060 -0.5390 -0.2556
  404MOL0     O54463   5.545   8.890   6.805  0.8214  0.0094 -0.2642
  404MOL0     C54464   5.619   8.945   6.693  0.1496 -0.4390 -0.2808
  404MOL0     C54465   5.540   9.063   6.636 -0.6476 -0.0793 -0.2486
  404MOL0     C54466   5.385   9.046   6.641 -0.6405  0.7227 -0.3039
  404MOL0     C54467   5.319   9.168   6.572 -0.3949  0.2306  0.5535
  404MOL0     C54468   5.173   9.153   6.550 -0.5860  0.3530  0.5722
  404MOL0     C54469   5.056   9.130   6.533 -0.2092  0.0175 -0.1930
  404MOL0     C54470   5.738   8.744   6.886 -0.1627 -0.8144  0.2924
  404MOL0     C54471   5.789   8.633   6.941 -1.5111 -0.3001 -0.1817
  404MOL0     C54472   5.934   8.604   6.910 -0.1322 -0.1586 -0.3226
  404MOL0     H54473   5.923   8.382   7.380  1.6302  0.5619 -0.0298
  404MOL0     H54474   5.984   8.173   7.498 -1.7891 -1.3144  0.7986
  404MOL0     H54475   5.882   7.954   7.535  1.9847  0.6013  0.2770
  404MOL0     H54476   5.890   7.825   7.409  0.6674 -2.4873  1.3370
  404MOL0     H54477   6.083   7.867   7.662 -4.7872  4.8344 -0.2051
  404MOL0     H54478   6.076   7.722   7.547 -1.4752 -2.4556 -0.5219
  404MOL0     H54479   5.846   7.681   7.602  3.2292 -0.4311 -2.4768
  404MOL0     H54480   5.840   7.806   7.724 -2.3653 -2.7370  0.5905
  404MOL0     H54481   5.877   7.582   7.825  0.2096  0.4852  0.0551
  404MOL0     H54482   6.029   7.567   7.737  2.6209  0.4653  4.7117
  404MOL0     H54483   6.067   7.631   7.968  1.8384  0.5112 -0.9934
  404MOL0     H54484   6.148   7.729   7.849 -0.3501  1.6585 -0.6737
  404MOL0     H54485   6.032   7.915   7.903  0.4127 -0.3439  0.6539
  404MOL0     H54486   5.877   7.831   7.929 -1.3256  1.0872  1.7162
  404MOL0     H54487   5.951   7.755   8.160  3.0679 -1.8466  0.7315
  404MOL0     H54488   5.957   7.926   8.127 -0.5825 -1.3715  3.1025
  404MOL0     H54489   6.161   7.825   8.257  1.0357 -2.2715  0.7521
  404MOL0     H54490   6.203   7.721   8.116  2.6037  0.8999  0.5845
  404MOL0     H54491   6.287   8.024   8.260 -0.1189  0.0554  0.0879
  404MOL0     H54492   6.498   8.170   8.204  2.2315 -1.5058 -0.3730
  404MOL0     H54493   6.577   8.127   8.060 -1.3907 -4.2384 -0.2913
  404MOL0     H54494   6.479   8.314   7.931 -0.6382  0.3934  0.3097
  404MOL0     H54495   6.352   8.340   8.048  0.0242 -0.3616 -1.3270
  404MOL0     H54496   6.522   8.430   8.216  1.5786  0.7668 -0.0138
  404MOL0     H54497   6.544   8.519   8.079 -1.1578 -0.5665 -0.2640
  404MOL0     H54498   6.715   8.274   8.146  0.3880  1.2141  4.4461
  404MOL0     H54499   6.741   8.445   8.174 -0.5320  1.9551 -0.9094
  404MOL0     H54500   6.805   8.197   7.760  0.7517  0.5555 -2.4040
  404MOL0     H54501   7.030   8.119   7.712 -2.2910  0.7194 -1.0469
  404MOL0     H54502   7.538   8.136   7.717  0.7351  1.7137  1.0498
  404MOL0     H54503   7.739   7.999   7.741 -0.2456 -0.3905  0.0274
  404MOL0     H54504   7.836   7.731   8.082  0.0966  0.7976 -0.9264
  404MOL0     H54505   7.706   7.639   8.013  0.2421  0.6728 -0.6662
  404MOL0     H54506   7.976   7.656   7.891  1.6259 -1.2501  3.3501
  404MOL0     H54507   7.922   7.536   8.010  1.3211  0.1520 -0.0427
  404MOL0     H54508   7.898   7.419   7.795  2.7384  1.9892  0.2112
  404MOL0     H54509   7.732   7.479   7.827 -0.8788  1.6585 -1.1875
  404MOL0     H54510   7.934   7.587   7.630 -0.1940 -0.3377 -0.2777
  404MOL0     H54511   7.822   7.702   7.690  1.3944  0.6746  0.6207
  404MOL0     H54512   7.639   7.597   7.584 -0.7484 -2.6020  0.1725
  404MOL0     H54513   7.705   7.433   7.611 -0.2436  0.0160  0.8321
  404MOL0     H54514   7.690   7.519   7.371  0.4287 -0.5731  0.9700
  404MOL0     H54515   7.814   7.637   7.401 -1.2395  0.1052 -3.0615
  404MOL0     H54516   7.862   7.344   7.471  0.5720 -1.0617 -1.0859
  404MOL0     H54517   7.981   7.478   7.447  0.9695 -0.4611 -1.4522
  404MOL0     H54518   7.979   7.321   7.264  0.4561  0.2024 -3.3193
  404MOL0     H54519   7.812   7.328   7.242  1.0459 -1.3887  1.3856
  404MOL0     H54520   7.592   7.810   8.091 -1.2821 -2.9625 -1.3408
  404MOL0     H54521   7.391   7.960   8.087  0.8278 -0.9937  0.5703
  404MOL0     H54522   7.191   8.320   8.045 -0.3929 -2.3315  1.3099
  404MOL0     H54523   6.959   8.406   8.107 -5.9118 -1.9949  0.6490
  404MOL0     H54524   6.019   7.964   7.125  1.5483  0.8236 -0.2838
  404MOL0     H54525   5.905   8.153   7.009 -0.7300 -0.7479 -0.4741
  404MOL0     H54526   5.488   8.498   7.042  0.1606 -1.4339 -1.1528
  404MOL0     H54527   5.396   8.683   6.901 -0.6871  0.8569  0.5952
  404MOL0     H54528   5.627   8.867   6.617 -1.7099 -1.6652  0.6890
  404MOL0     H54529   5.714   8.986   6.726 -1.3563  2.7845  0.4997
  404MOL0     H54530   5.574   9.076   6.533  0.4428 -1.3625 -0.0774
  404MOL0     H54531   5.579   9.143   6.700  1.7516 -1.6132  0.3536
  404MOL0     H54532   5.368   9.045   6.749  0.7820  0.1166 -0.0557
  404MOL0     H54533   5.356   8.948   6.601  0.4307  0.8177 -1.3949
  404MOL0     H54534   5.334   9.261   6.627  1.5541 -1.7951  3.7641
  404MOL0     H54535   5.357   9.185   6.471  1.5305 -1.3133  0.9551
  404MOL0     H54536   4.950   9.114   6.521 -0.4416  0.4582  1.1292
  404MOL0     H54537   5.810   8.817   6.851  1.4800 -0.1104  4.5275
  404MOL0     H54538   5.964   8.656   6.818  0.1009  0.9347  0.3523
  404MOL0     H54539   5.999   8.632   6.993  0.6204 -0.1458 -0.8986
  404MOL0     H54540   5.931   8.496   6.895 -1.7999 -0.2017  0.1744
  405MOL0     O54541   8.066   2.807   6.203  0.7481  0.1379 -0.3233
  405MOL0     C54542   8.068   2.698   6.148  0.3508 -0.6928  0.4639
  405MOL0     O54543   7.970   2.607   6.153 -0.2108  0.3597 -0.4713
  405MOL0     C54544   7.856   2.640   6.227 -0.7977  0.3569 -0.5205
  405MOL0     C54545   7.765   2.743   6.190 -0.1950 -0.0390 -0.1652
  405MOL0     C54546   7.638   2.754   6.251  0.8406  0.8035  0.9389
  405MOL0     C54547   7.603   2.659   6.351 -0.0724  0.1707 -0.1819
  405MOL0     O54548   7.475   2.645   6.406 -0.5013 -0.2397 -0.0025
  405MOL0     C54549   7.384   2.762   6.394 -0.4781  0.2073  0.6671
  405MOL0     C54550   7.312   2.755   6.262 -0.0761  0.3225  1.2034
  405MOL0     C54551   7.169   2.696   6.283 -0.2112  0.5925  0.7261
  405MOL0     C54552   7.065   2.808   6.256 -0.0011 -0.1526 -0.5117
  405MOL0     C54553   7.068   2.925   6.365 -0.1762 -0.2665  0.0574
  405MOL0     C54554   7.019   2.861   6.497  0.4400  0.9668 -0.0695
  405MOL0     C54555   6.968   2.982   6.579 -0.0589 -1.1478  0.0815
  405MOL0     C54556   7.080   3.093   6.594  0.4093 -0.5683 -0.6155
  405MOL0     N54557   7.024   3.192   6.688 -0.1171 -0.8383 -0.5339
  405MOL0     C54558   7.006   3.168   6.824  0.1902 -0.2354  0.1144
  405MOL0     C54559   6.954   3.284   6.871 -0.1076  0.0100 -0.2520
  405MOL0     C54560   6.919   3.335   7.010 -1.0075 -0.1561  0.5798
  405MOL0     C54561   7.029   3.353   7.115 -0.4611  0.0375 -0.3029
  405MOL0     C54562   7.151   3.425   7.066 -0.3510 -0.7897  0.3298
  405MOL0     C54563   7.134   3.549   6.980  0.1151 -1.1669  0.2401
  405MOL0     O54564   7.058   3.631   7.071  0.0690  0.3267  0.1767
  405MOL0     C54565   7.023   3.750   7.026  0.4040 -0.0372  0.5116
  405MOL0     C54566   6.921   3.813   7.099 -0.2493 -0.2205  0.0918
  405MOL0     C54567   6.854   3.923   7.046 -0.8743  0.5264 -0.6219
  405MOL0     C54568   6.912   3.990   6.936  0.7691 -1.8537 -0.1301
  405MOL0     C54569   6.848   4.113   6.887  0.7036 -0.3459  0.2832
  405MOL0     O54570   6.751   4.171   6.961 -0.6279  0.1058  0.0218
  405MOL0     C54571   6.706   4.291   6.914  0.9609 -0.6044 -0.1443
  405MOL0     C54572   6.783   4.402   6.918  0.8552  0.4804  0.1945
  405MOL0     C54573   6.740   4.518   6.854  0.5780 -0.7962 -0.4086
  405MOL0     C54574   6.627   4.511   6.776  0.7245  0.6050  0.7198
  405MOL0     O54575   6.584   4.626   6.714  0.3541  0.6079 -0.6187
  405MOL0     C54576   6.559   4.752   6.791 -0.3828  0.0924 -0.8288
  405MOL0     C54577   6.507   4.858   6.695  0.2006 -0.0215  0.2440
  405MOL0     C54578   6.366   4.841   6.634 -0.3996 -1.2267  0.8504
  405MOL0     C54579   6.344   4.964   6.553  0.9920 -0.1393 -0.0321
  405MOL0     C54580   6.211   4.977   6.475  0.5906 -0.0822 -0.0420
  405MOL0     C54581   6.095   4.925   6.565  1.2028  0.6058 -0.7783
  405MOL0     C54582   5.956   4.955   6.515 -0.4360  0.5815  0.2373
  405MOL0     C54583   5.903   5.087   6.577 -0.6731  0.2933  0.5583
  405MOL0    Cl54584   6.025   5.230   6.545 -0.0915  0.0551  0.3152
  405MOL0     C54585   6.557   4.386   6.757  0.6034 -0.3006  0.3986
  405MOL0     C54586   6.598   4.279   6.834  0.3751 -0.1073  1.0689
  405MOL0     O54587   6.884   4.153   6.777  0.1278 -0.8466  0.5120
  405MOL0     C54588   7.015   3.931   6.860  0.5413 -0.3878 -0.9355
  405MOL0     C54589   7.067   3.816   6.912 -0.9260 -0.3638 -0.9517
  405MOL0     N54590   6.941   3.372   6.765 -0.4628 -0.4050  0.5833
  405MOL0     N54591   6.993   3.321   6.657  0.2624 -0.1496  0.1620
  405MOL0     C54592   7.710   2.572   6.397  1.5806 -0.3139  0.6935
  405MOL0     C54593   7.833   2.553   6.333 -0.4360 -0.6279 -0.0650
  405MOL0     C54594   8.182   2.667   6.063  0.0482  0.3447  0.1206
  405MOL0     C54595   8.177   2.563   5.964 -0.1166 -0.7123 -0.0141
  405MOL0     C54596   8.291   2.531   5.883  0.1897  0.4450  0.3879
  405MOL0     C54597   8.414   2.604   5.909  0.2370  0.1582  0.3916
  405MOL0     O54598   8.528   2.585   5.832 -0.3062  0.3254 -0.1652
  405MOL0     C54599   8.553   2.464   5.755 -0.7490  0.6415 -0.4876
  405MOL0     C54600   8.671   2.387   5.823 -0.7131 -0.0567  0.1689
  405MOL0     C54601   8.803   2.467   5.797  0.6694  0.2138  0.0501
  405MOL0     C54602   8.926   2.421   5.885 -0.0425 -0.9897  1.0533
  405MOL0     C54603   8.951   2.276   5.870 -0.2714 -0.1389 -0.2631
  405MOL0     C54604   8.968   2.157   5.851  0.3508 -0.4680  1.4157
  405MOL0     C54605   8.422   2.702   6.004  0.2906  0.5595 -0.3792
  405MOL0     C54606   8.313   2.741   6.071  0.9150  0.4009 -0.4709
  405MOL0     C54607   8.344   2.855   6.164  0.7937  0.5742 -0.6771
  405MOL0     H54608   7.793   2.813   6.112  0.8026 -1.2252 -0.9093
  405MOL0     H54609   7.573   2.835   6.220 -0.7542 -0.5515  0.5764
  405MOL0     H54610   7.316   2.763   6.480  0.6655 -2.4120  1.7045
  405MOL0     H54611   7.440   2.856   6.396  1.1913 -0.5541 -2.6081
  405MOL0     H54612   7.366   2.687   6.195 -2.9143 -0.9348 -0.0015
  405MOL0     H54613   7.310   2.853   6.214 -0.3557 -0.7026 -1.0288
  405MOL0     H54614   7.162   2.653   6.383 -0.1741  0.0602  0.5019
  405MOL0     H54615   7.149   2.625   6.203  0.0581  0.8667  0.4096
  405MOL0     H54616   7.071   2.838   6.151 -1.0789  1.3401 -0.1748
  405MOL0     H54617   6.962   2.772   6.265 -0.2573 -0.3157 -3.2954
  405MOL0     H54618   7.165   2.975   6.371 -0.5436  0.7539 -1.8031
  405MOL0     H54619   7.006   3.003   6.320 -2.1072 -3.0743 -2.5835
  405MOL0     H54620   6.933   2.795   6.484  1.7575 -1.3780  2.3475
  405MOL0     H54621   7.099   2.807   6.549 -1.5230  0.2406  2.3668
  405MOL0     H54622   6.936   2.958   6.681  0.0761 -0.4511  0.2942
  405MOL0     H54623   6.883   3.016   6.519 -0.7094 -0.8394  1.1451
  405MOL0     H54624   7.166   3.041   6.638  0.4430  0.7959  1.0189
  405MOL0     H54625   7.097   3.139   6.496 -0.6552 -1.1207 -1.0796
  405MOL0     H54626   7.028   3.081   6.886 -0.2447  2.4646  4.4909
  405MOL0     H54627   6.891   3.438   6.986  1.0626 -0.0245 -1.6309
  405MOL0     H54628   6.841   3.274   7.056 -2.0524  2.3082  2.3605
  405MOL0     H54629   6.984   3.397   7.204 -0.1882 -1.0323  0.3860
  405MOL0     H54630   7.058   3.256   7.157 -0.5516 -0.3793 -1.1840
  405MOL0     H54631   7.224   3.361   7.016 -0.7094 -0.9135 -0.0374
  405MOL0     H54632   7.215   3.458   7.148  2.6236 -1.3152 -1.6367
  405MOL0     H54633   7.087   3.535   6.883  1.6439 -1.6698 -0.4734
  405MOL0     H54634   7.234   3.593   6.970  0.1520 -1.3566 -0.2684
  405MOL0     H54635   6.887   3.762   7.189  0.4126 -1.2788 -0.2318
  405MOL0     H54636   6.767   3.958   7.100 -0.1510  0.3638  0.6957
  405MOL0     H54637   6.867   4.410   6.985 -1.2818 -1.1124  3.3344
  405MOL0     H54638   6.786   4.617   6.858 -1.6482  0.3153 -0.6025
  405MOL0     H54639   6.503   4.731   6.882  2.4065 -0.4961  0.8656
  405MOL0     H54640   6.659   4.784   6.822 -1.0882 -0.2682  2.0508
  405MOL0     H54641   6.509   4.950   6.754 -3.5508 -1.8413  3.6543
  405MOL0     H54642   6.584   4.860   6.617 -0.4200 -0.1316 -0.3723
  405MOL0     H54643   6.360   4.762   6.559 -3.8532  1.8899 -2.5827
  405MOL0     H54644   6.296   4.831   6.717 -0.2125  2.1490  1.5591
  405MOL0     H54645   6.424   4.995   6.486 -0.3424 -0.0167 -1.6388
  405MOL0     H54646   6.337   5.038   6.633 -1.6392 -0.2529 -0.0637
  405MOL0     H54647   6.221   4.927   6.378  2.8820  0.4856 -0.1529
  405MOL0     H54648   6.205   5.084   6.455  0.4773  0.0107  0.4952
  405MOL0     H54649   6.100   4.816   6.573  1.2968  0.7090  0.7002
  405MOL0     H54650   6.112   4.976   6.660 -1.6182  3.4689 -1.6413
  405MOL0     H54651   5.895   4.867   6.538 -1.5539  0.9558 -1.1697
  405MOL0     H54652   5.956   4.975   6.407  0.8690  1.2955  0.3467
  405MOL0     H54653   5.807   5.111   6.529 -0.3812  1.3517  0.4840
  405MOL0     H54654   5.883   5.079   6.684 -3.2986  0.2876  0.1528
  405MOL0     H54655   6.470   4.370   6.694  0.8553 -1.5946  0.3443
  405MOL0     H54656   6.552   4.182   6.821  1.8645 -0.5712 -1.2634
  405MOL0     H54657   7.062   3.979   6.775  1.5984 -1.7501 -1.1450
  405MOL0     H54658   7.147   3.769   6.855 -0.7385  0.5637 -1.4684
  405MOL0     H54659   7.681   2.499   6.471 -3.4669 -0.2320 -0.8239
  405MOL0     H54660   7.909   2.483   6.365  0.3399  0.5060  0.6807
  405MOL0     H54661   8.098   2.489   5.956  0.0322 -0.7530 -1.6057
  405MOL0     H54662   8.274   2.459   5.804  2.0529 -1.7993  1.9137
  405MOL0     H54663   8.593   2.486   5.656 -2.2493  0.0549 -1.2548
  405MOL0     H54664   8.466   2.397   5.748  0.8161 -1.4303 -1.1156
  405MOL0     H54665   8.688   2.291   5.774  0.6060 -0.5642  1.5473
  405MOL0     H54666   8.652   2.371   5.929  3.0105  2.2764  1.3838
  405MOL0     H54667   8.778   2.570   5.821  0.4849  0.3693 -0.7576
  405MOL0     H54668   8.836   2.468   5.692 -0.9696  3.0235 -0.5383
  405MOL0     H54669   9.010   2.480   5.846  1.0857 -2.8940  0.4651
  405MOL0     H54670   8.901   2.443   5.989 -1.5318  1.0754  0.3140
  405MOL0     H54671   8.975   2.050   5.846  0.1801 -0.4749  1.3118
  405MOL0     H54672   8.516   2.756   6.009 -0.2984  1.6055 -0.1879
  405MOL0     H54673   8.291   2.947   6.139 -0.1492  0.4365  0.7232
  405MOL0     H54674   8.322   2.841   6.270  1.3259  1.1580 -0.4757
  405MOL0     H54675   8.453   2.867   6.156  1.3651 -3.2067 -0.3759
  406MOL0     O54676   8.396   9.969   9.298 -0.0323 -0.8529 -0.1749
  406MOL0     C54677   8.339   9.860   9.300 -1.3004  0.7160 -0.2166
  406MOL0     O54678   8.389   9.751   9.236 -0.1085  0.2201 -0.1065
  406MOL0     C54679   8.512   9.738   9.172 -0.8492 -0.6730 -0.8455
  406MOL0     C54680   8.533   9.658   9.058 -0.7038  0.4718 -0.6370
  406MOL0     C54681   8.646   9.656   8.976  1.0685 -0.3302  0.4203
  406MOL0     C54682   8.752   9.735   9.013  1.5718 -0.1978 -0.8714
  406MOL0     O54683   8.865   9.734   8.937 -0.7081  0.2633 -0.5425
  406MOL0     C54684   8.985   9.719   9.016  0.2702 -0.6426 -0.3023
  406MOL0     C54685   9.122   9.707   8.926  0.8032 -0.0888 -0.0092
  406MOL0     C54686   9.171   9.570   8.898 -0.3591 -0.2001 -1.1031
  406MOL0     C54687   9.247   9.494   9.018  0.0440  0.5502 -0.2068
  406MOL0     C54688   9.404   9.467   8.984  0.0661  0.8075 -0.1596
  406MOL0     C54689   9.472   9.385   9.094 -0.1073 -0.0507  0.0512
  406MOL0     C54690   9.605   9.333   9.045 -0.5196 -0.4019  0.0900
  406MOL0     C54691   9.657   9.237   9.160  1.1926 -0.3764  0.2657
  406MOL0     N54692   9.791   9.180   9.122  0.2953  0.0401 -0.1833
  406MOL0     C54693   9.800   9.082   9.034 -0.1394  0.0883  0.9025
  406MOL0     C54694   9.936   9.048   9.036  0.0679  0.0282 -0.4489
  406MOL0     C54695  10.004   8.952   8.947 -0.1529 -0.5769  0.5839
  406MOL0     C54696  10.136   8.884   8.984 -1.0590 -0.2086 -0.6583
  406MOL0     C54697  10.118   8.781   9.104 -0.8963  0.4656  0.0099
  406MOL0     C54698  10.260   8.772   9.162 -0.8201  0.3770 -0.3203
  406MOL0     O54699  10.347   8.683   9.079 -0.2216 -0.1583 -0.0654
  406MOL0     C54700  10.473   8.654   9.121 -0.6218 -0.4103 -0.2559
  406MOL0     C54701  10.520   8.681   9.251 -0.2193 -0.8657  0.6306
  406MOL0     C54702  10.646   8.640   9.294 -0.2698  0.5440 -1.2383
  406MOL0     C54703  10.732   8.568   9.210 -1.1934 -0.0403 -0.1177
  406MOL0     C54704  10.875   8.546   9.252 -0.1682  0.3434  0.0574
  406MOL0     O54705  10.898   8.565   9.384  0.1185 -0.2442 -0.2344
  406MOL0     C54706  11.017   8.535   9.441  0.0612 -0.2662  0.1542
  406MOL0     C54707  11.015   8.414   9.508 -0.6406 -0.9093 -0.4804
  406MOL0     C54708  11.131   8.373   9.573 -0.7416  0.2090  0.4147
  406MOL0     C54709  11.242   8.450   9.568  0.3654  0.3874  0.7904
  406MOL0     O54710  11.350   8.388   9.626 -0.1489  0.4506  0.7223
  406MOL0     C54711  11.398   8.452   9.736  0.1895 -0.8126  0.1556
  406MOL0     C54712  11.491   8.364   9.812 -0.6702 -0.8564 -0.6735
  406MOL0     C54713  11.438   8.220   9.845 -0.0719  0.3243 -0.2497
  406MOL0     C54714  11.515   8.147   9.953  0.1418 -0.7678  0.0956
  406MOL0     C54715  11.508   8.001   9.914 -0.1061  0.6626 -0.4743
  406MOL0     C54716  11.552   7.927  10.035  0.5693  1.3271 -0.0763
  406MOL0     C54717  11.590   7.784   9.998  0.1095 -0.0594  0.0448
  406MOL0     C54718  11.566   7.687  10.115  0.0252  0.0104 -0.3308
  406MOL0    Cl54719  11.626   7.535  10.066 -0.0829  0.4876  0.6271
  406MOL0     C54720  11.241   8.574   9.502 -0.0086  0.2269 -0.9494
  406MOL0     C54721  11.130   8.616   9.430  0.7484 -0.1291  0.5397
  406MOL0     O54722  10.959   8.509   9.174 -0.0129 -0.1193 -0.3473
  406MOL0     C54723  10.679   8.524   9.087  0.8163  1.5795 -0.0094
  406MOL0     C54724  10.549   8.564   9.050 -0.2041  0.5151 -0.6209
  406MOL0     N54725   9.998   9.126   9.135  0.8440  0.0300  0.1488
  406MOL0     N54726   9.906   9.212   9.173 -0.5220 -1.6067 -0.4758
  406MOL0     C54727   8.741   9.825   9.126 -0.3953  0.7270  0.4001
  406MOL0     C54728   8.614   9.823   9.199 -1.0894 -0.7541 -0.9567
  406MOL0     C54729   8.230   9.842   9.398  0.1125 -0.2077 -0.2326
  406MOL0     C54730   8.199   9.708   9.425  0.5122 -0.2781 -0.0740
  406MOL0     C54731   8.105   9.683   9.528  0.2504  0.8529  0.4461
  406MOL0     C54732   8.035   9.788   9.592  0.0090  0.4402 -0.2348
  406MOL0     O54733   7.927   9.786   9.676 -0.8403  0.0520 -0.2642
  406MOL0     C54734   7.844   9.669   9.700 -0.0720 -0.9208  0.1377
  406MOL0     C54735   7.737   9.659   9.581 -1.6774  0.0438  0.2876
  406MOL0     C54736   7.645   9.551   9.630  0.8804 -0.4555  0.4064
  406MOL0     C54737   7.531   9.490   9.540 -0.0903 -0.0846 -0.0265
  406MOL0     C54738   7.586   9.435   9.415 -0.0227  0.1589  0.5294
  406MOL0     C54739   7.629   9.393   9.308 -0.7454 -0.0453 -1.1001
  406MOL0     C54740   8.077   9.910   9.567  0.2645 -0.6794  0.4299
  406MOL0     C54741   8.168   9.944   9.468  0.4648 -0.7541 -0.2143
  406MOL0     C54742   8.196  10.092   9.465  0.3977  0.1851  0.4151
  406MOL0     H54743   8.451   9.595   9.023  1.7257 -2.4795 -1.4872
  406MOL0     H54744   8.645   9.598   8.884 -0.7857 -0.9576  0.7901
  406MOL0     H54745   9.007   9.803   9.083  2.7980 -2.2844  1.0731
  406MOL0     H54746   8.982   9.628   9.077 -1.8041  0.5146  1.4643
  406MOL0     H54747   9.206   9.764   8.966 -0.6747  1.5891  0.8855
  406MOL0     H54748   9.092   9.761   8.836 -3.5766  0.0684  1.2879
  406MOL0     H54749   9.232   9.578   8.808 -0.0240 -0.1268 -0.8689
  406MOL0     H54750   9.086   9.506   8.870 -1.1017 -0.9433  2.3294
  406MOL0     H54751   9.244   9.535   9.119  0.9572 -1.6487  0.7804
  406MOL0     H54752   9.191   9.400   9.026 -0.3799  0.7511 -0.7499
  406MOL0     H54753   9.398   9.409   8.892 -1.2727  1.7522 -0.7007
  406MOL0     H54754   9.463   9.559   8.973 -0.9391  1.5663  0.6120
  406MOL0     H54755   9.485   9.440   9.188  0.3465 -0.6088  0.3196
  406MOL0     H54756   9.410   9.299   9.121  0.9914 -0.9545 -0.2300
  406MOL0     H54757   9.677   9.413   9.024 -1.0893  0.5131  1.4399
  406MOL0     H54758   9.596   9.277   8.952 -1.0615  3.5759 -2.4535
  406MOL0     H54759   9.666   9.287   9.258 -1.2712  0.8721 -0.0576
  406MOL0     H54760   9.572   9.171   9.177 -0.1392  0.1611 -3.5260
  406MOL0     H54761   9.721   9.043   8.970  0.1566 -0.3241  0.7809
  406MOL0     H54762   9.935   8.870   8.925 -0.0038 -0.0679 -2.0772
  406MOL0     H54763  10.032   9.012   8.860  3.0444 -0.9107  1.2347
  406MOL0     H54764  10.163   8.823   8.897  1.0124 -2.7043  1.5839
  406MOL0     H54765  10.213   8.958   9.005  1.0329 -2.5347  0.3190
  406MOL0     H54766  10.073   8.688   9.069 -0.9178  0.3982  0.2132
  406MOL0     H54767  10.058   8.820   9.187 -0.2142  0.5267  0.4781
  406MOL0     H54768  10.257   8.729   9.263 -0.4216 -1.2822 -0.9848
  406MOL0     H54769  10.300   8.874   9.158 -0.1586  0.1757  0.7424
  406MOL0     H54770  10.454   8.751   9.302 -2.0173 -3.2243  1.6926
  406MOL0     H54771  10.681   8.671   9.392  0.3996 -0.1368 -1.2525
  406MOL0     H54772  10.923   8.357   9.517 -0.4873 -1.1416 -0.3848
  406MOL0     H54773  11.135   8.281   9.630  0.7511 -0.8372 -1.2796
  406MOL0     H54774  11.459   8.535   9.700  1.4530 -2.3233 -1.3352
  406MOL0     H54775  11.317   8.491   9.798  1.3657 -0.8225  1.7741
  406MOL0     H54776  11.591   8.363   9.766  0.0535 -1.9965  0.8238
  406MOL0     H54777  11.509   8.418   9.905 -1.6524 -2.3207  0.4106
  406MOL0     H54778  11.337   8.240   9.882 -0.3178  1.1941 -1.3274
  406MOL0     H54779  11.423   8.151   9.762 -1.7089 -2.2720  2.0273
  406MOL0     H54780  11.472   8.174  10.050  0.6432  1.2661 -0.2082
  406MOL0     H54781  11.618   8.182   9.952  0.4375 -1.5123  1.5159
  406MOL0     H54782  11.581   7.990   9.833  0.9439  1.8389  0.2866
  406MOL0     H54783  11.407   7.968   9.885  0.0782  0.5858 -1.0504
  406MOL0     H54784  11.638   7.972  10.085 -1.1974  1.9123  2.6996
  406MOL0     H54785  11.467   7.930  10.103 -0.4681 -0.3790 -1.2414
  406MOL0     H54786  11.697   7.782   9.975  0.1973 -3.6017  0.2387
  406MOL0     H54787  11.538   7.742   9.911  0.2760  0.5443 -0.3529
  406MOL0     H54788  11.636   7.721  10.192 -1.3158  7.0518 -1.5460
  406MOL0     H54789  11.464   7.676  10.153 -0.7274 -2.7206 -2.7547
  406MOL0     H54790  11.335   8.628   9.509 -1.9913  3.7779  1.6867
  406MOL0     H54791  11.126   8.711   9.378 -0.3871 -0.0261  0.7868
  406MOL0     H54792  10.738   8.455   9.027 -1.2170 -2.1290  1.9110
  406MOL0     H54793  10.509   8.516   8.961 -2.1663 -1.4296  1.1588
  406MOL0     H54794   8.827   9.888   9.145  1.3084 -1.4466  0.2678
  406MOL0     H54795   8.613   9.905   9.271  0.3684 -1.2997 -0.2617
  406MOL0     H54796   8.244   9.628   9.366 -0.7586  1.3113 -3.4478
  406MOL0     H54797   8.086   9.581   9.559  3.0694  0.0826 -0.0566
  406MOL0     H54798   7.788   9.672   9.795  0.7969  0.3195  0.6430
  406MOL0     H54799   7.914   9.585   9.705  1.1000 -0.0323 -0.8688
  406MOL0     H54800   7.806   9.627   9.502 -0.0115  2.7176  0.5344
  406MOL0     H54801   7.700   9.761   9.566 -0.6600  0.0859 -2.8190
  406MOL0     H54802   7.590   9.589   9.717 -3.8255 -2.7286 -1.2463
  406MOL0     H54803   7.704   9.466   9.664  5.5483 -0.2131 -5.5233
  406MOL0     H54804   7.486   9.402   9.588  0.9259 -0.8918 -0.5206
  406MOL0     H54805   7.457   9.564   9.507  0.4541 -0.8279 -3.3338
  406MOL0     H54806   7.662   9.361   9.211  1.3891  3.2059 -1.6347
  406MOL0     H54807   8.027   9.988   9.624  1.2458  1.0416 -0.9609
  406MOL0     H54808   8.130  10.163   9.516  3.7757  2.0539  2.5835
  406MOL0     H54809   8.296  10.117   9.501 -0.1181  1.1733  1.2223
  406MOL0     H54810   8.193  10.123   9.360  0.0963  3.1748  1.2183
  407MOL0     O54811   8.572   1.020   7.837 -0.1776  0.8075  0.2706
  407MOL0     C54812   8.560   0.895   7.836 -0.2332  0.6750  0.3612
  407MOL0     O54813   8.558   0.810   7.943 -1.0843 -0.2375  0.1426
  407MOL0     C54814   8.572   0.871   8.065  0.2463  0.9066 -0.0030
  407MOL0     C54815   8.679   0.950   8.097 -0.5883 -0.2483  0.7496
  407MOL0     C54816   8.696   0.996   8.227 -0.3228 -0.5961  1.4429
  407MOL0     C54817   8.600   0.969   8.321 -0.3947 -1.0224  0.3635
  407MOL0     O54818   8.612   1.006   8.454 -0.7860  0.6786 -0.2371
  407MOL0     C54819   8.739   1.040   8.505  0.2809  0.4232 -0.9169
  407MOL0     C54820   8.744   0.989   8.654  0.2109  0.1162 -0.1703
  407MOL0     C54821   8.883   0.980   8.702  0.4630  0.5134  0.3767
  407MOL0     C54822   8.881   0.939   8.846  1.1548  0.0219  0.1117
  407MOL0     C54823   9.023   0.931   8.882  0.3882  0.3076 -0.5969
  407MOL0     C54824   9.041   0.897   9.028 -0.9984  0.3561  0.4277
  407MOL0     C54825   9.182   0.924   9.086 -0.2332 -0.0752  1.0129
  407MOL0     C54826   9.287   0.846   9.003 -0.3133 -0.4432 -0.1884
  407MOL0     N54827   9.423   0.861   9.067  0.0759 -0.6387  0.0366
  407MOL0     C54828   9.462   0.961   9.149 -0.0193 -0.6364 -0.2537
  407MOL0     C54829   9.578   0.915   9.195 -0.4021 -0.8517 -0.5271
  407MOL0     C54830   9.664   0.970   9.306 -0.6027 -0.1662 -0.1894
  407MOL0     C54831   9.755   0.869   9.388 -0.3738  0.1660 -0.1143
  407MOL0     C54832   9.873   0.823   9.309 -1.0895  0.3097  0.2440
  407MOL0     C54833   9.977   0.742   9.404  0.7923 -0.0367 -0.1017
  407MOL0     O54834   9.914   0.610   9.429  0.4736 -0.6754  0.1028
  407MOL0     C54835   9.979   0.524   9.509 -0.4132 -0.4629 -0.4562
  407MOL0     C54836  10.103   0.557   9.574  0.8549  0.8789  0.5270
  407MOL0     C54837  10.162   0.494   9.677 -0.4567  0.7000  1.2894
  407MOL0     C54838  10.103   0.375   9.723 -1.3092 -0.3102 -0.1264
  407MOL0     C54839  10.171   0.293   9.825  0.7984  0.4224  0.8699
  407MOL0     O54840  10.108   0.184   9.858  0.5681  0.1888 -0.1934
  407MOL0     C54841  10.128   0.123   9.974  0.3860  0.1387 -1.3583
  407MOL0     C54842  10.164   0.183  10.092  1.1681  0.1443 -0.4458
  407MOL0     C54843  10.180   0.110  10.210 -0.4910 -0.3800 -0.1883
  407MOL0     C54844  10.150  -0.026  10.209 -0.0810 -0.9644 -0.7710
  407MOL0     O54845  10.168  -0.106  10.324 -0.0567  0.3256 -0.2362
  407MOL0     C54846  10.198  -0.046  10.446  0.7692  0.6593  0.6825
  407MOL0     C54847  10.194  -0.159  10.557 -0.0371 -0.4283  0.5297
  407MOL0     C54848  10.224  -0.109  10.699 -0.2603  0.2820 -0.4167
  407MOL0     C54849  10.103  -0.033  10.759 -0.6891 -0.3969 -1.4118
  407MOL0     C54850  10.106  -0.038  10.912 -0.1933 -0.5493 -0.4348
  407MOL0     C54851  10.218   0.053  10.977 -0.1369 -0.8258 -0.2715
  407MOL0     C54852  10.202   0.204  10.981  0.6519 -0.1083  0.4239
  407MOL0     C54853  10.316   0.287  11.047  0.8739  0.3741  0.8694
  407MOL0    Cl54854  10.303   0.458  10.999  0.3277  0.4145  0.2417
  407MOL0     C54855  10.097  -0.082  10.093  0.0715  0.0835 -0.5843
  407MOL0     C54856  10.086  -0.012   9.974 -0.3009  0.5022  0.4792
  407MOL0     O54857  10.272   0.338   9.871 -0.0813  0.0826 -0.4614
  407MOL0     C54858   9.979   0.341   9.669 -0.2832 -0.0949  0.5351
  407MOL0     C54859   9.924   0.405   9.557  0.1237 -0.1696  0.3764
  407MOL0     N54860   9.612   0.805   9.120  0.5106  0.5667 -0.1992
  407MOL0     N54861   9.510   0.762   9.050 -0.2554  0.4116 -0.0276
  407MOL0     C54862   8.487   0.886   8.285  0.3138 -0.2009  0.5807
  407MOL0     C54863   8.468   0.841   8.149 -0.4079 -0.7217 -0.6103
  407MOL0     C54864   8.567   0.839   7.699  1.0265  0.4685  0.2355
  407MOL0     C54865   8.614   0.920   7.594  0.2962  0.6896  0.6033
  407MOL0     C54866   8.614   0.882   7.461  0.2604  0.2062  0.8992
  407MOL0     C54867   8.560   0.759   7.420 -0.2850  0.1118 -0.5908
  407MOL0     O54868   8.578   0.714   7.292  1.1933  0.3502  0.5641
  407MOL0     C54869   8.459   0.637   7.238 -0.3346 -0.6313  1.0206
  407MOL0     C54870   8.322   0.711   7.244  0.0281 -0.7365 -0.1387
  407MOL0     C54871   8.336   0.840   7.168  0.3779  0.4711  0.3605
  407MOL0     C54872   8.191   0.880   7.132 -0.3068  0.1615  0.6256
  407MOL0     C54873   8.118   0.782   7.056 -0.1705  0.7805  0.4747
  407MOL0     C54874   8.044   0.706   6.994  0.5010 -0.8899  0.3040
  407MOL0     C54875   8.508   0.675   7.520  0.4210 -0.0095  0.2562
  407MOL0     C54876   8.508   0.714   7.659 -0.2490  0.6400  0.2982
  407MOL0     C54877   8.438   0.618   7.754 -0.3184 -0.1222  0.1995
  407MOL0     H54878   8.748   0.973   8.017 -0.6059  1.5510  1.2177
  407MOL0     H54879   8.782   1.061   8.240 -0.1447 -0.8923  1.7358
  407MOL0     H54880   8.830   1.000   8.458  0.3684 -1.7760  0.9787
  407MOL0     H54881   8.741   1.148   8.521  0.3557  0.6385 -2.2477
  407MOL0     H54882   8.685   0.898   8.664 -0.6341  0.4968 -1.3879
  407MOL0     H54883   8.695   1.060   8.721 -0.7510 -0.5081 -0.1973
  407MOL0     H54884   8.947   1.068   8.695  4.3661 -1.6935  3.5047
  407MOL0     H54885   8.934   0.894   8.656  0.1956 -1.1888  3.0397
  407MOL0     H54886   8.836   1.016   8.910  0.6366 -0.9177  0.8907
  407MOL0     H54887   8.830   0.845   8.865 -1.2573  0.8752 -1.5993
  407MOL0     H54888   9.068   0.863   8.809 -1.4826  2.0901 -3.6347
  407MOL0     H54889   9.061   1.033   8.872 -0.8136  0.8305 -0.0397
  407MOL0     H54890   8.974   0.962   9.086 -0.1040 -0.5532  2.6039
  407MOL0     H54891   9.018   0.791   9.041 -2.3634  0.4165 -1.1547
  407MOL0     H54892   9.182   0.889   9.190 -1.3635  2.3431  1.8965
  407MOL0     H54893   9.212   1.028   9.071  1.6054 -0.7247 -0.2220
  407MOL0     H54894   9.255   0.741   9.000  2.0028 -1.1986 -1.8007
  407MOL0     H54895   9.300   0.877   8.899  2.6163  3.7068  1.1606
  407MOL0     H54896   9.412   1.050   9.186 -0.9799 -1.5386  0.6911
  407MOL0     H54897   9.743   1.038   9.272  0.2799 -0.7324  0.6518
  407MOL0     H54898   9.603   1.030   9.374  0.3452  3.0456 -1.9566
  407MOL0     H54899   9.787   0.923   9.478 -1.4616 -1.1063  1.0946
  407MOL0     H54900   9.694   0.780   9.407 -1.3293 -0.3086 -4.4743
  407MOL0     H54901   9.928   0.899   9.254 -3.2481  0.5890 -1.6717
  407MOL0     H54902   9.836   0.746   9.240  3.4251 -0.7635 -1.3119
  407MOL0     H54903   9.970   0.800   9.497  0.8719 -5.7673  3.9470
  407MOL0     H54904  10.079   0.728   9.368  0.5548  0.3560 -0.9553
  407MOL0     H54905  10.152   0.653   9.560 -0.3877  1.9125  2.8185
  407MOL0     H54906  10.257   0.527   9.720  0.5578  0.1645 -0.4547
  407MOL0     H54907  10.199   0.286  10.090  1.3493  0.1269 -3.4265
  407MOL0     H54908  10.217   0.158  10.300  0.5325 -0.2408 -0.6779
  407MOL0     H54909  10.296   0.002  10.445  1.9079 -1.4547  2.1944
  407MOL0     H54910  10.131   0.037  10.473  0.4090  1.5073 -2.4361
  407MOL0     H54911  10.091  -0.196  10.556 -0.9017  1.8208 -0.4335
  407MOL0     H54912  10.260  -0.239  10.523  1.1879  0.3825  0.9353
  407MOL0     H54913  10.240  -0.201  10.756 -3.4044 -2.2146 -3.1151
  407MOL0     H54914  10.320  -0.058  10.699  1.3263 -2.4225  1.3906
  407MOL0     H54915  10.006  -0.065  10.718 -0.2419 -0.9328 -2.1007
  407MOL0     H54916  10.115   0.068  10.719  3.4835  0.7561  2.0397
  407MOL0     H54917  10.134  -0.141  10.932  3.9370  0.7155  1.2569
  407MOL0     H54918  10.006  -0.021  10.955  0.2575 -0.4568  0.6002
  407MOL0     H54919  10.225   0.015  11.080  2.3247 -0.2871 -0.1885
  407MOL0     H54920  10.308   0.022  10.924 -1.2046 -4.0834 -0.4184
  407MOL0     H54921  10.107   0.225  11.030 -0.2670 -0.1846 -1.2585
  407MOL0     H54922  10.194   0.238  10.877  0.1561  0.2258  0.5688
  407MOL0     H54923  10.308   0.285  11.156 -0.4021 -0.0602  0.7902
  407MOL0     H54924  10.412   0.243  11.020  1.8029  0.9761  3.0294
  407MOL0     H54925  10.074  -0.188  10.099  1.0690 -0.5146 -4.5858
  407MOL0     H54926  10.058  -0.060   9.881  0.4423 -0.4577  0.7413
  407MOL0     H54927   9.924   0.251   9.698 -1.1645 -0.3526 -1.7567
  407MOL0     H54928   9.826   0.369   9.527  0.1973 -1.1885  1.3261
  407MOL0     H54929   8.413   0.862   8.360 -0.0802 -1.8885 -0.2947
  407MOL0     H54930   8.371   0.796   8.129 -1.8488  2.5285 -1.7587
  407MOL0     H54931   8.653   1.015   7.627  0.3145  0.9916 -0.2767
  407MOL0     H54932   8.656   0.944   7.383 -0.4270 -0.0806  0.2930
  407MOL0     H54933   8.458   0.541   7.291  2.1416 -1.2340  0.1239
  407MOL0     H54934   8.481   0.610   7.134 -0.0757  1.3233  0.5208
  407MOL0     H54935   8.289   0.735   7.346 -0.4095  0.6244 -0.5840
  407MOL0     H54936   8.248   0.644   7.200 -0.0966 -1.1271  0.6438
  407MOL0     H54937   8.398   0.828   7.079 -0.2828 -1.4704  0.1179
  407MOL0     H54938   8.378   0.908   7.242 -1.7456 -1.9150  4.0888
  407MOL0     H54939   8.128   0.910   7.216 -0.5363  1.0413  0.1528
  407MOL0     H54940   8.189   0.972   7.072 -0.6024  1.0095  1.8911
  407MOL0     H54941   7.985   0.638   6.937 -0.9410  0.0687  0.6026
  407MOL0     H54942   8.474   0.576   7.491  0.5498  0.3759 -1.3221
  407MOL0     H54943   8.510   0.564   7.816  0.9245  0.3927 -0.7335
  407MOL0     H54944   8.378   0.674   7.825 -1.9398 -1.2628 -0.2045
  407MOL0     H54945   8.371   0.544   7.708  3.2248 -3.0547 -0.6856
  408MOL0     O54946   3.588   1.717   4.622 -0.3165 -0.1145  0.8581
  408MOL0     C54947   3.547   1.600   4.615 -0.3899 -0.5427  0.0914
  408MOL0     O54948   3.628   1.494   4.579  0.6869 -0.3756  0.0455
  408MOL0     C54949   3.769   1.495   4.584  0.9806  0.2438  0.4185
  408MOL0     C54950   3.856   1.598   4.550  0.1317 -0.6866  0.7356
  408MOL0     C54951   3.996   1.579   4.567  0.2265 -0.0143  0.1854
  408MOL0     C54952   4.054   1.452   4.598  0.9373  0.2256 -0.7701
  408MOL0     O54953   4.181   1.445   4.633  0.0978 -0.1014  0.1181
  408MOL0     C54954   4.239   1.321   4.679  0.0417  0.0271  0.1926
  408MOL0     C54955   4.275   1.220   4.567  0.5076  0.0790 -0.7595
  408MOL0     C54956   4.367   1.287   4.468  0.4774 -0.7714 -0.2683
  408MOL0     C54957   4.384   1.188   4.350 -0.3427 -0.2419  0.1882
  408MOL0     C54958   4.256   1.208   4.263  0.0475 -0.0920  0.2345
  408MOL0     C54959   4.277   1.149   4.117  0.2566 -0.4170 -0.1418
  408MOL0     C54960   4.153   1.160   4.025  0.2537  0.6900  0.1058
  408MOL0     C54961   4.190   1.104   3.885  0.6683  0.7319 -0.8221
  408MOL0     N54962   4.068   1.039   3.828 -0.1415  0.4133 -0.5667
  408MOL0     C54963   3.954   1.105   3.804  0.9081  1.1879  0.0259
  408MOL0     C54964   3.868   1.000   3.782 -0.4756 -0.1805 -0.4583
  408MOL0     C54965   3.721   1.011   3.736 -0.0605 -0.4568 -0.3470
  408MOL0     C54966   3.705   1.064   3.594 -0.0933 -0.2504 -0.1001
  408MOL0     C54967   3.557   1.061   3.563  0.6972 -0.6956 -0.0468
  408MOL0     C54968   3.531   1.117   3.429 -0.1938 -0.1585 -0.0448
  408MOL0     O54969   3.397   1.130   3.401  0.5495  0.2016 -0.8519
  408MOL0     C54970   3.326   1.116   3.282  0.8023  0.6780 -0.2723
  408MOL0     C54971   3.375   1.058   3.166 -0.3305  0.0313  0.6222
  408MOL0     C54972   3.288   1.045   3.051 -0.7334 -1.1013  0.7114
  408MOL0     C54973   3.149   1.066   3.058 -1.0495 -0.7604  0.2584
  408MOL0     C54974   3.064   1.025   2.952 -0.3983 -0.6034  0.1309
  408MOL0     O54975   3.126   0.980   2.827  0.0758  0.0213 -0.3032
  408MOL0     C54976   3.051   0.965   2.720  0.6698 -0.5444  0.5392
  408MOL0     C54977   3.050   1.065   2.623 -0.7066  0.3221  0.4595
  408MOL0     C54978   2.970   1.044   2.514 -0.3149  1.0663  0.3071
  408MOL0     C54979   2.896   0.930   2.498 -0.4204  0.5204  0.7792
  408MOL0     O54980   2.826   0.932   2.378 -0.3563  0.5926  0.2681
  408MOL0     C54981   2.763   0.805   2.345  0.6480  0.3271  0.2123
  408MOL0     C54982   2.740   0.807   2.193 -0.3986  0.4463 -0.0593
  408MOL0     C54983   2.613   0.875   2.154  1.0658 -0.1861  0.2680
  408MOL0     C54984   2.582   0.872   2.011 -0.5299 -0.6013  0.7253
  408MOL0     C54985   2.462   0.947   1.969  0.2110  0.1580 -0.4927
  408MOL0     C54986   2.473   0.982   1.816 -0.7291  0.9588 -1.1641
  408MOL0     C54987   2.341   1.009   1.762  0.2214  0.4464  0.0823
  408MOL0     C54988   2.359   1.018   1.619  0.6630 -0.1257  0.0616
  408MOL0    Cl54989   2.404   0.880   1.526 -0.0849  0.0058  0.0195
  408MOL0     C54990   2.895   0.830   2.600 -0.8418 -0.9136  1.1300
  408MOL0     C54991   2.970   0.852   2.716  0.0355  0.8083  0.2322
  408MOL0     O54992   2.949   1.053   2.969  0.6373 -0.3016  0.9490
  408MOL0     C54993   3.106   1.124   3.173 -0.1299 -0.5207 -0.0811
  408MOL0     C54994   3.190   1.149   3.281  0.6474  0.0347 -0.5159
  408MOL0     N54995   3.929   0.880   3.804  0.0395 -0.0338  0.5267
  408MOL0     N54996   4.052   0.905   3.833  0.5223  0.0693  0.3985
  408MOL0     C54997   3.968   1.345   4.602  0.8159  0.2165  0.2071
  408MOL0     C54998   3.825   1.367   4.600  0.4515  0.3818  0.5093
  408MOL0     C54999   3.399   1.576   4.624 -0.1411 -0.1310 -0.6143
  408MOL0     C55000   3.359   1.445   4.592  0.1258  0.1997  0.1844
  408MOL0     C55001   3.231   1.408   4.604  0.6935  0.0732 -0.6090
  408MOL0     C55002   3.128   1.500   4.636  0.2735 -0.5945 -0.8360
  408MOL0     O55003   2.995   1.456   4.644  0.0955  0.3940 -0.0193
  408MOL0     C55004   2.884   1.564   4.652  0.3466  0.6929  0.0568
  408MOL0     C55005   2.753   1.504   4.603 -0.0541 -0.2116 -0.3137
  408MOL0     C55006   2.754   1.501   4.449 -0.4522  0.4112  0.6037
  408MOL0     C55007   2.623   1.469   4.369  0.1403  0.0325 -0.4690
  408MOL0     C55008   2.557   1.338   4.416  0.0799  0.2351  0.1307
  408MOL0     C55009   2.514   1.235   4.461  0.0859 -0.6013  0.1309
  408MOL0     C55010   3.173   1.639   4.660 -0.3683  0.3396 -0.2343
  408MOL0     C55011   3.302   1.679   4.650 -1.2639  1.6575 -0.3012
  408MOL0     C55012   3.330   1.825   4.669  0.4184 -0.3483 -0.0912
  408MOL0     H55013   3.821   1.696   4.519 -2.1481 -1.7807 -0.4062
  408MOL0     H55014   4.065   1.660   4.545 -2.5101  2.3924 -0.2394
  408MOL0     H55015   4.333   1.344   4.728  1.1904  1.3180 -2.3908
  408MOL0     H55016   4.168   1.272   4.747 -1.1321 -3.5274 -3.2054
  408MOL0     H55017   4.181   1.176   4.533  0.8621 -0.4595 -1.0553
  408MOL0     H55018   4.338   1.136   4.597 -2.0159 -1.8671 -0.5814
  408MOL0     H55019   4.467   1.299   4.511  1.6067 -0.5439 -2.7977
  408MOL0     H55020   4.338   1.389   4.441  2.5123  0.0369  0.4221
  408MOL0     H55021   4.466   1.220   4.285  1.1945 -1.9014  1.2364
  408MOL0     H55022   4.401   1.086   4.384 -1.9821 -0.2120  1.1964
  408MOL0     H55023   4.164   1.159   4.297 -1.9794  1.5107 -2.5322
  408MOL0     H55024   4.232   1.314   4.257 -3.6500 -0.7035  1.6037
  408MOL0     H55025   4.361   1.209   4.081 -0.4159  1.4138  1.1977
  408MOL0     H55026   4.310   1.045   4.121  0.0922 -0.4878 -0.5333
  408MOL0     H55027   4.125   1.266   4.021 -4.0766 -0.2404  0.5319
  408MOL0     H55028   4.067   1.108   4.069  0.2831  0.3864 -0.1853
  408MOL0     H55029   4.236   1.183   3.824 -0.0864  0.3159 -1.9497
  408MOL0     H55030   4.266   1.028   3.904  1.0832  1.7749  2.3275
  408MOL0     H55031   3.921   1.208   3.802 -0.8371  0.6993  1.4231
  408MOL0     H55032   3.676   0.911   3.736 -1.0815 -0.0126 -0.7148
  408MOL0     H55033   3.659   1.074   3.801  0.9084  0.6337 -0.4472
  408MOL0     H55034   3.740   1.167   3.588 -0.5951 -0.0036  0.8941
  408MOL0     H55035   3.779   1.015   3.531  0.7207  0.4344  0.3046
  408MOL0     H55036   3.505   1.131   3.629  1.2977 -0.3199  0.0332
  408MOL0     H55037   3.515   0.961   3.574  1.6699 -1.4385 -2.4483
  408MOL0     H55038   3.577   1.055   3.351  0.9146  1.0212 -0.3521
  408MOL0     H55039   3.570   1.219   3.432 -2.2208  0.6242  1.3250
  408MOL0     H55040   3.479   1.031   3.148 -0.5661 -0.6311  0.1736
  408MOL0     H55041   3.328   0.998   2.962  2.9717  0.1683  1.5292
  408MOL0     H55042   3.125   1.140   2.647  0.5002 -0.6150 -0.2749
  408MOL0     H55043   2.966   1.126   2.442 -0.7421  0.9808  0.2311
  408MOL0     H55044   2.833   0.721   2.355 -1.3288 -1.4696 -0.2731
  408MOL0     H55045   2.675   0.773   2.401  0.9354  2.2374  1.8854
  408MOL0     H55046   2.824   0.851   2.138  0.1485 -0.0891  0.3428
  408MOL0     H55047   2.738   0.700   2.170  1.2964  0.8299 -2.4180
  408MOL0     H55048   2.531   0.827   2.208 -0.8150  0.5554 -1.7756
  408MOL0     H55049   2.603   0.975   2.197  0.5978 -1.3316  3.0309
  408MOL0     H55050   2.568   0.769   1.979 -0.6411 -0.5999  0.7705
  408MOL0     H55051   2.676   0.911   1.969  0.1612  0.9768  3.4817
  408MOL0     H55052   2.450   1.039   2.026  0.9163  1.2942 -2.0904
  408MOL0     H55053   2.377   0.882   1.992  0.1701  0.7731  1.1706
  408MOL0     H55054   2.543   1.065   1.800  0.1737  0.1665 -1.3883
  408MOL0     H55055   2.507   0.890   1.768 -2.8060  1.7306 -4.3797
  408MOL0     H55056   2.298   1.094   1.815  0.6985  0.0061  1.2010
  408MOL0     H55057   2.277   0.920   1.766  2.4063 -1.2223 -0.4003
  408MOL0     H55058   2.264   1.058   1.583 -1.1578 -3.4189  0.7759
  408MOL0     H55059   2.431   1.099   1.599  1.5490 -1.0473 -0.5972
  408MOL0     H55060   2.838   0.738   2.604  3.1020 -3.9968 -2.7883
  408MOL0     H55061   2.976   0.788   2.804  0.6559  0.0969 -0.3257
  408MOL0     H55062   3.002   1.148   3.191  0.2552 -0.6307  2.7615
  408MOL0     H55063   3.145   1.195   3.368  3.0090 -0.5844  1.1417
  408MOL0     H55064   4.006   1.243   4.607  0.6450  0.2066  1.5138
  408MOL0     H55065   3.757   1.284   4.611  3.6646 -2.2096  2.5808
  408MOL0     H55066   3.428   1.367   4.562  0.5891  1.0077 -0.9297
  408MOL0     H55067   3.197   1.311   4.571 -2.0521  1.4539 -2.2220
  408MOL0     H55068   2.900   1.658   4.598  0.0581  1.3704  1.1104
  408MOL0     H55069   2.893   1.593   4.758  1.1956  0.6287  0.0100
  408MOL0     H55070   2.673   1.575   4.626 -1.2960 -2.3064  2.4343
  408MOL0     H55071   2.728   1.413   4.658 -1.3602  0.2733 -0.0757
  408MOL0     H55072   2.824   1.420   4.424 -2.0669 -0.0693 -3.0560
  408MOL0     H55073   2.792   1.595   4.408 -1.0571  0.0252 -0.9135
  408MOL0     H55074   2.551   1.551   4.382  0.0590  0.0094 -0.7597
  408MOL0     H55075   2.646   1.460   4.263 -1.3691  0.2747 -0.8428
  408MOL0     H55076   2.479   1.139   4.494 -0.9243 -1.0280 -2.0123
  408MOL0     H55077   3.101   1.718   4.680 -0.5561 -0.5521  3.2639
  408MOL0     H55078   3.404   1.833   4.749  1.7936 -1.7329 -1.1698
  408MOL0     H55079   3.364   1.884   4.584  3.6652 -1.5685  0.2069
  408MOL0     H55080   3.240   1.881   4.698 -1.6828 -1.3642 -3.9068
  409MOL0     O55081   3.433   5.510   1.572 -0.6229  0.1412 -0.5175
  409MOL0     C55082   3.523   5.506   1.497  0.2648 -0.5678  0.0813
  409MOL0     O55083   3.642   5.554   1.523 -0.3795  0.9222  0.2465
  409MOL0     C55084   3.671   5.631   1.632 -0.3078  0.4399 -0.1219
  409MOL0     C55085   3.594   5.737   1.672  0.2440  0.4275  0.0604
  409MOL0     C55086   3.626   5.812   1.790 -0.4015 -0.5055  0.3128
  409MOL0     C55087   3.745   5.789   1.848  1.2511 -0.0950 -0.0548
  409MOL0     O55088   3.778   5.867   1.957 -0.0055  0.5417 -0.0127
  409MOL0     C55089   3.878   5.813   2.047  0.4079  0.1842 -0.5364
  409MOL0     C55090   3.817   5.710   2.148 -0.4994  0.2538 -0.3706
  409MOL0     C55091   3.903   5.694   2.270 -0.0397 -0.0925 -0.1110
  409MOL0     C55092   4.033   5.623   2.238 -0.3317 -0.1921 -0.0347
  409MOL0     C55093   4.108   5.594   2.367 -0.7947 -0.5550  0.6225
  409MOL0     C55094   4.217   5.495   2.346 -0.4457  0.2259  0.0085
  409MOL0     C55095   4.279   5.463   2.479 -0.0489  0.1715  0.4197
  409MOL0     C55096   4.377   5.344   2.476 -0.6902  0.0386 -0.0474
  409MOL0     N55097   4.485   5.369   2.377 -0.6267 -0.6648  0.5548
  409MOL0     C55098   4.535   5.282   2.283 -0.5758 -0.8855  0.0925
  409MOL0     C55099   4.646   5.353   2.237 -0.6608  0.2252 -0.0480
  409MOL0     C55100   4.721   5.294   2.115  0.4023 -0.2098  0.1170
  409MOL0     C55101   4.874   5.332   2.149 -0.4636 -0.4581 -0.0962
  409MOL0     C55102   4.921   5.243   2.274  0.0102 -0.5341  0.4744
  409MOL0     C55103   5.064   5.228   2.268 -0.8868  0.7256  0.3709
  409MOL0     O55104   5.115   5.289   2.389 -0.6398  0.4882 -0.0842
  409MOL0     C55105   5.223   5.252   2.455  0.6370  0.2127 -0.1899
  409MOL0     C55106   5.275   5.331   2.552 -0.0233  0.0514  0.1624
  409MOL0     C55107   5.390   5.305   2.631  0.2021 -0.4674  0.7617
  409MOL0     C55108   5.447   5.177   2.618 -0.0956  0.6829 -0.7650
  409MOL0     C55109   5.566   5.132   2.697 -0.2198  0.9779  0.4758
  409MOL0     O55110   5.601   5.202   2.796  0.2635  0.3026 -0.1343
  409MOL0     C55111   5.677   5.156   2.898 -0.8079 -0.2591 -0.0772
  409MOL0     C55112   5.801   5.102   2.876 -0.3072 -0.3815 -0.3435
  409MOL0     C55113   5.883   5.084   2.987 -0.8236  0.1825 -1.4608
  409MOL0     C55114   5.836   5.094   3.114 -0.0721 -0.1506 -0.0936
  409MOL0     O55115   5.899   5.051   3.224  0.2039  0.1414  0.2766
  409MOL0     C55116   6.041   5.048   3.237 -0.2788 -0.6498  0.2562
  409MOL0     C55117   6.071   5.111   3.374 -0.8851 -0.2121  0.1057
  409MOL0     C55118   6.219   5.144   3.385 -0.5188  0.3060  0.6896
  409MOL0     C55119   6.259   5.286   3.337 -0.4304  0.0857  0.4811
  409MOL0     C55120   6.416   5.299   3.349 -0.8177  0.1009 -0.6560
  409MOL0     C55121   6.450   5.316   3.500 -0.1202  0.1093  0.0213
  409MOL0     C55122   6.604   5.335   3.525  0.4705 -0.2972 -0.2924
  409MOL0     C55123   6.637   5.267   3.656 -0.3228 -0.0725  0.5358
  409MOL0    Cl55124   6.802   5.297   3.733  0.0081 -0.2871  0.4862
  409MOL0     C55125   5.704   5.146   3.135 -0.6878 -0.1805 -0.7120
  409MOL0     C55126   5.625   5.176   3.024  0.8019 -0.6770  0.7630
  409MOL0     O55127   5.620   5.026   2.662  0.7727 -0.2417  0.0351
  409MOL0     C55128   5.403   5.103   2.505 -0.0111 -0.1797 -0.5276
  409MOL0     C55129   5.309   5.146   2.414  0.0705 -0.1179  0.2331
  409MOL0     N55130   4.663   5.476   2.304  0.6317  0.8294 -0.2261
  409MOL0     N55131   4.562   5.485   2.389  0.0150 -0.0460 -0.6099
  409MOL0     C55132   3.822   5.687   1.807  1.1130  0.7948 -0.2110
  409MOL0     C55133   3.783   5.606   1.700  1.0119 -0.7257  1.0013
  409MOL0     C55134   3.485   5.453   1.365 -0.3215  0.4002 -0.4111
  409MOL0     C55135   3.451   5.541   1.259 -0.2561 -0.5418 -0.0522
  409MOL0     C55136   3.383   5.501   1.144 -0.0887  0.0044 -0.8081
  409MOL0     C55137   3.354   5.369   1.137 -1.3418  0.5053  0.5987
  409MOL0     O55138   3.272   5.337   1.036  0.3077 -0.3658  0.7069
  409MOL0     C55139   3.279   5.204   0.972  0.1128 -0.2583 -2.0386
  409MOL0     C55140   3.166   5.193   0.878 -0.7155  0.3744 -0.0530
  409MOL0     C55141   3.181   5.051   0.799  1.2239 -0.6637 -0.2297
  409MOL0     C55142   3.107   5.071   0.671  0.3175  0.8618 -0.5374
  409MOL0     C55143   2.964   5.064   0.697 -0.0122  0.5221 -0.0496
  409MOL0     C55144   2.840   5.034   0.706 -0.0815 -0.6498  0.0418
  409MOL0     C55145   3.402   5.272   1.230 -0.4496 -0.3552  0.3406
  409MOL0     C55146   3.467   5.315   1.344  1.1973 -0.8025  0.2353
  409MOL0     C55147   3.493   5.220   1.461 -2.0160 -0.1460 -1.2978
  409MOL0     H55148   3.499   5.754   1.622  0.9781  4.5691 -0.2450
  409MOL0     H55149   3.567   5.888   1.839 -1.0263 -0.6038 -0.2652
  409MOL0     H55150   3.964   5.774   1.991 -2.3782 -0.7992 -4.5942
  409MOL0     H55151   3.902   5.897   2.112  1.0002 -0.9102  0.6985
  409MOL0     H55152   3.817   5.608   2.108  0.3001 -0.1934  0.7159
  409MOL0     H55153   3.716   5.748   2.164  0.7377  3.5241  0.4125
  409MOL0     H55154   3.846   5.625   2.334 -1.7996 -0.2062 -1.7136
  409MOL0     H55155   3.921   5.786   2.326  1.9977 -2.5782  3.8265
  409MOL0     H55156   4.017   5.526   2.189  2.7124 -0.3449 -0.9305
  409MOL0     H55157   4.093   5.695   2.182 -0.4687  0.3758  0.5372
  409MOL0     H55158   4.157   5.689   2.393  0.8517 -1.0248 -0.5647
  409MOL0     H55159   4.039   5.560   2.444 -0.5559 -2.8573 -0.1138
  409MOL0     H55160   4.177   5.399   2.310  0.0311  0.4206 -1.0912
  409MOL0     H55161   4.294   5.531   2.277  0.0499 -0.1728  0.3453
  409MOL0     H55162   4.204   5.428   2.550 -0.6670  2.1933  0.8413
  409MOL0     H55163   4.324   5.555   2.517 -1.8657  0.9231  0.8255
  409MOL0     H55164   4.431   5.326   2.570  0.7831 -1.9142 -1.2072
  409MOL0     H55165   4.333   5.249   2.446 -2.7002  1.3191 -1.4010
  409MOL0     H55166   4.497   5.187   2.248  0.1145 -0.7685 -1.0215
  409MOL0     H55167   4.693   5.190   2.099 -3.8982  1.1381 -3.3588
  409MOL0     H55168   4.697   5.351   2.025  2.5731  3.1838  1.4713
  409MOL0     H55169   4.919   5.314   2.051 -2.1884 -0.3103 -0.9563
  409MOL0     H55170   4.883   5.439   2.167  0.1594 -0.8093  1.9591
  409MOL0     H55171   4.883   5.141   2.258 -1.4155  0.0828 -0.2610
  409MOL0     H55172   4.886   5.286   2.368 -0.7109  1.7016 -0.7561
  409MOL0     H55173   5.117   5.272   2.183  2.0517  1.5846  2.4763
  409MOL0     H55174   5.090   5.122   2.273  1.2585  1.2655  2.8489
  409MOL0     H55175   5.223   5.424   2.567 -4.2383 -2.1631  0.8742
  409MOL0     H55176   5.425   5.380   2.702  0.6732 -0.5712  0.6381
  409MOL0     H55177   5.835   5.088   2.774 -2.6989  0.1685 -1.2627
  409MOL0     H55178   5.980   5.046   2.960  0.4404 -0.9635  3.6108
  409MOL0     H55179   6.075   4.946   3.217  1.4940  0.3788 -2.6700
  409MOL0     H55180   6.095   5.110   3.165  0.9932 -0.6552  1.1538
  409MOL0     H55181   6.015   5.205   3.374  1.5491  1.3918  2.4258
  409MOL0     H55182   6.040   5.039   3.450  0.4569  2.3186  3.3118
  409MOL0     H55183   6.243   5.120   3.488  0.0153 -1.3634  0.2087
  409MOL0     H55184   6.274   5.069   3.327  0.9133  0.5198  1.7316
  409MOL0     H55185   6.207   5.354   3.405 -0.6865 -0.4980  0.8777
  409MOL0     H55186   6.228   5.298   3.233 -1.2741  1.1957  0.8475
  409MOL0     H55187   6.459   5.383   3.294  3.6737 -1.2967  0.2935
  409MOL0     H55188   6.460   5.205   3.314  1.8101  0.7771  0.6032
  409MOL0     H55189   6.395   5.409   3.520 -2.4219 -1.6529  2.7171
  409MOL0     H55190   6.408   5.230   3.553  1.8756 -1.6711 -1.1503
  409MOL0     H55191   6.621   5.443   3.528  2.1721 -0.5418  0.9609
  409MOL0     H55192   6.669   5.294   3.447  1.8900 -4.1966  2.5816
  409MOL0     H55193   6.562   5.302   3.728 -2.0686  3.3281 -2.6332
  409MOL0     H55194   6.624   5.160   3.640 -2.6330  0.3257 -0.5982
  409MOL0     H55195   5.674   5.143   3.239  1.5461 -1.4466 -0.0315
  409MOL0     H55196   5.527   5.220   3.032  0.1729 -2.2949  2.5668
  409MOL0     H55197   5.434   5.003   2.478 -1.8073 -0.4796 -1.6533
  409MOL0     H55198   5.284   5.072   2.339  2.8528 -0.7719 -0.1789
  409MOL0     H55199   3.918   5.663   1.851  1.7582  0.6732 -1.6252
  409MOL0     H55200   3.845   5.522   1.673  0.5891 -1.0354  0.9860
  409MOL0     H55201   3.463   5.648   1.268 -1.4277 -0.4971  1.2372
  409MOL0     H55202   3.340   5.575   1.077 -1.2048  0.6895  0.5979
  409MOL0     H55203   3.256   5.113   1.029 -1.0899  1.6500  0.7314
  409MOL0     H55204   3.382   5.189   0.936  1.1255  2.3657 -0.4865
  409MOL0     H55205   3.171   5.270   0.801  1.3574 -2.6612 -3.2501
  409MOL0     H55206   3.075   5.191   0.938  0.7355 -0.0355  2.2692
  409MOL0     H55207   3.155   4.957   0.849  2.2820 -0.6351  0.4108
  409MOL0     H55208   3.284   5.035   0.765  0.7108 -4.7919 -0.3608
  409MOL0     H55209   3.143   5.163   0.625  2.3033 -0.0838 -0.9680
  409MOL0     H55210   3.121   4.993   0.596  0.1849  0.0661  0.2514
  409MOL0     H55211   2.738   5.005   0.717 -1.3332  3.2677  0.5160
  409MOL0     H55212   3.377   5.168   1.211  1.1752 -0.7754  0.3355
  409MOL0     H55213   3.593   5.223   1.504 -2.6310  2.6775  0.2059
  409MOL0     H55214   3.421   5.247   1.539 -1.1218 -2.8937  0.6318
  409MOL0     H55215   3.470   5.118   1.430 -1.0145 -0.0137 -2.5668
  410MOL0     O55216   9.129   6.532   2.271 -0.0985 -0.4996 -0.0393
  410MOL0     C55217   9.101   6.650   2.274  0.5299  0.1994  0.0091
  410MOL0     O55218   9.007   6.704   2.363  0.4515 -0.0247 -0.3086
  410MOL0     C55219   8.952   6.610   2.446  0.6664 -0.2996  0.4445
  410MOL0     C55220   8.849   6.534   2.403 -0.2915 -0.5542  0.0361
  410MOL0     C55221   8.780   6.445   2.490 -0.0548 -0.5912 -0.3278
  410MOL0     C55222   8.818   6.428   2.626  0.3366 -0.6580 -1.1415
  410MOL0     O55223   8.741   6.357   2.717  0.5424 -0.0093 -0.3735
  410MOL0     C55224   8.648   6.436   2.786  0.0678 -0.3765 -0.2152
  410MOL0     C55225   8.594   6.378   2.915 -1.1341 -0.3473 -0.1958
  410MOL0     C55226   8.563   6.226   2.901  0.2289  0.1553 -0.0292
  410MOL0     C55227   8.491   6.186   3.023  0.2077 -0.3096 -0.7023
  410MOL0     C55228   8.419   6.048   3.022  0.1335  0.4506  0.8446
  410MOL0     C55229   8.395   5.994   3.157 -0.4496  0.0028  0.4090
  410MOL0     C55230   8.294   6.067   3.234 -0.1103 -0.6487  0.3245
  410MOL0     C55231   8.276   6.003   3.372  0.3844 -0.6303  1.0010
  410MOL0     N55232   8.173   6.054   3.462 -0.3492 -0.8132  1.1258
  410MOL0     C55233   8.180   6.176   3.518  0.6284 -0.8483 -1.0732
  410MOL0     C55234   8.074   6.161   3.610 -1.6059 -0.6200 -0.0484
  410MOL0     C55235   8.020   6.272   3.692  0.3322 -0.3825  0.3799
  410MOL0     C55236   8.067   6.264   3.844  0.2637 -1.0520 -0.2575
  410MOL0     C55237   8.015   6.138   3.917  0.6776 -0.4289  1.0599
  410MOL0     C55238   8.046   6.136   4.061 -0.0071  0.4073 -0.3607
  410MOL0     O55239   8.188   6.157   4.085  1.0420 -0.0528 -0.5191
  410MOL0     C55240   8.254   6.095   4.193 -0.3353 -0.5682  0.0755
  410MOL0     C55241   8.210   6.093   4.325 -0.2182  0.5148 -0.2563
  410MOL0     C55242   8.290   6.033   4.427  0.3352  0.7811 -0.0096
  410MOL0     C55243   8.418   5.978   4.400 -0.8566 -0.3689 -0.4757
  410MOL0     C55244   8.493   5.919   4.507  0.4151  1.5779 -0.1803
  410MOL0     O55245   8.442   5.941   4.629  0.3293 -0.5567  0.3641
  410MOL0     C55246   8.510   5.920   4.740  0.2649  0.7404  0.1921
  410MOL0     C55247   8.438   5.852   4.830 -0.0012 -0.3386  0.2767
  410MOL0     C55248   8.480   5.814   4.956  0.1035 -0.5522 -0.2531
  410MOL0     C55249   8.611   5.843   4.993 -0.2109 -0.0232 -0.1168
  410MOL0     O55250   8.661   5.789   5.111 -0.1544 -0.3611 -0.1770
  410MOL0     C55251   8.783   5.847   5.161  0.4248  0.5937 -0.8530
  410MOL0     C55252   8.811   5.788   5.298 -0.0462  0.1132  0.5531
  410MOL0     C55253   8.931   5.863   5.356 -0.1509  0.0252 -0.0325
  410MOL0     C55254   8.895   5.958   5.463  0.4003 -0.6454 -0.4441
  410MOL0     C55255   8.780   6.042   5.437  0.1502 -0.9381  0.0771
  410MOL0     C55256   8.754   6.143   5.558  0.4175 -0.2196  0.0231
  410MOL0     C55257   8.619   6.216   5.558  0.3240  0.2697 -0.2035
  410MOL0     C55258   8.605   6.299   5.430  0.1783 -0.3691 -0.8492
  410MOL0    Cl55259   8.430   6.302   5.377  0.2751 -0.0464 -0.1003
  410MOL0     C55260   8.698   5.913   4.898  1.1612  0.0608 -0.0885
  410MOL0     C55261   8.640   5.949   4.770 -0.1711  0.4364 -0.3228
  410MOL0     O55262   8.600   5.866   4.476 -0.8564  0.4595 -0.1139
  410MOL0     C55263   8.464   5.993   4.267 -0.7641 -0.1762  0.4042
  410MOL0     C55264   8.380   6.050   4.170 -0.6931 -0.1869  0.4849
  410MOL0     N55265   8.011   6.041   3.601  0.3222  0.3213 -0.6068
  410MOL0     N55266   8.077   5.975   3.514  0.4150  0.6719  0.6295
  410MOL0     C55267   8.927   6.506   2.669  0.1451 -0.8175 -0.5739
  410MOL0     C55268   8.977   6.604   2.582 -0.5720 -0.4911 -0.7786
  410MOL0     C55269   9.141   6.730   2.152  0.8573  0.1333  0.5643
  410MOL0     C55270   9.177   6.656   2.037  0.2775 -0.0618 -0.9267
  410MOL0     C55271   9.205   6.716   1.917 -0.8473  0.9874 -0.2084
  410MOL0     C55272   9.180   6.851   1.893  0.4831 -0.4008 -0.4824
  410MOL0     O55273   9.210   6.902   1.772 -0.1799  0.0099  0.7999
  410MOL0     C55274   9.107   6.972   1.697  0.9117  0.0595  0.5740
  410MOL0     C55275   9.076   7.115   1.748 -0.3640  0.1572  0.3880
  410MOL0     C55276   9.199   7.198   1.720 -0.1653  0.2412  0.0144
  410MOL0     C55277   9.184   7.329   1.791 -0.3024  0.0845 -1.5033
  410MOL0     C55278   9.094   7.420   1.715 -0.5399  0.7121  0.4515
  410MOL0     C55279   9.024   7.498   1.643 -0.7422  0.3411 -0.3133
  410MOL0     C55280   9.151   6.922   2.015 -0.4674 -0.5128  0.0305
  410MOL0     C55281   9.140   6.867   2.143  0.8200  0.2633  0.5344
  410MOL0     C55282   9.130   6.978   2.253 -0.2096  0.5700 -0.7434
  410MOL0     H55283   8.824   6.538   2.297  1.1669  2.4033 -0.2953
  410MOL0     H55284   8.693   6.387   2.460  0.5912 -0.5436 -2.4488
  410MOL0     H55285   8.692   6.528   2.827 -2.1124  0.2082  0.9659
  410MOL0     H55286   8.558   6.464   2.730 -0.1257  0.1914  0.3579
  410MOL0     H55287   8.507   6.437   2.947  0.1447  0.1618  2.7291
  410MOL0     H55288   8.678   6.396   2.983 -0.0720  0.3795 -1.6435
  410MOL0     H55289   8.657   6.170   2.906 -0.4174 -0.9961 -0.2735
  410MOL0     H55290   8.515   6.201   2.806 -2.0599  2.1985  0.4888
  410MOL0     H55291   8.554   6.188   3.112 -4.5871  0.3946  3.0563
  410MOL0     H55292   8.418   6.264   3.044  1.5093  0.7428  0.0139
  410MOL0     H55293   8.333   6.040   2.955  0.7450  0.4140  0.0472
  410MOL0     H55294   8.484   5.975   2.972 -1.5902  0.1889 -1.1231
  410MOL0     H55295   8.355   5.893   3.151 -3.3051  0.9864  1.2557
  410MOL0     H55296   8.486   6.005   3.216  0.0603 -0.8861 -0.1981
  410MOL0     H55297   8.199   6.074   3.180  0.2956  1.1047 -0.1983
  410MOL0     H55298   8.319   6.173   3.231 -0.4626 -0.4896  2.1629
  410MOL0     H55299   8.236   5.901   3.365 -0.6332 -0.2812  1.5495
  410MOL0     H55300   8.374   5.982   3.416 -0.1243 -0.5628  2.2111
  410MOL0     H55301   8.232   6.261   3.476 -2.2357  0.5687 -2.0491
  410MOL0     H55302   8.041   6.372   3.652 -0.4588 -0.6265 -0.6985
  410MOL0     H55303   7.911   6.260   3.697  0.3524 -0.6152  0.2830
  410MOL0     H55304   8.176   6.269   3.845  0.2588  0.8677 -2.2188
  410MOL0     H55305   8.029   6.351   3.897  1.5399 -0.5165 -0.1994
  410MOL0     H55306   8.061   6.055   3.862 -2.6857 -1.7218 -0.0234
  410MOL0     H55307   7.909   6.128   3.894  1.0831  0.0617 -1.3964
  410MOL0     H55308   7.993   6.061   4.119 -3.1903  2.4744 -0.3452
  410MOL0     H55309   8.001   6.230   4.097 -1.4805 -1.2228  2.3659
  410MOL0     H55310   8.112   6.132   4.348 -0.8389 -1.7651  1.2231
  410MOL0     H55311   8.246   6.028   4.526  0.0760  0.6864 -0.1260
  410MOL0     H55312   8.339   5.824   4.796  1.6001 -3.0403 -2.7841
  410MOL0     H55313   8.409   5.757   5.016  0.8178 -0.0159  1.1472
  410MOL0     H55314   8.862   5.808   5.096 -0.8083 -1.9343 -0.9524
  410MOL0     H55315   8.769   5.955   5.166  0.0193  0.6153 -2.0741
  410MOL0     H55316   8.721   5.776   5.359 -1.7457 -3.3304 -2.2430
  410MOL0     H55317   8.836   5.685   5.272 -1.7529 -0.4724  1.1082
  410MOL0     H55318   9.012   5.796   5.388  1.8395  0.5860 -3.3444
  410MOL0     H55319   8.977   5.930   5.282  1.9807 -1.7364 -0.4280
  410MOL0     H55320   8.979   6.025   5.485 -0.2807  0.4659 -1.1160
  410MOL0     H55321   8.860   5.891   5.542 -1.4197 -0.4852 -1.0750
  410MOL0     H55322   8.687   5.985   5.428 -1.3076  1.2941  0.0842
  410MOL0     H55323   8.805   6.097   5.346  0.8636  1.5915  1.6879
  410MOL0     H55324   8.754   6.082   5.649 -0.4269  0.7568  0.7071
  410MOL0     H55325   8.838   6.213   5.563  1.2279 -1.1390 -0.2574
  410MOL0     H55326   8.601   6.275   5.648  0.5162  1.0778 -0.6911
  410MOL0     H55327   8.538   6.143   5.567 -0.9005  1.7357  1.1036
  410MOL0     H55328   8.656   6.392   5.456  2.2528 -1.7136  0.1868
  410MOL0     H55329   8.659   6.258   5.345  0.5462  0.4803 -1.0374
  410MOL0     H55330   8.801   5.941   4.915  0.5351  4.1990 -1.9427
  410MOL0     H55331   8.701   6.016   4.710 -0.4822  1.2645  0.2493
  410MOL0     H55332   8.566   5.968   4.241 -0.9133  0.0184 -0.4141
  410MOL0     H55333   8.414   6.068   4.068 -2.0446 -2.9094 -0.5389
  410MOL0     H55334   8.951   6.503   2.775  2.3856  0.5683 -0.9742
  410MOL0     H55335   9.048   6.671   2.629 -1.0824  1.2593 -2.3798
  410MOL0     H55336   9.184   6.549   2.048 -2.8913 -0.4390 -1.5668
  410MOL0     H55337   9.238   6.650   1.837  0.0133  3.5618 -2.1062
  410MOL0     H55338   9.019   6.907   1.693 -0.5922  2.0326 -0.0202
  410MOL0     H55339   9.136   6.975   1.592 -2.4134  1.6868 -0.4289
  410MOL0     H55340   9.036   7.120   1.850  2.6990 -0.6770  1.7348
  410MOL0     H55341   8.991   7.147   1.686  1.0139 -0.4433 -1.9079
  410MOL0     H55342   9.211   7.212   1.612  1.5935 -1.5023 -0.0691
  410MOL0     H55343   9.287   7.139   1.747 -2.0700 -2.4448  0.7173
  410MOL0     H55344   9.155   7.321   1.896  2.2921  0.4807 -0.6833
  410MOL0     H55345   9.285   7.371   1.786  0.2366 -0.9680  0.0654
  410MOL0     H55346   8.977   7.549   1.561  1.1413  3.6448  0.4725
  410MOL0     H55347   9.153   7.031   2.014  2.2297 -0.4480  1.7630
  410MOL0     H55348   9.197   7.061   2.229  1.9826 -1.3354 -1.6762
  410MOL0     H55349   9.026   7.007   2.266  0.4435  3.2450 -1.0142
  410MOL0     H55350   9.173   6.928   2.341  0.3506  0.9299 -0.8059
  411MOL0     O55351   6.048   4.563   9.001  0.1809 -1.1409  0.4081
  411MOL0     C55352   6.064   4.664   9.077  0.6475 -0.3597  0.1700
  411MOL0     O55353   6.123   4.667   9.200  0.4674  0.6128  0.1056
  411MOL0     C55354   6.249   4.615   9.215 -0.0581 -0.1268 -0.5609
  411MOL0     C55355   6.338   4.580   9.112  0.5666  1.0122 -0.1049
  411MOL0     C55356   6.475   4.544   9.145 -0.5366  0.5943 -1.2004
  411MOL0     C55357   6.523   4.557   9.279 -0.0147 -0.1992 -0.7304
  411MOL0     O55358   6.658   4.534   9.316 -0.2400 -0.4163  0.0033
  411MOL0     C55359   6.759   4.610   9.240 -0.0837 -0.3489 -0.1712
  411MOL0     C55360   6.881   4.565   9.317  0.6957  0.2156 -0.0995
  411MOL0     C55361   7.016   4.584   9.250  0.1277 -0.3977  0.0923
  411MOL0     C55362   7.039   4.737   9.210  0.2513  0.4521 -0.7681
  411MOL0     C55363   7.181   4.759   9.166 -0.0287  0.1003 -0.3326
  411MOL0     C55364   7.201   4.750   9.014  1.1135  0.9062  0.0985
  411MOL0     C55365   7.339   4.736   8.964 -0.0844 -0.0188 -0.8588
  411MOL0     C55366   7.419   4.871   8.966  0.9999 -0.0144  0.8910
  411MOL0     N55367   7.337   4.985   8.921  1.0484  0.0811  0.5051
  411MOL0     C55368   7.348   5.024   8.791  0.2464 -0.1303  1.1268
  411MOL0     C55369   7.284   5.139   8.784  1.5783 -0.6411 -0.4089
  411MOL0     C55370   7.260   5.218   8.665 -0.2497  0.0318 -0.5995
  411MOL0     C55371   7.320   5.176   8.524  0.4397  1.1832  0.4143
  411MOL0     C55372   7.300   5.282   8.417 -1.2725 -0.6012  0.0743
  411MOL0     C55373   7.152   5.330   8.401  0.8062 -0.4772  0.1989
  411MOL0     O55374   7.116   5.366   8.264 -0.6592 -0.8324 -0.0465
  411MOL0     C55375   6.987   5.421   8.240  0.2702 -0.4811 -0.6110
  411MOL0     C55376   6.880   5.394   8.322  0.0097  0.2088  0.0077
  411MOL0     C55377   6.754   5.443   8.282  0.0076 -0.6068 -0.7724
  411MOL0     C55378   6.733   5.502   8.160  0.0432 -1.2783  0.2332
  411MOL0     C55379   6.604   5.548   8.118  0.2817  0.5839  0.0701
  411MOL0     O55380   6.496   5.542   8.207 -0.1084  0.4179  0.1741
  411MOL0     C55381   6.370   5.560   8.157 -0.4070 -0.3678  0.2180
  411MOL0     C55382   6.335   5.690   8.108 -0.1490  0.2881 -0.7440
  411MOL0     C55383   6.209   5.722   8.054  0.0623 -0.1045  0.0910
  411MOL0     C55384   6.116   5.626   8.027  0.6330  0.8538  0.0143
  411MOL0     O55385   5.990   5.628   7.975  0.1154 -1.1230 -0.3372
  411MOL0     C55386   5.953   5.765   7.928  0.3823  0.2770  0.6003
  411MOL0     C55387   5.843   5.754   7.815  1.4431 -0.2015 -0.5149
  411MOL0     C55388   5.703   5.751   7.869 -0.0351 -1.0361 -0.1116
  411MOL0     C55389   5.684   5.690   8.006 -0.2597  0.0500  1.1709
  411MOL0     C55390   5.536   5.673   8.035  0.0210  0.3915  0.0933
  411MOL0     C55391   5.452   5.798   8.027 -0.1656 -0.2596 -0.1242
  411MOL0     C55392   5.304   5.770   8.052 -0.3224  1.1933 -0.6266
  411MOL0     C55393   5.259   5.804   8.192  0.6861 -0.0921  0.1146
  411MOL0    Cl55394   5.305   5.669   8.299  0.1493 -0.2471  0.1319
  411MOL0     C55395   6.148   5.494   8.064  0.4513 -0.9710  0.0963
  411MOL0     C55396   6.272   5.459   8.127  0.1621 -0.7778  0.3170
  411MOL0     O55397   6.598   5.584   7.999 -0.5144  0.4456 -0.2960
  411MOL0     C55398   6.848   5.536   8.081  0.0997  0.7580  0.3110
  411MOL0     C55399   6.972   5.493   8.125  0.6478  0.0206 -0.7323
  411MOL0     N55400   7.221   5.159   8.907  0.4161  0.1612  0.6581
  411MOL0     N55401   7.265   5.077   8.993  0.8898  0.4958 -0.2286
  411MOL0     C55402   6.432   4.585   9.378  0.8277 -0.0232 -0.2432
  411MOL0     C55403   6.293   4.615   9.353 -0.1398  0.1061  0.0385
  411MOL0     C55404   6.002   4.789   9.033  0.0056  0.4453 -0.0239
  411MOL0     C55405   5.934   4.854   9.135  0.0789 -0.4039  0.8387
  411MOL0     C55406   5.862   4.970   9.103  0.2948  0.6943  0.0076
  411MOL0     C55407   5.857   5.022   8.975 -0.6382 -0.0946  0.2271
  411MOL0     O55408   5.772   5.130   8.941 -0.2369  0.1237  0.3174
  411MOL0     C55409   5.681   5.193   9.036 -0.6667 -0.1466  0.2104
  411MOL0     C55410   5.629   5.321   8.966 -0.7020  0.1746 -0.8705
  411MOL0     C55411   5.738   5.418   8.916  0.4026  0.4798 -0.4234
  411MOL0     C55412   5.667   5.525   8.832 -0.3960 -0.8718  0.7461
  411MOL0     C55413   5.761   5.632   8.794  0.7021  0.1252 -0.1908
  411MOL0     C55414   5.827   5.727   8.778  0.7331  0.5505  0.7042
  411MOL0     C55415   5.939   4.952   8.878 -0.6882  0.8080  0.0844
  411MOL0     C55416   6.014   4.838   8.905  0.7476 -0.0427  1.0961
  411MOL0     C55417   6.081   4.774   8.789 -0.6549  0.6210  0.9535
  411MOL0     H55418   6.310   4.586   9.007 -0.1402 -0.9299 -0.0641
  411MOL0     H55419   6.541   4.514   9.064 -0.7570  1.9992 -1.9476
  411MOL0     H55420   6.764   4.579   9.135 -0.7649  0.5040 -0.4713
  411MOL0     H55421   6.754   4.720   9.236  2.2327 -0.2107 -0.6541
  411MOL0     H55422   6.882   4.465   9.361 -1.6128 -0.1815 -0.8295
  411MOL0     H55423   6.889   4.634   9.402 -0.3444 -1.1249  1.1383
  411MOL0     H55424   7.022   4.527   9.157 -3.3268  1.2995 -1.3583
  411MOL0     H55425   7.098   4.542   9.309  0.7326 -0.3516 -0.6935
  411MOL0     H55426   6.980   4.774   9.125  2.3459  0.4853 -2.2943
  411MOL0     H55427   7.015   4.799   9.297  2.7211 -2.0646  1.9478
  411MOL0     H55428   7.206   4.860   9.200  3.5027 -0.6329 -0.3354
  411MOL0     H55429   7.245   4.686   9.218 -0.6945  0.0762  0.4732
  411MOL0     H55430   7.140   4.664   8.984  3.5080 -0.2475 -1.7658
  411MOL0     H55431   7.159   4.837   8.963 -1.6704 -1.2105 -1.5102
  411MOL0     H55432   7.334   4.695   8.863 -1.0797 -1.7533 -0.1449
  411MOL0     H55433   7.384   4.664   9.033 -2.2973 -0.1021  0.5816
  411MOL0     H55434   7.448   4.885   9.070  0.7006  1.5905  0.7822
  411MOL0     H55435   7.509   4.873   8.904 -0.7682  2.5090 -1.9055
  411MOL0     H55436   7.400   4.970   8.713  2.8677  3.4443  0.1414
  411MOL0     H55437   7.155   5.248   8.663  0.4504  2.9542  0.9948
  411MOL0     H55438   7.308   5.311   8.696 -0.7855 -0.5602  2.3339
  411MOL0     H55439   7.428   5.169   8.538  0.6018  0.5778 -1.0281
  411MOL0     H55440   7.268   5.087   8.489  0.2448  1.6157 -0.4265
  411MOL0     H55441   7.332   5.244   8.319  0.1984 -2.4157  1.1955
  411MOL0     H55442   7.366   5.364   8.447 -0.1180 -1.6821  0.5702
  411MOL0     H55443   7.134   5.417   8.466  0.9494 -0.3115  0.0202
  411MOL0     H55444   7.082   5.253   8.434  2.4198 -1.4989  1.3860
  411MOL0     H55445   6.875   5.344   8.418 -0.6663 -0.9890 -0.6337
  411MOL0     H55446   6.667   5.423   8.344 -1.2113  0.6990 -1.9933
  411MOL0     H55447   6.410   5.761   8.138  0.8129 -0.8700 -0.3208
  411MOL0     H55448   6.175   5.822   8.030  1.3691  0.8259  1.8904
  411MOL0     H55449   5.922   5.826   8.013  2.6737  3.3074 -0.5455
  411MOL0     H55450   6.033   5.811   7.869 -0.6470  0.3066 -0.8285
  411MOL0     H55451   5.846   5.831   7.737 -3.7790  0.8090 -0.0814
  411MOL0     H55452   5.852   5.656   7.766 -0.9895 -0.3333 -0.8379
  411MOL0     H55453   5.659   5.851   7.863  0.2723 -0.7851  1.4096
  411MOL0     H55454   5.635   5.696   7.804 -0.4725 -0.0059 -0.5426
  411MOL0     H55455   5.722   5.749   8.090  0.9727  0.0345  0.6338
  411MOL0     H55456   5.735   5.594   8.015  2.1811  1.0952 -0.4750
  411MOL0     H55457   5.523   5.614   8.126 -1.8300 -1.8694 -1.5346
  411MOL0     H55458   5.487   5.609   7.961 -1.1163  3.3176 -1.8494
  411MOL0     H55459   5.475   5.880   8.096  2.6144  0.1865 -1.4590
  411MOL0     H55460   5.447   5.846   7.928  2.3213 -0.9190 -0.6457
  411MOL0     H55461   5.276   5.671   8.014  0.2698  0.9174 -0.3621
  411MOL0     H55462   5.246   5.841   7.993 -1.0712  0.0142 -1.3390
  411MOL0     H55463   5.296   5.899   8.230 -2.5477  1.3883 -0.0969
  411MOL0     H55464   5.150   5.812   8.201  0.6304 -1.2560  0.6782
  411MOL0     H55465   6.079   5.411   8.047  1.7339 -1.9952 -0.2337
  411MOL0     H55466   6.288   5.354   8.148 -1.4536 -1.3544 -1.1495
  411MOL0     H55467   6.841   5.585   7.985 -1.3036 -0.8867 -0.4999
  411MOL0     H55468   7.058   5.525   8.067  1.4197 -2.7315 -1.2437
  411MOL0     H55469   6.474   4.602   9.476 -0.2164  2.0703 -0.1175
  411MOL0     H55470   6.225   4.647   9.431  0.1703 -0.7027  0.6594
  411MOL0     H55471   5.926   4.813   9.235 -1.0595  3.2148  2.4302
  411MOL0     H55472   5.806   5.023   9.179  0.8947 -1.4477  2.0625
  411MOL0     H55473   5.736   5.217   9.128 -1.8830  1.7121  0.4928
  411MOL0     H55474   5.604   5.124   9.070 -2.4576  1.9798  0.7033
  411MOL0     H55475   5.576   5.377   9.043 -1.1224  0.4223 -1.3414
  411MOL0     H55476   5.567   5.292   8.881  0.5075 -0.1628 -1.6636
  411MOL0     H55477   5.806   5.357   8.857 -0.1484  1.7794 -2.4959
  411MOL0     H55478   5.794   5.473   8.992  1.2291  1.4654 -1.7118
  411MOL0     H55479   5.627   5.487   8.738 -0.7804 -0.7626  0.8636
  411MOL0     H55480   5.587   5.575   8.887 -0.4247 -0.2433  0.1538
  411MOL0     H55481   5.868   5.825   8.766  1.9406 -0.1661 -1.6838
  411MOL0     H55482   5.936   4.989   8.776  1.4031 -2.1727 -1.1779
  411MOL0     H55483   6.020   4.721   8.716 -0.1577  0.2212  0.8220
  411MOL0     H55484   6.143   4.847   8.736  0.2475  0.5635  1.8826
  411MOL0     H55485   6.161   4.709   8.826 -0.1925  0.8095  0.3104
  412MOL0     O55486  11.391   5.260   5.229  0.5582  0.5265  0.3500
  412MOL0     C55487  11.421   5.195   5.334 -0.5203 -0.5767 -0.4136
  412MOL0     O55488  11.492   5.080   5.337  0.3358  0.1289 -0.4432
  412MOL0     C55489  11.557   5.027   5.233 -0.8671  0.4136  1.0343
  412MOL0     C55490  11.701   5.027   5.226 -0.1955  0.3269 -0.8348
  412MOL0     C55491  11.766   4.970   5.122  0.4389 -0.6775  0.6655
  412MOL0     C55492  11.692   4.922   5.010  0.2706 -0.3008 -1.4042
  412MOL0     O55493  11.747   4.850   4.906  0.7518 -0.4002  0.6981
  412MOL0     C55494  11.851   4.756   4.927  0.2588  0.1994  0.7880
  412MOL0     C55495  11.859   4.669   4.808 -0.5313 -0.5290  0.3440
  412MOL0     C55496  11.959   4.555   4.838 -0.2371 -0.1539  0.2757
  412MOL0     C55497  12.004   4.477   4.712 -0.1017 -0.3180  0.0525
  412MOL0     C55498  12.095   4.357   4.745 -0.0396 -0.0650  0.0452
  412MOL0     C55499  12.123   4.290   4.606 -0.2426 -0.4755 -0.3900
  412MOL0     C55500  12.245   4.196   4.594  0.4246  0.2737  0.0513
  412MOL0     C55501  12.223   4.080   4.690 -0.6630  0.0480 -0.2114
  412MOL0     N55502  12.333   3.975   4.674  0.6419 -0.1640 -0.8726
  412MOL0     C55503  12.321   3.854   4.601 -0.5359  0.2964  0.0566
  412MOL0     C55504  12.455   3.810   4.592 -0.1065  0.0717 -0.6682
  412MOL0     C55505  12.507   3.682   4.540  0.1965  0.1351  0.6976
  412MOL0     C55506  12.512   3.582   4.657  0.2676  0.3658 -0.0342
  412MOL0     C55507  12.532   3.434   4.605  0.2014 -0.5770  0.0705
  412MOL0     C55508  12.669   3.411   4.542  0.2195 -0.2744  0.3621
  412MOL0     O55509  12.666   3.473   4.422 -0.3872  0.1823  1.2364
  412MOL0     C55510  12.786   3.502   4.350  0.8966 -0.1875  0.9766
  412MOL0     C55511  12.790   3.604   4.249  0.0456  0.1197  0.1058
  412MOL0     C55512  12.910   3.628   4.168 -0.1305 -0.5408 -0.5318
  412MOL0     C55513  13.022   3.541   4.199  0.0654  0.7682 -0.6281
  412MOL0     C55514  13.140   3.548   4.115 -0.6178 -0.4692 -0.8149
  412MOL0     O55515  13.243   3.463   4.146  0.2695 -0.2800 -0.4913
  412MOL0     C55516  13.365   3.463   4.079 -0.8001 -0.5010 -0.0756
  412MOL0     C55517  13.426   3.561   3.993 -0.3845 -0.0110  0.3584
  412MOL0     C55518  13.560   3.550   3.943  0.3683 -0.0005 -0.2617
  412MOL0     C55519  13.637   3.436   3.985  0.1730  0.4092 -0.0483
  412MOL0     O55520  13.762   3.425   3.934  0.0659 -0.3621 -0.0397
  412MOL0     C55521  13.791   3.470   3.811 -0.0668  0.0272  0.2721
  412MOL0     C55522  13.900   3.391   3.753  0.3346 -0.0911  0.8473
  412MOL0     C55523  14.015   3.363   3.851 -0.6585  1.0644 -0.2520
  412MOL0     C55524  14.139   3.308   3.775  0.0166 -0.5435 -0.3880
  412MOL0     C55525  14.267   3.317   3.861  0.4662 -0.2937 -1.5169
  412MOL0     C55526  14.376   3.216   3.813 -0.6059  0.9654  0.4791
  412MOL0     C55527  14.433   3.248   3.675  0.0285 -0.0262  0.6826
  412MOL0     C55528  14.586   3.282   3.682  0.3406  0.2558  0.0174
  412MOL0    Cl55529  14.656   3.275   3.521  0.4735 -0.1251  0.4169
  412MOL0     C55530  13.583   3.355   4.077  0.4158  0.4970 -0.4149
  412MOL0     C55531  13.451   3.363   4.120  0.2086  0.0524 -0.4470
  412MOL0     O55532  13.141   3.638   4.038 -0.1276  0.2762 -0.3436
  412MOL0     C55533  13.013   3.441   4.296  0.3451  1.1871  0.1136
  412MOL0     C55534  12.901   3.426   4.372  0.0265 -0.5344 -0.7932
  412MOL0     N55535  12.531   3.905   4.657  0.6313  0.2140 -0.1429
  412MOL0     N55536  12.462   4.004   4.701 -0.1266  0.1432  0.1847
  412MOL0     C55537  11.557   4.936   4.999  0.6763 -0.3378 -0.6179
  412MOL0     C55538  11.490   4.984   5.118 -0.1609 -0.0703  0.4786
  412MOL0     C55539  11.350   5.243   5.459  0.0552 -0.0293  0.1992
  412MOL0     C55540  11.303   5.140   5.545  0.1245  0.9313 -0.1817
  412MOL0     C55541  11.228   5.179   5.651 -0.0630  0.2349 -0.1309
  412MOL0     C55542  11.210   5.311   5.679 -0.0878  0.0339 -0.0308
  412MOL0     O55543  11.127   5.353   5.781 -0.0979  0.3527 -0.4781
  412MOL0     C55544  11.068   5.261   5.872 -0.6894  0.1217  0.0733
  412MOL0     C55545  10.932   5.319   5.904 -0.0592 -0.6651  0.2820
  412MOL0     C55546  10.934   5.453   5.987 -0.2998  0.3164  0.5370
  412MOL0     C55547  10.789   5.477   6.046 -0.8935  0.1394  0.4506
  412MOL0     C55548  10.797   5.593   6.126 -0.0877 -0.1715  0.2129
  412MOL0     C55549  10.842   5.683   6.202  0.2930 -0.2388  0.6914
  412MOL0     C55550  11.260   5.418   5.601  0.1327  0.0677  0.1081
  412MOL0     C55551  11.334   5.383   5.485  1.0859  0.3858 -1.3794
  412MOL0     C55552  11.375   5.504   5.400  0.6530  0.2120  0.4499
  412MOL0     H55553  11.750   5.074   5.311 -2.9756  0.9142  0.5671
  412MOL0     H55554  11.875   4.964   5.124  0.4828 -0.5880 -0.4742
  412MOL0     H55555  11.952   4.798   4.939  0.5440  0.5222 -2.0301
  412MOL0     H55556  11.830   4.701   5.019 -1.0391  1.2058  1.1251
  412MOL0     H55557  11.883   4.728   4.720 -2.8627 -0.9521 -0.6460
  412MOL0     H55558  11.755   4.636   4.801 -0.3502 -1.5410  1.8259
  412MOL0     H55559  11.907   4.491   4.910  0.5508  1.8350  2.8053
  412MOL0     H55560  12.040   4.596   4.900  0.1363  0.8612 -0.8394
  412MOL0     H55561  11.920   4.449   4.647 -0.9731  0.1750  0.9490
  412MOL0     H55562  12.048   4.554   4.648 -0.4866 -1.1366 -1.2548
  412MOL0     H55563  12.190   4.383   4.793 -0.3425 -1.4686  1.5077
  412MOL0     H55564  12.050   4.283   4.812  0.6918 -1.8875 -1.4057
  412MOL0     H55565  12.030   4.236   4.584 -0.2502 -0.8206  0.4842
  412MOL0     H55566  12.137   4.366   4.528  0.6220  0.5355  0.7169
  412MOL0     H55567  12.343   4.241   4.611  2.3760 -4.2727  2.7269
  412MOL0     H55568  12.259   4.167   4.489  0.7845  2.2338 -0.4716
  412MOL0     H55569  12.230   4.112   4.795  1.1904  0.0877 -0.3241
  412MOL0     H55570  12.125   4.034   4.673 -0.8411  1.4101 -3.5730
  412MOL0     H55571  12.238   3.801   4.556  2.1951 -2.5152 -2.0849
  412MOL0     H55572  12.453   3.637   4.456  3.3894 -2.1415 -0.3321
  412MOL0     H55573  12.609   3.696   4.505 -0.3465  1.0379 -0.6345
  412MOL0     H55574  12.594   3.612   4.723  1.0430  1.0572 -1.2480
  412MOL0     H55575  12.416   3.600   4.705 -0.7303  3.1207 -2.6840
  412MOL0     H55576  12.462   3.402   4.528  1.3681 -3.5311  0.0914
  412MOL0     H55577  12.518   3.366   4.690 -0.4458 -2.7701 -1.6977
  412MOL0     H55578  12.688   3.304   4.528  1.5819 -0.1058  0.7201
  412MOL0     H55579  12.744   3.447   4.613  1.7452 -0.1565 -1.2431
  412MOL0     H55580  12.703   3.668   4.244 -0.5637 -0.6787  0.1758
  412MOL0     H55581  12.895   3.695   4.084  1.3071 -0.2641 -0.5957
  412MOL0     H55582  13.369   3.644   3.952 -0.9701  0.7632  2.6168
  412MOL0     H55583  13.602   3.615   3.867  3.5970 -1.5715 -0.0078
  412MOL0     H55584  13.705   3.448   3.746 -0.1264 -0.3219  0.4660
  412MOL0     H55585  13.820   3.574   3.796  0.8436 -0.3461 -0.7275
  412MOL0     H55586  13.854   3.299   3.716  0.4719 -0.0074  0.4628
  412MOL0     H55587  13.933   3.452   3.668  2.0610  1.7064  2.6961
  412MOL0     H55588  14.038   3.458   3.899 -0.0700  1.3197 -1.0161
  412MOL0     H55589  13.984   3.307   3.940  3.7758  1.2381  1.6174
  412MOL0     H55590  14.160   3.377   3.693 -0.6882  0.6679  0.4239
  412MOL0     H55591  14.113   3.207   3.743 -3.3957  0.0279  0.1973
  412MOL0     H55592  14.247   3.290   3.965 -1.8163  1.8404 -1.3213
  412MOL0     H55593  14.291   3.423   3.857 -0.0978 -0.0710  0.1967
  412MOL0     H55594  14.447   3.222   3.897  0.7560  3.7593 -0.7290
  412MOL0     H55595  14.345   3.112   3.818 -0.3030  0.8913  0.9258
  412MOL0     H55596  14.384   3.334   3.628 -1.3559 -0.4960  1.2138
  412MOL0     H55597  14.404   3.177   3.596  2.7263  2.2182 -2.6396
  412MOL0     H55598  14.602   3.382   3.722  1.1513  0.3067 -0.4299
  412MOL0     H55599  14.654   3.210   3.729  1.7490 -0.4037 -2.7889
  412MOL0     H55600  13.635   3.266   4.113 -2.4189 -2.0640 -2.0912
  412MOL0     H55601  13.401   3.302   4.194 -1.0079  2.2668  0.6647
  412MOL0     H55602  13.095   3.375   4.324 -2.4156 -1.7113  1.9771
  412MOL0     H55603  12.899   3.351   4.450 -1.4017  0.7948  0.5149
  412MOL0     H55604  11.505   4.920   4.904 -1.8018  1.9270  0.2137
  412MOL0     H55605  11.382   4.991   5.124 -0.1433  0.3303  0.3738
  412MOL0     H55606  11.304   5.035   5.520 -2.1425  0.5579  1.0657
  412MOL0     H55607  11.161   5.105   5.693  0.3960 -0.1035  0.0112
  412MOL0     H55608  11.136   5.249   5.957 -1.3509  2.7307  1.0509
  412MOL0     H55609  11.046   5.159   5.837 -0.1827  0.2097 -0.5198
  412MOL0     H55610  10.870   5.247   5.957 -0.6958  0.0887  0.5800
  412MOL0     H55611  10.887   5.343   5.807  1.0404 -1.8338 -0.5607
  412MOL0     H55612  10.972   5.529   5.918 -0.2080 -1.9411 -2.0901
  412MOL0     H55613  11.012   5.449   6.063 -0.7904 -0.4939  1.0151
  412MOL0     H55614  10.716   5.473   5.965  0.6140  0.4719 -0.9922
  412MOL0     H55615  10.765   5.407   6.126 -0.9615 -1.0277 -0.5496
  412MOL0     H55616  10.880   5.765   6.259  1.0608 -0.8607  1.0848
  412MOL0     H55617  11.231   5.515   5.641 -1.6777 -0.8129  1.0498
  412MOL0     H55618  11.477   5.488   5.364 -0.4438 -1.3840 -2.2333
  412MOL0     H55619  11.297   5.503   5.323  1.4928  0.7341 -0.4190
  412MOL0     H55620  11.379   5.595   5.460 -3.5353  0.8758  0.0184
  413MOL0     O55621   2.873   3.440   3.164  0.1741  0.6370 -0.3661
  413MOL0     C55622   2.905   3.554   3.185  0.3471 -0.8976  0.0352
  413MOL0     O55623   2.968   3.632   3.091 -0.2015  0.8444 -0.5130
  413MOL0     C55624   3.018   3.560   2.985 -0.4100 -0.0838  0.0501
  413MOL0     C55625   2.930   3.523   2.885  0.2729 -0.0981 -0.1115
  413MOL0     C55626   2.986   3.451   2.779 -0.0283  0.0430  0.3372
  413MOL0     C55627   3.124   3.412   2.773  0.1853  0.3545 -1.4967
  413MOL0     O55628   3.175   3.363   2.660 -0.0716  0.1659  0.3873
  413MOL0     C55629   3.098   3.247   2.619  0.3509  1.6851  0.8988
  413MOL0     C55630   3.190   3.139   2.577 -1.2404  0.9760 -0.4867
  413MOL0     C55631   3.116   3.013   2.531  0.4513  0.3019  0.3835
  413MOL0     C55632   3.046   2.932   2.641 -0.1719 -0.0251  0.4062
  413MOL0     C55633   2.926   2.864   2.574  0.6433  0.2473 -0.1960
  413MOL0     C55634   2.969   2.743   2.487 -0.2702 -0.0826  0.2385
  413MOL0     C55635   2.850   2.655   2.436  0.0113  0.1447  0.6051
  413MOL0     C55636   2.910   2.509   2.385  0.1490 -1.0785  0.2796
  413MOL0     N55637   2.808   2.441   2.320  0.3751  0.0837  0.4278
  413MOL0     C55638   2.803   2.438   2.183 -0.8976  0.2631 -1.1086
  413MOL0     C55639   2.690   2.374   2.156  0.2018 -0.2700 -0.0331
  413MOL0     C55640   2.662   2.343   2.010 -0.2126  1.1077 -0.0695
  413MOL0     C55641   2.596   2.448   1.928  0.1988 -0.2828 -0.3716
  413MOL0     C55642   2.690   2.555   1.867  0.5675 -0.6676 -0.4480
  413MOL0     C55643   2.607   2.671   1.798 -0.0222 -0.1359 -0.5344
  413MOL0     O55644   2.500   2.717   1.883  0.2852 -0.1679 -0.0206
  413MOL0     C55645   2.396   2.781   1.812  0.1197  1.1854 -0.1166
  413MOL0     C55646   2.271   2.752   1.866 -0.1632  0.8220  0.2631
  413MOL0     C55647   2.149   2.776   1.803  0.2559  0.2089 -0.0406
  413MOL0     C55648   2.156   2.859   1.687 -0.0113 -0.1504  0.6206
  413MOL0     C55649   2.037   2.928   1.629 -0.3717 -0.9275 -1.0726
  413MOL0     O55650   2.043   2.982   1.504  0.6169 -0.3535  0.5666
  413MOL0     C55651   1.931   3.046   1.460 -0.8129 -0.3976 -0.6402
  413MOL0     C55652   1.833   2.970   1.401  0.4897  0.4776  0.5585
  413MOL0     C55653   1.725   3.035   1.341  0.2045  0.3616  0.2905
  413MOL0     C55654   1.704   3.174   1.348  0.4622 -0.6473 -0.2440
  413MOL0     O55655   1.580   3.221   1.302 -0.1417  0.1886 -0.3179
  413MOL0     C55656   1.523   3.346   1.356 -0.1516 -0.2952  0.8256
  413MOL0     C55657   1.475   3.336   1.504  0.7150 -0.3429 -0.1411
  413MOL0     C55658   1.330   3.275   1.521 -0.2190  0.4609  1.2199
  413MOL0     C55659   1.305   3.259   1.668 -0.0704  0.0635 -0.1060
  413MOL0     C55660   1.278   3.392   1.738 -0.6081 -0.0215  0.3732
  413MOL0     C55661   1.244   3.371   1.882  0.3853 -0.0039 -0.4921
  413MOL0     C55662   1.214   3.502   1.971  0.0034  0.5390  0.1182
  413MOL0     C55663   1.198   3.455   2.119  0.2016  0.4320  0.7507
  413MOL0    Cl55664   1.150   3.589   2.217 -0.0394  0.1323  0.7212
  413MOL0     C55665   1.807   3.253   1.400 -1.0645  0.0456 -0.7502
  413MOL0     C55666   1.920   3.187   1.458 -0.2685 -0.7101 -0.6229
  413MOL0     O55667   1.945   2.930   1.710 -0.0870  0.3042 -0.4357
  413MOL0     C55668   2.281   2.891   1.629  0.2223  0.6595  0.7052
  413MOL0     C55669   2.396   2.846   1.690  0.6757 -0.3932 -0.1993
  413MOL0     N55670   2.624   2.348   2.278  0.5671  0.1085  0.1248
  413MOL0     N55671   2.700   2.379   2.374  0.7846 -0.0637  0.4893
  413MOL0     C55672   3.210   3.463   2.875 -0.4071 -0.1238 -0.4749
  413MOL0     C55673   3.156   3.535   2.974 -0.7385 -0.6045 -0.0275
  413MOL0     C55674   2.892   3.601   3.320 -0.0168  0.0919 -0.4575
  413MOL0     C55675   2.771   3.597   3.391 -0.1169  0.0718 -0.0994
  413MOL0     C55676   2.762   3.639   3.528 -0.0063 -1.0183  0.4086
  413MOL0     C55677   2.878   3.679   3.599  0.3798  0.7312 -0.2649
  413MOL0     O55678   2.866   3.717   3.732 -0.2813 -0.0969 -0.0618
  413MOL0     C55679   2.981   3.775   3.788  0.3154 -0.4267  0.2009
  413MOL0     C55680   2.985   3.793   3.930  0.1092 -0.0876  0.1320
  413MOL0     C55681   2.878   3.894   3.979 -0.1791  0.4933 -0.5946
  413MOL0     C55682   2.860   3.899   4.141  0.3110 -0.4699 -0.3612
  413MOL0     C55683   2.736   3.976   4.174  0.7306  0.1501  0.6284
  413MOL0     C55684   2.627   4.028   4.201  0.1849  0.2295 -0.1116
  413MOL0     C55685   2.990   3.685   3.520 -0.2831 -1.0226 -0.3152
  413MOL0     C55686   3.007   3.646   3.389 -0.1082 -0.3096 -0.1304
  413MOL0     C55687   3.146   3.664   3.338  0.0858 -0.0857  0.2131
  413MOL0     H55688   2.826   3.539   2.908 -0.8097 -1.0473 -3.7247
  413MOL0     H55689   2.913   3.423   2.704 -1.5287  2.1054  0.9468
  413MOL0     H55690   3.033   3.210   2.699  1.4587 -0.1515  1.0032
  413MOL0     H55691   3.036   3.276   2.534  1.3875  1.0649 -0.0962
  413MOL0     H55692   3.259   3.109   2.656 -1.7778  1.9581  0.3809
  413MOL0     H55693   3.265   3.170   2.503  2.5495 -0.1952  2.5509
  413MOL0     H55694   3.170   2.937   2.474 -0.4516 -0.1393  0.0966
  413MOL0     H55695   3.039   3.053   2.464  0.8245 -0.0741 -0.2805
  413MOL0     H55696   3.114   2.862   2.690  0.5372  1.9265  2.3258
  413MOL0     H55697   3.020   2.996   2.725  3.6424  0.6541  1.2446
  413MOL0     H55698   2.863   2.821   2.652  1.4308  0.9742  0.8741
  413MOL0     H55699   2.866   2.935   2.516  1.8177  0.7738 -0.8017
  413MOL0     H55700   3.013   2.783   2.395 -2.1617  0.3394 -0.5318
  413MOL0     H55701   3.051   2.690   2.536  0.6729  1.5042  0.4756
  413MOL0     H55702   2.806   2.710   2.352  2.7674  2.3000  0.4046
  413MOL0     H55703   2.785   2.641   2.523 -1.8314  2.3208 -0.3078
  413MOL0     H55704   2.991   2.514   2.312 -0.9199  3.6918 -0.9249
  413MOL0     H55705   2.938   2.448   2.472  0.0101 -0.9132  0.4409
  413MOL0     H55706   2.870   2.480   2.109 -1.6344 -1.9741 -3.1585
  413MOL0     H55707   2.753   2.307   1.962 -1.2950 -2.8014  0.4444
  413MOL0     H55708   2.598   2.255   2.018  2.7692 -1.1323  0.5774
  413MOL0     H55709   2.544   2.412   1.839  0.1147  0.9889 -0.8646
  413MOL0     H55710   2.520   2.503   1.986 -1.2833 -0.5127 -2.0135
  413MOL0     H55711   2.750   2.506   1.791  0.2048 -0.3614 -0.9369
  413MOL0     H55712   2.758   2.611   1.932 -0.5900 -0.6051  0.7454
  413MOL0     H55713   2.576   2.644   1.697  1.0612  6.7550 -3.2891
  413MOL0     H55714   2.665   2.761   1.777  0.3119  0.0095  0.8669
  413MOL0     H55715   2.279   2.707   1.964  4.7939  1.8031  0.5814
  413MOL0     H55716   2.062   2.731   1.851  0.8844  0.0480  0.9783
  413MOL0     H55717   1.853   2.863   1.389 -0.3453  0.5244 -2.0430
  413MOL0     H55718   1.654   2.967   1.295  1.0258 -0.8666  0.8118
  413MOL0     H55719   1.584   3.435   1.340 -1.6604  0.6355  0.0143
  413MOL0     H55720   1.430   3.376   1.305  0.1546  0.4088  0.6697
  413MOL0     H55721   1.547   3.273   1.557 -0.6287 -0.2386  1.9076
  413MOL0     H55722   1.472   3.431   1.559  1.3843 -2.6077  4.2653
  413MOL0     H55723   1.261   3.345   1.472  0.9805  1.0529  0.3132
  413MOL0     H55724   1.332   3.177   1.471  0.9818 -0.2458  2.5886
  413MOL0     H55725   1.393   3.221   1.720  1.2928  3.4600  0.3228
  413MOL0     H55726   1.224   3.187   1.684  0.2987  0.1136  2.2511
  413MOL0     H55727   1.202   3.435   1.673 -0.9419 -3.6582 -1.9037
  413MOL0     H55728   1.370   3.450   1.735  1.2441 -2.7629  0.0206
  413MOL0     H55729   1.149   3.315   1.883 -2.8416  4.8592 -0.3512
  413MOL0     H55730   1.319   3.307   1.928 -0.4846  0.2590  1.4059
  413MOL0     H55731   1.123   3.550   1.935  0.3646  0.1500 -1.3910
  413MOL0     H55732   1.293   3.578   1.969  1.6339 -1.0571  0.9143
  413MOL0     H55733   1.114   3.385   2.128  0.3099 -0.0500 -1.4084
  413MOL0     H55734   1.287   3.398   2.150  2.0702  0.8918 -3.1590
  413MOL0     H55735   1.786   3.357   1.422  5.8498  1.4894  1.6765
  413MOL0     H55736   1.996   3.242   1.513  0.4720 -0.9045 -1.4089
  413MOL0     H55737   2.294   2.942   1.534 -1.2787  0.5767  0.4406
  413MOL0     H55738   2.491   2.863   1.641  0.7901  1.7742  0.6216
  413MOL0     H55739   3.318   3.458   2.861 -0.3256 -1.7627  0.4466
  413MOL0     H55740   3.227   3.581   3.042 -0.9758 -0.3752  0.0656
  413MOL0     H55741   2.679   3.572   3.338 -0.4746  0.9527  0.0772
  413MOL0     H55742   2.659   3.642   3.562 -0.1408  0.2399 -0.0682
  413MOL0     H55743   2.999   3.872   3.742 -3.8038  0.7955  0.7943
  413MOL0     H55744   3.050   3.693   3.767  0.4818 -0.4464  0.8181
  413MOL0     H55745   3.082   3.836   3.957 -0.4453  0.1296  1.9435
  413MOL0     H55746   2.985   3.690   3.968 -1.4703 -1.4443 -3.1615
  413MOL0     H55747   2.782   3.854   3.945 -0.3136 -1.1243  1.4846
  413MOL0     H55748   2.885   3.997   3.940  2.5010  1.9395  3.1649
  413MOL0     H55749   2.842   3.804   4.192  1.0100 -0.4282 -0.0393
  413MOL0     H55750   2.949   3.936   4.191  0.0837  2.6231 -1.9477
  413MOL0     H55751   2.536   4.072   4.234  0.5679  0.2591  0.9424
  413MOL0     H55752   3.081   3.731   3.558 -1.3565  1.3010 -0.3934
  413MOL0     H55753   3.151   3.703   3.236 -1.1050  2.2330  0.9889
  413MOL0     H55754   3.209   3.732   3.396 -0.7121 -0.2359  1.2726
  413MOL0     H55755   3.202   3.570   3.336  0.6549  0.2504  0.0284
  414MOL0     O55756   0.847   1.159   4.973  0.1120 -0.2644  0.0109
  414MOL0     C55757   0.854   1.153   4.850 -0.0887  0.5131  0.2877
  414MOL0     O55758   0.948   1.196   4.770 -0.3622  0.2915  0.9074
  414MOL0     C55759   1.078   1.207   4.826 -0.8117  0.2710  0.2953
  414MOL0     C55760   1.149   1.320   4.789  0.3170 -0.0904 -0.3533
  414MOL0     C55761   1.282   1.345   4.836 -0.8363  0.3257  1.0588
  414MOL0     C55762   1.355   1.248   4.906 -0.8084 -0.7035  0.6495
  414MOL0     O55763   1.485   1.269   4.933  0.4617  0.0583 -0.6437
  414MOL0     C55764   1.559   1.164   4.992  0.2810  0.0398  0.1485
  414MOL0     C55765   1.695   1.215   5.026 -0.0736  0.7766  0.1486
  414MOL0     C55766   1.811   1.214   4.920  0.6275 -0.6476  0.4658
  414MOL0     C55767   1.858   1.353   4.876  0.2201  0.3690  0.1357
  414MOL0     C55768   1.988   1.412   4.947  0.0532  0.0880 -0.2977
  414MOL0     C55769   1.960   1.475   5.087 -0.7993 -0.3623  0.5647
  414MOL0     C55770   2.094   1.541   5.127  0.5068 -0.1643 -0.9580
  414MOL0     C55771   2.065   1.666   5.208  0.4337 -0.8863  0.5625
  414MOL0     N55772   1.998   1.636   5.343  0.5362  0.3116  0.0455
  414MOL0     C55773   1.870   1.677   5.377 -0.3989 -0.4438  0.8386
  414MOL0     C55774   1.867   1.636   5.501 -0.4282 -0.6023  0.4751
  414MOL0     C55775   1.762   1.656   5.603  0.4609 -0.0170 -0.3008
  414MOL0     C55776   1.638   1.580   5.572 -0.1357  0.8184 -0.5900
  414MOL0     C55777   1.668   1.427   5.519  0.1822  0.4447  1.0614
  414MOL0     C55778   1.544   1.358   5.475  1.3060  0.4353  0.0750
  414MOL0     O55779   1.475   1.415   5.362  0.3730 -0.1777 -0.0480
  414MOL0     C55780   1.345   1.382   5.365  0.5568  0.5512 -0.0408
  414MOL0     C55781   1.250   1.478   5.396  0.2771  0.5828 -0.6362
  414MOL0     C55782   1.108   1.456   5.407  0.8862  0.3877  0.0589
  414MOL0     C55783   1.051   1.331   5.383  0.7905  0.5684  0.4006
  414MOL0     C55784   0.908   1.294   5.397  0.2663 -0.4734  0.3891
  414MOL0     O55785   0.865   1.185   5.336 -0.1891  0.1869  0.5539
  414MOL0     C55786   0.729   1.164   5.354  0.0478 -0.0611 -0.3509
  414MOL0     C55787   0.633   1.212   5.267 -0.6217  0.0853  0.4016
  414MOL0     C55788   0.494   1.197   5.284  0.3259 -0.2930 -0.5171
  414MOL0     C55789   0.444   1.118   5.392 -0.0665 -0.1537  0.0811
  414MOL0     O55790   0.308   1.128   5.398 -0.1453 -0.7608  0.2436
  414MOL0     C55791   0.237   1.019   5.448 -0.5869 -0.4524 -0.6297
  414MOL0     C55792   0.150   0.952   5.343 -0.3905 -0.5024  0.1140
  414MOL0     C55793   0.251   0.889   5.234 -0.3479 -0.1290  0.0593
  414MOL0     C55794   0.179   0.865   5.094  1.2097 -0.2682  0.3498
  414MOL0     C55795   0.060   0.757   5.122 -0.7197  0.6060  1.6252
  414MOL0     C55796   0.006   0.710   4.983  0.3248 -0.0801 -0.5419
  414MOL0     C55797  -0.069   0.571   5.005 -0.2372  0.2590 -0.2648
  414MOL0     C55798  -0.097   0.518   4.867  0.3478 -0.0339 -0.6692
  414MOL0    Cl55799   0.047   0.469   4.762 -0.2584 -0.0967 -0.2426
  414MOL0     C55800   0.544   1.054   5.478  0.8749 -0.1630  0.6093
  414MOL0     C55801   0.680   1.077   5.458 -1.3885  0.3051  0.9613
  414MOL0     O55802   0.840   1.370   5.471 -0.1769 -0.3448 -0.3955
  414MOL0     C55803   1.149   1.241   5.344 -0.0845  0.6289  0.2271
  414MOL0     C55804   1.289   1.261   5.335 -0.0645 -0.2862  0.3406
  414MOL0     N55805   1.981   1.552   5.530  0.0183 -0.7931  1.6975
  414MOL0     N55806   2.059   1.565   5.436 -0.6696  0.3956 -0.3314
  414MOL0     C55807   1.288   1.119   4.922 -0.6219  1.3196  0.7798
  414MOL0     C55808   1.150   1.107   4.890 -0.8352 -0.0206  0.7997
  414MOL0     C55809   0.731   1.106   4.769  0.8118  0.3118 -0.7655
  414MOL0     C55810   0.737   1.099   4.624 -0.4262  0.6719  0.1571
  414MOL0     C55811   0.631   1.053   4.547 -0.0316  0.2978  0.4430
  414MOL0     C55812   0.527   1.000   4.608 -0.0967  0.1600 -0.1091
  414MOL0     O55813   0.437   0.957   4.521 -0.1869  1.1036  0.1876
  414MOL0     C55814   0.350   0.854   4.570  0.9183  0.4191 -0.3707
  414MOL0     C55815   0.310   0.768   4.451 -0.1994  0.3444 -0.6303
  414MOL0     C55816   0.210   0.662   4.492 -0.0284 -0.1752  0.6463
  414MOL0     C55817   0.192   0.560   4.383  0.8921  0.1389  0.8035
  414MOL0     C55818   0.071   0.478   4.406  0.5587 -0.2779 -0.1089
  414MOL0     C55819  -0.017   0.400   4.417  0.5504  0.1131 -0.3003
  414MOL0     C55820   0.510   1.012   4.745 -0.1778 -0.4346  0.7613
  414MOL0     C55821   0.603   1.070   4.822 -0.1256  0.6166 -0.4905
  414MOL0     C55822   0.560   1.077   4.970 -0.6192  0.5289 -0.1752
  414MOL0     H55823   1.099   1.390   4.723 -0.9152 -0.4990  0.0939
  414MOL0     H55824   1.349   1.429   4.818  0.8527 -0.7849  1.9456
  414MOL0     H55825   1.499   1.147   5.081  0.7383  1.5870  0.7715
  414MOL0     H55826   1.568   1.086   4.916  4.5028  0.2493  0.2140
  414MOL0     H55827   1.725   1.144   5.104 -1.8508  0.7213  0.8377
  414MOL0     H55828   1.682   1.313   5.072 -2.5628 -0.0782  1.4913
  414MOL0     H55829   1.764   1.159   4.838 -1.1732  3.5917 -1.6196
  414MOL0     H55830   1.902   1.162   4.951 -0.4217 -2.4457  0.6759
  414MOL0     H55831   1.894   1.337   4.774 -2.3309  1.4293 -1.0112
  414MOL0     H55832   1.780   1.429   4.876  0.8595  1.1550 -3.3204
  414MOL0     H55833   2.063   1.333   4.952 -1.1493 -1.0328  1.1371
  414MOL0     H55834   2.022   1.493   4.883  0.4639 -0.9998 -1.5016
  414MOL0     H55835   1.870   1.536   5.102 -1.3150 -1.4741  2.2685
  414MOL0     H55836   1.945   1.388   5.152  1.3444 -1.7839 -0.7051
  414MOL0     H55837   2.160   1.567   5.044 -1.3735  3.7210 -1.4923
  414MOL0     H55838   2.145   1.469   5.192 -0.2272 -1.3031 -1.6194
  414MOL0     H55839   2.155   1.727   5.215 -0.4992  0.7845 -0.8660
  414MOL0     H55840   1.999   1.736   5.154 -0.4720 -1.4068  0.9650
  414MOL0     H55841   1.809   1.747   5.321  3.5416  0.9322 -2.2452
  414MOL0     H55842   1.802   1.628   5.701  2.0210 -0.5827 -1.0797
  414MOL0     H55843   1.742   1.764   5.605  0.1421 -0.0647  1.5307
  414MOL0     H55844   1.577   1.586   5.663 -0.4410  4.5320 -0.8944
  414MOL0     H55845   1.573   1.640   5.508 -0.4295  3.2871  1.8411
  414MOL0     H55846   1.726   1.372   5.594  0.5624 -0.5725  0.0523
  414MOL0     H55847   1.727   1.435   5.427 -0.8206 -1.7711  0.1418
  414MOL0     H55848   1.480   1.352   5.564 -0.8628 -0.4442 -1.4556
  414MOL0     H55849   1.562   1.252   5.452 -0.4551  0.5616 -2.2596
  414MOL0     H55850   1.290   1.578   5.407  0.6057  0.3612  0.3266
  414MOL0     H55851   1.044   1.538   5.438  0.1085 -0.0068 -0.4666
  414MOL0     H55852   0.666   1.261   5.176  1.0327  1.3955  1.6419
  414MOL0     H55853   0.429   1.241   5.209  0.0859 -0.5843 -0.4805
  414MOL0     H55854   0.298   0.940   5.494  0.0576  0.6059  0.3783
  414MOL0     H55855   0.170   1.066   5.520  1.7784  1.0165  0.7207
  414MOL0     H55856   0.084   0.874   5.381  1.5126 -1.1853  2.1901
  414MOL0     H55857   0.094   1.023   5.281 -1.3531 -0.7281  0.7157
  414MOL0     H55858   0.332   0.958   5.209 -0.1070 -0.1486  0.7700
  414MOL0     H55859   0.288   0.794   5.274  0.2296  1.2219  2.9990
  414MOL0     H55860   0.250   0.840   5.015  3.1789 -0.7592  2.2011
  414MOL0     H55861   0.130   0.958   5.065  0.1361 -0.0910  2.4947
  414MOL0     H55862  -0.024   0.797   5.180 -2.7019  0.5122 -1.0195
  414MOL0     H55863   0.106   0.671   5.172 -0.8764  0.3815  1.3889
  414MOL0     H55864  -0.063   0.783   4.940 -2.0182 -0.9126  1.5742
  414MOL0     H55865   0.094   0.709   4.918  1.3976  2.8708  0.6768
  414MOL0     H55866  -0.165   0.588   5.055 -1.3666 -1.6806 -1.6234
  414MOL0     H55867  -0.009   0.501   5.063 -2.2787 -1.4992 -0.1480
  414MOL0     H55868  -0.162   0.430   4.878 -0.7029  1.0933  3.9334
  414MOL0     H55869  -0.164   0.586   4.813  0.0702 -0.8042 -1.3308
  414MOL0     H55870   0.512   1.018   5.576  0.6416 -0.1509  0.5379
  414MOL0     H55871   0.753   1.045   5.532  1.3307  0.2673 -1.5537
  414MOL0     H55872   1.123   1.136   5.329 -3.5991  1.8115 -4.9137
  414MOL0     H55873   1.367   1.190   5.311  1.4651  1.4847 -0.1082
  414MOL0     H55874   1.332   1.032   4.969  1.4169 -0.5799 -3.9728
  414MOL0     H55875   1.109   1.012   4.921 -0.3557 -0.4516  0.1500
  414MOL0     H55876   0.826   1.136   4.575 -0.7753  0.3990 -0.6929
  414MOL0     H55877   0.636   1.061   4.439 -0.6903 -2.1086  0.1775
  414MOL0     H55878   0.261   0.889   4.624  0.8671 -1.5371  0.9194
  414MOL0     H55879   0.409   0.789   4.635  0.9453 -0.4744 -1.2676
  414MOL0     H55880   0.403   0.719   4.423  0.5609 -0.6821  3.1094
  414MOL0     H55881   0.275   0.826   4.365  0.3643 -0.9195 -1.7462
  414MOL0     H55882   0.114   0.710   4.510  0.8872  1.3132  1.7671
  414MOL0     H55883   0.255   0.611   4.578  1.5039 -0.2327 -0.1490
  414MOL0     H55884   0.178   0.625   4.297  3.1509  0.8273  0.8842
  414MOL0     H55885   0.275   0.492   4.359 -1.3676 -1.5500 -3.1217
  414MOL0     H55886  -0.101   0.335   4.424  0.8625 -0.1244  1.9173
  414MOL0     H55887   0.422   0.978   4.798 -1.1901  0.2245 -0.4562
  414MOL0     H55888   0.618   0.998   5.020  1.5010  1.3657 -1.1974
  414MOL0     H55889   0.592   1.179   4.994 -0.2366  0.7690 -1.6342
  414MOL0     H55890   0.458   1.061   5.007 -0.0365  0.5560  1.5425
  415MOL0     O55891   0.871   2.475   7.693  0.3803 -0.5105 -0.7203
  415MOL0     C55892   0.948   2.557   7.749  0.4203 -0.9212 -1.2317
  415MOL0     O55893   1.068   2.588   7.707 -0.5442 -0.7283  1.0932
  415MOL0     C55894   1.145   2.500   7.635  0.3879 -0.2776  0.8921
  415MOL0     C55895   1.124   2.352   7.622  0.2895 -0.3361  0.1746
  415MOL0     C55896   1.213   2.281   7.554  0.7653 -0.1517 -0.2494
  415MOL0     C55897   1.326   2.342   7.498 -0.2353  0.2971  0.2616
  415MOL0     O55898   1.422   2.270   7.420  1.0688  0.4271 -0.8516
  415MOL0     C55899   1.383   2.174   7.325 -0.0070 -0.2940 -0.0736
  415MOL0     C55900   1.468   2.046   7.351  0.5857 -0.1222  0.3579
  415MOL0     C55901   1.434   1.931   7.255  0.4114  0.4817 -0.1004
  415MOL0     C55902   1.496   1.807   7.318 -0.2616  0.3094  0.2921
  415MOL0     C55903   1.492   1.685   7.220  0.7621  0.5366 -0.3496
  415MOL0     C55904   1.553   1.559   7.293  1.0875  0.7254  0.2774
  415MOL0     C55905   1.535   1.436   7.207 -0.7965  0.8054  0.1314
  415MOL0     C55906   1.617   1.310   7.253  0.4973 -1.1439 -0.7971
  415MOL0     N55907   1.760   1.351   7.265  0.0039 -0.1090 -0.2028
  415MOL0     C55908   1.841   1.353   7.372 -0.0671 -0.2772 -0.5602
  415MOL0     C55909   1.974   1.377   7.334  0.4198 -0.1843  1.1204
  415MOL0     C55910   2.098   1.368   7.413 -0.0671 -0.7005  0.5614
  415MOL0     C55911   2.088   1.292   7.547  1.0581 -1.2317  0.4522
  415MOL0     C55912   2.223   1.269   7.602 -0.2955  0.3866 -0.1625
  415MOL0     C55913   2.220   1.219   7.749  0.6334  1.0621  0.7076
  415MOL0     O55914   2.121   1.127   7.780  0.9447  0.2676 -0.3015
  415MOL0     C55915   2.141   0.986   7.770 -0.9493  0.5622 -0.2805
  415MOL0     C55916   2.041   0.896   7.809 -1.0335 -0.6862  0.3554
  415MOL0     C55917   2.071   0.754   7.826 -0.0642  0.3187  0.0435
  415MOL0     C55918   2.205   0.707   7.803  0.8477  0.3039 -0.4968
  415MOL0     C55919   2.238   0.572   7.854 -0.5772  0.2321 -0.3352
  415MOL0     O55920   2.377   0.541   7.837 -0.1471 -0.0160  0.2090
  415MOL0     C55921   2.425   0.427   7.907  0.7179 -0.4219 -0.9361
  415MOL0     C55922   2.507   0.336   7.844  0.5423  0.2454 -0.1008
  415MOL0     C55923   2.560   0.224   7.910 -0.1593 -0.0292 -0.9615
  415MOL0     C55924   2.523   0.199   8.049 -0.5573  0.3474  0.7904
  415MOL0     O55925   2.577   0.090   8.120 -0.9295  0.2094 -0.8135
  415MOL0     C55926   2.720   0.103   8.121  0.1967  0.3164 -1.3967
  415MOL0     C55927   2.779  -0.017   8.201  0.3875  0.2208 -0.1026
  415MOL0     C55928   2.751  -0.156   8.137 -0.1654 -0.5016  0.6464
  415MOL0     C55929   2.810  -0.280   8.201 -1.1409 -0.0994  1.2355
  415MOL0     C55930   2.740  -0.314   8.332  0.2615 -0.3293 -0.4117
  415MOL0     C55931   2.795  -0.450   8.383 -0.1759  0.5642  0.3127
  415MOL0     C55932   2.736  -0.484   8.519 -0.0603 -0.0716  0.3466
  415MOL0     C55933   2.728  -0.633   8.563  0.2054  0.4253  0.2753
  415MOL0    Cl55934   2.558  -0.707   8.577  0.3758  0.2822 -0.0760
  415MOL0     C55935   2.430   0.294   8.103 -0.4461  0.6323  0.0885
  415MOL0     C55936   2.396   0.407   8.043  0.0178 -1.3602  0.7639
  415MOL0     O55937   2.154   0.500   7.918  0.2040  0.1616  0.3117
  415MOL0     C55938   2.291   0.794   7.736  0.2671  0.6592 -0.3718
  415MOL0     C55939   2.255   0.928   7.716  0.5493  0.0872 -0.4203
  415MOL0     N55940   1.961   1.383   7.201 -0.3602  0.3864 -0.0385
  415MOL0     N55941   1.843   1.368   7.157  0.3534  0.1334 -0.3514
  415MOL0     C55942   1.356   2.480   7.518 -0.5084 -0.0006 -0.0974
  415MOL0     C55943   1.262   2.557   7.587  0.1273  0.8431  0.1672
  415MOL0     C55944   0.882   2.650   7.846 -0.0844  1.0453  0.3841
  415MOL0     C55945   0.745   2.631   7.862 -0.6084  0.0772  0.5042
  415MOL0     C55946   0.677   2.713   7.961 -0.8717  0.1247  0.6396
  415MOL0     C55947   0.735   2.811   8.030  0.4595  0.3045  0.2084
  415MOL0     O55948   0.667   2.878   8.125 -0.1306  0.4565 -0.3116
  415MOL0     C55949   0.726   2.984   8.203 -0.1327  0.2884  0.5703
  415MOL0     C55950   0.716   3.109   8.118  0.3030  0.9432 -0.8018
  415MOL0     C55951   0.748   3.235   8.200  0.1571 -0.2486  1.0387
  415MOL0     C55952   0.769   3.363   8.107 -0.2151 -0.6719  0.3596
  415MOL0     C55953   0.635   3.397   8.060 -0.2119 -0.9053  0.2870
  415MOL0     C55954   0.522   3.403   8.010  0.0644  0.4180 -0.3626
  415MOL0     C55955   0.869   2.835   7.999  0.5455 -0.4421  0.2319
  415MOL0     C55956   0.944   2.756   7.919  1.2239 -0.6200  0.6368
  415MOL0     C55957   1.086   2.798   7.900  0.3984 -0.2506 -0.3800
  415MOL0     H55958   1.039   2.309   7.674 -0.2558 -1.5664 -1.6446
  415MOL0     H55959   1.200   2.174   7.559 -0.0963 -0.0254  0.7710
  415MOL0     H55960   1.276   2.153   7.319  0.1388 -0.6195 -1.9505
  415MOL0     H55961   1.413   2.217   7.229  0.3433  2.1427  1.0422
  415MOL0     H55962   1.454   2.012   7.454 -0.9333 -1.0985 -0.1384
  415MOL0     H55963   1.576   2.061   7.349  0.6741 -0.7924 -1.2253
  415MOL0     H55964   1.471   1.942   7.152 -0.1123  1.5527 -0.1922
  415MOL0     H55965   1.325   1.924   7.241  0.6784 -0.9046 -1.9116
  415MOL0     H55966   1.596   1.829   7.356 -0.0753  4.3070 -1.9047
  415MOL0     H55967   1.435   1.767   7.400 -1.6789  0.3102 -0.7105
  415MOL0     H55968   1.385   1.666   7.206  0.0800  1.8308  2.5124
  415MOL0     H55969   1.535   1.709   7.122  1.7675  1.3829  0.2802
  415MOL0     H55970   1.658   1.588   7.299  1.5186 -0.0061 -2.4493
  415MOL0     H55971   1.517   1.533   7.393  1.0139 -0.3282 -0.0022
  415MOL0     H55972   1.562   1.453   7.102 -3.6549  0.8987 -0.6678
  415MOL0     H55973   1.429   1.412   7.199 -1.0924  2.0444  0.2475
  415MOL0     H55974   1.572   1.272   7.345 -2.2778  2.7921 -0.3133
  415MOL0     H55975   1.610   1.231   7.178 -1.7861 -2.6768  0.9211
  415MOL0     H55976   1.806   1.356   7.474 -2.9594 -0.7376 -1.4360
  415MOL0     H55977   2.176   1.319   7.353 -0.5878 -0.1092 -0.6215
  415MOL0     H55978   2.138   1.467   7.437  1.5206 -1.0661 -0.4293
  415MOL0     H55979   2.033   1.360   7.612  0.1239  0.8583 -2.3442
  415MOL0     H55980   2.018   1.207   7.548 -0.0054 -0.3895  1.9004
  415MOL0     H55981   2.298   1.347   7.585  1.7875 -1.4660  0.0732
  415MOL0     H55982   2.268   1.185   7.549 -0.0241  0.4419 -0.0267
  415MOL0     H55983   2.192   1.310   7.804 -2.8650 -0.3251  1.4699
  415MOL0     H55984   2.320   1.194   7.786  0.3674  2.9494  2.8844
  415MOL0     H55985   1.938   0.929   7.815 -1.0022  0.4657 -3.1022
  415MOL0     H55986   1.998   0.677   7.852 -2.0973  1.8915 -0.6906
  415MOL0     H55987   2.513   0.359   7.738 -0.9089  2.0625  0.1558
  415MOL0     H55988   2.619   0.154   7.851 -0.1050 -0.2774 -0.6108
  415MOL0     H55989   2.775   0.106   8.026  0.6728  2.0827 -1.1035
  415MOL0     H55990   2.744   0.191   8.181 -0.6622 -2.1180  2.9299
  415MOL0     H55991   2.883   0.000   8.231 -0.3170  0.1238  2.5698
  415MOL0     H55992   2.722  -0.026   8.294 -3.3568  2.5376 -1.8908
  415MOL0     H55993   2.642  -0.162   8.139 -0.3992  2.4030  3.4706
  415MOL0     H55994   2.775  -0.163   8.030  0.5195 -2.3657  0.8731
  415MOL0     H55995   2.918  -0.269   8.217 -0.6735 -1.0882 -0.8505
  415MOL0     H55996   2.798  -0.365   8.134  0.0331  0.1658  0.6571
  415MOL0     H55997   2.632  -0.310   8.319 -0.2545 -2.4334  2.2813
  415MOL0     H55998   2.760  -0.236   8.407  1.3499  0.4280 -1.4588
  415MOL0     H55999   2.754  -0.525   8.314  1.1982 -1.4025  1.5212
  415MOL0     H56000   2.904  -0.454   8.389 -0.1543 -2.6089 -0.6502
  415MOL0     H56001   2.634  -0.446   8.528 -1.0780 -2.8852  2.2761
  415MOL0     H56002   2.788  -0.436   8.602 -0.7645 -2.1498  2.0995
  415MOL0     H56003   2.796  -0.685   8.494  1.5379  2.9950 -0.4785
  415MOL0     H56004   2.775  -0.633   8.662 -0.3665  0.3241  0.5481
  415MOL0     H56005   2.392   0.267   8.201  0.0869 -3.7656 -0.7184
  415MOL0     H56006   2.326   0.471   8.095  0.6063  1.3075 -1.5062
  415MOL0     H56007   2.389   0.763   7.702 -0.9925 -1.0122 -2.7813
  415MOL0     H56008   2.338   0.990   7.682 -1.0844  1.0655 -2.9750
  415MOL0     H56009   1.452   2.522   7.491  0.3486 -2.2337 -0.7472
  415MOL0     H56010   1.276   2.663   7.601  1.1809  0.9251 -1.2456
  415MOL0     H56011   0.679   2.554   7.823 -1.1683  0.0867  1.4011
  415MOL0     H56012   0.573   2.705   7.993 -0.8719 -0.0801  0.5929
  415MOL0     H56013   0.830   2.973   8.235  0.9953  1.7172 -2.2831
  415MOL0     H56014   0.657   2.983   8.288 -3.0708 -3.9281 -1.5124
  415MOL0     H56015   0.612   3.120   8.088 -0.4656 -0.6856  1.1175
  415MOL0     H56016   0.784   3.108   8.032  1.6042 -2.6247  0.0843
  415MOL0     H56017   0.841   3.220   8.255  1.1707  1.3956 -0.1389
  415MOL0     H56018   0.674   3.248   8.280  2.1160  3.9616  2.4467
  415MOL0     H56019   0.811   3.445   8.165  2.9125 -1.0945 -1.0717
  415MOL0     H56020   0.839   3.344   8.024 -2.5840  1.2576 -2.2902
  415MOL0     H56021   0.421   3.406   7.975  0.1025 -0.7713 -0.6302
  415MOL0     H56022   0.919   2.911   8.058 -2.3330  0.0639  2.2053
  415MOL0     H56023   1.098   2.878   7.827  3.2172 -0.2932 -0.0678
  415MOL0     H56024   1.128   2.841   7.992  0.8578 -0.1796 -0.6235
  415MOL0     H56025   1.149   2.711   7.879 -1.1095 -1.4317 -0.1964
  416MOL0     O56026   9.033  10.131   9.083  0.2757 -0.3058 -0.1624
  416MOL0     C56027   9.017  10.095   8.964  0.0701  0.1198  0.1012
  416MOL0     O56028   9.114  10.034   8.894 -0.2521  0.3121 -0.1899
  416MOL0     C56029   9.252  10.065   8.912  0.5193 -0.5511 -0.0209
  416MOL0     C56030   9.303  10.188   8.971  0.8156  0.8087  0.3007
  416MOL0     C56031   9.436  10.215   8.975  0.2677  0.0209  0.2423
  416MOL0     C56032   9.525  10.120   8.919 -0.3400 -0.1596 -0.1819
  416MOL0     O56033   9.664  10.151   8.923 -0.0020  0.7966  0.2734
  416MOL0     C56034   9.740  10.067   9.015  0.2646 -0.4506  0.3865
  416MOL0     C56035   9.877  10.023   8.957 -0.3157  0.2723  0.6167
  416MOL0     C56036   9.863   9.929   8.827  0.1499  0.2700  0.3680
  416MOL0     C56037   9.990   9.860   8.762  0.0067  0.1597 -0.3385
  416MOL0     C56038  10.088   9.969   8.711 -0.0205  0.1455  0.0184
  416MOL0     C56039  10.222   9.923   8.659 -0.1964 -0.1286 -0.4142
  416MOL0     C56040  10.318   9.906   8.778  0.0983  0.4697 -0.0649
  416MOL0     C56041  10.437   9.822   8.744 -0.1261 -0.0456 -0.3564
  416MOL0     N56042  10.502   9.885   8.625  0.0899  0.4958  0.0763
  416MOL0     C56043  10.490   9.828   8.499 -0.0222  0.7533 -0.5082
  416MOL0     C56044  10.589   9.877   8.421 -0.3217  0.4370  0.0936
  416MOL0     C56045  10.627   9.864   8.276 -0.7645 -0.4818  0.0688
  416MOL0     C56046  10.553   9.766   8.183 -0.2822  0.1227  0.2376
  416MOL0     C56047  10.582   9.787   8.038 -0.7084 -0.1016  1.1478
  416MOL0     C56048  10.723   9.765   8.000 -0.4873  0.5358 -0.5729
  416MOL0     O56049  10.767   9.636   8.039  0.3201 -0.8419 -0.3991
  416MOL0     C56050  10.821   9.537   7.961 -0.8260  0.3248  0.6598
  416MOL0     C56051  10.817   9.403   8.013  0.0163  1.0331  0.2729
  416MOL0     C56052  10.870   9.293   7.938  0.3001 -0.6493 -0.3585
  416MOL0     C56053  10.921   9.321   7.808 -0.1216  0.0990  0.5460
  416MOL0     C56054  10.971   9.210   7.720 -0.3748  0.8207 -0.6523
  416MOL0     O56055  11.018   9.256   7.597  0.0272  0.9179 -0.5480
  416MOL0     C56056  11.023   9.161   7.503 -0.1834 -0.3559 -1.2546
  416MOL0     C56057  11.149   9.119   7.448 -0.3738 -0.3510  0.6101
  416MOL0     C56058  11.149   9.024   7.342 -0.3334 -0.1372  0.4067
  416MOL0     C56059  11.028   8.973   7.302 -0.0338  0.5417  0.0936
  416MOL0     O56060  11.035   8.867   7.212 -0.2413  0.3117 -0.4599
  416MOL0     C56061  10.914   8.836   7.134 -0.4742 -0.3030  0.3905
  416MOL0     C56062  10.970   8.725   7.036  0.5100 -0.1946 -0.3971
  416MOL0     C56063  11.072   8.774   6.933  0.3050 -0.9993  0.2379
  416MOL0     C56064  11.013   8.880   6.842  0.6301 -0.2434 -0.3461
  416MOL0     C56065  11.123   8.939   6.757 -0.1078  0.7516 -0.1357
  416MOL0     C56066  11.071   9.029   6.649  0.1291 -0.2006  0.0899
  416MOL0     C56067  11.169   9.066   6.546 -0.0024  0.7039 -0.4069
  416MOL0     C56068  11.102   9.138   6.425  0.3768  0.1204 -0.1231
  416MOL0    Cl56069  11.221   9.119   6.294  0.3337  0.1286 -0.1622
  416MOL0     C56070  10.905   9.021   7.343 -0.2164 -1.0056  0.3866
  416MOL0     C56071  10.904   9.120   7.440 -0.1671 -0.8706  0.3468
  416MOL0     O56072  10.948   9.094   7.755 -0.1431 -0.1655 -0.4324
  416MOL0     C56073  10.932   9.454   7.762  0.7593  0.5298 -0.5255
  416MOL0     C56074  10.883   9.560   7.836  0.2973  0.7702 -0.8909
  416MOL0     N56075  10.652   9.977   8.490 -0.5798 -0.3307 -0.3382
  416MOL0     N56076  10.605   9.976   8.619  0.5691 -0.0598  0.7718
  416MOL0     C56077   9.483  10.008   8.857 -0.1800 -0.6141 -0.2758
  416MOL0     C56078   9.346   9.981   8.849  0.4344 -0.1089 -0.0980
  416MOL0     C56079   8.891  10.080   8.895 -0.3441  0.3665 -0.6031
  416MOL0     C56080   8.887  10.014   8.766  0.4578  0.1954 -0.3709
  416MOL0     C56081   8.759   9.988   8.709  0.0785 -0.5622  0.0141
  416MOL0     C56082   8.635  10.031   8.764 -0.0084 -0.0378 -0.2085
  416MOL0     O56083   8.524   9.979   8.700 -0.2154 -0.6231  0.2416
  416MOL0     C56084   8.395   9.991   8.772 -0.2680  0.8177 -0.5801
  416MOL0     C56085   8.318  10.095   8.704  0.3624 -0.6094 -0.8185
  416MOL0     C56086   8.351  10.240   8.753  0.3067  1.0516  0.0640
  416MOL0     C56087   8.288  10.291   8.887 -1.0264 -0.5420 -0.4851
  416MOL0     C56088   8.149  10.331   8.861  0.4731 -0.0606  0.0752
  416MOL0     C56089   8.034  10.347   8.838  0.1593 -1.1708 -0.2016
  416MOL0     C56090   8.648  10.103   8.882 -0.0961  1.0991  0.0739
  416MOL0     C56091   8.769  10.137   8.936 -0.2376  0.1894  0.2576
  416MOL0     C56092   8.765  10.222   9.062 -0.3433  0.0361 -0.5562
  416MOL0     H56093   9.231  10.261   9.005 -1.8556 -0.8740 -1.3329
  416MOL0     H56094   9.465  10.313   9.013  0.0433  0.3025 -0.3095
  416MOL0     H56095   9.756  10.121   9.108  0.3809  1.4937 -0.7211
  416MOL0     H56096   9.688   9.975   9.044  1.2904 -0.6112  1.8122
  416MOL0     H56097   9.934   9.962   9.028  1.7062  0.7624 -0.4937
  416MOL0     H56098   9.925  10.116   8.925 -0.6411  1.2260  2.7665
  416MOL0     H56099   9.798   9.974   8.751 -2.1078 -0.0246  2.0313
  416MOL0     H56100   9.809   9.841   8.865 -1.3789  1.0342  0.0453
  416MOL0     H56101  10.044   9.798   8.834 -0.9123  0.3894  0.5703
  416MOL0     H56102   9.957   9.806   8.673 -0.1287  0.8005 -0.6796
  416MOL0     H56103  10.037  10.023   8.630  2.2182 -1.4405 -2.6113
  416MOL0     H56104  10.103  10.047   8.787 -2.3485  0.3803  0.3375
  416MOL0     H56105  10.197   9.827   8.612 -2.1542  0.5011 -0.7729
  416MOL0     H56106  10.258   9.997   8.587 -2.8467  0.4042 -1.3306
  416MOL0     H56107  10.265   9.855   8.859  2.8450 -2.3597  0.1374
  416MOL0     H56108  10.349  10.008   8.801 -1.6728  2.2019 -4.2756
  416MOL0     H56109  10.516   9.823   8.819  1.3609  2.0483 -1.8525
  416MOL0     H56110  10.402   9.723   8.711  2.4223 -1.5395  1.1133
  416MOL0     H56111  10.417   9.760   8.458  1.2570  0.0866 -1.7738
  416MOL0     H56112  10.620   9.965   8.236 -1.6087  0.2392  1.9198
  416MOL0     H56113  10.729   9.826   8.263 -0.6841  0.3705 -2.0192
  416MOL0     H56114  10.567   9.663   8.217  2.6177  1.1530  2.6204
  416MOL0     H56115  10.451   9.804   8.189 -0.0608  0.8167 -0.2588
  416MOL0     H56116  10.546   9.887   8.011 -0.6542  0.1946  2.1298
  416MOL0     H56117  10.528   9.704   7.991  0.1553 -0.5478  0.9184
  416MOL0     H56118  10.785   9.840   8.051 -0.6992  0.4903 -0.2468
  416MOL0     H56119  10.730   9.784   7.892  0.5820 -1.7749 -0.9719
  416MOL0     H56120  10.769   9.378   8.107 -0.9834  2.4597  0.1694
  416MOL0     H56121  10.871   9.191   7.975  0.9666 -0.1980  0.9296
  416MOL0     H56122  11.246   9.146   7.486  0.2262 -0.5875 -0.6901
  416MOL0     H56123  11.246   9.002   7.300  0.6176  2.2641  1.1687
  416MOL0     H56124  10.832   8.793   7.192 -0.1992 -0.1580  0.9032
  416MOL0     H56125  10.877   8.927   7.087 -0.7538 -0.4121  0.4010
  416MOL0     H56126  11.022   8.658   7.104 -0.5718 -0.2556  0.3920
  416MOL0     H56127  10.892   8.671   6.981  0.4128 -0.5761  0.1160
  416MOL0     H56128  11.162   8.813   6.982 -0.8811 -0.4033  2.0417
  416MOL0     H56129  11.114   8.691   6.875  0.2907  0.0366 -1.3092
  416MOL0     H56130  10.974   8.962   6.902 -1.1761  0.1934 -1.9986
  416MOL0     H56131  10.942   8.827   6.778 -0.2892 -0.5205  0.8666
  416MOL0     H56132  11.173   8.864   6.695  1.5786  1.5150  0.2437
  416MOL0     H56133  11.205   8.977   6.819  1.8166 -2.8361 -0.2182
  416MOL0     H56134  10.982   8.980   6.609 -0.7105  0.2790  1.3079
  416MOL0     H56135  11.016   9.114   6.690 -2.6739 -2.2352  0.9082
  416MOL0     H56136  11.211   8.975   6.503 -0.2048  0.3987  0.0342
  416MOL0     H56137  11.252   9.129   6.581  0.9647 -1.1634  0.8279
  416MOL0     H56138  11.009   9.086   6.402  0.3477  0.7044 -1.4638
  416MOL0     H56139  11.083   9.243   6.448  4.0466  0.8536  0.2270
  416MOL0     H56140  10.809   8.978   7.319 -1.4532  0.8544  1.6994
  416MOL0     H56141  10.811   9.159   7.481  0.2831 -0.0501  0.5894
  416MOL0     H56142  10.978   9.490   7.670  1.5413 -1.0496 -0.7843
  416MOL0     H56143  10.873   9.658   7.790  0.9371  1.5442  0.5515
  416MOL0     H56144   9.547   9.946   8.795 -2.9765 -0.5852 -3.4352
  416MOL0     H56145   9.313   9.901   8.784 -1.1921  1.3979 -1.1897
  416MOL0     H56146   8.974   9.982   8.710  2.0507  2.1751  0.8187
  416MOL0     H56147   8.761   9.937   8.613  0.7638 -3.1354  1.2990
  416MOL0     H56148   8.395  10.007   8.880  0.6413  2.3173 -0.7755
  416MOL0     H56149   8.344   9.895   8.757  0.7300 -0.2810  2.3046
  416MOL0     H56150   8.214  10.073   8.732  0.7510 -0.4126  0.9077
  416MOL0     H56151   8.334  10.090   8.596  3.6084 -0.5162 -0.4253
  416MOL0     H56152   8.323  10.308   8.673  1.2772  1.4038  0.0211
  416MOL0     H56153   8.460  10.242   8.759  0.7339 -2.1865 -3.0808
  416MOL0     H56154   8.301  10.212   8.962  0.6730 -0.9652 -1.1769
  416MOL0     H56155   8.344  10.381   8.915 -1.0806 -0.9623  1.0510
  416MOL0     H56156   7.933  10.362   8.805 -0.0280  0.4375  0.9196
  416MOL0     H56157   8.564  10.133   8.945  0.6177  2.0766  0.5880
  416MOL0     H56158   8.670  10.274   9.077 -0.6737 -0.7556  0.2148
  416MOL0     H56159   8.772  10.159   9.151 -2.3898  1.1096  0.4486
  416MOL0     H56160   8.847  10.294   9.058 -0.0640 -0.3071 -1.0582
  417MOL0     O56161   9.330   9.214   1.992 -0.5546 -0.0077 -1.0987
  417MOL0     C56162   9.238   9.261   2.058  0.8908  0.4416  1.1900
  417MOL0     O56163   9.212   9.394   2.065 -0.1207 -0.0886 -0.3631
  417MOL0     C56164   9.300   9.499   2.022  0.0450  0.3214  0.8467
  417MOL0     C56165   9.234   9.613   1.992 -0.4623 -0.5239  0.4264
  417MOL0     C56166   9.310   9.724   1.959 -0.5672 -0.8530  0.6835
  417MOL0     C56167   9.448   9.730   1.952  0.3634  0.1614  0.4038
  417MOL0     O56168   9.512   9.849   1.917 -0.0922  0.2606 -0.1253
  417MOL0     C56169   9.655   9.848   1.895 -1.0089 -0.6562 -0.4640
  417MOL0     C56170   9.706   9.986   1.856  0.9175  0.2050 -0.0175
  417MOL0     C56171   9.856   9.993   1.856 -0.8322  0.0790 -1.0149
  417MOL0     C56172   9.906  10.143   1.852  0.1118  1.6825  0.5075
  417MOL0     C56173  10.055  10.158   1.865  0.2724  0.0199  0.0015
  417MOL0     C56174  10.124  10.076   1.745  1.2165 -0.3329 -0.0859
  417MOL0     C56175  10.271  10.114   1.722  0.1527 -0.6586 -0.6008
  417MOL0     C56176  10.349  10.009   1.631 -0.1339 -0.2392  0.2534
  417MOL0     N56177  10.495  10.025   1.648 -0.5343 -0.3485 -0.7334
  417MOL0     C56178  10.595   9.927   1.659 -0.2900 -0.2086  0.0440
  417MOL0     C56179  10.706   9.976   1.709  0.4781  0.0155 -0.3660
  417MOL0     C56180  10.837   9.909   1.733 -0.3464 -0.7686 -0.4191
  417MOL0     C56181  10.863   9.784   1.646  0.3295 -1.2057  0.3362
  417MOL0     C56182  10.995   9.716   1.672 -0.1915  0.3815  0.0856
  417MOL0     C56183  10.967   9.585   1.753 -0.6248 -0.3266 -0.3498
  417MOL0     O56184  10.921   9.488   1.659 -0.6711  0.2256  0.6348
  417MOL0     C56185  10.928   9.360   1.714 -0.2082 -0.0237 -0.5671
  417MOL0     C56186  10.865   9.337   1.829  0.4734  0.3209  0.1725
  417MOL0     C56187  10.882   9.212   1.888  0.0456 -0.0258 -0.2050
  417MOL0     C56188  10.946   9.106   1.822 -0.8844  0.0581 -0.0986
  417MOL0     C56189  10.955   8.977   1.894 -0.6930  0.7569  0.5838
  417MOL0     O56190  11.033   8.882   1.843  0.5751  0.3156  0.4251
  417MOL0     C56191  11.062   8.760   1.901  0.5739 -1.4162  0.5393
  417MOL0     C56192  11.166   8.701   1.830 -0.7346  1.2321 -0.2670
  417MOL0     C56193  11.227   8.587   1.886 -1.5311 -0.4342  0.0353
  417MOL0     C56194  11.181   8.531   2.005  0.5606 -0.7020 -0.2103
  417MOL0     O56195  11.246   8.425   2.064  1.1320 -0.0417 -0.1652
  417MOL0     C56196  11.275   8.301   1.986 -0.1783  0.7367  0.0165
  417MOL0     C56197  11.364   8.203   2.068  0.1234  0.9374 -0.0431
  417MOL0     C56198  11.508   8.260   2.098  0.1850 -0.5937  0.0023
  417MOL0     C56199  11.637   8.170   2.082  0.2446 -0.7678  0.2130
  417MOL0     C56200  11.637   8.055   2.181 -0.8585 -0.1501  0.3111
  417MOL0     C56201  11.752   7.958   2.159 -0.6155  0.6883  1.2533
  417MOL0     C56202  11.739   7.842   2.263 -0.9577  0.2993 -0.0958
  417MOL0     C56203  11.829   7.726   2.214 -0.4430  0.4863 -0.1113
  417MOL0    Cl56204  11.965   7.783   2.120  0.0310 -0.1963 -0.1574
  417MOL0     C56205  11.072   8.589   2.070 -0.5359  0.3742 -0.3129
  417MOL0     C56206  11.015   8.709   2.024  0.2204 -0.1676  0.0393
  417MOL0     O56207  10.899   8.971   2.001  0.0343  0.2736 -0.1853
  417MOL0     C56208  10.994   9.130   1.691  0.1426  0.3177  0.1137
  417MOL0     C56209  10.985   9.258   1.643  0.6028 -0.2798  0.3132
  417MOL0     N56210  10.682  10.111   1.712  0.3295  0.2719 -0.7622
  417MOL0     N56211  10.561  10.133   1.679  0.3518  0.4583 -0.5674
  417MOL0     C56212   9.513   9.608   1.958  0.5627 -0.7929 -0.3203
  417MOL0     C56213   9.439   9.496   2.001 -0.4284  0.3282  0.9467
  417MOL0     C56214   9.149   9.158   2.126 -0.5714 -0.0148  0.9151
  417MOL0     C56215   9.213   9.033   2.158 -0.4036  0.4006 -0.4232
  417MOL0     C56216   9.143   8.941   2.236  0.1857  0.3608 -0.3944
  417MOL0     C56217   9.023   8.976   2.296  0.5987 -0.6651 -0.7269
  417MOL0     O56218   8.957   8.908   2.386 -0.5475 -0.8100 -0.1502
  417MOL0     C56219   9.027   8.813   2.468 -1.2169  1.0246 -0.1693
  417MOL0     C56220   8.922   8.748   2.570  0.1029  0.6466  0.1654
  417MOL0     C56221   8.827   8.648   2.495 -0.1355  0.3649  1.0181
  417MOL0     C56222   8.881   8.518   2.467 -0.1974  0.9490  0.5088
  417MOL0     C56223   8.918   8.449   2.593  0.5818 -1.0384  0.0750
  417MOL0     C56224   8.950   8.402   2.697 -0.2354 -0.2144 -0.3779
  417MOL0     C56225   8.953   9.093   2.242 -0.9738  0.5754 -0.6657
  417MOL0     C56226   9.015   9.181   2.157  0.0820 -0.0128  0.3533
  417MOL0     C56227   8.943   9.294   2.089 -0.1496 -0.0207 -0.3898
  417MOL0     H56228   9.126   9.620   2.003 -0.1536  2.2335  2.8893
  417MOL0     H56229   9.257   9.814   1.927  2.1912 -0.0293 -2.0497
  417MOL0     H56230   9.713   9.832   1.986  2.1603  1.8810 -1.8011
  417MOL0     H56231   9.688   9.777   1.818  2.6473 -2.3796  2.3699
  417MOL0     H56232   9.657  10.056   1.925 -4.1863 -2.2874 -0.6155
  417MOL0     H56233   9.671  10.013   1.756  0.0510 -0.1717  0.1764
  417MOL0     H56234   9.887   9.934   1.769 -1.1271  2.2634 -2.6815
  417MOL0     H56235   9.901   9.939   1.940 -0.4840 -0.8206 -1.7598
  417MOL0     H56236   9.866  10.205   1.771  0.9492  0.7981 -0.6277
  417MOL0     H56237   9.860  10.187   1.940  0.5534  2.7548  0.2276
  417MOL0     H56238  10.093  10.260   1.863  2.0113 -0.5772  0.5515
  417MOL0     H56239  10.086  10.108   1.957  0.6403  1.7442  0.8486
  417MOL0     H56240  10.118   9.967   1.757  2.6414 -0.9899 -4.0493
  417MOL0     H56241  10.081  10.086   1.645 -0.6078 -0.9246  0.6034
  417MOL0     H56242  10.326  10.132   1.815  0.2216  0.3997 -0.8271
  417MOL0     H56243  10.272  10.213   1.675 -0.0219 -0.2396  0.2505
  417MOL0     H56244  10.333   9.908   1.669  0.0651 -0.6727 -0.7740
  417MOL0     H56245  10.313  10.007   1.527  0.3267 -0.2976  0.0952
  417MOL0     H56246  10.573   9.824   1.635  3.2985 -0.7734 -1.5158
  417MOL0     H56247  10.921   9.974   1.708 -0.2365 -0.8893 -0.3658
  417MOL0     H56248  10.851   9.888   1.840  1.3438  1.3645 -0.1547
  417MOL0     H56249  10.776   9.720   1.629 -0.3604  0.3210 -2.7952
  417MOL0     H56250  10.876   9.833   1.549 -2.4752 -1.3269 -0.1821
  417MOL0     H56251  11.059   9.786   1.727  2.0339  0.7189 -2.7133
  417MOL0     H56252  11.052   9.690   1.583 -2.3280 -3.2293 -0.4508
  417MOL0     H56253  10.900   9.610   1.835  3.7390  1.5515  3.0560
  417MOL0     H56254  11.059   9.547   1.799 -0.6769 -0.4193 -0.3220
  417MOL0     H56255  10.804   9.414   1.875 -3.6281 -2.1800 -0.5495
  417MOL0     H56256  10.834   9.210   1.985 -1.6938  1.4711 -0.9781
  417MOL0     H56257  11.209   8.729   1.734  1.5770  0.9836  0.6269
  417MOL0     H56258  11.320   8.549   1.846 -0.6038 -0.2846  1.9410
  417MOL0     H56259  11.183   8.255   1.949 -0.5335  1.0031  0.5610
  417MOL0     H56260  11.334   8.338   1.901  1.3820  4.1530  2.3871
  417MOL0     H56261  11.309   8.172   2.158 -1.1113  1.3714 -0.6198
  417MOL0     H56262  11.384   8.116   2.005  0.8037  1.0787 -0.0249
  417MOL0     H56263  11.524   8.342   2.029 -3.6303  0.8479  0.5972
  417MOL0     H56264  11.503   8.303   2.199 -2.7072 -1.3501  0.2831
  417MOL0     H56265  11.724   8.234   2.099 -1.3064  1.3138  0.7970
  417MOL0     H56266  11.645   8.130   1.980 -0.9890  1.0250 -0.6555
  417MOL0     H56267  11.546   7.998   2.160  0.8590 -2.2338 -2.0165
  417MOL0     H56268  11.630   8.101   2.280 -0.9989  1.2832 -0.3377
  417MOL0     H56269  11.747   7.930   2.054  0.7579  0.7892  1.1330
  417MOL0     H56270  11.852   8.004   2.167  0.3866 -1.3808  1.1922
  417MOL0     H56271  11.637   7.809   2.285  0.1398 -2.5290  1.1347
  417MOL0     H56272  11.779   7.884   2.356  3.3897 -0.5211 -1.3756
  417MOL0     H56273  11.866   7.670   2.300  1.5782 -0.7746 -1.7058
  417MOL0     H56274  11.765   7.658   2.157 -1.1559 -0.8169  2.1353
  417MOL0     H56275  11.046   8.532   2.158 -3.5962  2.0803  0.0205
  417MOL0     H56276  10.929   8.758   2.069  0.3980  2.2714 -2.0170
  417MOL0     H56277  11.030   9.051   1.626 -2.6577 -1.5528  0.6630
  417MOL0     H56278  11.029   9.266   1.544  2.1823 -0.3958  0.9722
  417MOL0     H56279   9.616   9.599   1.925 -0.1713 -3.6220 -2.2257
  417MOL0     H56280   9.490   9.401   2.011  0.0731  0.8159  3.8570
  417MOL0     H56281   9.312   9.003   2.125 -2.1467 -3.2669 -2.9554
  417MOL0     H56282   9.205   8.857   2.267  0.0214 -0.0276 -1.1035
  417MOL0     H56283   9.107   8.856   2.529  0.0815  0.2656 -1.2833
  417MOL0     H56284   9.084   8.740   2.410 -0.7096  0.7145  0.7032
  417MOL0     H56285   8.865   8.824   2.625 -0.6755 -0.9398  1.6488
  417MOL0     H56286   8.983   8.686   2.636 -0.9560 -4.5658 -3.1790
  417MOL0     H56287   8.785   8.681   2.400 -0.2161  1.0543  1.2829
  417MOL0     H56288   8.741   8.637   2.562 -0.7283  2.2113  0.6371
  417MOL0     H56289   8.801   8.458   2.422  1.6890  0.7814 -2.9724
  417MOL0     H56290   8.964   8.518   2.395 -0.7736 -1.0171 -0.2215
  417MOL0     H56291   8.978   8.375   2.797  2.5839  3.8637  0.1781
  417MOL0     H56292   8.850   9.109   2.272 -1.5161  1.5638 -2.8286
  417MOL0     H56293   8.959   9.293   1.981 -1.8597 -0.3705 -0.6614
  417MOL0     H56294   8.837   9.274   2.103  0.2546 -1.6654  0.6348
  417MOL0     H56295   8.961   9.388   2.141 -0.1090 -2.6562  5.0718
  418MOL0     O56296   4.163   8.539   9.216  0.5561  0.2368 -0.5792
  418MOL0     C56297   4.092   8.465   9.286 -0.1242  0.6367 -0.1758
  418MOL0     O56298   4.143   8.360   9.357  0.4866 -0.5104  0.7821
  418MOL0     C56299   4.272   8.330   9.343 -0.1484 -0.7493 -0.0532
  418MOL0     C56300   4.317   8.200   9.292  0.1782  0.9458 -0.7636
  418MOL0     C56301   4.449   8.163   9.279  0.0039 -0.6913 -0.3434
  418MOL0     C56302   4.550   8.258   9.303  0.4196  0.5051 -0.7168
  418MOL0     O56303   4.681   8.221   9.274  0.2470  0.1482  0.3523
  418MOL0     C56304   4.798   8.275   9.343  0.6730 -0.4127  0.4135
  418MOL0     C56305   4.836   8.198   9.472 -0.5494  0.4706 -0.2351
  418MOL0     C56306   4.832   8.048   9.449 -0.0709 -0.0708  0.3474
  418MOL0     C56307   4.782   7.969   9.565  0.2782 -0.0117  0.5499
  418MOL0     C56308   4.780   7.827   9.529  0.3556 -0.0483 -1.0284
  418MOL0     C56309   4.713   7.761   9.645  0.9239 -0.0823 -0.5946
  418MOL0     C56310   4.684   7.614   9.616  0.0283  0.1230  0.5074
  418MOL0     C56311   4.595   7.546   9.720  0.6147 -0.2117 -0.1315
  418MOL0     N56312   4.595   7.395   9.720  0.4328 -0.2768 -0.3146
  418MOL0     C56313   4.703   7.328   9.778  0.0573  0.1543  0.5933
  418MOL0     C56314   4.660   7.196   9.773  0.0105  0.3695  0.3709
  418MOL0     C56315   4.719   7.065   9.826 -0.4912  0.5121 -0.6674
  418MOL0     C56316   4.701   7.035   9.970  0.6904  0.9405  0.4042
  418MOL0     C56317   4.764   6.901  10.024 -0.2506  0.0427 -0.5643
  418MOL0     C56318   4.711   6.779   9.954 -0.2337  0.9852 -0.2511
  418MOL0     O56319   4.781   6.660  10.016 -0.0401 -0.2124 -0.2050
  418MOL0     C56320   4.889   6.610   9.963  0.1216 -0.2353  0.0837
  418MOL0     C56321   4.926   6.490  10.015 -0.4325  0.2941 -0.2983
  418MOL0     C56322   5.037   6.414   9.961  0.5618 -0.3000 -0.5885
  418MOL0     C56323   5.108   6.459   9.852  0.3545  0.7998  0.5221
  418MOL0     C56324   5.199   6.369   9.782 -0.8491 -1.1372  0.3306
  418MOL0     O56325   5.282   6.430   9.695  0.2391  0.2284  0.9024
  418MOL0     C56326   5.357   6.356   9.611 -0.1560  0.5614  0.3469
  418MOL0     C56327   5.499   6.376   9.609  0.2160  0.7780  0.6442
  418MOL0     C56328   5.575   6.323   9.506 -0.6154  0.0111  0.0514
  418MOL0     C56329   5.521   6.219   9.417 -1.2825  0.0715  0.0253
  418MOL0     O56330   5.603   6.140   9.329 -0.2624 -0.4061  0.3643
  418MOL0     C56331   5.737   6.181   9.317 -0.4115 -0.4252 -0.4833
  418MOL0     C56332   5.811   6.102   9.207 -0.0661  0.3808 -0.6373
  418MOL0     C56333   5.964   6.132   9.218  0.0187 -0.0831 -0.3400
  418MOL0     C56334   6.037   6.055   9.106 -1.2988 -0.1896  0.3099
  418MOL0     C56335   6.031   6.140   8.983 -0.1609  0.7367 -0.9754
  418MOL0     C56336   6.086   6.072   8.847 -0.4069 -0.3858 -0.5784
  418MOL0     C56337   6.232   6.046   8.844  0.1246  0.1579  0.2418
  418MOL0     C56338   6.295   6.038   8.703  0.3442  0.1066  0.2514
  418MOL0    Cl56339   6.295   6.199   8.627  0.7149 -0.4893 -0.2880
  418MOL0     C56340   5.387   6.191   9.432  1.0645 -0.1555  0.0275
  418MOL0     C56341   5.312   6.259   9.517  0.3805  0.2226 -0.8591
  418MOL0     O56342   5.185   6.249   9.799  0.5677 -0.3047  0.4217
  418MOL0     C56343   5.080   6.596   9.815  0.6827  0.1564  0.5607
  418MOL0     C56344   4.970   6.668   9.873 -0.7091 -1.0861 -0.1749
  418MOL0     N56345   4.533   7.192   9.712 -0.1777 -0.3422 -0.6640
  418MOL0     N56346   4.506   7.307   9.663  0.0805 -0.3708  0.1888
  418MOL0     C56347   4.507   8.387   9.342 -0.2591  0.0585 -0.1854
  418MOL0     C56348   4.374   8.423   9.377 -0.0833  0.2414  0.8279
  418MOL0     C56349   3.961   8.526   9.327  0.3830 -1.0568  0.4478
  418MOL0     C56350   3.926   8.530   9.464 -0.6767  0.5700 -0.4146
  418MOL0     C56351   3.805   8.597   9.499  0.2385  0.1977  0.6828
  418MOL0     C56352   3.725   8.664   9.409 -0.2743  0.3423 -0.8924
  418MOL0     O56353   3.601   8.716   9.452 -0.5576 -0.9554  0.3443
  418MOL0     C56354   3.557   8.843   9.387 -1.0314  0.0305 -0.5838
  418MOL0     C56355   3.669   8.945   9.360 -0.2706 -0.1337 -0.6790
  418MOL0     C56356   3.725   9.002   9.500  0.6764  0.6282  0.4548
  418MOL0     C56357   3.828   9.112   9.480  0.7297 -0.3110  0.4475
  418MOL0     C56358   3.858   9.178   9.604  0.1158 -0.2973 -0.2999
  418MOL0     C56359   3.908   9.240   9.704 -0.1718  0.1898  0.8759
  418MOL0     C56360   3.754   8.642   9.276 -0.1365 -0.3532 -0.0798
  418MOL0     C56361   3.874   8.585   9.235 -0.2678  0.3975 -0.2008
  418MOL0     C56362   3.886   8.565   9.082 -0.3067 -0.6913  0.0773
  418MOL0     H56363   4.244   8.123   9.269 -0.0356  1.2669 -1.1648
  418MOL0     H56364   4.480   8.067   9.239  0.8308  0.5334 -2.9085
  418MOL0     H56365   4.881   8.276   9.272  1.3531  0.8412  1.1978
  418MOL0     H56366   4.765   8.378   9.363  0.5030  0.4712 -3.5771
  418MOL0     H56367   4.757   8.228   9.541  2.5382  2.0151  2.9785
  418MOL0     H56368   4.935   8.237   9.501  1.2263 -0.6489 -4.0767
  418MOL0     H56369   4.934   8.014   9.429 -0.5512 -1.2619 -0.2176
  418MOL0     H56370   4.781   8.017   9.357  1.3502 -0.6202 -0.2922
  418MOL0     H56371   4.851   7.982   9.648 -3.8755  4.6430  3.8586
  418MOL0     H56372   4.683   8.000   9.601  1.6498  4.9967  0.6016
  418MOL0     H56373   4.699   7.823   9.456 -0.0844  3.3447 -0.8819
  418MOL0     H56374   4.873   7.785   9.492 -0.0133 -2.0417  0.1207
  418MOL0     H56375   4.772   7.789   9.732 -1.3181  1.8067  0.4182
  418MOL0     H56376   4.617   7.811   9.659  2.3405  2.6308  0.2197
  418MOL0     H56377   4.779   7.562   9.600  1.1755  1.4027  2.6800
  418MOL0     H56378   4.640   7.608   9.516 -0.3208  1.3599  0.5678
  418MOL0     H56379   4.629   7.575   9.819  2.7985 -2.0344 -0.2578
  418MOL0     H56380   4.491   7.576   9.700  0.3834 -1.6750 -1.3457
  418MOL0     H56381   4.795   7.369   9.817  0.7619  0.7576 -1.5758
  418MOL0     H56382   4.666   6.992   9.764  0.4721  0.6339 -1.6548
  418MOL0     H56383   4.828   7.061   9.820 -0.4768 -1.0969  0.1635
  418MOL0     H56384   4.751   7.122  10.016 -0.5736  1.5805  0.5989
  418MOL0     H56385   4.598   7.021  10.002  0.7641 -2.9401 -0.5476
  418MOL0     H56386   4.734   6.883  10.128  0.4907 -1.4154 -0.5810
  418MOL0     H56387   4.873   6.915  10.020 -0.0516  0.6868  3.2230
  418MOL0     H56388   4.736   6.780   9.847  0.7433  2.2914 -0.0423
  418MOL0     H56389   4.605   6.768   9.978 -0.8188  5.2010 -0.1281
  418MOL0     H56390   4.864   6.462  10.100  0.0028  1.5770  0.4777
  418MOL0     H56391   5.063   6.317  10.004  0.7168 -0.7520 -1.6712
  418MOL0     H56392   5.552   6.441   9.678  1.8840  1.6035 -1.3319
  418MOL0     H56393   5.681   6.345   9.502 -0.7525  1.2836  1.7734
  418MOL0     H56394   5.741   6.290   9.310 -1.6721 -0.4466 -2.1122
  418MOL0     H56395   5.785   6.144   9.409 -3.8204 -2.4795  0.6474
  418MOL0     H56396   5.791   5.997   9.227 -4.5610  1.8466  5.8535
  418MOL0     H56397   5.768   6.138   9.112 -0.0406 -1.5384 -1.4216
  418MOL0     H56398   5.982   6.239   9.209 -3.0472  0.4066 -1.6371
  418MOL0     H56399   6.006   6.086   9.308  2.2732  2.0124 -0.2220
  418MOL0     H56400   5.987   5.962   9.076  1.3655 -0.6486 -3.4219
  418MOL0     H56401   6.141   6.043   9.137 -0.5677  0.0118 -1.8932
  418MOL0     H56402   6.086   6.231   9.011  0.1576 -0.2605  1.9493
  418MOL0     H56403   5.928   6.167   8.956 -0.0141  0.1865 -2.1378
  418MOL0     H56404   6.029   5.987   8.808  1.9162 -2.1535 -0.3255
  418MOL0     H56405   6.081   6.157   8.778  3.5084  1.0885  0.6933
  418MOL0     H56406   6.231   5.953   8.902 -0.5526 -0.2341 -0.3723
  418MOL0     H56407   6.269   6.130   8.902 -0.4224  1.4013 -1.1555
  418MOL0     H56408   6.392   5.988   8.695  0.3339 -0.1071  1.2481
  418MOL0     H56409   6.225   5.982   8.640  0.9000  3.9032 -4.2432
  418MOL0     H56410   5.330   6.119   9.375 -0.5871  0.9924  0.1629
  418MOL0     H56411   5.204   6.248   9.512 -0.7981  5.8391  2.9525
  418MOL0     H56412   5.133   6.630   9.726 -0.2166 -0.2015 -0.1258
  418MOL0     H56413   4.959   6.770   9.838  3.2857  1.1707  4.1569
  418MOL0     H56414   4.590   8.457   9.354  0.7333 -0.9441 -0.9759
  418MOL0     H56415   4.346   8.521   9.412  3.7505  0.6187  3.4064
  418MOL0     H56416   4.000   8.488   9.531 -1.2928 -0.7691 -0.5335
  418MOL0     H56417   3.769   8.617   9.600  0.0882 -0.0676  0.6839
  418MOL0     H56418   3.478   8.888   9.448 -1.1116  2.2834 -2.2225
  418MOL0     H56419   3.504   8.812   9.296 -1.7276 -3.5082  0.8463
  418MOL0     H56420   3.645   9.029   9.294  1.0755  0.3433 -0.5982
  418MOL0     H56421   3.742   8.893   9.298 -0.1267  1.2738 -1.7395
  418MOL0     H56422   3.751   8.921   9.569 -3.3625  0.3724  1.9428
  418MOL0     H56423   3.640   9.056   9.541 -2.3399 -0.8160 -3.3464
  418MOL0     H56424   3.923   9.073   9.441  1.3969 -0.3003  1.9830
  418MOL0     H56425   3.790   9.188   9.412  2.2474 -0.0231 -0.1136
  418MOL0     H56426   3.959   9.283   9.789  0.2437 -1.8092  1.6982
  418MOL0     H56427   3.679   8.692   9.214 -1.8551 -0.2733  1.9386
  418MOL0     H56428   3.792   8.532   9.036 -0.3807 -0.6159  0.1756
  418MOL0     H56429   3.912   8.656   9.026 -4.6239 -0.9607 -2.8629
  418MOL0     H56430   3.961   8.497   9.041 -1.4198 -0.8139 -1.8753
  419MOL0     O56431   3.988   3.428   9.155 -0.6010 -0.1469 -0.0316
  419MOL0     C56432   4.082   3.349   9.161 -0.3114  0.4941  0.4484
  419MOL0     O56433   4.116   3.276   9.272  0.5572 -0.2308  0.1071
  419MOL0     C56434   4.075   3.336   9.393  0.4828  0.2863  0.0731
  419MOL0     C56435   3.950   3.297   9.428  0.7491 -1.1956  0.0920
  419MOL0     C56436   3.906   3.346   9.551 -0.4866 -1.1324 -0.6531
  419MOL0     C56437   3.982   3.434   9.637  0.1148  0.2815 -0.5266
  419MOL0     O56438   3.934   3.495   9.753  0.4205 -0.8166 -0.7410
  419MOL0     C56439   3.797   3.522   9.778  0.0561 -0.1212 -0.8800
  419MOL0     C56440   3.807   3.588   9.927  0.1910  0.0786  0.4493
  419MOL0     C56441   3.677   3.587   9.994 -0.2307  0.5395 -0.4024
  419MOL0     C56442   3.652   3.448  10.068  0.5597  0.3162 -0.4610
  419MOL0     C56443   3.728   3.414  10.193 -0.0628  0.0488  0.2355
  419MOL0     C56444   3.651   3.437  10.322  0.1585 -0.3952  0.2531
  419MOL0     C56445   3.619   3.585  10.343 -0.1635 -0.3049  0.5448
  419MOL0     C56446   3.560   3.613  10.481  0.1405 -0.3609  0.0097
  419MOL0     N56447   3.531   3.761  10.494  0.6759 -0.7318 -0.5008
  419MOL0     C56448   3.483   3.848  10.389 -0.4906 -1.2106  0.2103
  419MOL0     C56449   3.452   3.959  10.459  0.7160  0.1497 -0.3450
  419MOL0     C56450   3.359   4.071  10.416  0.1281 -0.2448 -0.7434
  419MOL0     C56451   3.371   4.201  10.504  0.5325  0.2866  0.3866
  419MOL0     C56452   3.506   4.290  10.483 -1.2366 -0.0786 -0.9239
  419MOL0     C56453   3.563   4.352  10.611 -0.5355 -1.3847  0.4399
  419MOL0     O56454   3.710   4.381  10.609 -0.0889  0.0374  0.5766
  419MOL0     C56455   3.769   4.485  10.538 -0.1736  0.4446  0.0552
  419MOL0     C56456   3.913   4.462  10.526 -0.1158 -0.7519 -0.5994
  419MOL0     C56457   3.988   4.550  10.454 -0.6337  0.5939  0.0322
  419MOL0     C56458   3.916   4.658  10.378  0.0393 -0.5296 -0.4358
  419MOL0     C56459   3.992   4.747  10.288 -0.3203  0.6203  0.1857
  419MOL0     O56460   3.929   4.855  10.235 -0.2043 -0.5787  0.2910
  419MOL0     C56461   4.000   4.944  10.156  0.2690 -1.0075  0.0579
  419MOL0     C56462   4.100   5.030  10.202 -0.6483  0.3077  0.6167
  419MOL0     C56463   4.166   5.125  10.116 -0.0446 -0.1841 -1.3104
  419MOL0     C56464   4.129   5.147   9.988  0.3377  0.6158  0.6741
  419MOL0     O56465   4.208   5.209   9.896 -0.0992 -0.0173  0.0896
  419MOL0     C56466   4.328   5.281   9.928 -0.4073 -0.0167  0.4740
  419MOL0     C56467   4.414   5.310   9.800 -1.1230  0.7755 -0.2214
  419MOL0     C56468   4.325   5.361   9.687  0.0708  1.3048  0.5348
  419MOL0     C56469   4.253   5.495   9.709 -0.4578  0.7117 -0.5216
  419MOL0     C56470   4.161   5.500   9.593 -0.0641  0.1680  0.5050
  419MOL0     C56471   4.130   5.652   9.558  0.0238 -0.6305 -0.2131
  419MOL0     C56472   4.029   5.676   9.443  0.4705  0.0268 -0.7870
  419MOL0     C56473   3.885   5.644   9.479 -0.1462  0.4059 -0.3072
  419MOL0    Cl56474   3.824   5.758   9.602 -0.0330  0.0945  0.3078
  419MOL0     C56475   4.022   5.062   9.937 -0.0256 -0.0743 -0.1809
  419MOL0     C56476   3.965   4.969  10.024 -0.0402  0.4557  0.6154
  419MOL0     O56477   4.112   4.722  10.279 -0.0492 -0.2823 -0.2275
  419MOL0     C56478   3.781   4.657  10.387  0.6536 -0.0385  0.5311
  419MOL0     C56479   3.703   4.575  10.460  0.2037 -0.2767  0.5645
  419MOL0     N56480   3.495   3.941  10.592 -0.3570 -0.4552  0.5813
  419MOL0     N56481   3.556   3.830  10.606 -0.2052 -0.2967  0.2285
  419MOL0     C56482   4.104   3.480   9.587 -0.0319 -0.4777  0.1750
  419MOL0     C56483   4.157   3.423   9.467  1.0860 -0.3672  0.2501
  419MOL0     C56484   4.170   3.316   9.042  0.0373 -0.2674 -0.4422
  419MOL0     C56485   4.252   3.208   9.046 -0.4099 -0.0510 -0.6407
  419MOL0     C56486   4.347   3.173   8.950  0.3461  0.1100 -0.2615
  419MOL0     C56487   4.344   3.236   8.832  0.4336  0.4770  0.1219
  419MOL0     O56488   4.413   3.185   8.725 -0.2991 -0.0217  0.3339
  419MOL0     C56489   4.451   3.271   8.615  0.2080 -0.3226  0.8383
  419MOL0     C56490   4.558   3.208   8.522  0.6920  0.4990  0.2239
  419MOL0     C56491   4.501   3.088   8.455  0.6489 -0.0602 -0.7718
  419MOL0     C56492   4.556   3.060   8.305 -1.0097  0.6256 -0.4413
  419MOL0     C56493   4.506   3.161   8.214 -0.5458 -0.1627 -0.3255
  419MOL0     C56494   4.457   3.231   8.130  0.5271 -0.7103 -0.0601
  419MOL0     C56495   4.248   3.339   8.817 -0.4408 -0.7142  1.7866
  419MOL0     C56496   4.165   3.382   8.915 -1.3995 -0.5952 -1.1065
  419MOL0     C56497   4.089   3.505   8.876 -0.0568  0.8300  0.1222
  419MOL0     H56498   3.894   3.235   9.359 -1.2136 -2.7025  2.8486
  419MOL0     H56499   3.811   3.321   9.597 -0.7895  2.8240  1.2654
  419MOL0     H56500   3.761   3.598   9.708 -2.2798 -0.8262 -0.5556
  419MOL0     H56501   3.731   3.434   9.780  0.7050 -0.6430 -1.9361
  419MOL0     H56502   3.845   3.691   9.926  0.3081  0.0491  1.0633
  419MOL0     H56503   3.880   3.531   9.985 -2.1966  0.6584  4.4261
  419MOL0     H56504   3.600   3.598   9.916  0.2816  3.5903 -0.6249
  419MOL0     H56505   3.672   3.670  10.065 -0.4506  0.3549 -0.2008
  419MOL0     H56506   3.547   3.436  10.098 -0.0502 -3.7159 -3.3105
  419MOL0     H56507   3.667   3.368   9.995 -1.1496 -0.1326 -0.3735
  419MOL0     H56508   3.752   3.307  10.185  0.8337  0.2829 -0.3919
  419MOL0     H56509   3.829   3.456  10.197  0.6875 -1.4287 -1.4865
  419MOL0     H56510   3.566   3.369  10.317  0.4208 -1.1794  3.7819
  419MOL0     H56511   3.705   3.395  10.407  0.7476  1.1686  0.6969
  419MOL0     H56512   3.553   3.624  10.265 -0.2835  0.5852  1.0676
  419MOL0     H56513   3.711   3.637  10.316 -0.0775 -1.2257 -1.0710
  419MOL0     H56514   3.473   3.549  10.501 -1.3581  1.9063  1.1209
  419MOL0     H56515   3.632   3.598  10.562 -0.6061  0.9991  0.9628
  419MOL0     H56516   3.450   3.833  10.287 -0.3580 -2.6077  0.3435
  419MOL0     H56517   3.389   4.109  10.318 -0.7078  4.1479  0.4725
  419MOL0     H56518   3.255   4.037  10.411  0.7229 -2.1995 -0.6577
  419MOL0     H56519   3.289   4.265  10.468 -2.4058 -3.2100  0.2231
  419MOL0     H56520   3.352   4.180  10.609  1.5633 -0.8952  0.3499
  419MOL0     H56521   3.481   4.370  10.413 -1.6825 -0.2280 -0.9388
  419MOL0     H56522   3.587   4.234  10.436 -0.0530  1.7307 -1.1424
  419MOL0     H56523   3.534   4.279  10.688 -1.1613 -1.5690  0.0422
  419MOL0     H56524   3.509   4.442  10.639  0.6381 -0.1953 -0.9822
  419MOL0     H56525   3.944   4.384  10.595  0.1952  1.1110  1.4714
  419MOL0     H56526   4.096   4.550  10.461 -0.7086 -1.0594  2.7223
  419MOL0     H56527   4.134   5.021  10.305  0.5584 -2.6548  0.0591
  419MOL0     H56528   4.246   5.174  10.171 -2.8066  1.8141  1.2311
  419MOL0     H56529   4.311   5.374   9.983 -3.3419 -0.5261  0.5612
  419MOL0     H56530   4.397   5.222   9.989  0.5425 -1.0747 -1.5233
  419MOL0     H56531   4.478   5.394   9.830  0.0069 -0.4285  0.8542
  419MOL0     H56532   4.468   5.221   9.767 -2.1094  0.0307  0.1610
  419MOL0     H56533   4.393   5.372   9.603  0.2488  2.0952  0.7723
  419MOL0     H56534   4.249   5.286   9.663  2.8328 -1.1016 -1.3198
  419MOL0     H56535   4.319   5.582   9.707 -1.4227  1.4559 -1.7120
  419MOL0     H56536   4.208   5.494   9.808  0.8021  0.5708  0.0632
  419MOL0     H56537   4.075   5.445   9.631  2.4721 -3.4225  1.6443
  419MOL0     H56538   4.207   5.438   9.516  0.7683 -1.5909  2.3287
  419MOL0     H56539   4.092   5.704   9.647 -1.2898 -0.1012 -1.0539
  419MOL0     H56540   4.219   5.708   9.528  0.8657 -2.2250 -0.7657
  419MOL0     H56541   4.043   5.612   9.355 -1.1708  0.8440 -1.6921
  419MOL0     H56542   4.055   5.769   9.392  0.0111 -0.9149 -2.8372
  419MOL0     H56543   3.834   5.662   9.384  0.5658  3.7258 -0.2006
  419MOL0     H56544   3.888   5.542   9.517  1.5382  1.3533  2.3936
  419MOL0     H56545   3.990   5.069   9.834  0.9963  1.5982 -0.4123
  419MOL0     H56546   3.884   4.903   9.996 -1.5667  1.7796  1.7383
  419MOL0     H56547   3.747   4.740  10.326  2.0374  1.4620  1.7220
  419MOL0     H56548   3.595   4.588  10.465  0.0041 -0.8232 -1.4380
  419MOL0     H56549   4.169   3.545   9.646 -0.5972  1.0369 -0.7911
  419MOL0     H56550   4.251   3.459   9.425  2.0743 -2.1292  0.8780
  419MOL0     H56551   4.266   3.154   9.139 -2.8162  1.6283  0.7983
  419MOL0     H56552   4.415   3.093   8.976  0.2174 -0.4887 -1.6928
  419MOL0     H56553   4.482   3.369   8.652 -1.2301  2.2558 -3.9997
  419MOL0     H56554   4.363   3.297   8.555  0.7295  1.0610  0.6433
  419MOL0     H56555   4.642   3.184   8.588  2.4179 -0.0839 -2.0766
  419MOL0     H56556   4.591   3.282   8.449  0.9994  1.2908  1.1469
  419MOL0     H56557   4.393   3.089   8.442  0.5042 -1.8953 -0.0400
  419MOL0     H56558   4.523   2.997   8.513 -2.5713 -0.0224  0.7116
  419MOL0     H56559   4.665   3.055   8.311 -0.7803  3.6009 -0.7140
  419MOL0     H56560   4.531   2.954   8.292  2.4856 -0.4874  0.7232
  419MOL0     H56561   4.426   3.307   8.061 -0.4707 -0.7335  0.3380
  419MOL0     H56562   4.253   3.394   8.724 -1.7911  0.1833  2.2120
  419MOL0     H56563   4.130   3.596   8.921  1.4886  0.6074 -0.7702
  419MOL0     H56564   4.085   3.522   8.768  0.1130  0.1801  0.0110
  419MOL0     H56565   3.986   3.498   8.914 -0.5845  1.7397 -1.0524
  420MOL0     O56566  11.008   5.983   0.709  0.3883  0.4081  0.4950
  420MOL0     C56567  10.902   5.980   0.771 -0.2751 -0.1783 -0.8501
  420MOL0     O56568  10.896   6.002   0.906  1.2958 -0.3515 -0.2484
  420MOL0     C56569  11.007   5.963   0.971  0.4754  0.4531 -1.5785
  420MOL0     C56570  11.040   5.831   1.007  0.0248  0.5756  0.1935
  420MOL0     C56571  11.165   5.802   1.070 -0.9204  0.6282 -0.0455
  420MOL0     C56572  11.264   5.901   1.089 -0.0116  0.4598 -0.0844
  420MOL0     O56573  11.386   5.879   1.154 -0.3233 -0.0450  0.1276
  420MOL0     C56574  11.400   5.758   1.229 -0.1739 -0.0484  0.0238
  420MOL0     C56575  11.494   5.814   1.339 -0.8034 -1.0595  0.2252
  420MOL0     C56576  11.634   5.874   1.297  0.6635 -0.4720 -0.0243
  420MOL0     C56577  11.747   5.853   1.403 -0.5580 -0.0580 -0.3516
  420MOL0     C56578  11.883   5.913   1.373 -0.3361  0.3159  0.0180
  420MOL0     C56579  11.949   5.972   1.496 -0.4328  0.2664  0.4426
  420MOL0     C56580  12.040   6.087   1.443  0.2696 -0.7341  0.6117
  420MOL0     C56581  12.121   6.167   1.557 -0.0471  1.5713 -0.3754
  420MOL0     N56582  12.168   6.298   1.520  0.0135 -0.1721 -0.7411
  420MOL0     C56583  12.178   6.360   1.400 -0.1227  0.1656 -0.2679
  420MOL0     C56584  12.210   6.493   1.424  0.0081  1.1925  0.0109
  420MOL0     C56585  12.240   6.602   1.318 -1.2793 -0.6657 -0.5442
  420MOL0     C56586  12.352   6.703   1.365 -0.5702 -0.1686 -0.4828
  420MOL0     C56587  12.497   6.680   1.301  1.1504 -0.0581  0.5272
  420MOL0     C56588  12.596   6.794   1.288 -0.0106 -0.1725 -0.0586
  420MOL0     O56589  12.599   6.821   1.146 -0.3854  0.0813  0.3817
  420MOL0     C56590  12.657   6.944   1.106  1.0255 -0.4640 -0.0919
  420MOL0     C56591  12.622   6.994   0.980 -0.4371  0.6301 -0.3256
  420MOL0     C56592  12.685   7.114   0.938 -0.1719 -0.1656  0.3735
  420MOL0     C56593  12.767   7.193   1.023  0.0351 -0.4190  0.5001
  420MOL0     C56594  12.798   7.334   0.986 -0.3595 -0.1021 -0.5001
  420MOL0     O56595  12.873   7.402   1.074 -0.5947  0.7628 -0.2218
  420MOL0     C56596  12.921   7.529   1.037 -0.3541 -0.7338  0.3590
  420MOL0     C56597  12.844   7.646   1.049 -0.7646  0.6820 -0.6404
  420MOL0     C56598  12.888   7.768   1.004  0.6818  1.0152  0.0529
  420MOL0     C56599  13.002   7.791   0.939  0.0285  0.4375 -0.1724
  420MOL0     O56600  13.029   7.907   0.881 -0.8078 -0.5469 -0.5925
  420MOL0     C56601  13.133   7.905   0.784 -0.0156  0.1631 -0.3996
  420MOL0     C56602  13.131   8.050   0.718 -0.3049 -0.1819 -0.6806
  420MOL0     C56603  13.261   8.070   0.624  0.0215 -1.0227 -0.9897
  420MOL0     C56604  13.318   8.213   0.637  0.2920 -0.2678  0.0115
  420MOL0     C56605  13.435   8.233   0.538 -0.5605 -0.3185  0.4376
  420MOL0     C56606  13.566   8.167   0.590 -0.0877 -0.5403 -0.0901
  420MOL0     C56607  13.678   8.175   0.490 -0.8659 -0.0107  0.3564
  420MOL0     C56608  13.807   8.093   0.529 -0.1127  0.3198 -0.3202
  420MOL0    Cl56609  13.861   8.119   0.709  0.0517  0.1754 -0.1912
  420MOL0     C56610  13.080   7.675   0.931 -1.0928 -1.5624  0.4365
  420MOL0     C56611  13.043   7.549   0.980  0.4792  0.1362  0.8094
  420MOL0     O56612  12.740   7.377   0.884 -0.1047 -0.3811  0.7188
  420MOL0     C56613  12.792   7.147   1.146 -0.2482  0.8748  0.1147
  420MOL0     C56614  12.745   7.023   1.186  0.3285  0.4698  0.0754
  420MOL0     N56615  12.218   6.511   1.560  0.0877  0.7957 -0.8123
  420MOL0     N56616  12.191   6.390   1.614  0.1603 -0.6645  1.0035
  420MOL0     C56617  11.228   6.027   1.044  0.2996  0.4849 -0.9236
  420MOL0     C56618  11.106   6.063   0.985  0.0713  0.7055 -0.3598
  420MOL0     C56619  10.774   5.951   0.701  0.1933  0.0702 -0.2999
  420MOL0     C56620  10.658   6.026   0.723  1.3333 -0.1227 -1.6468
  420MOL0     C56621  10.541   6.008   0.655  0.3609 -0.5226  0.6207
  420MOL0     C56622  10.531   5.906   0.560 -0.9764 -0.0593  0.1165
  420MOL0     O56623  10.411   5.904   0.490  0.5227  0.7285 -0.8435
  420MOL0     C56624  10.340   5.778   0.500  0.2180 -0.0265 -0.7036
  420MOL0     C56625  10.196   5.795   0.460 -0.4354  0.0304 -0.1385
  420MOL0     C56626  10.112   5.688   0.518  0.1672  1.6883 -0.0823
  420MOL0     C56627  10.042   5.737   0.640 -0.3368 -0.3160 -0.0492
  420MOL0     C56628   9.933   5.834   0.609  0.6231  0.5817 -0.0707
  420MOL0     C56629   9.821   5.883   0.599  0.0744 -0.7796 -0.2394
  420MOL0     C56630  10.648   5.822   0.540  0.2474 -0.5789  0.2710
  420MOL0     C56631  10.767   5.854   0.601  0.3642 -1.1265 -0.6701
  420MOL0     C56632  10.874   5.757   0.573 -0.4285 -0.0229  0.2397
  420MOL0     H56633  10.967   5.751   0.990  1.5726 -1.1268  1.1693
  420MOL0     H56634  11.176   5.701   1.107 -1.4226  0.8174  0.6424
  420MOL0     H56635  11.307   5.719   1.272  0.6150 -0.8488  1.0544
  420MOL0     H56636  11.445   5.680   1.167  2.0094  1.4387 -0.3728
  420MOL0     H56637  11.514   5.733   1.409 -0.8473  0.6858  2.3648
  420MOL0     H56638  11.439   5.892   1.393  1.5646  1.3262 -0.5504
  420MOL0     H56639  11.628   5.975   1.257 -1.0641 -1.1748 -1.6898
  420MOL0     H56640  11.668   5.817   1.210  1.2783 -1.6789  0.9652
  420MOL0     H56641  11.696   5.881   1.496 -1.0809 -0.7051 -0.4323
  420MOL0     H56642  11.758   5.745   1.411 -0.0255 -0.1222 -1.6689
  420MOL0     H56643  11.949   5.833   1.339  2.1417  2.8280 -1.4913
  420MOL0     H56644  11.874   5.987   1.293 -2.3108  1.2601  1.0360
  420MOL0     H56645  11.880   6.022   1.565  0.1769  0.1788  1.1326
  420MOL0     H56646  12.002   5.902   1.562  1.8345  1.0855 -0.4073
  420MOL0     H56647  11.971   6.156   1.394 -3.3225 -3.0456  2.0021
  420MOL0     H56648  12.107   6.043   1.368  1.4567  0.0723  1.1761
  420MOL0     H56649  12.056   6.164   1.645 -0.6366  0.9868 -0.8261
  420MOL0     H56650  12.215   6.117   1.583  0.0135  0.0933 -3.1256
  420MOL0     H56651  12.168   6.311   1.303 -0.8368 -1.2130  0.4710
  420MOL0     H56652  12.262   6.557   1.221 -0.9159  0.8318 -1.1782
  420MOL0     H56653  12.144   6.655   1.314 -1.3954 -0.9108 -1.1235
  420MOL0     H56654  12.331   6.808   1.344  0.9858  0.4486  0.7721
  420MOL0     H56655  12.365   6.695   1.474  0.4785  1.0906 -0.4880
  420MOL0     H56656  12.482   6.642   1.199 -1.5258 -0.9319  1.1477
  420MOL0     H56657  12.541   6.602   1.364 -2.8182 -0.3682  3.3289
  420MOL0     H56658  12.693   6.756   1.322 -0.6687 -0.2220  1.9011
  420MOL0     H56659  12.561   6.879   1.348  0.0051 -1.4218  1.7893
  420MOL0     H56660  12.548   6.936   0.926  1.6270 -0.9311 -1.6065
  420MOL0     H56661  12.662   7.168   0.846  2.0640  0.7917  0.2988
  420MOL0     H56662  12.752   7.636   1.104  0.5454 -0.3660  1.4993
  420MOL0     H56663  12.809   7.843   1.005  1.7084  2.1610 -1.3814
  420MOL0     H56664  13.231   7.882   0.828  1.8042  1.5470 -3.4195
  420MOL0     H56665  13.114   7.833   0.704 -0.1818  2.3739 -2.4547
  420MOL0     H56666  13.047   8.061   0.648 -1.8789 -0.2539  1.1132
  420MOL0     H56667  13.143   8.120   0.801  1.9838  1.5902 -2.3874
  420MOL0     H56668  13.337   8.001   0.660 -1.1895 -1.4325  0.8888
  420MOL0     H56669  13.232   8.061   0.519 -1.2787  1.7054 -0.9639
  420MOL0     H56670  13.352   8.233   0.739  2.8956  1.2156 -1.0446
  420MOL0     H56671  13.229   8.273   0.615 -0.6802 -2.3806 -2.4321
  420MOL0     H56672  13.463   8.338   0.527 -1.4783 -0.1943 -0.9267
  420MOL0     H56673  13.407   8.190   0.441  5.1263 -0.5247 -1.4471
  420MOL0     H56674  13.587   8.220   0.684 -0.8068 -0.1778 -0.1297
  420MOL0     H56675  13.551   8.060   0.607  0.5852 -0.4076  1.5952
  420MOL0     H56676  13.713   8.278   0.482 -2.0850  0.2789 -4.3264
  420MOL0     H56677  13.642   8.148   0.390  3.0163  1.0432 -1.5361
  420MOL0     H56678  13.783   7.987   0.517 -0.7652  0.4660 -0.3424
  420MOL0     H56679  13.887   8.128   0.463  0.1000  0.3375 -0.0545
  420MOL0     H56680  13.184   7.674   0.899  0.3614  2.3796  4.0256
  420MOL0     H56681  13.116   7.470   0.966 -1.1487 -1.0329 -1.9299
  420MOL0     H56682  12.868   7.193   1.209  0.2372  0.3877 -0.1117
  420MOL0     H56683  12.759   6.983   1.286 -5.4603 -1.2712  0.5693
  420MOL0     H56684  11.297   6.108   1.062  0.1048  0.3374  0.5846
  420MOL0     H56685  11.080   6.164   0.954 -0.2527  0.3143 -1.4011
  420MOL0     H56686  10.656   6.080   0.817 -1.7277 -0.8058 -1.2007
  420MOL0     H56687  10.450   6.067   0.661  2.0891  2.3360  0.6603
  420MOL0     H56688  10.356   5.733   0.598  2.9632  1.9290 -0.1331
  420MOL0     H56689  10.384   5.711   0.426 -0.1560 -1.7154  0.5418
  420MOL0     H56690  10.189   5.775   0.352  1.8235 -1.6082 -0.0578
  420MOL0     H56691  10.166   5.898   0.480 -0.8521 -0.2179  0.5726
  420MOL0     H56692  10.170   5.598   0.541 -0.3919  1.2310 -0.4166
  420MOL0     H56693  10.040   5.655   0.442 -0.7008  3.8066 -0.2539
  420MOL0     H56694  10.000   5.649   0.690  0.0836 -0.3881  0.1833
  420MOL0     H56695  10.115   5.793   0.700 -1.3603 -0.3369  1.2892
  420MOL0     H56696   9.719   5.914   0.599  0.6749  1.4467  1.4751
  420MOL0     H56697  10.640   5.735   0.475 -0.0376 -0.5679  0.2904
  420MOL0     H56698  10.930   5.795   0.487  1.6335 -1.2934  0.9660
  420MOL0     H56699  10.949   5.745   0.651 -0.0729 -0.2556 -0.1298
  420MOL0     H56700  10.833   5.655   0.569 -0.4276  0.0018 -0.6348
  421MOL0     O56701   7.447  10.841   6.970  0.0437  0.0120 -0.1439
  421MOL0     C56702   7.510  10.947   6.967 -0.0107  0.2556  0.7307
  421MOL0     O56703   7.550  11.017   7.086  0.4177  0.2668 -0.4676
  421MOL0     C56704   7.519  10.962   7.209 -0.2540  0.1440  0.1575
  421MOL0     C56705   7.410  10.988   7.289 -0.0611 -1.1496 -0.3233
  421MOL0     C56706   7.390  10.953   7.425  0.6831  0.4248  1.1619
  421MOL0     C56707   7.486  10.862   7.476  0.5458  0.0416  0.0755
  421MOL0     O56708   7.503  10.819   7.598  0.4386 -0.4235 -0.6184
  421MOL0     C56709   7.487  10.913   7.705  0.2048  0.1372  0.0892
  421MOL0     C56710   7.504  10.848   7.836 -0.5305 -0.1760  0.1996
  421MOL0     C56711   7.459  10.935   7.951 -0.2753 -0.3836  0.0445
  421MOL0     C56712   7.470  10.877   8.091 -1.2251  0.2043 -0.4665
  421MOL0     C56713   7.628  10.844   8.111  1.0100  0.0695 -1.7180
  421MOL0     C56714   7.659  10.879   8.249  0.1969 -0.1217 -1.4633
  421MOL0     C56715   7.804  10.822   8.283  0.3712  1.0558  0.1290
  421MOL0     C56716   7.845  10.838   8.438  0.1367 -0.7254  0.1190
  421MOL0     N56717   7.815  10.728   8.530  0.1072  0.1254  0.2822
  421MOL0     C56718   7.687  10.680   8.550 -0.3734 -0.5004 -0.6514
  421MOL0     C56719   7.708  10.554   8.598  0.2864  0.2867  0.0595
  421MOL0     C56720   7.605  10.454   8.631  0.9520 -0.8389 -0.2158
  421MOL0     C56721   7.665  10.322   8.678  0.0610 -0.3704 -0.9121
  421MOL0     C56722   7.553  10.224   8.701 -0.0358  1.2274  0.3063
  421MOL0     C56723   7.596  10.079   8.697  0.7503 -0.2264 -0.1113
  421MOL0     O56724   7.665  10.045   8.572  0.0753 -0.2086 -0.0622
  421MOL0     C56725   7.581  10.012   8.467 -0.2248  0.6377  0.5545
  421MOL0     C56726   7.550  10.100   8.363  0.0071  0.6344  0.6252
  421MOL0     C56727   7.454  10.068   8.267  0.5640  1.0084 -0.7500
  421MOL0     C56728   7.386   9.949   8.282  0.0493  0.7154  0.4758
  421MOL0     C56729   7.272   9.915   8.187 -0.4396  0.0745 -0.2793
  421MOL0     O56730   7.187   9.820   8.219  0.1470 -1.3469 -0.7833
  421MOL0     C56731   7.070   9.811   8.150  0.8939 -0.0042 -0.7773
  421MOL0     C56732   7.056   9.790   8.012 -0.8828 -0.1235  0.0155
  421MOL0     C56733   6.933   9.759   7.948 -0.3959  0.8929 -0.9113
  421MOL0     C56734   6.812   9.766   8.018 -0.1177 -0.2616  0.5114
  421MOL0     O56735   6.698   9.736   7.941 -0.4647  0.2645 -0.0050
  421MOL0     C56736   6.601   9.642   7.987 -0.7480  0.5323  0.2416
  421MOL0     C56737   6.503   9.588   7.882  0.1158 -0.1826 -0.7594
  421MOL0     C56738   6.565   9.480   7.790  0.3493  0.4296  1.0756
  421MOL0     C56739   6.682   9.528   7.711 -0.4518  1.2341  0.1883
  421MOL0     C56740   6.741   9.421   7.618  0.4225  0.1289  0.1453
  421MOL0     C56741   6.776   9.287   7.687  0.4836  0.8331 -0.0756
  421MOL0     C56742   6.891   9.209   7.622  0.0910 -0.7186  0.3295
  421MOL0     C56743   7.033   9.232   7.673  1.3110 -0.2417  0.9113
  421MOL0    Cl56744   7.085   9.401   7.648 -0.3439  0.1144  0.0671
  421MOL0     C56745   6.822   9.801   8.153  0.6139 -0.4417 -0.5656
  421MOL0     C56746   6.944   9.822   8.225  0.2233 -0.8947  0.5222
  421MOL0     O56747   7.278   9.978   8.078  0.6281  0.7949 -0.0301
  421MOL0     C56748   7.425   9.853   8.371 -0.5246 -0.0099 -0.5517
  421MOL0     C56749   7.521   9.884   8.470  0.3247  0.7989 -0.1963
  421MOL0     N56750   7.844  10.526   8.600  0.0468 -0.5846  0.5195
  421MOL0     N56751   7.905  10.628   8.562 -0.5943  0.3902  0.0307
  421MOL0     C56752   7.596  10.821   7.397 -0.2677 -0.0831  0.3149
  421MOL0     C56753   7.616  10.874   7.269  0.0879  0.0839 -0.1981
  421MOL0     C56754   7.549  10.996   6.831 -0.2897  1.0125  0.2016
  421MOL0     C56755   7.652  11.092   6.833 -0.0367 -1.1606 -0.6386
  421MOL0     C56756   7.709  11.141   6.716  0.3430 -0.5208 -0.6676
  421MOL0     C56757   7.662  11.113   6.581 -0.2277  0.3345 -0.3440
  421MOL0     O56758   7.734  11.162   6.466  0.5413 -0.1480 -0.4206
  421MOL0     C56759   7.717  11.115   6.338  0.3054 -0.8043  0.7797
  421MOL0     C56760   7.821  11.003   6.333  0.0245  0.2667  0.6048
  421MOL0     C56761   7.970  11.045   6.361 -0.3070 -0.8178  0.3760
  421MOL0     C56762   8.030  11.160   6.288  0.3508  0.5178  0.3394
  421MOL0     C56763   7.993  11.168   6.150  1.1006 -0.1861  0.3624
  421MOL0     C56764   7.964  11.171   6.035  0.4424 -0.7709 -0.3543
  421MOL0     C56765   7.548  11.034   6.573  0.6191  0.4412 -0.1988
  421MOL0     C56766   7.490  10.976   6.697  0.1242 -0.7981 -0.3617
  421MOL0     C56767   7.376  10.887   6.668  1.0746 -0.1037  0.3050
  421MOL0     H56768   7.325  11.029   7.235 -0.9802 -4.4571 -1.6525
  421MOL0     H56769   7.303  10.988   7.480  0.3464 -0.1332  0.9926
  421MOL0     H56770   7.562  10.991   7.694 -0.8429  1.0512 -0.7654
  421MOL0     H56771   7.387  10.957   7.706  0.9375  1.9091  1.6481
  421MOL0     H56772   7.608  10.822   7.856 -0.1244  2.8618  2.9628
  421MOL0     H56773   7.447  10.755   7.841 -3.3363  1.2093 -2.2533
  421MOL0     H56774   7.356  10.967   7.934 -1.0420 -1.7436  1.7968
  421MOL0     H56775   7.522  11.025   7.952 -0.4418 -0.1729  3.1840
  421MOL0     H56776   7.441  10.948   8.169 -0.6216  1.0361 -0.9787
  421MOL0     H56777   7.406  10.790   8.107 -1.7723  0.5324 -0.8519
  421MOL0     H56778   7.639  10.736   8.096  1.1435 -0.6865  2.6531
  421MOL0     H56779   7.696  10.908   8.054  1.0676  1.4958 -0.1200
  421MOL0     H56780   7.651  10.988   8.254 -0.5724 -0.2214  0.7581
  421MOL0     H56781   7.587  10.833   8.317  3.5504  1.5144  3.8682
  421MOL0     H56782   7.880  10.878   8.227  2.7739 -1.7459  0.3440
  421MOL0     H56783   7.809  10.720   8.242  1.5313  1.0906  0.1426
  421MOL0     H56784   7.954  10.849   8.437  0.2470  0.0779 -4.9964
  421MOL0     H56785   7.806  10.924   8.493  0.4028 -1.7618  2.0342
  421MOL0     H56786   7.589  10.727   8.548  1.6211  4.6455  2.5526
  421MOL0     H56787   7.534  10.494   8.703  2.2715  1.3119 -0.0067
  421MOL0     H56788   7.538  10.445   8.546 -2.8877  2.7272  2.0371
  421MOL0     H56789   7.727  10.276   8.600  0.4380  2.0938 -2.1692
  421MOL0     H56790   7.720  10.327   8.772  0.8427 -0.7948 -1.3274
  421MOL0     H56791   7.473  10.237   8.629  2.0444  3.9217 -1.7234
  421MOL0     H56792   7.521  10.216   8.806 -1.1115 -4.0737 -0.1253
  421MOL0     H56793   7.506  10.022   8.722  0.1533 -0.3765 -2.3723
  421MOL0     H56794   7.673  10.064   8.773  0.8695  2.3696  0.3919
  421MOL0     H56795   7.611  10.190   8.356  1.6050 -0.4636 -0.2979
  421MOL0     H56796   7.442  10.129   8.178  3.7948  2.7421 -0.1739
  421MOL0     H56797   7.150   9.784   7.958 -1.5862  0.2013 -1.2885
  421MOL0     H56798   6.945   9.739   7.842 -0.9287  0.6599 -0.9357
  421MOL0     H56799   6.647   9.552   8.030  1.8923  0.8873 -1.5805
  421MOL0     H56800   6.545   9.699   8.062  3.2843  4.4324  0.6821
  421MOL0     H56801   6.417   9.556   7.941  2.6513  1.4816  4.3539
  421MOL0     H56802   6.470   9.672   7.820  0.9348 -0.0569 -1.0356
  421MOL0     H56803   6.593   9.399   7.857  0.5132  1.9307  2.8939
  421MOL0     H56804   6.487   9.459   7.716 -1.7717  2.3898  2.5856
  421MOL0     H56805   6.766   9.557   7.775 -0.1533 -0.1528  0.4463
  421MOL0     H56806   6.657   9.616   7.651  1.5947  0.6449 -1.6571
  421MOL0     H56807   6.835   9.456   7.576  1.1585 -2.4885 -0.5385
  421MOL0     H56808   6.673   9.408   7.533 -2.9262 -0.2935  2.6517
  421MOL0     H56809   6.805   9.295   7.792 -0.7259 -1.5132  0.4990
  421MOL0     H56810   6.690   9.221   7.697  0.7889  0.4877  0.2671
  421MOL0     H56811   6.885   9.219   7.513 -0.8702  0.1367  0.4528
  421MOL0     H56812   6.877   9.102   7.643 -0.4384 -0.7349 -0.0972
  421MOL0     H56813   7.035   9.206   7.780 -0.2096  2.6478  1.7671
  421MOL0     H56814   7.102   9.169   7.618 -0.2307 -1.4588  0.2858
  421MOL0     H56815   6.730   9.822   8.207  2.0653  2.6331  0.9651
  421MOL0     H56816   6.937   9.843   8.331  2.2719  0.3407  0.4635
  421MOL0     H56817   7.370   9.761   8.391 -0.0663  0.1975  2.1102
  421MOL0     H56818   7.549   9.812   8.546  1.7686  0.8757 -0.6312
  421MOL0     H56819   7.664  10.750   7.443 -2.4498 -1.6288  1.3271
  421MOL0     H56820   7.708  10.848   7.218  1.1401 -0.1653  1.7767
  421MOL0     H56821   7.689  11.124   6.931 -0.2162 -0.0652 -0.9221
  421MOL0     H56822   7.792  11.209   6.729 -1.1450  1.2551  0.1687
  421MOL0     H56823   7.750  11.194   6.270 -1.5872 -0.8282 -0.2086
  421MOL0     H56824   7.610  11.095   6.326  0.1431  0.1208  0.6497
  421MOL0     H56825   7.819  10.964   6.231  0.1527  0.7075  0.4309
  421MOL0     H56826   7.785  10.931   6.407 -0.2755 -0.6450 -0.4037
  421MOL0     H56827   8.032  10.960   6.331  2.1432 -0.2458  3.3685
  421MOL0     H56828   7.988  11.053   6.468 -0.1595 -3.6376  0.6442
  421MOL0     H56829   7.986  11.246   6.339  1.4774  1.2222  0.1622
  421MOL0     H56830   8.137  11.177   6.299  0.0633  3.5291 -0.5409
  421MOL0     H56831   7.948  11.165   5.930  0.5511 -0.5816 -0.3812
  421MOL0     H56832   7.503  11.009   6.478 -2.8027  2.0521  0.8708
  421MOL0     H56833   7.415  10.786   6.664 -0.0610 -0.6591  2.0624
  421MOL0     H56834   7.300  10.887   6.747  0.8584 -0.7393  0.1001
  421MOL0     H56835   7.330  10.927   6.577  1.9700  2.5680  0.9256
  422MOL0     O56836   4.139   8.234   9.838  0.0973 -0.4123  0.4266
  422MOL0     C56837   4.049   8.306   9.893  0.1217 -0.7990  0.6486
  422MOL0     O56838   4.069   8.366  10.013 -0.6202  0.5939 -0.6977
  422MOL0     C56839   4.190   8.360  10.081 -0.0879  0.1006  0.0526
  422MOL0     C56840   4.267   8.472  10.097 -0.9196  0.2683 -0.0547
  422MOL0     C56841   4.400   8.464  10.155  0.3894 -0.3380 -0.4383
  422MOL0     C56842   4.446   8.337  10.207  0.3463 -0.7073  0.2224
  422MOL0     O56843   4.569   8.343  10.264 -0.4619 -0.1216  0.1512
  422MOL0     C56844   4.649   8.225  10.259  0.0675 -0.1480  0.1891
  422MOL0     C56845   4.787   8.266  10.314 -0.1346  0.6002 -1.1393
  422MOL0     C56846   4.835   8.380  10.218 -0.1892  0.0259 -0.7524
  422MOL0     C56847   4.986   8.407  10.236 -0.6299  0.1890  0.3458
  422MOL0     C56848   5.034   8.525  10.145 -1.2232  0.9016 -0.2299
  422MOL0     C56849   5.181   8.527  10.114  0.1112  0.3726 -0.3962
  422MOL0     C56850   5.190   8.631   9.994 -0.0305  0.2532 -0.2502
  422MOL0     C56851   5.342   8.678   9.970  0.5071  0.9535 -0.2822
  422MOL0     N56852   5.372   8.762   9.860 -0.1207 -0.5530  0.2779
  422MOL0     C56853   5.304   8.873   9.819  0.4822  1.0125  0.2364
  422MOL0     C56854   5.376   8.928   9.718  0.0861  0.1077 -0.8841
  422MOL0     C56855   5.346   9.057   9.639 -0.5601 -0.3469  0.4790
  422MOL0     C56856   5.412   9.069   9.509 -0.2802 -0.3701  0.3525
  422MOL0     C56857   5.346   8.985   9.397  0.8656  0.9159  0.4614
  422MOL0     C56858   5.411   9.003   9.251 -0.8795 -1.1596 -0.1693
  422MOL0     O56859   5.452   9.135   9.214  0.3886  0.4565 -0.6018
  422MOL0     C56860   5.355   9.232   9.226  0.0339  1.3176 -0.2421
  422MOL0     C56861   5.224   9.214   9.220  0.1746 -0.5771 -0.7492
  422MOL0     C56862   5.124   9.314   9.229  0.4829 -0.7157 -0.4641
  422MOL0     C56863   5.162   9.436   9.288 -0.3514 -0.5145  0.5991
  422MOL0     C56864   5.069   9.543   9.340 -0.4823  0.4036  0.1406
  422MOL0     O56865   5.116   9.643   9.423  0.0141 -0.1766 -0.0361
  422MOL0     C56866   5.026   9.745   9.442 -0.3026 -0.7764  0.4060
  422MOL0     C56867   5.073   9.874   9.415 -0.5190  0.2770 -0.1139
  422MOL0     C56868   4.996   9.982   9.454  1.5016  0.3429  0.0171
  422MOL0     C56869   4.866   9.978   9.512  0.9743  1.3786  0.6916
  422MOL0     O56870   4.786  10.085   9.518  0.7720  0.1743 -0.5047
  422MOL0     C56871   4.772  10.158   9.396  0.4485 -0.7409 -0.9165
  422MOL0     C56872   4.622  10.156   9.369 -0.4678  0.4580  0.6330
  422MOL0     C56873   4.524  10.188   9.486 -0.3964 -0.2392  0.0638
  422MOL0     C56874   4.468  10.053   9.547  0.1761  0.5570 -0.0609
  422MOL0     C56875   4.360  10.070   9.645 -0.3830 -0.1750 -0.0701
  422MOL0     C56876   4.418  10.133   9.773 -0.5706 -0.1034  0.4626
  422MOL0     C56877   4.318  10.210   9.850  0.1537  1.0061  1.2625
  422MOL0     C56878   4.338  10.220  10.004  0.0524  0.1698  0.2022
  422MOL0    Cl56879   4.347  10.043  10.075 -0.1453  0.0582  0.7120
  422MOL0     C56880   4.821   9.846   9.542 -0.5529 -1.2884 -0.0296
  422MOL0     C56881   4.903   9.729   9.512  0.4472 -0.1966  0.2749
  422MOL0     O56882   4.951   9.531   9.302 -0.1623  0.0555 -0.1358
  422MOL0     C56883   5.305   9.467   9.295 -0.6780 -0.2769  0.0021
  422MOL0     C56884   5.403   9.363   9.268 -0.5524 -0.6394 -0.3976
  422MOL0     N56885   5.474   8.840   9.687 -0.5982  0.1843  0.0782
  422MOL0     N56886   5.476   8.739   9.771  0.3489  0.7352  0.5822
  422MOL0     C56887   4.365   8.221  10.188  0.2009  0.4089 -0.6417
  422MOL0     C56888   4.240   8.231  10.120  0.4139  0.3814  0.6430
  422MOL0     C56889   3.915   8.328   9.839  0.9314 -0.5198 -0.0286
  422MOL0     C56890   3.813   8.382   9.927  0.3178 -0.3323  0.4379
  422MOL0     C56891   3.680   8.407   9.878 -0.6986  0.6005  0.4597
  422MOL0     C56892   3.650   8.376   9.742 -0.3174 -0.4248 -0.5922
  422MOL0     O56893   3.521   8.389   9.723  0.5073 -0.4710 -0.4032
  422MOL0     C56894   3.465   8.373   9.589  0.4470 -0.0800 -0.4402
  422MOL0     C56895   3.320   8.410   9.586  0.5102 -0.4855  0.6003
  422MOL0     C56896   3.308   8.557   9.641 -0.6754 -0.0531 -0.0950
  422MOL0     C56897   3.180   8.634   9.596  0.0781  0.3766 -0.0926
  422MOL0     C56898   3.199   8.690   9.468 -0.9639 -0.3401  0.1211
  422MOL0     C56899   3.208   8.734   9.356 -0.3444  0.1444 -0.7731
  422MOL0     C56900   3.745   8.308   9.668 -0.5681 -0.1960  0.6552
  422MOL0     C56901   3.869   8.275   9.718 -0.1136 -0.0020  0.1309
  422MOL0     C56902   3.960   8.202   9.622  0.1871 -0.4955  0.7483
  422MOL0     H56903   4.234   8.570  10.064 -0.5196  0.3476 -0.2223
  422MOL0     H56904   4.453   8.555  10.183  0.6405  0.6499 -3.7202
  422MOL0     H56905   4.602   8.147  10.320  2.5516 -2.2838 -0.4443
  422MOL0     H56906   4.668   8.199  10.154  1.5870  4.2889 -0.8804
  422MOL0     H56907   4.852   8.178  10.309  0.3360  0.9363 -0.9576
  422MOL0     H56908   4.786   8.300  10.417 -2.9751 -1.3019 -0.4206
  422MOL0     H56909   4.782   8.473  10.239 -1.0260 -0.3146 -1.3384
  422MOL0     H56910   4.806   8.356  10.115  0.4754  1.3074 -1.2680
  422MOL0     H56911   5.007   8.428  10.341  0.1484 -2.9077  0.9249
  422MOL0     H56912   5.049   8.322  10.206 -0.0948  1.2770 -1.7973
  422MOL0     H56913   4.990   8.499  10.048  2.0726 -1.0628 -1.3863
  422MOL0     H56914   5.002   8.621  10.186 -1.0683  1.1960 -0.7859
  422MOL0     H56915   5.236   8.556  10.205 -1.0591 -1.6034  1.0252
  422MOL0     H56916   5.214   8.426  10.089 -0.5859  0.3107 -1.0943
  422MOL0     H56917   5.125   8.715  10.018 -2.5182 -1.4981 -0.4614
  422MOL0     H56918   5.147   8.584   9.905 -3.2532 -5.3461  3.6220
  422MOL0     H56919   5.384   8.715  10.064  1.5644  0.4532 -0.5519
  422MOL0     H56920   5.413   8.595   9.958  0.8194  1.0996  0.4980
  422MOL0     H56921   5.208   8.904   9.860 -0.8384 -1.4609 -0.8062
  422MOL0     H56922   5.237   9.057   9.630 -0.6183 -4.6463 -0.8326
  422MOL0     H56923   5.375   9.145   9.698  0.3426  0.8548 -1.6203
  422MOL0     H56924   5.411   9.172   9.473  0.4693 -1.1008 -1.8920
  422MOL0     H56925   5.514   9.029   9.517 -0.0215 -0.7134 -3.2716
  422MOL0     H56926   5.241   9.018   9.392  0.8877  0.7952 -1.7883
  422MOL0     H56927   5.344   8.879   9.422 -0.5295  1.2078  1.7070
  422MOL0     H56928   5.351   8.954   9.174 -1.7446 -0.7939  0.2610
  422MOL0     H56929   5.503   8.944   9.262  0.8937  0.9644 -2.4279
  422MOL0     H56930   5.183   9.126   9.173 -2.5824  0.7448 -0.9987
  422MOL0     H56931   5.018   9.293   9.221  0.1772  1.2010 -2.3613
  422MOL0     H56932   5.172   9.896   9.378 -0.3452  0.5481  0.4918
  422MOL0     H56933   5.050  10.072   9.428  4.5979 -1.7473 -1.4849
  422MOL0     H56934   4.798  10.264   9.400  0.7048 -0.8048  3.1822
  422MOL0     H56935   4.826  10.115   9.311 -2.0736  0.4030 -3.2764
  422MOL0     H56936   4.605  10.228   9.288  1.1839  0.0372 -0.1472
  422MOL0     H56937   4.595  10.058   9.328  1.8818 -0.3263  0.7666
  422MOL0     H56938   4.574  10.255   9.557  0.9883  1.1051 -2.0527
  422MOL0     H56939   4.447  10.253   9.442 -0.1179 -0.4531 -0.7518
  422MOL0     H56940   4.548   9.994   9.593 -1.3688 -0.2271  1.7593
  422MOL0     H56941   4.421   9.996   9.466  2.7224 -1.4382 -0.2880
  422MOL0     H56942   4.319   9.971   9.670  0.6009 -1.7018 -3.8243
  422MOL0     H56943   4.272  10.120   9.602 -0.2515  0.2275  0.1269
  422MOL0     H56944   4.463  10.047   9.823  1.1800 -1.1544 -2.6123
  422MOL0     H56945   4.507  10.191   9.748 -0.6046 -0.4905 -0.6011
  422MOL0     H56946   4.215  10.173   9.843  0.1146  0.7709  2.6661
  422MOL0     H56947   4.305  10.306   9.800  2.0735  0.8682  0.4351
  422MOL0     H56948   4.434  10.271  10.019  0.9977 -0.5376 -2.8798
  422MOL0     H56949   4.257  10.276  10.051  0.1389 -0.2348  0.8423
  422MOL0     H56950   4.722   9.844   9.585 -1.2970  1.0949 -1.4069
  422MOL0     H56951   4.865   9.631   9.539 -0.9206 -0.4132 -2.0870
  422MOL0     H56952   5.334   9.566   9.329  1.8422 -1.0273  0.2156
  422MOL0     H56953   5.510   9.382   9.268 -0.4952 -0.9498 -0.8293
  422MOL0     H56954   4.393   8.120  10.216  1.9799  0.9574 -0.3330
  422MOL0     H56955   4.186   8.144  10.084  1.0115 -0.4628  1.7201
  422MOL0     H56956   3.843   8.405  10.029  1.1408 -1.7179  0.5411
  422MOL0     H56957   3.599   8.434   9.945 -1.6654  0.1109 -0.4816
  422MOL0     H56958   3.481   8.270   9.556  1.7114 -0.6707  1.8233
  422MOL0     H56959   3.512   8.446   9.523  0.4587  0.7339  0.4576
  422MOL0     H56960   3.248   8.348   9.640 -1.7290  0.7746 -0.7441
  422MOL0     H56961   3.277   8.405   9.485  1.2774  0.6301  0.2010
  422MOL0     H56962   3.398   8.619   9.637  1.4569 -2.3701  4.5041
  422MOL0     H56963   3.311   8.552   9.750 -0.7519  1.0707 -0.0260
  422MOL0     H56964   3.097   8.562   9.593  1.8818 -1.8410  0.0191
  422MOL0     H56965   3.143   8.710   9.666  0.0962  1.9582 -1.7276
  422MOL0     H56966   3.219   8.766   9.254 -2.4943 -0.7003 -1.3189
  422MOL0     H56967   3.715   8.270   9.571  1.3080  0.7816 -0.3810
  422MOL0     H56968   4.033   8.275   9.587  0.5544 -0.7645  0.9459
  422MOL0     H56969   4.012   8.122   9.676  4.6149  2.1933  0.9206
  422MOL0     H56970   3.906   8.162   9.536 -0.7338  0.2954  0.9408
  423MOL0     O56971   9.268   0.742   0.275 -0.8574 -0.2049 -0.2171
  423MOL0     C56972   9.286   0.850   0.328  0.3416 -0.4471 -0.0971
  423MOL0     O56973   9.218   0.895   0.441  0.7562  0.4810  0.0580
  423MOL0     C56974   9.081   0.863   0.453 -0.7928 -0.2752 -0.2223
  423MOL0     C56975   8.987   0.945   0.395 -0.2091  0.1381  0.3948
  423MOL0     C56976   8.850   0.916   0.399  0.7093 -0.4489 -0.3881
  423MOL0     C56977   8.809   0.814   0.483  1.3441 -0.8852  0.9518
  423MOL0     O56978   8.671   0.791   0.498 -0.1196  0.8330  0.0315
  423MOL0     C56979   8.621   0.705   0.598  0.2458  0.4068  0.1022
  423MOL0     C56980   8.486   0.750   0.661  0.0017 -0.0612  0.1724
  423MOL0     C56981   8.378   0.777   0.549  0.9019 -0.7641  0.0647
  423MOL0     C56982   8.327   0.651   0.483  0.2909 -0.4823 -0.2299
  423MOL0     C56983   8.218   0.690   0.377  0.8334  0.4108 -1.2409
  423MOL0     C56984   8.159   0.563   0.312  0.2529 -0.0424  0.2883
  423MOL0     C56985   8.061   0.614   0.198 -0.5070  0.0298  0.4885
  423MOL0     C56986   7.925   0.590   0.217  0.9279 -0.0959 -0.7562
  423MOL0     N56987   7.881   0.669   0.325  0.2389 -0.5520  0.1251
  423MOL0     C56988   7.810   0.779   0.316  0.8379  0.2770 -0.2869
  423MOL0     C56989   7.770   0.818   0.435 -0.5071 -0.1519 -0.4089
  423MOL0     C56990   7.684   0.938   0.474  0.3498 -0.3150 -0.4951
  423MOL0     C56991   7.575   0.885   0.561  0.3653  0.1037  0.3899
  423MOL0     C56992   7.461   0.994   0.586  0.1407  0.4300  0.3999
  423MOL0     C56993   7.359   0.939   0.680 -0.4501  0.2867 -0.0571
  423MOL0     O56994   7.308   0.810   0.627 -0.5477 -0.4504  0.4632
  423MOL0     C56995   7.206   0.752   0.691  0.7045  0.4058 -0.0744
  423MOL0     C56996   7.176   0.776   0.828 -0.5159  0.8267 -0.0122
  423MOL0     C56997   7.075   0.704   0.892 -0.3010  0.7748  0.8587
  423MOL0     C56998   6.987   0.629   0.821  0.8114 -0.1618  0.0959
  423MOL0     C56999   6.874   0.565   0.886 -0.2437 -0.7229  0.2578
  423MOL0     O57000   6.782   0.530   0.796  0.8503 -0.4747 -0.5314
  423MOL0     C57001   6.672   0.456   0.844  0.9877  0.5937 -0.2016
  423MOL0     C57002   6.662   0.328   0.814  0.6329  0.5887  0.0855
  423MOL0     C57003   6.555   0.251   0.855 -0.0134  0.2350  0.5639
  423MOL0     C57004   6.456   0.301   0.928 -0.0107  0.7873 -0.7542
  423MOL0     O57005   6.342   0.232   0.971 -0.6294  0.4593  0.3807
  423MOL0     C57006   6.314   0.096   0.935 -0.3482 -0.5146 -1.1038
  423MOL0     C57007   6.336   0.016   1.059  0.0209  0.2088  0.2747
  423MOL0     C57008   6.214   0.009   1.155  0.3144 -0.9105  0.1688
  423MOL0     C57009   6.242  -0.093   1.269 -0.6319 -0.3088  0.1744
  423MOL0     C57010   6.128  -0.091   1.362  0.9403  0.0230 -0.3010
  423MOL0     C57011   5.982  -0.135   1.299 -0.5058  0.2120  0.3909
  423MOL0     C57012   5.878  -0.144   1.414 -0.3589 -0.0085 -0.0962
  423MOL0     C57013   5.750  -0.195   1.354  0.4505  0.8446 -0.5401
  423MOL0    Cl57014   5.619  -0.081   1.393  0.4722 -0.0884 -0.0215
  423MOL0     C57015   6.475   0.425   0.988  0.1487 -0.4611  0.7554
  423MOL0     C57016   6.580   0.504   0.946  0.1744 -0.1496  0.4714
  423MOL0     O57017   6.871   0.551   1.008  0.5539  0.7417 -0.1483
  423MOL0     C57018   7.006   0.596   0.681 -0.5637 -0.5571 -0.1190
  423MOL0     C57019   7.117   0.670   0.620 -0.0601  0.4513  0.2311
  423MOL0     N57020   7.820   0.733   0.524 -0.2108 -0.0281  0.5987
  423MOL0     N57021   7.881   0.634   0.455  0.7185  0.4888 -0.1772
  423MOL0     C57022   8.905   0.729   0.544  0.0178  0.2325 -0.0850
  423MOL0     C57023   9.041   0.751   0.527  0.4329 -0.4238  0.5453
  423MOL0     C57024   9.390   0.934   0.266 -0.9385 -0.1791  0.6823
  423MOL0     C57025   9.474   0.874   0.167 -0.2626 -0.9150  0.0828
  423MOL0     C57026   9.575   0.945   0.109  0.0396 -0.3489 -1.0275
  423MOL0     C57027   9.618   1.065   0.170 -0.8981 -1.3538  0.9612
  423MOL0     O57028   9.737   1.136   0.140 -0.0732 -0.0601 -0.2916
  423MOL0     C57029   9.837   1.086   0.061  0.3167  0.0213  0.6172
  423MOL0     C57030   9.963   1.165   0.098 -0.8038  0.7980 -0.0804
  423MOL0     C57031  10.079   1.138   0.000 -0.1976  0.2951 -0.0793
  423MOL0     C57032  10.051   1.175  -0.147 -0.0952  0.1273  0.2166
  423MOL0     C57033  10.012   1.321  -0.154 -0.1072  0.9595  0.1475
  423MOL0     C57034   9.977   1.437  -0.165 -1.0908  0.0329 -0.1522
  423MOL0     C57035   9.537   1.135   0.264 -0.7895 -1.5434 -0.0563
  423MOL0     C57036   9.426   1.065   0.313  0.5865  0.4472 -0.0016
  423MOL0     C57037   9.350   1.143   0.413  0.2660  1.1359  0.1999
  423MOL0     H57038   9.031   1.033   0.348  1.2600 -1.0265 -0.4660
  423MOL0     H57039   8.782   0.988   0.355  4.3311  4.7673  1.5467
  423MOL0     H57040   8.608   0.598   0.575  1.5780  0.5586 -1.5813
  423MOL0     H57041   8.693   0.711   0.679 -0.6269 -5.1049  1.6928
  423MOL0     H57042   8.506   0.840   0.719 -0.8077 -1.0390  2.0423
  423MOL0     H57043   8.457   0.680   0.739 -0.1516  1.5459  1.5984
  423MOL0     H57044   8.406   0.839   0.463 -2.1281 -1.3485 -1.4784
  423MOL0     H57045   8.298   0.835   0.597  0.9128 -0.6252 -0.0798
  423MOL0     H57046   8.418   0.609   0.440  0.3778  2.2516 -3.1171
  423MOL0     H57047   8.289   0.580   0.557  1.8952 -2.0051 -0.7935
  423MOL0     H57048   8.134   0.741   0.424  1.7586  1.0559 -0.2205
  423MOL0     H57049   8.255   0.753   0.295 -1.4218 -0.8090 -3.3055
  423MOL0     H57050   8.244   0.503   0.279  0.2935 -0.5337  1.2621
  423MOL0     H57051   8.110   0.503   0.389  2.2478 -0.5146  1.2585
  423MOL0     H57052   8.084   0.572   0.100  0.9305  0.7867  0.4633
  423MOL0     H57053   8.090   0.718   0.181  2.1001 -0.7887 -0.6227
  423MOL0     H57054   7.883   0.614   0.119 -3.2998 -3.4917 -0.0593
  423MOL0     H57055   7.911   0.486   0.245 -0.2364  0.0323 -0.8171
  423MOL0     H57056   7.781   0.814   0.217  0.7029  1.4040  0.1437
  423MOL0     H57057   7.754   1.004   0.526 -0.2840  0.0431 -0.0888
  423MOL0     H57058   7.654   0.989   0.382  0.6197 -2.9214 -2.1522
  423MOL0     H57059   7.533   0.794   0.517  0.7897 -0.4318  1.0594
  423MOL0     H57060   7.632   0.865   0.652  2.1774 -0.5522 -0.8298
  423MOL0     H57061   7.410   1.027   0.495 -1.2150 -2.0422  0.1655
  423MOL0     H57062   7.507   1.077   0.639 -1.8118 -0.0928  3.1501
  423MOL0     H57063   7.269   1.003   0.684 -0.4653  0.3358 -0.9625
  423MOL0     H57064   7.396   0.932   0.782  1.9797  0.8622 -0.8379
  423MOL0     H57065   7.235   0.848   0.885  1.0239  0.6711 -1.3548
  423MOL0     H57066   7.057   0.714   0.999 -2.0038  4.7801  0.3550
  423MOL0     H57067   6.736   0.297   0.742  1.8731  4.1360 -0.3789
  423MOL0     H57068   6.549   0.155   0.804  0.0210  1.7470 -2.5532
  423MOL0     H57069   6.213   0.082   0.895 -0.0639  0.5069 -2.2490
  423MOL0     H57070   6.374   0.052   0.855  1.3831 -2.4145  1.0970
  423MOL0     H57071   6.353  -0.085   1.021 -0.2636  1.2924 -3.0631
  423MOL0     H57072   6.423   0.058   1.110  0.3115  0.4620 -0.4036
  423MOL0     H57073   6.198   0.105   1.204  3.1690  0.1859 -0.8617
  423MOL0     H57074   6.124  -0.027   1.104 -0.3098 -0.1067  0.6783
  423MOL0     H57075   6.330  -0.060   1.324  0.0351 -0.0642 -1.0089
  423MOL0     H57076   6.261  -0.195   1.235  0.9866  0.3838 -1.1514
  423MOL0     H57077   6.113   0.005   1.412 -0.2820 -0.1465 -0.3239
  423MOL0     H57078   6.155  -0.167   1.436  1.9626  1.9437  1.3843
  423MOL0     H57079   5.950  -0.064   1.222  0.1354 -0.0232 -0.1048
  423MOL0     H57080   6.012  -0.227   1.247  0.2286  0.5156  0.2728
  423MOL0     H57081   5.862  -0.052   1.471  0.0692 -0.4281  0.7120
  423MOL0     H57082   5.911  -0.223   1.482  2.4602  0.7919 -0.3989
  423MOL0     H57083   5.751  -0.210   1.246 -0.2867  0.5971 -0.5144
  423MOL0     H57084   5.719  -0.292   1.395 -2.5581  1.5869 -0.8934
  423MOL0     H57085   6.418   0.472   1.068  0.5993  2.9168 -0.7417
  423MOL0     H57086   6.602   0.599   0.994 -0.1341 -0.4987  1.3268
  423MOL0     H57087   6.939   0.532   0.625 -3.1745 -1.1578  3.3280
  423MOL0     H57088   7.142   0.668   0.514 -0.7655  0.6271  0.0609
  423MOL0     H57089   8.873   0.639   0.596  0.5050 -0.3209 -0.7229
  423MOL0     H57090   9.118   0.691   0.574  0.5504 -0.6988  0.0094
  423MOL0     H57091   9.454   0.776   0.124 -2.9913 -0.6512  0.5744
  423MOL0     H57092   9.635   0.899   0.031  0.1482  0.9489 -1.7438
  423MOL0     H57093   9.811   1.104  -0.044 -1.1417  2.1393  1.2769
  423MOL0     H57094   9.853   0.979   0.078  1.8801  0.3796  1.5538
  423MOL0     H57095   9.980   1.145   0.204 -1.3568  1.6385  0.1839
  423MOL0     H57096   9.934   1.270   0.106 -3.1913  0.0521  3.5483
  423MOL0     H57097  10.100   1.031   0.010 -2.6352 -0.2903 -0.5507
  423MOL0     H57098  10.163   1.192   0.045 -2.0323 -0.6533  5.3125
  423MOL0     H57099  10.136   1.160  -0.215 -2.1720  2.3569 -3.1243
  423MOL0     H57100   9.971   1.119  -0.196 -0.0120  1.8117 -1.9996
  423MOL0     H57101   9.937   1.532  -0.192  0.0937  0.4329 -0.5194
  423MOL0     H57102   9.546   1.230   0.315 -2.1745 -0.6270 -1.4542
  423MOL0     H57103   9.348   1.093   0.510 -0.2620  0.4173 -0.1722
  423MOL0     H57104   9.381   1.247   0.428 -2.1038  2.1463 -1.2913
  423MOL0     H57105   9.243   1.147   0.389 -0.1430 -4.3490 -0.0107
  424MOL0     O57106   5.912   2.173   6.276 -0.2046 -0.0765 -0.5341
  424MOL0     C57107   5.967   2.179   6.388  0.2205  1.0896  0.0762
  424MOL0     O57108   6.044   2.078   6.448  0.4603  0.7431  0.3693
  424MOL0     C57109   6.084   1.976   6.362 -1.1110 -0.0692  0.4272
  424MOL0     C57110   6.042   1.849   6.385  1.0901  0.0910  0.2577
  424MOL0     C57111   6.072   1.739   6.297  0.3120 -0.5769 -0.3279
  424MOL0     C57112   6.125   1.776   6.180 -0.4465  0.7675  0.5537
  424MOL0     O57113   6.148   1.681   6.077 -0.5024  0.0026 -0.1099
  424MOL0     C57114   6.036   1.642   5.985 -0.3844  0.2607 -0.1555
  424MOL0     C57115   5.946   1.532   6.052 -0.8927  0.1536 -0.0309
  424MOL0     C57116   6.020   1.409   6.099 -1.1076  0.4830  0.3234
  424MOL0     C57117   5.931   1.282   6.103 -0.1638  0.1066 -0.6251
  424MOL0     C57118   6.004   1.157   6.104 -1.3192  0.9987 -0.3184
  424MOL0     C57119   5.936   1.029   6.159  0.3468 -0.4712 -0.0048
  424MOL0     C57120   5.850   1.049   6.289  0.1208  0.3200  0.1886
  424MOL0     C57121   5.935   1.118   6.404 -0.3649  0.6557  0.3798
  424MOL0     N57122   6.041   1.021   6.459 -0.1075  0.3019 -0.0664
  424MOL0     C57123   6.067   0.888   6.427 -0.7710  0.4178  0.2402
  424MOL0     C57124   6.166   0.849   6.515  0.0054 -0.2884 -0.0872
  424MOL0     C57125   6.230   0.714   6.520  0.1909  0.3699  0.4285
  424MOL0     C57126   6.366   0.710   6.445 -0.6277  0.7269  0.0584
  424MOL0     C57127   6.480   0.795   6.521  0.4272  0.0023  0.0458
  424MOL0     C57128   6.615   0.788   6.463  0.0150 -0.4033 -0.7069
  424MOL0     O57129   6.640   0.880   6.354  0.4528 -0.0930 -0.2436
  424MOL0     C57130   6.754   0.873   6.286 -0.7782 -0.5541  0.7003
  424MOL0     C57131   6.873   0.805   6.329  0.3242 -0.8287 -0.4217
  424MOL0     C57132   6.990   0.805   6.267 -0.6433 -0.0041  0.6380
  424MOL0     C57133   7.007   0.881   6.143  0.3661  0.2083 -0.3364
  424MOL0     C57134   7.148   0.891   6.086  0.2833 -0.5908 -1.1673
  424MOL0     O57135   7.164   0.953   5.963 -0.3746  0.6382 -0.1447
  424MOL0     C57136   7.275   0.940   5.886 -0.7008  0.2475 -0.3658
  424MOL0     C57137   7.258   0.972   5.751 -0.8114  0.1767  0.3554
  424MOL0     C57138   7.366   0.981   5.661 -0.4400 -0.2185 -0.7676
  424MOL0     C57139   7.497   0.961   5.705  0.4788  0.9391 -0.4148
  424MOL0     O57140   7.611   0.960   5.625 -0.1562  0.1937 -0.3138
  424MOL0     C57141   7.599   0.992   5.488  0.0364  0.1435  1.0059
  424MOL0     C57142   7.729   0.995   5.413  0.3289  0.7667 -0.1005
  424MOL0     C57143   7.841   1.077   5.486  0.1785  0.2907  0.2544
  424MOL0     C57144   7.955   1.123   5.383 -0.5169  0.9350 -0.4956
  424MOL0     C57145   8.060   1.208   5.460  1.0051 -0.5222  0.1187
  424MOL0     C57146   8.164   1.264   5.362 -0.8414  0.1136  0.1576
  424MOL0     C57147   8.114   1.379   5.275 -0.0699  0.8852  0.3565
  424MOL0     C57148   8.223   1.438   5.191  0.2276  0.7701  0.0965
  424MOL0    Cl57149   8.367   1.484   5.277 -0.3551  0.4252 -0.3757
  424MOL0     C57150   7.517   0.950   5.846 -0.4649  0.8012 -1.2496
  424MOL0     C57151   7.411   0.937   5.936 -0.5717 -1.6463 -0.0383
  424MOL0     O57152   7.234   0.826   6.148 -0.1106  0.3309  0.7790
  424MOL0     C57153   6.898   0.954   6.102  0.6538 -0.2992 -0.2067
  424MOL0     C57154   6.771   0.953   6.168 -0.4801 -0.4866  0.1519
  424MOL0     N57155   6.204   0.963   6.591 -0.3027  0.2416 -0.2586
  424MOL0     N57156   6.123   1.060   6.557  0.4025  0.0114  0.7451
  424MOL0     C57157   6.165   1.906   6.147 -0.0064 -0.1491 -0.5368
  424MOL0     C57158   6.154   2.007   6.250  0.2656 -0.8570 -0.0044
  424MOL0     C57159   5.928   2.296   6.467 -0.4762 -0.3794 -1.3150
  424MOL0     C57160   5.856   2.279   6.585  0.6213  0.1464 -0.3741
  424MOL0     C57161   5.790   2.387   6.648 -0.1990  0.2476 -0.2830
  424MOL0     C57162   5.803   2.515   6.603 -1.0673  0.3913  0.0447
  424MOL0     O57163   5.747   2.621   6.674  0.1972  0.2127 -0.1656
  424MOL0     C57164   5.781   2.757   6.660  0.4798  0.4688  0.7300
  424MOL0     C57165   5.711   2.833   6.768 -0.2437  0.6225  0.4154
  424MOL0     C57166   5.757   2.777   6.907 -0.5304 -0.3306  0.2500
  424MOL0     C57167   5.759   2.901   7.014 -0.0775 -0.0232  0.4015
  424MOL0     C57168   5.769   2.847   7.151 -0.4895 -0.2082 -0.3192
  424MOL0     C57169   5.783   2.794   7.259  0.9676 -0.6921 -0.7141
  424MOL0     C57170   5.879   2.528   6.485  0.3799 -0.1328 -0.0547
  424MOL0     C57171   5.943   2.425   6.422 -0.3480 -0.0531 -1.0346
  424MOL0     C57172   6.027   2.458   6.305  0.6803 -0.1387  0.1827
  424MOL0     H57173   5.977   1.827   6.469 -2.6405 -0.6701 -2.5745
  424MOL0     H57174   6.044   1.636   6.319  2.4145 -1.8463 -2.9257
  424MOL0     H57175   5.972   1.729   5.967 -0.8600 -0.2923 -1.1952
  424MOL0     H57176   6.079   1.598   5.895  1.0973  0.5627  0.3603
  424MOL0     H57177   5.872   1.500   5.978 -1.0898 -1.0617  0.6591
  424MOL0     H57178   5.886   1.574   6.134 -2.6690  1.5536 -1.9381
  424MOL0     H57179   6.061   1.416   6.200 -2.1754  0.5503  0.7685
  424MOL0     H57180   6.100   1.395   6.025 -2.1479 -2.6116 -0.3784
  424MOL0     H57181   5.874   1.297   6.195  0.7437 -0.6948  0.0966
  424MOL0     H57182   5.865   1.271   6.016 -0.0934  0.7910 -0.7687
  424MOL0     H57183   6.040   1.128   6.005  1.2024  1.4379  0.4018
  424MOL0     H57184   6.089   1.178   6.169 -2.4169  1.7258  0.9116
  424MOL0     H57185   5.875   0.987   6.078 -2.1246 -1.7918  2.3913
  424MOL0     H57186   6.012   0.954   6.187 -0.3654 -1.4451 -0.6267
  424MOL0     H57187   5.819   0.948   6.316 -0.8456  0.0631 -1.6795
  424MOL0     H57188   5.760   1.108   6.271  1.8426  2.2268 -3.0940
  424MOL0     H57189   5.995   1.205   6.375  0.9785 -1.0596 -2.5109
  424MOL0     H57190   5.872   1.166   6.479 -2.1171  0.9481 -1.2131
  424MOL0     H57191   6.008   0.830   6.357 -0.3083 -0.9026  0.8965
  424MOL0     H57192   6.240   0.678   6.623  0.3210  0.5862  0.4918
  424MOL0     H57193   6.166   0.645   6.464  0.1809  1.8045 -1.4206
  424MOL0     H57194   6.412   0.611   6.438  3.2056  2.2328  1.4743
  424MOL0     H57195   6.348   0.750   6.345 -1.2480  0.0467 -0.1103
  424MOL0     H57196   6.497   0.741   6.614  1.9870 -2.4589 -1.5665
  424MOL0     H57197   6.450   0.899   6.540  0.3498 -0.5216  3.4410
  424MOL0     H57198   6.630   0.685   6.427 -0.9091 -0.0369 -2.2196
  424MOL0     H57199   6.687   0.798   6.545  0.9742 -0.1467 -1.5462
  424MOL0     H57200   6.862   0.740   6.415  1.9815 -1.9048 -0.9632
  424MOL0     H57201   7.079   0.749   6.296  1.1071 -0.6372 -4.8239
  424MOL0     H57202   7.155   0.974   5.718 -1.3173 -3.2348  1.3173
  424MOL0     H57203   7.341   1.007   5.559  0.3807 -1.6086 -1.3598
  424MOL0     H57204   7.548   0.905   5.445 -0.5260  0.0862  1.7659
  424MOL0     H57205   7.534   1.079   5.474 -2.4190 -1.3595  2.3597
  424MOL0     H57206   7.759   0.892   5.393  2.8856  1.5203 -0.5502
  424MOL0     H57207   7.712   1.033   5.311 -0.6208 -3.5525 -1.7588
  424MOL0     H57208   7.803   1.167   5.536  1.5581  1.2788 -0.4206
  424MOL0     H57209   7.889   1.014   5.561 -1.1666  1.6482  2.3626
  424MOL0     H57210   7.904   1.187   5.311 -1.5661 -1.5631 -2.0957
  424MOL0     H57211   8.004   1.042   5.328 -1.8459 -1.8639  2.1898
  424MOL0     H57212   8.116   1.154   5.537 -1.8449 -0.6584  2.2732
  424MOL0     H57213   8.007   1.294   5.502  1.2094 -0.8585  1.1103
  424MOL0     H57214   8.243   1.300   5.428 -0.7746  0.8644 -0.3218
  424MOL0     H57215   8.203   1.182   5.300 -4.6664 -0.6440 -1.5374
  424MOL0     H57216   8.088   1.469   5.332  2.8649  2.2331 -0.2191
  424MOL0     H57217   8.039   1.347   5.202  1.1575  0.1741 -0.6438
  424MOL0     H57218   8.246   1.362   5.115 -1.5559 -0.2505  0.5243
  424MOL0     H57219   8.170   1.517   5.136 -0.1187  0.1370 -0.5017
  424MOL0     H57220   7.613   0.938   5.896  0.1085 -1.5307 -2.7949
  424MOL0     H57221   7.434   0.931   6.042 -0.4109 -4.4286 -0.1426
  424MOL0     H57222   6.908   1.010   6.010 -3.0387  0.9702 -0.0163
  424MOL0     H57223   6.687   1.021   6.154 -0.4032  0.2741  2.7435
  424MOL0     H57224   6.201   1.922   6.046 -3.3912 -1.3445 -2.0924
  424MOL0     H57225   6.184   2.108   6.224  1.8592 -1.0990  0.7428
  424MOL0     H57226   5.830   2.180   6.621  1.9766 -0.3216 -0.5968
  424MOL0     H57227   5.721   2.373   6.730  0.0099  0.4298 -0.0764
  424MOL0     H57228   5.756   2.795   6.560  0.6442  1.9583  1.2402
  424MOL0     H57229   5.890   2.763   6.671  0.8130 -1.7979 -0.6453
  424MOL0     H57230   5.605   2.841   6.744  0.5855  2.1323 -3.6990
  424MOL0     H57231   5.747   2.935   6.753  1.4863 -0.1776 -1.3968
  424MOL0     H57232   5.858   2.738   6.893 -1.4799 -2.4570 -1.1272
  424MOL0     H57233   5.687   2.700   6.939 -0.0831 -0.3755  1.1421
  424MOL0     H57234   5.844   2.969   7.001  2.2017 -1.6763  4.7579
  424MOL0     H57235   5.667   2.954   6.988  1.1202  0.3931 -3.6980
  424MOL0     H57236   5.787   2.742   7.352  1.1434 -0.7796 -0.7695
  424MOL0     H57237   5.891   2.633   6.463  0.5194  0.2835  1.8800
  424MOL0     H57238   5.986   2.431   6.207  2.5145 -0.7527 -0.4512
  424MOL0     H57239   6.067   2.560   6.306  2.0965 -0.6722  0.5276
  424MOL0     H57240   6.123   2.406   6.306  0.8854  0.1810  2.2160
  425MOL0     O57241   6.456   9.575  10.697 -0.1035  0.0906 -0.3479
  425MOL0     C57242   6.411   9.555  10.813  1.2681  0.2736 -0.0186
  425MOL0     O57243   6.289   9.590  10.857 -0.2251 -0.6543  0.1919
  425MOL0     C57244   6.191   9.640  10.765 -0.5520 -0.1255 -0.4944
  425MOL0     C57245   6.211   9.749  10.679  0.3267 -0.6802  0.3431
  425MOL0     C57246   6.114   9.806  10.597  0.4556 -0.2561  0.2739
  425MOL0     C57247   5.989   9.742  10.600  0.4158 -0.5134 -0.1826
  425MOL0     O57248   5.892   9.780  10.511  0.0107  0.3260 -0.6778
  425MOL0     C57249   5.907   9.906  10.439  0.0490  0.1337 -0.4080
  425MOL0     C57250   5.785   9.925  10.355 -0.3917  0.7504  0.3923
  425MOL0     C57251   5.818   9.976  10.212 -0.2199 -0.1401 -0.4193
  425MOL0     C57252   5.859  10.127  10.211 -0.0358  0.2820  0.0844
  425MOL0     C57253   5.848  10.179  10.058 -0.0512  0.4546  0.0308
  425MOL0     C57254   5.886  10.326  10.042 -0.8218 -0.0284  0.3412
  425MOL0     C57255   5.908  10.366   9.899 -0.3052 -0.3905 -0.8977
  425MOL0     C57256   5.787  10.385   9.820  0.0715  0.2357  0.1153
  425MOL0     N57257   5.734  10.511   9.847 -0.3207  0.5727  0.3839
  425MOL0     C57258   5.769  10.623   9.774 -0.3795 -0.0390  0.0208
  425MOL0     C57259   5.669  10.712   9.793  0.2025 -1.0002 -0.8748
  425MOL0     C57260   5.654  10.863   9.761  0.6703 -0.9185  0.6362
  425MOL0     C57261   5.532  10.875   9.662 -0.3986  0.4845 -0.9722
  425MOL0     C57262   5.578  10.856   9.515 -0.0080 -0.5214  0.8220
  425MOL0     C57263   5.551  10.716   9.461  0.0018 -0.0961 -1.1791
  425MOL0     O57264   5.572  10.719   9.320  0.3794  0.3094  0.1302
  425MOL0     C57265   5.522  10.625   9.237  0.5009  0.2641  0.8938
  425MOL0     C57266   5.445  10.507   9.271 -0.5572  0.1074  1.0477
  425MOL0     C57267   5.416  10.418   9.170  0.5213 -0.0190  0.3934
  425MOL0     C57268   5.467  10.431   9.039  0.2899 -0.4075  0.0383
  425MOL0     C57269   5.446  10.326   8.942 -0.1457  0.3402 -0.0199
  425MOL0     O57270   5.532  10.323   8.834  0.1149  0.6127  0.1591
  425MOL0     C57271   5.485  10.291   8.711 -0.4915 -0.5712 -0.3107
  425MOL0     C57272   5.358  10.335   8.659 -0.3210 -0.3281  0.5950
  425MOL0     C57273   5.323  10.285   8.535 -0.4740  0.6415 -0.3918
  425MOL0     C57274   5.409  10.206   8.456  1.0966  0.6846 -0.3074
  425MOL0     O57275   5.375  10.160   8.327 -0.5265  0.3289  0.7456
  425MOL0     C57276   5.295  10.240   8.245  0.1889  0.5616  0.5898
  425MOL0     C57277   5.263  10.155   8.120  0.1469 -0.5765  0.5303
  425MOL0     C57278   5.142  10.214   8.038 -0.2818  0.3276  0.6560
  425MOL0     C57279   5.068  10.104   7.965  0.3467  0.4265  0.1209
  425MOL0     C57280   4.977  10.170   7.867  0.3903  0.7260 -0.3746
  425MOL0     C57281   4.950  10.067   7.762 -1.0996  0.2662 -0.0089
  425MOL0     C57282   4.859  10.117   7.650  1.3122  0.0073  0.0412
  425MOL0     C57283   4.911  10.224   7.568 -0.3646  0.7087 -0.4661
  425MOL0    Cl57284   4.828  10.251   7.410  0.0664  0.1189  0.1407
  425MOL0     C57285   5.529  10.170   8.506 -0.3789 -0.7327  0.4604
  425MOL0     C57286   5.573  10.219   8.630  0.0576 -0.0955 -0.4898
  425MOL0     O57287   5.370  10.235   8.970  0.4538 -0.1631 -0.7191
  425MOL0     C57288   5.531  10.555   9.009  0.6060 -0.2697 -0.0945
  425MOL0     C57289   5.553  10.646   9.102 -0.5986 -0.9467  0.5159
  425MOL0     N57290   5.580  10.660   9.888  0.0482  0.8154  0.1221
  425MOL0     N57291   5.610  10.536   9.903  0.3372  0.2446 -0.7747
  425MOL0     C57292   5.967   9.621  10.668 -0.4102  0.5829 -0.6196
  425MOL0     C57293   6.059   9.572  10.760 -1.4198 -0.4131 -0.0077
  425MOL0     C57294   6.492   9.465  10.907  0.7014  0.2836  0.2337
  425MOL0     C57295   6.419   9.396  11.008  0.6925 -1.1482 -0.4795
  425MOL0     C57296   6.476   9.302  11.091  0.3362  0.6770  0.4252
  425MOL0     C57297   6.614   9.269  11.081  0.7899 -0.2964  0.5637
  425MOL0     O57298   6.663   9.168  11.156  0.7870 -0.0594  0.3813
  425MOL0     C57299   6.570   9.071  11.206  0.5424  0.5104  0.0148
  425MOL0     C57300   6.662   8.956  11.270  0.1962  0.3146 -0.1294
  425MOL0     C57301   6.742   9.006  11.393 -0.4895 -0.5700  0.3149
  425MOL0     C57302   6.880   9.073  11.353  0.2086  0.5724  0.5982
  425MOL0     C57303   6.981   9.065  11.460 -0.0705 -0.1867 -0.0568
  425MOL0     C57304   7.089   9.057  11.511 -0.0937  0.0044  0.2845
  425MOL0     C57305   6.695   9.345  10.994  1.1176  0.2115  0.3635
  425MOL0     C57306   6.635   9.437  10.906  0.0175  0.6618 -0.3065
  425MOL0     C57307   6.719   9.492  10.804  0.4024 -0.1463 -0.5552
  425MOL0     H57308   6.307   9.799  10.689  3.1016 -5.4341  0.4973
  425MOL0     H57309   6.134   9.896  10.540  2.2073 -0.2649  0.8330
  425MOL0     H57310   5.926   9.990  10.507 -0.8327 -0.1197  0.1742
  425MOL0     H57311   5.994   9.902  10.374  1.4868  0.7202  1.3988
  425MOL0     H57312   5.733  10.007  10.406  0.7521  4.1011 -3.3335
  425MOL0     H57313   5.727   9.832  10.351  0.5608  0.1768 -0.3775
  425MOL0     H57314   5.726   9.960  10.155 -0.3834 -2.0365  0.2955
  425MOL0     H57315   5.886   9.912  10.155 -0.9696 -1.2813 -0.0682
  425MOL0     H57316   5.795  10.181  10.281  0.8777 -1.1847  2.1762
  425MOL0     H57317   5.962  10.123  10.247  0.2490 -0.5203 -0.7799
  425MOL0     H57318   5.909  10.116   9.992  1.6378  0.8968  1.1171
  425MOL0     H57319   5.749  10.174  10.013  0.1994  4.5560 -1.3624
  425MOL0     H57320   5.812  10.394  10.085  0.0034  0.0195  1.7659
  425MOL0     H57321   5.974  10.337  10.107 -2.2074 -0.7491  2.4581
  425MOL0     H57322   5.979  10.294   9.856  1.5991 -0.5034  2.0827
  425MOL0     H57323   5.960  10.462   9.907  2.4322 -1.8783  1.4559
  425MOL0     H57324   5.813  10.378   9.714 -3.2912 -1.9263 -0.6942
  425MOL0     H57325   5.709  10.311   9.840 -0.0083  0.8648  2.4440
  425MOL0     H57326   5.864  10.628   9.722  0.7333 -0.9620  1.8541
  425MOL0     H57327   5.648  10.931   9.847  0.0611  2.4176 -1.8380
  425MOL0     H57328   5.751  10.889   9.717  1.8101 -2.7767  1.8812
  425MOL0     H57329   5.454  10.806   9.694 -2.3559  1.6945 -2.8219
  425MOL0     H57330   5.494  10.978   9.667  1.2696  1.0689  1.6851
  425MOL0     H57331   5.683  10.873   9.488 -0.6090  0.3219 -1.1985
  425MOL0     H57332   5.513  10.923   9.457 -1.9413 -1.3483  1.9490
  425MOL0     H57333   5.442  10.701   9.469  0.1482 -0.1055  1.6103
  425MOL0     H57334   5.601  10.640   9.522 -3.0687  0.1372  1.9981
  425MOL0     H57335   5.397  10.492   9.367  0.4104  0.1463  1.5466
  425MOL0     H57336   5.362  10.330   9.201  1.1358  0.0438  1.7293
  425MOL0     H57337   5.285  10.391   8.716 -1.4435 -3.0135  2.0147
  425MOL0     H57338   5.218  10.299   8.511 -1.0187 -0.4404  1.2263
  425MOL0     H57339   5.204  10.274   8.295  0.1278  0.6105  0.4465
  425MOL0     H57340   5.351  10.328   8.211  2.7951 -1.1286  0.1960
  425MOL0     H57341   5.359  10.156   8.067  0.8093  0.4853  1.6699
  425MOL0     H57342   5.232  10.057   8.156  0.4349 -1.4811 -1.5784
  425MOL0     H57343   5.075  10.261   8.110 -1.8317  3.4412 -2.5020
  425MOL0     H57344   5.191  10.288   7.974 -2.2930  2.3887  1.3816
  425MOL0     H57345   5.009  10.060   8.046 -0.9542  1.0778 -0.4516
  425MOL0     H57346   5.136  10.033   7.916 -1.1338 -0.8508 -0.1547
  425MOL0     H57347   5.020  10.264   7.829 -0.9164  1.4981 -0.0012
  425MOL0     H57348   4.886  10.199   7.921  2.0570  0.2607  2.9912
  425MOL0     H57349   5.048  10.031   7.730 -0.8256 -0.7417  1.8424
  425MOL0     H57350   4.909   9.977   7.808  0.4720  0.4783  1.9815
  425MOL0     H57351   4.757  10.139   7.684  1.1033 -1.0078  0.1199
  425MOL0     H57352   4.851  10.026   7.590  2.8730  1.1609 -2.0047
  425MOL0     H57353   4.897  10.321   7.617 -1.6381  0.5818 -0.5550
  425MOL0     H57354   5.016  10.215   7.538 -0.2837 -0.8698  0.1964
  425MOL0     H57355   5.599  10.103   8.456  0.4190 -0.9843  1.8432
  425MOL0     H57356   5.676  10.202   8.661  0.4065  4.8717  1.9968
  425MOL0     H57357   5.556  10.551   8.903 -1.9657 -0.1273 -0.7647
  425MOL0     H57358   5.608  10.738   9.084 -0.8320 -0.7542  0.7724
  425MOL0     H57359   5.870   9.573  10.656 -0.0332  0.3367 -3.1096
  425MOL0     H57360   6.036   9.483  10.818  1.9340 -0.4897  1.4624
  425MOL0     H57361   6.310   9.392  11.002  0.7961 -2.0886 -2.7903
  425MOL0     H57362   6.406   9.263  11.165  1.9961 -3.2230  0.1752
  425MOL0     H57363   6.511   9.033  11.122  1.8416  1.7178 -1.4984
  425MOL0     H57364   6.509   9.115  11.286 -0.9079 -1.5678  0.1290
  425MOL0     H57365   6.741   8.918  11.204 -0.3403 -0.2042 -0.4855
  425MOL0     H57366   6.601   8.875  11.312 -0.1162 -0.2721 -1.6407
  425MOL0     H57367   6.768   8.918  11.452  0.0820 -0.5930  0.0385
  425MOL0     H57368   6.686   9.083  11.447  0.5952  2.3030 -2.2864
  425MOL0     H57369   6.933   9.022  11.272 -2.1377 -1.3643  0.1725
  425MOL0     H57370   6.865   9.180  11.332 -1.4861  0.5563  1.5758
  425MOL0     H57371   7.180   9.069  11.567  0.6203  4.8126 -1.4727
  425MOL0     H57372   6.800   9.316  10.999  1.6424  1.8475 -0.4441
  425MOL0     H57373   6.706   9.599  10.789  0.9840 -0.0169 -0.1548
  425MOL0     H57374   6.825   9.473  10.827 -0.2671 -0.8772  2.2459
  425MOL0     H57375   6.697   9.451  10.704  0.9015  2.0955 -1.6506
  426MOL0     O57376   4.724  10.636   9.822  0.1792 -0.4871  0.1565
  426MOL0     C57377   4.699  10.527   9.857  0.6758 -0.6478 -0.3847
  426MOL0     O57378   4.630  10.442   9.783 -0.3246 -0.6753  0.2288
  426MOL0     C57379   4.609  10.482   9.654 -0.1852  0.0593  0.5625
  426MOL0     C57380   4.694  10.485   9.544  0.7576 -0.1033  0.3969
  426MOL0     C57381   4.646  10.524   9.421 -0.1819 -0.0487  0.2445
  426MOL0     C57382   4.513  10.567   9.406  0.3937  0.3006  0.3261
  426MOL0     O57383   4.478  10.611   9.282  0.3541  0.0268  0.0604
  426MOL0     C57384   4.345  10.570   9.237  0.3628 -0.1007 -0.1386
  426MOL0     C57385   4.332  10.603   9.088 -0.0413 -0.8143 -0.0275
  426MOL0     C57386   4.465  10.571   9.003 -0.3626  0.3234 -0.6456
  426MOL0     C57387   4.437  10.599   8.854 -0.0206 -0.2589 -0.9160
  426MOL0     C57388   4.555  10.594   8.763  0.3481  0.4317 -0.4189
  426MOL0     C57389   4.518  10.645   8.620 -0.0119  0.0356  0.3062
  426MOL0     C57390   4.608  10.572   8.522 -0.5820 -0.7694 -0.8016
  426MOL0     C57391   4.532  10.456   8.453 -0.6353  0.1625  0.4685
  426MOL0     N57392   4.479  10.360   8.551 -0.6627 -0.1148 -0.4481
  426MOL0     C57393   4.541  10.271   8.628  1.1312 -0.5464 -1.1767
  426MOL0     C57394   4.433  10.215   8.703 -1.1753 -0.3548  0.9769
  426MOL0     C57395   4.437  10.103   8.801 -0.2318 -0.6279  0.0201
  426MOL0     C57396   4.392  10.137   8.946 -0.3882  0.7495  0.4942
  426MOL0     C57397   4.248  10.181   8.960 -0.7589 -0.6615  0.5748
  426MOL0     C57398   4.215  10.220   9.101  1.1239 -0.4579  0.8786
  426MOL0     O57399   4.087  10.273   9.105 -0.1395  0.0792 -0.3161
  426MOL0     C57400   4.069  10.347   9.218 -0.0558  0.7074  0.6312
  426MOL0     C57401   3.984  10.453   9.209  0.0023  0.5752  0.4439
  426MOL0     C57402   3.962  10.550   9.304 -0.6456 -0.4771 -0.5143
  426MOL0     C57403   4.021  10.535   9.432 -0.3509 -0.0059  0.3497
  426MOL0     C57404   4.001  10.624   9.546 -0.0605  0.7325 -0.2454
  426MOL0     O57405   3.865  10.673   9.554 -0.5242 -0.0746  0.3862
  426MOL0     C57406   3.819  10.706   9.683  0.9755  0.6245  0.7734
  426MOL0     C57407   3.830  10.835   9.745  0.2979  0.1436  0.4937
  426MOL0     C57408   3.770  10.860   9.871 -0.0248  1.1579  0.8803
  426MOL0     C57409   3.723  10.755   9.940  1.3173  0.0157 -0.6786
  426MOL0     O57410   3.686  10.786  10.064 -0.1195  0.2223 -0.1178
  426MOL0     C57411   3.579  10.713  10.124  0.0113  0.7321 -1.3373
  426MOL0     C57412   3.443  10.783  10.106 -0.0374  1.1053  0.0787
  426MOL0     C57413   3.431  10.913  10.183  0.7750 -0.1985  0.1520
  426MOL0     C57414   3.288  10.972  10.157 -0.5193  0.6901  0.4871
  426MOL0     C57415   3.238  11.060  10.279 -0.4207  0.7623 -0.1626
  426MOL0     C57416   3.150  10.969  10.362 -0.4444 -0.0127  0.1786
  426MOL0     C57417   3.096  11.022  10.490  0.1806  0.3881 -0.2865
  426MOL0     C57418   2.976  10.940  10.547 -0.0744 -0.4549  0.7180
  426MOL0    Cl57419   2.931  11.015  10.702 -0.7350 -0.0945 -0.1246
  426MOL0     C57420   3.720  10.633   9.882  0.9152  0.2595  0.5360
  426MOL0     C57421   3.759  10.601   9.752  0.1941  0.3912 -0.2939
  426MOL0     O57422   4.085  10.627   9.635 -0.2284 -0.5886  0.3778
  426MOL0     C57423   4.103  10.424   9.450  0.8058 -1.4330  0.4419
  426MOL0     C57424   4.139  10.335   9.348  0.1158  0.7119  0.8528
  426MOL0     N57425   4.312  10.249   8.644 -1.3215  0.4954  0.1076
  426MOL0     N57426   4.345  10.339   8.555  0.1775 -0.3989  0.4495
  426MOL0     C57427   4.424  10.575   9.514 -0.0399 -1.2457 -0.4058
  426MOL0     C57428   4.480  10.537   9.639  0.3743 -0.0994  0.1894
  426MOL0     C57429   4.777  10.484   9.984  0.2788  0.0788  0.2323
  426MOL0     C57430   4.814  10.345   9.992 -0.7659 -0.6710  0.1296
  426MOL0     C57431   4.872  10.288  10.107 -0.2755  0.4121 -0.2369
  426MOL0     C57432   4.908  10.364  10.214 -0.9872  0.0329 -0.1295
  426MOL0     O57433   4.960  10.311  10.333  0.7492 -0.1361 -0.5295
  426MOL0     C57434   5.058  10.377  10.413  0.2696 -0.0784  0.0362
  426MOL0     C57435   5.188  10.396  10.326 -0.1349 -0.3178 -0.0967
  426MOL0     C57436   5.304  10.430  10.427  0.1429 -0.4245 -0.1660
  426MOL0     C57437   5.435  10.463  10.345 -0.0156 -0.0507  1.0556
  426MOL0     C57438   5.490  10.345  10.290 -0.3990  0.8074 -0.4995
  426MOL0     C57439   5.533  10.242  10.235  1.0872 -0.5684  0.9181
  426MOL0     C57440   4.873  10.504  10.206 -0.0991  0.4191 -0.4234
  426MOL0     C57441   4.807  10.560  10.094 -0.3704  0.0979 -0.0626
  426MOL0     C57442   4.778  10.709  10.117 -0.0686  0.4471 -0.0268
  426MOL0     H57443   4.798  10.452   9.548  0.6518 -0.3681  1.4315
  426MOL0     H57444   4.697  10.518   9.325 -1.8126  0.5715 -0.6921
  426MOL0     H57445   4.340  10.461   9.246 -1.3606 -0.0207  0.2593
  426MOL0     H57446   4.258  10.609   9.290  1.9527  2.0305  1.0089
  426MOL0     H57447   4.303  10.708   9.090  3.4529  0.2430  1.2026
  426MOL0     H57448   4.250  10.545   9.043  0.2732 -0.2475 -1.3806
  426MOL0     H57449   4.483  10.464   9.021 -1.7575  0.5251  2.5102
  426MOL0     H57450   4.546  10.633   9.043 -0.0827  0.0677 -0.8091
  426MOL0     H57451   4.359  10.530   8.822 -1.0145  0.2396  0.3649
  426MOL0     H57452   4.392  10.699   8.854  1.6488  0.5182 -0.2069
  426MOL0     H57453   4.636  10.649   8.811 -0.0921 -0.4974  1.4646
  426MOL0     H57454   4.597  10.494   8.757  0.6079  0.6110 -2.4235
  426MOL0     H57455   4.411  10.626   8.607 -0.9882  2.0609  4.0668
  426MOL0     H57456   4.530  10.753   8.609 -1.1938  0.0521 -1.2230
  426MOL0     H57457   4.700  10.541   8.571  1.9062  2.6405 -2.9045
  426MOL0     H57458   4.644  10.643   8.447  3.0319 -0.8818  0.6405
  426MOL0     H57459   4.449  10.505   8.400  1.7143  2.8587 -0.9513
  426MOL0     H57460   4.599  10.406   8.382  0.9601 -1.5583  3.0080
  426MOL0     H57461   4.647  10.255   8.641  0.8512 -2.8561 -1.3337
  426MOL0     H57462   4.399  10.009   8.761  1.5530 -1.1104 -0.6523
  426MOL0     H57463   4.542  10.081   8.822  0.1920  3.7001  4.3487
  426MOL0     H57464   4.416  10.045   9.001  3.4497  0.5070 -1.2325
  426MOL0     H57465   4.463  10.211   8.984  2.2212 -2.4741  2.4484
  426MOL0     H57466   4.192  10.092   8.929  2.0446 -1.5661 -2.3508
  426MOL0     H57467   4.227  10.258   8.886  0.3715 -2.1268 -1.3633
  426MOL0     H57468   4.287  10.288   9.147 -0.7541  1.7144  0.7696
  426MOL0     H57469   4.224  10.129   9.162 -0.9274 -1.1133  0.2932
  426MOL0     H57470   3.958  10.476   9.106  0.8435  1.2064  0.3560
  426MOL0     H57471   3.903  10.641   9.300  0.4733  0.2379 -1.5195
  426MOL0     H57472   3.864  10.912   9.677 -0.7211  2.6411  2.6491
  426MOL0     H57473   3.772  10.964   9.903  0.0578  0.9915  1.4293
  426MOL0     H57474   3.568  10.607  10.102 -0.3200  0.7077 -1.0507
  426MOL0     H57475   3.605  10.709  10.230 -0.5682 -3.0623 -1.2063
  426MOL0     H57476   3.410  10.800  10.003 -0.2396 -0.9530 -0.2438
  426MOL0     H57477   3.368  10.714  10.145  1.6164  0.1457  1.7141
  426MOL0     H57478   3.449  10.893  10.289 -1.6503  1.7546  1.0331
  426MOL0     H57479   3.499  10.994  10.155 -0.1813  0.3048 -0.8146
  426MOL0     H57480   3.210  10.897  10.140 -0.5338  0.8392 -0.1297
  426MOL0     H57481   3.301  11.032  10.067  0.6810  1.0571  0.8784
  426MOL0     H57482   3.187  11.151  10.244 -3.0084  0.1222  1.6693
  426MOL0     H57483   3.329  11.088  10.332  1.0741 -2.9942 -0.4628
  426MOL0     H57484   3.057  10.950  10.308 -2.8273  1.2548  3.4809
  426MOL0     H57485   3.189  10.868  10.375  1.1879  0.6499  0.8132
  426MOL0     H57486   3.073  11.127  10.467  0.3017  0.7978  1.2955
  426MOL0     H57487   3.176  11.018  10.565  0.7564 -3.2393 -0.9373
  426MOL0     H57488   2.894  10.938  10.475  2.1537 -2.4860 -1.9840
  426MOL0     H57489   3.006  10.836  10.560 -1.2421 -0.6811  1.7323
  426MOL0     H57490   3.699  10.549   9.948  1.4788  0.3976  0.9046
  426MOL0     H57491   3.742  10.501   9.714  3.7388 -0.5286  0.2055
  426MOL0     H57492   4.141  10.406   9.550 -0.9998 -1.0757  1.2305
  426MOL0     H57493   4.216  10.262   9.370  0.9636  0.6207 -1.9355
  426MOL0     H57494   4.329  10.625   9.494 -0.4203 -1.7890 -0.0083
  426MOL0     H57495   4.423  10.533   9.731  1.0990 -2.5305  0.5815
  426MOL0     H57496   4.789  10.273   9.914 -1.5677 -0.0883 -0.1625
  426MOL0     H57497   4.886  10.181  10.113 -0.6026  0.4717  3.3013
  426MOL0     H57498   5.076  10.326  10.508 -0.1156  2.3711  1.5082
  426MOL0     H57499   5.019  10.473  10.448 -0.3371 -0.1644 -0.3956
  426MOL0     H57500   5.177  10.480  10.256  2.1242 -0.6606 -0.9197
  426MOL0     H57501   5.217  10.306  10.272  3.1003 -1.7416  3.5156
  426MOL0     H57502   5.324  10.351  10.501 -1.9079 -2.8520 -2.0571
  426MOL0     H57503   5.281  10.525  10.476 -1.7890 -0.5089 -0.8510
  426MOL0     H57504   5.411  10.527  10.260 -1.4445 -2.4879 -0.4942
  426MOL0     H57505   5.509  10.504  10.415  0.4029  1.1354 -0.0482
  426MOL0     H57506   5.558  10.154  10.179 -1.8821 -0.3622 -0.9446
  426MOL0     H57507   4.897  10.570  10.288 -2.6030  2.7599 -1.4020
  426MOL0     H57508   4.865  10.776  10.113  1.6672 -1.7388 -2.4794
  426MOL0     H57509   4.718  10.738  10.030  0.0528  0.3309 -0.1495
  426MOL0     H57510   4.723  10.718  10.211  1.4041  0.3596  0.8712
  427MOL0     O57511   1.408   7.873   2.299 -0.0149 -0.3592 -0.0951
  427MOL0     C57512   1.378   7.757   2.271  0.7912  0.2021  0.3218
  427MOL0     O57513   1.389   7.701   2.149  0.3457 -0.0756  0.9320
  427MOL0     C57514   1.438   7.755   2.035  0.4836 -1.1235 -0.2280
  427MOL0     C57515   1.429   7.894   2.005  0.3458 -0.0448 -0.4002
  427MOL0     C57516   1.491   7.941   1.886 -0.6417  0.4076  0.4859
  427MOL0     C57517   1.564   7.862   1.801 -0.0503  0.4841  0.0796
  427MOL0     O57518   1.639   7.928   1.709 -1.0528 -0.2029  0.4511
  427MOL0     C57519   1.676   7.860   1.594 -0.6059  0.3734 -0.7260
  427MOL0     C57520   1.756   7.954   1.498 -0.0664 -0.0069  0.3614
  427MOL0     C57521   1.890   7.982   1.555 -0.0455  0.0374  0.4009
  427MOL0     C57522   1.977   8.078   1.478 -0.7084 -1.7422  0.9080
  427MOL0     C57523   2.119   8.102   1.533 -0.0169  0.0553  0.4726
  427MOL0     C57524   2.199   7.969   1.531  0.2594 -0.2185  0.1784
  427MOL0     C57525   2.350   7.990   1.553  0.0161 -0.3224 -0.4612
  427MOL0     C57526   2.420   7.860   1.571  0.1247 -0.0215  0.6685
  427MOL0     N57527   2.406   7.766   1.454 -0.3641 -0.5028 -0.4978
  427MOL0     C57528   2.479   7.771   1.338 -0.5516 -0.8880  0.5347
  427MOL0     C57529   2.439   7.665   1.267  0.1390  0.0238  1.0210
  427MOL0     C57530   2.463   7.637   1.114  0.0316 -0.0493  0.1762
  427MOL0     C57531   2.605   7.645   1.076  0.2203 -0.3282 -0.0782
  427MOL0     C57532   2.686   7.515   1.110  0.6179 -0.1331 -0.5221
  427MOL0     C57533   2.826   7.520   1.051 -0.1952  0.6858  0.1737
  427MOL0     O57534   2.875   7.386   1.050  0.1092 -0.6409  0.3379
  427MOL0     C57535   3.010   7.371   1.043  0.1797  0.4130 -0.4177
  427MOL0     C57536   3.104   7.440   1.124 -0.2567  0.4206 -0.5447
  427MOL0     C57537   3.240   7.427   1.107  0.3393 -0.5571 -0.3428
  427MOL0     C57538   3.288   7.340   1.006  0.1905 -0.2745  0.1338
  427MOL0     C57539   3.429   7.332   0.975  0.1816  0.3401 -0.2312
  427MOL0     O57540   3.466   7.262   0.859  0.5102  0.2963  0.0493
  427MOL0     C57541   3.593   7.275   0.819  0.3728 -0.0623 -0.2495
  427MOL0     C57542   3.692   7.187   0.862  1.0122  0.9145  0.2435
  427MOL0     C57543   3.825   7.191   0.813  1.5224  0.4996 -0.9488
  427MOL0     C57544   3.865   7.291   0.719 -0.2885  0.6203  0.0908
  427MOL0     O57545   3.997   7.317   0.676 -0.2138 -0.8831 -0.1007
  427MOL0     C57546   4.107   7.231   0.710  0.3511  0.7027  0.0152
  427MOL0     C57547   4.118   7.112   0.616  0.7251  0.0082 -0.8257
  427MOL0     C57548   3.993   7.025   0.606 -0.2451  0.7074  0.1531
  427MOL0     C57549   4.001   6.905   0.510  0.4705  0.4757  0.8317
  427MOL0     C57550   3.883   6.810   0.530  0.1009 -0.2115  0.0686
  427MOL0     C57551   3.865   6.702   0.414  0.3745  0.2241  0.3291
  427MOL0     C57552   3.779   6.577   0.453  0.9170 -0.1324 -0.2042
  427MOL0     C57553   3.633   6.610   0.485  0.0082  0.1350  0.2930
  427MOL0    Cl57554   3.559   6.463   0.547 -0.0401 -0.4488 -0.5251
  427MOL0     C57555   3.759   7.371   0.675  0.4064 -0.1205  0.6302
  427MOL0     C57556   3.631   7.367   0.716  1.6098 -0.0284  0.0451
  427MOL0     O57557   3.507   7.383   1.060 -0.5722  0.0004  1.0093
  427MOL0     C57558   3.191   7.263   0.932 -0.0786 -0.0972  1.5311
  427MOL0     C57559   3.058   7.280   0.946 -0.1701 -0.1677 -0.5855
  427MOL0     N57560   2.346   7.588   1.346 -1.1939  0.7524 -0.0085
  427MOL0     N57561   2.321   7.656   1.453 -0.3500  0.1107  1.2291
  427MOL0     C57562   1.566   7.724   1.821  0.2412 -0.3475 -0.2268
  427MOL0     C57563   1.496   7.671   1.935 -0.5809 -0.4413  0.2813
  427MOL0     C57564   1.321   7.672   2.386 -0.3527  0.0580  0.5058
  427MOL0     C57565   1.350   7.539   2.375  0.0088 -0.6692 -1.1293
  427MOL0     C57566   1.306   7.442   2.467 -0.6070 -0.1300 -0.7283
  427MOL0     C57567   1.223   7.482   2.574  0.0970  0.0377 -0.6374
  427MOL0     O57568   1.198   7.390   2.668 -0.8512 -0.0957  0.9879
  427MOL0     C57569   1.077   7.387   2.733  0.2225 -0.2534  0.6358
  427MOL0     C57570   1.025   7.246   2.760  0.2718 -0.7252 -0.4727
  427MOL0     C57571   0.967   7.174   2.639  0.2139 -0.2668  0.9020
  427MOL0     C57572   0.885   7.058   2.668 -0.4564  0.0594 -0.1452
  427MOL0     C57573   0.950   6.960   2.763  1.2828 -0.6600  0.3569
  427MOL0     C57574   1.005   6.880   2.833  0.0080  0.1690  0.7783
  427MOL0     C57575   1.182   7.619   2.586  0.9383  0.8756  0.2567
  427MOL0     C57576   1.234   7.713   2.491 -0.7233 -0.0696  0.2991
  427MOL0     C57577   1.206   7.853   2.526  0.2293  0.7766 -0.8416
  427MOL0     H57578   1.382   7.957   2.079  1.4901 -1.1082  1.2911
  427MOL0     H57579   1.500   8.048   1.868  0.6583 -0.0562 -2.2105
  427MOL0     H57580   1.746   7.777   1.606  1.1340  1.8465 -0.2255
  427MOL0     H57581   1.592   7.817   1.539  0.7224 -3.6820  0.0693
  427MOL0     H57582   1.706   8.051   1.488 -3.5784 -1.3924  2.3176
  427MOL0     H57583   1.762   7.905   1.401 -0.5350  0.8036 -0.0816
  427MOL0     H57584   1.933   7.883   1.537 -1.7792 -0.4297 -1.5741
  427MOL0     H57585   1.894   8.005   1.662 -1.3123 -2.6463  1.1042
  427MOL0     H57586   1.992   8.047   1.374  0.7401 -2.2181  1.2262
  427MOL0     H57587   1.918   8.170   1.477  2.7042  0.7116 -2.2599
  427MOL0     H57588   2.166   8.173   1.463 -0.2386  0.9832  1.2553
  427MOL0     H57589   2.116   8.140   1.635 -0.8340  1.4210 -0.0284
  427MOL0     H57590   2.161   7.906   1.612  0.9938 -0.7663  0.1043
  427MOL0     H57591   2.182   7.927   1.432  0.4145  2.4971 -1.0994
  427MOL0     H57592   2.368   8.054   1.640  1.2634  1.2953 -1.8135
  427MOL0     H57593   2.404   8.038   1.471  2.3568  1.9031  2.1414
  427MOL0     H57594   2.526   7.884   1.585 -0.0760  1.3515  0.0439
  427MOL0     H57595   2.368   7.823   1.659 -0.2734 -1.9061 -0.2937
  427MOL0     H57596   2.545   7.848   1.301 -1.5035 -1.1829 -2.0128
  427MOL0     H57597   2.421   7.540   1.082 -0.7060  1.0085 -2.3439
  427MOL0     H57598   2.417   7.723   1.065 -0.8594  0.4937  1.8757
  427MOL0     H57599   2.612   7.650   0.967  1.4166 -1.7940 -0.0978
  427MOL0     H57600   2.642   7.735   1.126 -0.5174  0.9178 -1.6919
  427MOL0     H57601   2.636   7.423   1.077  1.9517 -0.4482 -1.7571
  427MOL0     H57602   2.706   7.498   1.216  1.6147  0.4667 -0.6050
  427MOL0     H57603   2.887   7.599   1.097  0.7933 -1.0172  1.9119
  427MOL0     H57604   2.819   7.574   0.956 -2.2488  2.2698  1.1256
  427MOL0     H57605   3.075   7.498   1.211  0.8810  1.4838 -0.8466
  427MOL0     H57606   3.302   7.487   1.173 -0.6838 -1.5290  1.5912
  427MOL0     H57607   3.662   7.119   0.941 -0.6849  1.0099 -0.2831
  427MOL0     H57608   3.897   7.124   0.859  1.7203 -1.8316 -4.3037
  427MOL0     H57609   4.205   7.275   0.688  2.3247 -3.8426 -1.7778
  427MOL0     H57610   4.102   7.200   0.815 -0.7500 -1.0870 -0.5181
  427MOL0     H57611   4.132   7.154   0.516  0.6062  0.9422 -0.4591
  427MOL0     H57612   4.214   7.064   0.642  0.5554  0.6764  1.2598
  427MOL0     H57613   3.967   6.988   0.706  0.0917  0.0535  0.0026
  427MOL0     H57614   3.911   7.079   0.558  0.3257 -0.1637 -1.9084
  427MOL0     H57615   4.096   6.858   0.535  0.8459  0.2284 -0.9393
  427MOL0     H57616   4.004   6.934   0.404 -1.4310  2.8778  1.3452
  427MOL0     H57617   3.793   6.869   0.547  1.5686  2.0801  0.3375
  427MOL0     H57618   3.903   6.762   0.627  0.2424 -1.6409 -0.6402
  427MOL0     H57619   3.816   6.748   0.328  1.5674  0.3896 -0.2884
  427MOL0     H57620   3.961   6.657   0.386  0.2343  1.6824 -2.9457
  427MOL0     H57621   3.820   6.521   0.538 -2.1340 -1.7824  0.3193
  427MOL0     H57622   3.783   6.502   0.374 -1.4512 -1.0401  0.4266
  427MOL0     H57623   3.641   6.687   0.562 -0.9747 -2.7361  3.4907
  427MOL0     H57624   3.587   6.652   0.394 -2.0386 -1.5665  0.4797
  427MOL0     H57625   3.784   7.453   0.608  1.4175 -0.8054  0.1406
  427MOL0     H57626   3.558   7.435   0.673  2.1582 -1.8881 -4.3677
  427MOL0     H57627   3.215   7.210   0.840  1.0439  2.9680 -0.0841
  427MOL0     H57628   2.992   7.212   0.893 -0.4803  2.0419 -3.3092
  427MOL0     H57629   1.620   7.664   1.748 -0.2754  1.3441 -2.0993
  427MOL0     H57630   1.500   7.563   1.946  1.1950 -0.5832 -1.2117
  427MOL0     H57631   1.424   7.513   2.300  1.3692 -1.1273  0.3126
  427MOL0     H57632   1.336   7.338   2.457  2.8434  0.4322  1.7982
  427MOL0     H57633   1.008   7.442   2.668 -0.4575 -1.3944  0.3593
  427MOL0     H57634   1.080   7.441   2.828  0.9768  2.0115 -0.6085
  427MOL0     H57635   0.946   7.249   2.836  0.2054  2.3073 -0.5615
  427MOL0     H57636   1.107   7.188   2.802  0.8146 -1.5608 -2.5355
  427MOL0     H57637   1.050   7.146   2.574 -0.1677  0.0364  0.2762
  427MOL0     H57638   0.905   7.247   2.585  0.4262 -0.1894  0.7626
  427MOL0     H57639   0.788   7.097   2.701  0.0888  1.3091  0.0174
  427MOL0     H57640   0.862   7.009   2.573 -1.4346 -2.1173  1.1337
  427MOL0     H57641   1.041   6.810   2.905 -0.2112 -0.3884  0.3466
  427MOL0     H57642   1.133   7.647   2.678  0.3837  1.5716 -0.2320
  427MOL0     H57643   1.296   7.888   2.577 -0.5889  2.2989 -0.3536
  427MOL0     H57644   1.190   7.907   2.432  0.9734 -0.9386 -1.9801
  427MOL0     H57645   1.119   7.857   2.593  2.0082 -1.7561  1.8357
  428MOL0     O57646   9.792   8.776   3.896  0.1343  0.2824  0.6785
  428MOL0     C57647   9.831   8.785   4.013  0.6362  0.0415  1.0499
  428MOL0     O57648   9.822   8.898   4.087  0.2649 -0.1439  0.0769
  428MOL0     C57649   9.759   9.021   4.037  0.6661 -0.0334 -0.5943
  428MOL0     C57650   9.625   9.044   4.065  0.4434  0.1127 -0.4594
  428MOL0     C57651   9.567   9.166   4.041 -0.6768 -0.0615  0.3486
  428MOL0     C57652   9.642   9.257   3.957  0.4604  0.5526  0.4460
  428MOL0     O57653   9.584   9.371   3.899 -0.8550 -0.2296 -0.4451
  428MOL0     C57654   9.664   9.488   3.860 -0.7172  0.8461  0.8948
  428MOL0     C57655   9.700   9.481   3.704 -0.0596 -0.0041  0.3343
  428MOL0     C57656   9.773   9.607   3.663 -0.2064 -0.0162 -0.5729
  428MOL0     C57657   9.741   9.635   3.514  0.5504 -0.2736  0.8219
  428MOL0     C57658   9.866   9.697   3.437  0.7558 -0.2370  0.6779
  428MOL0     C57659   9.908   9.844   3.496  0.4742  1.1664  0.4424
  428MOL0     C57660   9.806   9.966   3.480 -1.0504 -0.0221 -0.3646
  428MOL0     C57661   9.825  10.069   3.594  0.0284 -0.4489  0.2549
  428MOL0     N57662   9.793  10.035   3.731  0.5283 -0.0186  1.3134
  428MOL0     C57663   9.671   9.983   3.766  0.8517 -0.1118  0.4493
  428MOL0     C57664   9.675   9.968   3.898  1.0300 -0.9562 -0.0225
  428MOL0     C57665   9.551   9.944   3.988  0.0856 -0.0673  0.0167
  428MOL0     C57666   9.474  10.083   4.005  0.4645 -0.0260  0.0211
  428MOL0     C57667   9.339  10.074   4.077  0.6554 -0.2625  0.5533
  428MOL0     C57668   9.323  10.188   4.188  0.1008  0.2006 -0.7261
  428MOL0     O57669   9.204  10.186   4.264 -0.3302 -0.7816  0.2307
  428MOL0     C57670   9.240  10.151   4.388 -0.1670 -0.5209 -0.9709
  428MOL0     C57671   9.238  10.021   4.422 -0.3265  1.1386  0.3357
  428MOL0     C57672   9.282   9.974   4.543 -0.3460  0.0432 -0.3554
  428MOL0     C57673   9.324  10.059   4.642  0.0050  0.1401 -0.3734
  428MOL0     C57674   9.376   9.997   4.765  0.7042  0.8789 -0.1475
  428MOL0     O57675   9.309   9.888   4.810 -0.1995 -0.7520 -0.5240
  428MOL0     C57676   9.364   9.815   4.913 -0.4984 -0.3706 -0.3694
  428MOL0     C57677   9.499   9.790   4.931  0.7024 -0.3421  0.4389
  428MOL0     C57678   9.542   9.682   5.016 -0.2357  0.2096  0.0315
  428MOL0     C57679   9.449   9.600   5.076  0.2341 -0.1113  0.2342
  428MOL0     O57680   9.482   9.496   5.157 -0.2181  0.6662  0.5019
  428MOL0     C57681   9.616   9.470   5.202 -0.4614 -0.0382 -1.1118
  428MOL0     C57682   9.631   9.333   5.275 -0.1436 -0.2144 -0.7708
  428MOL0     C57683   9.532   9.339   5.390 -0.6709 -0.1017 -0.6554
  428MOL0     C57684   9.548   9.221   5.477  0.0836  1.7381 -0.9940
  428MOL0     C57685   9.427   9.203   5.572  0.1870 -0.4799 -0.5403
  428MOL0     C57686   9.435   9.304   5.695 -0.2852  0.1832 -0.0815
  428MOL0     C57687   9.308   9.266   5.779 -0.4603  0.5611  0.6945
  428MOL0     C57688   9.314   9.339   5.912 -0.6441 -0.2066 -1.1173
  428MOL0    Cl57689   9.421   9.240   6.015 -0.3490  0.0980  0.2481
  428MOL0     C57690   9.315   9.628   5.062  1.7557  0.6671  1.2529
  428MOL0     C57691   9.267   9.738   4.985  0.1842 -0.9705 -0.1008
  428MOL0     O57692   9.465  10.065   4.821  0.0264  0.1616  0.4995
  428MOL0     C57693   9.313  10.196   4.609 -0.1621 -1.5165 -0.4474
  428MOL0     C57694   9.281  10.246   4.484  0.3122 -0.5258 -0.2144
  428MOL0     N57695   9.798  10.025   3.935 -0.0744  0.4373  0.5035
  428MOL0     N57696   9.871  10.056   3.838  0.3611  0.9750  0.3520
  428MOL0     C57697   9.779   9.231   3.928  0.3308 -0.6811 -0.0528
  428MOL0     C57698   9.841   9.111   3.968 -0.1687 -0.3424  0.7419
  428MOL0     C57699   9.868   8.650   4.077 -0.6991 -0.1009 -0.1047
  428MOL0     C57700   9.959   8.564   4.010 -0.0522 -0.6103  0.3409
  428MOL0     C57701   9.988   8.442   4.067 -0.5615 -0.3988  0.2198
  428MOL0     C57702   9.937   8.400   4.187 -0.5315 -0.1630  1.2046
  428MOL0     O57703   9.953   8.275   4.233  0.2751 -0.3115 -0.6736
  428MOL0     C57704  10.092   8.246   4.262 -0.2589  0.2559 -0.4355
  428MOL0     C57705  10.097   8.119   4.345 -0.4708 -0.0192 -0.0901
  428MOL0     C57706  10.083   8.148   4.496  0.7017  0.4780 -0.4539
  428MOL0     C57707  10.082   8.016   4.581  0.3582 -1.1098 -0.5131
  428MOL0     C57708  10.227   7.990   4.618  0.3319  0.0116  1.0959
  428MOL0     C57709  10.336   7.948   4.656 -0.1490 -1.3045 -0.4696
  428MOL0     C57710   9.851   8.487   4.253 -0.6776 -0.9004  0.4524
  428MOL0     C57711   9.818   8.609   4.199 -0.1570 -0.0310 -0.2542
  428MOL0     C57712   9.725   8.693   4.280  0.3935  0.7919  0.5845
  428MOL0     H57713   9.578   8.965   4.123  0.2406  0.0955 -0.6483
  428MOL0     H57714   9.469   9.198   4.076 -0.1672  0.5303  1.2625
  428MOL0     H57715   9.613   9.583   3.880 -1.2140  0.5194  1.2134
  428MOL0     H57716   9.764   9.489   3.906  1.4599 -2.6380 -3.0929
  428MOL0     H57717   9.602   9.480   3.656 -0.2607 -1.1037  0.7268
  428MOL0     H57718   9.750   9.384   3.694  0.5449  0.1587  1.5382
  428MOL0     H57719   9.882   9.599   3.671  0.2983  1.5697 -3.8303
  428MOL0     H57720   9.758   9.689   3.733 -0.5223 -0.5087 -0.0514
  428MOL0     H57721   9.723   9.539   3.464  0.7288 -0.3679  0.9360
  428MOL0     H57722   9.651   9.697   3.518 -0.3365 -1.2600 -1.6954
  428MOL0     H57723   9.953   9.636   3.463  0.8538 -0.1067  0.6566
  428MOL0     H57724   9.846   9.695   3.329  0.0165 -0.5686  0.8134
  428MOL0     H57725   9.941   9.832   3.600  0.6401 -0.4203  0.2346
  428MOL0     H57726   9.987   9.886   3.433  0.1145  1.6606  0.3149
  428MOL0     H57727   9.709   9.915   3.479 -1.1632 -0.0043 -3.7370
  428MOL0     H57728   9.820  10.016   3.384 -0.8423 -0.9253 -0.8175
  428MOL0     H57729   9.932  10.091   3.589 -0.2184  1.4286  1.9937
  428MOL0     H57730   9.769  10.162   3.578 -0.5403 -0.9403 -0.7591
  428MOL0     H57731   9.584   9.959   3.706  0.5497  1.0377  0.4071
  428MOL0     H57732   9.488   9.864   3.950 -0.4327  0.0952  0.5155
  428MOL0     H57733   9.600   9.904   4.077  1.3740 -1.3811 -1.2302
  428MOL0     H57734   9.531  10.158   4.060 -1.6498  0.3167  1.8916
  428MOL0     H57735   9.456  10.131   3.908  0.3161  1.1478  0.6081
  428MOL0     H57736   9.337   9.968   4.105  2.6762 -0.6781 -0.7258
  428MOL0     H57737   9.258  10.089   4.005  1.4750 -0.2744 -0.3898
  428MOL0     H57738   9.314  10.281   4.131  0.9554  1.0874  0.5461
  428MOL0     H57739   9.413  10.183   4.250  0.5843 -1.9310 -1.4890
  428MOL0     H57740   9.204   9.944   4.353  2.1226  1.0365 -0.8596
  428MOL0     H57741   9.276   9.869   4.570 -0.3454  0.4417  1.2981
  428MOL0     H57742   9.568   9.840   4.864  1.9117 -1.6289  0.6729
  428MOL0     H57743   9.645   9.649   5.021 -0.4434 -0.6952 -1.1596
  428MOL0     H57744   9.675   9.459   5.110 -0.4935  0.9900 -1.2648
  428MOL0     H57745   9.647   9.559   5.258  0.3727 -0.1420 -1.3944
  428MOL0     H57746   9.618   9.249   5.207 -0.5248 -1.0683  0.3345
  428MOL0     H57747   9.734   9.328   5.310  0.5420  1.4270 -2.3449
  428MOL0     H57748   9.556   9.425   5.453  1.7294  0.2111 -1.8591
  428MOL0     H57749   9.430   9.345   5.352 -0.0769  2.7762 -2.0820
  428MOL0     H57750   9.642   9.207   5.531 -0.5184 -1.0750 -0.5298
  428MOL0     H57751   9.539   9.131   5.415 -0.9730 -0.4719  2.0791
  428MOL0     H57752   9.427   9.098   5.603 -1.7368 -0.6344 -0.9219
  428MOL0     H57753   9.334   9.232   5.522 -0.4041  1.1390  1.3585
  428MOL0     H57754   9.525   9.293   5.756  0.9253  0.4077 -1.7307
  428MOL0     H57755   9.435   9.409   5.666  1.1500  0.4504  0.7597
  428MOL0     H57756   9.286   9.161   5.796 -1.0794  0.4691 -0.5214
  428MOL0     H57757   9.217   9.296   5.727 -0.5795  3.0595  2.1866
  428MOL0     H57758   9.351   9.442   5.910  2.5692 -1.1768  0.9849
  428MOL0     H57759   9.214   9.354   5.955  0.2496  0.4582  0.8774
  428MOL0     H57760   9.247   9.562   5.116  1.3018  0.6887  0.7161
  428MOL0     H57761   9.161   9.757   4.983  0.5152  1.1058  0.6196
  428MOL0     H57762   9.349  10.273   4.677 -0.2557 -0.9685 -1.0124
  428MOL0     H57763   9.280  10.353   4.466  0.2481  0.1574  3.2275
  428MOL0     H57764   9.842   9.301   3.875  1.6944 -1.1950  0.8404
  428MOL0     H57765   9.945   9.099   3.941 -0.5616  1.1965 -1.7840
  428MOL0     H57766   9.988   8.579   3.907 -0.2447  0.3866  0.4285
  428MOL0     H57767  10.046   8.371   4.008  1.0476  0.8199  0.2711
  428MOL0     H57768  10.145   8.324   4.318  2.0061 -0.9079 -0.8090
  428MOL0     H57769  10.138   8.224   4.165 -1.3507 -2.8906 -0.3750
  428MOL0     H57770  10.191   8.071   4.319 -1.2033  0.1911 -3.5109
  428MOL0     H57771  10.015   8.052   4.317  0.8407 -2.2648  1.1658
  428MOL0     H57772   9.991   8.193   4.533  0.0407 -0.9636 -0.2800
  428MOL0     H57773  10.176   8.203   4.517 -0.1631  1.3605  1.2248
  428MOL0     H57774  10.027   8.010   4.675  0.0045  0.8973 -0.5502
  428MOL0     H57775  10.044   7.932   4.522 -3.0670  0.2196 -0.4428
  428MOL0     H57776  10.438   7.924   4.680 -0.2435 -0.3509  1.0549
  428MOL0     H57777   9.803   8.456   4.345  2.0770 -0.5369  2.1069
  428MOL0     H57778   9.626   8.701   4.234  0.8242 -0.7892 -0.7240
  428MOL0     H57779   9.719   8.655   4.383 -1.9446 -0.8624 -0.0933
  428MOL0     H57780   9.759   8.795   4.297 -1.5445  1.3416  1.4559
  429MOL0     O57781   5.075   8.056   7.354 -0.2553 -0.5832  0.0268
  429MOL0     C57782   5.120   7.952   7.309  0.5295 -0.1218 -0.1149
  429MOL0     O57783   5.138   7.930   7.174 -0.0505 -0.2731 -1.3447
  429MOL0     C57784   5.208   8.025   7.097  0.4428  0.2374 -0.8032
  429MOL0     C57785   5.278   8.137   7.146  0.2754  0.6037  0.5912
  429MOL0     C57786   5.328   8.238   7.054 -0.0159 -0.6049  0.3407
  429MOL0     C57787   5.331   8.214   6.918  0.7664 -0.0588  0.5673
  429MOL0     O57788   5.381   8.309   6.837 -0.1330  0.2312 -0.6229
  429MOL0     C57789   5.465   8.249   6.731  0.0540  0.6429 -0.0720
  429MOL0     C57790   5.533   8.373   6.656  0.2460  0.5302  0.2230
  429MOL0     C57791   5.644   8.326   6.562 -1.1204 -0.4966  0.5173
  429MOL0     C57792   5.773   8.291   6.650 -0.3521 -0.0268  0.3765
  429MOL0     C57793   5.874   8.191   6.589 -0.3885 -0.2093 -0.1633
  429MOL0     C57794   6.010   8.181   6.669 -0.2665 -0.8394  0.1031
  429MOL0     C57795   6.089   8.073   6.604 -0.2534  1.0870 -0.5887
  429MOL0     C57796   6.207   8.028   6.693 -0.3665  1.3050  0.6931
  429MOL0     N57797   6.278   7.914   6.635 -0.7853 -0.7737 -1.0769
  429MOL0     C57798   6.398   7.883   6.681 -0.5691  0.2705 -0.6216
  429MOL0     C57799   6.437   7.793   6.594  0.7992  0.0623  0.4742
  429MOL0     C57800   6.570   7.735   6.594  1.0120  0.6652 -0.6984
  429MOL0     C57801   6.680   7.837   6.566 -0.5043 -0.0790  0.1147
  429MOL0     C57802   6.818   7.782   6.554  0.0958  0.7751 -0.0059
  429MOL0     C57803   6.925   7.879   6.586 -0.7492  0.2864  0.9427
  429MOL0     O57804   6.950   7.866   6.728 -0.0826 -0.2012 -0.3255
  429MOL0     C57805   7.079   7.879   6.763  0.1575 -0.3185 -0.4804
  429MOL0     C57806   7.114   7.978   6.856 -0.0204  0.2551  0.9502
  429MOL0     C57807   7.240   8.003   6.896 -0.3741 -0.3795 -0.3375
  429MOL0     C57808   7.347   7.923   6.855  0.6893  0.4905  0.5842
  429MOL0     C57809   7.484   7.977   6.898  0.1953  0.3110 -0.4140
  429MOL0     O57810   7.482   8.086   6.978 -0.0090  0.1989  0.2021
  429MOL0     C57811   7.582   8.186   6.969 -0.8750  0.5291 -0.4263
  429MOL0     C57812   7.696   8.169   7.045  0.2355 -0.1471 -0.0242
  429MOL0     C57813   7.788   8.272   7.055 -0.5778 -0.4554  0.0845
  429MOL0     C57814   7.765   8.390   6.986 -0.0359  0.5646 -0.4719
  429MOL0     O57815   7.837   8.504   6.995 -0.4042 -0.7358  0.2716
  429MOL0     C57816   7.984   8.481   7.009 -0.5249 -0.4947  0.3877
  429MOL0     C57817   8.074   8.569   6.916  0.6452 -0.0111 -0.2847
  429MOL0     C57818   8.025   8.717   6.905 -0.0338  0.2621  0.4382
  429MOL0     C57819   8.136   8.814   6.861  0.0300 -1.7538  0.9345
  429MOL0     C57820   8.071   8.942   6.803 -0.3274  0.0313  0.0830
  429MOL0     C57821   8.162   9.056   6.806 -0.6528  0.0632  0.3773
  429MOL0     C57822   8.089   9.184   6.765  0.7419 -0.6069  0.1538
  429MOL0     C57823   8.093   9.202   6.616 -0.5625  0.6003 -0.4749
  429MOL0    Cl57824   8.022   9.361   6.579  0.4104 -0.2917  0.0522
  429MOL0     C57825   7.660   8.401   6.900  0.7137 -0.1477  0.6174
  429MOL0     C57826   7.558   8.304   6.901  0.1446 -0.0300 -0.1167
  429MOL0     O57827   7.583   7.927   6.857 -0.4630 -0.3443  0.7487
  429MOL0     C57828   7.317   7.811   6.765 -0.1842 -0.4279 -0.3671
  429MOL0     C57829   7.189   7.792   6.719 -0.3986 -0.3870  0.0571
  429MOL0     N57830   6.341   7.772   6.500  0.0796 -0.2431  0.4646
  429MOL0     N57831   6.240   7.848   6.519  0.3082 -0.2958 -0.2226
  429MOL0     C57832   5.261   8.102   6.869  0.4893 -0.7079 -0.2935
  429MOL0     C57833   5.199   8.009   6.956  0.3498 -1.2562  0.3436
  429MOL0     C57834   5.147   7.841   7.397 -0.1678  0.1800 -0.0001
  429MOL0     C57835   5.145   7.708   7.350  1.2201 -0.4385 -0.3468
  429MOL0     C57836   5.174   7.610   7.446 -0.2069 -0.1786  0.6366
  429MOL0     C57837   5.184   7.635   7.585  0.7938  0.4290 -0.0405
  429MOL0     O57838   5.199   7.533   7.675  0.1264  0.0963 -1.1635
  429MOL0     C57839   5.198   7.396   7.637  0.9077  0.2347 -0.3907
  429MOL0     C57840   5.166   7.306   7.759 -0.5807  0.1091 -0.2547
  429MOL0     C57841   5.035   7.341   7.825  0.6812  0.6672  0.1912
  429MOL0     C57842   4.990   7.241   7.938  0.1098  0.8245 -0.3084
  429MOL0     C57843   5.098   7.217   8.033  1.1301  0.5945 -0.8137
  429MOL0     C57844   5.191   7.192   8.107  0.3640 -0.6683 -0.3711
  429MOL0     C57845   5.193   7.764   7.620 -0.1904 -0.5062 -0.6532
  429MOL0     C57846   5.188   7.866   7.529 -0.8584 -0.1779  0.1889
  429MOL0     C57847   5.234   8.001   7.593  0.1855  0.0645 -0.7797
  429MOL0     H57848   5.290   8.151   7.253  2.7327  2.4117  0.1782
  429MOL0     H57849   5.381   8.322   7.096  0.8900 -0.0471 -1.7941
  429MOL0     H57850   5.544   8.183   6.767  0.1066 -0.0191 -1.3408
  429MOL0     H57851   5.408   8.188   6.660  4.0972 -2.1535 -1.2314
  429MOL0     H57852   5.577   8.436   6.734  2.3591 -1.5574  0.8146
  429MOL0     H57853   5.453   8.421   6.598 -2.2693 -1.6831  1.6606
  429MOL0     H57854   5.677   8.404   6.493  0.2991 -1.2212  0.3412
  429MOL0     H57855   5.614   8.235   6.510 -3.0063  0.1036  0.4736
  429MOL0     H57856   5.839   8.378   6.658  1.5846 -1.5260  1.6234
  429MOL0     H57857   5.740   8.258   6.749 -0.5621  0.2303  0.3921
  429MOL0     H57858   5.815   8.099   6.584 -0.9628 -0.0505  2.3648
  429MOL0     H57859   5.895   8.226   6.487 -0.5542  2.1552  0.5508
  429MOL0     H57860   6.075   8.268   6.682  1.2702 -2.1817  2.2272
  429MOL0     H57861   5.975   8.165   6.771  0.4685  1.9613  0.8855
  429MOL0     H57862   6.121   8.110   6.506 -0.3302  3.0487  0.0839
  429MOL0     H57863   6.014   7.994   6.594 -0.6843  1.2041  1.3348
  429MOL0     H57864   6.273   8.116   6.702 -0.4601  1.1858  3.5189
  429MOL0     H57865   6.167   8.007   6.793  0.9038  2.9066  1.5971
  429MOL0     H57866   6.474   7.906   6.755 -0.2204 -1.8324 -0.2661
  429MOL0     H57867   6.600   7.680   6.683 -0.5408 -0.4479 -0.8349
  429MOL0     H57868   6.564   7.660   6.515 -2.7974 -1.8149  1.6315
  429MOL0     H57869   6.661   7.899   6.478 -0.3818 -0.2084 -0.0038
  429MOL0     H57870   6.686   7.917   6.641 -2.2437  2.0884 -1.8804
  429MOL0     H57871   6.839   7.742   6.454  2.7895 -0.7290  1.0726
  429MOL0     H57872   6.829   7.694   6.618  2.4614  1.1503  0.1754
  429MOL0     H57873   6.900   7.981   6.556 -1.7555 -0.2652 -0.1826
  429MOL0     H57874   7.001   7.845   6.516 -0.8118  0.1334  0.9472
  429MOL0     H57875   7.030   8.039   6.888 -1.6340 -1.6128  0.3994
  429MOL0     H57876   7.255   8.078   6.973  3.0791 -2.0392  0.8363
  429MOL0     H57877   7.704   8.086   7.115 -1.1125 -4.0981 -4.1018
  429MOL0     H57878   7.868   8.273   7.129 -2.0139  1.3782  1.7257
  429MOL0     H57879   8.012   8.508   7.111  1.4763  0.5048 -0.3819
  429MOL0     H57880   8.012   8.378   6.986 -0.9475 -0.2036 -1.6436
  429MOL0     H57881   8.178   8.551   6.944  0.4724  0.7424  0.9090
  429MOL0     H57882   8.058   8.518   6.820 -0.0826  1.7629 -1.1548
  429MOL0     H57883   7.946   8.723   6.829  1.5704  0.9537 -1.2394
  429MOL0     H57884   7.991   8.747   7.005 -1.8010 -2.5979  0.8016
  429MOL0     H57885   8.209   8.771   6.793 -2.0574 -1.5344 -1.5853
  429MOL0     H57886   8.192   8.859   6.944  0.4674 -0.2571 -0.1271
  429MOL0     H57887   7.983   8.969   6.862  1.1250  2.3685  1.3224
  429MOL0     H57888   8.057   8.919   6.697  0.7648  1.0402 -0.2981
  429MOL0     H57889   8.192   9.086   6.906 -0.9638  4.6216 -0.6843
  429MOL0     H57890   8.252   9.031   6.747 -0.5630  0.0459  0.5210
  429MOL0     H57891   8.128   9.275   6.811  0.8666 -1.6322  2.2327
  429MOL0     H57892   7.984   9.187   6.797  0.6100 -0.1596 -0.3056
  429MOL0     H57893   8.192   9.183   6.573 -1.3674 -1.4763 -1.5576
  429MOL0     H57894   8.030   9.122   6.576  0.4574 -0.5348  0.1659
  429MOL0     H57895   7.628   8.495   6.858 -0.1485 -1.6621 -2.4038
  429MOL0     H57896   7.473   8.327   6.838 -0.5808 -0.8810  0.5357
  429MOL0     H57897   7.393   7.741   6.729  1.6517  1.1676  0.2375
  429MOL0     H57898   7.167   7.707   6.655  1.3145  0.0935 -1.2390
  429MOL0     H57899   5.261   8.088   6.762  0.8803  2.1305 -0.7466
  429MOL0     H57900   5.140   7.929   6.912 -0.6601 -0.7205  0.6818
  429MOL0     H57901   5.128   7.682   7.246  2.3288  4.4140 -2.0135
  429MOL0     H57902   5.172   7.513   7.397 -1.8560  1.6195 -3.3089
  429MOL0     H57903   5.295   7.376   7.590  0.8612 -0.1161 -0.3368
  429MOL0     H57904   5.124   7.386   7.557 -1.9936  1.8525  1.9386
  429MOL0     H57905   5.245   7.329   7.832 -0.9105  2.1402 -0.4993
  429MOL0     H57906   5.169   7.202   7.725  0.0168  0.8109 -2.5250
  429MOL0     H57907   4.954   7.339   7.753  0.3582 -0.0668  0.5705
  429MOL0     H57908   5.033   7.438   7.876 -2.1100  0.6732  0.2134
  429MOL0     H57909   4.903   7.286   7.988 -1.1167  0.3111 -1.9127
  429MOL0     H57910   4.966   7.143   7.896 -0.7961  1.0795 -0.4056
  429MOL0     H57911   5.273   7.149   8.161 -0.3344  0.8876  2.0980
  429MOL0     H57912   5.223   7.766   7.724 -2.8757  0.7671  0.1765
  429MOL0     H57913   5.269   8.072   7.517 -2.7148 -1.3606 -3.6826
  429MOL0     H57914   5.153   8.030   7.661  0.0060 -2.0473 -0.0405
  429MOL0     H57915   5.313   7.975   7.665 -1.8530 -2.5100  0.6961
  430MOL0     O57916   4.878   0.796   7.645  0.1079  0.3526  0.5443
  430MOL0     C57917   4.798   0.755   7.558  0.9040  0.0772  0.2898
  430MOL0     O57918   4.747   0.825   7.450 -0.0219 -0.0330 -0.2147
  430MOL0     C57919   4.758   0.963   7.444  0.3385  0.4740 -0.3181
  430MOL0     C57920   4.879   1.031   7.460  0.0719 -0.2033 -0.4102
  430MOL0     C57921   4.883   1.165   7.458 -0.1396  0.5734 -0.9164
  430MOL0     C57922   4.772   1.242   7.429  0.3735  0.4504  0.7492
  430MOL0     O57923   4.798   1.379   7.412 -0.4783  0.3454 -0.1579
  430MOL0     C57924   4.701   1.490   7.391 -0.6797  0.2906  0.3654
  430MOL0     C57925   4.776   1.631   7.377  1.4552  0.9466  0.3694
  430MOL0     C57926   4.850   1.665   7.505 -1.0531 -0.3068  0.0240
  430MOL0     C57927   4.963   1.764   7.466  0.7083 -0.3248 -0.1627
  430MOL0     C57928   5.061   1.770   7.578 -0.2778  0.3770 -0.5271
  430MOL0     C57929   5.012   1.861   7.691  0.2083 -0.4262 -0.1316
  430MOL0     C57930   4.987   2.012   7.657 -0.3700  1.2067 -0.3330
  430MOL0     C57931   5.004   2.086   7.797 -0.0278 -0.9403  0.6486
  430MOL0     N57932   5.140   2.103   7.834 -0.0158  0.0704  0.3808
  430MOL0     C57933   5.204   2.026   7.924  0.1336  0.4288 -0.1132
  430MOL0     C57934   5.334   2.072   7.918 -0.2911  0.3140  0.2256
  430MOL0     C57935   5.460   2.001   7.970  0.3713 -0.1176  0.6364
  430MOL0     C57936   5.482   1.870   7.881 -0.4761 -0.5933  0.5732
  430MOL0     C57937   5.619   1.823   7.908 -0.5738  1.0529 -1.1396
  430MOL0     C57938   5.657   1.700   7.821 -0.5842  0.4419 -0.9308
  430MOL0     O57939   5.551   1.608   7.857 -0.1154 -0.5550  0.2054
  430MOL0     C57940   5.544   1.491   7.782 -0.0542 -0.7971  0.5128
  430MOL0     C57941   5.656   1.407   7.745  0.5090 -0.5101 -0.6840
  430MOL0     C57942   5.639   1.293   7.674  0.3049  0.0851 -0.7024
  430MOL0     C57943   5.508   1.256   7.631 -0.2348 -0.5344 -0.1337
  430MOL0     C57944   5.486   1.127   7.554  1.4631 -0.3448 -0.5595
  430MOL0     O57945   5.349   1.098   7.567 -0.7727 -0.7107 -0.1845
  430MOL0     C57946   5.297   0.985   7.512 -0.2510 -0.0174 -0.3659
  430MOL0     C57947   5.310   0.949   7.376  0.3297  0.2034  0.1268
  430MOL0     C57948   5.254   0.830   7.340  0.0490  0.1247 -0.1818
  430MOL0     C57949   5.195   0.743   7.433  0.7932  0.8853  1.3446
  430MOL0     O57950   5.139   0.625   7.393  0.4896  1.0134 -0.0854
  430MOL0     C57951   5.213   0.549   7.301  0.1943  0.7163  0.0789
  430MOL0     C57952   5.183   0.403   7.305  0.5264 -0.6926  0.7752
  430MOL0     C57953   5.250   0.321   7.198  0.0526 -0.9597 -1.1043
  430MOL0     C57954   5.399   0.316   7.212  0.2667  0.0869 -0.6622
  430MOL0     C57955   5.455   0.238   7.089 -0.1836  0.3981 -0.4120
  430MOL0     C57956   5.414   0.290   6.950 -0.2755 -0.0495 -0.0269
  430MOL0     C57957   5.513   0.233   6.839 -0.2305  0.2502  0.9294
  430MOL0     C57958   5.461   0.249   6.698  1.0207  0.2765  0.4069
  430MOL0    Cl57959   5.429   0.421   6.673  0.1348  0.1224 -0.1143
  430MOL0     C57960   5.187   0.781   7.562  0.9679 -0.3577  1.0432
  430MOL0     C57961   5.230   0.904   7.598  0.2542 -0.3489  0.1412
  430MOL0     O57962   5.573   1.065   7.499 -0.0805  0.0244 -0.0778
  430MOL0     C57963   5.401   1.341   7.658  0.6336 -0.1141 -0.5780
  430MOL0     C57964   5.415   1.460   7.729 -0.6854  0.1968  0.7763
  430MOL0     N57965   5.343   2.176   7.822 -1.0557 -0.1410 -0.1802
  430MOL0     N57966   5.225   2.190   7.774  0.5717 -0.2686  0.7530
  430MOL0     C57967   4.649   1.183   7.415  0.0536  0.3648 -0.5852
  430MOL0     C57968   4.643   1.036   7.418  0.1223 -0.7855 -0.1441
  430MOL0     C57969   4.777   0.605   7.564  0.3462  0.5055  0.8584
  430MOL0     C57970   4.844   0.521   7.481 -0.6243 -0.3551  0.7901
  430MOL0     C57971   4.819   0.384   7.480 -0.4810  0.1305  0.2654
  430MOL0     C57972   4.721   0.329   7.559  0.8054 -0.1298 -0.2856
  430MOL0     O57973   4.703   0.187   7.544 -0.0502 -0.1763  0.1678
  430MOL0     C57974   4.598   0.124   7.617 -0.2034  0.2032 -0.1904
  430MOL0     C57975   4.564  -0.014   7.573 -0.7996  0.7985  0.0498
  430MOL0     C57976   4.661  -0.114   7.628 -0.6132 -0.3257  0.6446
  430MOL0     C57977   4.631  -0.261   7.602 -1.7887  0.3445 -0.3198
  430MOL0     C57978   4.511  -0.317   7.671  0.1587 -0.2427  0.2989
  430MOL0     C57979   4.409  -0.373   7.706 -0.0266 -0.1430 -1.0601
  430MOL0     C57980   4.645   0.417   7.641 -0.6008  0.3004  0.6354
  430MOL0     C57981   4.684   0.555   7.648  0.1968  0.1598 -0.8086
  430MOL0     C57982   4.618   0.640   7.748 -0.2644 -0.8838  0.9825
  430MOL0     H57983   4.972   0.977   7.472  1.5243  1.8210 -1.9184
  430MOL0     H57984   4.982   1.207   7.471 -0.1149  0.5143 -0.9144
  430MOL0     H57985   4.637   1.473   7.304 -2.0895 -3.1770  1.9092
  430MOL0     H57986   4.642   1.487   7.483  1.1529  0.2150  1.5884
  430MOL0     H57987   4.700   1.704   7.349  1.3790 -0.1158 -2.5444
  430MOL0     H57988   4.850   1.618   7.298  0.0429 -0.1616 -0.8241
  430MOL0     H57989   4.898   1.585   7.561  3.1080  1.7271 -0.2450
  430MOL0     H57990   4.780   1.720   7.569 -3.2108 -1.2926 -1.3887
  430MOL0     H57991   5.019   1.729   7.379  2.7674 -2.9853  2.0394
  430MOL0     H57992   4.926   1.863   7.441  0.9441 -0.2928 -0.3983
  430MOL0     H57993   5.078   1.668   7.613 -1.1430 -0.6809 -3.0113
  430MOL0     H57994   5.159   1.796   7.537  2.1803 -2.3064  3.0044
  430MOL0     H57995   4.925   1.814   7.737 -0.0651  0.9401  0.8001
  430MOL0     H57996   5.094   1.853   7.763  1.1111  2.4169 -0.6983
  430MOL0     H57997   4.885   2.042   7.630  0.1733  3.7964  0.2442
  430MOL0     H57998   5.064   2.053   7.591  1.4057  0.2208  1.0571
  430MOL0     H57999   4.967   2.187   7.774  2.8657  0.0257 -0.2539
  430MOL0     H58000   4.943   2.051   7.881 -0.9392  0.7733  0.7463
  430MOL0     H58001   5.160   1.935   7.964 -0.4328  0.4620 -0.6366
  430MOL0     H58002   5.547   2.068   7.968  0.3185 -0.0418  0.8609
  430MOL0     H58003   5.440   1.962   8.070  0.1659  0.1303  0.6910
  430MOL0     H58004   5.403   1.795   7.893  0.7191 -2.2150 -1.0697
  430MOL0     H58005   5.476   1.902   7.777 -0.1717  1.2632  1.0921
  430MOL0     H58006   5.633   1.797   8.013  0.2831 -1.7557 -1.8544
  430MOL0     H58007   5.690   1.905   7.895 -0.3092  1.5700  2.5628
  430MOL0     H58008   5.761   1.671   7.842 -1.2574 -0.6933  0.9971
  430MOL0     H58009   5.652   1.738   7.718  1.2004 -1.0980 -1.6406
  430MOL0     H58010   5.754   1.441   7.775 -0.4629  2.0981 -0.2364
  430MOL0     H58011   5.729   1.236   7.653  0.6788  0.5194 -0.3169
  430MOL0     H58012   5.375   1.013   7.316  0.8264 -1.9240 -1.7247
  430MOL0     H58013   5.266   0.812   7.234  0.3059  0.9833 -0.3051
  430MOL0     H58014   5.194   0.583   7.198  1.7280  0.9752 -0.1404
  430MOL0     H58015   5.319   0.560   7.324  0.6890  2.2610 -2.4661
  430MOL0     H58016   5.212   0.358   7.400  0.8302 -2.2114 -0.0131
  430MOL0     H58017   5.076   0.388   7.287  0.3597  2.3474 -1.7456
  430MOL0     H58018   5.211   0.219   7.192  0.5446 -1.0671 -2.7877
  430MOL0     H58019   5.229   0.374   7.105  1.0982  2.8774  0.6545
  430MOL0     H58020   5.426   0.272   7.309  0.3271  2.1762  0.3188
  430MOL0     H58021   5.447   0.414   7.216 -2.8190  1.7204 -0.1028
  430MOL0     H58022   5.426   0.133   7.087 -2.2787  0.9090 -3.1206
  430MOL0     H58023   5.564   0.244   7.095 -0.1688  2.4839 -1.8249
  430MOL0     H58024   5.313   0.250   6.936 -1.0955  1.8008  0.3349
  430MOL0     H58025   5.415   0.399   6.956  0.3366 -0.1409  2.0825
  430MOL0     H58026   5.529   0.126   6.856 -0.7050 -0.1441 -0.8778
  430MOL0     H58027   5.609   0.281   6.856  0.5606 -1.6707  2.2706
  430MOL0     H58028   5.530   0.201   6.628 -1.3078 -4.3475  0.9644
  430MOL0     H58029   5.370   0.190   6.687  0.8157  0.7835 -0.7438
  430MOL0     H58030   5.141   0.705   7.625  0.1337 -0.6884  0.0507
  430MOL0     H58031   5.221   0.939   7.701 -0.7286  1.0772 -0.3923
  430MOL0     H58032   5.301   1.315   7.624 -0.4743  1.5507  1.2168
  430MOL0     H58033   5.322   1.513   7.746  0.9396  2.3118  4.1215
  430MOL0     H58034   4.567   1.254   7.410 -0.8398 -0.3542  2.2256
  430MOL0     H58035   4.552   0.978   7.401 -0.0192 -1.4232  2.3392
  430MOL0     H58036   4.922   0.562   7.418 -0.3669 -1.8972  0.0751
  430MOL0     H58037   4.875   0.321   7.410 -0.7106 -1.4047  1.3954
  430MOL0     H58038   4.505   0.177   7.596 -1.1570 -0.4611  1.9965
  430MOL0     H58039   4.610   0.129   7.726 -0.8495 -2.6049  0.1063
  430MOL0     H58040   4.564  -0.018   7.464 -1.1122 -2.6008  0.0617
  430MOL0     H58041   4.465  -0.036   7.615  0.4123  2.2086  4.2021
  430MOL0     H58042   4.675  -0.109   7.737  0.1326  0.7670  0.5162
  430MOL0     H58043   4.756  -0.076   7.589 -2.7954  3.9590 -1.2500
  430MOL0     H58044   4.617  -0.277   7.494 -0.7344 -2.2580 -0.1529
  430MOL0     H58045   4.722  -0.315   7.628 -0.1121  3.0418 -0.2155
  430MOL0     H58046   4.314  -0.421   7.725  0.7918 -1.2219  0.5754
  430MOL0     H58047   4.578   0.386   7.720  1.0045  1.5391  2.5975
  430MOL0     H58048   4.569   0.724   7.698  1.1842  1.1125  2.7183
  430MOL0     H58049   4.553   0.583   7.815 -0.9285 -1.2733  0.0126
  430MOL0     H58050   4.699   0.678   7.812  0.8327 -0.0741 -0.8093
  431MOL0     O58051   0.105   9.048  10.414 -0.1861 -0.3562  0.0454
  431MOL0     C58052   0.017   8.963  10.401 -0.1041 -0.3232 -0.1291
  431MOL0     O58053   0.039   8.832  10.397  0.0683  0.1123 -0.6489
  431MOL0     C58054   0.168   8.797  10.429  0.5928 -0.3455 -0.5791
  431MOL0     C58055   0.254   8.758  10.337 -0.7139 -0.0566  0.3074
  431MOL0     C58056   0.377   8.693  10.365 -1.0904  0.3984 -0.0420
  431MOL0     C58057   0.407   8.662  10.497  0.3339 -0.6268 -0.0752
  431MOL0     O58058   0.523   8.597  10.524  0.2235 -0.5340 -0.1462
  431MOL0     C58059   0.524   8.500  10.631 -0.2990 -0.5172 -0.4571
  431MOL0     C58060   0.661   8.419  10.640 -0.4749  0.5231 -0.0198
  431MOL0     C58061   0.700   8.339  10.509  0.3382  0.2951  0.2001
  431MOL0     C58062   0.777   8.219  10.552 -0.6610  0.3893 -0.6300
  431MOL0     C58063   0.845   8.141  10.447 -0.3282  0.0046 -0.0756
  431MOL0     C58064   0.902   8.009  10.478  0.6751  0.0076 -0.3267
  431MOL0     C58065   0.995   8.004  10.602 -0.7195  0.2927  0.1048
  431MOL0     C58066   1.128   8.091  10.586  0.6674  0.1427 -0.3525
  431MOL0     N58067   1.192   8.107  10.721 -0.7210  0.7231 -0.2678
  431MOL0     C58068   1.139   8.138  10.844 -0.0756 -0.0142 -0.6020
  431MOL0     C58069   1.227   8.094  10.943 -0.0342 -0.5060  0.2603
  431MOL0     C58070   1.213   8.107  11.091 -0.5143  0.3568 -0.7721
  431MOL0     C58071   1.168   7.988  11.173 -0.4544  0.6626 -0.0593
  431MOL0     C58072   1.020   7.950  11.139  0.3279 -0.3346  0.1639
  431MOL0     C58073   0.988   7.816  11.200  0.6118  0.7268  0.0497
  431MOL0     O58074   0.991   7.816  11.341  0.1854  0.1334 -0.0224
  431MOL0     C58075   0.940   7.707  11.407 -0.1861 -0.1179 -0.2246
  431MOL0     C58076   0.846   7.615  11.361  0.5662  1.1310  0.0793
  431MOL0     C58077   0.800   7.513  11.443 -0.3733 -0.2400 -0.1077
  431MOL0     C58078   0.842   7.501  11.571 -0.4684 -0.5820 -0.2625
  431MOL0     C58079   0.792   7.393  11.658 -0.2786 -0.0452 -0.0816
  431MOL0     O58080   0.848   7.389  11.785 -0.0128  0.3642 -0.2479
  431MOL0     C58081   0.820   7.286  11.857  1.0569 -0.5303  1.1572
  431MOL0     C58082   0.690   7.262  11.910  1.1966  1.0039  0.7238
  431MOL0     C58083   0.662   7.151  11.993 -0.4415  0.1601 -1.1588
  431MOL0     C58084   0.762   7.045  12.001  0.7303 -0.0573 -1.0789
  431MOL0     O58085   0.745   6.930  12.069  0.0225  0.5399  0.6185
  431MOL0     C58086   0.621   6.871  12.057  0.0392 -0.2759 -0.3192
  431MOL0     C58087   0.649   6.725  12.029  0.4711  0.4829  0.3845
  431MOL0     C58088   0.510   6.663  12.006 -0.3512 -0.5486 -0.5513
  431MOL0     C58089   0.517   6.510  11.995  1.2000  0.9438  0.6317
  431MOL0     C58090   0.455   6.450  11.866 -1.0278  0.2068  0.4132
  431MOL0     C58091   0.303   6.467  11.862  0.4818  0.4426 -0.6652
  431MOL0     C58092   0.247   6.389  11.754  0.2452 -1.2778 -0.2387
  431MOL0     C58093   0.096   6.371  11.774 -0.0881 -0.1710 -0.5045
  431MOL0    Cl58094   0.017   6.255  11.653 -0.2469 -0.4231 -0.3326
  431MOL0     C58095   0.885   7.059  11.940  0.0206 -1.1224 -0.8935
  431MOL0     C58096   0.912   7.181  11.867  0.7621 -0.5104 -0.5836
  431MOL0     O58097   0.713   7.310  11.611 -0.8686 -0.9695  0.4302
  431MOL0     C58098   0.933   7.592  11.623 -0.0645 -0.3228  0.8103
  431MOL0     C58099   0.979   7.696  11.547 -0.5777  0.4387 -0.0708
  431MOL0     N58100   1.336   8.046  10.869 -0.2984 -0.1395 -0.3353
  431MOL0     N58101   1.316   8.054  10.742  0.6840 -0.2913  0.1956
  431MOL0     C58102   0.323   8.704  10.602 -0.8584 -0.0411  0.0562
  431MOL0     C58103   0.206   8.770  10.563  0.0801  0.3958 -0.7906
  431MOL0     C58104  -0.117   9.016  10.404  0.3685 -0.5783 -0.1029
  431MOL0     C58105  -0.212   8.937  10.466  0.2961 -0.5389  0.3035
  431MOL0     C58106  -0.350   8.978  10.482 -0.5058  0.1724 -0.4275
  431MOL0     C58107  -0.385   9.108  10.453 -0.2326  0.5924  0.1937
  431MOL0     O58108  -0.513   9.139  10.480  0.7117  0.7139 -0.3667
  431MOL0     C58109  -0.558   9.275  10.466 -1.3343  0.7646 -0.1332
  431MOL0     C58110  -0.596   9.312  10.317  0.6880  0.7630  0.7788
  431MOL0     C58111  -0.669   9.191  10.245 -0.5516  1.4129 -0.0853
  431MOL0     C58112  -0.801   9.152  10.300  0.2574  0.4866 -0.0826
  431MOL0     C58113  -0.866   9.033  10.241 -0.6941  0.5853 -0.0082
  431MOL0     C58114  -0.922   8.943  10.185  0.8626 -1.1289 -0.0700
  431MOL0     C58115  -0.287   9.188  10.378  0.0728 -0.2839  0.4575
  431MOL0     C58116  -0.158   9.139  10.349  0.3916  0.3122 -0.7731
  431MOL0     C58117  -0.064   9.228  10.266  0.1420  0.1940  0.6478
  431MOL0     H58118   0.218   8.789  10.240  2.5044 -0.1134 -1.0147
  431MOL0     H58119   0.447   8.680  10.284 -1.5768 -0.9538 -0.2770
  431MOL0     H58120   0.527   8.555  10.726  2.5785 -0.5158 -0.4870
  431MOL0     H58121   0.439   8.431  10.619  0.2288 -0.7865 -3.0773
  431MOL0     H58122   0.663   8.347  10.722  4.1232  0.2957 -0.0465
  431MOL0     H58123   0.737   8.491  10.674 -2.6681  1.6856  2.8621
  431MOL0     H58124   0.760   8.397  10.438  3.9398 -1.4101  1.6517
  431MOL0     H58125   0.606   8.323  10.455 -0.5566  0.0806  1.7710
  431MOL0     H58126   0.859   8.244  10.620 -1.7632 -0.5787  1.1367
  431MOL0     H58127   0.702   8.160  10.604 -0.5202 -0.4425 -1.3532
  431MOL0     H58128   0.765   8.123  10.374 -0.5515 -0.5644  0.3035
  431MOL0     H58129   0.935   8.194  10.414  2.1141 -2.1401  2.5683
  431MOL0     H58130   0.823   7.935  10.498  2.4599 -2.0508 -0.5858
  431MOL0     H58131   0.954   7.965  10.393  1.7039  0.6314 -0.0351
  431MOL0     H58132   1.030   7.902  10.620  0.8789  0.8325  0.2278
  431MOL0     H58133   0.932   8.022  10.690 -2.0517 -4.0229  0.2835
  431MOL0     H58134   1.192   8.039  10.514  0.5616  0.7372 -0.8755
  431MOL0     H58135   1.115   8.192  10.548  2.0144  0.9352  1.1764
  431MOL0     H58136   1.043   8.176  10.878  0.2607 -1.6813  2.5088
  431MOL0     H58137   1.309   8.142  11.129  0.0590 -2.2203  0.3988
  431MOL0     H58138   1.143   8.188  11.114 -0.0811 -0.0895  2.5687
  431MOL0     H58139   1.231   7.900  11.157 -2.0850 -0.6629  0.4647
  431MOL0     H58140   1.182   8.010  11.279  3.1851 -0.3221 -0.2242
  431MOL0     H58141   0.998   7.945  11.032 -0.5643  1.0320  0.2530
  431MOL0     H58142   0.956   8.029  11.181 -1.2215 -1.9007  0.8612
  431MOL0     H58143   1.059   7.742  11.162 -1.0194  1.1646 -4.3549
  431MOL0     H58144   0.890   7.807  11.154  1.2401  2.2335 -1.7135
  431MOL0     H58145   0.802   7.624  11.262 -0.0307  1.8909  0.4047
  431MOL0     H58146   0.717   7.450  11.415 -0.2931 -1.3108  1.9048
  431MOL0     H58147   0.614   7.336  11.891  1.0994  0.8485  0.4931
  431MOL0     H58148   0.579   7.140  12.062  0.1708  1.6956 -0.1110
  431MOL0     H58149   0.561   6.879  12.148  0.8522  1.5941  0.0774
  431MOL0     H58150   0.563   6.913  11.974 -1.5198 -0.1513  0.8040
  431MOL0     H58151   0.697   6.736  11.931  0.1075  1.2310  0.2778
  431MOL0     H58152   0.701   6.675  12.111  2.9924 -0.2292 -1.5125
  431MOL0     H58153   0.440   6.689  12.086  0.3747  4.1951 -1.1675
  431MOL0     H58154   0.455   6.710  11.924  1.6278  1.1462 -1.0136
  431MOL0     H58155   0.476   6.464  12.085 -1.5636  0.2801 -0.8648
  431MOL0     H58156   0.623   6.481  11.992  1.2069  1.0598 -0.8908
  431MOL0     H58157   0.484   6.345  11.873 -1.8721 -0.0124  0.6892
  431MOL0     H58158   0.513   6.485  11.780 -0.9411 -0.3405  0.2431
  431MOL0     H58159   0.263   6.451  11.963 -0.5088  0.9104 -0.9613
  431MOL0     H58160   0.274   6.567  11.828 -1.4088  0.5438  1.0164
  431MOL0     H58161   0.290   6.288  11.750  0.1305 -1.3254 -0.2603
  431MOL0     H58162   0.248   6.446  11.660  1.4007  1.2971  1.2256
  431MOL0     H58163   0.076   6.332  11.874  0.9400 -1.3767 -0.7382
  431MOL0     H58164   0.046   6.468  11.767 -0.7343 -0.4798 -0.2644
  431MOL0     H58165   0.959   6.981  11.954 -1.3867 -2.8168 -2.3508
  431MOL0     H58166   1.005   7.216  11.823  0.8573  0.2917  0.2273
  431MOL0     H58167   0.978   7.574  11.719 -1.3760 -2.1842  1.1340
  431MOL0     H58168   1.056   7.758  11.593  1.4326 -0.5588 -1.8969
  431MOL0     H58169   0.355   8.688  10.705  3.2590  2.1020 -0.6431
  431MOL0     H58170   0.132   8.805  10.634 -0.2955 -2.9812  0.6746
  431MOL0     H58171  -0.184   8.838  10.502 -0.0297 -0.1544  1.6507
  431MOL0     H58172  -0.422   8.902  10.514 -0.1710 -0.4122 -1.0348
  431MOL0     H58173  -0.494   9.359  10.495 -2.1206  1.7027 -1.0221
  431MOL0     H58174  -0.646   9.291  10.529 -1.4418  2.1500 -0.6012
  431MOL0     H58175  -0.510   9.329  10.251  1.7518 -3.0650  0.9178
  431MOL0     H58176  -0.655   9.403  10.304  0.6652  0.6188 -0.2057
  431MOL0     H58177  -0.596   9.110  10.238 -1.7170  0.3611 -0.3989
  431MOL0     H58178  -0.674   9.217  10.139  0.9133 -2.4991 -1.2732
  431MOL0     H58179  -0.789   9.139  10.408  1.3514  0.4147 -0.2006
  431MOL0     H58180  -0.876   9.229  10.283 -3.5960 -3.0595 -0.8079
  431MOL0     H58181  -0.984   8.876  10.129 -1.9746 -0.2396  1.7706
  431MOL0     H58182  -0.308   9.287  10.337  3.9203 -0.5563 -2.9271
  431MOL0     H58183   0.039   9.195  10.252 -0.5840 -0.9023 -3.4142
  431MOL0     H58184  -0.110   9.214  10.167 -2.1505 -2.8717  1.9840
  431MOL0     H58185  -0.065   9.334  10.296 -0.5366  0.0808  1.0484
  432MOL0     O58186   8.644   0.444   5.063 -0.4115 -0.4891 -0.5888
  432MOL0     C58187   8.677   0.390   4.964  0.1503 -0.3588 -0.6238
  432MOL0     O58188   8.802   0.369   4.932 -0.1619 -0.6331  0.0034
  432MOL0     C58189   8.895   0.416   5.022  0.5368  1.6196  1.0133
  432MOL0     C58190   8.934   0.544   5.037 -1.1382 -0.3353  0.2028
  432MOL0     C58191   9.041   0.566   5.127 -0.1780  1.0257  0.8442
  432MOL0     C58192   9.087   0.476   5.217 -0.3533  0.7591 -0.7679
  432MOL0     O58193   9.158   0.515   5.331 -0.0978  0.4855 -0.5023
  432MOL0     C58194   9.098   0.457   5.450  0.5199 -0.7010 -0.3839
  432MOL0     C58195   9.109   0.553   5.571  0.8084  0.7883  0.4107
  432MOL0     C58196   9.014   0.494   5.677 -1.2715 -0.0188 -0.2050
  432MOL0     C58197   9.074   0.373   5.754  0.0301  0.1531 -0.5141
  432MOL0     C58198   9.202   0.404   5.833 -0.2022 -0.2733 -0.2871
  432MOL0     C58199   9.238   0.285   5.922 -0.0141  1.5391  0.2294
  432MOL0     C58200   9.367   0.315   5.998  0.4739 -0.0024  0.5047
  432MOL0     C58201   9.408   0.196   6.082  0.8308  0.6633 -0.6332
  432MOL0     N58202   9.546   0.210   6.125 -0.4568  0.5789 -0.5771
  432MOL0     C58203   9.596   0.315   6.202  1.0533 -0.5653 -0.4343
  432MOL0     C58204   9.732   0.298   6.201  0.2758 -0.1805 -0.1651
  432MOL0     C58205   9.840   0.395   6.243 -0.8046 -0.0513  0.1533
  432MOL0     C58206   9.822   0.455   6.378  0.0245  0.5938  0.1541
  432MOL0     C58207   9.914   0.566   6.406 -0.1891  0.5371  0.7229
  432MOL0     C58208  10.049   0.535   6.450  0.0153  0.3403  0.0509
  432MOL0     O58209  10.100   0.665   6.482  0.4256 -0.2125  0.0003
  432MOL0     C58210  10.198   0.680   6.571 -0.0336 -0.3530 -0.4192
  432MOL0     C58211  10.299   0.584   6.593 -0.5277 -0.4793 -0.1945
  432MOL0     C58212  10.397   0.610   6.697  0.4970  0.2411 -0.2681
  432MOL0     C58213  10.407   0.734   6.758 -0.2560 -0.0126 -0.2411
  432MOL0     C58214  10.524   0.752   6.845  1.0775 -0.0789 -0.6560
  432MOL0     O58215  10.502   0.807   6.971 -0.7195  0.0927  1.0626
  432MOL0     C58216  10.607   0.852   7.048 -0.3398  1.6926 -0.4067
  432MOL0     C58217  10.569   0.887   7.176  0.3301  0.1121  0.5702
  432MOL0     C58218  10.659   0.953   7.262  0.3015 -0.0263 -0.1149
  432MOL0     C58219  10.794   0.994   7.231  0.5529 -0.0407  1.2126
  432MOL0     O58220  10.883   1.048   7.311  0.3454 -0.3286  0.4889
  432MOL0     C58221  10.859   1.066   7.450  1.0300  0.1669 -0.8726
  432MOL0     C58222  10.983   1.124   7.507 -0.9494 -0.3568 -0.5317
  432MOL0     C58223  10.959   1.236   7.604 -0.0371  0.3707  0.8279
  432MOL0     C58224  11.091   1.284   7.666  0.0735  0.1785 -0.3483
  432MOL0     C58225  11.068   1.382   7.775  0.0937 -0.1339  0.2547
  432MOL0     C58226  11.005   1.310   7.904  0.4281  0.0089 -0.2440
  432MOL0     C58227  11.030   1.412   8.018 -0.5059  0.0210  0.2616
  432MOL0     C58228  10.984   1.354   8.152  0.1171  0.2093  0.6016
  432MOL0    Cl58229  10.965   1.481   8.275 -0.2839  0.6169  0.2199
  432MOL0     C58230  10.825   0.960   7.099  0.2330 -0.3434  0.2566
  432MOL0     C58231  10.742   0.887   7.010 -0.2857 -0.5655 -0.4219
  432MOL0     O58232  10.624   0.702   6.800  0.2492  0.0044  1.2653
  432MOL0     C58233  10.310   0.831   6.731 -0.3160  0.6570 -0.0332
  432MOL0     C58234  10.211   0.802   6.635 -0.2974  0.2410  0.3197
  432MOL0     N58235   9.762   0.180   6.139 -0.8510 -0.4485 -0.5626
  432MOL0     N58236   9.659   0.128   6.092  0.6483  0.3284 -0.6904
  432MOL0     C58237   9.042   0.345   5.201  0.5568  0.3258 -0.1823
  432MOL0     C58238   8.941   0.315   5.108  0.4810 -0.7041  0.4323
  432MOL0     C58239   8.582   0.299   4.881 -0.3081 -0.0591  0.6223
  432MOL0     C58240   8.638   0.196   4.805 -1.0455  1.2675  0.4844
  432MOL0     C58241   8.556   0.118   4.716 -0.9442 -0.3559 -0.0706
  432MOL0     C58242   8.422   0.160   4.704  0.5715  0.5822  0.3363
  432MOL0     O58243   8.352   0.079   4.620 -0.1743 -0.0715 -0.0494
  432MOL0     C58244   8.208   0.064   4.630  0.1667 -0.1656  0.1760
  432MOL0     C58245   8.180  -0.002   4.494 -0.2571 -0.5530  0.1659
  432MOL0     C58246   8.024  -0.053   4.479  0.7731 -0.2052  0.1638
  432MOL0     C58247   7.931   0.063   4.437 -0.1601 -0.2442  0.4264
  432MOL0     C58248   7.795   0.003   4.419 -0.7729  0.0174 -0.6995
  432MOL0     C58249   7.687  -0.052   4.402  0.5525  0.2694  0.5325
  432MOL0     C58250   8.362   0.261   4.778  0.3585  0.4089  0.2112
  432MOL0     C58251   8.442   0.324   4.871  0.8472  0.2652 -1.9523
  432MOL0     C58252   8.380   0.444   4.944  0.3651  1.0022 -0.3126
  432MOL0     H58253   8.895   0.611   4.961  2.1631  0.9155 -0.5819
  432MOL0     H58254   9.096   0.660   5.134  2.4567 -0.4826  1.8636
  432MOL0     H58255   8.992   0.445   5.428  0.4015  0.8688 -0.8314
  432MOL0     H58256   9.125   0.355   5.479 -2.0799 -1.3669 -0.0565
  432MOL0     H58257   9.076   0.645   5.522  3.3401  0.1779 -2.7875
  432MOL0     H58258   9.212   0.561   5.607  2.1539 -2.6553 -2.0621
  432MOL0     H58259   8.917   0.473   5.631  0.0372 -3.4653 -1.7237
  432MOL0     H58260   9.004   0.573   5.752 -1.6996 -0.8026  0.5855
  432MOL0     H58261   8.998   0.339   5.824  0.7109  1.1526  0.7515
  432MOL0     H58262   9.100   0.291   5.686  0.6847  0.0215 -0.1178
  432MOL0     H58263   9.280   0.435   5.763  0.9972 -0.5878  0.8851
  432MOL0     H58264   9.188   0.494   5.894 -1.4759 -0.1934 -0.6578
  432MOL0     H58265   9.157   0.264   5.992  1.6380 -0.5746  1.6306
  432MOL0     H58266   9.257   0.198   5.858 -3.5329  1.3746 -0.8141
  432MOL0     H58267   9.356   0.409   6.052 -0.2038 -0.3264  0.9328
  432MOL0     H58268   9.439   0.343   5.920  0.8855 -2.1463  0.0612
  432MOL0     H58269   9.338   0.190   6.165  0.0642  2.4893 -1.1041
  432MOL0     H58270   9.403   0.104   6.022 -0.5486  1.8568 -2.4326
  432MOL0     H58271   9.541   0.401   6.237 -1.2028 -1.2061 -2.1764
  432MOL0     H58272   9.932   0.335   6.241 -0.0721  1.0396  0.1331
  432MOL0     H58273   9.855   0.468   6.162  2.0627 -0.8886 -0.1770
  432MOL0     H58274   9.719   0.489   6.360 -0.0371 -0.0036 -0.7052
  432MOL0     H58275   9.834   0.376   6.453  1.6467  0.4943 -0.1829
  432MOL0     H58276   9.867   0.608   6.496  1.2522  0.0748  1.7392
  432MOL0     H58277   9.906   0.630   6.319  1.1163 -0.1979  0.0309
  432MOL0     H58278  10.105   0.487   6.369  2.2970  0.6999  1.3386
  432MOL0     H58279  10.055   0.469   6.537 -2.6753 -1.7189 -1.1706
  432MOL0     H58280  10.306   0.498   6.528 -3.2635 -1.7565  1.0251
  432MOL0     H58281  10.472   0.536   6.725  0.7141  0.7216  0.4342
  432MOL0     H58282  10.467   0.854   7.195 -1.9077  2.7828 -4.7513
  432MOL0     H58283  10.613   0.979   7.358 -0.1857 -0.0862 -0.3275
  432MOL0     H58284  10.774   1.134   7.465  1.9491  1.1565  0.0951
  432MOL0     H58285  10.831   0.973   7.500 -1.3672 -0.0847 -2.5258
  432MOL0     H58286  11.039   1.049   7.565 -2.4219 -1.5231 -0.5544
  432MOL0     H58287  11.033   1.152   7.415 -1.5036 -3.2166 -1.8179
  432MOL0     H58288  10.911   1.319   7.553  0.8085 -1.4915 -3.4242
  432MOL0     H58289  10.893   1.199   7.683 -0.3750  0.2246  0.4755
  432MOL0     H58290  11.145   1.320   7.578 -2.4996  2.5897 -1.0870
  432MOL0     H58291  11.153   1.204   7.708 -0.5895 -0.7890 -1.1591
  432MOL0     H58292  11.004   1.458   7.729 -0.8874 -0.5645  0.8690
  432MOL0     H58293  11.159   1.435   7.800  0.4802 -0.3261 -0.6966
  432MOL0     H58294  10.898   1.290   7.898  0.3584  0.3871 -0.3154
  432MOL0     H58295  11.064   1.219   7.917  2.5245  1.2410 -0.5891
  432MOL0     H58296  10.977   1.505   7.995 -1.8317 -0.6034  0.6732
  432MOL0     H58297  11.137   1.435   8.020  0.0593 -1.7883 -2.8638
  432MOL0     H58298  10.889   1.303   8.135  1.0875 -0.5530 -3.9493
  432MOL0     H58299  11.057   1.277   8.180 -1.2090 -1.4413 -0.3156
  432MOL0     H58300  10.922   0.992   7.064  0.6822 -2.2658 -0.3786
  432MOL0     H58301  10.781   0.860   6.912  2.8140 -0.3606  0.6544
  432MOL0     H58302  10.309   0.924   6.787  1.5342 -0.4773  2.0609
  432MOL0     H58303  10.140   0.881   6.617 -2.1839 -1.5106 -0.2833
  432MOL0     H58304   9.071   0.263   5.266 -0.1281 -2.5563 -3.2261
  432MOL0     H58305   8.893   0.219   5.123  2.3072 -1.5309  1.3556
  432MOL0     H58306   8.742   0.170   4.819 -0.8653  2.0223  0.5934
  432MOL0     H58307   8.597   0.042   4.650  0.8566  1.8111 -1.6148
  432MOL0     H58308   8.157   0.161   4.630  0.2593 -0.1054 -0.9089
  432MOL0     H58309   8.166   0.012   4.716 -1.9437  2.8326  1.1265
  432MOL0     H58310   8.240  -0.092   4.478  0.4776 -0.2022  0.9076
  432MOL0     H58311   8.216   0.063   4.413  1.3702 -0.6456  0.7792
  432MOL0     H58312   7.991  -0.088   4.577  0.2473  3.1930  1.3210
  432MOL0     H58313   8.023  -0.136   4.407 -0.1350 -0.6229  0.6449
  432MOL0     H58314   7.923   0.144   4.510  1.3145 -0.0978  0.4611
  432MOL0     H58315   7.975   0.121   4.355 -1.3517  3.0558  1.9295
  432MOL0     H58316   7.585  -0.081   4.387 -1.3164  3.5367  4.6915
  432MOL0     H58317   8.259   0.294   4.767  0.3853  0.5855  0.4924
  432MOL0     H58318   8.452   0.527   4.947 -0.8754  2.0809  0.6448
  432MOL0     H58319   8.286   0.481   4.903 -1.9146 -1.2985  2.4891
  432MOL0     H58320   8.353   0.404   5.042  1.1764 -1.1488 -0.9157
  433MOL0     O58321   5.946   6.532   8.650 -0.4813  1.5072  0.6132
  433MOL0     C58322   5.916   6.411   8.647 -0.3536 -0.5851  0.3552
  433MOL0     O58323   5.856   6.346   8.747 -0.2652  0.1266  0.9150
  433MOL0     C58324   5.789   6.428   8.846  0.3297 -0.4924 -0.3630
  433MOL0     C58325   5.656   6.472   8.850  0.1998  1.2057  0.0789
  433MOL0     C58326   5.606   6.554   8.951  0.4175 -0.3705 -0.1424
  433MOL0     C58327   5.689   6.603   9.048  0.2104 -0.5314 -0.1668
  433MOL0     O58328   5.628   6.675   9.150 -0.1533  0.2313  0.2038
  433MOL0     C58329   5.713   6.743   9.241 -0.0057 -0.2986 -0.1425
  433MOL0     C58330   5.740   6.663   9.369  0.3006 -0.3838 -0.8072
  433MOL0     C58331   5.865   6.711   9.447  0.5086 -0.0834  0.2442
  433MOL0     C58332   5.928   6.604   9.532  0.4069  0.1256  0.7704
  433MOL0     C58333   6.052   6.667   9.605 -0.3714 -0.5837 -0.4545
  433MOL0     C58334   6.161   6.730   9.518  0.0954 -0.1639  0.9027
  433MOL0     C58335   6.197   6.645   9.394 -0.0745  0.2525  0.8613
  433MOL0     C58336   6.326   6.686   9.324  0.3087 -0.2354  0.9090
  433MOL0     N58337   6.296   6.824   9.267  0.1746  0.2021 -0.6698
  433MOL0     C58338   6.188   6.870   9.184  0.0984 -0.0075 -0.0999
  433MOL0     C58339   6.189   7.008   9.202  0.0648  0.7466 -0.5268
  433MOL0     C58340   6.099   7.107   9.133 -0.5162 -0.2471  0.1395
  433MOL0     C58341   6.166   7.176   9.015  0.0369 -0.5993  1.0659
  433MOL0     C58342   6.103   7.304   8.963  0.4972 -0.6544  0.2760
  433MOL0     C58343   6.006   7.270   8.838 -0.0762  0.0139  0.4017
  433MOL0     O58344   5.979   7.384   8.767  0.5247  0.7315 -0.1209
  433MOL0     C58345   5.896   7.354   8.663 -0.7422  0.4938  0.4281
  433MOL0     C58346   5.952   7.336   8.537  0.3001  0.3597 -1.0848
  433MOL0     C58347   5.869   7.311   8.431 -0.1923  0.2218  0.2455
  433MOL0     C58348   5.726   7.310   8.439 -0.6910 -0.2181 -0.1625
  433MOL0     C58349   5.637   7.285   8.333  0.8795  0.0352  0.7993
  433MOL0     O58350   5.685   7.223   8.217  0.2695 -1.3377  0.1919
  433MOL0     C58351   5.610   7.180   8.109  0.3288  0.4465 -0.0608
  433MOL0     C58352   5.605   7.244   7.991 -0.0250  0.1792  0.5882
  433MOL0     C58353   5.533   7.199   7.877  0.5171  1.0399  0.0986
  433MOL0     C58354   5.453   7.085   7.895 -0.3229  0.7394  0.0672
  433MOL0     O58355   5.374   7.048   7.784 -0.3467  0.3657  0.3031
  433MOL0     C58356   5.292   6.929   7.791 -1.1879 -0.2474 -0.4122
  433MOL0     C58357   5.274   6.871   7.647  0.2571 -0.1357  0.3000
  433MOL0     C58358   5.157   6.931   7.561 -0.2043  0.6655 -0.6578
  433MOL0     C58359   5.212   7.043   7.469  1.0764  0.9564  0.6565
  433MOL0     C58360   5.097   7.136   7.428  1.0675 -0.3965  0.5473
  433MOL0     C58361   5.021   7.065   7.308 -0.4181 -0.3148  0.2376
  433MOL0     C58362   4.901   7.148   7.273  0.2685 -0.4810 -0.3908
  433MOL0     C58363   4.802   7.063   7.213 -0.8015  0.6979  0.2117
  433MOL0    Cl58364   4.862   7.055   7.045 -0.1793 -0.0491 -0.4827
  433MOL0     C58365   5.466   7.012   8.015 -0.0557 -0.6363 -0.3860
  433MOL0     C58366   5.539   7.057   8.126  0.4187 -0.4903  0.3982
  433MOL0     O58367   5.520   7.268   8.370  0.5007 -0.2876 -0.2324
  433MOL0     C58368   5.678   7.331   8.565 -0.2742 -0.1169  1.4868
  433MOL0     C58369   5.754   7.347   8.681  0.5763 -0.2407  0.2660
  433MOL0     N58370   6.278   7.038   9.292 -0.1842  0.8108 -0.0869
  433MOL0     N58371   6.342   6.937   9.330 -0.2727  0.9811 -0.4382
  433MOL0     C58372   5.820   6.570   9.041  0.8450  0.6828 -0.4128
  433MOL0     C58373   5.875   6.484   8.944  0.8961 -0.0776 -0.6469
  433MOL0     C58374   5.943   6.330   8.516  0.2090  0.0174  0.1349
  433MOL0     C58375   5.868   6.207   8.485 -0.2622 -0.5000  0.6010
  433MOL0     C58376   5.875   6.136   8.369 -0.0365  0.4242  1.2541
  433MOL0     C58377   5.957   6.195   8.267  0.8494  0.4762 -0.1004
  433MOL0     O58378   5.978   6.116   8.154 -0.3131  0.5880 -0.3522
  433MOL0     C58379   5.916   6.174   8.043  0.5727  0.1897 -0.0201
  433MOL0     C58380   5.977   6.138   7.912 -0.4614 -0.2400 -0.5479
  433MOL0     C58381   5.886   6.146   7.797 -0.4351 -0.3373 -0.1107
  433MOL0     C58382   5.826   6.289   7.769 -0.3727  0.0462  0.4066
  433MOL0     C58383   5.923   6.379   7.701 -0.1020 -0.8421  0.0964
  433MOL0     C58384   5.981   6.467   7.631  0.4255 -0.2765 -0.5314
  433MOL0     C58385   6.032   6.308   8.289  0.2199  0.2514 -0.0449
  433MOL0     C58386   6.033   6.372   8.415 -1.0569 -0.1894  0.0752
  433MOL0     C58387   6.136   6.478   8.437  0.2292 -0.0960  0.4403
  433MOL0     H58388   5.589   6.441   8.771  0.1126  1.3292  0.1056
  433MOL0     H58389   5.502   6.584   8.947  0.1144 -0.9910  1.7331
  433MOL0     H58390   5.810   6.773   9.200 -1.0407  3.1603 -0.3982
  433MOL0     H58391   5.658   6.836   9.259  0.6733  0.3479 -1.3099
  433MOL0     H58392   5.753   6.557   9.349 -3.3389 -0.8822 -1.3218
  433MOL0     H58393   5.651   6.681   9.430  1.8257  0.6458  1.2121
  433MOL0     H58394   5.852   6.807   9.498 -3.9640  1.4804 -3.1534
  433MOL0     H58395   5.932   6.739   9.364  1.3943  1.0846  1.3153
  433MOL0     H58396   5.854   6.570   9.605 -1.3362  3.2800  0.6282
  433MOL0     H58397   5.955   6.512   9.478 -2.1383  0.0483 -0.5580
  433MOL0     H58398   6.002   6.735   9.675 -1.1779  1.3762 -2.7934
  433MOL0     H58399   6.096   6.592   9.672 -2.4186 -1.2043  0.2807
  433MOL0     H58400   6.122   6.829   9.495 -1.8618 -0.7132  1.6031
  433MOL0     H58401   6.251   6.757   9.575 -0.0888  2.8315 -0.1030
  433MOL0     H58402   6.122   6.648   9.315 -1.9426  0.9292  2.5928
  433MOL0     H58403   6.216   6.541   9.421  2.0668 -0.2521 -2.0606
  433MOL0     H58404   6.412   6.687   9.391  1.4470 -1.9670 -0.4297
  433MOL0     H58405   6.364   6.624   9.242  2.1621  0.5753  1.1091
  433MOL0     H58406   6.123   6.810   9.122 -2.6095  0.0189  2.5118
  433MOL0     H58407   5.999   7.070   9.109 -0.6868  1.0338 -1.2652
  433MOL0     H58408   6.081   7.188   9.203  3.6591  1.1299 -0.0869
  433MOL0     H58409   6.272   7.199   9.030 -0.2043  3.2716 -1.6422
  433MOL0     H58410   6.189   7.105   8.935  4.1598 -0.3178  1.7334
  433MOL0     H58411   6.189   7.359   8.923  0.3273 -0.3380  0.3471
  433MOL0     H58412   6.043   7.356   9.037  2.4558 -0.6578  1.9554
  433MOL0     H58413   5.911   7.238   8.882 -0.5992  0.5097 -0.3519
  433MOL0     H58414   6.048   7.194   8.772  0.1852  2.1444 -2.0155
  433MOL0     H58415   6.060   7.330   8.528  0.5480 -1.0080  1.6632
  433MOL0     H58416   5.900   7.312   8.326 -1.7551 -0.3659 -0.2427
  433MOL0     H58417   5.666   7.330   7.969 -0.2026  0.1316 -0.1482
  433MOL0     H58418   5.526   7.256   7.785  1.0213 -0.4932 -0.9310
  433MOL0     H58419   5.352   6.848   7.833  0.2600 -1.2592 -4.0010
  433MOL0     H58420   5.192   6.942   7.833 -0.2903 -0.4046  1.9009
  433MOL0     H58421   5.370   6.883   7.597  0.7308  0.2078  1.2784
  433MOL0     H58422   5.262   6.763   7.657  1.2573 -0.5500 -2.1382
  433MOL0     H58423   5.125   6.846   7.500 -0.9610 -0.6989  1.5208
  433MOL0     H58424   5.067   6.951   7.619 -1.5151 -2.4617 -1.3629
  433MOL0     H58425   5.252   7.007   7.374 -2.5455  1.8901 -1.3740
  433MOL0     H58426   5.284   7.105   7.523  0.3653  1.7102  0.7584
  433MOL0     H58427   5.145   7.228   7.395 -2.1461  2.7147  3.6560
  433MOL0     H58428   5.028   7.164   7.508  0.7146  1.7674 -0.4493
  433MOL0     H58429   5.079   7.071   7.216  0.1222  1.2817  0.6641
  433MOL0     H58430   5.001   6.958   7.324  3.3020 -0.9310  1.7405
  433MOL0     H58431   4.926   7.243   7.225  0.7078  1.8004  3.8419
  433MOL0     H58432   4.848   7.186   7.361 -3.2741  0.9877 -2.9220
  433MOL0     H58433   4.778   6.961   7.245 -2.6131  0.8799 -0.4153
  433MOL0     H58434   4.711   7.125   7.209 -0.6833  0.9239  0.8539
  433MOL0     H58435   5.419   6.915   8.025 -1.9336  0.3444  1.0094
  433MOL0     H58436   5.563   6.995   8.212 -1.3019 -0.1770  1.1414
  433MOL0     H58437   5.570   7.331   8.577 -0.7126 -3.8906 -0.7084
  433MOL0     H58438   5.706   7.354   8.778 -0.9120 -5.5985  0.2187
  433MOL0     H58439   5.893   6.596   9.116  1.9354 -1.1124 -0.7941
  433MOL0     H58440   5.978   6.452   8.949  0.8286 -0.1551  0.8266
  433MOL0     H58441   5.790   6.169   8.550  1.5799 -1.2243  2.4928
  433MOL0     H58442   5.820   6.046   8.341  1.6853  0.4205 -2.7919
  433MOL0     H58443   5.898   6.281   8.053  0.8586  0.5247 -2.5560
  433MOL0     H58444   5.812   6.139   8.046 -0.8476  3.5473  5.5225
  433MOL0     H58445   6.007   6.033   7.913 -0.4047 -0.2389 -1.2300
  433MOL0     H58446   6.066   6.199   7.893 -1.4391  0.7763 -2.1321
  433MOL0     H58447   5.798   6.085   7.819 -0.8269  0.6886  1.2794
  433MOL0     H58448   5.917   6.104   7.701 -1.2445 -0.2841 -0.3974
  433MOL0     H58449   5.744   6.273   7.698 -0.4501 -1.3530  0.7970
  433MOL0     H58450   5.788   6.336   7.860 -3.8198  0.8116 -1.2589
  433MOL0     H58451   6.041   6.537   7.575  1.5927 -0.2856  0.6676
  433MOL0     H58452   6.089   6.328   8.198 -1.8221 -3.0462 -2.2766
  433MOL0     H58453   6.205   6.461   8.354 -0.8700 -1.7582 -0.1944
  433MOL0     H58454   6.096   6.577   8.412  1.2106  0.0594 -0.5779
  433MOL0     H58455   6.181   6.472   8.536 -1.2292 -2.8396  1.0385
  434MOL0     O58456   6.228   0.334  11.418 -0.6011  0.1905 -0.8967
  434MOL0     C58457   6.155   0.416  11.459  0.2873  0.0727 -0.4102
  434MOL0     O58458   6.018   0.415  11.447  0.2593 -0.5471  0.7736
  434MOL0     C58459   5.933   0.343  11.366  0.2910  0.1421 -0.9361
  434MOL0     C58460   5.794   0.370  11.366  0.5458 -0.3161 -0.2963
  434MOL0     C58461   5.707   0.283  11.283  0.1274 -1.1096 -0.4056
  434MOL0     C58462   5.765   0.185  11.202  0.6547 -0.2711 -1.1232
  434MOL0     O58463   5.674   0.112  11.127  0.1747 -0.5491  0.6321
  434MOL0     C58464   5.716   0.041  11.010 -0.0844  0.7126 -0.8845
  434MOL0     C58465   5.596   0.022  10.911 -0.6024 -0.5419 -0.8651
  434MOL0     C58466   5.573   0.153  10.835 -0.3202  1.2948  0.2971
  434MOL0     C58467   5.439   0.133  10.764 -0.0275  0.5771  0.1069
  434MOL0     C58468   5.408   0.246  10.675  0.0343 -0.0319 -0.0659
  434MOL0     C58469   5.270   0.237  10.596 -0.6613 -0.5895  0.1033
  434MOL0     C58470   5.233   0.377  10.530 -0.9412 -0.2752 -0.7535
  434MOL0     C58471   5.102   0.364  10.441 -0.6226  0.4685 -0.0642
  434MOL0     N58472   5.058   0.498  10.410 -0.1161 -1.0109  0.0424
  434MOL0     C58473   4.923   0.540  10.405 -1.2822  0.0796 -0.1693
  434MOL0     C58474   4.929   0.670  10.379  0.3542  0.3926  0.4218
  434MOL0     C58475   4.810   0.763  10.369 -0.8118  0.7693 -0.5950
  434MOL0     C58476   4.813   0.816  10.227  0.2672 -0.0576 -0.0255
  434MOL0     C58477   4.909   0.937  10.202  0.0773 -0.0393 -0.0457
  434MOL0     C58478   4.880   0.997  10.056  0.3805 -0.4108 -0.0768
  434MOL0     O58479   4.755   1.051  10.030  0.4374 -0.1122 -0.0146
  434MOL0     C58480   4.740   1.136   9.924  0.7307  0.5185  0.5448
  434MOL0     C58481   4.615   1.201   9.914  1.0960 -0.3758  1.8310
  434MOL0     C58482   4.584   1.279   9.795  0.5399 -0.1622 -0.2872
  434MOL0     C58483   4.684   1.312   9.704 -0.8193  0.1614  0.2034
  434MOL0     C58484   4.679   1.415   9.594 -0.2282 -0.4578 -0.2960
  434MOL0     O58485   4.598   1.524   9.625 -0.6155  0.2927 -0.1402
  434MOL0     C58486   4.599   1.618   9.523  0.2123  0.4882 -0.4734
  434MOL0     C58487   4.477   1.648   9.459 -0.1461 -0.3494 -0.1776
  434MOL0     C58488   4.463   1.746   9.358 -0.1771  0.4706  0.3522
  434MOL0     C58489   4.581   1.813   9.318 -0.7052 -0.7845 -0.7212
  434MOL0     O58490   4.585   1.904   9.223  0.4297  0.0444  1.3295
  434MOL0     C58491   4.589   1.845   9.088 -0.1733 -0.6213 -0.8445
  434MOL0     C58492   4.563   1.967   9.001 -0.1643  0.6436  0.2365
  434MOL0     C58493   4.521   1.930   8.852  0.4186  0.5703 -1.0328
  434MOL0     C58494   4.534   2.054   8.773 -0.0477 -0.6603  1.6254
  434MOL0     C58495   4.494   2.038   8.620 -0.5190  0.9879 -0.1202
  434MOL0     C58496   4.523   2.175   8.547 -0.0624  0.1049  0.6723
  434MOL0     C58497   4.522   2.167   8.387  0.8169 -0.2121 -1.2757
  434MOL0     C58498   4.649   2.107   8.336  0.0244  0.4065 -1.6952
  434MOL0    Cl58499   4.786   2.219   8.295  0.1872  0.3961 -0.0936
  434MOL0     C58500   4.709   1.778   9.374 -0.2376  0.3411 -0.1100
  434MOL0     C58501   4.714   1.686   9.484 -0.1373 -0.4387  0.1671
  434MOL0     O58502   4.744   1.398   9.491 -0.4787 -0.2001  0.3323
  434MOL0     C58503   4.801   1.243   9.715  1.2263 -0.1217  0.4786
  434MOL0     C58504   4.839   1.157   9.821  0.2855  0.4231 -0.1714
  434MOL0     N58505   5.062   0.715  10.376  0.9493 -0.8688  0.7746
  434MOL0     N58506   5.137   0.610  10.394 -0.0751 -0.4091 -0.2909
  434MOL0     C58507   5.905   0.170  11.205  0.2699 -0.5124 -0.1138
  434MOL0     C58508   5.982   0.237  11.295  0.4034  1.1344 -0.0659
  434MOL0     C58509   6.217   0.525  11.539 -0.5105 -0.0468 -0.6268
  434MOL0     C58510   6.357   0.550  11.514 -0.6734 -0.4802 -1.3558
  434MOL0     C58511   6.429   0.650  11.582  0.0744 -0.0874 -0.7592
  434MOL0     C58512   6.361   0.725  11.683 -0.5677  0.2529  0.8157
  434MOL0     O58513   6.425   0.815  11.762  0.2615 -0.7276  0.0068
  434MOL0     C58514   6.523   0.904  11.711 -0.2113  0.6149  0.5552
  434MOL0     C58515   6.532   1.041  11.775  0.1976 -0.8189 -0.0542
  434MOL0     C58516   6.637   1.140  11.710  0.6724  0.0170  0.5737
  434MOL0     C58517   6.633   1.269  11.784 -0.1181 -0.2626  0.0378
  434MOL0     C58518   6.745   1.348  11.735  0.6588  0.2248  1.0524
  434MOL0     C58519   6.837   1.414  11.693 -0.4959 -0.3341  0.7047
  434MOL0     C58520   6.224   0.709  11.703 -0.4945  0.2855 -0.5134
  434MOL0     C58521   6.156   0.605  11.646 -0.2471 -0.2894  0.7182
  434MOL0     C58522   6.024   0.576  11.694  0.5000  0.1992 -0.0863
  434MOL0     H58523   5.758   0.449  11.431  1.4060 -1.4061  1.5873
  434MOL0     H58524   5.607   0.325  11.286  0.5330 -0.1055  2.4195
  434MOL0     H58525   5.807   0.080  10.964  1.5182 -0.2604  1.2864
  434MOL0     H58526   5.731  -0.060  11.050 -2.9598  0.3345 -0.5098
  434MOL0     H58527   5.511  -0.006  10.975 -0.6356 -0.2901 -0.7978
  434MOL0     H58528   5.610  -0.065  10.846 -0.3050  0.6669 -2.4746
  434MOL0     H58529   5.644   0.169  10.753 -1.7371 -0.3310 -1.3152
  434MOL0     H58530   5.572   0.224  10.918 -0.8172 -3.4325  4.8630
  434MOL0     H58531   5.432   0.043  10.701 -1.2445  2.8400 -3.2789
  434MOL0     H58532   5.359   0.129  10.839 -2.2861  0.8894 -2.1515
  434MOL0     H58533   5.425   0.341  10.725 -0.4539  0.9472 -1.6861
  434MOL0     H58534   5.488   0.235  10.602  0.0498  0.1431 -0.0746
  434MOL0     H58535   5.274   0.168  10.511  0.7471  1.8302 -1.9514
  434MOL0     H58536   5.195   0.214  10.671 -0.3524 -0.0916  0.5768
  434MOL0     H58537   5.314   0.405  10.462  1.3092 -5.2702 -0.5235
  434MOL0     H58538   5.219   0.456  10.605  0.8251 -2.7043  2.3738
  434MOL0     H58539   5.118   0.322  10.341 -1.7617  0.1766 -0.1424
  434MOL0     H58540   5.022   0.304  10.485 -2.7001  1.3602 -2.3824
  434MOL0     H58541   4.836   0.491  10.446 -0.0850 -1.4023  0.7001
  434MOL0     H58542   4.739   0.681  10.381  2.3576 -1.8334  2.5819
  434MOL0     H58543   4.806   0.838  10.448 -1.8883  0.0083  0.0978
  434MOL0     H58544   4.841   0.739  10.155 -2.1910 -0.4150 -0.6667
  434MOL0     H58545   4.708   0.844  10.218 -0.1507 -1.3773  0.5038
  434MOL0     H58546   5.015   0.913  10.210  0.0350  0.1704  1.4213
  434MOL0     H58547   4.883   1.017  10.272 -0.2601  0.6651 -0.9345
  434MOL0     H58548   4.889   0.907   9.995  2.3304  1.7588 -3.2634
  434MOL0     H58549   4.963   1.062  10.028  1.6442 -1.0359  1.9984
  434MOL0     H58550   4.547   1.174   9.994  0.7265 -0.8180  1.3787
  434MOL0     H58551   4.492   1.335   9.789  1.5081  1.5610  0.3112
  434MOL0     H58552   4.380   1.607   9.488 -0.6562  0.7169 -0.3128
  434MOL0     H58553   4.366   1.770   9.316 -0.7879  2.1279  2.4784
  434MOL0     H58554   4.681   1.796   9.054  0.1392 -0.6418 -0.0055
  434MOL0     H58555   4.504   1.778   9.071 -0.3334 -0.9581  1.0386
  434MOL0     H58556   4.495   2.038   9.050  1.1542  0.3350  2.6768
  434MOL0     H58557   4.652   2.030   9.002 -0.4581  1.0872 -0.6685
  434MOL0     H58558   4.585   1.848   8.819  0.4017 -0.0659  0.4388
  434MOL0     H58559   4.414   1.905   8.854  0.4650 -0.3104  3.8117
  434MOL0     H58560   4.641   2.080   8.769 -0.5072  1.2183  0.2415
  434MOL0     H58561   4.468   2.130   8.814  0.4958 -0.0676  1.4167
  434MOL0     H58562   4.391   2.003   8.608  0.1073 -1.4973  1.1030
  434MOL0     H58563   4.557   1.961   8.575 -0.8152  1.2998 -1.0882
  434MOL0     H58564   4.449   2.249   8.580  0.4550  0.6086  0.7238
  434MOL0     H58565   4.625   2.213   8.561 -0.4955  2.2958 -1.4060
  434MOL0     H58566   4.507   2.265   8.342  0.2378  1.3607  2.0586
  434MOL0     H58567   4.447   2.095   8.352  2.6082 -2.7130 -0.2845
  434MOL0     H58568   4.689   2.045   8.416  0.2916  1.8272 -0.6887
  434MOL0     H58569   4.626   2.043   8.251  0.6841  0.0553 -1.6112
  434MOL0     H58570   4.802   1.825   9.342 -0.2304 -0.3827 -1.2107
  434MOL0     H58571   4.808   1.657   9.529  0.5715  0.1457 -0.8833
  434MOL0     H58572   4.874   1.269   9.640 -1.2031  0.2690 -1.9041
  434MOL0     H58573   4.928   1.096   9.813 -0.1382 -0.4924  1.5447
  434MOL0     H58574   5.945   0.089  11.144 -2.3080 -2.0342  0.0319
  434MOL0     H58575   6.086   0.221  11.270  0.5793  0.3870  1.0732
  434MOL0     H58576   6.419   0.494  11.445 -0.3638 -1.3548 -0.3840
  434MOL0     H58577   6.536   0.660  11.566  0.3085 -2.0197 -0.6353
  434MOL0     H58578   6.503   0.922  11.605 -1.8159 -0.8206  0.5735
  434MOL0     H58579   6.620   0.853  11.711 -0.2160  0.6070  0.6779
  434MOL0     H58580   6.563   1.034  11.880  1.8076  0.8318 -0.3663
  434MOL0     H58581   6.430   1.078  11.765 -0.0773 -1.0148  1.7106
  434MOL0     H58582   6.585   1.165  11.618  1.1931  3.0078  1.0103
  434MOL0     H58583   6.736   1.093  11.704  0.2534 -0.6618 -2.3045
  434MOL0     H58584   6.541   1.325  11.764 -0.5750 -1.1835 -0.4944
  434MOL0     H58585   6.644   1.258  11.892 -1.3881  2.0153  0.4588
  434MOL0     H58586   6.928   1.450  11.649  0.1656 -3.7362 -1.0193
  434MOL0     H58587   6.174   0.774  11.774 -1.5714  0.7216 -1.6274
  434MOL0     H58588   6.008   0.467  11.693 -0.0053  0.1962  2.4666
  434MOL0     H58589   6.021   0.590  11.802 -0.2583  2.5571 -0.3681
  434MOL0     H58590   5.948   0.642  11.651  0.2798  0.4267  0.6461
  435MOL0     O58591   0.304   5.828   8.268 -0.5312 -0.0416  0.1841
  435MOL0     C58592   0.201   5.889   8.262  0.7027 -0.2983 -0.0520
  435MOL0     O58593   0.195   6.019   8.237  0.5465  0.3517 -0.2215
  435MOL0     C58594   0.311   6.086   8.210  1.0769 -0.5370  0.8381
  435MOL0     C58595   0.309   6.148   8.088  0.1083  0.4873  0.3681
  435MOL0     C58596   0.418   6.228   8.052  0.2976 -0.2036  0.4803
  435MOL0     C58597   0.524   6.236   8.141  0.0582  0.1810  0.1825
  435MOL0     O58598   0.646   6.289   8.101  0.5694  0.0527 -0.5557
  435MOL0     C58599   0.644   6.381   7.993 -0.3529 -0.0706 -1.0130
  435MOL0     C58600   0.764   6.463   8.003 -0.8507  0.1754 -0.2113
  435MOL0     C58601   0.894   6.391   7.959 -0.3535  0.7151 -0.4156
  435MOL0     C58602   1.015   6.491   7.973 -1.5227 -0.5193  0.9118
  435MOL0     C58603   1.025   6.598   7.866 -0.7716 -0.7205  0.2009
  435MOL0     C58604   1.141   6.686   7.886 -0.3550 -0.4413 -0.2754
  435MOL0     C58605   1.156   6.785   7.765  0.0493 -0.4732  0.1960
  435MOL0     C58606   1.042   6.888   7.754  0.0656 -0.1134  0.5022
  435MOL0     N58607   1.102   6.996   7.669 -0.3480  0.1173 -0.6465
  435MOL0     C58608   1.123   6.988   7.530  0.1271  0.1590 -0.0928
  435MOL0     C58609   1.175   7.110   7.497 -0.1634  0.0710  0.0041
  435MOL0     C58610   1.174   7.152   7.358  0.2118  0.4378  0.3453
  435MOL0     C58611   1.188   7.302   7.349 -1.2619  0.0208  0.2248
  435MOL0     C58612   1.194   7.361   7.205  0.3056  0.8828 -1.1259
  435MOL0     C58613   1.183   7.511   7.210  1.0669 -0.8202 -0.2193
  435MOL0     O58614   1.213   7.543   7.068  0.4894  0.2905 -0.3727
  435MOL0     C58615   1.233   7.679   7.031  0.6698  0.3723 -0.5297
  435MOL0     C58616   1.242   7.735   6.897 -0.7015  0.7018  0.4120
  435MOL0     C58617   1.267   7.865   6.871  0.8913  0.6521  0.2667
  435MOL0     C58618   1.270   7.959   6.975 -0.2000  0.5754  0.8255
  435MOL0     C58619   1.307   8.094   6.955 -0.0230  0.9903 -0.2223
  435MOL0     O58620   1.264   8.158   6.839 -0.2972  0.5876  0.4089
  435MOL0     C58621   1.254   8.296   6.838 -0.4385 -0.7704  0.2129
  435MOL0     C58622   1.363   8.377   6.881 -1.0296  0.5634  0.5693
  435MOL0     C58623   1.354   8.518   6.899  0.1641  0.1516 -1.0935
  435MOL0     C58624   1.228   8.574   6.881  0.1271 -0.1774 -0.6732
  435MOL0     O58625   1.225   8.703   6.927  0.6376 -0.2149 -0.0369
  435MOL0     C58626   1.112   8.767   6.883  0.6145 -0.9814  0.3433
  435MOL0     C58627   1.116   8.920   6.929  0.0355  0.3012  0.7042
  435MOL0     C58628   1.070   8.927   7.083 -0.0360  0.6369 -0.2552
  435MOL0     C58629   1.049   9.070   7.132  0.1129 -0.5717 -0.2064
  435MOL0     C58630   1.081   9.099   7.284  0.2468  0.2235 -0.3574
  435MOL0     C58631   1.231   9.085   7.334  0.0999 -0.2096 -0.5686
  435MOL0     C58632   1.335   9.196   7.279 -0.6367 -0.0763  0.0362
  435MOL0     C58633   1.283   9.341   7.271 -0.1552  0.4993 -0.9247
  435MOL0    Cl58634   1.245   9.405   7.432  0.4517  0.3944  0.5144
  435MOL0     C58635   1.121   8.501   6.835  0.5472 -0.3139  0.1560
  435MOL0     C58636   1.126   8.364   6.816 -0.5163  0.1877 -1.0967
  435MOL0     O58637   1.355   8.147   7.054 -0.2910 -0.3271  0.1054
  435MOL0     C58638   1.248   7.905   7.102 -0.1046 -0.5285  0.2217
  435MOL0     C58639   1.242   7.777   7.132 -0.2619 -0.7212 -0.3571
  435MOL0     N58640   1.174   7.191   7.612 -0.4334  0.3189 -0.0599
  435MOL0     N58641   1.134   7.121   7.718 -0.4057  0.2577  0.3618
  435MOL0     C58642   0.514   6.188   8.270 -1.1174  0.4904  0.1954
  435MOL0     C58643   0.405   6.112   8.306 -0.2581  1.1971  0.2139
  435MOL0     C58644   0.062   5.841   8.285  0.2549 -1.2920  0.8976
  435MOL0     C58645  -0.032   5.919   8.353  0.4291 -0.5808  0.9904
  435MOL0     C58646  -0.159   5.886   8.381  0.0543  0.5301  0.2493
  435MOL0     C58647  -0.204   5.762   8.341  0.4065  0.3866 -0.5348
  435MOL0     O58648  -0.329   5.727   8.384  0.7292 -0.1753 -0.4109
  435MOL0     C58649  -0.325   5.603   8.458  0.2309  0.6887 -0.2052
  435MOL0     C58650  -0.459   5.588   8.544 -0.1437 -0.4692  0.7470
  435MOL0     C58651  -0.489   5.711   8.632  0.2289  0.1061  0.6949
  435MOL0     C58652  -0.378   5.752   8.730  0.8820 -0.6969 -0.4079
  435MOL0     C58653  -0.431   5.834   8.836  0.3563  0.0221 -0.3653
  435MOL0     C58654  -0.471   5.901   8.927  0.1525  0.2244  0.6417
  435MOL0     C58655  -0.123   5.677   8.269 -0.3664  0.3042 -0.4115
  435MOL0     C58656   0.008   5.720   8.236 -0.4560 -0.9045  0.9143
  435MOL0     C58657   0.085   5.632   8.137  0.1219 -0.6959  0.4876
  435MOL0     H58658   0.231   6.124   8.016  1.7697 -0.0427 -1.3357
  435MOL0     H58659   0.416   6.278   7.956  0.1700  0.0924  0.6388
  435MOL0     H58660   0.642   6.320   7.903 -2.2589  0.7037 -1.5289
  435MOL0     H58661   0.555   6.444   7.996  0.5116  1.1732  1.5144
  435MOL0     H58662   0.770   6.505   8.103 -0.2472  4.6058 -1.8830
  435MOL0     H58663   0.754   6.551   7.938 -0.9919  1.5445  1.5934
  435MOL0     H58664   0.888   6.347   7.859 -3.0688 -0.4405  0.1590
  435MOL0     H58665   0.915   6.310   8.030  0.6041  2.9049  1.9297
  435MOL0     H58666   1.032   6.538   8.070  1.4472  1.9683 -0.6263
  435MOL0     H58667   1.110   6.436   7.968 -0.6751  1.0382 -2.1678
  435MOL0     H58668   1.015   6.561   7.764  0.1739 -4.0756  1.1950
  435MOL0     H58669   0.939   6.663   7.883  0.2049  0.5969  0.3214
  435MOL0     H58670   1.136   6.744   7.978 -0.1992 -2.6274  1.1854
  435MOL0     H58671   1.237   6.634   7.881  0.6223  1.3975 -3.0532
  435MOL0     H58672   1.165   6.724   7.675 -3.2879  0.2145 -0.7094
  435MOL0     H58673   1.245   6.850   7.770 -1.4197  1.6893 -0.2534
  435MOL0     H58674   0.955   6.839   7.709 -1.2592  1.7767  0.8748
  435MOL0     H58675   1.023   6.917   7.858  1.1603 -1.7839  1.2181
  435MOL0     H58676   1.096   6.912   7.457  1.9433 -1.7595  1.1227
  435MOL0     H58677   1.263   7.112   7.307 -1.2767 -2.1808 -0.3618
  435MOL0     H58678   1.083   7.120   7.306 -0.3473  2.4860 -0.0126
  435MOL0     H58679   1.107   7.351   7.403  0.6759 -0.0232  3.4153
  435MOL0     H58680   1.283   7.319   7.400  0.2203 -0.0233 -2.3352
  435MOL0     H58681   1.107   7.329   7.147  0.5216 -0.9061 -0.5276
  435MOL0     H58682   1.279   7.317   7.152  1.1176  0.2465  0.6008
  435MOL0     H58683   1.257   7.555   7.278  2.2601  0.7271 -2.4301
  435MOL0     H58684   1.086   7.555   7.233  0.6707  0.3210 -3.6193
  435MOL0     H58685   1.226   7.676   6.807 -1.7682 -0.2891  1.2181
  435MOL0     H58686   1.269   7.908   6.771  0.0489  1.8754  0.7479
  435MOL0     H58687   1.464   8.338   6.891  0.5251  4.1643  0.5581
  435MOL0     H58688   1.435   8.580   6.938 -2.2928  1.9698  1.5500
  435MOL0     H58689   1.110   8.767   6.773 -0.8019 -0.4952  0.3394
  435MOL0     H58690   1.021   8.725   6.927  1.0486 -0.7966  1.4286
  435MOL0     H58691   1.208   8.976   6.912 -0.0923  0.1836 -0.4703
  435MOL0     H58692   1.037   8.981   6.882 -0.4438  1.0635  2.4316
  435MOL0     H58693   0.981   8.867   7.105 -0.8075  2.1402  0.8647
  435MOL0     H58694   1.157   8.883   7.133  0.8886  1.2255 -1.3035
  435MOL0     H58695   0.942   9.094   7.126  0.2341  0.3163  0.8575
  435MOL0     H58696   1.109   9.141   7.075 -1.6538  0.8842 -0.3829
  435MOL0     H58697   1.021   9.027   7.340  1.8406 -1.0194 -0.1661
  435MOL0     H58698   1.045   9.199   7.308  4.0608  1.6764  0.0273
  435MOL0     H58699   1.216   9.088   7.442 -0.3124 -0.9246 -0.6071
  435MOL0     H58700   1.267   8.984   7.313  2.7508  0.6093 -0.3226
  435MOL0     H58701   1.361   9.171   7.176  2.8645 -1.2219  1.0780
  435MOL0     H58702   1.428   9.200   7.336 -0.2262  1.7888 -0.7122
  435MOL0     H58703   1.350   9.396   7.205 -0.4633  0.0197 -1.6460
  435MOL0     H58704   1.185   9.332   7.224  0.1588 -0.4493 -1.4245
  435MOL0     H58705   1.029   8.553   6.811  0.5847 -1.1389 -2.0401
  435MOL0     H58706   1.038   8.303   6.794 -0.2047  0.3038 -2.8342
  435MOL0     H58707   1.258   7.977   7.182  0.1198  1.3950 -1.4732
  435MOL0     H58708   1.275   7.759   7.234  2.5353 -0.2623 -1.1091
  435MOL0     H58709   0.603   6.208   8.327 -0.1679  0.6956 -1.2974
  435MOL0     H58710   0.388   6.084   8.409 -1.4482 -0.4672 -0.3962
  435MOL0     H58711   0.003   6.016   8.388  2.5333  0.2547 -2.8772
  435MOL0     H58712  -0.231   5.947   8.434  2.9162  1.6795  3.1531
  435MOL0     H58713  -0.240   5.600   8.526 -1.1355  0.1397  1.5318
  435MOL0     H58714  -0.317   5.525   8.381 -1.2398  0.8929 -0.5887
  435MOL0     H58715  -0.452   5.500   8.608 -0.0490 -2.3564 -1.6914
  435MOL0     H58716  -0.544   5.580   8.475 -0.6972  1.9705  1.0855
  435MOL0     H58717  -0.581   5.683   8.685  0.1096 -2.1584 -0.5855
  435MOL0     H58718  -0.512   5.803   8.579 -0.3815  0.1346  1.0026
  435MOL0     H58719  -0.336   5.662   8.775  0.8054 -0.3826  0.2929
  435MOL0     H58720  -0.303   5.807   8.672  3.6561 -0.9569  2.6496
  435MOL0     H58721  -0.524   5.961   8.999 -0.9815  0.0069  0.0068
  435MOL0     H58722  -0.163   5.581   8.239 -0.7877  0.0531  0.9139
  435MOL0     H58723   0.027   5.548   8.099  1.3163 -2.2646  1.9994
  435MOL0     H58724   0.139   5.691   8.062 -1.2876  2.8356  2.0132
  435MOL0     H58725   0.157   5.585   8.204 -0.8313 -2.3579  0.3911
  436MOL0     O58726   7.247   9.258   2.851 -0.4898  0.6695  0.5235
  436MOL0     C58727   7.201   9.305   2.748  0.0394 -0.0984 -0.8133
  436MOL0     O58728   7.285   9.342   2.636 -0.8473 -0.5726 -0.6194
  436MOL0     C58729   7.422   9.329   2.655 -0.7698  0.7257 -0.3776
  436MOL0     C58730   7.494   9.352   2.781  0.4313  1.0598 -0.5247
  436MOL0     C58731   7.633   9.336   2.785 -0.3633  0.8073 -0.1132
  436MOL0     C58732   7.705   9.299   2.670 -0.3116  0.5943 -1.0683
  436MOL0     O58733   7.839   9.301   2.688 -0.4212 -0.1562 -0.2268
  436MOL0     C58734   7.936   9.245   2.598  0.1567  0.9139  0.2551
  436MOL0     C58735   8.071   9.286   2.641 -0.3687  0.3940  0.0849
  436MOL0     C58736   8.181   9.276   2.526 -0.1378 -0.3883  0.5943
  436MOL0     C58737   8.332   9.303   2.575  0.1356  0.2860 -0.1911
  436MOL0     C58738   8.438   9.327   2.469 -0.3305 -0.1641 -0.1141
  436MOL0     C58739   8.566   9.345   2.551 -0.3430 -0.6926 -0.0742
  436MOL0     C58740   8.688   9.387   2.471 -0.3376 -0.2871  0.2573
  436MOL0     C58741   8.815   9.417   2.559  0.0031  0.7097 -0.2164
  436MOL0     N58742   8.849   9.308   2.647 -0.5230 -1.2694 -0.4618
  436MOL0     C58743   8.931   9.197   2.621  0.7924 -0.3003  0.1101
  436MOL0     C58744   8.947   9.136   2.739 -0.3944 -0.5992 -0.5123
  436MOL0     C58745   9.060   9.043   2.769  1.1165  0.4301  0.7874
  436MOL0     C58746   9.184   9.109   2.835  0.5963  0.9485  1.4617
  436MOL0     C58747   9.180   9.125   2.992  0.0425 -0.1428  0.4839
  436MOL0     C58748   9.291   9.211   3.049  0.3459 -0.3367  0.8239
  436MOL0     O58749   9.421   9.158   3.010 -0.4756 -0.2093 -0.3257
  436MOL0     C58750   9.547   9.168   3.074  0.7997  0.7919 -0.1914
  436MOL0     C58751   9.666   9.095   3.036  0.3852  0.1292 -0.3965
  436MOL0     C58752   9.783   9.112   3.104  0.3311  0.2779 -0.2186
  436MOL0     C58753   9.797   9.204   3.216 -0.6324 -0.2477  0.0790
  436MOL0     C58754   9.934   9.238   3.266  0.5974 -0.1229 -0.5900
  436MOL0     O58755   9.936   9.325   3.371  0.1650 -0.0628 -0.1900
  436MOL0     C58756  10.064   9.369   3.413  0.3219 -0.2773  0.0788
  436MOL0     C58757  10.124   9.480   3.348 -0.3572 -0.4501  0.2739
  436MOL0     C58758  10.238   9.540   3.397  0.2385  0.5472  0.2741
  436MOL0     C58759  10.309   9.471   3.499 -0.0415 -0.5881 -0.6080
  436MOL0     O58760  10.417   9.522   3.572  0.0644  0.4712 -0.7583
  436MOL0     C58761  10.550   9.528   3.521 -0.7925 -0.1504  0.4521
  436MOL0     C58762  10.574   9.679   3.492 -0.8167 -0.3080 -0.6409
  436MOL0     C58763  10.673   9.705   3.383  0.0013  0.2141  0.0798
  436MOL0     C58764  10.674   9.857   3.358 -0.0055  0.2448 -0.3588
  436MOL0     C58765  10.720   9.883   3.209  0.0074 -0.5163 -0.3566
  436MOL0     C58766  10.768  10.028   3.179  0.2540  0.0129 -0.7124
  436MOL0     C58767  10.658  10.128   3.212 -0.6342 -0.8482 -0.6442
  436MOL0     C58768  10.545  10.155   3.116 -0.0595 -0.1671  0.4235
  436MOL0    Cl58769  10.598  10.248   2.973 -0.2281 -0.1232 -0.6186
  436MOL0     C58770  10.266   9.341   3.549  1.0045 -0.2583 -0.3745
  436MOL0     C58771  10.135   9.301   3.503 -0.1619 -0.0788 -0.7804
  436MOL0     O58772  10.032   9.199   3.198 -0.2929 -0.4204 -0.0772
  436MOL0     C58773   9.675   9.270   3.255 -0.3037  0.0292 -1.3642
  436MOL0     C58774   9.552   9.249   3.195 -0.1334 -0.0498  0.6768
  436MOL0     N58775   8.876   9.215   2.838 -0.9587  0.5561 -0.6481
  436MOL0     N58776   8.811   9.304   2.776 -0.0272  0.1756  0.2650
  436MOL0     C58777   7.627   9.273   2.557 -0.0776 -1.0275  0.1445
  436MOL0     C58778   7.492   9.295   2.545 -0.3200 -0.5731  0.4238
  436MOL0     C58779   7.060   9.359   2.759  0.2111 -1.1407 -0.2495
  436MOL0     C58780   7.033   9.494   2.726  0.7117  0.2054  0.5160
  436MOL0     C58781   6.902   9.540   2.736  0.6454 -0.2061 -0.7631
  436MOL0     C58782   6.794   9.457   2.778 -0.9006 -0.2676 -1.0384
  436MOL0     O58783   6.672   9.496   2.805  0.1246  0.5035  0.8535
  436MOL0     C58784   6.626   9.631   2.814  0.4515  0.2945  0.2383
  436MOL0     C58785   6.522   9.643   2.931 -0.4856  0.5630  0.4296
  436MOL0     C58786   6.582   9.605   3.061 -0.0358 -0.9548  0.5099
  436MOL0     C58787   6.480   9.638   3.174 -0.0002 -0.4186 -0.6922
  436MOL0     C58788   6.509   9.776   3.216 -0.2772 -0.5628  0.0753
  436MOL0     C58789   6.526   9.888   3.261  0.2935  0.6267  0.5259
  436MOL0     C58790   6.828   9.325   2.806  0.8397 -0.6297  0.3554
  436MOL0     C58791   6.954   9.270   2.800 -0.3762  0.3509 -0.5808
  436MOL0     C58792   6.974   9.129   2.838  0.1991 -0.6110  0.5177
  436MOL0     H58793   7.442   9.368   2.875 -0.0382 -1.7672 -0.2064
  436MOL0     H58794   7.694   9.350   2.874  2.2608  0.0753 -1.7028
  436MOL0     H58795   7.917   9.137   2.606 -0.2808  0.7240 -2.5163
  436MOL0     H58796   7.918   9.273   2.494  2.2505 -0.8342 -0.6554
  436MOL0     H58797   8.111   9.227   2.725  2.8580  2.1431 -0.0381
  436MOL0     H58798   8.074   9.390   2.673  4.0806  0.5425 -0.0923
  436MOL0     H58799   8.161   9.349   2.447  0.8441 -0.7144  0.0364
  436MOL0     H58800   8.173   9.172   2.494 -2.1727 -1.6866  4.5889
  436MOL0     H58801   8.325   9.390   2.642  0.8501  0.5618 -0.4566
  436MOL0     H58802   8.372   9.219   2.632  0.1977 -0.2096 -0.9588
  436MOL0     H58803   8.447   9.239   2.405 -1.9324  0.6090 -1.4787
  436MOL0     H58804   8.416   9.414   2.407 -2.5064 -0.9489 -0.5542
  436MOL0     H58805   8.548   9.414   2.633  1.2837 -0.1672 -0.1242
  436MOL0     H58806   8.582   9.254   2.609  0.2885 -0.7805 -0.3803
  436MOL0     H58807   8.668   9.484   2.425 -0.0943 -1.5164 -2.6800
  436MOL0     H58808   8.709   9.325   2.383 -4.5846 -0.6016 -0.7599
  436MOL0     H58809   8.891   9.452   2.489 -1.3097  2.6829 -0.7322
  436MOL0     H58810   8.780   9.499   2.623 -1.8766  0.9928 -1.5256
  436MOL0     H58811   8.982   9.162   2.532 -0.1507 -3.1968  0.6012
  436MOL0     H58812   9.035   8.970   2.846 -0.5534  1.3808  1.2204
  436MOL0     H58813   9.088   8.998   2.673 -1.1404  5.2107 -2.5465
  436MOL0     H58814   9.260   9.033   2.814 -0.7989 -1.8575  5.4491
  436MOL0     H58815   9.207   9.209   2.795  0.3896  1.1615  1.8679
  436MOL0     H58816   9.185   9.026   3.037 -1.0785 -2.4043 -3.8205
  436MOL0     H58817   9.090   9.171   3.036  0.5775  0.7508  0.6699
  436MOL0     H58818   9.273   9.227   3.156 -2.4611  1.1069  0.2163
  436MOL0     H58819   9.285   9.316   3.018  2.2684 -0.5147 -0.3200
  436MOL0     H58820   9.662   9.037   2.945 -2.5747  0.0014 -0.2953
  436MOL0     H58821   9.878   9.064   3.083 -0.5980 -3.6229  3.1455
  436MOL0     H58822  10.066   9.540   3.278 -1.1560  0.7161  1.8780
  436MOL0     H58823  10.281   9.634   3.366  2.7234 -0.1765  1.3077
  436MOL0     H58824  10.620   9.488   3.595 -1.5915  0.3296  1.4832
  436MOL0     H58825  10.566   9.476   3.426  0.3645 -0.3582  0.7422
  436MOL0     H58826  10.480   9.733   3.480 -2.8474 -3.1984  0.8691
  436MOL0     H58827  10.613   9.726   3.582 -0.7574  1.3482 -1.4946
  436MOL0     H58828  10.775   9.667   3.394  2.4487  4.5029 -3.9558
  436MOL0     H58829  10.640   9.653   3.292  3.2364  0.9063 -1.6558
  436MOL0     H58830  10.729   9.917   3.431 -5.0073  3.0067  1.6304
  436MOL0     H58831  10.573   9.893   3.377  0.0750  0.0166  0.5282
  436MOL0     H58832  10.631   9.868   3.147  0.2415  1.2601 -1.1698
  436MOL0     H58833  10.804   9.818   3.183  1.3163  0.6265  0.8516
  436MOL0     H58834  10.857  10.060   3.233  0.9338 -0.8140 -1.3217
  436MOL0     H58835  10.794  10.027   3.072 -0.9226 -1.1346 -1.0129
  436MOL0     H58836  10.710  10.223   3.227 -3.0896  0.2122  2.0472
  436MOL0     H58837  10.614  10.098   3.308 -0.1032 -1.9575 -0.7360
  436MOL0     H58838  10.509  10.059   3.077  1.5966  0.5188 -3.2567
  436MOL0     H58839  10.466  10.212   3.166  1.3533 -0.5106  3.2220
  436MOL0     H58840  10.315   9.287   3.629  0.8159  1.9115  1.3074
  436MOL0     H58841  10.092   9.214   3.552 -0.6662  1.2315  1.2269
  436MOL0     H58842   9.674   9.340   3.338  1.0247 -1.1805 -0.2827
  436MOL0     H58843   9.472   9.311   3.236  1.0284  2.8912 -1.2198
  436MOL0     H58844   7.671   9.231   2.467  0.2972  1.1617 -0.7639
  436MOL0     H58845   7.440   9.289   2.449 -4.5596  0.5203  2.3977
  436MOL0     H58846   7.115   9.553   2.686  0.0587 -0.5633 -2.1464
  436MOL0     H58847   6.885   9.646   2.721  0.7880 -0.0210  0.2560
  436MOL0     H58848   6.574   9.658   2.721  0.8965 -1.5435 -0.5932
  436MOL0     H58849   6.709   9.700   2.830 -1.5346  3.6011 -2.2328
  436MOL0     H58850   6.436   9.577   2.915 -0.6388  0.9162 -0.2632
  436MOL0     H58851   6.493   9.748   2.928  0.4884  0.8316 -0.0037
  436MOL0     H58852   6.674   9.660   3.079  0.3226 -1.7017  0.9867
  436MOL0     H58853   6.603   9.498   3.058 -2.9164 -1.6048 -0.1884
  436MOL0     H58854   6.373   9.646   3.154 -0.1736  0.4140  0.4529
  436MOL0     H58855   6.511   9.573   3.257  0.7302 -2.3305 -2.3617
  436MOL0     H58856   6.533   9.985   3.306 -1.7506  0.2505  1.7882
  436MOL0     H58857   6.749   9.284   2.870  1.4907 -1.6725  0.5144
  436MOL0     H58858   7.005   9.067   2.753  3.8055 -0.8679  1.8461
  436MOL0     H58859   7.058   9.123   2.907  0.9606 -2.2962 -0.4888
  436MOL0     H58860   6.886   9.097   2.894 -0.2006  1.0331  0.8912
  437MOL0     O58861   1.526   4.278   5.795 -0.7691 -0.2384 -0.4111
  437MOL0     C58862   1.572   4.184   5.734  0.5644 -0.5840 -0.6557
  437MOL0     O58863   1.691   4.183   5.673 -0.7094  0.3078 -0.3763
  437MOL0     C58864   1.769   4.299   5.669 -0.4409 -0.2339 -0.1645
  437MOL0     C58865   1.708   4.431   5.643 -0.6497  0.1754  0.6821
  437MOL0     C58866   1.798   4.533   5.616 -0.2551 -0.3061 -0.9521
  437MOL0     C58867   1.935   4.518   5.624 -0.5139  0.7835 -0.3325
  437MOL0     O58868   2.026   4.618   5.614 -0.0814  0.2329 -0.0965
  437MOL0     C58869   1.992   4.715   5.518  1.1673  0.0868 -0.3616
  437MOL0     C58870   1.994   4.671   5.379 -0.9102  0.0843  0.6840
  437MOL0     C58871   2.126   4.605   5.327 -0.0963  0.1943 -0.8441
  437MOL0     C58872   2.106   4.482   5.236  0.7019 -0.2788  0.4331
  437MOL0     C58873   2.223   4.390   5.232 -0.5002 -0.3559  0.0206
  437MOL0     C58874   2.223   4.277   5.121  0.7119  0.1639  0.2758
  437MOL0     C58875   2.357   4.224   5.093 -0.8252  0.3030  0.3558
  437MOL0     C58876   2.412   4.287   4.968 -0.8279 -0.1875 -0.1096
  437MOL0     N58877   2.367   4.207   4.853 -0.2145 -0.7148  0.0566
  437MOL0     C58878   2.416   4.082   4.825 -0.8962  0.6647  0.1163
  437MOL0     C58879   2.386   4.053   4.690  0.5949  0.0392 -0.5018
  437MOL0     C58880   2.404   3.931   4.624 -0.5686  0.5867  0.6686
  437MOL0     C58881   2.509   3.942   4.517 -0.5782  0.1915  0.6850
  437MOL0     C58882   2.646   3.992   4.562 -0.2069  0.7965 -0.6278
  437MOL0     C58883   2.728   3.876   4.612  0.0105  0.6740  0.3249
  437MOL0     O58884   2.658   3.791   4.705  0.3734  0.3777 -0.0728
  437MOL0     C58885   2.706   3.667   4.724 -0.2009  0.4762  0.3743
  437MOL0     C58886   2.634   3.574   4.793  0.1803 -1.0233 -0.8440
  437MOL0     C58887   2.674   3.441   4.826 -0.6950 -0.2942 -0.3242
  437MOL0     C58888   2.807   3.406   4.782 -0.3511  0.5163  0.4903
  437MOL0     C58889   2.870   3.276   4.824 -0.4267  0.9833  0.8450
  437MOL0     O58890   2.786   3.171   4.841  0.0007 -0.4303 -0.1008
  437MOL0     C58891   2.843   3.054   4.884  0.7463 -0.1031  0.8798
  437MOL0     C58892   2.811   3.018   5.014  0.4816  0.7516  0.5584
  437MOL0     C58893   2.823   2.879   5.044 -0.1709 -0.2336  0.1951
  437MOL0     C58894   2.882   2.789   4.951 -0.0617  0.7708 -1.0473
  437MOL0     O58895   2.892   2.658   4.997 -0.6678  0.2027 -0.7239
  437MOL0     C58896   2.960   2.552   4.934 -0.4632  0.2079  0.5315
  437MOL0     C58897   3.098   2.541   4.993 -1.0683  0.1261  0.1862
  437MOL0     C58898   3.107   2.473   5.131  0.0809 -0.2253 -0.4350
  437MOL0     C58899   3.033   2.553   5.241 -0.8678 -0.8141  0.0168
  437MOL0     C58900   3.071   2.515   5.383 -0.1136 -0.0679  0.2417
  437MOL0     C58901   3.004   2.630   5.469 -0.5382 -0.2073  0.1812
  437MOL0     C58902   3.099   2.756   5.459 -0.2567 -0.8810 -0.2319
  437MOL0     C58903   3.014   2.882   5.477  0.8774 -0.6922  0.8088
  437MOL0    Cl58904   2.909   2.869   5.614  0.6249  0.1826 -0.1216
  437MOL0     C58905   2.931   2.838   4.825 -0.0327  0.0824 -0.6624
  437MOL0     C58906   2.896   2.964   4.789 -0.1567  0.2902  0.0079
  437MOL0     O58907   2.991   3.276   4.818  0.2039 -0.4406 -0.3224
  437MOL0     C58908   2.883   3.506   4.712 -0.1588  0.7684  0.8031
  437MOL0     C58909   2.830   3.628   4.675  0.1995  0.3832  0.5710
  437MOL0     N58910   2.305   4.152   4.647 -0.2690 -0.2194  0.7645
  437MOL0     N58911   2.286   4.236   4.746 -0.0056  0.2989 -1.2405
  437MOL0     C58912   1.991   4.392   5.649  0.4431  0.4009  0.2826
  437MOL0     C58913   1.909   4.284   5.680 -0.1488 -0.4393  0.3228
  437MOL0     C58914   1.482   4.055   5.723 -0.0042 -0.3255 -0.3666
  437MOL0     C58915   1.353   4.067   5.774 -0.2366  0.2813 -0.8241
  437MOL0     C58916   1.270   3.958   5.781  0.5498  0.6663 -0.5518
  437MOL0     C58917   1.315   3.828   5.737 -0.3872  0.2395  0.0523
  437MOL0     O58918   1.239   3.721   5.731  0.6140 -0.5986 -0.2056
  437MOL0     C58919   1.116   3.709   5.794  0.3704  0.2605 -0.5321
  437MOL0     C58920   1.125   3.688   5.948 -0.4017  0.2654  0.4600
  437MOL0     C58921   0.996   3.699   6.010 -0.0775 -0.6144  0.0481
  437MOL0     C58922   0.994   3.660   6.159  0.8410  0.3064  0.7782
  437MOL0     C58923   1.025   3.517   6.156  0.1251 -0.1630 -0.4776
  437MOL0     C58924   1.051   3.399   6.151  0.0694  0.7345  0.0837
  437MOL0     C58925   1.442   3.825   5.680  0.8144  0.5565 -0.0654
  437MOL0     C58926   1.528   3.929   5.669  0.1268 -0.0129 -0.3430
  437MOL0     C58927   1.662   3.903   5.611  0.4842  0.8698  0.2056
  437MOL0     H58928   1.600   4.437   5.634 -0.9353 -4.4062 -2.1915
  437MOL0     H58929   1.757   4.631   5.595  0.3874 -0.2428 -1.9631
  437MOL0     H58930   1.899   4.766   5.545  2.9263  3.8879 -0.7294
  437MOL0     H58931   2.058   4.801   5.531 -0.3134  1.0884  0.9196
  437MOL0     H58932   1.971   4.746   5.303 -0.6945 -0.1856  0.3505
  437MOL0     H58933   1.917   4.594   5.381 -0.1233 -0.7013  1.2975
  437MOL0     H58934   2.174   4.562   5.416  0.6128  3.0389  0.2548
  437MOL0     H58935   2.200   4.670   5.281  2.2654 -0.1582  2.1260
  437MOL0     H58936   2.017   4.423   5.261  0.5111  0.3386  1.2568
  437MOL0     H58937   2.101   4.532   5.138  2.2761 -0.8769  0.0153
  437MOL0     H58938   2.307   4.456   5.211 -0.6364  0.0778  0.7865
  437MOL0     H58939   2.236   4.346   5.332  0.1818  0.6081  0.3809
  437MOL0     H58940   2.165   4.195   5.163 -0.6944  0.0250 -1.7989
  437MOL0     H58941   2.182   4.316   5.028  1.1744  4.1655  1.5650
  437MOL0     H58942   2.368   4.115   5.092 -3.0610  0.0169  1.2515
  437MOL0     H58943   2.424   4.257   5.173  1.1614 -1.2765 -0.5502
  437MOL0     H58944   2.394   4.395   4.973  1.3862  0.3005 -1.3463
  437MOL0     H58945   2.520   4.270   4.975 -1.2620 -2.6828  2.0599
  437MOL0     H58946   2.445   4.014   4.904 -1.0529  2.7762  2.1115
  437MOL0     H58947   2.428   3.858   4.703  1.1712  0.6950  0.2889
  437MOL0     H58948   2.311   3.907   4.572  0.1929  0.9581 -0.9400
  437MOL0     H58949   2.515   3.852   4.454  0.2405  0.2763  0.6224
  437MOL0     H58950   2.485   4.026   4.452  3.6980 -0.0399 -1.5777
  437MOL0     H58951   2.637   4.077   4.631  1.8395  0.7037 -0.2030
  437MOL0     H58952   2.697   4.031   4.473  1.8668 -0.9838 -0.3015
  437MOL0     H58953   2.814   3.916   4.666 -2.5731  1.0953  4.5328
  437MOL0     H58954   2.768   3.824   4.524  1.1346  0.7715  0.7562
  437MOL0     H58955   2.540   3.613   4.829  0.0828 -1.2596 -0.8430
  437MOL0     H58956   2.618   3.374   4.890 -0.1489 -1.8807 -1.4753
  437MOL0     H58957   2.769   3.093   5.081 -1.6336  0.0864  0.0401
  437MOL0     H58958   2.783   2.846   5.139  2.1025 -1.2199  0.8584
  437MOL0     H58959   2.895   2.468   4.960 -0.6884 -0.4933 -2.0520
  437MOL0     H58960   2.965   2.556   4.825 -0.9973 -2.0550  0.3767
  437MOL0     H58961   3.165   2.480   4.933 -0.4842 -3.0594  3.6997
  437MOL0     H58962   3.138   2.643   4.995  1.6543 -0.8422 -0.4816
  437MOL0     H58963   3.063   2.374   5.116  0.4295 -0.4486 -0.0164
  437MOL0     H58964   3.212   2.469   5.163  0.0605  0.1943 -0.3181
  437MOL0     H58965   2.925   2.543   5.228 -1.2091 -0.2737  2.1058
  437MOL0     H58966   3.047   2.657   5.210 -1.9843 -0.4928  0.5354
  437MOL0     H58967   3.178   2.513   5.406 -0.3326 -0.3717  1.3276
  437MOL0     H58968   3.040   2.413   5.408  1.3057 -1.5709 -3.4259
  437MOL0     H58969   2.908   2.660   5.425  1.2222  2.2534 -2.3053
  437MOL0     H58970   2.997   2.595   5.573  1.3285  0.0966  0.4329
  437MOL0     H58971   3.164   2.745   5.372  1.8880 -0.7230  1.2747
  437MOL0     H58972   3.175   2.761   5.538 -1.5466  2.1190  0.9746
  437MOL0     H58973   3.074   2.973   5.465 -1.7309  0.7935 -2.0817
  437MOL0     H58974   2.938   2.883   5.399 -0.8401 -0.5582  2.4053
  437MOL0     H58975   2.988   2.773   4.761 -0.7799 -0.7792 -0.4666
  437MOL0     H58976   2.927   2.993   4.689 -0.0610 -0.8585 -0.3173
  437MOL0     H58977   2.988   3.485   4.693 -0.7292 -1.7316 -0.0310
  437MOL0     H58978   2.906   3.696   4.636  0.7042  0.6854  1.9730
  437MOL0     H58979   2.098   4.383   5.632  0.2220  2.8076 -3.7781
  437MOL0     H58980   1.958   4.188   5.686 -0.3581 -0.7956 -2.5576
  437MOL0     H58981   1.315   4.161   5.814 -1.2432  0.2940 -1.7646
  437MOL0     H58982   1.171   3.976   5.820  1.3470 -1.7607  3.0660
  437MOL0     H58983   1.065   3.620   5.756 -1.0368 -0.0985  1.9565
  437MOL0     H58984   1.048   3.787   5.757 -1.4199 -2.4770 -3.5287
  437MOL0     H58985   1.192   3.763   5.991  1.1086 -0.5733 -0.3375
  437MOL0     H58986   1.162   3.586   5.953  1.4947  0.9038  0.3303
  437MOL0     H58987   0.931   3.632   5.952  1.0567 -0.9079 -0.9231
  437MOL0     H58988   0.961   3.801   5.991 -1.5878 -1.1120  0.0147
  437MOL0     H58989   1.065   3.720   6.216  1.1151 -2.3957  3.5282
  437MOL0     H58990   0.896   3.681   6.202 -0.5384  1.4041 -2.5603
  437MOL0     H58991   1.066   3.294   6.144 -2.8155  0.3050 -1.5063
  437MOL0     H58992   1.485   3.726   5.672  2.3541  1.0868  1.1356
  437MOL0     H58993   1.703   3.984   5.551  2.3882  0.8849  1.4152
  437MOL0     H58994   1.730   3.866   5.689 -1.5386 -2.7001  0.5104
  437MOL0     H58995   1.649   3.814   5.549 -3.5670 -0.6289  2.8264
  438MOL0     O58996   0.956  11.449   3.807  0.4879  0.4731 -0.4367
  438MOL0     C58997   1.053  11.430   3.875  1.2421 -0.1305 -0.4649
  438MOL0     O58998   1.180  11.476   3.846 -0.1297  0.2515 -0.1525
  438MOL0     C58999   1.203  11.521   3.719  0.4163 -0.0701  0.2988
  438MOL0     C59000   1.135  11.632   3.681 -0.5085 -0.7188 -0.6911
  438MOL0     C59001   1.159  11.694   3.560  0.4890  0.4653  0.5463
  438MOL0     C59002   1.246  11.627   3.473 -0.0972 -0.5523 -0.1507
  438MOL0     O59003   1.255  11.684   3.348 -0.6039 -0.3994  0.0570
  438MOL0     C59004   1.386  11.673   3.280  0.7327  0.8261 -0.2247
  438MOL0     C59005   1.384  11.779   3.173 -0.3647  0.4755 -0.0193
  438MOL0     C59006   1.342  11.735   3.029  0.7202  0.4234  0.2052
  438MOL0     C59007   1.348  11.865   2.935  0.0125  1.1386  0.4107
  438MOL0     C59008   1.313  11.828   2.794 -0.2274  0.2480  0.0289
  438MOL0     C59009   1.166  11.818   2.762  0.5821 -0.2049  0.1883
  438MOL0     C59010   1.146  11.753   2.620  0.2826  0.0299 -0.5777
  438MOL0     C59011   0.998  11.758   2.579  0.4661  0.0112  0.2510
  438MOL0     N59012   0.945  11.884   2.525  0.0610  0.4478 -0.6400
  438MOL0     C59013   0.847  11.948   2.589 -0.6127 -0.6372 -0.6942
  438MOL0     C59014   0.838  12.054   2.509 -0.8164 -0.4535  0.4257
  438MOL0     C59015   0.756  12.178   2.538  0.5548  0.3075  0.1492
  438MOL0     C59016   0.790  12.249   2.673  0.0238  0.0972 -0.7915
  438MOL0     C59017   0.928  12.312   2.678 -0.8442 -0.5897  0.3899
  438MOL0     C59018   1.053  12.220   2.688  0.5611  0.5007 -0.2765
  438MOL0     O59019   1.020  12.135   2.801  0.2368  0.4081  0.3931
  438MOL0     C59020   1.052  12.175   2.932  0.0806 -0.4812 -0.0535
  438MOL0     C59021   1.079  12.306   2.974 -0.0611 -0.1345  0.5907
  438MOL0     C59022   1.097  12.336   3.106 -0.8762 -0.2085  0.5562
  438MOL0     C59023   1.092  12.222   3.197  0.6826  0.0631  0.6911
  438MOL0     C59024   1.093  12.234   3.346  0.3800  0.5277 -0.1895
  438MOL0     O59025   1.059  12.357   3.404 -0.0140 -0.9572  0.1476
  438MOL0     C59026   1.064  12.366   3.542 -1.0614  0.7444  1.1541
  438MOL0     C59027   0.949  12.368   3.620 -0.5032  0.6655 -0.2093
  438MOL0     C59028   0.957  12.358   3.756  0.1805 -0.2622  0.3830
  438MOL0     C59029   1.085  12.358   3.817  0.5397 -0.2540  0.4741
  438MOL0     O59030   1.091  12.348   3.959  0.3548  0.1791  0.1396
  438MOL0     C59031   0.979  12.403   4.028 -0.4662 -0.2931 -1.1168
  438MOL0     C59032   1.019  12.465   4.171 -0.1411 -0.8130  0.3400
  438MOL0     C59033   1.156  12.538   4.170 -1.0252  0.3030  0.2133
  438MOL0     C59034   1.174  12.619   4.301 -0.2299  0.2330 -0.4050
  438MOL0     C59035   1.327  12.619   4.323 -0.5292 -0.4191  0.0465
  438MOL0     C59036   1.353  12.695   4.459  0.2942  0.1881  0.1131
  438MOL0     C59037   1.492  12.746   4.496  1.0060 -0.0384 -0.1212
  438MOL0     C59038   1.602  12.634   4.496 -0.5504  0.2118 -0.3775
  438MOL0    Cl59039   1.753  12.709   4.551 -0.0672 -0.4111  0.2428
  438MOL0     C59040   1.199  12.354   3.734  0.0984 -0.3990 -0.4034
  438MOL0     C59041   1.192  12.366   3.598 -0.9675  1.7336 -0.3212
  438MOL0     O59042   1.123  12.136   3.413  0.7409  0.3261 -0.4335
  438MOL0     C59043   1.076  12.092   3.151 -0.0697 -0.0071 -0.1687
  438MOL0     C59044   1.050  12.071   3.017  0.3858  0.1093 -0.9380
  438MOL0     N59045   0.925  12.046   2.404 -0.0149 -0.5459  0.2039
  438MOL0     N59046   0.982  11.942   2.417  1.3441  0.6749 -0.0287
  438MOL0     C59047   1.309  11.505   3.509 -0.5131 -0.8701  0.1700
  438MOL0     C59048   1.293  11.456   3.633  0.2385 -1.0172 -0.9569
  438MOL0     C59049   1.046  11.352   4.012 -0.3884  0.4469  0.5482
  438MOL0     C59050   1.165  11.359   4.087 -0.6110 -0.4222  0.6938
  438MOL0     C59051   1.169  11.287   4.207  0.3848 -0.0489 -0.3466
  438MOL0     C59052   1.060  11.210   4.253 -1.2570 -0.7401  0.4374
  438MOL0     O59053   1.077  11.136   4.368 -0.1642  0.1464  0.0886
  438MOL0     C59054   1.115  11.199   4.492 -0.2052 -0.3976 -0.1369
  438MOL0     C59055   1.138  11.093   4.599 -0.0042 -0.0912 -0.2364
  438MOL0     C59056   1.008  11.016   4.645 -0.4958 -0.5421  0.1406
  438MOL0     C59057   1.040  10.931   4.762 -0.1456 -0.7386  0.0630
  438MOL0     C59058   1.145  10.835   4.734 -0.2211  0.0279  0.3151
  438MOL0     C59059   1.227  10.751   4.698  0.0380 -0.4679  0.2720
  438MOL0     C59060   0.946  11.213   4.176  0.3787 -0.1660  0.0098
  438MOL0     C59061   0.938  11.277   4.059 -1.1459  0.7019  0.4258
  438MOL0     C59062   0.811  11.263   3.973  0.2305 -0.0346  0.4829
  438MOL0     H59063   1.076  11.684   3.755  0.8043  1.3883 -1.0449
  438MOL0     H59064   1.114  11.790   3.536  1.9477  1.1890  0.6133
  438MOL0     H59065   1.464  11.695   3.354 -1.2051  0.2075  2.1067
  438MOL0     H59066   1.397  11.574   3.235  0.8620 -0.4154  2.3452
  438MOL0     H59067   1.488  11.811   3.170 -0.4497  0.8057  0.4536
  438MOL0     H59068   1.325  11.868   3.197 -4.5854 -2.3480  1.1824
  438MOL0     H59069   1.247  11.681   3.034  3.7202 -5.5013  2.1347
  438MOL0     H59070   1.411  11.657   2.995 -1.2509 -0.5348 -1.8363
  438MOL0     H59071   1.270  11.933   2.970  0.3192  1.8923 -0.3519
  438MOL0     H59072   1.443  11.920   2.934  0.8179 -0.2121 -1.2916
  438MOL0     H59073   1.363  11.899   2.728 -3.0364  1.5380 -0.8288
  438MOL0     H59074   1.355  11.733   2.760 -2.8589 -1.1042  0.3048
  438MOL0     H59075   1.104  11.760   2.830 -0.6042 -0.8188 -1.3580
  438MOL0     H59076   1.115  11.914   2.757 -1.4520 -1.2039  0.8542
  438MOL0     H59077   1.190  11.652   2.627 -0.3821 -0.1451  2.1328
  438MOL0     H59078   1.208  11.814   2.553  0.1276 -2.3576 -3.0758
  438MOL0     H59079   0.994  11.670   2.515 -0.1113 -0.0385  0.3485
  438MOL0     H59080   0.934  11.729   2.663 -1.3778  0.1094 -1.0594
  438MOL0     H59081   0.806  11.945   2.689 -1.5817 -0.0569 -1.0628
  438MOL0     H59082   0.766  12.254   2.460 -0.7462 -0.7408 -1.1215
  438MOL0     H59083   0.652  12.146   2.526  0.5335  0.4142  0.0470
  438MOL0     H59084   0.712  12.323   2.694  1.6639  1.2373  1.7590
  438MOL0     H59085   0.784  12.186   2.762  0.3014  1.1240 -0.0226
  438MOL0     H59086   0.926  12.395   2.749 -1.1229  3.1901 -3.5779
  438MOL0     H59087   0.945  12.357   2.579 -2.4986 -0.7963 -0.0274
  438MOL0     H59088   1.145  12.278   2.700  1.1984 -0.5797  0.2816
  438MOL0     H59089   1.069  12.167   2.594 -4.1061  2.6223 -2.5555
  438MOL0     H59090   1.078  12.381   2.896 -4.9869 -0.9382 -0.4497
  438MOL0     H59091   1.103  12.440   3.137 -3.2373  1.8757 -4.7319
  438MOL0     H59092   0.850  12.359   3.575 -0.5405 -2.3244  0.3059
  438MOL0     H59093   0.862  12.333   3.802 -0.7585  1.4112 -0.5661
  438MOL0     H59094   0.939  12.487   3.971 -0.9669  0.4514  0.2713
  438MOL0     H59095   0.901  12.330   4.049 -1.6177  1.1901  0.0131
  438MOL0     H59096   0.941  12.537   4.198 -1.6466 -0.9379 -3.1454
  438MOL0     H59097   1.026  12.386   4.246  2.4457 -2.6158 -1.6151
  438MOL0     H59098   1.239  12.467   4.160 -0.1118  1.5818 -1.9709
  438MOL0     H59099   1.172  12.606   4.086  4.0788  0.7141  1.1943
  438MOL0     H59100   1.133  12.569   4.389  0.1289  0.8909  0.1504
  438MOL0     H59101   1.123  12.717   4.298  0.3675  0.5276 -1.3063
  438MOL0     H59102   1.368  12.685   4.246  0.9908  0.9909  1.9498
  438MOL0     H59103   1.376  12.521   4.318  0.9578  0.2590  0.6930
  438MOL0     H59104   1.279  12.775   4.468  0.1672 -0.1435  3.5260
  438MOL0     H59105   1.328  12.622   4.536 -0.8668  0.8316  0.3751
  438MOL0     H59106   1.494  12.793   4.595 -1.2454 -0.0283 -0.0242
  438MOL0     H59107   1.515  12.823   4.421 -0.0618 -1.9709 -2.5708
  438MOL0     H59108   1.565  12.550   4.555  0.8062 -0.3248 -0.2600
  438MOL0     H59109   1.625  12.591   4.398  2.0444  3.0694 -1.1527
  438MOL0     H59110   1.295  12.351   3.784 -0.5524 -0.5157  0.9080
  438MOL0     H59111   1.275  12.386   3.530 -0.7561  1.6018 -0.1036
  438MOL0     H59112   1.062  12.008   3.218 -1.2284 -0.4558 -0.9306
  438MOL0     H59113   1.019  11.970   2.992  0.5326 -0.9714  2.7013
  438MOL0     H59114   1.376  11.453   3.441  0.6283  0.0469  0.5688
  438MOL0     H59115   1.350  11.370   3.665 -0.3609 -1.3347 -0.7156
  438MOL0     H59116   1.266  11.389   4.061 -0.4261 -2.4238 -1.1650
  438MOL0     H59117   1.261  11.275   4.264  0.5269  1.3488 -0.2627
  438MOL0     H59118   1.028  11.258   4.522 -0.5758 -1.2178  0.4620
  438MOL0     H59119   1.193  11.273   4.473 -0.9000 -0.0548 -1.8462
  438MOL0     H59120   1.178  11.144   4.687 -0.4079 -0.0680 -0.0639
  438MOL0     H59121   1.216  11.019   4.578  0.8748  0.3252  1.3472
  438MOL0     H59122   0.952  10.965   4.566 -1.2032  1.0019 -0.3868
  438MOL0     H59123   0.932  11.088   4.678 -1.0564  1.2118 -4.2523
  438MOL0     H59124   1.087  10.997   4.836 -1.3141 -1.2626  1.3050
  438MOL0     H59125   0.941  10.901   4.797 -0.3564 -0.4263 -0.2686
  438MOL0     H59126   1.287  10.663   4.689 -1.2621 -1.3954  0.3911
  438MOL0     H59127   0.864  11.147   4.204 -0.4591 -0.0061 -1.8948
  438MOL0     H59128   0.745  11.181   4.002 -0.4034  0.0818 -0.6037
  438MOL0     H59129   0.752  11.354   3.983  0.7521  0.6449 -1.9899
  438MOL0     H59130   0.839  11.246   3.869  3.7907  1.1866  1.0786
  439MOL0     O59131   0.325  11.188   5.145 -1.0993 -0.4582  0.2240
  439MOL0     C59132   0.409  11.233   5.222  0.1780 -0.1447  0.2279
  439MOL0     O59133   0.394  11.262   5.350 -0.5635  0.4143 -0.7295
  439MOL0     C59134   0.286  11.206   5.412 -0.2561  0.1290  0.8378
  439MOL0     C59135   0.150  11.255   5.401 -0.7049 -0.0829  0.9417
  439MOL0     C59136   0.038  11.194   5.457 -0.4459  0.4756 -0.6058
  439MOL0     C59137   0.068  11.079   5.533 -0.6325 -0.2152  0.2809
  439MOL0     O59138  -0.038  11.022   5.595  0.5155 -0.0796  0.5504
  439MOL0     C59139  -0.026  10.894   5.654 -0.7133 -0.1396  0.4364
  439MOL0     C59140  -0.146  10.809   5.659  0.3028  0.5748  0.4811
  439MOL0     C59141  -0.131  10.690   5.754  0.1830  0.6187  0.3741
  439MOL0     C59142  -0.253  10.599   5.772  0.4461  0.1703 -0.8909
  439MOL0     C59143  -0.256  10.505   5.897  0.1957 -0.2191 -0.3767
  439MOL0     C59144  -0.275  10.584   6.029  0.6665 -0.1598  0.1013
  439MOL0     C59145  -0.336  10.491   6.139 -0.7518 -0.8860 -0.1459
  439MOL0     C59146  -0.482  10.530   6.164 -0.2091  0.9690 -0.0295
  439MOL0     N59147  -0.570  10.472   6.060  0.1532  0.3838 -0.0447
  439MOL0     C59148  -0.593  10.527   5.934 -0.7988  0.8419  0.3882
  439MOL0     C59149  -0.632  10.416   5.861 -0.6328  0.0583 -0.3438
  439MOL0     C59150  -0.659  10.419   5.709 -0.1334  0.2933  0.4167
  439MOL0     C59151  -0.744  10.535   5.659  0.1938 -0.1857 -0.8338
  439MOL0     C59152  -0.896  10.517   5.690  0.1695  0.4049 -0.4444
  439MOL0     C59153  -0.959  10.433   5.578  0.4861  0.9415  0.0094
  439MOL0     O59154  -0.974  10.295   5.627 -0.4260 -1.2496  0.5677
  439MOL0     C59155  -0.984  10.200   5.535  0.5790 -0.8557  1.2056
  439MOL0     C59156  -0.998  10.068   5.582  0.2429 -0.1684 -0.6951
  439MOL0     C59157  -1.000   9.961   5.497  0.4548 -0.2900  0.1861
  439MOL0     C59158  -1.017   9.980   5.362  0.4187 -0.3851  0.5850
  439MOL0     C59159  -1.040   9.871   5.258  0.1941  0.0301  0.4913
  439MOL0     O59160  -1.056   9.750   5.324 -0.5567 -0.2782  0.2966
  439MOL0     C59161  -1.018   9.632   5.258  1.0287 -0.4857  0.5121
  439MOL0     C59162  -1.111   9.525   5.255 -0.1959 -0.5293 -0.1627
  439MOL0     C59163  -1.084   9.402   5.202 -1.1967 -0.6123  0.1544
  439MOL0     C59164  -0.956   9.379   5.143  0.4172 -0.3331 -0.7632
  439MOL0     O59165  -0.921   9.254   5.105  0.3495 -0.3218 -0.2777
  439MOL0     C59166  -1.007   9.157   5.052 -0.4765 -0.1242  0.0008
  439MOL0     C59167  -1.072   9.215   4.938 -0.0064 -0.2263 -0.7551
  439MOL0     C59168  -1.155   9.115   4.863 -0.0886 -0.1921 -0.6690
  439MOL0     C59169  -1.228   9.191   4.742 -0.2087 -0.3924 -0.1407
  439MOL0     C59170  -1.122   9.228   4.633  0.3806  0.0281 -0.0325
  439MOL0     C59171  -1.031   9.108   4.591  1.1683  1.1663  0.2422
  439MOL0     C59172  -0.941   9.147   4.476  0.0143 -0.1748  0.0958
  439MOL0     C59173  -0.870   9.024   4.405  0.7110  0.3945  0.1750
  439MOL0    Cl59174  -0.754   9.101   4.286 -0.1486 -0.5990 -0.0846
  439MOL0     C59175  -0.864   9.484   5.135 -0.0384  0.5273  0.2001
  439MOL0     C59176  -0.900   9.615   5.181  0.1117  0.3633 -0.7236
  439MOL0     O59177  -1.024   9.888   5.137 -0.3748  0.3698 -0.3439
  439MOL0     C59178  -1.020  10.109   5.317  0.7278 -0.1747  0.4527
  439MOL0     C59179  -0.996  10.217   5.398 -0.2570 -0.5000 -0.4990
  439MOL0     N59180  -0.639  10.303   5.939  0.0044 -0.6974 -0.6899
  439MOL0     N59181  -0.601  10.339   6.056 -0.5377 -0.3876 -0.3448
  439MOL0     C59182   0.195  11.029   5.548  0.4583 -0.6125 -0.7857
  439MOL0     C59183   0.305  11.088   5.482  1.2409 -0.1195 -0.5130
  439MOL0     C59184   0.551  11.244   5.160 -0.0556  0.1415  0.5183
  439MOL0     C59185   0.650  11.264   5.246  0.2982  0.7703  0.0861
  439MOL0     C59186   0.793  11.274   5.205  0.5535 -1.2687  0.1007
  439MOL0     C59187   0.816  11.232   5.075  0.0804 -0.4790  0.0693
  439MOL0     O59188   0.939  11.228   5.018  0.5347 -0.1056  0.1744
  439MOL0     C59189   1.027  11.343   5.040  0.1945 -0.6343 -0.2066
  439MOL0     C59190   1.168  11.304   5.047 -0.7028  0.8535  0.6867
  439MOL0     C59191   1.273  11.360   5.150 -0.0277  0.8768 -1.0640
  439MOL0     C59192   1.291  11.509   5.142 -0.4819 -0.5472  1.5625
  439MOL0     C59193   1.367  11.570   5.258  0.7828 -0.0075 -0.2427
  439MOL0     C59194   1.426  11.610   5.358  0.1013  0.9318 -0.0324
  439MOL0     C59195   0.713  11.215   4.981  0.8178  0.0247 -0.6256
  439MOL0     C59196   0.582  11.226   5.026  0.5409  0.0216 -0.1447
  439MOL0     C59197   0.472  11.230   4.921  0.2937 -0.3344 -0.1131
  439MOL0     H59198   0.141  11.346   5.342  0.5337 -0.7832 -0.4023
  439MOL0     H59199  -0.056  11.242   5.431  1.4517  3.1781 -3.1076
  439MOL0     H59200   0.041  10.831   5.595 -1.6727 -1.6021  0.8461
  439MOL0     H59201   0.016  10.902   5.754 -0.1588 -0.4735  0.2317
  439MOL0     H59202  -0.158  10.774   5.556  2.1325  0.4301  0.2812
  439MOL0     H59203  -0.229  10.866   5.700  0.4433 -0.6226  2.5277
  439MOL0     H59204  -0.099  10.729   5.851 -0.7444  1.6572  0.2850
  439MOL0     H59205  -0.042  10.636   5.720  1.2652  1.8036  1.2522
  439MOL0     H59206  -0.343  10.659   5.782  1.6778  1.9199  0.4465
  439MOL0     H59207  -0.265  10.542   5.679 -0.8112 -0.6061 -0.2782
  439MOL0     H59208  -0.345  10.443   5.885 -0.8537  1.2359 -0.4746
  439MOL0     H59209  -0.162  10.451   5.906 -0.4485 -1.0362  2.8641
  439MOL0     H59210  -0.173  10.611   6.060  0.3056 -0.1967  1.3652
  439MOL0     H59211  -0.327  10.680   6.023 -1.7775 -1.5011 -1.4927
  439MOL0     H59212  -0.291  10.515   6.236 -1.9565 -0.6356  0.3619
  439MOL0     H59213  -0.330  10.384   6.115 -6.5016 -1.3638 -0.8498
  439MOL0     H59214  -0.522  10.490   6.257  1.6151 -0.5148  0.1923
  439MOL0     H59215  -0.502  10.636   6.177 -0.7714  1.0537 -1.4042
  439MOL0     H59216  -0.580  10.631   5.908  0.8522  0.8159  1.0351
  439MOL0     H59217  -0.571  10.413   5.645 -3.1370 -1.0819 -4.0650
  439MOL0     H59218  -0.714  10.333   5.669  3.2394 -0.1751 -4.0051
  439MOL0     H59219  -0.705  10.629   5.700  0.1133  0.9892 -3.2566
  439MOL0     H59220  -0.712  10.546   5.555  3.3749 -1.1060 -0.0469
  439MOL0     H59221  -0.941  10.617   5.685  0.3117  0.4349 -1.3045
  439MOL0     H59222  -0.902  10.474   5.790  1.7319  0.6259 -0.2356
  439MOL0     H59223  -0.886  10.428   5.497  1.6300 -1.2881  1.0725
  439MOL0     H59224  -1.057  10.473   5.550 -0.2419 -1.8313 -1.8247
  439MOL0     H59225  -0.990  10.064   5.690  0.5480  0.5569 -0.6831
  439MOL0     H59226  -1.005   9.863   5.543  3.2617 -0.5575  0.1244
  439MOL0     H59227  -1.206   9.528   5.307 -0.2878  0.9535 -0.3718
  439MOL0     H59228  -1.151   9.317   5.195 -1.4183 -0.3809 -0.6295
  439MOL0     H59229  -0.942   9.077   5.017  0.1870  0.6489 -0.5549
  439MOL0     H59230  -1.072   9.122   5.133  0.5405 -0.2966  0.7626
  439MOL0     H59231  -1.129   9.306   4.959  3.1996  2.1150 -1.5037
  439MOL0     H59232  -0.984   9.237   4.878  0.8494 -1.3794  0.0212
  439MOL0     H59233  -1.093   9.031   4.830  0.1982 -0.7586  1.1769
  439MOL0     H59234  -1.233   9.074   4.928  1.5419 -0.3921  1.2429
  439MOL0     H59235  -1.283   9.280   4.773 -1.7368 -0.7639 -1.6270
  439MOL0     H59236  -1.293   9.115   4.697  3.9239 -3.8381 -0.9619
  439MOL0     H59237  -1.059   9.307   4.675 -0.0933  0.5829 -0.3579
  439MOL0     H59238  -1.172   9.279   4.550 -3.1873  0.0870  1.9352
  439MOL0     H59239  -0.973   9.080   4.679  0.7715 -1.1406 -0.1822
  439MOL0     H59240  -1.096   9.022   4.574  1.9235  0.3370  1.4689
  439MOL0     H59241  -0.863   9.206   4.524  2.4443 -0.6214 -2.9954
  439MOL0     H59242  -0.988   9.215   4.405 -0.2867  1.0838  1.4419
  439MOL0     H59243  -0.806   8.956   4.461 -1.6253 -3.2532 -1.1885
  439MOL0     H59244  -0.945   8.955   4.364  0.8735  0.0492  0.4549
  439MOL0     H59245  -0.766   9.468   5.091 -1.2736 -5.0459 -1.4185
  439MOL0     H59246  -0.821   9.690   5.179 -1.3714  1.9953 -0.1941
  439MOL0     H59247  -1.026  10.130   5.211  0.0896  1.3206  0.7698
  439MOL0     H59248  -0.972  10.311   5.350 -0.8429  0.1789  0.4946
  439MOL0     H59249   0.214  10.942   5.611 -0.4946 -0.2808 -0.0197
  439MOL0     H59250   0.402  11.041   5.496  0.2234 -2.5615 -1.0560
  439MOL0     H59251   0.632  11.282   5.352 -2.3137 -2.7004  0.3952
  439MOL0     H59252   0.872  11.301   5.275 -1.9433 -0.4519  2.7708
  439MOL0     H59253   0.989  11.399   5.126  0.1502  0.1936 -0.7533
  439MOL0     H59254   1.015  11.418   4.962 -2.7259 -0.5792  0.1806
  439MOL0     H59255   1.202  11.329   4.946 -2.7270 -2.0978 -0.8854
  439MOL0     H59256   1.162  11.196   5.064 -1.3338  0.5420 -1.3349
  439MOL0     H59257   1.370  11.311   5.150 -0.4461  0.0038 -0.0210
  439MOL0     H59258   1.236  11.333   5.249 -0.1750 -2.8403 -1.9839
  439MOL0     H59259   1.349  11.526   5.051 -2.6411 -4.8165 -0.9258
  439MOL0     H59260   1.196  11.562   5.126  1.0039  1.6176 -1.0085
  439MOL0     H59261   1.482  11.647   5.441  3.3304 -1.3769 -1.0004
  439MOL0     H59262   0.747  11.195   4.880  0.4107  0.8123 -0.9225
  439MOL0     H59263   0.517  11.276   4.832  0.8181  1.0869  0.8380
  439MOL0     H59264   0.434  11.130   4.897  0.9366 -0.3210 -1.2866
  439MOL0     H59265   0.389  11.295   4.949  0.9194  0.6373 -0.4257
  440MOL0     O59266   9.251   9.135   8.853  0.1341  0.0867  1.0391
  440MOL0     C59267   9.223   9.188   8.740  0.0505  0.2889 -0.5867
  440MOL0     O59268   9.314   9.188   8.633  0.4090  0.9071 -0.0097
  440MOL0     C59269   9.439   9.136   8.658 -0.7369 -0.1937 -0.8327
  440MOL0     C59270   9.542   9.226   8.691 -0.6329 -0.1114  0.6190
  440MOL0     C59271   9.677   9.182   8.695 -1.5269 -0.8011 -0.1821
  440MOL0     C59272   9.700   9.050   8.660 -0.5512 -0.9250 -0.8526
  440MOL0     O59273   9.819   8.994   8.670  0.1954 -0.0852 -0.0687
  440MOL0     C59274   9.911   9.026   8.560 -0.1559  0.4676  0.1349
  440MOL0     C59275  10.042   8.941   8.583  0.2707  1.0280  0.0835
  440MOL0     C59276  10.013   8.792   8.596 -0.1411 -0.1202  0.4882
  440MOL0     C59277  10.145   8.720   8.609 -0.6324  0.0837 -0.6115
  440MOL0     C59278  10.133   8.574   8.552  0.3149 -0.0103  0.7884
  440MOL0     C59279  10.252   8.482   8.589  0.3140 -0.0504 -0.2661
  440MOL0     C59280  10.383   8.531   8.540 -0.1865  0.2140 -0.0518
  440MOL0     C59281  10.490   8.442   8.604 -0.7021  0.2468 -0.8798
  440MOL0     N59282  10.624   8.502   8.586 -0.2189  0.5197 -0.2711
  440MOL0     C59283  10.677   8.593   8.669  0.9444  1.1834 -0.0675
  440MOL0     C59284  10.799   8.629   8.624  0.1708  0.1099  0.4094
  440MOL0     C59285  10.891   8.727   8.694 -0.6245  0.4767 -0.4410
  440MOL0     C59286  10.975   8.652   8.802  0.3271 -0.5697  0.8246
  440MOL0     C59287  11.072   8.735   8.873  0.0992  0.3234 -1.0237
  440MOL0     C59288  11.221   8.678   8.892 -0.5630 -0.2289  0.1126
  440MOL0     O59289  11.286   8.637   8.768  0.5527 -0.4037 -0.8686
  440MOL0     C59290  11.422   8.642   8.752 -0.0604  0.2631  0.8895
  440MOL0     C59291  11.510   8.654   8.865 -1.2733 -0.0240 -0.0318
  440MOL0     C59292  11.647   8.640   8.845 -0.3358  0.5133  0.1591
  440MOL0     C59293  11.708   8.607   8.724 -0.1061  0.1920  0.6551
  440MOL0     C59294  11.852   8.596   8.701  0.5074  0.1859 -0.0841
  440MOL0     O59295  11.926   8.625   8.810 -0.5180  0.7355  0.3267
  440MOL0     C59296  12.061   8.613   8.802 -0.2758  0.6913  0.4813
  440MOL0     C59297  12.135   8.513   8.730 -0.1846 -0.8953 -0.2708
  440MOL0     C59298  12.275   8.528   8.717  0.4703 -0.6437  0.2955
  440MOL0     C59299  12.341   8.643   8.764  1.0508  0.0965 -0.0101
  440MOL0     O59300  12.472   8.655   8.722 -0.1529 -0.5302  0.1840
  440MOL0     C59301  12.537   8.785   8.738  0.2482  0.3999 -0.4912
  440MOL0     C59302  12.650   8.799   8.633  0.8040 -0.8608  0.3282
  440MOL0     C59303  12.720   8.937   8.659  0.6296  0.1850 -0.3896
  440MOL0     C59304  12.807   8.955   8.790 -0.6632 -0.4851 -0.1179
  440MOL0     C59305  12.849   9.095   8.806 -1.5423 -0.2449 -0.4015
  440MOL0     C59306  12.976   9.103   8.902  0.3260  0.3131  0.0263
  440MOL0     C59307  13.044   9.237   8.919  0.0576 -0.1216  0.1103
  440MOL0     C59308  12.958   9.332   9.002 -0.4698  0.0584 -0.3148
  440MOL0    Cl59309  13.074   9.473   9.036  0.1191  0.6824 -0.2902
  440MOL0     C59310  12.273   8.731   8.842 -0.0214  0.4727 -0.1709
  440MOL0     C59311  12.140   8.714   8.863  0.4732 -0.0082 -0.7759
  440MOL0     O59312  11.888   8.570   8.590 -0.7113  0.1912 -0.0934
  440MOL0     C59313  11.619   8.606   8.615 -0.7137  0.5516 -0.4444
  440MOL0     C59314  11.477   8.620   8.626  0.0945  0.3210 -0.3943
  440MOL0     N59315  10.818   8.558   8.507  0.2070 -0.2468  0.1700
  440MOL0     N59316  10.710   8.484   8.479  0.1296  0.3031 -0.1953
  440MOL0     C59317   9.596   8.966   8.644 -0.1192  0.9952  0.4626
  440MOL0     C59318   9.460   9.006   8.639  0.5707 -0.1405 -0.4038
  440MOL0     C59319   9.089   9.240   8.709 -0.4907 -0.7120  0.2685
  440MOL0     C59320   9.076   9.335   8.601  0.5261  0.2935 -0.9266
  440MOL0     C59321   8.964   9.409   8.584 -0.3656 -0.1535  0.9201
  440MOL0     C59322   8.854   9.387   8.660  0.7016  0.3165 -0.4082
  440MOL0     O59323   8.731   9.455   8.647  0.2972  0.3006  0.7353
  440MOL0     C59324   8.723   9.569   8.561  0.6494 -0.2558 -0.3511
  440MOL0     C59325   8.589   9.641   8.601  0.1712  0.3077  0.5683
  440MOL0     C59326   8.467   9.553   8.614  0.3477  0.4387  0.7306
  440MOL0     C59327   8.340   9.609   8.688 -1.0459 -0.0658 -0.1421
  440MOL0     C59328   8.239   9.507   8.676  0.3127 -0.2924  0.4770
  440MOL0     C59329   8.161   9.420   8.664 -0.2648  0.5408 -0.4449
  440MOL0     C59330   8.863   9.291   8.762  0.1275 -0.0354 -1.1559
  440MOL0     C59331   8.977   9.225   8.797 -0.9629 -0.0160  0.6720
  440MOL0     C59332   8.965   9.137   8.922 -0.2597  0.8714  0.0980
  440MOL0     H59333   9.529   9.331   8.716 -0.0070  0.7961 -2.4177
  440MOL0     H59334   9.768   9.236   8.719 -2.6208  1.0004  0.1511
  440MOL0     H59335   9.861   8.992   8.469  1.2050  0.1729 -0.5348
  440MOL0     H59336   9.927   9.134   8.550 -2.8246  1.0786  1.4573
  440MOL0     H59337  10.080   8.986   8.675 -3.3468  1.1843  1.6802
  440MOL0     H59338  10.115   8.953   8.502  2.9044  1.4833  2.3854
  440MOL0     H59339   9.980   8.754   8.499  1.5986 -2.9715  0.9093
  440MOL0     H59340   9.957   8.774   8.689  4.1395  0.1927  3.3924
  440MOL0     H59341  10.222   8.775   8.554 -1.0696  1.7389  0.3489
  440MOL0     H59342  10.163   8.708   8.717 -2.5552 -2.0265 -0.4611
  440MOL0     H59343  10.044   8.523   8.591 -0.3260  1.1179  0.8477
  440MOL0     H59344  10.119   8.591   8.445 -0.0964  2.4274  1.1725
  440MOL0     H59345  10.265   8.472   8.697  0.8426  3.1886  0.0571
  440MOL0     H59346  10.232   8.383   8.548  2.0125 -2.0971  3.3147
  440MOL0     H59347  10.403   8.634   8.572 -1.1897 -0.3035  2.5506
  440MOL0     H59348  10.392   8.529   8.431  3.5330  2.7279  0.0473
  440MOL0     H59349  10.484   8.433   8.713  0.1459  1.7813 -0.6748
  440MOL0     H59350  10.490   8.343   8.556 -0.8693  0.9031 -2.2794
  440MOL0     H59351  10.633   8.627   8.762  1.0829  0.1642  0.3901
  440MOL0     H59352  10.955   8.778   8.622 -1.1433 -2.3575 -3.1086
  440MOL0     H59353  10.831   8.803   8.746 -0.9367  2.4361 -3.4256
  440MOL0     H59354  10.902   8.609   8.871  0.5575  0.8058  1.9890
  440MOL0     H59355  11.024   8.569   8.750 -0.1285 -0.9306  0.9618
  440MOL0     H59356  11.035   8.759   8.973  2.6098 -0.7257  0.2519
  440MOL0     H59357  11.092   8.828   8.819 -1.0304  1.4517  0.4217
  440MOL0     H59358  11.211   8.594   8.960 -2.1906  1.9652  2.7557
  440MOL0     H59359  11.274   8.754   8.951  1.1153  0.4050 -2.0602
  440MOL0     H59360  11.477   8.651   8.969  2.5262  0.4669  1.3650
  440MOL0     H59361  11.710   8.626   8.932  1.0533  0.0743 -0.8749
  440MOL0     H59362  12.086   8.432   8.676 -2.5223  0.7811 -0.8194
  440MOL0     H59363  12.333   8.470   8.646  3.7475  1.0481  1.4190
  440MOL0     H59364  12.464   8.865   8.722 -1.8139 -0.8901  1.7453
  440MOL0     H59365  12.569   8.790   8.843  0.2610  0.2179 -0.4862
  440MOL0     H59366  12.711   8.708   8.636 -0.8727 -2.0189  2.3572
  440MOL0     H59367  12.603   8.785   8.535  3.2363  1.1153 -1.2445
  440MOL0     H59368  12.780   8.957   8.569  0.0105 -0.6567 -1.0081
  440MOL0     H59369  12.638   9.008   8.673 -2.0525 -3.0537  1.6479
  440MOL0     H59370  12.895   8.890   8.783 -1.1475 -1.1479 -0.1716
  440MOL0     H59371  12.752   8.919   8.877 -1.0972 -0.8884 -0.5537
  440MOL0     H59372  12.769   9.163   8.836 -0.3341 -0.0499  2.8291
  440MOL0     H59373  12.881   9.131   8.708 -1.2802  0.7198  0.0198
  440MOL0     H59374  12.952   9.052   8.996 -3.7816  1.0018 -0.4519
  440MOL0     H59375  13.051   9.031   8.867  0.9305 -0.7146  3.1352
  440MOL0     H59376  13.048   9.274   8.817 -0.2077 -2.8498 -0.9632
  440MOL0     H59377  13.149   9.248   8.945  1.2762 -0.3932 -4.0473
  440MOL0     H59378  12.870   9.369   8.949 -0.5673  0.3154  0.0178
  440MOL0     H59379  12.923   9.284   9.094  2.9151 -0.7027  0.7254
  440MOL0     H59380  12.308   8.813   8.904  0.5996 -0.5340  0.8433
  440MOL0     H59381  12.085   8.792   8.914 -0.1283  1.9243 -4.0771
  440MOL0     H59382  11.663   8.596   8.516 -0.4023 -0.1864 -0.2341
  440MOL0     H59383  11.408   8.596   8.546 -0.7148 -0.7123  0.5717
  440MOL0     H59384   9.610   8.859   8.633  0.8687  1.0508  1.0839
  440MOL0     H59385   9.373   8.942   8.628  0.2354  0.6370 -2.8947
  440MOL0     H59386   9.163   9.364   8.544  0.9730  3.8474  1.2628
  440MOL0     H59387   8.965   9.483   8.505 -0.3860  0.0152  1.0777
  440MOL0     H59388   8.726   9.527   8.460  3.7155  2.7437 -1.7112
  440MOL0     H59389   8.808   9.637   8.572  0.5935 -0.2737  0.1881
  440MOL0     H59390   8.568   9.707   8.516 -1.2192 -1.7261 -0.7684
  440MOL0     H59391   8.602   9.691   8.697  0.4205 -3.9314  2.9633
  440MOL0     H59392   8.486   9.459   8.667 -4.7383 -0.5842  1.2378
  440MOL0     H59393   8.444   9.538   8.508  2.6137  4.3679 -0.5388
  440MOL0     H59394   8.361   9.607   8.796 -0.9932 -1.6093 -0.1584
  440MOL0     H59395   8.307   9.706   8.652 -1.8040 -0.9048 -1.8240
  440MOL0     H59396   8.081   9.349   8.655 -0.3491  0.7043 -1.0901
  440MOL0     H59397   8.772   9.275   8.819  1.3642 -3.8854  0.0508
  440MOL0     H59398   9.041   9.165   8.995  0.6291  1.2299 -0.9363
  440MOL0     H59399   8.871   9.140   8.979 -1.6083  1.6384 -2.0355
  440MOL0     H59400   8.973   9.034   8.884  0.0421  0.9453 -0.0384
  441MOL0     O59401   2.293   1.066  11.042 -0.2256  0.2957 -0.7769
  441MOL0     C59402   2.210   1.034  11.124  0.7235 -0.0014  0.0194
  441MOL0     O59403   2.232   0.941  11.221  0.5431 -0.7142  0.2262
  441MOL0     C59404   2.351   0.872  11.238 -0.9231 -0.8609 -0.0340
  441MOL0     C59405   2.478   0.922  11.204  0.4050  0.6759 -0.6977
  441MOL0     C59406   2.588   0.838  11.227 -0.6432 -0.8878 -0.9009
  441MOL0     C59407   2.574   0.718  11.307  0.6544 -0.3453 -0.3107
  441MOL0     O59408   2.673   0.625  11.328 -0.5282  0.5636  0.3472
  441MOL0     C59409   2.809   0.658  11.305 -1.1200 -0.2632 -0.6187
  441MOL0     C59410   2.852   0.633  11.168 -0.5025  0.3309 -0.2609
  441MOL0     C59411   3.004   0.668  11.144 -0.3745 -0.0477  0.2922
  441MOL0     C59412   3.055   0.606  11.014 -0.3838 -0.2583  0.6240
  441MOL0     C59413   3.200   0.643  10.987 -0.4671  0.0790  0.0119
  441MOL0     C59414   3.273   0.552  10.893 -0.1324 -0.9017 -0.5221
  441MOL0     C59415   3.409   0.609  10.875  0.7829 -0.9995 -0.2408
  441MOL0     C59416   3.451   0.580  10.731 -0.5012 -0.3398  0.1056
  441MOL0     N59417   3.599   0.616  10.709  0.0754 -1.8900  0.4659
  441MOL0     C59418   3.670   0.729  10.740  0.1565 -0.9921  0.4378
  441MOL0     C59419   3.800   0.711  10.684  0.6660 -0.1696  0.4804
  441MOL0     C59420   3.916   0.813  10.688  0.4496  0.0273  0.2710
  441MOL0     C59421   3.910   0.904  10.810  0.1217 -0.4607  0.3953
  441MOL0     C59422   4.040   0.973  10.827 -0.0142  0.4213  0.3666
  441MOL0     C59423   4.067   1.087  10.725 -0.1996 -0.3191  0.7937
  441MOL0     O59424   3.949   1.158  10.675 -1.0532 -0.8311  0.6445
  441MOL0     C59425   3.963   1.285  10.620  0.1625  0.9300  0.4735
  441MOL0     C59426   4.088   1.345  10.594 -0.6457 -0.4186 -0.0807
  441MOL0     C59427   4.098   1.460  10.519  0.1205 -0.3137  0.4491
  441MOL0     C59428   3.987   1.520  10.459  0.2627 -0.4854 -0.0871
  441MOL0     C59429   3.991   1.657  10.388  0.6211  0.4388 -0.9062
  441MOL0     O59430   3.874   1.702  10.326  0.6017  0.5548  0.1792
  441MOL0     C59431   3.871   1.817  10.256 -0.2634  0.3742  0.2088
  441MOL0     C59432   3.963   1.852  10.164  0.4887 -0.5073 -0.5568
  441MOL0     C59433   3.963   1.976  10.102  0.1345  0.7496 -0.0216
  441MOL0     C59434   3.862   2.065  10.130  0.8088 -0.6840  0.2279
  441MOL0     O59435   3.850   2.186  10.063 -0.1691 -0.7072 -0.2318
  441MOL0     C59436   3.967   2.255  10.020 -1.3654  1.0256  0.2828
  441MOL0     C59437   3.947   2.391   9.933  0.8706 -0.1630 -0.0817
  441MOL0     C59438   4.073   2.441   9.860  0.4846 -0.8899  1.1152
  441MOL0     C59439   4.046   2.537   9.744  0.2384  0.4509 -0.3931
  441MOL0     C59440   4.171   2.616   9.707  0.7416 -0.4310 -0.5195
  441MOL0     C59441   4.177   2.665   9.565  0.2137  0.2656 -0.5782
  441MOL0     C59442   4.073   2.770   9.537  0.2500  0.2262  0.8178
  441MOL0     C59443   4.065   2.812   9.397  0.7347  1.1662 -0.2037
  441MOL0    Cl59444   3.979   2.964   9.376  0.1591  0.2283 -0.0040
  441MOL0     C59445   3.758   2.022  10.223  0.6145  0.2487  0.0272
  441MOL0     C59446   3.766   1.898  10.284  0.5794 -0.0696  0.5577
  441MOL0     O59447   4.104   1.717  10.381  0.1198  0.1662  0.1116
  441MOL0     C59448   3.861   1.460  10.480  1.6328  0.5902 -0.0125
  441MOL0     C59449   3.850   1.346  10.561  0.2934  0.1467 -0.2091
  441MOL0     N59450   3.792   0.596  10.621 -0.2014  0.5454  0.7932
  441MOL0     N59451   3.682   0.537  10.640  0.0085  0.3732 -0.1520
  441MOL0     C59452   2.444   0.678  11.354 -0.0797 -0.4423  0.0681
  441MOL0     C59453   2.326   0.756  11.318 -0.5606 -0.2662  0.0110
  441MOL0     C59454   2.079   1.114  11.108  0.3827  0.2732  0.0404
  441MOL0     C59455   2.057   1.203  11.004 -0.4845 -0.1534 -0.2841
  441MOL0     C59456   1.928   1.255  10.966  0.1004 -0.4297 -0.5503
  441MOL0     C59457   1.819   1.224  11.046  0.1175 -0.0415 -0.2417
  441MOL0     O59458   1.705   1.289  11.011  0.1228 -0.0883  0.4399
  441MOL0     C59459   1.621   1.336  11.116  0.1099  0.1717 -0.0387
  441MOL0     C59460   1.518   1.428  11.056  0.4625  0.4754  0.0703
  441MOL0     C59461   1.428   1.350  10.943 -0.7642 -0.7473 -0.2257
  441MOL0     C59462   1.312   1.441  10.898  0.2238  0.4609  0.4430
  441MOL0     C59463   1.218   1.456  11.009  0.4085  0.2326 -0.4173
  441MOL0     C59464   1.139   1.478  11.093  0.3208  0.5991 -0.9301
  441MOL0     C59465   1.845   1.143  11.156 -0.6098 -0.1167 -1.1952
  441MOL0     C59466   1.966   1.083  11.183 -0.1446  0.0484 -0.2609
  441MOL0     C59467   1.968   0.991  11.296  0.5854 -0.0148 -0.4950
  441MOL0     H59468   2.481   1.019  11.156 -2.2399  0.3977 -1.5505
  441MOL0     H59469   2.683   0.884  11.205 -1.5006  2.2733  1.2316
  441MOL0     H59470   2.834   0.764  11.307  3.1379 -1.0015 -2.4105
  441MOL0     H59471   2.876   0.596  11.365 -1.3372  1.1028  1.0919
  441MOL0     H59472   2.790   0.689  11.098 -0.9977  0.4554  0.2687
  441MOL0     H59473   2.846   0.525  11.153 -1.7322  0.3842 -0.2259
  441MOL0     H59474   3.067   0.629  11.225  0.4907  0.1734 -0.2588
  441MOL0     H59475   3.011   0.777  11.142  2.9936 -0.1532 -1.9969
  441MOL0     H59476   3.037   0.499  11.010  0.3651 -0.3913  0.5589
  441MOL0     H59477   2.999   0.663  10.940  1.8965 -0.2507 -1.2319
  441MOL0     H59478   3.191   0.744  10.947  1.5406 -0.2594 -1.4445
  441MOL0     H59479   3.249   0.658  11.084 -0.3121  1.5822 -0.2856
  441MOL0     H59480   3.285   0.455  10.943 -2.5098 -1.2688 -0.5157
  441MOL0     H59481   3.224   0.538  10.796  1.6870 -1.1433 -1.4539
  441MOL0     H59482   3.482   0.587  10.953  0.2270 -1.0203  0.2800
  441MOL0     H59483   3.410   0.719  10.868 -0.4169 -0.8448  1.4999
  441MOL0     H59484   3.418   0.482  10.696 -1.6390  0.1774 -0.3222
  441MOL0     H59485   3.399   0.655  10.670 -2.3324 -2.6907 -1.4036
  441MOL0     H59486   3.645   0.811  10.806 -1.4524 -1.3565  0.3427
  441MOL0     H59487   4.010   0.759  10.705 -0.4795 -1.2752  1.4743
  441MOL0     H59488   3.920   0.866  10.592 -2.0208 -0.9649 -0.4576
  441MOL0     H59489   3.830   0.978  10.797 -0.3543 -0.8723  0.9617
  441MOL0     H59490   3.882   0.855  10.903 -1.6264 -0.3123 -0.0024
  441MOL0     H59491   4.118   0.896  10.832 -3.6704 -3.6185  2.7777
  441MOL0     H59492   4.022   1.020  10.924 -4.6854  1.3271 -0.7242
  441MOL0     H59493   4.119   1.046  10.638 -0.0898 -0.1094  0.7587
  441MOL0     H59494   4.133   1.166  10.765 -1.0988  1.5680 -1.2214
  441MOL0     H59495   4.187   1.322  10.633 -0.4527  1.7356  0.8375
  441MOL0     H59496   4.193   1.510  10.502 -1.9436  3.4654 -1.4107
  441MOL0     H59497   4.050   1.793  10.136  1.2155 -0.4063  1.3070
  441MOL0     H59498   4.027   1.998  10.016  0.6246  0.6997  0.3266
  441MOL0     H59499   4.026   2.278  10.110 -0.0799 -1.1273  0.0678
  441MOL0     H59500   4.020   2.189   9.950  1.6282 -0.1856  3.3815
  441MOL0     H59501   3.869   2.370   9.859  2.8215 -2.3398 -1.6880
  441MOL0     H59502   3.906   2.466  10.001  2.5412  0.0985  0.6908
  441MOL0     H59503   4.143   2.494   9.925  0.6629 -1.5367  1.4602
  441MOL0     H59504   4.119   2.356   9.809 -1.8191 -2.0550  0.8258
  441MOL0     H59505   3.958   2.600   9.762  0.1015 -0.3092  2.0088
  441MOL0     H59506   4.022   2.469   9.662  2.5258  0.2069 -0.9267
  441MOL0     H59507   4.260   2.557   9.732  1.0721  0.9596  1.9500
  441MOL0     H59508   4.174   2.709   9.765 -0.0590 -0.0693 -1.0461
  441MOL0     H59509   4.274   2.713   9.548  0.4823  0.3974  1.1544
  441MOL0     H59510   4.156   2.577   9.505 -2.2231  0.1573  0.3217
  441MOL0     H59511   4.095   2.858   9.598  0.4140 -2.5374  5.1561
  441MOL0     H59512   3.975   2.736   9.574  0.9920 -2.4250  0.5408
  441MOL0     H59513   4.165   2.811   9.353  0.6131 -1.0122 -0.5786
  441MOL0     H59514   4.010   2.731   9.347  1.5170  0.0953  0.6154
  441MOL0     H59515   3.674   2.087  10.246  1.2592  1.1703 -0.1426
  441MOL0     H59516   3.687   1.885  10.357 -0.3198  1.1071 -0.1592
  441MOL0     H59517   3.765   1.494  10.443  0.2648 -0.7635  2.0778
  441MOL0     H59518   3.751   1.301  10.558  0.1389  0.4842 -3.2441
  441MOL0     H59519   2.428   0.588  11.412  0.8058  0.5790  1.9601
  441MOL0     H59520   2.227   0.710  11.321 -1.3179  0.4609 -5.1215
  441MOL0     H59521   2.131   1.223  10.928  0.5887  0.3265  0.8677
  441MOL0     H59522   1.912   1.317  10.878 -2.4026 -1.5701 -1.0050
  441MOL0     H59523   1.673   1.389  11.197  0.1578  1.6651 -1.0051
  441MOL0     H59524   1.581   1.248  11.166  0.0679 -2.1178 -3.7232
  441MOL0     H59525   1.568   1.518  11.018 -1.2156  2.2587  1.8406
  441MOL0     H59526   1.449   1.464  11.133  1.7427  0.1110  1.4370
  441MOL0     H59527   1.388   1.262  10.993 -0.3308 -0.6881  0.2284
  441MOL0     H59528   1.491   1.309  10.863  1.1763 -3.1886  2.3761
  441MOL0     H59529   1.338   1.544  10.873  1.1204 -0.8046 -5.2313
  441MOL0     H59530   1.262   1.404  10.808 -1.7958 -0.6241  1.9384
  441MOL0     H59531   1.051   1.515  11.142 -1.2578 -1.8449 -1.7268
  441MOL0     H59532   1.766   1.128  11.228  1.1943 -1.4175  0.6362
  441MOL0     H59533   1.960   0.885  11.272  0.2629 -0.1203  0.0636
  441MOL0     H59534   2.059   1.015  11.352 -0.3502  0.2945  0.9523
  441MOL0     H59535   1.884   1.002  11.364  1.3738 -1.5014  0.7814
  442MOL0     O59536   8.463   5.720   3.745 -0.6383 -0.6596 -0.3403
  442MOL0     C59537   8.543   5.709   3.644 -0.2397  0.1264 -0.0699
  442MOL0     O59538   8.673   5.759   3.646 -0.2766  0.1100  0.2728
  442MOL0     C59539   8.745   5.818   3.748 -0.2786 -0.1346 -0.0277
  442MOL0     C59540   8.888   5.825   3.727  0.1814  0.2262  0.0566
  442MOL0     C59541   8.965   5.871   3.837 -0.1252 -0.0824  1.0882
  442MOL0     C59542   8.911   5.908   3.955  1.1767  0.7124  0.0653
  442MOL0     O59543   8.996   5.939   4.059 -0.0620  0.0654  0.2020
  442MOL0     C59544   8.968   5.873   4.187  0.1489 -0.6352  0.2593
  442MOL0     C59545   8.974   5.715   4.196 -0.2015  0.5988 -0.5099
  442MOL0     C59546   9.121   5.666   4.185 -0.2866 -0.5734  0.5385
  442MOL0     C59547   9.118   5.520   4.233  0.2904 -0.1452 -0.0381
  442MOL0     C59548   9.257   5.462   4.226  0.2829 -0.1930 -0.1567
  442MOL0     C59549   9.257   5.304   4.250 -0.3141  0.2191 -0.3314
  442MOL0     C59550   9.399   5.240   4.258  0.4690 -0.4075  0.4512
  442MOL0     C59551   9.375   5.098   4.295  0.2732 -0.7457  0.0312
  442MOL0     N59552   9.504   5.017   4.272  0.3561 -0.4815  0.2578
  442MOL0     C59553   9.593   5.028   4.170 -0.8372  0.2191 -0.6632
  442MOL0     C59554   9.685   4.936   4.188  0.9189 -0.1138 -1.2181
  442MOL0     C59555   9.813   4.924   4.110  0.2394  1.1399 -0.4013
  442MOL0     C59556   9.931   5.012   4.161  0.4821 -0.4982 -0.9587
  442MOL0     C59557  10.036   5.034   4.059  0.1796 -0.7334  0.2592
  442MOL0     C59558  10.110   4.911   4.008 -1.1297  0.9494 -0.1630
  442MOL0     O59559  10.183   4.850   4.114  0.3418 -0.2322  0.7699
  442MOL0     C59560  10.305   4.809   4.103 -0.7126 -0.0228 -0.0728
  442MOL0     C59561  10.341   4.729   3.997  0.3782 -0.2534 -0.4401
  442MOL0     C59562  10.462   4.670   3.992 -0.4918  0.2350  0.6016
  442MOL0     C59563  10.548   4.669   4.100 -0.4355  0.0923  0.2902
  442MOL0     C59564  10.688   4.604   4.087 -0.4369  1.1603 -0.1727
  442MOL0     O59565  10.759   4.589   4.213 -0.4446  0.4321  0.6021
  442MOL0     C59566  10.865   4.500   4.209  0.8143  0.7609  0.5500
  442MOL0     C59567  10.845   4.362   4.178  0.2084  0.5497  0.1942
  442MOL0     C59568  10.953   4.276   4.181  1.1064 -0.2278  0.4702
  442MOL0     C59569  11.082   4.319   4.209 -0.3467 -0.3489  0.0585
  442MOL0     O59570  11.182   4.226   4.208  0.3443  0.0569 -0.1157
  442MOL0     C59571  11.308   4.238   4.151  0.6329 -0.0801  1.2493
  442MOL0     C59572  11.335   4.107   4.077  0.8067  0.0571 -0.6312
  442MOL0     C59573  11.254   4.103   3.944  1.2596 -0.5862  0.6717
  442MOL0     C59574  11.281   3.971   3.882  0.6179 -0.4300 -0.1923
  442MOL0     C59575  11.196   3.855   3.944 -0.6185  0.4166  0.4657
  442MOL0     C59576  11.225   3.727   3.864 -0.1662 -0.2131  0.3980
  442MOL0     C59577  11.139   3.613   3.913  0.4345  0.8369 -1.0322
  442MOL0     C59578  10.986   3.638   3.884 -0.0789 -0.4430  0.6436
  442MOL0    Cl59579  10.896   3.494   3.925  0.0312 -0.0680  0.3313
  442MOL0     C59580  11.104   4.448   4.246  0.2408  0.4060  0.4271
  442MOL0     C59581  10.993   4.537   4.234 -0.1702  0.2964 -0.1002
  442MOL0     O59582  10.740   4.581   3.977 -0.1191  0.3826  0.5530
  442MOL0     C59583  10.510   4.749   4.210  0.6952  0.5026  0.6460
  442MOL0     C59584  10.385   4.816   4.217 -0.1880  0.6935  0.8139
  442MOL0     N59585   9.651   4.857   4.296 -0.0104 -0.5825 -0.8401
  442MOL0     N59586   9.544   4.918   4.351  0.2681 -0.5689 -0.2130
  442MOL0     C59587   8.771   5.898   3.967 -1.0455  0.9499  0.1513
  442MOL0     C59588   8.682   5.861   3.863 -0.4540  0.4903 -0.7187
  442MOL0     C59589   8.495   5.652   3.518 -0.1539  0.2328 -0.2523
  442MOL0     C59590   8.591   5.629   3.422  0.0161  0.1211  0.0947
  442MOL0     C59591   8.563   5.609   3.286 -0.5568  0.2571 -0.9106
  442MOL0     C59592   8.439   5.594   3.240  1.2646  0.5162  0.5574
  442MOL0     O59593   8.408   5.582   3.106  0.6359 -0.1275  1.0423
  442MOL0     C59594   8.423   5.450   3.062 -0.8595  1.0522  0.5346
  442MOL0     C59595   8.529   5.434   2.957 -0.0688 -0.8370  0.9191
  442MOL0     C59596   8.666   5.388   3.019 -0.3060 -0.5245  0.1283
  442MOL0     C59597   8.764   5.336   2.922  0.5072 -0.3976  0.0932
  442MOL0     C59598   8.779   5.419   2.803  0.6209 -0.4212 -0.5254
  442MOL0     C59599   8.786   5.480   2.697 -0.0127 -0.4777  0.0172
  442MOL0     C59600   8.327   5.593   3.338 -0.9290 -0.1098  0.0450
  442MOL0     C59601   8.360   5.623   3.474 -0.1451 -0.7995  0.2752
  442MOL0     C59602   8.237   5.639   3.563  0.5720 -0.1928 -0.2286
  442MOL0     H59603   8.926   5.771   3.641  1.0896 -0.3411  0.7888
  442MOL0     H59604   9.071   5.878   3.814 -0.2475 -0.7913  0.2359
  442MOL0     H59605   9.050   5.906   4.252  0.2769  0.6302 -0.5194
  442MOL0     H59606   8.874   5.912   4.226 -0.3828 -0.2288 -1.3418
  442MOL0     H59607   8.916   5.661   4.121 -1.7657  1.4561  0.0386
  442MOL0     H59608   8.936   5.684   4.293 -0.6484  1.0122 -0.5505
  442MOL0     H59609   9.182   5.732   4.246  2.5014  0.8659 -3.4172
  442MOL0     H59610   9.162   5.669   4.084  0.4689 -1.0613  0.8142
  442MOL0     H59611   9.090   5.515   4.338 -2.1796  1.1816 -0.5625
  442MOL0     H59612   9.043   5.466   4.174  1.2686 -1.7741  0.1173
  442MOL0     H59613   9.300   5.477   4.127  1.1815  1.2819  0.4249
  442MOL0     H59614   9.331   5.515   4.287  0.7728  1.1926 -1.8831
  442MOL0     H59615   9.197   5.287   4.340 -1.9353 -1.5399 -1.6446
  442MOL0     H59616   9.201   5.259   4.167  1.8745  0.9925 -2.3205
  442MOL0     H59617   9.471   5.279   4.331  1.2815  0.5861 -0.8384
  442MOL0     H59618   9.441   5.253   4.158 -1.4385 -1.9883 -0.6163
  442MOL0     H59619   9.351   5.097   4.402 -1.9439  3.6566 -0.1983
  442MOL0     H59620   9.294   5.053   4.237 -0.8647 -0.6659  1.4921
  442MOL0     H59621   9.605   5.105   4.095 -1.3995  4.5180  3.1772
  442MOL0     H59622   9.846   4.820   4.105 -1.9158  0.4446 -3.5374
  442MOL0     H59623   9.790   4.955   4.007 -0.0138  1.8779 -0.1318
  442MOL0     H59624   9.891   5.108   4.195  2.5509 -0.6044  2.2839
  442MOL0     H59625   9.980   4.970   4.250  0.9359 -0.9398 -1.4116
  442MOL0     H59626  10.114   5.097   4.103  1.8629 -1.1854 -1.8885
  442MOL0     H59627   9.993   5.084   3.972  2.5417  0.3813 -0.3698
  442MOL0     H59628  10.169   4.936   3.919 -0.8290 -0.9040 -0.5200
  442MOL0     H59629  10.034   4.839   3.975 -1.3809  2.3621 -3.0370
  442MOL0     H59630  10.283   4.721   3.905  0.8526  0.0573 -0.7743
  442MOL0     H59631  10.504   4.628   3.901 -0.9857 -0.4519  0.6842
  442MOL0     H59632  10.751   4.328   4.134  0.1035 -1.2831  1.7085
  442MOL0     H59633  10.933   4.175   4.149  1.5169 -0.0212 -0.5034
  442MOL0     H59634  11.324   4.316   4.076  1.8601 -1.8119 -0.3489
  442MOL0     H59635  11.389   4.239   4.224 -0.0215 -0.9566  2.0187
  442MOL0     H59636  11.442   4.102   4.056  0.6976 -1.1207 -0.9706
  442MOL0     H59637  11.299   4.030   4.145  0.7286 -0.9317 -1.7643
  442MOL0     H59638  11.149   4.134   3.955  1.7038  2.5464 -2.0870
  442MOL0     H59639  11.301   4.172   3.873 -1.6685  0.6726 -0.1908
  442MOL0     H59640  11.390   3.959   3.885  0.7406  0.4564 -0.8356
  442MOL0     H59641  11.244   3.988   3.781  0.6920  5.6655  0.4678
  442MOL0     H59642  11.091   3.882   3.933 -1.0899 -2.1502 -2.8013
  442MOL0     H59643  11.206   3.819   4.047 -1.6219  1.7284  1.0387
  442MOL0     H59644  11.205   3.753   3.760  4.7808  0.6707 -0.5908
  442MOL0     H59645  11.332   3.705   3.874  0.7057  1.9362 -2.7354
  442MOL0     H59646  11.157   3.599   4.020  2.3015  2.4743 -1.0716
  442MOL0     H59647  11.177   3.527   3.857  1.7598  0.4309  0.4340
  442MOL0     H59648  10.944   3.729   3.927  1.5240  0.1578  0.9958
  442MOL0     H59649  10.974   3.643   3.775 -1.9543 -1.7043  0.7503
  442MOL0     H59650  11.194   4.495   4.283  0.7103  1.4524 -1.8508
  442MOL0     H59651  11.013   4.643   4.236  3.0916 -0.2008  1.9466
  442MOL0     H59652  10.575   4.741   4.296  1.4958 -0.6615 -0.0427
  442MOL0     H59653  10.366   4.887   4.296 -1.3324  0.5500  0.6790
  442MOL0     H59654   8.720   5.919   4.061 -0.3204 -1.1665  1.0895
  442MOL0     H59655   8.575   5.866   3.880 -0.1897 -0.7768  1.7029
  442MOL0     H59656   8.696   5.637   3.448 -0.1557  2.6036  0.2256
  442MOL0     H59657   8.645   5.602   3.215 -0.7915 -3.6212 -1.0156
  442MOL0     H59658   8.331   5.422   3.009 -1.9118 -0.6867  3.1002
  442MOL0     H59659   8.448   5.377   3.139  1.8019  2.0787  0.7482
  442MOL0     H59660   8.538   5.521   2.891 -2.5519 -1.7626 -0.7970
  442MOL0     H59661   8.507   5.354   2.887  0.4411  0.1326 -0.3893
  442MOL0     H59662   8.643   5.304   3.085  1.7014 -1.1085  0.1682
  442MOL0     H59663   8.721   5.462   3.079 -0.0476 -2.0008  1.7953
  442MOL0     H59664   8.865   5.321   2.960  1.4311 -0.0785 -2.0900
  442MOL0     H59665   8.728   5.236   2.896 -1.0327 -0.6398  2.7725
  442MOL0     H59666   8.800   5.519   2.598  0.2303 -2.5111 -0.7932
  442MOL0     H59667   8.230   5.579   3.293  0.2781 -1.4670 -2.3145
  442MOL0     H59668   8.155   5.576   3.529  0.2404 -0.3936  0.8912
  442MOL0     H59669   8.268   5.606   3.663  0.7454  0.5195 -0.0437
  442MOL0     H59670   8.209   5.744   3.563  3.0365  0.5475  0.5455
  443MOL0     O59671   7.272   2.597   5.676 -0.3159 -0.4124  0.4103
  443MOL0     C59672   7.316   2.560   5.780  0.8510  0.3325  0.1823
  443MOL0     O59673   7.348   2.647   5.883  0.0181 -0.1353  0.8347
  443MOL0     C59674   7.288   2.772   5.879 -1.2552 -0.0466  0.2590
  443MOL0     C59675   7.368   2.871   5.937  0.3808  0.0769  0.0473
  443MOL0     C59676   7.313   3.000   5.957  0.6956  0.4951  0.3931
  443MOL0     C59677   7.178   3.034   5.930  0.0426  0.5984 -0.3006
  443MOL0     O59678   7.133   3.157   5.960 -0.4537  0.5711 -0.1066
  443MOL0     C59679   6.993   3.172   6.010 -0.7681  0.1355  0.2030
  443MOL0     C59680   7.008   3.302   6.100 -1.2598  0.8923 -0.3558
  443MOL0     C59681   7.015   3.433   6.018 -0.0287  0.1129  0.0367
  443MOL0     C59682   7.052   3.553   6.099 -0.5305  0.3278  0.0820
  443MOL0     C59683   6.965   3.559   6.224 -0.1965 -0.0307  1.4985
  443MOL0     C59684   6.991   3.683   6.296 -0.9635 -0.7680 -0.7605
  443MOL0     C59685   6.929   3.684   6.441 -0.1881  0.1781  0.7937
  443MOL0     C59686   6.970   3.801   6.524 -0.8637  0.6960 -0.4547
  443MOL0     N59687   7.115   3.818   6.535  0.6056  0.1931 -0.1143
  443MOL0     C59688   7.201   3.721   6.568 -0.9623 -0.2979 -0.1856
  443MOL0     C59689   7.320   3.777   6.575 -0.5495 -0.2619 -0.5964
  443MOL0     C59690   7.451   3.715   6.619 -0.4162  0.7219 -0.0161
  443MOL0     C59691   7.527   3.801   6.724 -0.1271 -0.4785  0.0452
  443MOL0     C59692   7.441   3.844   6.848 -0.3973 -0.6173  0.1340
  443MOL0     C59693   7.525   3.940   6.943  0.4570 -0.6899 -0.8846
  443MOL0     O59694   7.441   4.009   7.033 -0.1392 -0.2102 -0.7082
  443MOL0     C59695   7.376   4.126   6.991  0.1058  0.8014  0.4497
  443MOL0     C59696   7.377   4.187   6.855  0.6413 -0.1978 -0.1606
  443MOL0     C59697   7.319   4.312   6.828  0.1462  0.7526 -0.2573
  443MOL0     C59698   7.245   4.375   6.928 -0.4327  0.0701  1.1389
  443MOL0     C59699   7.160   4.490   6.889 -0.2153 -0.1642 -0.6191
  443MOL0     O59700   7.200   4.553   6.765  0.6221  0.5313 -0.7411
  443MOL0     C59701   7.112   4.653   6.739 -0.4861 -0.7520 -0.4692
  443MOL0     C59702   7.016   4.649   6.636 -1.2337 -0.8584 -0.1036
  443MOL0     C59703   6.930   4.753   6.614  0.2940  0.4749  0.6655
  443MOL0     C59704   6.923   4.859   6.708  0.1120  0.1435 -0.3121
  443MOL0     O59705   6.834   4.966   6.694 -0.6315 -0.2757  1.1861
  443MOL0     C59706   6.800   5.001   6.554 -0.8822 -0.4799 -0.1043
  443MOL0     C59707   6.730   5.129   6.548  0.8952 -0.0980 -0.4665
  443MOL0     C59708   6.818   5.246   6.575  0.4596  0.2012 -0.1398
  443MOL0     C59709   6.753   5.385   6.575  0.0607 -0.2829  0.1230
  443MOL0     C59710   6.698   5.422   6.717  0.1961 -0.3963 -0.6876
  443MOL0     C59711   6.603   5.324   6.778 -0.5702  0.0342  1.3087
  443MOL0     C59712   6.545   5.361   6.915  1.2158  0.2911  0.2352
  443MOL0     C59713   6.455   5.244   6.955  1.3447 -0.1369 -0.2918
  443MOL0    Cl59714   6.324   5.225   6.843 -0.2904 -0.5483  0.5342
  443MOL0     C59715   7.024   4.864   6.805 -0.1898  0.0734 -0.6386
  443MOL0     C59716   7.126   4.762   6.829 -0.3825  0.5864  0.5416
  443MOL0     O59717   7.071   4.532   6.963  0.1108 -0.0563 -0.5619
  443MOL0     C59718   7.230   4.316   7.056  0.3344 -0.7031 -0.1932
  443MOL0     C59719   7.294   4.190   7.077 -0.4389  0.2094  0.1894
  443MOL0     N59720   7.303   3.907   6.543 -0.6579 -0.8267  0.9264
  443MOL0     N59721   7.181   3.940   6.528  0.3313  0.0319  0.3023
  443MOL0     C59722   7.091   2.933   5.877 -0.0928  0.3510  0.0737
  443MOL0     C59723   7.153   2.802   5.848 -0.5293 -0.4268 -0.3065
  443MOL0     C59724   7.345   2.425   5.794 -0.7302  1.3477 -0.0611
  443MOL0     C59725   7.418   2.351   5.697  0.5087  0.2858 -0.1949
  443MOL0     C59726   7.479   2.227   5.715  0.1421 -0.3859 -0.0276
  443MOL0     C59727   7.444   2.156   5.838  0.5611  0.2322 -0.0575
  443MOL0     O59728   7.493   2.030   5.871  0.2122 -0.3737  0.3289
  443MOL0     C59729   7.574   1.962   5.773  0.0925 -0.2764 -0.2407
  443MOL0     C59730   7.730   1.983   5.790  0.4549  0.7714  0.0657
  443MOL0     C59731   7.814   1.874   5.705  0.0038 -0.8054 -0.5754
  443MOL0     C59732   7.823   1.746   5.789 -0.2174  0.2083 -0.8921
  443MOL0     C59733   7.939   1.668   5.764 -0.1506  1.6853  0.3843
  443MOL0     C59734   8.038   1.608   5.738 -0.2823  0.3469 -0.2861
  443MOL0     C59735   7.363   2.226   5.936 -0.0540 -1.5762 -0.1939
  443MOL0     C59736   7.321   2.363   5.922  0.1307  0.2110  0.5347
  443MOL0     C59737   7.251   2.417   6.040  0.5445  0.5271 -0.3651
  443MOL0     H59738   7.468   2.850   5.972  1.7346 -1.1936 -4.0486
  443MOL0     H59739   7.367   3.081   6.004  0.7970 -1.6285  4.3214
  443MOL0     H59740   6.916   3.186   5.933 -2.8675  0.2851  2.1997
  443MOL0     H59741   6.950   3.094   6.074 -2.8755  0.3241 -0.8765
  443MOL0     H59742   7.096   3.294   6.165  0.5103  2.3722 -2.4710
  443MOL0     H59743   6.918   3.311   6.163 -1.8109  1.0018 -1.1465
  443MOL0     H59744   6.915   3.459   5.981 -0.3174 -2.1184 -0.8955
  443MOL0     H59745   7.084   3.430   5.934 -2.0779  1.4576 -1.8189
  443MOL0     H59746   7.158   3.545   6.127 -0.4205  1.3310 -0.0012
  443MOL0     H59747   7.041   3.640   6.034 -1.0743  1.2832  1.4169
  443MOL0     H59748   6.858   3.546   6.203  0.5465 -3.4449 -1.1209
  443MOL0     H59749   6.997   3.480   6.293  2.4391  0.9915  1.5243
  443MOL0     H59750   7.097   3.710   6.300 -1.7041  2.5018 -0.4252
  443MOL0     H59751   6.950   3.764   6.234  2.4720 -0.8746 -3.4782
  443MOL0     H59752   6.955   3.590   6.491 -0.8686 -1.2015 -1.3257
  443MOL0     H59753   6.820   3.677   6.434 -0.3188  1.6134  1.1188
  443MOL0     H59754   6.923   3.892   6.487  2.6121  1.4010 -3.7343
  443MOL0     H59755   6.935   3.778   6.626  2.0207 -1.8531  0.0978
  443MOL0     H59756   7.177   3.619   6.597 -2.1149 -0.9174 -2.9861
  443MOL0     H59757   7.438   3.617   6.666  1.7091  0.3959  0.0091
  443MOL0     H59758   7.516   3.698   6.533  0.2768  2.7786  0.0277
  443MOL0     H59759   7.611   3.755   6.776  1.0689  1.2301 -0.2850
  443MOL0     H59760   7.556   3.892   6.671 -1.9981 -0.2764 -0.7191
  443MOL0     H59761   7.405   3.753   6.897 -2.9267  1.0719  1.6517
  443MOL0     H59762   7.354   3.901   6.814  0.5303 -0.8300 -2.9172
  443MOL0     H59763   7.582   4.014   6.886  1.2117 -1.3555 -1.0081
  443MOL0     H59764   7.595   3.884   7.005  3.2364  4.2255  0.8999
  443MOL0     H59765   7.431   4.137   6.776  1.7157 -1.2252  1.1617
  443MOL0     H59766   7.346   4.344   6.728  4.4099 -3.1320 -0.6602
  443MOL0     H59767   7.021   4.560   6.575  1.8736 -0.8746  0.0217
  443MOL0     H59768   6.854   4.742   6.537  0.8692  0.6949  0.0547
  443MOL0     H59769   6.889   5.007   6.492 -0.5704  1.3177  0.4654
  443MOL0     H59770   6.730   4.927   6.512  0.1199  0.1221 -3.0490
  443MOL0     H59771   6.684   5.141   6.449 -0.1540  0.5294  0.0729
  443MOL0     H59772   6.643   5.128   6.614  0.3740  3.9799 -0.8002
  443MOL0     H59773   6.859   5.229   6.675 -0.2790 -1.4558 -0.0894
  443MOL0     H59774   6.885   5.249   6.488 -1.6911  2.9963 -1.8764
  443MOL0     H59775   6.673   5.398   6.501 -0.1380  2.4841  0.6858
  443MOL0     H59776   6.834   5.456   6.556  0.1142 -1.0110 -2.8688
  443MOL0     H59777   6.650   5.518   6.693 -0.2075 -0.4516 -0.1158
  443MOL0     H59778   6.780   5.447   6.785  2.1882 -1.5527 -2.5174
  443MOL0     H59779   6.522   5.307   6.706  2.8857 -1.3294 -2.6402
  443MOL0     H59780   6.641   5.223   6.798 -2.8953 -1.0602  0.6223
  443MOL0     H59781   6.489   5.455   6.912 -1.4869 -1.2357  0.0895
  443MOL0     H59782   6.631   5.365   6.983  1.7255  2.7189 -0.4247
  443MOL0     H59783   6.505   5.147   6.966 -1.3064 -1.5249  0.2824
  443MOL0     H59784   6.409   5.270   7.051 -0.0273 -1.2638 -0.6023
  443MOL0     H59785   7.030   4.951   6.869  0.7036 -1.1971  1.0764
  443MOL0     H59786   7.200   4.773   6.907 -0.0286 -1.8965  0.6189
  443MOL0     H59787   7.170   4.361   7.134  1.4291  0.5270 -0.0129
  443MOL0     H59788   7.282   4.146   7.175  0.2009  1.3283  0.7810
  443MOL0     H59789   6.983   2.947   5.873 -0.6918 -2.0833  3.8215
  443MOL0     H59790   7.096   2.716   5.815  0.2275 -0.4063 -1.7099
  443MOL0     H59791   7.425   2.395   5.598 -3.7766  1.7912 -0.0243
  443MOL0     H59792   7.537   2.178   5.638  0.2348 -1.8196  0.9173
  443MOL0     H59793   7.548   1.985   5.670 -0.3611  0.2873 -0.0053
  443MOL0     H59794   7.543   1.858   5.792 -2.3855  0.6228  1.1539
  443MOL0     H59795   7.760   1.988   5.895 -2.9520  0.7531  1.1579
  443MOL0     H59796   7.754   2.087   5.764 -0.0829  0.5180 -1.5383
  443MOL0     H59797   7.917   1.911   5.707  0.1682 -1.1915  2.1739
  443MOL0     H59798   7.777   1.864   5.603 -3.4910 -0.0929  0.4648
  443MOL0     H59799   7.830   1.783   5.892 -1.1307  2.2856 -1.5112
  443MOL0     H59800   7.733   1.690   5.763  0.8488 -0.7292 -2.7973
  443MOL0     H59801   8.128   1.561   5.703  1.0418  0.5217  2.5864
  443MOL0     H59802   7.350   2.175   6.031 -1.7026 -0.6861  0.0840
  443MOL0     H59803   7.167   2.485   6.024 -3.2180 -3.7787 -1.3184
  443MOL0     H59804   7.214   2.337   6.105 -2.3916 -0.1599 -2.6522
  443MOL0     H59805   7.328   2.463   6.101 -0.5003 -0.3796  1.7346
  444MOL0     O59806   8.895   7.904   6.550 -0.1844 -0.4170 -0.8314
  444MOL0     C59807   8.913   8.021   6.525  1.1192 -0.5677  1.2864
  444MOL0     O59808   9.011   8.093   6.577 -0.7779  0.6607 -0.5401
  444MOL0     C59809   9.131   8.043   6.617  0.1824  0.1340 -0.5741
  444MOL0     C59810   9.172   7.907   6.606  0.0225  0.4336  0.2991
  444MOL0     C59811   9.301   7.860   6.642 -0.7183  0.0845  0.8522
  444MOL0     C59812   9.390   7.945   6.703 -0.0916 -0.6374 -0.6234
  444MOL0     O59813   9.510   7.900   6.732  0.4547 -0.3068 -0.7628
  444MOL0     C59814   9.604   7.971   6.801 -1.3253 -0.3600 -0.3220
  444MOL0     C59815   9.733   7.875   6.793  0.2329 -0.2513  0.6456
  444MOL0     C59816   9.866   7.933   6.835  1.1166 -0.6626 -0.8857
  444MOL0     C59817   9.949   7.988   6.719 -0.4047  0.3599 -0.1992
  444MOL0     C59818  10.075   8.060   6.762 -0.0139  0.3786 -0.7374
  444MOL0     C59819  10.148   8.107   6.640 -0.1915  0.6642  0.0090
  444MOL0     C59820  10.294   8.156   6.665  0.0259  0.4156  0.3517
  444MOL0     C59821  10.373   8.150   6.532  0.3429 -0.5843 -0.3745
  444MOL0     N59822  10.330   8.247   6.439  0.6046  0.5170  0.9521
  444MOL0     C59823  10.317   8.382   6.454  0.8087  0.5695  0.3000
  444MOL0     C59824  10.291   8.429   6.330 -0.2008 -0.9446 -0.1706
  444MOL0     C59825  10.287   8.579   6.299  0.2421 -0.5607 -0.4840
  444MOL0     C59826  10.136   8.606   6.251 -0.6102 -0.4352 -0.5311
  444MOL0     C59827  10.134   8.724   6.157 -0.0430  0.3701  0.1408
  444MOL0     C59828  10.146   8.855   6.238  0.1873  1.0264  0.0956
  444MOL0     O59829  10.289   8.885   6.226 -0.5383  0.1103  0.7294
  444MOL0     C59830  10.330   8.998   6.280 -0.4401  0.1180 -0.3069
  444MOL0     C59831  10.247   9.094   6.338 -1.0080 -0.1771  0.1615
  444MOL0     C59832  10.312   9.212   6.371 -0.1919 -0.5772 -0.6898
  444MOL0     C59833  10.451   9.237   6.352 -0.3026  0.3407  0.9966
  444MOL0     C59834  10.519   9.371   6.355  1.2287  1.3140 -0.3261
  444MOL0     O59835  10.652   9.375   6.317  0.4679  0.1647 -0.2053
  444MOL0     C59836  10.718   9.499   6.297 -0.5021  0.2693 -0.0345
  444MOL0     C59837  10.858   9.510   6.327 -0.0467  0.8929  0.4576
  444MOL0     C59838  10.935   9.618   6.284 -0.1673 -0.2001 -0.2710
  444MOL0     C59839  10.870   9.722   6.211  0.4031 -0.4602 -0.0155
  444MOL0     O59840  10.958   9.825   6.186  0.6480  0.5035  0.6354
  444MOL0     C59841  10.909   9.957   6.187  0.0856  0.6847 -0.0682
  444MOL0     C59842  11.037  10.048   6.172  1.1642 -0.1503  0.9604
  444MOL0     C59843  11.129  10.031   6.289 -0.3563 -0.1620  0.5314
  444MOL0     C59844  11.198  10.161   6.336 -0.6204  0.3869  0.3512
  444MOL0     C59845  11.309  10.203   6.237 -0.6637 -0.5658 -0.2929
  444MOL0     C59846  11.383  10.327   6.283  0.2767  0.5423 -0.0464
  444MOL0     C59847  11.457  10.322   6.413  0.1086  0.1053 -0.2108
  444MOL0     C59848  11.507  10.462   6.451  0.7329  0.1847  0.7997
  444MOL0    Cl59849  11.593  10.455   6.609  0.1097  0.1843 -0.0273
  444MOL0     C59850  10.732   9.717   6.181 -0.2239 -0.4833  0.7545
  444MOL0     C59851  10.661   9.606   6.227 -0.2896  1.5200 -0.1314
  444MOL0     O59852  10.442   9.466   6.376 -0.1627  0.5727  0.5019
  444MOL0     C59853  10.524   9.132   6.291  0.0423 -0.2403  0.4481
  444MOL0     C59854  10.461   9.019   6.259 -0.0432  0.4731  0.0370
  444MOL0     N59855  10.265   8.323   6.250 -0.1901  0.6407  0.8356
  444MOL0     N59856  10.264   8.216   6.322  0.3698  0.1947 -0.1791
  444MOL0     C59857   9.359   8.079   6.727  0.8330  0.3206 -0.0286
  444MOL0     C59858   9.227   8.128   6.680 -0.2296 -0.4537  0.1848
  444MOL0     C59859   8.800   8.086   6.441 -0.9181  0.0795 -0.3660
  444MOL0     C59860   8.698   8.001   6.396 -0.0903 -0.3155  0.9013
  444MOL0     C59861   8.600   8.054   6.322 -0.7308 -0.0883 -0.0919
  444MOL0     C59862   8.592   8.194   6.291 -0.7876  0.2758 -0.1178
  444MOL0     O59863   8.473   8.236   6.236  0.0291 -0.1826 -0.2950
  444MOL0     C59864   8.446   8.369   6.239 -0.2315  0.0971 -0.2759
  444MOL0     C59865   8.326   8.381   6.143  0.4892  0.0035 -0.2207
  444MOL0     C59866   8.314   8.527   6.095 -0.0377 -0.4451 -0.0806
  444MOL0     C59867   8.190   8.565   6.022 -0.2059 -0.0202 -0.5583
  444MOL0     C59868   8.081   8.561   6.117 -0.6375  0.4936  0.0659
  444MOL0     C59869   7.978   8.551   6.189  0.1367  0.9163  1.5514
  444MOL0     C59870   8.687   8.279   6.342  0.1517  0.1937 -0.7874
  444MOL0     C59871   8.800   8.227   6.402 -0.1922  0.7702 -0.3467
  444MOL0     C59872   8.915   8.319   6.440 -0.5688 -0.0876  0.2303
  444MOL0     H59873   9.110   7.836   6.552 -1.3700  1.0809  0.9977
  444MOL0     H59874   9.312   7.753   6.628 -2.1319  0.2040 -1.7574
  444MOL0     H59875   9.637   8.066   6.760  1.9443 -1.6590 -1.0293
  444MOL0     H59876   9.577   7.988   6.905  4.3882 -1.0063  1.6501
  444MOL0     H59877   9.749   7.838   6.692  2.0068 -1.6810  1.3946
  444MOL0     H59878   9.708   7.786   6.852 -1.1124  0.6314  1.4777
  444MOL0     H59879   9.923   7.850   6.877  0.7326 -0.2008  0.6230
  444MOL0     H59880   9.840   8.015   6.904 -2.6490 -1.8270 -0.6507
  444MOL0     H59881   9.965   7.907   6.647  2.3367  2.5672 -2.2602
  444MOL0     H59882   9.877   8.059   6.679 -0.8877 -0.1828 -0.3090
  444MOL0     H59883  10.050   8.147   6.823 -3.5177  0.0893 -1.5646
  444MOL0     H59884  10.133   7.989   6.822 -0.8389  0.4829  0.2062
  444MOL0     H59885  10.167   8.024   6.571 -0.4899  2.4037 -2.2555
  444MOL0     H59886  10.085   8.177   6.585 -0.2989  0.8126  0.3180
  444MOL0     H59887  10.341   8.104   6.749 -1.7136  3.5529  3.5513
  444MOL0     H59888  10.285   8.259   6.702  0.2451  1.0967 -1.4146
  444MOL0     H59889  10.476   8.172   6.560 -0.3941 -0.9366  2.9708
  444MOL0     H59890  10.373   8.047   6.493 -2.0883 -1.1776  0.9661
  444MOL0     H59891  10.326   8.436   6.547  1.3003  1.5282 -0.2897
  444MOL0     H59892  10.307   8.627   6.396 -4.0745  1.3808 -0.3435
  444MOL0     H59893  10.356   8.600   6.216 -1.6021 -2.8292 -2.7102
  444MOL0     H59894  10.105   8.519   6.192 -0.1292  1.0548 -3.1297
  444MOL0     H59895  10.078   8.613   6.343  0.3188  0.9799 -0.0188
  444MOL0     H59896  10.040   8.730   6.103 -0.4498 -1.1822  0.6140
  444MOL0     H59897  10.208   8.725   6.077  2.5344  0.5521  2.3746
  444MOL0     H59898  10.109   8.834   6.338 -0.9872  1.7241 -0.1729
  444MOL0     H59899  10.082   8.932   6.194 -0.2026  2.2676  2.6639
  444MOL0     H59900  10.143   9.072   6.358 -1.2404  1.1640  0.5461
  444MOL0     H59901  10.257   9.294   6.415  1.7266  0.4250 -0.0264
  444MOL0     H59902  10.910   9.427   6.375  0.5300 -0.1342 -1.8193
  444MOL0     H59903  11.041   9.619   6.310 -0.0925 -2.0718 -0.3915
  444MOL0     H59904  10.841   9.965   6.102 -1.1837  0.4100  0.8952
  444MOL0     H59905  10.854   9.970   6.280 -0.7858 -1.4304 -0.2345
  444MOL0     H59906  11.102  10.026   6.087  0.0262 -0.3439  0.1081
  444MOL0     H59907  10.998  10.150   6.159 -1.8838 -1.5274 -2.4269
  444MOL0     H59908  11.088   9.975   6.373 -1.3212 -0.4012 -0.0870
  444MOL0     H59909  11.209   9.965   6.253 -0.7228 -0.8971  1.0516
  444MOL0     H59910  11.237  10.145   6.437  0.5488  0.0822 -0.1352
  444MOL0     H59911  11.126  10.244   6.341 -1.9067 -0.5617 -1.3111
  444MOL0     H59912  11.248  10.218   6.147 -2.1490  0.2128  0.7929
  444MOL0     H59913  11.382  10.127   6.209 -0.3039  0.7527 -3.3248
  444MOL0     H59914  11.455  10.354   6.205 -0.7914  0.8847 -0.9357
  444MOL0     H59915  11.302  10.396   6.304  0.0706  1.2404 -2.7559
  444MOL0     H59916  11.545  10.260   6.392 -0.9971 -2.3325  1.8001
  444MOL0     H59917  11.417  10.282   6.506  1.2989  2.4068  1.4061
  444MOL0     H59918  11.565  10.508   6.370 -1.6512  0.0666 -1.0841
  444MOL0     H59919  11.431  10.540   6.457  1.9303  1.4225  0.3624
  444MOL0     H59920  10.698   9.803   6.124  2.9317  1.7701  2.0052
  444MOL0     H59921  10.555   9.602   6.205 -0.4666  1.6690  0.6632
  444MOL0     H59922  10.625   9.135   6.252 -0.1797 -3.2734 -0.6187
  444MOL0     H59923  10.512   8.936   6.212 -2.2874  0.0953 -1.9964
  444MOL0     H59924   9.426   8.147   6.777  0.9660 -1.3490  2.2400
  444MOL0     H59925   9.198   8.231   6.700  1.9610  0.3997 -0.7407
  444MOL0     H59926   8.702   7.895   6.415  1.3442 -0.5192 -0.3056
  444MOL0     H59927   8.517   7.998   6.282 -0.3644 -0.4263 -0.3859
  444MOL0     H59928   8.523   8.431   6.193 -0.1710 -0.1587 -0.5246
  444MOL0     H59929   8.410   8.399   6.337 -2.1166  0.2267 -0.9603
  444MOL0     H59930   8.231   8.337   6.176  2.2240 -3.0625  1.1633
  444MOL0     H59931   8.346   8.313   6.060 -0.3751 -0.7909  0.1974
  444MOL0     H59932   8.408   8.537   6.041  1.7826 -2.0850  2.5260
  444MOL0     H59933   8.328   8.597   6.178 -2.2143 -2.3487  2.0540
  444MOL0     H59934   8.200   8.668   5.988 -1.0897 -0.1024 -1.0980
  444MOL0     H59935   8.150   8.494   5.948  0.5230 -3.3308  1.9635
  444MOL0     H59936   7.894   8.552   6.256 -1.1492 -1.4624  0.1050
  444MOL0     H59937   8.686   8.384   6.316  3.0419  0.9796  1.6636
  444MOL0     H59938   8.915   8.360   6.541  0.2100 -0.5412  0.4304
  444MOL0     H59939   9.009   8.263   6.432 -1.3670 -1.2846 -1.1585
  444MOL0     H59940   8.914   8.398   6.365 -2.5485  1.0415  1.3733
  445MOL0     O59941   9.514   0.827   3.765  0.0143  0.0372  0.0401
  445MOL0     C59942   9.397   0.780   3.736 -1.1087  0.2103  0.1969
  445MOL0     O59943   9.347   0.767   3.611  0.5959 -0.3135 -0.0984
  445MOL0     C59944   9.443   0.752   3.514 -0.0474 -0.4072  0.1562
  445MOL0     C59945   9.508   0.860   3.454  1.2878  0.8367  0.6840
  445MOL0     C59946   9.615   0.843   3.365 -0.0565 -0.6333  0.2408
  445MOL0     C59947   9.661   0.719   3.337 -0.3196 -0.3153  0.7120
  445MOL0     O59948   9.764   0.705   3.236  0.9609 -0.0724  0.5774
  445MOL0     C59949   9.881   0.637   3.273  0.2140  0.6536  0.6001
  445MOL0     C59950  10.000   0.715   3.220 -0.1045  0.2601 -0.5767
  445MOL0     C59951   9.974   0.863   3.207  1.0871 -0.5346  0.5301
  445MOL0     C59952  10.104   0.924   3.161 -0.2265 -1.3088  0.0641
  445MOL0     C59953  10.067   1.061   3.098 -0.4844  0.6764 -0.8395
  445MOL0     C59954  10.190   1.094   3.008 -0.6990 -0.3493  0.1191
  445MOL0     C59955  10.179   1.234   2.959 -0.7517 -0.5329 -0.4281
  445MOL0     C59956  10.088   1.254   2.833  0.4754 -1.4350  0.6411
  445MOL0     N59957   9.951   1.292   2.877 -0.2961  0.6228  0.4602
  445MOL0     C59958   9.917   1.408   2.943  0.5843 -0.0934 -0.0230
  445MOL0     C59959   9.779   1.407   2.936 -0.7096  0.7498 -0.2779
  445MOL0     C59960   9.691   1.522   2.967 -0.2699  0.0118  0.2217
  445MOL0     C59961   9.541   1.489   2.961 -0.1753 -0.0608  0.1958
  445MOL0     C59962   9.483   1.490   2.813 -0.2980 -0.6555 -1.4604
  445MOL0     C59963   9.416   1.623   2.783  0.1946 -0.6020 -0.3252
  445MOL0     O59964   9.306   1.636   2.877 -0.3414  0.0343 -0.2739
  445MOL0     C59965   9.173   1.653   2.842 -0.0722  0.6147  0.5610
  445MOL0     C59966   9.080   1.676   2.946 -0.4186 -0.6217 -0.3892
  445MOL0     C59967   8.940   1.678   2.934  1.1576 -0.4802  0.2354
  445MOL0     C59968   8.884   1.652   2.806  0.2720  0.0878 -0.0618
  445MOL0     C59969   8.741   1.647   2.776  0.4411  0.7232  0.7190
  445MOL0     O59970   8.707   1.636   2.640  0.2006  0.2650  0.1913
  445MOL0     C59971   8.587   1.594   2.613  1.0023 -0.0450 -0.3998
  445MOL0     C59972   8.474   1.671   2.646  0.4751  0.0432  1.4334
  445MOL0     C59973   8.339   1.609   2.635 -0.2926 -0.2612  0.3210
  445MOL0     C59974   8.329   1.477   2.577 -0.2042 -0.2284 -0.2273
  445MOL0     O59975   8.211   1.415   2.574 -0.4787  0.1207  0.2937
  445MOL0     C59976   8.201   1.304   2.673 -0.8945  0.7508  0.1239
  445MOL0     C59977   8.063   1.246   2.669 -0.4468 -1.1126 -0.9859
  445MOL0     C59978   8.044   1.114   2.745 -0.3628 -0.1501 -0.0854
  445MOL0     C59979   7.911   1.055   2.720  0.1891  0.4349  0.0487
  445MOL0     C59980   7.903   0.899   2.740 -0.2561 -0.5390  0.4442
  445MOL0     C59981   7.985   0.817   2.644 -0.1134  0.7290  0.2700
  445MOL0     C59982   7.970   0.664   2.673 -0.2740 -0.6760  0.3181
  445MOL0     C59983   7.862   0.594   2.590 -0.0998 -0.5309 -0.4170
  445MOL0    Cl59984   7.900   0.596   2.421 -0.0704  0.2126 -0.6253
  445MOL0     C59985   8.450   1.406   2.543 -0.8554  0.4429 -0.3600
  445MOL0     C59986   8.570   1.472   2.552 -0.1808 -0.3980 -0.1958
  445MOL0     O59987   8.664   1.641   2.866 -0.1835 -0.5036 -0.3830
  445MOL0     C59988   8.979   1.643   2.701  0.2261  0.3587  1.3104
  445MOL0     C59989   9.116   1.639   2.717  0.2175 -0.0022  0.1847
  445MOL0     N59990   9.742   1.285   2.880 -0.0258  0.1796 -0.3439
  445MOL0     N59991   9.838   1.214   2.838 -0.2495  0.3966  0.1052
  445MOL0     C59992   9.601   0.610   3.398  0.1474 -0.2311  0.4016
  445MOL0     C59993   9.486   0.625   3.474 -0.0590  0.8425  0.0375
  445MOL0     C59994   9.321   0.717   3.852 -0.4609  0.2637  1.2075
  445MOL0     C59995   9.228   0.620   3.815 -0.1291 -0.8227 -0.3344
  445MOL0     C59996   9.160   0.549   3.918  0.3601  0.3350 -0.5670
  445MOL0     C59997   9.188   0.564   4.045 -0.4763 -1.3002 -0.3037
  445MOL0     O59998   9.117   0.495   4.139 -0.5874  0.4017 -0.2405
  445MOL0     C59999   9.099   0.349   4.120 -0.3727 -0.4824  0.2392
  445MOL0     C60000   9.116   0.268   4.253  1.3907  0.1831  0.6785
  445MOL0     C60001   9.248   0.301   4.309  0.1258  0.1572 -0.2321
  445MOL0     C60002   9.278   0.250   4.446  0.5342  1.3729  0.2486
  445MOL0     C60003   9.280   0.100   4.443 -1.1409 -0.2880 -0.2698
  445MOL0     C60004   9.295  -0.016   4.435  0.7669  0.8302 -1.2658
  445MOL0     C60005   9.273   0.668   4.087 -0.5950 -0.2354  0.3449
  445MOL0     C60006   9.343   0.748   3.990 -0.1175  0.4667  0.3024
  445MOL0     C60007   9.430   0.865   4.043 -0.0542 -0.6754  0.6171
  445MOL0     H60008   9.475   0.959   3.484 -0.2343 -0.4321  3.5390
  445MOL0     H60009   9.654   0.935   3.321  0.4187 -0.9320  0.0195
  445MOL0     H60010   9.889   0.640   3.382  0.7982  1.0395  0.5514
  445MOL0     H60011   9.865   0.535   3.238  0.6506  1.0135 -0.7143
  445MOL0     H60012  10.029   0.681   3.120  1.5904  1.1472 -0.4339
  445MOL0     H60013  10.083   0.710   3.292 -1.3032 -0.4568  0.8259
  445MOL0     H60014   9.946   0.909   3.303 -3.2340 -3.0167  0.6876
  445MOL0     H60015   9.893   0.872   3.134  0.1636 -3.6753  1.0530
  445MOL0     H60016  10.188   0.931   3.231 -0.1148 -1.1932 -0.0822
  445MOL0     H60017  10.140   0.851   3.087 -1.1355 -2.5780  0.8231
  445MOL0     H60018   9.971   1.063   3.046 -0.0568  0.8071 -1.6362
  445MOL0     H60019  10.062   1.130   3.183  0.8204 -0.2444  0.0194
  445MOL0     H60020  10.280   1.091   3.070 -1.1807 -2.5756  0.8089
  445MOL0     H60021  10.210   1.027   2.923  1.1082 -0.7293  0.7874
  445MOL0     H60022  10.273   1.280   2.928 -0.3815 -0.7404  0.3548
  445MOL0     H60023  10.161   1.295   3.049  0.4100  1.4309 -1.4591
  445MOL0     H60024  10.136   1.326   2.766  0.4991 -3.3327 -1.5085
  445MOL0     H60025  10.089   1.163   2.771 -1.0170 -1.6137  0.8491
  445MOL0     H60026   9.975   1.492   2.981 -0.6371  1.4525 -1.4234
  445MOL0     H60027   9.703   1.562   3.068 -1.0750  0.4375  0.1539
  445MOL0     H60028   9.732   1.602   2.905  1.0487 -0.9557 -0.2150
  445MOL0     H60029   9.527   1.385   2.993 -0.8718 -0.6943 -2.0526
  445MOL0     H60030   9.482   1.551   3.029  1.9359  0.8641  1.2814
  445MOL0     H60031   9.408   1.413   2.793  1.0020 -1.5712 -3.0588
  445MOL0     H60032   9.552   1.456   2.736  0.1256  1.6317 -2.1745
  445MOL0     H60033   9.386   1.609   2.678 -2.7149 -2.4424  0.6078
  445MOL0     H60034   9.481   1.709   2.767 -0.7894  0.3064  0.4410
  445MOL0     H60035   9.128   1.704   3.039  0.5392 -0.1902 -0.9912
  445MOL0     H60036   8.870   1.692   3.015 -1.7701  2.4548 -2.5029
  445MOL0     H60037   8.487   1.776   2.672  0.8462  1.7000 -4.1250
  445MOL0     H60038   8.256   1.674   2.660  2.0546  2.9022  0.5496
  445MOL0     H60039   8.271   1.223   2.652 -2.1362 -0.3297 -0.0290
  445MOL0     H60040   8.216   1.349   2.772  3.0813 -1.2558  0.6267
  445MOL0     H60041   7.980   1.315   2.691 -1.8266 -2.3849 -1.9924
  445MOL0     H60042   8.041   1.212   2.568 -3.3425 -2.3596 -0.0582
  445MOL0     H60043   8.120   1.044   2.710 -0.8684 -1.3129  1.0579
  445MOL0     H60044   8.057   1.135   2.851  0.6896 -0.8789 -0.0542
  445MOL0     H60045   7.882   1.064   2.615 -0.7064 -0.5876  0.1859
  445MOL0     H60046   7.838   1.099   2.789  0.4497 -0.2147  0.7431
  445MOL0     H60047   7.797   0.874   2.742  0.4906 -4.3131 -0.1937
  445MOL0     H60048   7.941   0.872   2.839 -0.9926 -0.1381  0.8472
  445MOL0     H60049   7.949   0.830   2.542 -1.2533 -2.8823  0.0765
  445MOL0     H60050   8.089   0.848   2.650  0.0815  0.4026 -1.1754
  445MOL0     H60051   7.933   0.654   2.775 -0.7039  0.3919  0.2888
  445MOL0     H60052   8.065   0.613   2.655 -1.3018 -1.8285 -2.5497
  445MOL0     H60053   7.839   0.494   2.626  3.8853 -1.4817  0.0096
  445MOL0     H60054   7.778   0.662   2.601  1.4205  1.3940 -0.0954
  445MOL0     H60055   8.447   1.317   2.482  0.5873  1.2097 -1.6201
  445MOL0     H60056   8.667   1.439   2.515 -0.0413 -1.1179  0.7899
  445MOL0     H60057   8.942   1.613   2.603  1.7388 -1.2003  1.1627
  445MOL0     H60058   9.179   1.605   2.636 -0.1461 -0.1395 -0.0401
  445MOL0     H60059   9.651   0.517   3.371  1.5783  1.1760 -2.1860
  445MOL0     H60060   9.445   0.542   3.532  2.1915 -0.4490 -0.1353
  445MOL0     H60061   9.220   0.596   3.709  3.4167  0.4023 -1.0267
  445MOL0     H60062   9.076   0.481   3.908 -1.0784  1.0760  4.3221
  445MOL0     H60063   9.178   0.315   4.053 -0.8556 -0.3987 -0.3808
  445MOL0     H60064   8.999   0.337   4.079  1.0946  2.0689 -4.9822
  445MOL0     H60065   9.109   0.161   4.233  2.1036  0.1551  0.5527
  445MOL0     H60066   9.034   0.292   4.322 -1.2248 -0.1486 -2.1071
  445MOL0     H60067   9.252   0.409   4.319  0.8515  0.0351  1.0173
  445MOL0     H60068   9.316   0.255   4.237 -2.7811 -1.0391 -2.4182
  445MOL0     H60069   9.376   0.288   4.477  0.8991  1.1348 -0.5613
  445MOL0     H60070   9.209   0.289   4.521 -0.3655 -1.3659  0.9655
  445MOL0     H60071   9.307  -0.120   4.414 -1.5699  0.6197 -1.8744
  445MOL0     H60072   9.296   0.686   4.191  1.3635 -1.7306  0.2484
  445MOL0     H60073   9.412   0.954   3.981 -0.8728 -1.0493  0.2992
  445MOL0     H60074   9.397   0.882   4.145  1.9336 -2.3557  1.6124
  445MOL0     H60075   9.537   0.846   4.057  0.3096  1.7564  1.5534
  446MOL0     O60076   0.830   0.258  10.010  0.2502  0.9814  0.6376
  446MOL0     C60077   0.768   0.315  10.098  0.2033  0.2618  0.0965
  446MOL0     O60078   0.824   0.355  10.222 -0.4661 -0.4955 -0.6890
  446MOL0     C60079   0.957   0.332  10.243 -0.0310  0.1532  0.1077
  446MOL0     C60080   1.000   0.222  10.317  0.6314 -0.8901  0.0281
  446MOL0     C60081   1.130   0.201  10.349 -0.1692 -0.2660 -0.0404
  446MOL0     C60082   1.219   0.285  10.286 -0.6171 -0.0139 -0.5163
  446MOL0     O60083   1.354   0.272  10.301  0.0627 -0.3900 -0.0762
  446MOL0     C60084   1.411   0.240  10.434 -0.3571 -0.0313 -0.2411
  446MOL0     C60085   1.564   0.260  10.420  0.5974 -0.8451 -0.9877
  446MOL0     C60086   1.630   0.248  10.561  0.3208 -0.5110 -0.0215
  446MOL0     C60087   1.780   0.266  10.537 -0.5025  0.4090  0.0912
  446MOL0     C60088   1.818   0.409  10.487 -0.6302 -1.3199  0.1546
  446MOL0     C60089   1.959   0.427  10.499 -0.5443 -0.5813 -0.1800
  446MOL0     C60090   2.001   0.577  10.487 -0.1473  0.6586 -0.3869
  446MOL0     C60091   2.002   0.638  10.353  0.3433 -1.1071 -0.1569
  446MOL0     N60092   2.110   0.738  10.334  1.0154 -0.6061 -0.4547
  446MOL0     C60093   2.226   0.723  10.265  0.1111  0.8030 -0.1574
  446MOL0     C60094   2.275   0.840  10.238  0.1113 -0.4510 -0.8873
  446MOL0     C60095   2.386   0.890  10.162 -0.9540  0.7636 -0.0166
  446MOL0     C60096   2.475   0.779  10.123 -1.1009 -0.2318 -0.0861
  446MOL0     C60097   2.579   0.814  10.025  0.5057  0.0420 -0.3105
  446MOL0     C60098   2.657   0.931  10.078  0.4902  0.5006 -0.8544
  446MOL0     O60099   2.761   0.945   9.985 -0.1303  0.3670  0.3980
  446MOL0     C60100   2.885   0.977  10.041 -0.0113 -0.1911  0.6209
  446MOL0     C60101   2.961   1.082   9.988  0.3938 -0.6494  0.8725
  446MOL0     C60102   3.077   1.118  10.038 -0.9228  0.0244 -0.2182
  446MOL0     C60103   3.142   1.033  10.136  0.2727 -1.3203 -0.1933
  446MOL0     C60104   3.280   1.063  10.180 -0.5699  0.4589 -0.8878
  446MOL0     O60105   3.338   0.984  10.271 -0.0587 -0.7812  0.1634
  446MOL0     C60106   3.476   0.995  10.295  0.3620 -0.2323 -0.2714
  446MOL0     C60107   3.523   0.987  10.428 -0.2905 -0.8438 -0.4386
  446MOL0     C60108   3.662   0.981  10.446 -0.3606  1.4295  0.2112
  446MOL0     C60109   3.757   1.010  10.334  0.4589 -0.2410  0.2060
  446MOL0     O60110   3.889   1.014  10.381 -0.5072 -0.1887  0.2123
  446MOL0     C60111   3.990   1.075  10.302  0.3114  0.4058  0.5218
  446MOL0     C60112   4.136   1.026  10.324  0.0158  0.6861 -0.3524
  446MOL0     C60113   4.231   1.113  10.238  0.3846 -0.2738  0.7678
  446MOL0     C60114   4.234   1.259  10.290 -0.0735 -0.6133  0.0752
  446MOL0     C60115   4.334   1.346  10.214 -0.2778  0.1662  0.1739
  446MOL0     C60116   4.265   1.387  10.081  0.6373  0.2017  0.2770
  446MOL0     C60117   4.341   1.494   9.991 -0.7327 -0.6880 -0.7064
  446MOL0     C60118   4.253   1.556   9.877 -0.1875 -0.0701  0.5855
  446MOL0    Cl60119   4.198   1.410   9.768  0.3293 -0.3842 -0.7025
  446MOL0     C60120   3.704   1.012  10.206 -0.7890  0.2467  0.3113
  446MOL0     C60121   3.566   1.006  10.191 -0.5298 -1.0909 -0.2091
  446MOL0     O60122   3.340   1.158  10.124  0.2673 -0.3910 -0.6769
  446MOL0     C60123   3.072   0.924  10.179 -0.5743  0.8097  0.5304
  446MOL0     C60124   2.942   0.898  10.135 -0.1730  0.0269  0.7573
  446MOL0     N60125   2.185   0.928  10.295 -0.5274 -0.7095  0.1423
  446MOL0     N60126   2.089   0.870  10.353  0.0930  0.6344  0.1924
  446MOL0     C60127   1.180   0.387  10.191 -0.3570  0.2193 -0.2744
  446MOL0     C60128   1.045   0.412  10.172  0.3555 -0.8388  0.1478
  446MOL0     C60129   0.619   0.309  10.102  0.2055 -0.1705  0.3323
  446MOL0     C60130   0.551   0.321  10.220  0.6908 -0.0427 -0.0845
  446MOL0     C60131   0.413   0.323  10.236 -0.4946 -0.3372  0.5159
  446MOL0     C60132   0.326   0.303  10.127 -0.0406  0.9268  0.8012
  446MOL0     O60133   0.192   0.303  10.139  0.7662  0.0355  0.2000
  446MOL0     C60134   0.123   0.346  10.262  0.0890  0.0159  1.0036
  446MOL0     C60135   0.138   0.498  10.285  0.3421  0.0159  0.6475
  446MOL0     C60136   0.108   0.584  10.157  0.6286 -0.6217  0.2956
  446MOL0     C60137  -0.044   0.573  10.114  0.3000 -0.2242  1.1317
  446MOL0     C60138  -0.075   0.675  10.012  1.0078  0.4380  0.1066
  446MOL0     C60139  -0.092   0.760   9.924  0.2967  0.2900 -0.1554
  446MOL0     C60140   0.394   0.286  10.004 -0.0816 -0.2887 -0.1023
  446MOL0     C60141   0.533   0.305   9.992  1.2370 -0.4880  0.4344
  446MOL0     C60142   0.594   0.327   9.854  0.5557  0.8367  0.6115
  446MOL0     H60143   0.921   0.162  10.361 -1.8525  2.6016  0.8078
  446MOL0     H60144   1.170   0.131  10.421  0.3171 -0.3068 -0.3483
  446MOL0     H60145   1.371   0.295  10.520  1.0464 -3.4261  2.8729
  446MOL0     H60146   1.398   0.135  10.462 -0.2299  0.2508  0.9475
  446MOL0     H60147   1.584   0.359  10.380 -1.5353 -0.5496 -1.4493
  446MOL0     H60148   1.610   0.189  10.351  0.6890 -1.7345 -0.0369
  446MOL0     H60149   1.602   0.154  10.610 -0.2176  0.1495  0.9869
  446MOL0     H60150   1.598   0.332  10.623  0.8305  0.3164 -0.8587
  446MOL0     H60151   1.823   0.239  10.635  1.6402 -1.0672 -1.1619
  446MOL0     H60152   1.809   0.190  10.464 -1.0332  2.7207 -2.7109
  446MOL0     H60153   1.791   0.434  10.384 -2.8533  1.2730  1.2211
  446MOL0     H60154   1.760   0.473  10.555 -0.1508  0.0488 -0.6957
  446MOL0     H60155   1.994   0.377  10.590  2.0886  0.7209 -0.3724
  446MOL0     H60156   2.001   0.375  10.412 -0.0350 -3.7218  1.7698
  446MOL0     H60157   2.106   0.584  10.519 -0.8340  0.7982  1.9769
  446MOL0     H60158   1.933   0.638  10.546  1.9643  1.8772  0.9332
  446MOL0     H60159   2.027   0.559  10.281 -1.9547 -3.1717  1.1553
  446MOL0     H60160   1.912   0.688  10.317 -0.9696 -3.3417 -0.1283
  446MOL0     H60161   2.262   0.629  10.224  3.1039  1.1942  1.2794
  446MOL0     H60162   2.345   0.942  10.075  0.6989 -1.2649 -2.1549
  446MOL0     H60163   2.448   0.958  10.221  2.9786 -2.2326 -0.2876
  446MOL0     H60164   2.534   0.745  10.208  0.4603  2.1658 -0.1249
  446MOL0     H60165   2.423   0.689  10.089 -4.5984  0.9523  1.6376
  446MOL0     H60166   2.520   0.848   9.940  0.8874 -0.5908 -0.8375
  446MOL0     H60167   2.639   0.724  10.003 -1.0372 -1.7551  2.2849
  446MOL0     H60168   2.681   0.907  10.182  2.7023  1.3640 -1.1109
  446MOL0     H60169   2.593   1.020  10.085  0.4766  0.4173  0.3220
  446MOL0     H60170   2.923   1.150   9.913  1.6529  0.6312  1.3368
  446MOL0     H60171   3.134   1.203  10.001 -2.8862  1.5709  0.2044
  446MOL0     H60172   3.449   0.975  10.506 -0.0754 -0.3711 -0.1526
  446MOL0     H60173   3.701   0.961  10.546  0.0608 -2.7083 -0.6090
  446MOL0     H60174   3.957   1.072  10.198 -1.1233  0.4301  0.9504
  446MOL0     H60175   3.986   1.180  10.334  0.9656  0.3727  0.7303
  446MOL0     H60176   4.172   1.052  10.424  0.9667  0.8800 -0.7361
  446MOL0     H60177   4.134   0.918  10.307 -0.0244  1.1493 -4.2520
  446MOL0     H60178   4.335   1.079  10.248  0.9014  1.2653  0.9984
  446MOL0     H60179   4.213   1.105  10.131  1.9355  0.5557  0.4137
  446MOL0     H60180   4.253   1.269  10.398 -2.7297 -1.6984  0.7144
  446MOL0     H60181   4.140   1.315  10.290 -0.9632 -1.8717  3.3380
  446MOL0     H60182   4.423   1.285  10.196 -0.3257  0.1336  0.0456
  446MOL0     H60183   4.362   1.442  10.258 -1.4059  0.9017 -0.6622
  446MOL0     H60184   4.240   1.297  10.025  1.7167 -0.0931  0.2322
  446MOL0     H60185   4.169   1.430  10.111  0.0319  0.2205 -1.5588
  446MOL0     H60186   4.431   1.455   9.943  0.0403 -0.7558  0.7279
  446MOL0     H60187   4.365   1.579  10.055 -1.7298 -0.0378 -1.1861
  446MOL0     H60188   4.166   1.610   9.914 -0.9333  0.6217 -1.9785
  446MOL0     H60189   4.309   1.620   9.808  0.6634 -1.0970  0.2999
  446MOL0     H60190   3.763   1.018  10.115 -0.4681  0.6815  0.5460
  446MOL0     H60191   3.541   0.998  10.086  2.4455  0.9545 -1.1969
  446MOL0     H60192   3.116   0.853  10.248 -0.5589 -0.0899 -0.3810
  446MOL0     H60193   2.904   0.799  10.158 -0.9998  0.1308 -0.1140
  446MOL0     H60194   1.250   0.438  10.125  0.6288 -1.3675 -0.5065
  446MOL0     H60195   1.007   0.496  10.116 -2.0696  0.7629  3.7963
  446MOL0     H60196   0.590   0.343  10.319  2.0206  1.4131 -0.8900
  446MOL0     H60197   0.380   0.341  10.338  1.4411  2.0136  0.8122
  446MOL0     H60198   0.162   0.291  10.348 -3.1641 -3.6658  0.3628
  446MOL0     H60199   0.017   0.324  10.251  0.4633 -0.8496 -1.7990
  446MOL0     H60200   0.241   0.519  10.316 -0.7682  4.5150  2.0353
  446MOL0     H60201   0.075   0.535  10.366  1.0444  2.9160 -0.0374
  446MOL0     H60202   0.167   0.553  10.071  0.6703 -0.7000  0.3534
  446MOL0     H60203   0.129   0.689  10.179 -0.8373 -0.0537 -0.7782
  446MOL0     H60204  -0.065   0.475  10.071 -1.7491  1.4439 -2.0009
  446MOL0     H60205  -0.116   0.582  10.195  1.0671 -1.4483  1.9990
  446MOL0     H60206  -0.115   0.819   9.838  1.8994 -0.6594 -1.3044
  446MOL0     H60207   0.343   0.285   9.908  0.2001  3.3400 -0.4260
  446MOL0     H60208   0.520   0.328   9.774 -0.0368  1.7385  1.1557
  446MOL0     H60209   0.661   0.413   9.844  2.0059 -0.4401 -1.4765
  446MOL0     H60210   0.649   0.238   9.821 -0.1854  0.4501  0.4089
  447MOL0     O60211   4.362   5.231   7.814 -0.0352 -0.0058 -0.1197
  447MOL0     C60212   4.371   5.298   7.712 -0.0075 -0.4757  0.7949
  447MOL0     O60213   4.311   5.427   7.694 -0.2009  0.5318 -0.4343
  447MOL0     C60214   4.262   5.495   7.804 -0.2777 -0.2837  0.1984
  447MOL0     C60215   4.351   5.522   7.909 -0.2493 -0.7418  0.9492
  447MOL0     C60216   4.304   5.609   8.008  0.0687  1.2964  0.8031
  447MOL0     C60217   4.169   5.644   8.017 -0.3820 -0.0855  0.9083
  447MOL0     O60218   4.132   5.720   8.126  0.2769 -0.6287 -0.1220
  447MOL0     C60219   3.987   5.735   8.149 -0.8372 -0.0291 -0.3838
  447MOL0     C60220   3.955   5.805   8.275  0.7750  0.3713 -0.8708
  447MOL0     C60221   3.973   5.955   8.268  0.4119  0.5753  0.1012
  447MOL0     C60222   3.924   6.019   8.395 -0.0669  0.1302 -0.4382
  447MOL0     C60223   3.907   6.174   8.364 -0.3303  0.3386  0.2503
  447MOL0     C60224   3.936   6.264   8.477 -1.2021  0.8679  0.1234
  447MOL0     C60225   3.871   6.390   8.465  0.3591 -1.0840 -0.2618
  447MOL0     C60226   3.945   6.501   8.394  0.7903  0.4126 -0.2548
  447MOL0     N60227   3.965   6.504   8.250  0.7178  0.4764 -0.1242
  447MOL0     C60228   3.852   6.482   8.162  0.7098 -0.2265  0.2215
  447MOL0     C60229   3.909   6.488   8.038 -0.5217  0.3740  0.1949
  447MOL0     C60230   3.828   6.467   7.906 -0.4021  0.6323 -0.5939
  447MOL0     C60231   3.881   6.560   7.801  0.6370  0.6063 -0.1472
  447MOL0     C60232   3.785   6.549   7.680  0.6624  0.1227  0.4192
  447MOL0     C60233   3.820   6.655   7.582  0.1310  0.2608 -0.3368
  447MOL0     O60234   3.708   6.718   7.519 -0.0822 -0.0322 -0.3873
  447MOL0     C60235   3.688   6.849   7.534 -0.5099 -0.4431  0.1353
  447MOL0     C60236   3.687   6.910   7.659 -0.2021 -0.4117 -0.0519
  447MOL0     C60237   3.655   7.050   7.675  0.3891 -0.1142 -0.2357
  447MOL0     C60238   3.604   7.129   7.574 -0.1776  0.1812  1.2273
  447MOL0     C60239   3.572   7.270   7.593 -0.1196 -0.1251 -0.3008
  447MOL0     O60240   3.602   7.324   7.715 -0.5485  0.2962  0.0915
  447MOL0     C60241   3.615   7.457   7.723 -0.5019  0.2495  0.9433
  447MOL0     C60242   3.709   7.532   7.640 -0.7262 -0.7483 -0.1238
  447MOL0     C60243   3.717   7.673   7.654  0.2314 -0.8287  0.2422
  447MOL0     C60244   3.646   7.738   7.746  0.1638 -0.3653 -0.1741
  447MOL0     O60245   3.677   7.865   7.760 -0.3187  0.3360  0.0882
  447MOL0     C60246   3.571   7.958   7.757  0.4147 -0.6515  0.2067
  447MOL0     C60247   3.483   7.981   7.631  0.2396 -0.0188  0.5096
  447MOL0     C60248   3.391   8.107   7.662  0.2239 -0.1810 -0.7018
  447MOL0     C60249   3.284   8.131   7.552 -0.8003 -0.0037 -1.1296
  447MOL0     C60250   3.224   8.273   7.551 -0.9527 -0.2843 -0.9267
  447MOL0     C60251   3.323   8.381   7.490  0.0894 -0.2645  0.2521
  447MOL0     C60252   3.263   8.525   7.506 -0.4073 -1.6043 -0.5163
  447MOL0     C60253   3.118   8.548   7.445 -0.2644 -0.5142 -0.3201
  447MOL0    Cl60254   3.055   8.711   7.499  0.5575 -0.1954 -0.2681
  447MOL0     C60255   3.546   7.673   7.830 -0.5330 -0.4708  0.8542
  447MOL0     C60256   3.534   7.536   7.810 -0.3232  0.5493 -0.1639
  447MOL0     O60257   3.517   7.330   7.498  0.7867  0.9640 -0.6376
  447MOL0     C60258   3.606   7.069   7.442  0.4011  0.7622 -0.3276
  447MOL0     C60259   3.641   6.931   7.429  0.8250 -1.2844  0.2277
  447MOL0     N60260   4.050   6.510   8.049  0.9552  1.0813  0.1163
  447MOL0     N60261   4.079   6.510   8.174 -0.1182 -0.6502 -0.6422
  447MOL0     C60262   4.075   5.604   7.915  0.0491 -0.1235 -0.0312
  447MOL0     C60263   4.127   5.525   7.815  0.6302 -0.5278  0.2874
  447MOL0     C60264   4.447   5.248   7.593 -0.6451  0.5034 -0.2094
  447MOL0     C60265   4.575   5.197   7.614 -0.3026 -0.8436  0.2305
  447MOL0     C60266   4.642   5.120   7.517  0.2364  0.0046 -0.8132
  447MOL0     C60267   4.586   5.113   7.391  0.1393 -0.0814  0.6803
  447MOL0     O60268   4.647   5.038   7.298 -0.3119  0.7628  0.0088
  447MOL0     C60269   4.722   5.129   7.211 -0.1525  1.2428  0.2828
  447MOL0     C60270   4.861   5.074   7.177  0.5771 -0.3394  0.6998
  447MOL0     C60271   4.936   5.060   7.302  1.1290 -0.3708  0.1409
  447MOL0     C60272   5.066   4.992   7.278  0.3952 -0.0368  0.5852
  447MOL0     C60273   5.169   5.087   7.231 -0.4700 -0.6648  0.1432
  447MOL0     C60274   5.255   5.172   7.184  1.0907  1.2109  1.0363
  447MOL0     C60275   4.472   5.190   7.357  0.4344  0.0097 -0.0903
  447MOL0     C60276   4.396   5.251   7.463  0.0862 -0.0553  0.7289
  447MOL0     C60277   4.266   5.316   7.423  0.4231  0.5126  0.0191
  447MOL0     H60278   4.450   5.477   7.902 -0.1461 -0.2705 -1.6903
  447MOL0     H60279   4.360   5.646   8.094  1.2747 -0.2429  0.7140
  447MOL0     H60280   3.939   5.796   8.073  0.3031  1.4886  0.0715
  447MOL0     H60281   3.942   5.635   8.146  2.3416 -1.6252 -0.3672
  447MOL0     H60282   4.005   5.762   8.362  2.1750  1.0786 -1.2977
  447MOL0     H60283   3.847   5.796   8.288  0.8110  2.5552  1.7631
  447MOL0     H60284   3.918   5.983   8.178 -0.2339  0.0502  0.3304
  447MOL0     H60285   4.076   5.990   8.250  1.4308 -1.7885  0.9513
  447MOL0     H60286   3.821   5.981   8.395  0.8216 -2.6265  1.9611
  447MOL0     H60287   3.977   6.002   8.488  0.2507  0.1167 -0.6211
  447MOL0     H60288   3.977   6.214   8.290 -1.2878  1.8324  0.1195
  447MOL0     H60289   3.810   6.187   8.316  0.5374  2.4882 -1.1001
  447MOL0     H60290   3.914   6.210   8.569 -0.9744 -0.0546 -0.3479
  447MOL0     H60291   4.041   6.293   8.479 -1.1764  0.8800 -0.9031
  447MOL0     H60292   3.863   6.427   8.567 -3.8244 -0.2115 -0.7394
  447MOL0     H60293   3.767   6.364   8.441  0.9915 -2.3438 -1.8088
  447MOL0     H60294   3.887   6.592   8.408 -0.8283 -0.2115 -2.4201
  447MOL0     H60295   4.038   6.524   8.448  0.4428 -0.6308  0.8387
  447MOL0     H60296   3.750   6.466   8.194  1.2475 -1.2398  1.5332
  447MOL0     H60297   3.832   6.361   7.878 -0.1014  0.7697 -1.0881
  447MOL0     H60298   3.722   6.490   7.921 -0.4387 -0.1341  0.4474
  447MOL0     H60299   3.886   6.667   7.827 -0.9811  1.2633 -2.2590
  447MOL0     H60300   3.980   6.527   7.769 -0.6519 -1.7832 -1.9178
  447MOL0     H60301   3.681   6.566   7.710  1.4990  3.2145  2.0696
  447MOL0     H60302   3.798   6.456   7.625  1.4462  1.1658 -1.2443
  447MOL0     H60303   3.884   6.605   7.508  1.7056  1.3049  0.2587
  447MOL0     H60304   3.890   6.727   7.626  0.9335 -3.6522  6.1937
  447MOL0     H60305   3.709   6.843   7.742 -1.5648 -2.6138 -1.3561
  447MOL0     H60306   3.672   7.093   7.773  0.8147 -3.4055  1.3047
  447MOL0     H60307   3.772   7.477   7.571 -1.6073  0.7995 -2.3083
  447MOL0     H60308   3.795   7.741   7.622 -0.2773 -0.6927 -0.7777
  447MOL0     H60309   3.505   7.944   7.843 -2.3216 -0.1344 -1.6740
  447MOL0     H60310   3.622   8.052   7.780  1.9568 -0.8263 -2.2033
  447MOL0     H60311   3.547   8.019   7.551 -0.6103  2.9576  1.0931
  447MOL0     H60312   3.435   7.889   7.597  1.4456 -0.0523 -1.2577
  447MOL0     H60313   3.358   8.074   7.761  0.4383 -3.1610 -1.5318
  447MOL0     H60314   3.456   8.194   7.669  1.9404 -1.2498 -2.3909
  447MOL0     H60315   3.203   8.064   7.582 -0.4197 -0.0048 -0.0394
  447MOL0     H60316   3.323   8.108   7.453  0.6435  0.2920 -0.6570
  447MOL0     H60317   3.209   8.307   7.654  1.1172  0.7675 -0.9414
  447MOL0     H60318   3.127   8.265   7.500 -1.0897  1.1615 -0.9291
  447MOL0     H60319   3.423   8.366   7.533 -0.3530 -0.5555  1.2286
  447MOL0     H60320   3.321   8.356   7.384 -5.2827 -0.1360  0.0210
  447MOL0     H60321   3.322   8.605   7.460  0.1227  0.3718  3.1810
  447MOL0     H60322   3.256   8.543   7.614  1.6115 -0.4460 -0.5255
  447MOL0     H60323   3.125   8.548   7.336 -0.7418  0.6316 -0.3620
  447MOL0     H60324   3.050   8.468   7.473  1.1426 -1.8870 -0.6466
  447MOL0     H60325   3.502   7.730   7.911  0.1158  1.2628  0.0550
  447MOL0     H60326   3.483   7.484   7.891  0.3192  0.1845  0.0109
  447MOL0     H60327   3.576   7.126   7.355 -2.9551 -0.4727 -0.1416
  447MOL0     H60328   3.650   6.886   7.330  0.1863 -3.3568  1.0645
  447MOL0     H60329   3.969   5.628   7.912 -0.0605 -0.6896 -1.5068
  447MOL0     H60330   4.074   5.488   7.728  1.8639 -0.8182 -0.3551
  447MOL0     H60331   4.615   5.213   7.714 -0.2214  1.6607 -0.1356
  447MOL0     H60332   4.739   5.075   7.536 -0.2321  0.5636  4.5650
  447MOL0     H60333   4.727   5.229   7.256 -0.1108  0.8309  1.2029
  447MOL0     H60334   4.669   5.135   7.115  2.6881  1.7533 -1.3757
  447MOL0     H60335   4.906   5.148   7.110 -1.9045 -1.5157 -2.5479
  447MOL0     H60336   4.855   4.982   7.118 -2.4646  0.6741 -0.7467
  447MOL0     H60337   4.874   4.995   7.365 -1.0522  1.6618  0.2456
  447MOL0     H60338   4.954   5.156   7.350  0.6872  1.0548 -2.3760
  447MOL0     H60339   5.104   4.948   7.370 -0.7910 -0.5173  0.8536
  447MOL0     H60340   5.061   4.915   7.200  0.7597 -0.0592  0.5818
  447MOL0     H60341   5.321   5.243   7.140  0.1314  1.7732  0.4627
  447MOL0     H60342   4.437   5.180   7.255  1.8328 -1.2776 -0.4908
  447MOL0     H60343   4.271   5.425   7.433 -0.8440  0.4383  1.8889
  447MOL0     H60344   4.240   5.305   7.317  2.1720  1.2992 -0.5313
  447MOL0     H60345   4.178   5.282   7.479  1.0843  0.9243  1.3358
  448MOL0     O60346   9.328  10.444   8.235 -0.0636  0.5800  0.0758
  448MOL0     C60347   9.326  10.483   8.113 -0.2190 -0.2541 -0.1556
  448MOL0     O60348   9.304  10.402   8.002 -0.1210 -0.3472 -0.5316
  448MOL0     C60349   9.302  10.271   8.034  0.1301  0.0832 -0.4928
  448MOL0     C60350   9.185  10.206   7.997 -0.2883 -0.0817 -0.0680
  448MOL0     C60351   9.161  10.076   8.034 -0.5475  0.6075  0.5351
  448MOL0     C60352   9.253   9.993   8.099 -1.3065  0.4948 -0.6775
  448MOL0     O60353   9.239   9.862   8.138  0.0029  0.2423  0.1777
  448MOL0     C60354   9.128   9.775   8.091 -0.0875 -0.4541  0.3417
  448MOL0     C60355   9.162   9.691   7.967 -0.3588 -0.3102 -1.0611
  448MOL0     C60356   9.310   9.637   7.953 -0.3716 -0.9382  0.3406
  448MOL0     C60357   9.334   9.517   8.037 -0.5416  0.4372 -0.7517
  448MOL0     C60358   9.478   9.487   8.043  0.4505 -0.6488  0.2329
  448MOL0     C60359   9.509   9.334   8.085  0.7388  0.1079 -0.4617
  448MOL0     C60360   9.479   9.316   8.229 -0.1150 -0.4756  0.3239
  448MOL0     C60361   9.552   9.193   8.276  0.6444  0.9777 -0.1747
  448MOL0     N60362   9.690   9.186   8.259 -0.0084 -0.3565  0.2528
  448MOL0     C60363   9.759   9.080   8.192  0.4753  0.7024  0.3615
  448MOL0     C60364   9.885   9.100   8.204 -0.5344  0.1960 -0.3669
  448MOL0     C60365   9.993   9.002   8.173  0.5536 -0.3719  0.3948
  448MOL0     C60366  10.134   9.055   8.187  0.5107 -0.0048  0.2263
  448MOL0     C60367  10.242   8.955   8.150  0.2370  0.1227  0.8858
  448MOL0     C60368  10.277   8.868   8.275  0.4460  0.8735  0.0306
  448MOL0     O60369  10.402   8.793   8.256 -0.8013 -0.2365  0.4484
  448MOL0     C60370  10.517   8.857   8.303 -0.1118 -0.1788 -0.5312
  448MOL0     C60371  10.632   8.775   8.328  0.1750 -0.3657  0.2369
  448MOL0     C60372  10.757   8.835   8.344 -0.3401  0.1392 -0.0216
  448MOL0     C60373  10.774   8.972   8.364  0.0262  0.6001 -0.3344
  448MOL0     C60374  10.912   9.018   8.402 -0.1646 -0.1431  0.5090
  448MOL0     O60375  11.019   8.930   8.406  0.7795  0.4340  0.2596
  448MOL0     C60376  11.143   8.975   8.422 -0.6709  0.4601  0.6569
  448MOL0     C60377  11.198   9.070   8.340  0.3544 -0.0357  0.2687
  448MOL0     C60378  11.328   9.112   8.344 -0.1850  1.1115  0.3592
  448MOL0     C60379  11.422   9.051   8.429  0.2066  0.0990 -0.4907
  448MOL0     O60380  11.548   9.097   8.412 -0.1051 -0.0009 -0.6777
  448MOL0     C60381  11.658   9.010   8.394 -0.1470  0.2397 -0.1504
  448MOL0     C60382  11.788   9.102   8.411  0.6857 -0.1374 -0.5114
  448MOL0     C60383  11.801   9.129   8.560  0.4924 -0.8546  0.1827
  448MOL0     C60384  11.919   9.215   8.579  0.3942  1.0769 -0.4692
  448MOL0     C60385  11.943   9.211   8.728  0.1252  0.6331 -0.2217
  448MOL0     C60386  12.070   9.294   8.751 -0.1435 -0.0220  0.0231
  448MOL0     C60387  12.057   9.444   8.727  0.7303 -0.4524  0.4113
  448MOL0     C60388  12.182   9.502   8.780 -0.0310 -0.0458  0.3105
  448MOL0    Cl60389  12.189   9.672   8.742 -0.4386  0.0657  0.8523
  448MOL0     C60390  11.369   8.943   8.512  0.2012  0.5119  0.3191
  448MOL0     C60391  11.231   8.909   8.507 -0.2492 -0.3323 -0.6167
  448MOL0     O60392  10.922   9.138   8.439  0.2998  0.8712  0.8580
  448MOL0     C60393  10.657   9.047   8.366 -0.5026 -1.0750 -0.3826
  448MOL0     C60394  10.535   9.001   8.337  0.2756  1.1911  0.6582
  448MOL0     N60395   9.910   9.215   8.275  0.1813 -0.0067 -0.5954
  448MOL0     N60396   9.789   9.266   8.308 -0.1267  0.1392 -0.2423
  448MOL0     C60397   9.376  10.058   8.135 -0.3704  0.4159 -0.2969
  448MOL0     C60398   9.401  10.196   8.105 -0.4958  0.1726  0.4193
  448MOL0     C60399   9.328  10.635   8.095  0.3015  0.8422  1.3529
  448MOL0     C60400   9.291  10.691   7.974 -0.6026 -1.1099  1.3788
  448MOL0     C60401   9.280  10.822   7.947  0.4720  0.1584  0.4672
  448MOL0     C60402   9.304  10.911   8.052 -0.0007  0.1829 -0.3221
  448MOL0     O60403   9.282  11.044   8.038 -0.3692 -0.2848  0.4805
  448MOL0     C60404   9.177  11.091   8.118 -0.1880  1.0487 -0.2905
  448MOL0     C60405   9.091  11.205   8.049 -0.1443  1.0801  0.7397
  448MOL0     C60406   9.153  11.341   8.088 -0.0153 -1.3861 -0.7850
  448MOL0     C60407   9.115  11.450   7.991  0.6232 -0.1008 -0.0173
  448MOL0     C60408   8.976  11.484   7.996  0.2208 -0.1751  0.8831
  448MOL0     C60409   8.857  11.495   7.992  0.3400 -0.5764 -0.3843
  448MOL0     C60410   9.348  10.867   8.174 -0.1342  0.3224  0.4879
  448MOL0     C60411   9.359  10.727   8.200  1.3120 -0.5566 -0.1046
  448MOL0     C60412   9.402  10.687   8.337 -0.2827 -0.1535 -0.0995
  448MOL0     H60413   9.110  10.270   7.952 -0.8231  2.2770  3.6693
  448MOL0     H60414   9.066  10.036   8.001 -0.5828  2.9660 -2.5648
  448MOL0     H60415   9.110   9.711   8.177 -0.4724  2.3196  2.4833
  448MOL0     H60416   9.034   9.831   8.078  0.2983 -0.2546 -2.0419
  448MOL0     H60417   9.143   9.759   7.884 -0.6501 -1.7483 -2.2113
  448MOL0     H60418   9.088   9.612   7.953 -0.6803 -0.2754  0.2950
  448MOL0     H60419   9.383   9.715   7.978  0.5001 -1.7698  0.4223
  448MOL0     H60420   9.340   9.606   7.852 -0.8062 -1.1982  0.2876
  448MOL0     H60421   9.291   9.536   8.136  1.7866  1.8898  0.0773
  448MOL0     H60422   9.288   9.429   7.992  3.0152 -1.7830 -0.4486
  448MOL0     H60423   9.533   9.510   7.951  1.4061 -0.6833  0.7756
  448MOL0     H60424   9.518   9.559   8.115 -1.0705  0.4870 -0.0167
  448MOL0     H60425   9.437   9.270   8.034  1.7061 -0.2334 -1.4474
  448MOL0     H60426   9.607   9.296   8.053 -0.1326 -1.2011 -1.7678
  448MOL0     H60427   9.370   9.322   8.235 -0.1431  4.7067 -0.5151
  448MOL0     H60428   9.518   9.404   8.280 -1.0568 -1.3972  2.7842
  448MOL0     H60429   9.527   9.192   8.382 -1.7747  2.2087 -0.6727
  448MOL0     H60430   9.504   9.105   8.231  0.4797  0.8846  0.1733
  448MOL0     H60431   9.711   8.990   8.153 -0.6069  2.1547 -1.8763
  448MOL0     H60432   9.990   8.924   8.250  1.9897 -0.1910  0.6551
  448MOL0     H60433   9.984   8.967   8.069 -0.2742 -0.6196  0.5416
  448MOL0     H60434  10.148   9.147   8.128 -3.2768  2.0950  2.2299
  448MOL0     H60435  10.149   9.090   8.289 -3.3253 -1.1741  1.3321
  448MOL0     H60436  10.330   9.018   8.140  1.9269 -2.2829 -0.2706
  448MOL0     H60437  10.228   8.897   8.058 -1.6749  0.7334  0.7412
  448MOL0     H60438  10.198   8.793   8.287  1.8986 -0.7879 -0.4356
  448MOL0     H60439  10.274   8.931   8.364  1.4488 -0.3190  0.9233
  448MOL0     H60440  10.618   8.670   8.304  1.2915  0.0435 -2.6369
  448MOL0     H60441  10.843   8.768   8.347 -2.1114 -2.4841 -2.6236
  448MOL0     H60442  11.142   9.128   8.267 -0.0408  0.4153  0.9210
  448MOL0     H60443  11.363   9.189   8.276  0.1423 -0.1725 -0.9706
  448MOL0     H60444  11.659   8.934   8.473 -0.3649  1.6152  1.2114
  448MOL0     H60445  11.654   8.959   8.297  0.1791  2.0794 -1.1740
  448MOL0     H60446  11.875   9.043   8.380 -0.0856 -2.3257  1.2831
  448MOL0     H60447  11.781   9.197   8.356 -2.5781  0.9723  1.5289
  448MOL0     H60448  11.716   9.165   8.618  1.5410  2.2417 -0.0214
  448MOL0     H60449  11.826   9.029   8.599  1.0432 -1.8033 -2.4316
  448MOL0     H60450  11.885   9.311   8.538  0.2083  0.5968 -1.4670
  448MOL0     H60451  12.003   9.176   8.521  0.0395 -0.4374 -0.0065
  448MOL0     H60452  11.960   9.105   8.747 -1.1546  0.3805 -0.4399
  448MOL0     H60453  11.857   9.251   8.783  0.8907  1.8662  0.1204
  448MOL0     H60454  12.102   9.290   8.855 -0.7434  0.8182  0.2584
  448MOL0     H60455  12.151   9.257   8.688 -0.3390 -2.0890  0.9173
  448MOL0     H60456  11.969   9.486   8.776 -0.3054 -0.0144 -1.6847
  448MOL0     H60457  12.039   9.455   8.619 -0.8108  1.2911  0.7903
  448MOL0     H60458  12.204   9.480   8.885  2.6945 -0.5148 -0.2861
  448MOL0     H60459  12.267   9.456   8.728 -0.5319 -2.5910  1.5802
  448MOL0     H60460  11.424   8.871   8.571  0.0574  0.6492  0.6182
  448MOL0     H60461  11.204   8.826   8.571  0.1483  1.0813  1.5138
  448MOL0     H60462  10.676   9.153   8.382  1.6047 -1.4464 -0.1993
  448MOL0     H60463  10.448   9.065   8.347 -0.7206  0.3797 -2.0137
  448MOL0     H60464   9.447   9.994   8.187 -1.2171 -0.6683 -0.4296
  448MOL0     H60465   9.493  10.249   8.127 -0.4088 -0.4584  1.6725
  448MOL0     H60466   9.274  10.631   7.885 -2.3056  0.4249  0.6119
  448MOL0     H60467   9.261  10.853   7.845 -1.9732 -0.2424  0.7410
  448MOL0     H60468   9.227  11.125   8.209  0.3911 -1.4004  0.3711
  448MOL0     H60469   9.115  11.009   8.155  0.4276  2.0397  3.3944
  448MOL0     H60470   8.987  11.193   8.081 -0.2847 -3.2871 -0.6292
  448MOL0     H60471   9.085  11.188   7.941  0.1408 -1.8499  1.0931
  448MOL0     H60472   9.260  11.326   8.071 -0.0089 -2.0847 -0.1667
  448MOL0     H60473   9.126  11.370   8.190 -1.4338 -1.3712 -1.1312
  448MOL0     H60474   9.174  11.540   8.011  1.5253 -0.3526 -1.3794
  448MOL0     H60475   9.143  11.409   7.893  2.8978 -0.3362  0.6879
  448MOL0     H60476   8.753  11.509   7.975 -0.0095 -1.5428  0.8478
  448MOL0     H60477   9.374  10.935   8.255  1.3110  0.0200  0.3092
  448MOL0     H60478   9.498  10.637   8.325 -0.5934 -1.3812  2.1463
  448MOL0     H60479   9.399  10.776   8.401  0.4574 -1.2950  1.5624
  448MOL0     H60480   9.333  10.622   8.391 -0.8929 -3.4293 -4.3047
  449MOL0     O60481   6.720   6.400   1.803  0.2727  0.0538 -0.5486
  449MOL0     C60482   6.616   6.416   1.747 -0.2993  0.2348  0.2141
  449MOL0     O60483   6.575   6.538   1.708 -0.1473 -0.3702 -0.6849
  449MOL0     C60484   6.650   6.654   1.733  1.2645  0.4571 -0.8497
  449MOL0     C60485   6.652   6.745   1.633 -0.9617 -0.3227  0.0204
  449MOL0     C60486   6.713   6.860   1.647 -0.2790 -0.3704 -0.1730
  449MOL0     C60487   6.765   6.899   1.765  0.5476 -0.0947 -0.8238
  449MOL0     O60488   6.816   7.028   1.766  0.3564 -0.3191  0.8631
  449MOL0     C60489   6.928   7.060   1.842 -0.3465 -0.1047 -0.5831
  449MOL0     C60490   7.049   7.009   1.780 -0.6618  0.4248  0.5773
  449MOL0     C60491   7.161   7.116   1.793 -0.9410 -0.6815  0.3366
  449MOL0     C60492   7.281   7.044   1.741 -1.2552 -0.1346 -0.2793
  449MOL0     C60493   7.408   7.127   1.739  0.8762 -0.3066  0.3210
  449MOL0     C60494   7.525   7.057   1.696 -0.3816 -0.4725  0.2939
  449MOL0     C60495   7.595   6.978   1.796 -1.1043  0.1331  0.0809
  449MOL0     C60496   7.707   6.891   1.735  1.4566 -0.8480 -0.9352
  449MOL0     N60497   7.829   6.958   1.713 -0.4748 -0.4391 -0.4033
  449MOL0     C60498   7.935   6.981   1.801  0.2190  0.5583  0.7862
  449MOL0     C60499   8.031   7.005   1.720 -0.4179  0.0400  0.9495
  449MOL0     C60500   8.176   7.031   1.751 -0.4080 -0.0891  0.0206
  449MOL0     C60501   8.217   7.138   1.854 -0.4575 -0.5076 -0.3190
  449MOL0     C60502   8.118   7.260   1.862  0.7036  0.5242  0.1735
  449MOL0     C60503   8.192   7.377   1.927 -0.5132 -0.8961 -0.5936
  449MOL0     O60504   8.296   7.418   1.826  0.3203 -1.0112 -0.1643
  449MOL0     C60505   8.353   7.547   1.844  0.5224  0.7497 -0.9636
  449MOL0     C60506   8.319   7.653   1.758 -1.3518 -0.0142  0.5367
  449MOL0     C60507   8.365   7.783   1.789  0.3083 -0.3423 -0.0529
  449MOL0     C60508   8.447   7.809   1.896 -0.2798  0.3627  0.0113
  449MOL0     C60509   8.507   7.934   1.930 -0.5431 -0.1872 -0.0931
  449MOL0     O60510   8.584   7.947   2.053 -0.0084  0.1336 -0.4315
  449MOL0     C60511   8.672   8.052   2.082 -0.9265  0.5186  0.2527
  449MOL0     C60512   8.755   8.115   1.985 -0.3915 -0.7098 -0.0796
  449MOL0     C60513   8.858   8.202   2.012  0.1702  0.5661  0.0238
  449MOL0     C60514   8.896   8.219   2.145  0.8395 -0.7927 -0.4292
  449MOL0     O60515   8.994   8.309   2.183 -0.0483 -0.4515  0.2951
  449MOL0     C60516   9.068   8.381   2.078  0.0993 -0.1855 -0.3766
  449MOL0     C60517   9.191   8.451   2.148  0.5749  0.7843 -0.3382
  449MOL0     C60518   9.278   8.521   2.046  1.6672 -0.1123 -0.3869
  449MOL0     C60519   9.381   8.606   2.115  0.4818 -0.9465  0.6221
  449MOL0     C60520   9.461   8.687   2.016  0.1445 -0.0246  1.4161
  449MOL0     C60521   9.538   8.798   2.085  0.0933 -0.0431 -1.0407
  449MOL0     C60522   9.583   8.915   1.997  0.3769  0.2011 -0.7861
  449MOL0     C60523   9.671   9.010   2.073 -0.7161  0.3037 -0.8933
  449MOL0    Cl60524   9.664   9.164   1.978 -0.1070  0.6744  0.0546
  449MOL0     C60525   8.826   8.144   2.242  0.2335  0.2628 -0.6309
  449MOL0     C60526   8.710   8.071   2.215  1.0735 -0.1043  0.7343
  449MOL0     O60527   8.501   8.022   1.843  0.6069 -0.1311  0.2603
  449MOL0     C60528   8.480   7.705   1.976 -0.2849 -0.3594 -0.0353
  449MOL0     C60529   8.431   7.576   1.959 -0.2532  0.0250  1.1599
  449MOL0     N60530   7.995   6.997   1.590 -0.0347  0.3610 -0.1205
  449MOL0     N60531   7.863   6.990   1.588 -0.1031  0.0716  0.5556
  449MOL0     C60532   6.765   6.812   1.877  0.8947 -0.4713 -0.3175
  449MOL0     C60533   6.698   6.692   1.860  0.3956 -0.8702 -1.0083
  449MOL0     C60534   6.526   6.294   1.705  0.2503 -0.5871  1.3542
  449MOL0     C60535   6.588   6.170   1.710 -0.7668  1.1169 -0.5832
  449MOL0     C60536   6.521   6.057   1.672 -0.4726  0.0801  0.9910
  449MOL0     C60537   6.394   6.070   1.607  0.2970  0.4914  0.1121
  449MOL0     O60538   6.319   5.969   1.557 -0.0494  0.2157  0.1949
  449MOL0     C60539   6.305   5.851   1.639  0.1824  0.5499 -0.1205
  449MOL0     C60540   6.312   5.726   1.540  1.0756 -0.2316  0.4806
  449MOL0     C60541   6.351   5.751   1.392 -0.1572 -0.7004 -0.4007
  449MOL0     C60542   6.456   5.654   1.341 -0.4424  0.0661 -0.9611
  449MOL0     C60543   6.386   5.529   1.316  0.1455  0.1658 -0.3300
  449MOL0     C60544   6.332   5.418   1.301  0.4009  0.2207  0.3377
  449MOL0     C60545   6.331   6.191   1.612 -0.1218 -1.1420  0.2627
  449MOL0     C60546   6.397   6.304   1.661  0.2714  0.6297 -0.0431
  449MOL0     C60547   6.322   6.425   1.694  0.2157 -1.2868  0.1060
  449MOL0     H60548   6.605   6.715   1.540 -1.2752  0.4540 -0.0789
  449MOL0     H60549   6.701   6.943   1.578  0.2037  0.8680  1.1897
  449MOL0     H60550   6.941   7.167   1.828  1.8558 -0.1402  0.6702
  449MOL0     H60551   6.909   7.026   1.945  0.7182  1.5472  0.1884
  449MOL0     H60552   7.036   7.000   1.672  0.5776  1.4324  0.3205
  449MOL0     H60553   7.082   6.917   1.829 -1.2216 -1.2211 -1.9170
  449MOL0     H60554   7.168   7.154   1.895  3.6997  1.5532 -0.5278
  449MOL0     H60555   7.146   7.197   1.721  0.6277  0.2405  1.0071
  449MOL0     H60556   7.303   6.969   1.818  2.2682 -0.1974 -1.1337
  449MOL0     H60557   7.275   6.999   1.642  0.3130 -0.6251 -0.1890
  449MOL0     H60558   7.392   7.216   1.678 -0.2961  0.2371  1.3621
  449MOL0     H60559   7.420   7.164   1.842  0.3961 -2.4881  1.2191
  449MOL0     H60560   7.497   6.995   1.611  0.2249 -1.3072  0.6827
  449MOL0     H60561   7.602   7.125   1.660 -1.2382 -0.9742 -2.7434
  449MOL0     H60562   7.521   6.906   1.834 -0.1523 -1.4473 -0.9320
  449MOL0     H60563   7.640   7.043   1.871  0.2366 -0.9062  0.2120
  449MOL0     H60564   7.717   6.810   1.807 -0.4218  0.6405  1.1711
  449MOL0     H60565   7.667   6.852   1.641 -0.3668  1.6793 -1.3046
  449MOL0     H60566   7.936   6.969   1.908  0.3102  1.4875  0.8907
  449MOL0     H60567   8.230   6.940   1.780 -1.6710 -1.4548 -1.7284
  449MOL0     H60568   8.218   7.048   1.651  1.8499 -2.2195  0.5037
  449MOL0     H60569   8.225   7.094   1.954 -1.6190 -2.0862 -0.8892
  449MOL0     H60570   8.310   7.172   1.806  0.5384 -0.6864  1.3830
  449MOL0     H60571   8.039   7.230   1.931  1.5703 -0.7647  0.6447
  449MOL0     H60572   8.084   7.282   1.761  3.1472  1.4137 -0.5253
  449MOL0     H60573   8.243   7.344   2.018 -0.1857 -0.3172 -0.5636
  449MOL0     H60574   8.125   7.460   1.951  1.5185  0.5218  0.4388
  449MOL0     H60575   8.254   7.621   1.678 -0.7694 -1.4793  0.6192
  449MOL0     H60576   8.331   7.865   1.727 -0.8232 -0.5619  0.2563
  449MOL0     H60577   8.743   8.084   1.881  1.0080 -2.3592  0.1962
  449MOL0     H60578   8.922   8.237   1.931  0.6004  1.5292  0.7511
  449MOL0     H60579   9.121   8.313   2.012  0.1957  0.4018 -0.9108
  449MOL0     H60580   8.999   8.452   2.030  0.0995  0.1259  0.0694
  449MOL0     H60581   9.154   8.524   2.221  1.5252  0.6089  0.3419
  449MOL0     H60582   9.253   8.379   2.202 -2.0722 -1.1152  0.3664
  449MOL0     H60583   9.340   8.443   2.001 -1.7447 -1.7996 -2.5046
  449MOL0     H60584   9.218   8.570   1.969  1.3630  2.8795  1.5317
  449MOL0     H60585   9.455   8.548   2.171  0.9233  0.9143  2.0255
  449MOL0     H60586   9.329   8.668   2.189  1.1050 -2.2172  2.1834
  449MOL0     H60587   9.396   8.733   1.941 -1.7183 -1.6987  1.9222
  449MOL0     H60588   9.538   8.623   1.972 -1.3409 -2.0381  1.6189
  449MOL0     H60589   9.472   8.838   2.162 -0.6121 -2.7330 -0.1204
  449MOL0     H60590   9.623   8.769   2.148 -1.8503  0.0528  1.7932
  449MOL0     H60591   9.494   8.974   1.974 -0.6152 -0.0483  2.0388
  449MOL0     H60592   9.636   8.881   1.907 -0.8717 -0.6602 -1.2184
  449MOL0     H60593   9.638   9.046   2.170  1.4690 -1.4143  0.6041
  449MOL0     H60594   9.776   8.978   2.084 -0.0841  1.8634 -1.9537
  449MOL0     H60595   8.867   8.153   2.343 -0.5042  1.3843 -0.4154
  449MOL0     H60596   8.657   8.039   2.304  1.8708  0.0192  1.2605
  449MOL0     H60597   8.539   7.717   2.066 -0.3091  0.5444 -0.1345
  449MOL0     H60598   8.448   7.497   2.031  0.6667 -0.7859  0.0889
  449MOL0     H60599   6.801   6.834   1.977  2.7100  1.4919 -1.3061
  449MOL0     H60600   6.697   6.622   1.944  1.9148  0.4631  0.1953
  449MOL0     H60601   6.692   6.166   1.740 -1.4413  1.9939  2.1831
  449MOL0     H60602   6.568   5.959   1.676 -1.8208 -0.5362  2.4145
  449MOL0     H60603   6.206   5.847   1.686 -1.1772  0.1409 -2.8412
  449MOL0     H60604   6.377   5.845   1.721 -1.8158  0.8893  1.7627
  449MOL0     H60605   6.208   5.692   1.541  0.7033  0.7268 -1.5524
  449MOL0     H60606   6.381   5.648   1.575  2.3760  0.6603 -0.0302
  449MOL0     H60607   6.382   5.854   1.369  2.8273 -0.9872  1.7080
  449MOL0     H60608   6.255   5.726   1.346 -2.1428  0.6001  2.6955
  449MOL0     H60609   6.512   5.691   1.255  2.6472 -0.6736  0.5785
  449MOL0     H60610   6.539   5.637   1.411 -1.2188 -3.6897 -0.7622
  449MOL0     H60611   6.268   5.332   1.291 -0.5962  1.2005 -2.9054
  449MOL0     H60612   6.228   6.203   1.581  0.1271  0.9337  0.0581
  449MOL0     H60613   6.214   6.411   1.697 -0.2160  1.0755 -1.6763
  449MOL0     H60614   6.345   6.457   1.797  0.2462 -1.7106  0.2336
  449MOL0     H60615   6.341   6.505   1.622 -0.5691 -2.0848 -1.0100
  450MOL0     O60616   1.063   3.452   3.016  0.0814 -0.6319 -1.0966
  450MOL0     C60617   0.970   3.450   2.938  0.9748 -0.6686 -0.2939
  450MOL0     O60618   0.844   3.411   2.971 -0.5996  0.7483  0.0046
  450MOL0     C60619   0.812   3.356   3.096  0.5038 -1.0377 -0.2230
  450MOL0     C60620   0.723   3.424   3.180  1.0007 -0.2713 -0.7258
  450MOL0     C60621   0.661   3.347   3.285  0.0273  0.6547 -0.0336
  450MOL0     C60622   0.694   3.210   3.310  0.0480 -0.8648  0.0150
  450MOL0     O60623   0.658   3.135   3.421  0.7426  0.0782  0.4745
  450MOL0     C60624   0.625   3.208   3.544 -0.1926  0.3625  0.1308
  450MOL0     C60625   0.581   3.106   3.645 -0.4974  0.1181  1.2336
  450MOL0     C60626   0.432   3.097   3.675  0.3283  0.1325 -0.2885
  450MOL0     C60627   0.344   3.069   3.546 -0.8249 -0.7493  0.6814
  450MOL0     C60628   0.198   3.042   3.590 -0.0143  0.3040 -0.7698
  450MOL0     C60629   0.142   2.914   3.515  0.0052  0.1743 -0.7541
  450MOL0     C60630   0.016   2.859   3.585 -0.6822 -0.3227 -0.0338
  450MOL0     C60631  -0.041   2.738   3.517  0.5162  0.1869 -0.1227
  450MOL0     N60632  -0.134   2.661   3.600 -0.2050 -0.8425 -0.3728
  450MOL0     C60633  -0.158   2.667   3.734 -0.6293 -0.0916  0.3370
  450MOL0     C60634  -0.256   2.582   3.760  0.6288  0.2909  0.3116
  450MOL0     C60635  -0.316   2.565   3.897  0.7366 -0.6634  0.7231
  450MOL0     C60636  -0.445   2.641   3.909 -0.4636 -0.6606  0.0409
  450MOL0     C60637  -0.492   2.619   4.054  0.5939 -0.3638  0.0566
  450MOL0     C60638  -0.642   2.657   4.066 -1.5040  0.1291  0.7150
  450MOL0     O60639  -0.674   2.792   4.020  0.1280  0.3512 -0.3669
  450MOL0     C60640  -0.614   2.901   4.084  0.3677 -0.0226  0.1500
  450MOL0     C60641  -0.574   2.905   4.212 -0.1734 -0.5322  0.1811
  450MOL0     C60642  -0.511   3.016   4.271  0.5363 -0.0291  1.2282
  450MOL0     C60643  -0.489   3.136   4.204  0.2405 -0.6192  0.3354
  450MOL0     C60644  -0.431   3.261   4.275  0.5862 -0.7320 -0.9090
  450MOL0     O60645  -0.401   3.366   4.196  0.7608  0.8616  0.1933
  450MOL0     C60646  -0.361   3.480   4.262 -0.5012 -0.2448  0.2606
  450MOL0     C60647  -0.224   3.516   4.275 -0.3858  0.4496  0.1667
  450MOL0     C60648  -0.175   3.645   4.317  0.5760  0.0054  0.8552
  450MOL0     C60649  -0.265   3.746   4.347  0.0384  0.9717 -0.3846
  450MOL0     O60650  -0.214   3.862   4.389 -0.3415  0.8058  0.4164
  450MOL0     C60651  -0.297   3.964   4.453 -0.1710 -0.2454 -0.2468
  450MOL0     C60652  -0.207   4.078   4.526  0.6521 -0.8375  0.5238
  450MOL0     C60653  -0.287   4.155   4.627  0.9618  0.1424  0.6723
  450MOL0     C60654  -0.383   4.259   4.575 -0.1729  0.3232  0.7069
  450MOL0     C60655  -0.360   4.390   4.654  0.3768  1.1398 -0.3753
  450MOL0     C60656  -0.404   4.379   4.807  0.1656 -0.3873 -0.1444
  450MOL0     C60657  -0.533   4.317   4.817  0.1969  0.6791 -0.5539
  450MOL0     C60658  -0.595   4.330   4.957 -0.2017  0.3429 -0.0053
  450MOL0    Cl60659  -0.490   4.245   5.072  0.0656 -0.0131  0.1955
  450MOL0     C60660  -0.405   3.718   4.326 -0.0523  0.3919  0.5016
  450MOL0     C60661  -0.446   3.584   4.296  0.5764  0.9411 -0.3802
  450MOL0     O60662  -0.408   3.247   4.396 -0.0918 -0.5538 -0.4481
  450MOL0     C60663  -0.551   3.143   4.076  0.2466  0.4413 -0.1998
  450MOL0     C60664  -0.607   3.021   4.018  1.3150 -0.3996 -0.0043
  450MOL0     N60665  -0.289   2.520   3.640  0.1276 -0.1057  0.3377
  450MOL0     N60666  -0.223   2.571   3.542 -0.4600 -0.9532  0.0095
  450MOL0     C60667   0.786   3.157   3.221  0.4872  0.0520 -0.5706
  450MOL0     C60668   0.847   3.227   3.120 -0.7731  0.2671  0.5249
  450MOL0     C60669   0.963   3.500   2.802  0.4080 -0.6189 -0.5590
  450MOL0     C60670   0.836   3.532   2.748  0.1908 -0.3046 -0.5269
  450MOL0     C60671   0.826   3.579   2.615 -0.0261  0.7835 -0.0116
  450MOL0     C60672   0.939   3.597   2.534 -0.0821  0.8542 -0.5073
  450MOL0     O60673   0.927   3.649   2.406  0.4688  0.7369  0.3380
  450MOL0     C60674   0.811   3.621   2.327 -0.7002  0.2973 -0.2424
  450MOL0     C60675   0.796   3.467   2.331  1.0133 -1.1009 -0.3251
  450MOL0     C60676   0.741   3.404   2.208 -0.0202 -0.0445  0.1572
  450MOL0     C60677   0.723   3.253   2.228  0.0488 -0.1999 -0.8176
  450MOL0     C60678   0.658   3.194   2.106 -0.3288 -0.6277 -0.4887
  450MOL0     C60679   0.614   3.142   2.006 -0.3816  0.4706  0.9428
  450MOL0     C60680   1.062   3.568   2.586 -0.8694  0.1236  0.5205
  450MOL0     C60681   1.077   3.516   2.722 -0.3173  0.2204  1.1149
  450MOL0     C60682   1.220   3.500   2.767 -1.2603 -0.4003 -0.2664
  450MOL0     H60683   0.697   3.525   3.150 -0.2741 -0.5521 -0.5826
  450MOL0     H60684   0.584   3.396   3.343 -0.7536 -0.9611  0.3527
  450MOL0     H60685   0.728   3.240   3.560  0.7764 -0.8394 -2.8860
  450MOL0     H60686   0.547   3.283   3.525 -1.6222 -1.5244 -1.9592
  450MOL0     H60687   0.636   3.131   3.736  1.1001  0.0512  0.3094
  450MOL0     H60688   0.617   3.007   3.613  0.3980  0.6428  0.5864
  450MOL0     H60689   0.400   3.194   3.713  0.9769  0.7773 -1.3380
  450MOL0     H60690   0.412   3.020   3.750  0.8551  1.1105  0.8722
  450MOL0     H60691   0.344   3.163   3.490  0.7595  0.8778  3.1906
  450MOL0     H60692   0.386   2.985   3.491 -1.1550 -0.7698  0.4580
  450MOL0     H60693   0.193   3.025   3.698  1.1737 -1.8489 -0.9899
  450MOL0     H60694   0.134   3.127   3.563 -0.7445  0.1759  0.4679
  450MOL0     H60695   0.120   2.949   3.414  1.0990  0.9657 -0.7365
  450MOL0     H60696   0.216   2.833   3.516  0.1093  0.2771  0.2124
  450MOL0     H60697  -0.059   2.938   3.593 -1.0113 -0.3530 -2.3579
  450MOL0     H60698   0.045   2.826   3.686 -0.7003  3.9613  1.5828
  450MOL0     H60699  -0.099   2.777   3.434 -0.6042 -1.5504 -0.2085
  450MOL0     H60700   0.033   2.670   3.474  0.5258  0.8861 -1.2408
  450MOL0     H60701  -0.105   2.731   3.805  0.9333 -1.3275  0.3413
  450MOL0     H60702  -0.334   2.458   3.910  3.7762 -1.4045 -0.3745
  450MOL0     H60703  -0.249   2.604   3.973 -0.2993  1.9035  0.4243
  450MOL0     H60704  -0.423   2.748   3.904 -0.3811 -0.7229 -1.0761
  450MOL0     H60705  -0.513   2.598   3.834 -1.0671  1.0151 -0.4072
  450MOL0     H60706  -0.436   2.679   4.126  0.3827  1.7926 -1.4627
  450MOL0     H60707  -0.485   2.513   4.078  3.7172 -0.6763 -1.6833
  450MOL0     H60708  -0.675   2.628   4.166 -0.4244 -0.2137  0.9911
  450MOL0     H60709  -0.686   2.586   3.996  0.4952  1.8191 -2.5145
  450MOL0     H60710  -0.579   2.823   4.283 -3.6791 -2.3467 -1.9045
  450MOL0     H60711  -0.482   3.002   4.375 -0.3018  0.5750  1.5526
  450MOL0     H60712  -0.151   3.440   4.250  0.3585  0.7309  1.4168
  450MOL0     H60713  -0.073   3.682   4.304  0.1450  0.4511 -2.0062
  450MOL0     H60714  -0.366   4.003   4.377  0.1176 -1.2878 -1.0778
  450MOL0     H60715  -0.349   3.912   4.534 -1.1497  0.0425 -0.6735
  450MOL0     H60716  -0.121   4.035   4.579  1.4323 -1.5424 -1.2049
  450MOL0     H60717  -0.165   4.140   4.446  0.1820  1.8180  2.2268
  450MOL0     H60718  -0.349   4.088   4.688 -0.2629  1.8277  1.3553
  450MOL0     H60719  -0.216   4.199   4.697 -0.0638 -0.0206  1.8343
  450MOL0     H60720  -0.488   4.228   4.573 -0.4345  1.2063 -0.6667
  450MOL0     H60721  -0.358   4.283   4.471 -0.0561 -0.5403  0.5214
  450MOL0     H60722  -0.415   4.468   4.601  0.0807  1.9685  1.0911
  450MOL0     H60723  -0.253   4.413   4.656  0.2600  1.7346  1.2192
  450MOL0     H60724  -0.333   4.315   4.860  1.5735  0.9792 -0.3236
  450MOL0     H60725  -0.405   4.480   4.850 -1.5803 -0.3314 -0.2555
  450MOL0     H60726  -0.544   4.214   4.783 -2.7171  1.5892 -2.8059
  450MOL0     H60727  -0.601   4.368   4.749 -0.2522  0.0531 -0.5794
  450MOL0     H60728  -0.604   4.435   4.988 -1.0307 -0.1232  1.4439
  450MOL0     H60729  -0.697   4.292   4.972  0.2571  0.0908  3.3993
  450MOL0     H60730  -0.485   3.791   4.337  0.3658  0.5721  2.6260
  450MOL0     H60731  -0.552   3.561   4.293  1.0658 -1.7720  0.3933
  450MOL0     H60732  -0.556   3.238   4.024 -0.7323  2.0020  2.5567
  450MOL0     H60733  -0.659   3.021   3.923 -2.3760 -2.0968  1.8136
  450MOL0     H60734   0.834   3.062   3.243 -1.1736 -0.7039 -0.0933
  450MOL0     H60735   0.906   3.172   3.048 -2.1381 -0.4643 -0.0655
  450MOL0     H60736   0.741   3.527   2.801  0.5964  1.4573  0.4599
  450MOL0     H60737   0.728   3.604   2.575 -0.4121  0.6815  0.8368
  450MOL0     H60738   0.844   3.652   2.228  2.2309 -0.1518  0.4964
  450MOL0     H60739   0.720   3.678   2.351 -0.7502  0.4859 -0.8591
  450MOL0     H60740   0.736   3.439   2.418 -1.1677  0.4974 -1.2148
  450MOL0     H60741   0.901   3.436   2.339  2.2535  1.8065 -3.0478
  450MOL0     H60742   0.809   3.416   2.124 -0.9657 -0.3402 -0.6756
  450MOL0     H60743   0.641   3.444   2.190 -0.8348 -2.7140 -1.8793
  450MOL0     H60744   0.818   3.206   2.254 -0.0836 -1.0242 -1.7791
  450MOL0     H60745   0.658   3.243   2.316  0.0277  2.2338 -0.4690
  450MOL0     H60746   0.603   3.085   1.916  1.0877  0.3554  0.7977
  450MOL0     H60747   1.151   3.580   2.526 -3.3899  0.0064 -3.6522
  450MOL0     H60748   1.292   3.511   2.685 -1.1652 -3.6747 -0.7757
  450MOL0     H60749   1.248   3.577   2.839  0.5525 -0.3887 -0.9049
  450MOL0     H60750   1.236   3.403   2.815 -1.8141  0.0510  0.8562
  451MOL0     O60751   3.372   7.796   9.059  0.4833  0.1613  0.3937
  451MOL0     C60752   3.456   7.715   9.030 -0.4200 -0.4798  0.6492
  451MOL0     O60753   3.476   7.588   9.091 -0.0262  0.3314 -0.3423
  451MOL0     C60754   3.375   7.557   9.178  0.2781 -0.2617  0.5577
  451MOL0     C60755   3.271   7.478   9.128  0.1687 -0.9380 -0.6251
  451MOL0     C60756   3.157   7.445   9.204 -0.3175  0.4532 -0.2436
  451MOL0     C60757   3.163   7.479   9.343  0.0681  0.9101 -0.9561
  451MOL0     O60758   3.059   7.446   9.428  0.5363  0.9053 -0.0822
  451MOL0     C60759   3.027   7.305   9.425  1.2064 -0.5423  0.3759
  451MOL0     C60760   2.919   7.294   9.530 -0.3059  0.5296 -0.0281
  451MOL0     C60761   2.875   7.153   9.532  0.3134 -0.4215  0.0028
  451MOL0     C60762   2.987   7.052   9.576  0.2005 -0.3839 -0.4038
  451MOL0     C60763   2.940   6.930   9.649  0.4683 -0.1684  0.0909
  451MOL0     C60764   2.864   6.831   9.547 -1.1891 -0.6819 -1.1864
  451MOL0     C60765   2.831   6.692   9.623 -1.1508 -0.1737  0.1658
  451MOL0     C60766   2.958   6.616   9.691  1.0675 -0.4724  0.2362
  451MOL0     N60767   2.934   6.474   9.723  0.0237 -0.1361 -0.3989
  451MOL0     C60768   2.937   6.370   9.637 -0.7428  1.3061 -0.1384
  451MOL0     C60769   2.884   6.260   9.702  0.6211  0.3345  0.2081
  451MOL0     C60770   2.867   6.123   9.645  0.4532  1.4645  0.7200
  451MOL0     C60771   2.886   6.098   9.490  0.8332 -0.0615 -0.0818
  451MOL0     C60772   2.755   6.105   9.410 -1.9860  0.3811  0.4575
  451MOL0     C60773   2.711   6.244   9.375 -0.4580 -0.7540 -0.2853
  451MOL0     O60774   2.794   6.291   9.263  0.6610 -0.0715 -0.4765
  451MOL0     C60775   2.788   6.428   9.224 -0.2174 -0.8706 -0.2032
  451MOL0     C60776   2.696   6.508   9.270 -0.8732 -1.0988  0.0127
  451MOL0     C60777   2.679   6.636   9.225 -0.6974  0.3412 -0.1279
  451MOL0     C60778   2.760   6.693   9.122  0.7126 -0.0441  0.5204
  451MOL0     C60779   2.738   6.836   9.080  0.1396  0.0290  0.2509
  451MOL0     O60780   2.787   6.861   8.949  0.2562 -0.8244  0.6108
  451MOL0     C60781   2.767   6.994   8.919 -0.4502 -0.4646 -0.3041
  451MOL0     C60782   2.698   7.028   8.801 -0.0931  0.7037 -0.6985
  451MOL0     C60783   2.673   7.158   8.758  0.1976 -0.1208 -0.7490
  451MOL0     C60784   2.735   7.267   8.833 -0.2795 -0.4291  0.7172
  451MOL0     O60785   2.700   7.396   8.798 -0.1596  0.1755  0.6414
  451MOL0     C60786   2.752   7.510   8.857  0.0865 -0.4226  0.4917
  451MOL0     C60787   2.734   7.632   8.777  0.2184 -0.2871  0.2190
  451MOL0     C60788   2.599   7.657   8.717 -0.3641 -0.4290  0.6312
  451MOL0     C60789   2.574   7.806   8.666 -0.0895 -0.4200 -0.7640
  451MOL0     C60790   2.555   7.912   8.774 -0.4854 -0.5973  0.7711
  451MOL0     C60791   2.554   8.058   8.710  0.5874 -0.1589 -0.2412
  451MOL0     C60792   2.453   8.070   8.584 -1.3802 -0.5349 -0.8314
  451MOL0     C60793   2.309   8.030   8.616 -0.6906  0.3895 -0.3345
  451MOL0    Cl60794   2.219   8.070   8.465  0.4061  0.4440 -0.0328
  451MOL0     C60795   2.807   7.238   8.945  0.9933  0.8766 -0.2888
  451MOL0     C60796   2.827   7.101   8.980 -0.3487  0.3884  0.4696
  451MOL0     O60797   2.656   6.900   9.146 -0.5208  0.3177  0.6513
  451MOL0     C60798   2.861   6.607   9.073  0.0690  0.2892 -0.0621
  451MOL0     C60799   2.874   6.474   9.124 -1.0846 -1.0076 -0.1684
  451MOL0     N60800   2.854   6.301   9.831 -0.4287  1.1227  0.2467
  451MOL0     N60801   2.895   6.424   9.840  0.3439  0.0058  0.1341
  451MOL0     C60802   3.269   7.559   9.392 -0.2354 -0.5900  0.5101
  451MOL0     C60803   3.373   7.607   9.308  0.1901  0.0852 -0.2261
  451MOL0     C60804   3.544   7.757   8.918 -0.1289 -0.0384 -0.0539
  451MOL0     C60805   3.672   7.692   8.899 -0.0472 -0.1881  0.4182
  451MOL0     C60806   3.746   7.704   8.779 -0.5389  0.9528 -0.1445
  451MOL0     C60807   3.712   7.799   8.681 -0.5774  0.5056 -0.4434
  451MOL0     O60808   3.784   7.824   8.569 -0.9508  0.4178 -0.3541
  451MOL0     C60809   3.918   7.771   8.542  0.2268 -0.3022 -0.7698
  451MOL0     C60810   3.976   7.839   8.417 -0.2583  0.6245  0.1493
  451MOL0     C60811   4.061   7.962   8.439  0.4893  0.5130 -0.0856
  451MOL0     C60812   4.207   7.928   8.476 -0.1148 -0.1261  0.0634
  451MOL0     C60813   4.287   8.049   8.491 -0.3647 -0.0979  1.4375
  451MOL0     C60814   4.364   8.141   8.466  0.6044 -0.8651 -0.2347
  451MOL0     C60815   3.595   7.866   8.701  0.1538  0.1208  0.9185
  451MOL0     C60816   3.503   7.843   8.808 -0.6210 -1.1491 -0.1200
  451MOL0     C60817   3.375   7.928   8.811  0.9044  0.1253 -0.2808
  451MOL0     H60818   3.274   7.454   9.022 -1.8112 -0.7158 -0.7604
  451MOL0     H60819   3.076   7.391   9.157  1.2728 -1.8422 -0.4916
  451MOL0     H60820   2.993   7.270   9.327  0.2302 -0.9024  0.8300
  451MOL0     H60821   3.117   7.252   9.457  1.1199 -0.7056  0.3494
  451MOL0     H60822   2.843   7.370   9.512 -0.8880  0.2006  0.9634
  451MOL0     H60823   2.950   7.323   9.631 -2.3109  0.9750  0.4947
  451MOL0     H60824   2.836   7.111   9.439  0.1761 -0.8197  0.2379
  451MOL0     H60825   2.800   7.145   9.611  0.5579 -1.8144  0.1191
  451MOL0     H60826   3.044   7.024   9.487  0.2029  0.6816 -0.7536
  451MOL0     H60827   3.043   7.114   9.647 -0.8601  0.0445  0.0775
  451MOL0     H60828   3.013   6.867   9.701 -2.6722 -4.1008  0.2458
  451MOL0     H60829   2.880   6.976   9.729  0.5268  1.5414 -0.7913
  451MOL0     H60830   2.774   6.884   9.512 -0.4234 -1.0385 -3.9097
  451MOL0     H60831   2.921   6.811   9.456  1.1821  1.3459 -0.2609
  451MOL0     H60832   2.774   6.631   9.553 -0.7016  0.0050 -0.3580
  451MOL0     H60833   2.751   6.710   9.696 -0.6419  2.4153  0.1928
  451MOL0     H60834   3.047   6.634   9.630 -0.9372  0.5180 -2.6116
  451MOL0     H60835   2.978   6.667   9.786 -0.2416  2.5585 -0.9739
  451MOL0     H60836   2.987   6.366   9.540 -2.7402  0.8232 -1.2076
  451MOL0     H60837   2.949   6.067   9.691  1.3258  1.1208 -1.1574
  451MOL0     H60838   2.770   6.082   9.674  2.0674 -1.0633  3.0274
  451MOL0     H60839   2.971   6.148   9.443 -0.0490  0.4207 -1.2119
  451MOL0     H60840   2.912   5.993   9.474 -3.4780 -1.0665 -1.9131
  451MOL0     H60841   2.669   6.049   9.447 -2.0415 -0.5376 -0.9850
  451MOL0     H60842   2.777   6.060   9.313  1.3155  2.3821  0.1047
  451MOL0     H60843   2.720   6.309   9.462  1.0486 -1.4130  0.0866
  451MOL0     H60844   2.604   6.237   9.350 -1.1739  1.7596  1.6352
  451MOL0     H60845   2.627   6.467   9.343 -0.7198 -1.0712  0.1709
  451MOL0     H60846   2.614   6.704   9.279  1.4760  1.9050  0.6908
  451MOL0     H60847   2.694   6.944   8.732 -1.3299 -0.0728  0.2568
  451MOL0     H60848   2.619   7.178   8.666 -0.0461 -0.9801 -0.8050
  451MOL0     H60849   2.705   7.505   8.956  2.0000  0.5329  1.5025
  451MOL0     H60850   2.860   7.501   8.871  0.3046 -0.5939 -1.0506
  451MOL0     H60851   2.769   7.710   8.846 -1.2078  0.7333 -0.1622
  451MOL0     H60852   2.793   7.646   8.686  0.0303  1.2621  0.3039
  451MOL0     H60853   2.587   7.594   8.629 -1.3874  0.9132 -0.2191
  451MOL0     H60854   2.522   7.633   8.791 -1.0025  0.6171  0.3337
  451MOL0     H60855   2.480   7.805   8.609 -0.4137  1.3129 -0.3059
  451MOL0     H60856   2.661   7.842   8.610 -1.0274  1.5586 -1.0449
  451MOL0     H60857   2.636   7.897   8.846  1.5645 -1.3258 -1.5530
  451MOL0     H60858   2.461   7.898   8.828 -0.2188  2.0531  2.1222
  451MOL0     H60859   2.520   8.129   8.786  0.8557 -0.6695  0.3658
  451MOL0     H60860   2.651   8.092   8.671  0.1145 -2.5430 -3.9372
  451MOL0     H60861   2.492   8.014   8.499 -0.6307 -0.9047 -0.2610
  451MOL0     H60862   2.454   8.174   8.550  2.5338 -0.5249 -1.1550
  451MOL0     H60863   2.313   7.921   8.625  4.5376  0.3399 -0.5874
  451MOL0     H60864   2.279   8.071   8.713  1.8936 -2.8930  2.1118
  451MOL0     H60865   2.847   7.316   9.010  1.0108 -0.0643  0.8631
  451MOL0     H60866   2.889   7.079   9.067  0.4577 -0.0859 -0.2031
  451MOL0     H60867   2.921   6.645   8.990 -0.7766  1.6137 -0.0879
  451MOL0     H60868   2.948   6.419   9.066 -0.6833  0.2142 -0.8576
  451MOL0     H60869   3.265   7.602   9.492  2.8315  0.0022  0.4660
  451MOL0     H60870   3.459   7.660   9.347  0.5273 -0.1571 -0.6318
  451MOL0     H60871   3.708   7.630   8.980  0.5879  2.5633  2.3865
  451MOL0     H60872   3.833   7.641   8.764 -1.7925 -0.5911 -1.2848
  451MOL0     H60873   3.915   7.662   8.540 -0.9094 -0.4344  2.4935
  451MOL0     H60874   3.979   7.789   8.631  0.1265 -2.5754 -0.1705
  451MOL0     H60875   3.886   7.864   8.360 -1.6279 -1.8982  1.0439
  451MOL0     H60876   4.025   7.758   8.362 -0.9755  0.4186 -0.2002
  451MOL0     H60877   4.007   8.020   8.516 -1.4356  1.2998 -1.9268
  451MOL0     H60878   4.053   8.028   8.352 -4.2284  2.2797  1.3179
  451MOL0     H60879   4.223   7.876   8.570  3.9846 -1.6990 -1.3035
  451MOL0     H60880   4.251   7.864   8.399  0.9668  2.7668 -1.8978
  451MOL0     H60881   4.444   8.209   8.442  0.0385 -0.4856 -1.0761
  451MOL0     H60882   3.569   7.942   8.628 -0.0018 -0.1688  0.6670
  451MOL0     H60883   3.396   7.995   8.894  1.1533 -1.6322  1.1522
  451MOL0     H60884   3.357   7.970   8.712 -0.8192 -0.0115 -0.0468
  451MOL0     H60885   3.289   7.864   8.832  2.2205 -2.9220 -3.2565
  452MOL0     O60886   0.766   6.353   0.364 -0.6137 -0.2024 -0.8623
  452MOL0     C60887   0.867   6.320   0.301 -0.4851 -0.3757  0.9469
  452MOL0     O60888   0.871   6.224   0.198  0.9542 -0.3828  0.3274
  452MOL0     C60889   0.755   6.154   0.167 -0.1869  0.1498  0.2334
  452MOL0     C60890   0.632   6.215   0.164 -0.1530 -0.2487  0.8609
  452MOL0     C60891   0.515   6.146   0.134  0.1048  0.2979 -0.0122
  452MOL0     C60892   0.518   6.016   0.090 -0.3423 -0.3153  0.6343
  452MOL0     O60893   0.401   5.951   0.054 -0.1625  0.1213  0.2062
  452MOL0     C60894   0.291   6.021  -0.018 -0.3083 -0.1505 -0.4168
  452MOL0     C60895   0.268   5.967  -0.167  0.2828 -0.2940 -0.7638
  452MOL0     C60896   0.262   5.819  -0.162  0.1737  0.3313  0.9522
  452MOL0     C60897   0.399   5.756  -0.169 -1.0364 -0.3121 -0.9038
  452MOL0     C60898   0.379   5.606  -0.213 -0.1179  0.5285 -0.0861
  452MOL0     C60899   0.513   5.544  -0.255  0.1635 -0.0618 -0.5912
  452MOL0     C60900   0.501   5.398  -0.296  0.1133 -0.4546  0.4652
  452MOL0     C60901   0.632   5.332  -0.342 -0.3645  0.0016 -0.6073
  452MOL0     N60902   0.624   5.206  -0.419  0.1610  0.7461  0.0216
  452MOL0     C60903   0.534   5.091  -0.405  0.6834 -0.7170  0.6032
  452MOL0     C60904   0.584   5.003  -0.500  0.8798  0.5261 -1.0267
  452MOL0     C60905   0.544   4.853  -0.522 -0.5880 -0.1802 -0.0688
  452MOL0     C60906   0.501   4.773  -0.397 -0.1510 -0.0530  0.1541
  452MOL0     C60907   0.484   4.625  -0.426 -0.2632 -0.5027  0.4697
  452MOL0     C60908   0.341   4.581  -0.471  0.1801 -0.3715 -0.8036
  452MOL0     O60909   0.340   4.444  -0.458 -0.2066  0.8943  0.6659
  452MOL0     C60910   0.245   4.362  -0.518 -0.4056 -0.2100  0.3402
  452MOL0     C60911   0.263   4.224  -0.506  0.9136  0.2246 -1.2252
  452MOL0     C60912   0.175   4.134  -0.562 -0.4080 -0.0027  0.3728
  452MOL0     C60913   0.065   4.178  -0.633  0.1175 -0.2029 -0.5258
  452MOL0     C60914  -0.011   4.079  -0.712 -0.5529 -0.1547 -0.5636
  452MOL0     O60915   0.023   3.951  -0.733 -0.1213 -0.5343 -0.5757
  452MOL0     C60916  -0.067   3.868  -0.789 -0.4778 -0.0472  0.1924
  452MOL0     C60917  -0.138   3.769  -0.713 -0.8185  1.0446  0.7340
  452MOL0     C60918  -0.217   3.678  -0.792  0.0206 -0.2839  0.4876
  452MOL0     C60919  -0.228   3.678  -0.932 -0.6694  0.4189  0.3164
  452MOL0     O60920  -0.297   3.588  -1.002  0.5873 -0.2413 -0.2688
  452MOL0     C60921  -0.405   3.518  -0.939  0.1453  0.8957  0.1043
  452MOL0     C60922  -0.477   3.422  -1.031 -0.1378 -1.0795 -0.1604
  452MOL0     C60923  -0.588   3.370  -0.939  0.1013 -0.0753  0.3177
  452MOL0     C60924  -0.706   3.312  -1.021  0.5032  0.4887 -0.1106
  452MOL0     C60925  -0.799   3.216  -0.951 -0.3045 -0.1692 -0.0952
  452MOL0     C60926  -0.863   3.268  -0.830  0.3428  0.4329 -0.0236
  452MOL0     C60927  -0.986   3.195  -0.787  0.0247  0.0316 -0.1435
  452MOL0     C60928  -0.972   3.047  -0.786  0.4721 -0.8503 -0.3089
  452MOL0    Cl60929  -1.119   2.981  -0.723 -0.0211 -0.0088 -0.4357
  452MOL0     C60930  -0.150   3.774  -0.998 -0.2691 -0.4854 -0.4224
  452MOL0     C60931  -0.071   3.868  -0.928  0.0798 -0.2052 -0.6397
  452MOL0     O60932  -0.097   4.137  -0.773  0.3666 -0.8027 -0.0040
  452MOL0     C60933   0.055   4.314  -0.650  0.2027 -0.0450 -0.6585
  452MOL0     C60934   0.135   4.406  -0.590 -0.1614  0.2281 -0.8229
  452MOL0     N60935   0.686   5.067  -0.566 -0.0703 -0.1667  0.2447
  452MOL0     N60936   0.714   5.181  -0.517  0.0253  0.3832  0.5640
  452MOL0     C60937   0.641   5.953   0.084  0.1586  0.5253  0.2366
  452MOL0     C60938   0.759   6.024   0.122  0.6765  0.7519  0.5555
  452MOL0     C60939   0.997   6.392   0.313 -0.5160 -0.2159  0.7648
  452MOL0     C60940   1.110   6.340   0.248 -0.2823 -0.2452 -0.5457
  452MOL0     C60941   1.241   6.397   0.265  0.6287  0.7884  0.3288
  452MOL0     C60942   1.260   6.510   0.336 -0.6241  0.4303 -0.4721
  452MOL0     O60943   1.372   6.589   0.336 -0.4300 -0.5205  0.0053
  452MOL0     C60944   1.428   6.616   0.210  0.1075 -0.6202 -0.0323
  452MOL0     C60945   1.336   6.724   0.138 -0.3507  0.5998 -0.1736
  452MOL0     C60946   1.333   6.844   0.227 -0.4228  0.3288  0.0120
  452MOL0     C60947   1.242   6.940   0.175  1.2959  0.2989  0.8130
  452MOL0     C60948   1.096   6.908   0.191 -0.8599 -1.0456 -0.1552
  452MOL0     C60949   0.977   6.896   0.197 -0.2432 -0.7253 -0.9157
  452MOL0     C60950   1.150   6.558   0.407 -0.1349  0.4145  0.4065
  452MOL0     C60951   1.019   6.504   0.396  0.0378 -1.0966 -0.9673
  452MOL0     C60952   0.920   6.567   0.489 -0.4551 -0.4456 -0.0125
  452MOL0     H60953   0.626   6.322   0.182 -2.2712 -0.3157  0.8659
  452MOL0     H60954   0.419   6.188   0.160 -0.2481 -0.6076  0.1935
  452MOL0     H60955   0.193   6.018   0.031 -1.2438  3.7207 -1.7129
  452MOL0     H60956   0.317   6.127  -0.019 -2.4633  0.4248 -1.3555
  452MOL0     H60957   0.339   6.010  -0.239 -1.3526  1.3984 -1.4719
  452MOL0     H60958   0.174   5.999  -0.213  0.5292 -3.6459 -4.1398
  452MOL0     H60959   0.195   5.787  -0.243 -0.5663  0.0782  1.6498
  452MOL0     H60960   0.209   5.778  -0.076  1.4666  1.3506  2.2792
  452MOL0     H60961   0.465   5.801  -0.244  2.2671 -2.2197  0.5992
  452MOL0     H60962   0.451   5.750  -0.072 -1.0216 -2.1037 -0.9848
  452MOL0     H60963   0.336   5.545  -0.132 -0.8327  2.1085  0.7625
  452MOL0     H60964   0.313   5.600  -0.300  0.5651 -1.3872 -0.5355
  452MOL0     H60965   0.568   5.602  -0.330  0.8675  1.3277  0.9420
  452MOL0     H60966   0.576   5.541  -0.166 -0.5544  3.1434  0.1470
  452MOL0     H60967   0.446   5.399  -0.390 -0.1699  2.0253  0.5948
  452MOL0     H60968   0.459   5.333  -0.219  1.7220 -1.4111  0.5943
  452MOL0     H60969   0.679   5.410  -0.402 -0.6860 -0.7195 -1.8353
  452MOL0     H60970   0.697   5.303  -0.259  0.8436  0.0626 -1.4974
  452MOL0     H60971   0.441   5.092  -0.349  1.0232  4.5224  1.6610
  452MOL0     H60972   0.459   4.847  -0.591 -1.5639 -2.4437  1.2128
  452MOL0     H60973   0.621   4.807  -0.586 -0.5180  1.4733 -1.2267
  452MOL0     H60974   0.565   4.780  -0.308 -0.6624  0.7579  0.4807
  452MOL0     H60975   0.404   4.809  -0.362 -0.2570  0.0110 -0.2031
  452MOL0     H60976   0.522   4.566  -0.341 -0.3133 -0.0655  0.7965
  452MOL0     H60977   0.547   4.604  -0.513 -2.3176  0.1696 -1.2483
  452MOL0     H60978   0.311   4.622  -0.568 -1.3333  0.4794 -0.0189
  452MOL0     H60979   0.264   4.612  -0.399 -0.3600  0.9976 -1.9281
  452MOL0     H60980   0.353   4.183  -0.461  0.3978  0.0507 -0.3115
  452MOL0     H60981   0.194   4.030  -0.535  0.5347  0.9595  4.0236
  452MOL0     H60982  -0.129   3.797  -0.608  2.2671  3.4514 -0.0119
  452MOL0     H60983  -0.280   3.612  -0.732  1.4443 -0.9502  1.2929
  452MOL0     H60984  -0.388   3.466  -0.844  3.0670  0.0339 -0.7905
  452MOL0     H60985  -0.472   3.603  -0.924 -1.5167 -0.3188 -0.1278
  452MOL0     H60986  -0.523   3.481  -1.111  2.1340  0.9235 -0.1155
  452MOL0     H60987  -0.418   3.345  -1.082  0.6628  0.5258 -1.7862
  452MOL0     H60988  -0.529   3.288  -0.896  0.3182 -0.1640 -0.1377
  452MOL0     H60989  -0.615   3.447  -0.867  0.8487  1.3457 -0.8610
  452MOL0     H60990  -0.662   3.253  -1.101 -0.5713  1.1595 -1.2264
  452MOL0     H60991  -0.763   3.395  -1.064  1.2187 -1.2683 -5.0217
  452MOL0     H60992  -0.744   3.123  -0.934 -1.8387 -1.5297 -2.0441
  452MOL0     H60993  -0.881   3.188  -1.017 -1.9669 -0.4705  1.9954
  452MOL0     H60994  -0.791   3.269  -0.747 -1.7498  2.5578  1.9131
  452MOL0     H60995  -0.892   3.373  -0.847  1.7036  1.0948  1.5050
  452MOL0     H60996  -1.072   3.221  -0.849 -1.5676  1.2128  2.3761
  452MOL0     H60997  -1.019   3.212  -0.684  0.4001 -1.9049  0.3485
  452MOL0     H60998  -0.923   3.000  -0.872  1.8145 -1.6269  0.8370
  452MOL0     H60999  -0.906   3.023  -0.702 -0.1060 -0.6338  0.2118
  452MOL0     H61000  -0.149   3.781  -1.107 -0.0558  1.4211 -0.3278
  452MOL0     H61001  -0.021   3.942  -0.989 -2.8540  0.4530 -2.5002
  452MOL0     H61002  -0.030   4.358  -0.703 -0.1607 -1.8300 -1.6292
  452MOL0     H61003   0.125   4.512  -0.612  0.8924  0.3230 -0.9100
  452MOL0     H61004   0.637   5.849   0.053 -0.6899  0.2245  1.3184
  452MOL0     H61005   0.857   5.979   0.131 -0.0652 -0.5118  3.2368
  452MOL0     H61006   1.086   6.252   0.189 -1.1780  0.3118 -1.0312
  452MOL0     H61007   1.330   6.358   0.218  1.6300  0.4167  2.4143
  452MOL0     H61008   1.437   6.527   0.148 -0.9276  0.1499 -1.3376
  452MOL0     H61009   1.524   6.664   0.233 -0.1790  0.4263 -0.9695
  452MOL0     H61010   1.233   6.685   0.136 -0.8254  1.6854  1.4973
  452MOL0     H61011   1.372   6.755   0.039  0.4068 -1.2518 -0.5277
  452MOL0     H61012   1.431   6.888   0.248 -0.9515  2.1742 -1.1413
  452MOL0     H61013   1.294   6.808   0.322 -2.3785 -2.3732 -1.6709
  452MOL0     H61014   1.254   7.034   0.229 -1.2924  1.2682 -0.1351
  452MOL0     H61015   1.259   6.956   0.068  2.9096 -1.4634  0.7526
  452MOL0     H61016   0.872   6.911   0.212 -0.0736 -1.2363  1.0673
  452MOL0     H61017   1.169   6.636   0.480 -5.0687 -0.7770  3.5156
  452MOL0     H61018   0.877   6.649   0.431  0.8096  0.1381 -0.1358
  452MOL0     H61019   0.848   6.507   0.547  1.0304 -0.0818  2.3539
  452MOL0     H61020   0.975   6.610   0.573 -0.4618 -1.1180  0.3501
  453MOL0     O61021   4.719  10.643   0.524 -0.1885 -0.1150  0.8665
  453MOL0     C61022   4.703  10.527   0.501  0.3065  0.4433 -0.9599
  453MOL0     O61023   4.731  10.465   0.380 -0.4752  0.6877  0.3801
  453MOL0     C61024   4.795  10.519   0.268  0.3436  0.1243 -0.2876
  453MOL0     C61025   4.875  10.639   0.271 -0.3565  0.0928  0.4740
  453MOL0     C61026   4.935  10.686   0.151  0.1416 -0.3067 -0.5684
  453MOL0     C61027   4.921  10.617   0.028  0.2704  0.0934 -0.1474
  453MOL0     O61028   4.992  10.667  -0.075 -0.6169  1.1355  0.0780
  453MOL0     C61029   4.990  10.589  -0.193 -0.0429  0.0284  0.1803
  453MOL0     C61030   4.873  10.625  -0.284  0.2594  0.6045 -0.0581
  453MOL0     C61031   4.884  10.769  -0.334  0.8245 -0.6148 -1.0681
  453MOL0     C61032   4.791  10.799  -0.451 -0.2196  0.5023  0.4745
  453MOL0     C61033   4.802  10.950  -0.505  0.3744 -0.4417 -0.2534
  453MOL0     C61034   4.921  10.987  -0.596 -0.8267  1.0966  0.0982
  453MOL0     C61035   4.918  10.891  -0.719 -1.2135 -0.4528 -0.2130
  453MOL0     C61036   5.016  10.955  -0.821 -0.0430  0.0067 -0.6167
  453MOL0     N61037   5.052  10.869  -0.941  0.3069  0.5078 -0.8074
  453MOL0     C61038   5.060  10.910  -1.074 -0.5166  1.7128  0.2979
  453MOL0     C61039   5.122  10.797  -1.127 -0.1649  0.3643  0.4223
  453MOL0     C61040   5.198  10.788  -1.260 -0.1847  0.4230 -0.2462
  453MOL0     C61041   5.286  10.898  -1.293 -1.0361 -0.4756 -0.1100
  453MOL0     C61042   5.390  10.924  -1.181 -0.3619  0.1727  0.5245
  453MOL0     C61043   5.496  11.016  -1.242  0.3313 -0.3205 -0.3518
  453MOL0     O61044   5.593  10.946  -1.321 -0.2925 -0.1454 -0.3126
  453MOL0     C61045   5.698  10.884  -1.259 -0.3850  0.2599  1.1172
  453MOL0     C61046   5.804  10.949  -1.201  0.8368 -0.2583  0.2053
  453MOL0     C61047   5.911  10.876  -1.147 -0.4277  0.0547  0.5931
  453MOL0     C61048   5.911  10.737  -1.157 -0.2541  0.5728 -0.3156
  453MOL0     C61049   6.022  10.652  -1.112 -0.1216 -0.0055  0.9842
  453MOL0     O61050   6.002  10.537  -1.039  0.1817 -0.3423 -0.1045
  453MOL0     C61051   6.104  10.474  -0.980 -0.3565  0.6582 -0.8545
  453MOL0     C61052   6.199  10.553  -0.908  1.3229  0.1576  0.0709
  453MOL0     C61053   6.319  10.502  -0.861 -0.1398  1.3444 -0.0084
  453MOL0     C61054   6.359  10.368  -0.888 -0.3074 -0.6516 -0.4660
  453MOL0     O61055   6.491  10.323  -0.858  0.0607 -0.1378 -0.1605
  453MOL0     C61056   6.552  10.378  -0.738  0.4213  0.0196 -0.0962
  453MOL0     C61057   6.673  10.293  -0.704  0.1463 -0.1890  0.4647
  453MOL0     C61058   6.767  10.287  -0.823 -0.2422 -1.0418  0.6186
  453MOL0     C61059   6.900  10.234  -0.768 -1.0491  0.1127  0.2765
  453MOL0     C61060   7.004  10.262  -0.872  0.1842 -0.0570 -0.1537
  453MOL0     C61061   7.131  10.198  -0.837  0.5513  0.6133 -0.5052
  453MOL0     C61062   7.218  10.218  -0.969 -0.2935  0.0345 -0.1276
  453MOL0     C61063   7.351  10.144  -0.961 -0.0182 -0.2107  0.3231
  453MOL0    Cl61064   7.315   9.966  -0.984 -0.0799  0.1215  0.3557
  453MOL0     C61065   6.274  10.287  -0.966 -0.6862 -0.2487  0.5186
  453MOL0     C61066   6.151  10.342  -1.014  0.0628 -0.4037  0.3018
  453MOL0     O61067   6.129  10.692  -1.153  0.3596  0.5289 -0.9460
  453MOL0     C61068   5.801  10.672  -1.208  0.6270 -0.6719 -0.2600
  453MOL0     C61069   5.695  10.747  -1.259 -0.6901  0.6507 -0.0270
  453MOL0     N61070   5.131  10.701  -1.032 -0.3514  0.4052  0.7055
  453MOL0     N61071   5.093  10.738  -0.915  1.3807 -0.5089 -0.0888
  453MOL0     C61072   4.845  10.500   0.027 -0.6958  0.2248  0.3254
  453MOL0     C61073   4.788  10.452   0.147  0.5047  0.5587 -0.9704
  453MOL0     C61074   4.647  10.445   0.610 -1.2039 -0.1500  0.7359
  453MOL0     C61075   4.536  10.504   0.675 -0.0646 -0.3759 -0.4298
  453MOL0     C61076   4.467  10.432   0.767 -0.5815  0.0660  0.9400
  453MOL0     C61077   4.514  10.310   0.820 -0.0501  1.0554  1.1250
  453MOL0     O61078   4.450  10.241   0.920  0.1453  0.7261 -0.1765
  453MOL0     C61079   4.315  10.267   0.940  0.9441  1.0310  0.2231
  453MOL0     C61080   4.240  10.131   0.960  0.0701 -0.5534  0.0457
  453MOL0     C61081   4.238  10.051   0.833 -0.8837  0.3808 -0.1634
  453MOL0     C61082   4.328   9.932   0.840  0.2938  0.8125  0.5161
  453MOL0     C61083   4.307   9.834   0.736  0.1418 -0.9377 -0.1732
  453MOL0     C61084   4.311   9.742   0.659 -0.5094 -0.0603 -0.2716
  453MOL0     C61085   4.625  10.246   0.752 -0.2043 -0.4268 -0.4265
  453MOL0     C61086   4.688  10.308   0.647 -0.9106  0.1532 -0.1478
  453MOL0     C61087   4.798  10.222   0.577  0.0239 -0.8680 -0.0657
  453MOL0     H61088   4.900  10.673   0.371 -0.0320 -0.9717  0.7686
  453MOL0     H61089   5.005  10.768   0.156 -0.8374  0.5042  0.4782
  453MOL0     H61090   5.085  10.597  -0.248 -0.5865  2.2699 -0.5436
  453MOL0     H61091   4.994  10.484  -0.162 -0.8049  0.8507  3.4028
  453MOL0     H61092   4.780  10.616  -0.226  1.2797 -0.3125  1.4886
  453MOL0     H61093   4.857  10.561  -0.371 -2.8227  1.0648  0.0352
  453MOL0     H61094   4.988  10.794  -0.354  1.4869 -1.6661  0.8233
  453MOL0     H61095   4.846  10.836  -0.257 -0.4742 -1.0096 -1.3440
  453MOL0     H61096   4.808  10.731  -0.535  0.9184  0.1818  0.9484
  453MOL0     H61097   4.691  10.789  -0.407  0.3661 -2.8892  1.2932
  453MOL0     H61098   4.709  10.969  -0.560  0.6866 -0.5866 -0.8380
  453MOL0     H61099   4.801  11.017  -0.418 -1.6652  1.0806 -1.3692
  453MOL0     H61100   4.928  11.092  -0.628  1.0483  0.8263 -0.4694
  453MOL0     H61101   5.011  10.981  -0.534 -2.4705  1.0671  2.6304
  453MOL0     H61102   4.820  10.876  -0.765 -0.0604  0.5834 -3.3320
  453MOL0     H61103   4.961  10.793  -0.697  0.6179  0.7113  1.7326
  453MOL0     H61104   4.963  11.045  -0.853 -0.2833  2.2086  4.8914
  453MOL0     H61105   5.107  10.991  -0.770 -1.1383  2.0714  0.0054
  453MOL0     H61106   5.027  11.000  -1.124 -1.3154  1.4025  0.2527
  453MOL0     H61107   5.263  10.700  -1.257  0.2005  0.7290  1.6115
  453MOL0     H61108   5.126  10.783  -1.343  4.6733 -2.8278 -4.9264
  453MOL0     H61109   5.345  10.870  -1.381 -1.6438  0.7447 -0.9423
  453MOL0     H61110   5.238  10.994  -1.317  1.7801  0.3509 -3.1920
  453MOL0     H61111   5.444  10.838  -1.140  0.0837 -0.1404 -0.6776
  453MOL0     H61112   5.338  10.972  -1.097 -1.6068 -3.8697  2.3342
  453MOL0     H61113   5.528  11.084  -1.163 -4.8335  2.7422 -0.4131
  453MOL0     H61114   5.438  11.086  -1.303  1.7004  0.3232 -0.9505
  453MOL0     H61115   5.803  11.057  -1.184 -0.9485 -0.3499  0.8306
  453MOL0     H61116   5.988  10.935  -1.099  1.3007 -1.8120  0.2469
  453MOL0     H61117   6.175  10.655  -0.879  3.0599 -0.3787  4.0840
  453MOL0     H61118   6.370  10.573  -0.798 -1.2141  1.5441  0.6574
  453MOL0     H61119   6.582  10.482  -0.752 -1.0276  0.8016  2.2246
  453MOL0     H61120   6.492  10.377  -0.647  1.5577  3.9276  0.8767
  453MOL0     H61121   6.715  10.344  -0.617  0.4738 -0.3973  0.4298
  453MOL0     H61122   6.642  10.190  -0.686 -0.3688  0.1909  1.9652
  453MOL0     H61123   6.734  10.223  -0.906  1.3437 -0.1093 -0.7994
  453MOL0     H61124   6.781  10.385  -0.871 -1.3915 -1.5711 -0.9180
  453MOL0     H61125   6.901  10.128  -0.739 -2.5864  0.1923  0.6957
  453MOL0     H61126   6.921  10.291  -0.677 -1.3508 -1.3780  1.3162
  453MOL0     H61127   7.017  10.370  -0.883  1.4516 -0.3287 -1.8616
  453MOL0     H61128   6.974  10.213  -0.965  5.2735  0.5201 -2.4990
  453MOL0     H61129   7.172  10.249  -0.749 -2.5230 -0.3314  1.6381
  453MOL0     H61130   7.129  10.093  -0.807 -0.4212  0.8913  0.4532
  453MOL0     H61131   7.241  10.325  -0.978 -1.5317  0.1922 -2.0069
  453MOL0     H61132   7.170  10.183  -1.061  3.1435  0.9055 -2.4196
  453MOL0     H61133   7.413  10.186  -1.040 -1.6009  0.1375 -0.7993
  453MOL0     H61134   7.395  10.143  -0.861  0.9577 -2.0354 -0.0653
  453MOL0     H61135   6.309  10.188  -0.993  0.6027 -0.0657  1.3833
  453MOL0     H61136   6.085  10.285  -1.078 -1.9042  4.6962 -2.8122
  453MOL0     H61137   5.792  10.565  -1.196  0.5885 -0.5874  0.5630
  453MOL0     H61138   5.609  10.688  -1.287 -0.7205  0.5879  0.1898
  453MOL0     H61139   4.835  10.448  -0.067  2.3604  3.6417 -2.1691
  453MOL0     H61140   4.749  10.351   0.154 -0.2799  0.9570  3.5513
  453MOL0     H61141   4.503  10.608   0.672 -2.5897 -1.1150 -0.6039
  453MOL0     H61142   4.389  10.490   0.816 -0.6900  2.4620 -1.7787
  453MOL0     H61143   4.273  10.322   0.856 -0.2818 -0.7503 -0.3944
  453MOL0     H61144   4.293  10.330   1.027 -1.4360  2.7070 -1.4355
  453MOL0     H61145   4.143  10.148   1.007  0.8847  0.2913  1.5058
  453MOL0     H61146   4.303  10.073   1.029  0.9339  0.2963 -0.0099
  453MOL0     H61147   4.269  10.116   0.751  1.0475  1.8993  1.6608
  453MOL0     H61148   4.132  10.023   0.830 -1.2351  1.7311 -0.8062
  453MOL0     H61149   4.428   9.962   0.808  0.8025 -0.6162  0.6806
  453MOL0     H61150   4.314   9.876   0.933  3.7750  0.2411  0.8401
  453MOL0     H61151   4.319   9.665   0.585  1.7340  0.7964 -0.9987
  453MOL0     H61152   4.648  10.143   0.780  0.1392  0.1366  1.5563
  453MOL0     H61153   4.894  10.274   0.579 -0.0089 -0.7299 -1.3949
  453MOL0     H61154   4.821  10.131   0.634 -0.3672 -0.2491  1.1220
  453MOL0     H61155   4.768  10.192   0.476 -1.8690 -2.4181  0.8912
  454MOL0     O61156   9.886  10.600   3.379 -0.9229 -0.4608  0.2076
  454MOL0     C61157   9.964  10.607   3.282  0.6553 -0.0490  0.3615
  454MOL0     O61158   9.926  10.601   3.149  0.5573 -0.4445  0.4352
  454MOL0     C61159   9.793  10.651   3.132 -0.3075  0.2604  0.3521
  454MOL0     C61160   9.740  10.771   3.170  1.2187  0.3221 -0.5115
  454MOL0     C61161   9.615  10.817   3.132  0.7278  0.7628  0.7523
  454MOL0     C61162   9.545  10.733   3.048 -0.3979 -0.0136 -0.7631
  454MOL0     O61163   9.425  10.768   2.993  0.5224 -0.2509 -0.3245
  454MOL0     C61164   9.347  10.876   3.042  0.4167 -0.6860  0.1358
  454MOL0     C61165   9.188  10.845   3.031 -1.3698  0.0320 -0.8709
  454MOL0     C61166   9.146  10.833   2.880 -0.3949  0.4977  0.0733
  454MOL0     C61167   9.010  10.910   2.851 -0.3771 -1.6440 -0.6716
  454MOL0     C61168   8.949  10.888   2.721  0.0544  0.1250  0.4508
  454MOL0     C61169   8.941  10.734   2.676 -0.4808  0.3704 -0.1329
  454MOL0     C61170   8.911  10.717   2.529  0.1553 -0.0536  0.2163
  454MOL0     C61171   8.773  10.715   2.480  0.2430 -0.2434  0.4203
  454MOL0     N61172   8.766  10.692   2.340 -0.2164 -0.0514  0.0120
  454MOL0     C61173   8.790  10.778   2.241  0.7126 -0.3516  0.2159
  454MOL0     C61174   8.761  10.715   2.123 -0.4330  0.9643 -0.1836
  454MOL0     C61175   8.749  10.758   1.990 -0.4080  0.1741  0.5153
  454MOL0     C61176   8.897  10.764   1.927  0.2120 -1.2461 -0.1740
  454MOL0     C61177   8.939  10.907   1.885 -0.6283 -0.0011 -0.1374
  454MOL0     C61178   9.074  10.918   1.808 -0.8052 -0.1067  0.6007
  454MOL0     O61179   9.179  10.837   1.857 -0.5806  0.1385 -0.1181
  454MOL0     C61180   9.289  10.888   1.929  0.3803  0.6618  0.0702
  454MOL0     C61181   9.298  11.019   1.987 -0.3734  0.0505 -0.0409
  454MOL0     C61182   9.400  11.057   2.065 -0.2391 -0.0380 -0.0820
  454MOL0     C61183   9.507  10.966   2.087 -1.2866  0.3735 -0.4148
  454MOL0     C61184   9.623  11.021   2.155  0.0125 -0.8641 -1.3454
  454MOL0     O61185   9.733  10.958   2.151 -0.2655  0.4508 -0.6606
  454MOL0     C61186   9.849  11.002   2.207 -0.8528 -0.0117 -0.7373
  454MOL0     C61187   9.918  10.918   2.295  0.9465 -0.8571  0.3291
  454MOL0     C61188  10.048  10.944   2.335 -0.2066  0.2984  0.2183
  454MOL0     C61189  10.110  11.069   2.307 -0.9115  0.3984  0.0845
  454MOL0     O61190  10.233  11.123   2.349  0.4299 -0.2388 -0.9047
  454MOL0     C61191  10.325  11.036   2.401  0.4876  0.4210 -0.2819
  454MOL0     C61192  10.467  11.090   2.439 -0.8336  0.7280 -0.7709
  454MOL0     C61193  10.541  10.976   2.510  0.4189 -0.4620 -0.0866
  454MOL0     C61194  10.655  11.031   2.594 -0.1625  0.9281 -0.0766
  454MOL0     C61195  10.735  10.918   2.652 -0.6785 -0.1553 -0.9324
  454MOL0     C61196  10.883  10.957   2.702 -0.5740  0.5534  1.1199
  454MOL0     C61197  10.883  11.000   2.845  0.2140 -0.1752 -0.0354
  454MOL0     C61198  11.022  11.052   2.877 -0.2839  0.0465  0.0552
  454MOL0    Cl61199  11.002  11.234   2.869 -0.5014 -0.2360 -0.4914
  454MOL0     C61200  10.035  11.150   2.220  0.5096 -0.5651  0.4978
  454MOL0     C61201   9.908  11.126   2.173  0.8382 -0.7589 -0.0711
  454MOL0     O61202   9.608  11.117   2.224  0.5507  0.1713 -0.4252
  454MOL0     C61203   9.506  10.842   2.033 -0.3720  0.5084  0.8600
  454MOL0     C61204   9.395  10.795   1.962 -0.1323  0.2423 -0.0864
  454MOL0     N61205   8.737  10.580   2.162  0.3963 -0.2203  1.0648
  454MOL0     N61206   8.736  10.573   2.289 -0.0841 -1.2529  0.7776
  454MOL0     C61207   9.590  10.610   3.013 -0.0721 -0.9764  0.4217
  454MOL0     C61208   9.719  10.575   3.047  0.9281  1.4057  0.4812
  454MOL0     C61209  10.100  10.648   3.321 -0.1274  0.4968  0.6464
  454MOL0     C61210  10.136  10.682   3.450  0.7760  0.6252 -0.5009
  454MOL0     C61211  10.251  10.749   3.483  0.1108 -0.1088  0.3347
  454MOL0     C61212  10.346  10.763   3.389 -0.1450  0.3269 -0.9613
  454MOL0     O61213  10.472  10.825   3.409  0.2147 -0.3820  0.9080
  454MOL0     C61214  10.559  10.757   3.497  0.4540  1.0341  0.0511
  454MOL0     C61215  10.622  10.626   3.435  0.7398 -0.1053  0.1310
  454MOL0     C61216  10.709  10.674   3.323 -0.1262  0.1219 -0.0929
  454MOL0     C61217  10.815  10.575   3.293 -0.3370  0.5846  1.0866
  454MOL0     C61218  10.885  10.613   3.164  0.4202 -0.3049 -0.0620
  454MOL0     C61219  10.943  10.654   3.074  0.1135 -0.5288  0.7084
  454MOL0     C61220  10.330  10.707   3.268 -0.1880 -0.2336  0.5694
  454MOL0     C61221  10.209  10.648   3.229  0.8039  0.6317 -0.2217
  454MOL0     C61222  10.205  10.607   3.080  0.0497 -0.3020 -1.0574
  454MOL0     H61223   9.795  10.841   3.233  2.1647  1.8383 -2.9015
  454MOL0     H61224   9.581  10.917   3.157 -1.4301  0.7897 -1.7758
  454MOL0     H61225   9.376  10.888   3.147  4.5285  0.4819 -0.9308
  454MOL0     H61226   9.368  10.966   2.984 -1.0910 -2.4153 -3.3975
  454MOL0     H61227   9.129  10.918   3.086 -1.2120 -0.7767  0.4127
  454MOL0     H61228   9.172  10.746   3.076  0.3952 -1.0175 -2.3825
  454MOL0     H61229   9.124  10.727   2.865 -1.3949  0.6335  0.5112
  454MOL0     H61230   9.221  10.875   2.813 -0.4101 -3.2934 -2.6607
  454MOL0     H61231   8.944  10.871   2.930  3.3561 -2.2948  2.4749
  454MOL0     H61232   9.020  11.016   2.874 -2.2772 -1.5235 -0.2110
  454MOL0     H61233   8.855  10.944   2.725 -0.7452 -1.2321  1.3707
  454MOL0     H61234   9.002  10.944   2.644 -0.4298  2.1117  1.4723
  454MOL0     H61235   9.032  10.676   2.690 -0.6022 -0.7306 -3.1219
  454MOL0     H61236   8.856  10.687   2.726 -1.6092  1.9725 -0.4625
  454MOL0     H61237   8.946  10.620   2.493 -1.7094 -1.1758  1.2934
  454MOL0     H61238   8.966  10.798   2.479  0.9042 -1.7584 -1.8781
  454MOL0     H61239   8.712  10.642   2.533  0.4978  1.0516  2.6351
  454MOL0     H61240   8.735  10.815   2.501  0.3610  0.2761 -1.5728
  454MOL0     H61241   8.813  10.884   2.243 -2.4584  0.5015 -1.3264
  454MOL0     H61242   8.691  10.681   1.939 -0.2664  0.0802  0.4928
  454MOL0     H61243   8.704  10.857   1.980 -0.6595  0.2512  2.1305
  454MOL0     H61244   8.973  10.725   1.995  2.3038  2.7531  0.0917
  454MOL0     H61245   8.887  10.711   1.831 -2.7374  2.5929 -2.2794
  454MOL0     H61246   8.957  10.972   1.971  1.8203  4.1569 -3.3989
  454MOL0     H61247   8.865  10.957   1.823  3.2391  2.2792 -3.3928
  454MOL0     H61248   9.106  11.022   1.802 -0.2344 -0.2779  0.5899
  454MOL0     H61249   9.058  10.885   1.705 -2.3665 -0.7808  1.0246
  454MOL0     H61250   9.223  11.096   1.974 -0.2952  0.8516  3.4219
  454MOL0     H61251   9.398  11.155   2.112  1.1453 -0.6233  1.2743
  454MOL0     H61252   9.862  10.826   2.311 -0.6427  0.0446  0.1549
  454MOL0     H61253  10.098  10.858   2.378 -0.0273  1.5591  2.7591
  454MOL0     H61254  10.291  10.973   2.484  2.0402 -0.6035 -0.3700
  454MOL0     H61255  10.349  10.972   2.315  1.2215  3.3853 -2.4160
  454MOL0     H61256  10.525  11.120   2.352 -0.9702  1.6754 -0.5477
  454MOL0     H61257  10.451  11.174   2.508 -2.0660 -0.4568  0.4426
  454MOL0     H61258  10.474  10.929   2.583 -0.5747 -0.2271 -0.8295
  454MOL0     H61259  10.573  10.905   2.432  2.9937  1.4940 -0.9723
  454MOL0     H61260  10.618  11.094   2.676 -4.2948 -0.1636 -0.8711
  454MOL0     H61261  10.721  11.094   2.534 -0.5098  0.1165 -1.3379
  454MOL0     H61262  10.758  10.853   2.567 -0.2963  0.8236 -1.5950
  454MOL0     H61263  10.688  10.860   2.732  0.8934  0.2252  0.3192
  454MOL0     H61264  10.931  10.860   2.690 -1.4405  0.1445  0.8705
  454MOL0     H61265  10.929  11.024   2.629 -1.5067 -0.2496 -0.2525
  454MOL0     H61266  10.853  10.918   2.911  0.1233 -0.9576 -1.0144
  454MOL0     H61267  10.799  11.070   2.841  0.4288  0.0517 -2.2677
  454MOL0     H61268  11.041  11.025   2.981  1.0262 -1.0416 -0.4440
  454MOL0     H61269  11.101  11.008   2.816 -1.1378  1.9419 -2.6247
  454MOL0     H61270  10.066  11.250   2.191 -0.9393  0.1928  1.4321
  454MOL0     H61271   9.862  11.197   2.106  2.1385 -2.2841 -2.7144
  454MOL0     H61272   9.581  10.766   2.054 -1.2978 -0.6819  0.0388
  454MOL0     H61273   9.392  10.692   1.930  0.0552 -0.0605  0.8499
  454MOL0     H61274   9.530  10.541   2.954 -0.4083  0.3608 -0.8687
  454MOL0     H61275   9.757  10.478   3.017 -1.6769  0.2603  0.5467
  454MOL0     H61276  10.056  10.654   3.517  0.4115 -1.9397 -1.9011
  454MOL0     H61277  10.270  10.784   3.584 -3.1406  1.5282  0.5123
  454MOL0     H61278  10.500  10.734   3.586 -2.8352  1.0074 -1.9433
  454MOL0     H61279  10.644  10.817   3.529 -0.3614  2.1159  0.2481
  454MOL0     H61280  10.538  10.567   3.398  1.7262 -0.6132 -1.3289
  454MOL0     H61281  10.689  10.586   3.512  0.1442 -0.1639  0.6290
  454MOL0     H61282  10.756  10.770   3.343  4.3615 -1.7267 -0.7167
  454MOL0     H61283  10.652  10.686   3.230 -0.7460  0.8059  0.3635
  454MOL0     H61284  10.885  10.562   3.375  0.0794 -1.5846  0.4498
  454MOL0     H61285  10.764  10.479   3.277 -0.5655  0.2850  3.3643
  454MOL0     H61286  11.002  10.682   2.988  1.7080 -1.7283  1.3690
  454MOL0     H61287  10.414  10.706   3.199  0.0814  0.1491  0.8889
  454MOL0     H61288  10.207  10.700   3.023 -0.2089 -0.1930 -0.8888
  454MOL0     H61289  10.299  10.552   3.070 -0.2082 -0.5877 -2.0363
  454MOL0     H61290  10.121  10.543   3.052 -2.2698  0.6428  3.0076
  455MOL0     O61291   2.818   4.428   4.906 -0.3709 -0.3677 -0.2205
  455MOL0     C61292   2.829   4.335   4.819 -0.5656 -0.4644 -0.4214
  455MOL0     O61293   2.824   4.201   4.837  0.3747  0.0935 -0.5898
  455MOL0     C61294   2.809   4.148   4.971  0.0751 -0.6399 -0.4476
  455MOL0     C61295   2.876   4.196   5.073  0.2769  0.3264  0.5216
  455MOL0     C61296   2.860   4.129   5.201 -0.3292  0.3442 -1.2409
  455MOL0     C61297   2.783   4.019   5.218  0.1927  0.2304 -0.0563
  455MOL0     O61298   2.776   3.964   5.340 -0.2187  0.4471  0.0395
  455MOL0     C61299   2.884   3.875   5.362  0.4563  0.7611  0.2000
  455MOL0     C61300   2.896   3.821   5.500 -0.2905  0.7687  0.4489
  455MOL0     C61301   2.932   3.922   5.617 -0.5871 -0.1894  0.7799
  455MOL0     C61302   2.991   3.829   5.726 -0.3934  0.8079  0.5124
  455MOL0     C61303   2.990   3.882   5.867 -0.6591 -1.0701  0.0761
  455MOL0     C61304   3.110   3.831   5.943 -0.3532  0.8521 -0.3465
  455MOL0     C61305   3.140   3.677   5.935 -0.9978 -0.1011 -0.6226
  455MOL0     C61306   3.282   3.647   5.998  0.6271  0.3918 -0.1404
  455MOL0     N61307   3.374   3.633   5.887 -0.0896  0.2241 -0.4170
  455MOL0     C61308   3.411   3.722   5.788 -0.1937  0.7721 -0.2346
  455MOL0     C61309   3.515   3.664   5.726  0.1036 -0.0140 -0.2160
  455MOL0     C61310   3.580   3.706   5.590  0.5334  0.7904  0.4681
  455MOL0     C61311   3.553   3.590   5.487 -1.5602 -0.4958 -0.5462
  455MOL0     C61312   3.600   3.633   5.348 -0.2886 -1.1495 -0.1937
  455MOL0     C61313   3.590   3.508   5.255 -0.3349 -0.1133 -0.2257
  455MOL0     O61314   3.700   3.416   5.274 -0.1767 -0.6143 -0.0492
  455MOL0     C61315   3.709   3.311   5.186  0.2884  0.4687 -0.1444
  455MOL0     C61316   3.602   3.261   5.110 -1.1546  1.1228  0.3965
  455MOL0     C61317   3.616   3.141   5.033  0.9726 -0.1671 -0.0460
  455MOL0     C61318   3.743   3.082   5.012 -0.3303  0.6179 -1.2432
  455MOL0     C61319   3.747   2.953   4.945  0.2151  0.3120  1.1248
  455MOL0     O61320   3.873   2.900   4.937  0.1617 -0.1384 -0.3232
  455MOL0     C61321   3.887   2.763   4.913 -0.8896  0.9707 -0.4413
  455MOL0     C61322   3.883   2.718   4.779 -0.2860  0.1701 -0.5128
  455MOL0     C61323   3.902   2.584   4.750  0.7477  0.5435 -0.3751
  455MOL0     C61324   3.924   2.492   4.854 -0.3347 -0.5383 -0.5009
  455MOL0     O61325   3.948   2.359   4.837 -0.1592  0.1865  0.2143
  455MOL0     C61326   3.956   2.309   4.707  0.0528 -0.3559 -0.1029
  455MOL0     C61327   3.971   2.151   4.708  0.3442  0.1553  0.3104
  455MOL0     C61328   3.864   2.088   4.800  0.6106 -0.5318 -0.0457
  455MOL0     C61329   3.830   1.939   4.779  0.1959  0.1798 -0.2215
  455MOL0     C61330   3.780   1.874   4.906 -0.3809 -0.3921 -0.6623
  455MOL0     C61331   3.779   1.719   4.901  0.2431  0.1183  0.5232
  455MOL0     C61332   3.784   1.658   5.044 -0.0012  0.7055 -1.6327
  455MOL0     C61333   3.793   1.505   5.062 -0.3701  0.1804 -0.6019
  455MOL0    Cl61334   3.855   1.445   5.218  0.5030 -0.2027 -0.4205
  455MOL0     C61335   3.922   2.536   4.991 -0.4051 -0.0726  0.3564
  455MOL0     C61336   3.900   2.668   5.015  0.0396  0.1101 -0.1554
  455MOL0     O61337   3.644   2.897   4.910 -0.6531  0.5444  0.3916
  455MOL0     C61338   3.857   3.157   5.067  0.2961  0.1983  0.8243
  455MOL0     C61339   3.840   3.261   5.162  0.3482 -0.4638  0.1537
  455MOL0     N61340   3.538   3.549   5.796  0.4365  0.5457  0.4316
  455MOL0     N61341   3.453   3.527   5.877  0.0435  0.3901 -0.3105
  455MOL0     C61342   2.713   3.970   5.105  0.4692  0.1714  0.3877
  455MOL0     C61343   2.726   4.034   4.981  0.1287  0.0365  0.2486
  455MOL0     C61344   2.859   4.391   4.682  0.1217 -0.2017 -0.2899
  455MOL0     C61345   2.806   4.518   4.640 -0.2015 -0.5405  0.4152
  455MOL0     C61346   2.803   4.555   4.503 -0.1218  0.8787 -0.3229
  455MOL0     C61347   2.847   4.469   4.404  0.6440 -0.4505 -0.8451
  455MOL0     O61348   2.828   4.504   4.270  0.3973 -0.1298  0.2051
  455MOL0     C61349   2.873   4.411   4.179  0.9029 -0.0069 -0.3655
  455MOL0     C61350   2.849   4.444   4.035 -0.0298 -0.5748  0.2828
  455MOL0     C61351   2.906   4.329   3.956 -0.5908  0.0820 -0.5237
  455MOL0     C61352   2.911   4.362   3.808  0.7989  0.1648 -0.7651
  455MOL0     C61353   2.777   4.337   3.758 -0.1239 -0.4733 -0.3562
  455MOL0     C61354   2.670   4.340   3.701 -0.3062  0.5245 -0.1790
  455MOL0     C61355   2.912   4.350   4.455 -0.2494 -0.3031  0.7152
  455MOL0     C61356   2.923   4.310   4.585  0.7714  0.1741 -0.6352
  455MOL0     C61357   3.009   4.196   4.629  0.4117 -0.1164  0.1406
  455MOL0     H61358   2.948   4.277   5.070  1.4376 -0.6459 -3.4863
  455MOL0     H61359   2.935   4.162   5.272  0.9416 -1.8529 -1.4653
  455MOL0     H61360   2.870   3.784   5.302 -0.1474 -2.1663  4.3239
  455MOL0     H61361   2.982   3.914   5.335  1.4702 -2.0334 -0.5365
  455MOL0     H61362   2.979   3.751   5.488 -1.2796 -0.5333  0.9961
  455MOL0     H61363   2.800   3.771   5.516 -1.7558  2.2302 -2.8852
  455MOL0     H61364   2.838   3.964   5.654 -1.4631 -0.5316 -0.9322
  455MOL0     H61365   3.009   3.994   5.590 -1.9088  0.8455 -0.3798
  455MOL0     H61366   2.936   3.735   5.731 -0.5803  0.8097 -1.1364
  455MOL0     H61367   3.097   3.817   5.702 -0.1612  2.0211  0.8572
  455MOL0     H61368   2.994   3.991   5.874 -0.9710 -1.0875  0.5683
  455MOL0     H61369   2.906   3.856   5.931  0.0479  0.1434  1.5723
  455MOL0     H61370   3.198   3.880   5.899 -0.2134  0.7055 -0.2330
  455MOL0     H61371   3.092   3.863   6.046 -0.4117  0.5275 -0.2554
  455MOL0     H61372   3.141   3.639   5.833  1.9385 -0.3910 -0.5781
  455MOL0     H61373   3.074   3.614   5.995  0.2423 -0.3663  0.5263
  455MOL0     H61374   3.309   3.721   6.073 -0.0615  0.7865 -0.2797
  455MOL0     H61375   3.286   3.542   6.028  2.5988  0.7654  1.1118
  455MOL0     H61376   3.364   3.812   5.749 -1.3778  0.7913  1.1837
  455MOL0     H61377   3.534   3.802   5.564  0.4787  0.2049 -1.7784
  455MOL0     H61378   3.687   3.715   5.606  0.8282  0.0347 -0.9392
  455MOL0     H61379   3.618   3.512   5.528  2.8327  2.5476 -1.0724
  455MOL0     H61380   3.447   3.563   5.487 -2.0600  1.3544 -0.9627
  455MOL0     H61381   3.696   3.686   5.346 -0.8918  0.1435  1.9827
  455MOL0     H61382   3.533   3.713   5.315 -1.5296 -2.4299 -0.8779
  455MOL0     H61383   3.596   3.542   5.151 -2.8980  1.2469 -0.0225
  455MOL0     H61384   3.492   3.462   5.273 -1.1889  1.3733 -0.8587
  455MOL0     H61385   3.504   3.307   5.115 -1.0102  1.7365 -1.5599
  455MOL0     H61386   3.529   3.095   4.988  0.3447  1.7844 -0.9409
  455MOL0     H61387   3.868   2.795   4.704 -1.2246 -1.2908 -1.8906
  455MOL0     H61388   3.906   2.546   4.649 -0.3325  1.1244 -0.6552
  455MOL0     H61389   3.864   2.337   4.654  0.6634  1.8689 -0.0512
  455MOL0     H61390   4.044   2.345   4.653 -0.8295  2.5627  0.2641
  455MOL0     H61391   3.963   2.105   4.609  0.6847 -1.1491  0.8660
  455MOL0     H61392   4.072   2.137   4.747  0.5437  1.8960  0.4792
  455MOL0     H61393   3.893   2.105   4.904 -2.4286 -1.1351  0.9943
  455MOL0     H61394   3.774   2.146   4.782  0.8471 -0.9483 -3.3012
  455MOL0     H61395   3.925   1.889   4.756  1.1168  1.5739  0.4180
  455MOL0     H61396   3.755   1.921   4.701 -0.8478 -0.1236  0.8192
  455MOL0     H61397   3.682   1.911   4.939 -0.3686 -0.3331 -0.6915
  455MOL0     H61398   3.853   1.912   4.978 -0.0649  2.6075 -2.4071
  455MOL0     H61399   3.700   1.677   4.838  1.2373 -0.6105 -0.2731
  455MOL0     H61400   3.871   1.688   4.850  0.7169 -0.1216  1.4976
  455MOL0     H61401   3.689   1.691   5.088 -1.7746  0.8001 -5.1001
  455MOL0     H61402   3.864   1.708   5.098 -2.2997  0.9381  1.9223
  455MOL0     H61403   3.691   1.466   5.056 -1.2456  2.3449 -6.2114
  455MOL0     H61404   3.849   1.472   4.973 -0.5313  1.5076 -1.2288
  455MOL0     H61405   3.941   2.466   5.072 -1.0020  0.1133  0.6658
  455MOL0     H61406   3.898   2.703   5.118  0.6754 -0.8195  0.1838
  455MOL0     H61407   3.948   3.103   5.045 -1.3018 -3.0126  1.5258
  455MOL0     H61408   3.919   3.304   5.222 -0.2395  2.7636 -1.1728
  455MOL0     H61409   2.660   3.875   5.114  0.3473  0.2975  1.0419
  455MOL0     H61410   2.670   3.985   4.902  0.4298  0.0437  0.0327
  455MOL0     H61411   2.772   4.577   4.725  0.5061 -0.1445  0.4321
  455MOL0     H61412   2.768   4.657   4.491  1.4022  1.1200 -3.5583
  455MOL0     H61413   2.810   4.323   4.191 -1.9232  2.0544  1.1670
  455MOL0     H61414   2.981   4.397   4.189  0.7548 -1.3548 -0.5255
  455MOL0     H61415   2.899   4.540   4.016  1.4063 -0.9286  2.0570
  455MOL0     H61416   2.740   4.450   4.030  0.0798  0.7923 -2.8899
  455MOL0     H61417   2.852   4.236   3.975 -1.0991  0.6075  0.6645
  455MOL0     H61418   3.011   4.321   3.986 -0.5822  0.4496 -0.4540
  455MOL0     H61419   2.939   4.465   3.785  0.0508  0.3098 -1.0642
  455MOL0     H61420   2.979   4.297   3.752  0.0884 -2.7618  1.5119
  455MOL0     H61421   2.584   4.350   3.638  1.1957  0.3317 -2.3439
  455MOL0     H61422   2.944   4.267   4.392 -1.7767 -1.4151  1.3376
  455MOL0     H61423   3.102   4.187   4.573  0.8620  2.5376  0.3187
  455MOL0     H61424   3.035   4.210   4.735 -2.1394 -1.8797  1.1161
  455MOL0     H61425   2.962   4.097   4.623  2.3748 -1.1444  0.7857
  456MOL0     O61426   9.337   6.521   4.167  0.7181  0.3136 -0.0869
  456MOL0     C61427   9.290   6.426   4.227 -0.1694  0.5491  0.2744
  456MOL0     O61428   9.182   6.434   4.308  0.5723  0.2762  0.0413
  456MOL0     C61429   9.110   6.553   4.305 -0.6520  0.1573  0.2521
  456MOL0     C61430   8.994   6.576   4.235 -0.8125  0.1096  0.3656
  456MOL0     C61431   8.927   6.694   4.266  0.1974  0.4677  0.4910
  456MOL0     C61432   8.976   6.797   4.347  0.0479 -0.1062 -0.7411
  456MOL0     O61433   8.894   6.901   4.386  0.6802 -0.5606  0.1654
  456MOL0     C61434   8.920   6.949   4.519  0.3172 -0.6214 -0.9493
  456MOL0     C61435   8.800   7.016   4.586  0.3637  0.6351 -1.1656
  456MOL0     C61436   8.763   7.140   4.504  0.2001  1.1907 -0.0832
  456MOL0     C61437   8.625   7.193   4.545  0.0144  0.6875 -0.4428
  456MOL0     C61438   8.502   7.115   4.505  0.3371 -0.0376  0.4885
  456MOL0     C61439   8.367   7.191   4.550 -1.0685 -0.6299  0.3069
  456MOL0     C61440   8.255   7.143   4.469 -0.8474 -0.0147  0.1749
  456MOL0     C61441   8.129   7.223   4.500  0.0696 -0.4519 -0.2616
  456MOL0     N61442   8.017   7.149   4.445  0.4215 -0.0170 -0.9177
  456MOL0     C61443   7.963   7.046   4.516  1.0600  0.9253  0.6010
  456MOL0     C61444   7.864   6.998   4.427  0.2310 -0.2394  0.2366
  456MOL0     C61445   7.783   6.879   4.459 -0.5172 -0.5688  0.1900
  456MOL0     C61446   7.697   6.909   4.579  0.5460  0.6258 -0.1483
  456MOL0     C61447   7.614   6.781   4.605  0.0067  0.4931 -0.4638
  456MOL0     C61448   7.505   6.798   4.717  0.6774  0.3619  1.0203
  456MOL0     O61449   7.462   6.675   4.780 -0.0178 -0.6277 -0.6920
  456MOL0     C61450   7.331   6.679   4.833 -0.4121  0.0711 -0.7567
  456MOL0     C61451   7.214   6.629   4.774  0.4479  0.1827 -1.4901
  456MOL0     C61452   7.090   6.643   4.835 -0.0762  0.7796  0.0461
  456MOL0     C61453   7.072   6.691   4.963 -0.0669 -0.5069 -0.1692
  456MOL0     C61454   6.938   6.692   5.034  0.4629  0.0225  0.1464
  456MOL0     O61455   6.933   6.747   5.162 -0.6687 -0.1115 -0.4126
  456MOL0     C61456   6.815   6.756   5.238  0.3010 -0.2196  0.2048
  456MOL0     C61457   6.789   6.861   5.334  0.6309  0.5935  0.5272
  456MOL0     C61458   6.671   6.865   5.417  0.2771  0.0038  0.5793
  456MOL0     C61459   6.572   6.767   5.393 -0.6140 -0.2751  0.0469
  456MOL0     O61460   6.452   6.755   5.463  0.5046 -0.2599 -0.5645
  456MOL0     C61461   6.426   6.827   5.584 -1.0662 -0.1864 -0.7975
  456MOL0     C61462   6.285   6.800   5.632 -0.4257 -0.1063  1.1489
  456MOL0     C61463   6.189   6.878   5.539  0.1616  0.0353 -0.3095
  456MOL0     C61464   6.046   6.846   5.577 -0.3470  1.6175 -0.4723
  456MOL0     C61465   5.995   6.943   5.683 -0.3661 -0.7318  0.7859
  456MOL0     C61466   5.858   6.906   5.725 -0.2680  0.2653  0.3002
  456MOL0     C61467   5.747   6.958   5.634 -0.0135 -0.1710  0.9885
  456MOL0     C61468   5.640   6.865   5.612  0.1051 -0.6476  0.4226
  456MOL0    Cl61469   5.715   6.714   5.547 -0.1480  0.2891 -0.1319
  456MOL0     C61470   6.608   6.660   5.313  0.1934 -0.2376 -0.1709
  456MOL0     C61471   6.723   6.649   5.244 -0.8268 -0.1722  0.0672
  456MOL0     O61472   6.842   6.646   4.974 -0.2583  0.0812  0.1898
  456MOL0     C61473   7.188   6.748   5.027 -0.5046  0.9937  0.7182
  456MOL0     C61474   7.307   6.744   4.964  0.3875  0.1969  0.1192
  456MOL0     N61475   7.861   7.079   4.321  0.5078  0.6555 -0.7664
  456MOL0     N61476   7.944   7.170   4.334 -0.8555 -0.1600 -0.4654
  456MOL0     C61477   9.100   6.779   4.398 -0.3672  0.3942  0.6000
  456MOL0     C61478   9.162   6.658   4.381 -0.3070  0.8310  0.0682
  456MOL0     C61479   9.352   6.293   4.208  0.1121 -0.1001  0.1448
  456MOL0     C61480   9.262   6.173   4.210  0.5193 -0.0971  0.2321
  456MOL0     C61481   9.315   6.053   4.193  1.0770  0.2630 -0.1783
  456MOL0     C61482   9.456   6.033   4.180  0.0579  0.4000  0.9162
  456MOL0     O61483   9.502   5.904   4.139 -1.6659  0.0500 -0.8809
  456MOL0     C61484   9.620   5.852   4.206 -0.5933 -0.4109  0.1180
  456MOL0     C61485   9.591   5.701   4.222  0.0698  0.0283 -0.7520
  456MOL0     C61486   9.708   5.616   4.281 -0.2349 -1.0807  0.0665
  456MOL0     C61487   9.687   5.467   4.280 -0.2317  0.2217  0.5094
  456MOL0     C61488   9.814   5.386   4.296  0.1584 -0.4137  0.2101
  456MOL0     C61489   9.928   5.347   4.308  0.6350 -0.4581  1.5433
  456MOL0     C61490   9.550   6.139   4.185 -0.5655 -0.0101  0.3800
  456MOL0     C61491   9.494   6.271   4.185 -0.2130 -0.4025  0.1565
  456MOL0     C61492   9.594   6.385   4.166  0.4543 -0.2903  0.3679
  456MOL0     H61493   8.954   6.498   4.171  1.5577 -0.0039 -1.1102
  456MOL0     H61494   8.826   6.701   4.228 -0.1366 -0.5564  1.1383
  456MOL0     H61495   8.953   6.869   4.585  4.6162  0.3520 -1.6055
  456MOL0     H61496   9.001   7.023   4.519 -0.2117  0.0316 -2.8860
  456MOL0     H61497   8.815   7.044   4.690  2.2699  2.0766 -1.7732
  456MOL0     H61498   8.713   6.950   4.583  0.4200  0.4774  0.1213
  456MOL0     H61499   8.772   7.117   4.397  2.2315  1.5717 -0.0428
  456MOL0     H61500   8.838   7.216   4.529  3.6277 -1.9632 -0.0363
  456MOL0     H61501   8.630   7.194   4.654  4.0569 -1.1495 -0.4060
  456MOL0     H61502   8.621   7.293   4.502  2.9517  0.3695 -1.7413
  456MOL0     H61503   8.507   7.098   4.397 -3.6516  1.1514 -0.0542
  456MOL0     H61504   8.490   7.014   4.547  0.4489 -1.4458 -2.5577
  456MOL0     H61505   8.358   7.158   4.654  1.3688 -2.4982  0.0222
  456MOL0     H61506   8.394   7.297   4.554 -0.3887 -0.7726 -0.2775
  456MOL0     H61507   8.248   7.041   4.508  0.3393  0.1773  0.9457
  456MOL0     H61508   8.278   7.149   4.362  2.4831 -0.9864  0.7264
  456MOL0     H61509   8.118   7.233   4.608 -4.1283  0.4520 -0.6087
  456MOL0     H61510   8.132   7.326   4.465 -5.0049  0.6070  1.5923
  456MOL0     H61511   7.972   7.001   4.614 -5.1383  1.4121  1.7888
  456MOL0     H61512   7.713   6.856   4.379 -1.1430  0.3563  0.4512
  456MOL0     H61513   7.844   6.792   4.483 -1.8600 -1.4641  0.4624
  456MOL0     H61514   7.762   6.931   4.664  0.0790 -3.2200  1.3927
  456MOL0     H61515   7.629   6.992   4.556  2.5166  2.1549 -0.7751
  456MOL0     H61516   7.679   6.710   4.657  1.5937  3.8929  2.7435
  456MOL0     H61517   7.567   6.735   4.518 -2.5212  0.0208  1.0276
  456MOL0     H61518   7.431   6.861   4.668  0.6228 -0.7212 -0.3417
  456MOL0     H61519   7.555   6.859   4.793  0.0676 -0.8704  2.4628
  456MOL0     H61520   7.215   6.587   4.674  1.6571  4.4335 -3.4958
  456MOL0     H61521   7.012   6.603   4.771 -0.4977  1.4809  0.1098
  456MOL0     H61522   6.865   6.938   5.343  1.1938  0.2870 -1.2460
  456MOL0     H61523   6.657   6.950   5.483  1.2754  0.1857  0.5751
  456MOL0     H61524   6.486   6.791   5.667 -3.1831 -1.2899  0.3396
  456MOL0     H61525   6.450   6.933   5.570 -0.9413  0.2135  2.0150
  456MOL0     H61526   6.252   6.696   5.640 -1.1715 -0.0183 -0.4221
  456MOL0     H61527   6.281   6.849   5.730 -1.8290  1.2992  0.4371
  456MOL0     H61528   6.211   6.985   5.548  1.7113 -0.1628 -1.2311
  456MOL0     H61529   6.193   6.838   5.437  0.3781  1.2712 -0.8060
  456MOL0     H61530   6.042   6.743   5.613  1.4986  1.5452 -0.4084
  456MOL0     H61531   5.986   6.860   5.487  0.4199  1.7271 -0.9744
  456MOL0     H61532   5.993   7.043   5.639  0.7603  1.0811  4.4650
  456MOL0     H61533   6.061   6.955   5.769 -0.0953  1.4928  0.3276
  456MOL0     H61534   5.867   6.799   5.745  1.3333  0.3175 -0.0046
  456MOL0     H61535   5.849   6.953   5.823  1.6012  0.2233  0.5230
  456MOL0     H61536   5.785   6.978   5.533  0.0223  0.2253  1.0812
  456MOL0     H61537   5.720   7.059   5.666  4.3737  1.2284  0.8869
  456MOL0     H61538   5.593   6.842   5.708 -0.8463  0.3533  0.2141
  456MOL0     H61539   5.566   6.898   5.538 -1.2892 -2.7352  0.7850
  456MOL0     H61540   6.542   6.575   5.301 -0.1668 -0.2549  1.6933
  456MOL0     H61541   6.741   6.560   5.186 -1.0842 -0.5680  0.5832
  456MOL0     H61542   7.175   6.795   5.124  1.3690  0.5699  1.2254
  456MOL0     H61543   7.382   6.802   5.016 -0.0266  0.9273 -0.0847
  456MOL0     H61544   9.161   6.856   4.445 -0.0564 -0.0054  0.8545
  456MOL0     H61545   9.249   6.625   4.437 -0.7442 -3.4070 -1.3557
  456MOL0     H61546   9.154   6.173   4.200  0.2961  1.5944  1.9751
  456MOL0     H61547   9.253   5.964   4.183  0.9702  0.1095  1.4753
  456MOL0     H61548   9.638   5.897   4.305  3.7608 -0.5172 -0.4587
  456MOL0     H61549   9.704   5.882   4.143 -1.9333  0.6217 -1.2630
  456MOL0     H61550   9.567   5.641   4.134  0.3115  2.0632 -2.2766
  456MOL0     H61551   9.506   5.682   4.288  1.7814 -1.5231  1.1830
  456MOL0     H61552   9.721   5.655   4.382 -3.4586 -0.1862  0.2560
  456MOL0     H61553   9.802   5.632   4.226 -0.3479 -2.3504 -0.5172
  456MOL0     H61554   9.619   5.439   4.360 -0.1135 -0.1797  0.4712
  456MOL0     H61555   9.635   5.439   4.188 -3.7629  1.4614  1.9770
  456MOL0     H61556  10.025   5.310   4.335  2.3761  1.4565 -1.4615
  456MOL0     H61557   9.657   6.124   4.185 -0.5300  0.2223  0.6529
  456MOL0     H61558   9.693   6.340   4.166 -0.2999 -2.1574  3.1014
  456MOL0     H61559   9.586   6.448   4.076 -1.0743 -0.3786  0.4029
  456MOL0     H61560   9.577   6.465   4.239 -1.0520  2.0717 -2.3163
  457MOL0     O61561   5.398   3.068   5.046  0.0669 -0.4055  0.2561
  457MOL0     C61562   5.360   3.120   4.940  0.3400 -0.1377 -0.1192
  457MOL0     O61563   5.238   3.182   4.925 -0.4065 -0.4881 -0.1118
  457MOL0     C61564   5.165   3.221   5.036  0.3216 -0.5704  0.5889
  457MOL0     C61565   5.195   3.238   5.175  0.2951  0.2464 -0.2332
  457MOL0     C61566   5.111   3.306   5.268 -0.2394 -0.4292  0.3103
  457MOL0     C61567   4.987   3.339   5.230  0.5535  0.1132  0.4651
  457MOL0     O61568   4.887   3.380   5.318 -0.4845  0.6975 -0.1072
  457MOL0     C61569   4.933   3.441   5.439 -0.0144 -0.1489 -0.2037
  457MOL0     C61570   4.824   3.503   5.522 -0.4190 -0.2925  0.3138
  457MOL0     C61571   4.705   3.410   5.545  0.6020 -0.0762  0.4702
  457MOL0     C61572   4.588   3.490   5.599  0.5474  0.9902 -0.5575
  457MOL0     C61573   4.598   3.491   5.757  0.6522 -0.3717 -0.1084
  457MOL0     C61574   4.505   3.597   5.823 -0.1370  0.0060  0.9062
  457MOL0     C61575   4.547   3.748   5.829 -1.1642 -0.5934  0.4415
  457MOL0     C61576   4.463   3.838   5.918  1.0825  0.6826  0.1544
  457MOL0     N61577   4.525   3.972   5.928  0.1103  0.7928 -0.8737
  457MOL0     C61578   4.503   4.091   5.863 -0.0908 -0.2252  0.2037
  457MOL0     C61579   4.600   4.170   5.910 -0.3129 -0.6407  0.4249
  457MOL0     C61580   4.632   4.322   5.875 -0.0127  0.4351  0.0347
  457MOL0     C61581   4.648   4.330   5.718  0.2070  0.1683 -0.2109
  457MOL0     C61582   4.639   4.472   5.659  0.8044  0.0666  0.7260
  457MOL0     C61583   4.742   4.566   5.720 -0.7462  0.1805  0.4812
  457MOL0     O61584   4.725   4.608   5.855  0.7155  1.3672  0.4367
  457MOL0     C61585   4.777   4.730   5.899  0.2535  0.8993 -1.1729
  457MOL0     C61586   4.857   4.816   5.836 -0.6952 -0.6201  0.1027
  457MOL0     C61587   4.898   4.939   5.883  0.3973 -0.6212  1.5485
  457MOL0     C61588   4.842   4.988   6.000  0.6588  0.3371  0.3335
  457MOL0     C61589   4.887   5.114   6.059  1.1702 -0.0471  0.4016
  457MOL0     O61590   5.027   5.150   6.045 -0.8039  0.1338 -0.9128
  457MOL0     C61591   5.076   5.274   6.090 -0.0153 -0.1081 -0.6120
  457MOL0     C61592   5.020   5.363   6.187  0.1084  0.7047  0.8346
  457MOL0     C61593   5.086   5.473   6.235  0.1690 -0.8933  0.5145
  457MOL0     C61594   5.212   5.507   6.180 -0.9095  0.4945  0.4683
  457MOL0     O61595   5.288   5.603   6.240  0.3726  0.2773 -0.3825
  457MOL0     C61596   5.224   5.694   6.329  0.0119 -0.2518  0.0761
  457MOL0     C61597   5.317   5.804   6.362 -0.8977  0.9000  0.7425
  457MOL0     C61598   5.448   5.751   6.441 -0.5049 -1.0128  0.6235
  457MOL0     C61599   5.416   5.718   6.583 -0.4431  1.0331 -0.3474
  457MOL0     C61600   5.539   5.648   6.648 -0.1799 -0.8734 -0.1097
  457MOL0     C61601   5.508   5.548   6.765  0.1755 -0.2202 -0.2569
  457MOL0     C61602   5.443   5.622   6.881  0.6469 -0.3404  0.4039
  457MOL0     C61603   5.528   5.736   6.930  0.3896  0.2651 -0.1352
  457MOL0    Cl61604   5.687   5.663   6.972  0.1422 -0.1962  0.0310
  457MOL0     C61605   5.270   5.427   6.084  0.0771  0.1349  0.5399
  457MOL0     C61606   5.203   5.307   6.045 -0.2356 -0.6872  0.5117
  457MOL0     O61607   4.798   5.171   6.123 -0.2309  0.1843  0.3107
  457MOL0     C61608   4.760   4.896   6.070  0.8268 -0.0745  0.1557
  457MOL0     C61609   4.730   4.769   6.025  0.5450 -0.5164  0.4062
  457MOL0     N61610   4.667   4.100   6.014  0.1083  0.3338 -0.1290
  457MOL0     N61611   4.621   3.987   6.029  0.7504 -0.7609  1.0259
  457MOL0     C61612   4.954   3.321   5.094  0.9268 -0.5467  0.3815
  457MOL0     C61613   5.050   3.275   4.998  0.6464 -0.5754 -0.0696
  457MOL0     C61614   5.447   3.108   4.821 -0.4341  0.4410 -0.5889
  457MOL0     C61615   5.413   3.185   4.708  0.7393  0.3380 -0.0880
  457MOL0     C61616   5.487   3.180   4.592 -0.0733  0.0250 -0.5023
  457MOL0     C61617   5.599   3.095   4.575 -0.6024  0.0611 -0.8888
  457MOL0     O61618   5.680   3.080   4.466 -0.2484  0.3973 -0.6220
  457MOL0     C61619   5.631   3.137   4.347 -0.8991 -0.3981  0.2955
  457MOL0     C61620   5.731   3.109   4.234  0.8948  0.1570 -1.0585
  457MOL0     C61621   5.782   2.965   4.228  1.0813  0.3575 -0.6481
  457MOL0     C61622   5.889   2.949   4.118 -0.7513 -0.6375  0.2060
  457MOL0     C61623   5.856   2.996   3.983  0.6144 -0.0114 -0.4042
  457MOL0     C61624   5.814   3.042   3.876 -0.6031 -0.2590  0.8863
  457MOL0     C61625   5.626   3.011   4.685  0.1032  0.2119  1.6662
  457MOL0     C61626   5.557   3.024   4.805  0.5716  0.8867 -0.8150
  457MOL0     C61627   5.608   2.921   4.908 -0.4500  0.2550  0.2400
  457MOL0     H61628   5.287   3.195   5.214 -0.9084 -2.0777  0.1813
  457MOL0     H61629   5.141   3.320   5.371  0.1425  3.3529 -0.1718
  457MOL0     H61630   4.987   3.373   5.506  0.1883 -0.6473 -0.8524
  457MOL0     H61631   5.005   3.520   5.416 -0.2203  1.4265  3.7711
  457MOL0     H61632   4.790   3.587   5.460 -0.5554 -0.9731 -0.5702
  457MOL0     H61633   4.853   3.550   5.616  0.1453 -0.4290  0.2102
  457MOL0     H61634   4.730   3.333   5.619  2.5231  1.5961  1.6558
  457MOL0     H61635   4.677   3.363   5.450 -1.7837 -0.3568  1.2370
  457MOL0     H61636   4.594   3.591   5.558  2.1542  0.9652 -0.4329
  457MOL0     H61637   4.499   3.437   5.562  1.0413  0.8644 -1.6030
  457MOL0     H61638   4.578   3.389   5.793 -0.3622  0.3009  1.3479
  457MOL0     H61639   4.701   3.517   5.785 -0.0537  2.0064  0.4887
  457MOL0     H61640   4.415   3.604   5.761 -0.5003  1.9093  1.5722
  457MOL0     H61641   4.464   3.562   5.919  3.0211 -0.1536  2.3140
  457MOL0     H61642   4.541   3.790   5.728  1.6886 -1.7585 -0.3088
  457MOL0     H61643   4.651   3.761   5.858 -1.6385 -0.6274  2.2940
  457MOL0     H61644   4.357   3.839   5.891  1.0477  2.1537  0.2675
  457MOL0     H61645   4.464   3.797   6.019  4.7200 -1.5084 -0.5895
  457MOL0     H61646   4.424   4.092   5.788 -0.5365 -1.0849  0.6445
  457MOL0     H61647   4.541   4.376   5.901 -2.3761 -1.6342 -3.1456
  457MOL0     H61648   4.723   4.347   5.930  0.8408  1.8929 -1.9114
  457MOL0     H61649   4.734   4.277   5.676  1.9180  2.0426  0.7493
  457MOL0     H61650   4.566   4.271   5.675  1.1342 -0.2181 -1.5273
  457MOL0     H61651   4.537   4.510   5.677  0.0531  0.4797 -3.4141
  457MOL0     H61652   4.640   4.477   5.550 -1.1413  2.6882  0.7353
  457MOL0     H61653   4.762   4.656   5.662 -3.6265 -0.9669 -2.6834
  457MOL0     H61654   4.833   4.505   5.722  2.6563  4.5393 -2.9282
  457MOL0     H61655   4.905   4.774   5.748  0.6141  1.3880 -0.1814
  457MOL0     H61656   4.966   5.003   5.829 -1.0397  0.8092  1.3489
  457MOL0     H61657   4.928   5.333   6.237 -0.1271 -2.4340 -1.2472
  457MOL0     H61658   5.040   5.528   6.316 -2.4148 -1.6643 -0.3426
  457MOL0     H61659   5.134   5.738   6.284  1.3157  3.0995  0.4036
  457MOL0     H61660   5.197   5.648   6.424 -0.1421  0.7063  0.5060
  457MOL0     H61661   5.351   5.847   6.268 -1.1892 -3.6445 -1.7302
  457MOL0     H61662   5.272   5.884   6.422 -2.0135  0.0652  1.0672
  457MOL0     H61663   5.487   5.668   6.382  2.1058  0.8227 -0.4474
  457MOL0     H61664   5.528   5.825   6.434  0.6318 -2.3781 -3.0770
  457MOL0     H61665   5.334   5.646   6.585 -0.1137  0.6149  2.5583
  457MOL0     H61666   5.386   5.798   6.651  1.0138 -0.8633  2.7442
  457MOL0     H61667   5.604   5.729   6.680  0.6059 -1.3373 -0.5074
  457MOL0     H61668   5.592   5.603   6.564  2.8635  0.8824  0.7422
  457MOL0     H61669   5.442   5.468   6.730 -2.1932  1.8623 -0.8329
  457MOL0     H61670   5.600   5.498   6.796 -0.1683 -1.6148 -1.4219
  457MOL0     H61671   5.428   5.560   6.969 -3.2215  1.7079  1.4122
  457MOL0     H61672   5.340   5.643   6.851  0.9415 -2.6602 -2.7401
  457MOL0     H61673   5.551   5.813   6.856  2.7653 -0.7247 -0.5047
  457MOL0     H61674   5.483   5.777   7.021  1.0043 -1.3612  0.9489
  457MOL0     H61675   5.368   5.448   6.043  0.9595 -1.8298  1.5205
  457MOL0     H61676   5.250   5.246   5.969  1.5065  0.8779  0.2640
  457MOL0     H61677   4.718   4.929   6.164  0.0423 -1.5995  0.3635
  457MOL0     H61678   4.674   4.698   6.085  0.4464 -1.7113 -1.0481
  457MOL0     H61679   4.860   3.361   5.056  1.4794 -1.2919 -1.9192
  457MOL0     H61680   5.024   3.264   4.894  1.4299 -2.8117 -0.0710
  457MOL0     H61681   5.332   3.257   4.708 -1.6833 -2.2665 -0.6799
  457MOL0     H61682   5.451   3.245   4.513 -2.1824  1.5392  1.5643
  457MOL0     H61683   5.619   3.246   4.356 -2.7652 -0.5529  0.0336
  457MOL0     H61684   5.533   3.101   4.316  1.0126 -2.6391 -3.8866
  457MOL0     H61685   5.817   3.172   4.259 -0.6114  0.9379  2.8757
  457MOL0     H61686   5.683   3.145   4.143 -1.9223 -2.0719 -0.5930
  457MOL0     H61687   5.710   2.885   4.206 -1.8030  2.5806  0.1412
  457MOL0     H61688   5.827   2.938   4.323 -1.6166 -0.5515  0.4637
  457MOL0     H61689   5.972   3.010   4.154 -0.1827 -1.9356  1.2003
  457MOL0     H61690   5.931   2.848   4.113 -0.9898 -0.8007  1.2312
  457MOL0     H61691   5.792   3.082   3.779 -0.2675 -0.5459  0.6905
  457MOL0     H61692   5.692   2.927   4.662 -1.2939 -1.2308  2.7181
  457MOL0     H61693   5.521   2.865   4.942  1.1846 -0.1631  4.2629
  457MOL0     H61694   5.690   2.861   4.867 -1.6599 -2.8680  2.0214
  457MOL0     H61695   5.646   2.969   4.999 -1.9805 -2.2705  2.3477
  458MOL0     O61696   3.474   0.530   6.161  0.2285 -0.7078  0.3677
  458MOL0     C61697   3.458   0.415   6.184 -1.0295 -0.8970 -0.3594
  458MOL0     O61698   3.557   0.331   6.198 -0.0028  0.4849  0.6096
  458MOL0     C61699   3.685   0.356   6.172 -0.2224  0.1134 -0.5120
  458MOL0     C61700   3.758   0.386   6.291 -0.5440  1.4534 -0.3633
  458MOL0     C61701   3.901   0.394   6.276 -0.6366  0.5060  0.8267
  458MOL0     C61702   3.957   0.373   6.152  0.0192  0.4083  0.3613
  458MOL0     O61703   4.090   0.378   6.151  0.3213  0.3290  0.7830
  458MOL0     C61704   4.164   0.277   6.078 -0.6135 -0.1342 -1.2225
  458MOL0     C61705   4.304   0.258   6.151  0.3315 -0.2439 -0.1878
  458MOL0     C61706   4.381   0.135   6.099 -0.6417 -0.3321  0.6103
  458MOL0     C61707   4.437   0.159   5.967 -0.0880 -0.5124 -0.3691
  458MOL0     C61708   4.534   0.049   5.921  0.8453 -0.2040 -0.1881
  458MOL0     C61709   4.473  -0.098   5.914  0.1913  0.0769 -0.0392
  458MOL0     C61710   4.575  -0.188   5.835 -0.8454 -0.0508  0.0379
  458MOL0     C61711   4.558  -0.162   5.686  0.2064  0.0184  0.9255
  458MOL0     N61712   4.663  -0.229   5.610 -0.4039 -0.2880 -0.5407
  458MOL0     C61713   4.807  -0.218   5.613  0.5453 -0.9958 -0.9688
  458MOL0     C61714   4.849  -0.262   5.491 -1.4635  0.2623 -1.1023
  458MOL0     C61715   4.995  -0.297   5.462 -0.1658 -0.7460  0.0360
  458MOL0     C61716   5.078  -0.172   5.423 -0.0328  0.1639  0.0934
  458MOL0     C61717   5.109  -0.082   5.548 -0.7248  0.3310 -0.4189
  458MOL0     C61718   5.212   0.035   5.529 -0.3528 -0.6692  0.2901
  458MOL0     O61719   5.340  -0.001   5.572  0.8896 -0.5169 -0.7791
  458MOL0     C61720   5.447   0.089   5.577 -0.2778 -0.7226  0.3766
  458MOL0     C61721   5.571   0.040   5.635  0.4838 -0.6851 -0.0653
  458MOL0     C61722   5.689   0.118   5.639 -0.6416 -0.0680  0.6793
  458MOL0     C61723   5.695   0.239   5.568  0.0683  0.1215  0.6963
  458MOL0     C61724   5.826   0.311   5.583  0.2588  0.1325  0.1254
  458MOL0     O61725   5.944   0.234   5.597  0.9521 -0.3761 -0.0749
  458MOL0     C61726   6.063   0.289   5.621  0.8345  0.6429  0.3430
  458MOL0     C61727   6.124   0.342   5.506 -0.5609 -0.4210 -0.0088
  458MOL0     C61728   6.256   0.392   5.507 -0.0651  1.3273  0.4168
  458MOL0     C61729   6.322   0.395   5.628 -0.2407 -0.7489  0.3777
  458MOL0     O61730   6.454   0.423   5.630  0.1536  0.1618 -0.4715
  458MOL0     C61731   6.489   0.558   5.620 -0.1859 -0.6354 -0.8981
  458MOL0     C61732   6.644   0.575   5.600  0.6246 -0.1627  0.9298
  458MOL0     C61733   6.720   0.543   5.717 -0.4726  0.8955 -0.5783
  458MOL0     C61734   6.860   0.595   5.722 -0.1003  0.9935  0.0822
  458MOL0     C61735   6.948   0.544   5.839  0.1139  0.1766 -0.3327
  458MOL0     C61736   7.097   0.583   5.803  0.1292  0.5571 -0.0470
  458MOL0     C61737   7.182   0.538   5.920  0.3751 -0.4598  0.6822
  458MOL0     C61738   7.325   0.588   5.878 -0.3440  0.2275 -0.8453
  458MOL0    Cl61739   7.444   0.502   5.976 -0.4434  0.4547 -0.5231
  458MOL0     C61740   6.258   0.341   5.745 -0.2142 -0.3035  1.5793
  458MOL0     C61741   6.129   0.282   5.742  0.3041 -0.1526  0.7619
  458MOL0     O61742   5.825   0.437   5.573  0.2602  1.3248  0.1077
  458MOL0     C61743   5.579   0.284   5.504  1.2820 -0.5554 -0.2049
  458MOL0     C61744   5.455   0.218   5.518 -0.5915  0.2639 -0.1198
  458MOL0     N61745   4.745  -0.320   5.424  0.3927  0.1514 -0.3187
  458MOL0     N61746   4.636  -0.300   5.491 -0.2910  0.5992  0.3775
  458MOL0     C61747   3.881   0.347   6.034  0.1244  0.6261 -1.0059
  458MOL0     C61748   3.743   0.337   6.042  1.0258  0.1488 -0.8496
  458MOL0     C61749   3.327   0.350   6.213  1.0300  0.2208  0.0655
  458MOL0     C61750   3.325   0.238   6.295  0.3072 -0.6850 -0.4210
  458MOL0     C61751   3.199   0.184   6.322 -0.1722 -0.2611  0.3501
  458MOL0     C61752   3.073   0.233   6.282  0.0856  0.4093 -0.1936
  458MOL0     O61753   2.951   0.181   6.305 -0.6870 -0.6984  0.1207
  458MOL0     C61754   2.941   0.086   6.408  0.6520 -0.6018 -1.3449
  458MOL0     C61755   2.966   0.154   6.541  0.2270 -0.6157 -0.3454
  458MOL0     C61756   2.971   0.049   6.644  0.4672 -0.0970 -0.1782
  458MOL0     C61757   2.934   0.090   6.786 -0.5272 -0.4793 -0.2686
  458MOL0     C61758   2.974  -0.001   6.896  0.2096  0.7689 -0.4359
  458MOL0     C61759   3.008  -0.068   6.993  0.7659 -0.8521 -0.8702
  458MOL0     C61760   3.081   0.347   6.213  0.0217  0.4623 -0.0380
  458MOL0     C61761   3.207   0.409   6.173  0.4317  0.8414  0.1529
  458MOL0     C61762   3.200   0.538   6.090 -0.1824  0.1105 -0.5470
  458MOL0     H61763   3.711   0.398   6.387 -2.3956 -1.8070 -0.7188
  458MOL0     H61764   3.952   0.433   6.364 -1.4250  0.0381  1.5054
  458MOL0     H61765   4.101   0.191   6.102 -1.6467  0.8917 -0.1361
  458MOL0     H61766   4.170   0.304   5.972 -0.1858  0.9485 -0.9360
  458MOL0     H61767   4.288   0.239   6.258  1.9900  1.5715  0.4385
  458MOL0     H61768   4.356   0.353   6.139 -0.2121  0.0921  0.1084
  458MOL0     H61769   4.316   0.047   6.097 -2.8694  1.2530 -0.8316
  458MOL0     H61770   4.460   0.115   6.173 -0.3917 -2.1470 -0.0968
  458MOL0     H61771   4.360   0.160   5.889  0.1042 -0.3927 -0.5580
  458MOL0     H61772   4.485   0.257   5.962 -2.4882  0.7762  0.3660
  458MOL0     H61773   4.584   0.077   5.828  0.2932 -2.1569 -1.1226
  458MOL0     H61774   4.614   0.043   5.996  1.6244 -1.5356 -1.0871
  458MOL0     H61775   4.476  -0.134   6.017 -0.3140 -2.7739 -0.9255
  458MOL0     H61776   4.370  -0.094   5.877 -1.8765  0.4514  4.9376
  458MOL0     H61777   4.568  -0.295   5.854  0.1413  0.1948  1.9774
  458MOL0     H61778   4.677  -0.163   5.865 -0.2525 -2.3315  0.0697
  458MOL0     H61779   4.462  -0.207   5.657 -0.9875  1.9498  1.6577
  458MOL0     H61780   4.553  -0.055   5.664  0.0460 -0.3912 -1.1848
  458MOL0     H61781   4.862  -0.166   5.690 -0.4990 -0.1885 -0.7432
  458MOL0     H61782   5.046  -0.344   5.547  2.2970  1.0349 -0.3480
  458MOL0     H61783   4.986  -0.374   5.385 -1.5427  0.4814 -1.0801
  458MOL0     H61784   5.170  -0.223   5.393 -0.8679  0.1086 -2.6828
  458MOL0     H61785   5.033  -0.114   5.342  0.0837 -1.8579 -1.4950
  458MOL0     H61786   5.143  -0.150   5.627  0.1977  2.0526  0.7436
  458MOL0     H61787   5.019  -0.031   5.582 -0.1448  1.8031 -1.0212
  458MOL0     H61788   5.191   0.132   5.576  0.9175 -0.0793 -0.2940
  458MOL0     H61789   5.218   0.049   5.421 -0.9967 -0.5698  0.2631
  458MOL0     H61790   5.557  -0.057   5.683 -5.3431 -0.2923 -0.2302
  458MOL0     H61791   5.783   0.085   5.681  2.1709  2.4829 -3.0022
  458MOL0     H61792   6.070   0.337   5.411  1.6140 -0.4615 -1.3147
  458MOL0     H61793   6.313   0.421   5.419 -0.1632 -3.8222 -1.7119
  458MOL0     H61794   6.429   0.606   5.542  0.4886 -0.2761 -1.2028
  458MOL0     H61795   6.462   0.615   5.710 -2.2340  0.5179 -2.1564
  458MOL0     H61796   6.681   0.528   5.508  1.5417  2.8916 -0.3696
  458MOL0     H61797   6.654   0.679   5.567  3.4309 -0.6453  0.0324
  458MOL0     H61798   6.668   0.585   5.803  0.0481  2.5390 -1.0357
  458MOL0     H61799   6.716   0.435   5.734 -1.3386  0.9865 -0.1331
  458MOL0     H61800   6.857   0.704   5.731  1.7810  1.0641  0.3853
  458MOL0     H61801   6.909   0.578   5.625  0.5701  0.9423  0.4215
  458MOL0     H61802   6.926   0.439   5.856  1.3769  0.1056  0.9944
  458MOL0     H61803   6.914   0.585   5.934 -1.3717 -4.8213  1.6179
  458MOL0     H61804   7.135   0.535   5.712 -0.0334  1.1926 -0.4633
  458MOL0     H61805   7.101   0.691   5.785  1.6297  0.5461  0.0959
  458MOL0     H61806   7.187   0.429   5.932  0.7399 -0.6323 -0.8068
  458MOL0     H61807   7.139   0.585   6.009  0.8842  1.1379  0.1183
  458MOL0     H61808   7.353   0.555   5.778  3.6905  0.6387 -0.0348
  458MOL0     H61809   7.339   0.696   5.886  2.2518 -0.1498  1.8985
  458MOL0     H61810   6.315   0.344   5.837  1.7032  1.6068  0.4398
  458MOL0     H61811   6.078   0.241   5.828  0.7610 -1.6098  0.3787
  458MOL0     H61812   5.582   0.381   5.454  0.6043 -1.2128 -1.5750
  458MOL0     H61813   5.358   0.257   5.487 -1.2874  1.5487  3.2064
  458MOL0     H61814   3.929   0.315   5.942 -1.7324 -1.5021 -1.3215
  458MOL0     H61815   3.679   0.313   5.959 -0.9389  1.3778  0.2436
  458MOL0     H61816   3.421   0.209   6.336  0.7120  1.9742  0.7067
  458MOL0     H61817   3.200   0.093   6.381  1.3028 -0.7491 -0.3713
  458MOL0     H61818   3.013   0.004   6.400 -0.1656 -1.2543 -2.1218
  458MOL0     H61819   2.845   0.035   6.413  2.5634 -4.4841  2.0411
  458MOL0     H61820   2.890   0.232   6.550 -1.5783 -1.9231 -3.0080
  458MOL0     H61821   3.061   0.207   6.554  0.4544 -1.2772  0.8058
  458MOL0     H61822   3.075   0.018   6.643  2.2644  5.0246 -0.9839
  458MOL0     H61823   2.903  -0.033   6.617  0.7898 -0.7081  0.8201
  458MOL0     H61824   2.993   0.182   6.798 -0.5075 -0.6810  1.4804
  458MOL0     H61825   2.832   0.129   6.796  0.6078  2.3605  1.5665
  458MOL0     H61826   3.031  -0.121   7.083  0.5215  0.5742  0.0634
  458MOL0     H61827   2.992   0.390   6.170 -0.1533  1.0342  0.8593
  458MOL0     H61828   3.254   0.620   6.138  3.0047 -1.5621 -1.0472
  458MOL0     H61829   3.237   0.517   5.990  0.2376 -1.3382 -0.1109
  458MOL0     H61830   3.096   0.568   6.076 -0.6211 -0.4062  1.3224
  459MOL0     O61831   1.909   8.496   1.948  0.2032  0.3345  0.0394
  459MOL0     C61832   1.993   8.429   2.007  0.0078  0.4162 -0.4135
  459MOL0     O61833   2.099   8.482   2.083 -0.6377  0.2289  0.5724
  459MOL0     C61834   2.098   8.621   2.111  0.3829  0.2005  0.4315
  459MOL0     C61835   1.988   8.670   2.185 -0.5479  0.4941  0.6088
  459MOL0     C61836   1.990   8.806   2.215 -0.3803  0.2613  0.4530
  459MOL0     C61837   2.087   8.901   2.171 -0.2777  0.0839 -0.4232
  459MOL0     O61838   2.082   9.032   2.201  0.4398  0.3775  0.1416
  459MOL0     C61839   2.010   9.102   2.090 -0.8364 -0.1031  0.0322
  459MOL0     C61840   2.005   9.252   2.132  0.1422  0.5847  1.3079
  459MOL0     C61841   1.905   9.261   2.251  0.1695  0.5728 -0.3143
  459MOL0     C61842   1.954   9.372   2.346  0.9018  0.3009 -0.4061
  459MOL0     C61843   1.867   9.367   2.472 -0.1724 -0.1092  1.0456
  459MOL0     C61844   1.936   9.273   2.582 -0.3363  0.0281  1.1185
  459MOL0     C61845   1.865   9.265   2.715  0.1620 -0.0018 -0.1521
  459MOL0     C61846   1.773   9.142   2.728 -1.2173  0.0616  0.2177
  459MOL0     N61847   1.704   9.077   2.606 -0.8379 -0.3659 -0.0777
  459MOL0     C61848   1.610   9.131   2.523  0.3749  0.7552  0.4007
  459MOL0     C61849   1.621   9.060   2.403 -0.4248  0.7561 -0.2518
  459MOL0     C61850   1.542   9.065   2.280  0.3499  0.0399 -0.1517
  459MOL0     C61851   1.400   9.017   2.314  0.2433  0.1914  0.2700
  459MOL0     C61852   1.406   8.862   2.309  0.6602 -0.0747  0.0419
  459MOL0     C61853   1.278   8.799   2.344  1.2428  0.2367 -1.0841
  459MOL0     O61854   1.223   8.841   2.475  0.2744 -0.2811 -0.3576
  459MOL0     C61855   1.307   8.816   2.590 -0.0089 -0.4287 -0.2153
  459MOL0     C61856   1.339   8.938   2.658  0.4202  1.1554  0.2471
  459MOL0     C61857   1.414   8.929   2.779  0.3782  0.0332  0.6827
  459MOL0     C61858   1.479   8.807   2.815  0.3390 -0.4881 -0.2087
  459MOL0     C61859   1.583   8.799   2.920 -0.2119 -0.4051 -0.6794
  459MOL0     O61860   1.636   8.916   2.950 -0.2212 -0.4343 -0.1587
  459MOL0     C61861   1.749   8.934   3.028 -0.0971  0.6979 -0.1698
  459MOL0     C61862   1.740   9.031   3.126  0.4742 -1.3569  0.0072
  459MOL0     C61863   1.843   9.060   3.204 -0.8251  0.4764 -0.8754
  459MOL0     C61864   1.968   9.002   3.185  0.3244  0.3445  0.6468
  459MOL0     O61865   2.079   9.011   3.267  0.6544  0.3438  0.4235
  459MOL0     C61866   2.069   8.929   3.385  1.0110 -0.0231  0.4020
  459MOL0     C61867   2.158   8.973   3.494 -0.5013 -0.2022 -0.2985
  459MOL0     C61868   2.100   9.083   3.585  0.9282  0.2825 -0.1838
  459MOL0     C61869   2.083   9.226   3.507  0.1821  1.1449 -0.3096
  459MOL0     C61870   2.004   9.326   3.593 -0.1762  0.0036 -1.0416
  459MOL0     C61871   2.025   9.469   3.541  0.7249 -0.1437  0.1178
  459MOL0     C61872   2.005   9.569   3.656  0.3374  0.3482 -1.0002
  459MOL0     C61873   1.863   9.580   3.722  0.0429  0.6042  0.1062
  459MOL0    Cl61874   1.746   9.614   3.593 -0.4858 -0.0794 -0.0454
  459MOL0     C61875   1.981   8.909   3.082  0.0947  0.0905  0.3048
  459MOL0     C61876   1.874   8.881   2.998  0.4195 -0.2416  0.0705
  459MOL0     O61877   1.612   8.691   2.971 -0.3798  0.5596 -0.8585
  459MOL0     C61878   1.436   8.689   2.746  0.4876 -0.3951  0.1821
  459MOL0     C61879   1.347   8.695   2.638  0.7025 -0.2593  0.1985
  459MOL0     N61880   1.726   8.963   2.421  0.2704 -0.6250 -0.3776
  459MOL0     N61881   1.779   8.984   2.539 -0.3608  0.3735 -0.6513
  459MOL0     C61882   2.200   8.846   2.120  0.2554  0.1406 -0.2309
  459MOL0     C61883   2.209   8.706   2.096 -0.3476  0.0832  0.7841
  459MOL0     C61884   2.003   8.292   1.984  0.5304  0.5351 -0.3515
  459MOL0     C61885   2.138   8.239   1.970 -1.0869  0.2473 -0.6693
  459MOL0     C61886   2.165   8.109   1.932 -0.3598 -1.0782 -0.0368
  459MOL0     C61887   2.060   8.022   1.917 -0.2946  0.6816  0.4840
  459MOL0     O61888   2.091   7.896   1.893 -0.4216 -0.2574  0.2937
  459MOL0     C61889   1.989   7.797   1.877  0.3032  0.2590  0.0532
  459MOL0     C61890   2.059   7.665   1.875  0.6122 -0.1477  0.1257
  459MOL0     C61891   1.971   7.546   1.897  1.3317  0.3689  0.5287
  459MOL0     C61892   2.025   7.414   1.847 -0.8538  0.3665 -0.7577
  459MOL0     C61893   2.077   7.416   1.713 -0.7402 -0.4734 -0.1748
  459MOL0     C61894   2.117   7.426   1.593 -0.0917 -0.3472  0.6593
  459MOL0     C61895   1.928   8.059   1.955 -0.6898  0.3811 -0.0004
  459MOL0     C61896   1.899   8.190   1.992 -0.3422 -0.6821  0.4743
  459MOL0     C61897   1.750   8.223   2.003 -0.3985 -0.2197 -0.1069
  459MOL0     H61898   1.908   8.608   2.223 -1.7288  4.3007  5.2156
  459MOL0     H61899   1.900   8.834   2.269 -0.6443 -2.6793  1.6983
  459MOL0     H61900   2.068   9.086   1.998  1.9098 -0.4628  1.7343
  459MOL0     H61901   1.906   9.072   2.069 -0.8269  0.9005 -1.6672
  459MOL0     H61902   1.968   9.305   2.044 -1.7715 -0.3260  1.4918
  459MOL0     H61903   2.109   9.280   2.149 -0.0044  2.1290 -0.1465
  459MOL0     H61904   1.913   9.170   2.311 -0.4106  0.2817 -0.6647
  459MOL0     H61905   1.799   9.276   2.226 -0.1720  0.3550  0.8922
  459MOL0     H61906   2.058   9.369   2.379  0.7594  0.9090  0.1078
  459MOL0     H61907   1.944   9.463   2.285 -0.7652  3.3977  3.9791
  459MOL0     H61908   1.850   9.467   2.515 -0.5851 -0.4188  1.6212
  459MOL0     H61909   1.768   9.329   2.446 -1.1988  2.3292  1.1033
  459MOL0     H61910   1.943   9.174   2.537 -3.4456  0.7620 -1.3042
  459MOL0     H61911   2.032   9.320   2.606  1.6623 -1.9292 -2.2098
  459MOL0     H61912   1.815   9.357   2.746 -0.1784 -0.9753  2.4947
  459MOL0     H61913   1.940   9.243   2.791 -0.3834 -1.8885 -0.1159
  459MOL0     H61914   1.838   9.060   2.760 -0.9520 -0.5965 -1.8281
  459MOL0     H61915   1.700   9.170   2.804 -1.8623  2.0714 -1.0653
  459MOL0     H61916   1.536   9.207   2.545 -2.5129 -1.8005  0.1729
  459MOL0     H61917   1.531   9.166   2.241 -3.0584 -0.7071 -1.4227
  459MOL0     H61918   1.583   9.001   2.200 -1.5585 -1.3583 -0.0793
  459MOL0     H61919   1.375   9.047   2.416  0.7641 -0.4798  0.6013
  459MOL0     H61920   1.333   9.055   2.236  2.9108  1.8444 -1.3758
  459MOL0     H61921   1.482   8.835   2.382 -1.5127 -1.7122  1.8581
  459MOL0     H61922   1.430   8.824   2.209 -0.3284 -0.8141  0.0646
  459MOL0     H61923   1.297   8.691   2.352 -1.9384 -0.2544  2.5597
  459MOL0     H61924   1.206   8.822   2.265 -0.4428  1.2051  0.6559
  459MOL0     H61925   1.295   9.031   2.626  1.1139  1.3357 -0.2148
  459MOL0     H61926   1.433   9.029   2.818 -0.0600  0.0785  0.7859
  459MOL0     H61927   1.645   9.074   3.152  0.9670 -0.6917  0.7475
  459MOL0     H61928   1.826   9.123   3.291 -0.1549 -0.6104  0.0887
  459MOL0     H61929   1.968   8.922   3.427  1.0394  0.6496  0.6018
  459MOL0     H61930   2.092   8.825   3.361  4.1868  1.3218 -3.3314
  459MOL0     H61931   2.191   8.896   3.564  2.6615  2.4558  1.4593
  459MOL0     H61932   2.252   9.006   3.448 -2.1771  1.4005 -2.8840
  459MOL0     H61933   2.001   9.055   3.623  1.8635  0.5297  2.6666
  459MOL0     H61934   2.159   9.096   3.677  2.5721  3.4794 -1.5425
  459MOL0     H61935   2.028   9.214   3.413 -0.2950 -2.2482  0.2572
  459MOL0     H61936   2.179   9.272   3.482  1.1478  0.5063  1.9786
  459MOL0     H61937   2.037   9.321   3.697  1.2337  0.4319 -1.4377
  459MOL0     H61938   1.896   9.310   3.600 -0.6885  2.1357 -2.7333
  459MOL0     H61939   2.124   9.489   3.497  0.7118 -0.7308 -0.1925
  459MOL0     H61940   1.954   9.487   3.460  1.6201 -2.0180 -1.1730
  459MOL0     H61941   2.036   9.661   3.607  4.9076 -0.4535 -0.0537
  459MOL0     H61942   2.078   9.546   3.734 -1.7940  1.0215  1.3362
  459MOL0     H61943   1.830   9.483   3.759  0.3932  0.0693 -0.9158
  459MOL0     H61944   1.856   9.661   3.795  1.6674 -1.4866  2.7310
  459MOL0     H61945   2.076   8.865   3.056 -0.0608  0.6454 -1.3169
  459MOL0     H61946   1.891   8.820   2.911  0.9140 -0.7971  0.5487
  459MOL0     H61947   1.470   8.588   2.766  2.5831 -0.1325 -1.7408
  459MOL0     H61948   1.323   8.600   2.591 -1.6348  0.3906 -0.0369
  459MOL0     H61949   2.288   8.902   2.092  1.5580 -2.0506 -0.7389
  459MOL0     H61950   2.309   8.684   2.060 -0.0035  3.5059 -0.8161
  459MOL0     H61951   2.233   8.288   1.993 -2.0252  0.6982  2.8545
  459MOL0     H61952   2.262   8.064   1.916 -0.0837 -0.0484 -1.4387
  459MOL0     H61953   1.932   7.806   1.784  0.9614 -0.1949 -0.4037
  459MOL0     H61954   1.922   7.795   1.962  0.6952 -1.8640  0.3613
  459MOL0     H61955   2.134   7.658   1.955  2.6422 -2.7942 -1.8495
  459MOL0     H61956   2.113   7.667   1.780  3.5833 -0.0832  1.6999
  459MOL0     H61957   1.881   7.569   1.840  0.2031  0.8535  2.3923
  459MOL0     H61958   1.937   7.540   2.001  1.7293  2.9718  0.8811
  459MOL0     H61959   2.107   7.390   1.915 -2.5852 -2.9466  0.3620
  459MOL0     H61960   1.949   7.336   1.852  1.2933 -1.7948 -0.0187
  459MOL0     H61961   2.128   7.442   1.488 -0.5948 -0.1149  0.6411
  459MOL0     H61962   1.849   7.985   1.949  0.6012 -0.9825 -0.6835
  459MOL0     H61963   1.691   8.138   2.039  1.5344 -2.9786 -2.8860
  459MOL0     H61964   1.736   8.309   2.069  1.7718 -2.1263  3.0815
  459MOL0     H61965   1.713   8.256   1.905  2.8798  2.7613 -0.5300
  460MOL0     O61966   5.017   4.391   7.819  0.7933 -0.2671  0.5342
  460MOL0     C61967   4.953   4.426   7.919  1.2801  0.7477 -0.6389
  460MOL0     O61968   4.819   4.451   7.917  0.1046 -0.5132  0.0025
  460MOL0     C61969   4.735   4.435   7.803  0.6579  1.2006  0.3996
  460MOL0     C61970   4.742   4.489   7.669 -0.5651  1.0570 -0.1464
  460MOL0     C61971   4.640   4.471   7.577 -1.2390  0.3532  0.1759
  460MOL0     C61972   4.517   4.406   7.610 -0.5443 -0.2401 -0.2348
  460MOL0     O61973   4.412   4.369   7.526  0.4848  0.0034  0.1959
  460MOL0     C61974   4.393   4.433   7.398  0.0690  1.0829  0.0428
  460MOL0     C61975   4.258   4.381   7.345  0.0749  0.0150  0.2962
  460MOL0     C61976   4.240   4.443   7.207 -0.2145 -0.4728  0.3476
  460MOL0     C61977   4.280   4.334   7.113 -0.6373 -0.8522 -0.0755
  460MOL0     C61978   4.285   4.380   6.960  0.2661  0.0542 -0.5537
  460MOL0     C61979   4.349   4.271   6.879 -0.2524  0.0522  0.1860
  460MOL0     C61980   4.256   4.205   6.785  0.1464  0.2393  0.4927
  460MOL0     C61981   4.224   4.272   6.645 -0.0775  0.2329 -0.3326
  460MOL0     N61982   4.121   4.193   6.567  0.3992 -0.2410 -0.0390
  460MOL0     C61983   4.095   4.055   6.573 -0.0919 -0.0340  0.0361
  460MOL0     C61984   3.990   4.035   6.495 -0.6005 -0.4370  0.1745
  460MOL0     C61985   3.941   3.904   6.460 -0.1738  0.8596  0.6631
  460MOL0     C61986   3.859   3.854   6.584 -1.2016 -1.2383 -0.5082
  460MOL0     C61987   3.774   3.745   6.539 -0.1721 -1.0053 -0.7871
  460MOL0     C61988   3.707   3.679   6.662 -0.3098 -0.1258 -0.6908
  460MOL0     O61989   3.644   3.560   6.616  0.4475  0.3260 -0.5512
  460MOL0     C61990   3.596   3.469   6.714 -0.7081  0.8111 -0.6087
  460MOL0     C61991   3.611   3.482   6.860 -0.5681  0.1989 -0.2590
  460MOL0     C61992   3.575   3.378   6.942  0.4120  0.4018 -0.1994
  460MOL0     C61993   3.505   3.269   6.891 -0.1155  0.7509 -0.0184
  460MOL0     C61994   3.444   3.172   6.987  0.5468  0.2006  0.6823
  460MOL0     O61995   3.483   3.193   7.117  0.3676 -0.3941  0.2078
  460MOL0     C61996   3.427   3.117   7.213 -0.1185  0.0543  0.9161
  460MOL0     C61997   3.439   2.972   7.203  0.5465 -0.5804 -0.0029
  460MOL0     C61998   3.383   2.901   7.305 -0.0124  0.0926 -0.4363
  460MOL0     C61999   3.318   2.965   7.412  0.0711 -0.3242 -0.1014
  460MOL0     O62000   3.256   2.880   7.506  0.1853  0.1530  1.2550
  460MOL0     C62001   3.135   2.920   7.572 -0.2912  0.1223 -0.3746
  460MOL0     C62002   3.022   2.990   7.493 -0.3280 -0.4626  0.4506
  460MOL0     C62003   2.900   3.042   7.576 -0.3185 -0.0701  0.6942
  460MOL0     C62004   2.792   3.118   7.491  0.1430  0.3549  1.0439
  460MOL0     C62005   2.715   3.030   7.391 -0.7436 -0.8308 -0.3381
  460MOL0     C62006   2.616   3.125   7.338  0.5829 -0.5747 -0.0255
  460MOL0     C62007   2.515   3.035   7.254 -0.5466  0.0729  0.2154
  460MOL0     C62008   2.388   3.108   7.219 -0.2301  0.0421  0.1788
  460MOL0    Cl62009   2.437   3.259   7.127  0.1162  0.1310 -0.2968
  460MOL0     C62010   3.327   3.107   7.421  0.4251 -1.1818  0.0969
  460MOL0     C62011   3.374   3.194   7.318 -0.6555 -0.0358 -0.1284
  460MOL0     O62012   3.372   3.079   6.942 -0.0830  0.1151  0.0262
  460MOL0     C62013   3.486   3.257   6.756  0.2228  0.5945  0.7284
  460MOL0     C62014   3.532   3.351   6.665 -0.6052 -1.2976 -0.7667
  460MOL0     N62015   3.952   4.160   6.446  0.4826  0.3485 -0.0309
  460MOL0     N62016   4.041   4.247   6.470 -0.0402  0.3836 -0.3639
  460MOL0     C62017   4.508   4.358   7.740  0.1444 -0.4062 -0.8511
  460MOL0     C62018   4.613   4.374   7.830  0.5143  0.4728 -0.0989
  460MOL0     C62019   5.034   4.433   8.047  1.1675 -0.3437  0.3695
  460MOL0     C62020   5.165   4.490   8.034 -0.2198 -0.3891 -0.0380
  460MOL0     C62021   5.234   4.517   8.149 -0.6270  0.4588  0.9728
  460MOL0     C62022   5.181   4.504   8.278 -0.3928  0.6790 -0.2765
  460MOL0     O62023   5.259   4.528   8.391  0.2319  0.9348 -0.0554
  460MOL0     C62024   5.407   4.535   8.395 -0.2502 -0.6424 -0.3913
  460MOL0     C62025   5.456   4.662   8.330  0.2741  0.7390  0.1263
  460MOL0     C62026   5.559   4.724   8.434 -0.0517 -0.1621  0.6557
  460MOL0     C62027   5.588   4.876   8.404 -0.0719  1.0181 -1.0388
  460MOL0     C62028   5.615   4.967   8.517 -0.4055  0.1085  0.0063
  460MOL0     C62029   5.664   5.028   8.609  0.1278  0.2915 -0.4094
  460MOL0     C62030   5.047   4.447   8.291 -0.7723 -0.0535  0.1862
  460MOL0     C62031   4.975   4.414   8.175  0.8313 -1.0096 -0.3987
  460MOL0     C62032   4.827   4.364   8.200 -0.0174 -0.5946  0.4067
  460MOL0     H62033   4.840   4.529   7.643 -0.0994 -0.0215 -0.1222
  460MOL0     H62034   4.658   4.497   7.473  1.0365 -3.3954 -0.5408
  460MOL0     H62035   4.391   4.542   7.405  1.8113  1.4790 -3.4645
  460MOL0     H62036   4.483   4.395   7.348  0.5434 -2.4071  3.1199
  460MOL0     H62037   4.180   4.410   7.415 -2.4866 -2.0965 -1.4547
  460MOL0     H62038   4.272   4.272   7.341  2.1844  0.2732 -2.9690
  460MOL0     H62039   4.301   4.533   7.197  0.6296 -0.9905  0.7940
  460MOL0     H62040   4.134   4.461   7.185 -0.1799 -1.5103 -0.7582
  460MOL0     H62041   4.378   4.295   7.139 -1.0268 -3.7350 -2.4120
  460MOL0     H62042   4.222   4.243   7.125 -2.9882  0.6693  0.8006
  460MOL0     H62043   4.188   4.401   6.913 -1.2408 -5.3168 -0.5435
  460MOL0     H62044   4.341   4.473   6.953 -0.5552  0.6632  0.5432
  460MOL0     H62045   4.425   4.314   6.814 -1.8342  0.1733 -1.6721
  460MOL0     H62046   4.405   4.199   6.940  0.2007  0.5506  0.3638
  460MOL0     H62047   4.166   4.172   6.837  0.7177  0.9517  2.0175
  460MOL0     H62048   4.301   4.107   6.764  0.2415  0.6302 -1.2251
  460MOL0     H62049   4.180   4.372   6.658  1.8996  1.3604 -1.7624
  460MOL0     H62050   4.321   4.287   6.596  0.9203 -1.1465  1.1475
  460MOL0     H62051   4.150   3.977   6.623  2.6600  1.6640 -0.1395
  460MOL0     H62052   3.896   3.916   6.361  3.3005 -0.9583 -1.3199
  460MOL0     H62053   4.022   3.834   6.436 -1.9440 -0.9405 -0.3210
  460MOL0     H62054   3.930   3.814   6.658 -2.6530 -0.5168  1.3541
  460MOL0     H62055   3.795   3.935   6.620  0.5012 -0.1433  0.1434
  460MOL0     H62056   3.831   3.666   6.489 -0.1382 -1.4900 -0.0048
  460MOL0     H62057   3.706   3.796   6.471  0.3241  0.4547 -0.2366
  460MOL0     H62058   3.630   3.742   6.708 -0.9041  0.1947 -2.0713
  460MOL0     H62059   3.773   3.658   6.747 -1.2175  2.5589  0.8286
  460MOL0     H62060   3.657   3.569   6.905 -0.0466  1.0007 -2.2290
  460MOL0     H62061   3.603   3.382   7.046 -3.2015 -1.0850  0.9971
  460MOL0     H62062   3.488   2.918   7.123 -1.0499 -0.9541 -0.7572
  460MOL0     H62063   3.389   2.792   7.311  0.0755  0.1359  0.5705
  460MOL0     H62064   3.098   2.822   7.602  0.9978 -1.0224 -2.3107
  460MOL0     H62065   3.162   2.980   7.660 -2.6727  2.1971 -0.9430
  460MOL0     H62066   3.070   3.069   7.434 -2.3120 -0.5506 -1.4311
  460MOL0     H62067   2.988   2.915   7.421 -1.1949 -0.7444  1.1461
  460MOL0     H62068   2.861   2.957   7.632  2.1205 -1.4746  0.4139
  460MOL0     H62069   2.949   3.097   7.657 -0.5796  0.7220  0.3307
  460MOL0     H62070   2.841   3.200   7.437 -0.1851  0.3609  0.7537
  460MOL0     H62071   2.727   3.169   7.562 -0.8699  3.3651 -1.7901
  460MOL0     H62072   2.670   2.939   7.433  1.0064 -2.3165 -1.5195
  460MOL0     H62073   2.782   2.995   7.312 -0.7289  0.1538 -0.7770
  460MOL0     H62074   2.556   3.165   7.420  0.7815 -1.0052  0.3400
  460MOL0     H62075   2.671   3.204   7.287  0.5232  1.5613  2.9388
  460MOL0     H62076   2.481   2.948   7.311  0.2628 -0.5938 -0.2931
  460MOL0     H62077   2.569   2.992   7.169  0.8633 -0.7292  1.4649
  460MOL0     H62078   2.333   3.047   7.147  2.4066  1.8645 -3.7498
  460MOL0     H62079   2.333   3.131   7.311  0.2808 -1.6510  0.9356
  460MOL0     H62080   3.281   3.158   7.505 -1.5514 -1.2801 -0.8641
  460MOL0     H62081   3.381   3.302   7.324 -0.6844 -0.0926  3.8652
  460MOL0     H62082   3.431   3.174   6.713  1.2073 -0.2830  1.1180
  460MOL0     H62083   3.526   3.339   6.557  0.4695  2.5822 -1.4500
  460MOL0     H62084   4.421   4.304   7.775 -2.3057  3.5506 -0.2355
  460MOL0     H62085   4.597   4.328   7.927 -2.6726 -0.6292 -1.0210
  460MOL0     H62086   5.212   4.504   7.937 -3.2840  1.5939 -1.3905
  460MOL0     H62087   5.331   4.555   8.120 -0.6667  0.4436  0.8215
  460MOL0     H62088   5.460   4.457   8.340  1.8051  0.9877 -0.7984
  460MOL0     H62089   5.441   4.523   8.498  1.5019  3.7784 -0.2536
  460MOL0     H62090   5.372   4.729   8.314  0.8247  2.6498  4.0687
  460MOL0     H62091   5.499   4.628   8.235  0.8306  2.1180 -0.1337
  460MOL0     H62092   5.648   4.660   8.443 -1.1133 -1.7673  0.1414
  460MOL0     H62093   5.510   4.727   8.531 -0.8545  2.5322  0.2371
  460MOL0     H62094   5.677   4.872   8.340 -0.0023 -1.6647 -0.8809
  460MOL0     H62095   5.499   4.912   8.352 -3.4451 -3.5253  0.9256
  460MOL0     H62096   5.692   5.091   8.691 -1.2329  0.9065 -0.3888
  460MOL0     H62097   5.004   4.436   8.391  0.8089 -1.9537  0.7154
  460MOL0     H62098   4.816   4.303   8.291  2.1110 -2.0266 -0.2115
  460MOL0     H62099   4.765   4.453   8.195  3.1208  1.6712 -2.1983
  460MOL0     H62100   4.811   4.294   8.118  1.3304 -1.6318  0.9779
  461MOL0     O62101   5.324   5.919  10.688  0.4329 -0.3772  0.3567
  461MOL0     C62102   5.398   6.019  10.687 -0.2235 -0.8989  0.7181
  461MOL0     O62103   5.370   6.131  10.756  0.0023 -0.3055  0.2172
  461MOL0     C62104   5.253   6.135  10.826  0.3068 -1.1249 -0.4122
  461MOL0     C62105   5.262   6.131  10.964  0.5101  0.2873  0.2676
  461MOL0     C62106   5.151   6.155  11.043 -0.1944  0.2906  0.6821
  461MOL0     C62107   5.033   6.178  10.979 -0.2215 -0.2760 -1.0488
  461MOL0     O62108   4.923   6.189  11.061 -0.1885  0.3986 -0.3926
  461MOL0     C62109   4.794   6.122  11.028 -0.2305 -0.9027  0.6453
  461MOL0     C62110   4.714   6.110  11.159  1.3478 -0.2442  0.8211
  461MOL0     C62111   4.564   6.073  11.124  0.3921 -0.4819 -0.0065
  461MOL0     C62112   4.461   6.186  11.090  1.1093 -0.5385 -0.6242
  461MOL0     C62113   4.344   6.135  11.004 -0.6498 -1.2221  0.1418
  461MOL0     C62114   4.251   6.054  11.096 -0.1097  0.8179 -0.0195
  461MOL0     C62115   4.121   5.982  11.041  1.0041  0.2339 -0.5137
  461MOL0     C62116   4.022   6.091  10.992  0.7750  0.6394 -0.2344
  461MOL0     N62117   3.910   6.029  10.924 -1.2233  0.2123  0.3026
  461MOL0     C62118   3.851   6.086  10.814 -0.1953  0.4851 -0.0554
  461MOL0     C62119   3.724   6.035  10.808 -0.3862 -0.1874  0.4073
  461MOL0     C62120   3.615   6.086  10.702  0.2329 -0.1545 -0.1578
  461MOL0     C62121   3.647   6.056  10.551 -1.0446 -0.8130  0.4576
  461MOL0     C62122   3.734   6.165  10.489 -0.5218 -0.8192 -0.4564
  461MOL0     C62123   3.752   6.167  10.329 -0.7841  0.4110  1.0946
  461MOL0     O62124   3.628   6.116  10.278  0.8414  0.6253 -0.0838
  461MOL0     C62125   3.576   6.171  10.168  0.0187  0.9018 -0.3783
  461MOL0     C62126   3.441   6.197  10.157  0.0024  0.6656 -0.2754
  461MOL0     C62127   3.384   6.253  10.041  0.2816 -0.0136 -0.5260
  461MOL0     C62128   3.459   6.294   9.931  0.9855 -0.4292  0.3369
  461MOL0     C62129   3.389   6.352   9.815 -0.8205 -0.1414 -1.0999
  461MOL0     O62130   3.464   6.346   9.696  0.1680 -0.0977 -1.0833
  461MOL0     C62131   3.420   6.385   9.566 -0.8881  0.3076 -0.9360
  461MOL0     C62132   3.518   6.381   9.460  0.8822 -0.1128  0.8890
  461MOL0     C62133   3.479   6.435   9.336 -0.7717 -1.0764  0.7900
  461MOL0     C62134   3.360   6.484   9.309  0.9903  1.6845  0.0059
  461MOL0     O62135   3.316   6.521   9.184  1.2276  0.8995  0.0854
  461MOL0     C62136   3.391   6.521   9.063 -0.0639 -0.5151  0.0887
  461MOL0     C62137   3.316   6.568   8.940 -0.3824 -0.3389  0.5533
  461MOL0     C62138   3.285   6.720   8.933  0.1038 -0.4566 -0.0930
  461MOL0     C62139   3.162   6.747   8.851  0.3234 -0.1163 -0.0901
  461MOL0     C62140   3.190   6.806   8.705 -0.2298 -0.0329  0.4676
  461MOL0     C62141   3.053   6.845   8.648  0.5468 -0.7063 -0.0118
  461MOL0     C62142   3.065   6.889   8.508 -0.2037 -0.2872 -0.4192
  461MOL0     C62143   2.933   6.952   8.448  0.2812 -0.2280 -0.3264
  461MOL0    Cl62144   2.956   7.028   8.294  0.2228 -0.2148 -0.5287
  461MOL0     C62145   3.265   6.484   9.409 -0.5882 -0.0781  0.0966
  461MOL0     C62146   3.296   6.443   9.534 -0.3047  1.2455 -0.5699
  461MOL0     O62147   3.289   6.420   9.839 -0.0287  0.0006 -0.8422
  461MOL0     C62148   3.595   6.268   9.934 -0.0816 -0.2369  0.6668
  461MOL0     C62149   3.649   6.210  10.062 -0.5917  0.5009  0.7969
  461MOL0     N62150   3.702   5.959  10.916 -0.1430  0.9213 -0.8631
  461MOL0     N62151   3.805   5.967  10.987 -0.6728  0.1598  0.6101
  461MOL0     C62152   5.020   6.173  10.843  0.0196  0.0911 -0.2049
  461MOL0     C62153   5.133   6.158  10.767  0.2334  0.1828 -0.7036
  461MOL0     C62154   5.511   6.034  10.588 -1.5877 -0.5652  0.5667
  461MOL0     C62155   5.621   6.136  10.613  0.0308 -0.0280  0.3630
  461MOL0     C62156   5.719   6.152  10.518 -1.1195 -0.0400 -0.1542
  461MOL0     C62157   5.719   6.085  10.401 -0.0588  0.6419  0.3265
  461MOL0     O62158   5.816   6.124  10.311  0.3326  0.6843  0.9390
  461MOL0     C62159   5.876   6.023  10.231  0.0129 -1.5546  1.0543
  461MOL0     C62160   6.002   6.064  10.160 -0.5013 -0.2886  0.6551
  461MOL0     C62161   6.026   5.975  10.045  0.5009  0.5427  0.1433
  461MOL0     C62162   6.155   6.007   9.957  0.4597 -0.7373  0.3709
  461MOL0     C62163   6.283   5.990  10.029 -0.7906  0.8285  1.0658
  461MOL0     C62164   6.386   5.979  10.096  0.8198  0.4394  0.2485
  461MOL0     C62165   5.625   5.980  10.374 -0.5990  0.0607  0.3979
  461MOL0     C62166   5.523   5.951  10.476 -0.2989  0.4969  0.6066
  461MOL0     C62167   5.429   5.844  10.434  0.8972 -0.2992 -0.0936
  461MOL0     H62168   5.362   6.114  11.003  1.0677 -0.7609 -1.4884
  461MOL0     H62169   5.157   6.148  11.151 -0.3712 -0.1697  0.6649
  461MOL0     H62170   4.735   6.180  10.957 -0.0157 -1.4014  0.0451
  461MOL0     H62171   4.815   6.020  10.994  1.1552 -0.6781  0.7667
  461MOL0     H62172   4.702   6.208  11.206 -3.5315 -1.4494  2.6691
  461MOL0     H62173   4.744   6.039  11.236 -3.4319  1.2277  4.5141
  461MOL0     H62174   4.531   6.020  11.213  2.0774  1.1436  1.6802
  461MOL0     H62175   4.564   6.011  11.033 -1.2900  0.2575 -0.5396
  461MOL0     H62176   4.417   6.225  11.182  0.2579  0.2626 -1.3560
  461MOL0     H62177   4.523   6.265  11.046 -1.4766  1.4782 -0.8471
  461MOL0     H62178   4.298   6.230  10.974  1.9381 -0.5598 -2.1009
  461MOL0     H62179   4.368   6.074  10.917 -4.3907 -0.4498 -1.5986
  461MOL0     H62180   4.310   5.964  11.119 -1.7897 -0.4082 -0.3526
  461MOL0     H62181   4.225   6.115  11.182  1.2222 -0.2632  1.2152
  461MOL0     H62182   4.078   5.932  11.128  2.1978 -0.9568 -0.5716
  461MOL0     H62183   4.146   5.913  10.959 -2.5304 -0.2232 -1.3556
  461MOL0     H62184   3.989   6.137  11.086  1.9522  1.5817 -0.2571
  461MOL0     H62185   4.072   6.166  10.929  2.9892 -0.3134  0.2859
  461MOL0     H62186   3.896   6.165  10.755 -2.1696  0.1314 -2.2086
  461MOL0     H62187   3.516   6.045  10.724 -2.3400  2.6371 -4.9231
  461MOL0     H62188   3.594   6.193  10.713 -4.9937 -0.5578 -3.0316
  461MOL0     H62189   3.683   5.953  10.547 -3.4464 -1.8038  2.0196
  461MOL0     H62190   3.551   6.057  10.500 -0.7070  0.7118 -0.2020
  461MOL0     H62191   3.831   6.152  10.538  0.7867  3.6281 -1.3869
  461MOL0     H62192   3.706   6.265  10.522  0.2487 -1.2649  1.6955
  461MOL0     H62193   3.835   6.100  10.305 -1.0549  1.1393 -2.3745
  461MOL0     H62194   3.774   6.267  10.292 -0.1838  1.0574  3.0685
  461MOL0     H62195   3.380   6.167  10.241 -0.3300 -0.0027 -0.7440
  461MOL0     H62196   3.279   6.276  10.053  0.7052  2.5136 -1.0642
  461MOL0     H62197   3.610   6.326   9.478  1.9384  1.1093 -0.5411
  461MOL0     H62198   3.549   6.431   9.253 -1.8872  2.2633 -0.4953
  461MOL0     H62199   3.475   6.591   9.073 -1.2187  0.7455  1.6210
  461MOL0     H62200   3.420   6.419   9.037 -2.4863 -1.3494  0.4041
  461MOL0     H62201   3.383   6.568   8.853  1.7130  3.7524  1.9136
  461MOL0     H62202   3.228   6.505   8.923 -0.5219 -0.6585  2.2845
  461MOL0     H62203   3.283   6.748   9.039 -1.5872  0.2267 -0.2623
  461MOL0     H62204   3.372   6.760   8.880 -0.9442  1.9736 -0.1271
  461MOL0     H62205   3.090   6.807   8.908 -0.3711  1.3211 -2.3278
  461MOL0     H62206   3.109   6.654   8.832  0.1482  0.3712 -2.2544
  461MOL0     H62207   3.239   6.734   8.639 -1.6404 -3.1832  2.6428
  461MOL0     H62208   3.248   6.899   8.702  0.3552 -0.4177 -0.6997
  461MOL0     H62209   2.986   6.759   8.650 -1.2374  0.6085 -0.4494
  461MOL0     H62210   2.999   6.915   8.712 -0.0738 -1.3524  0.1865
  461MOL0     H62211   3.080   6.802   8.444  1.4682  1.1538 -2.0823
  461MOL0     H62212   3.151   6.956   8.502 -1.6959  1.9185  1.0912
  461MOL0     H62213   2.874   6.860   8.443  2.2112 -1.5779  0.4162
  461MOL0     H62214   2.875   7.028   8.501 -0.8769 -1.4385  0.2003
  461MOL0     H62215   3.172   6.537   9.394  1.4742  5.1089  2.8213
  461MOL0     H62216   3.210   6.455   9.599 -0.0657  2.3721 -0.4444
  461MOL0     H62217   3.657   6.288   9.847 -2.9976 -3.5051 -2.4739
  461MOL0     H62218   3.758   6.203  10.067 -0.7453 -0.9833  4.1337
  461MOL0     H62219   4.921   6.183  10.801 -1.6675  0.2136  3.4133
  461MOL0     H62220   5.113   6.163  10.660 -3.9267  1.6699 -0.0205
  461MOL0     H62221   5.631   6.199  10.701 -2.1986 -0.0689  0.6995
  461MOL0     H62222   5.797   6.226  10.526 -1.1129  0.1280 -1.5660
  461MOL0     H62223   5.806   6.016  10.148  0.5338  1.7265  0.2097
  461MOL0     H62224   5.892   5.923  10.274 -1.9967 -2.3678  0.0292
  461MOL0     H62225   6.092   6.049  10.221  0.1514  1.1034  0.0942
  461MOL0     H62226   5.992   6.170  10.134 -1.6090 -0.6886 -0.6035
  461MOL0     H62227   5.940   5.975   9.978  0.1003 -1.4492  0.5834
  461MOL0     H62228   6.038   5.875  10.088  2.3654 -0.5773 -2.6786
  461MOL0     H62229   6.142   5.944   9.868 -0.9922  0.5049 -0.3218
  461MOL0     H62230   6.148   6.109   9.920 -0.4219 -0.1558  2.0471
  461MOL0     H62231   6.478   5.980  10.151 -0.6712  0.8519  2.9094
  461MOL0     H62232   5.638   5.926  10.281  1.2415 -0.9848  1.2033
  461MOL0     H62233   5.460   5.790  10.344  1.1602 -0.1947 -0.0644
  461MOL0     H62234   5.414   5.776  10.518 -3.3871 -1.2356 -1.3478
  461MOL0     H62235   5.326   5.880  10.423 -0.2614 -2.6457  1.9826
  462MOL0     O62236   7.768   2.625   3.329 -0.1230 -0.2828  0.9550
  462MOL0     C62237   7.785   2.558   3.224  0.2919 -0.0166  0.2710
  462MOL0     O62238   7.707   2.457   3.193 -0.9805  0.0341 -0.3300
  462MOL0     C62239   7.664   2.370   3.288  0.1700  0.8084  0.7105
  462MOL0     C62240   7.576   2.274   3.235 -1.0060 -0.1417 -0.5261
  462MOL0     C62241   7.527   2.162   3.310  0.3543  0.1679 -0.2087
  462MOL0     C62242   7.571   2.135   3.445 -0.0954  0.6751  0.1738
  462MOL0     O62243   7.519   2.045   3.530  0.1612  0.0748  0.2883
  462MOL0     C62244   7.392   1.997   3.493  0.6865 -0.1822  0.5605
  462MOL0     C62245   7.334   1.922   3.610  0.7183  0.6961 -0.2916
  462MOL0     C62246   7.184   1.895   3.573  0.2197 -0.6998 -0.2180
  462MOL0     C62247   7.174   1.797   3.460  0.0515 -0.6154 -0.3709
  462MOL0     C62248   7.035   1.731   3.455 -0.5856 -0.7088 -0.2358
  462MOL0     C62249   6.927   1.834   3.463  0.4714  0.0668  0.4082
  462MOL0     C62250   6.796   1.768   3.406  0.8152 -0.6506 -0.3448
  462MOL0     C62251   6.686   1.872   3.401 -0.0553  0.0063  0.0176
  462MOL0     N62252   6.702   1.958   3.288 -0.0254  0.6588  0.0580
  462MOL0     C62253   6.663   2.088   3.291  0.1190 -0.0660  0.5354
  462MOL0     C62254   6.665   2.128   3.164 -0.4898  0.7129  0.1013
  462MOL0     C62255   6.646   2.266   3.108 -0.0263  0.2429  0.1738
  462MOL0     C62256   6.780   2.335   3.062 -0.0863  0.0416  0.1689
  462MOL0     C62257   6.843   2.411   3.170 -0.5301 -0.5025 -0.8007
  462MOL0     C62258   6.773   2.550   3.214  0.2488 -0.6084  0.5679
  462MOL0     O62259   6.852   2.591   3.325 -0.8068 -0.3717 -0.4726
  462MOL0     C62260   6.972   2.653   3.310 -0.8202  0.3506  0.3078
  462MOL0     C62261   7.029   2.673   3.189  0.2912 -0.0126 -1.0501
  462MOL0     C62262   7.140   2.759   3.171  0.3318  1.4413  1.1240
  462MOL0     C62263   7.199   2.823   3.280  0.3023 -0.0040 -0.5209
  462MOL0     C62264   7.314   2.915   3.263  0.0345 -0.8532 -0.1032
  462MOL0     O62265   7.355   2.939   3.142 -0.2075 -0.1336 -0.0393
  462MOL0     C62266   7.475   3.008   3.113  0.6669 -0.2378  0.1784
  462MOL0     C62267   7.584   3.031   3.195  1.1659  0.0093 -0.4125
  462MOL0     C62268   7.712   3.075   3.142 -0.0336 -0.7920  0.1006
  462MOL0     C62269   7.721   3.107   3.012 -0.2161  0.8154 -0.2349
  462MOL0     O62270   7.840   3.148   2.970  0.3340 -0.1148 -0.5940
  462MOL0     C62271   7.868   3.285   2.931  0.3175  0.0978  0.4013
  462MOL0     C62272   7.996   3.333   2.996 -0.6321  0.6234  0.1986
  462MOL0     C62273   8.133   3.261   2.978  0.0909  0.6987  0.5722
  462MOL0     C62274   8.236   3.296   3.086  0.2504 -0.2918 -0.9700
  462MOL0     C62275   8.220   3.222   3.220  0.6205  0.6061  0.7529
  462MOL0     C62276   8.236   3.068   3.218  0.4980  0.2390  0.7474
  462MOL0     C62277   8.365   3.023   3.167 -0.1208  0.8201 -0.3534
  462MOL0     C62278   8.416   2.882   3.195 -0.1586 -0.5118 -0.0774
  462MOL0    Cl62279   8.292   2.778   3.130  0.3960  0.4415 -0.1528
  462MOL0     C62280   7.619   3.073   2.928  0.3840 -1.1100  0.8614
  462MOL0     C62281   7.494   3.030   2.978  0.2469  0.2162 -0.7403
  462MOL0     O62282   7.355   2.965   3.368 -0.1158  0.2431  0.0483
  462MOL0     C62283   7.154   2.782   3.411  0.5758  0.0794  0.3875
  462MOL0     C62284   7.038   2.708   3.418  0.3390 -0.0502 -0.3388
  462MOL0     N62285   6.717   2.029   3.086  0.1331 -0.1151  0.9660
  462MOL0     N62286   6.745   1.930   3.163 -0.1969  0.3143  1.1946
  462MOL0     C62287   7.669   2.229   3.487  0.3340 -0.7814 -0.3758
  462MOL0     C62288   7.713   2.346   3.421  0.0532  0.7807 -1.7272
  462MOL0     C62289   7.880   2.596   3.114  0.4374  0.3975 -0.0910
  462MOL0     C62290   7.898   2.724   3.070 -0.3972 -0.6179 -0.1162
  462MOL0     C62291   7.987   2.758   2.967  0.2155 -0.6195  0.4255
  462MOL0     C62292   8.049   2.660   2.898 -0.4341 -0.3962  0.6283
  462MOL0     O62293   8.138   2.688   2.788  0.2049 -0.0418  0.4945
  462MOL0     C62294   8.204   2.811   2.788 -0.2486 -0.2118 -0.1914
  462MOL0     C62295   8.346   2.795   2.721 -0.0020 -0.5919 -0.0894
  462MOL0     C62296   8.430   2.729   2.823 -0.0617 -0.9416 -0.0888
  462MOL0     C62297   8.563   2.682   2.762 -0.4904  0.0558  0.5415
  462MOL0     C62298   8.644   2.619   2.864  0.7211 -0.4400 -0.2431
  462MOL0     C62299   8.704   2.570   2.958  0.2935  0.3048 -0.4795
  462MOL0     C62300   8.038   2.527   2.940  0.9445 -0.1825 -0.3867
  462MOL0     C62301   7.954   2.499   3.045 -0.2413 -0.1762  0.0498
  462MOL0     C62302   7.950   2.351   3.077  0.8038 -0.0460 -0.2062
  462MOL0     H62303   7.546   2.283   3.131 -0.9327  2.1695 -0.4068
  462MOL0     H62304   7.462   2.095   3.254  2.5401 -0.0593 -2.7180
  462MOL0     H62305   7.332   2.085   3.468 -1.7959 -1.8609  0.1581
  462MOL0     H62306   7.396   1.934   3.403  0.0259 -0.9763  1.0681
  462MOL0     H62307   7.330   1.986   3.698 -0.3070 -1.2693  1.1566
  462MOL0     H62308   7.394   1.833   3.630  1.3218  0.5581 -2.4667
  462MOL0     H62309   7.121   1.983   3.558  0.5572 -0.4658 -0.2750
  462MOL0     H62310   7.127   1.853   3.656 -4.1411  2.2567 -1.3529
  462MOL0     H62311   7.200   1.849   3.368 -0.1501  0.1949  0.0214
  462MOL0     H62312   7.259   1.732   3.484  2.6996  2.8642  0.6616
  462MOL0     H62313   7.017   1.671   3.366  0.0611  0.0334 -0.8939
  462MOL0     H62314   7.025   1.659   3.536  1.5513  0.2093  0.9240
  462MOL0     H62315   6.912   1.875   3.563 -3.1268  1.4895 -0.5748
  462MOL0     H62316   6.958   1.923   3.406 -1.0782  1.6849  1.9536
  462MOL0     H62317   6.760   1.685   3.467 -2.1342  0.2228 -0.7296
  462MOL0     H62318   6.806   1.725   3.306 -1.4146  1.7989 -1.7683
  462MOL0     H62319   6.595   1.810   3.396  1.0917 -1.8187  0.5068
  462MOL0     H62320   6.669   1.924   3.496  0.2199  0.2933 -0.0907
  462MOL0     H62321   6.654   2.146   3.382  3.6150 -3.3866  3.3530
  462MOL0     H62322   6.583   2.277   3.019 -0.0946  2.5274  0.4639
  462MOL0     H62323   6.589   2.316   3.186  0.4652 -0.3851  0.9549
  462MOL0     H62324   6.845   2.262   3.014 -0.4545  0.0829 -0.4045
  462MOL0     H62325   6.765   2.410   2.984  2.4258 -0.2134 -0.6335
  462MOL0     H62326   6.943   2.426   3.128 -0.6207 -0.0202 -0.8427
  462MOL0     H62327   6.867   2.362   3.264  1.3195  0.2067 -0.8671
  462MOL0     H62328   6.671   2.527   3.245  0.6312 -1.7685  1.0165
  462MOL0     H62329   6.766   2.622   3.133  0.0557 -0.4671  0.7104
  462MOL0     H62330   6.971   2.641   3.103 -0.3533  0.2614 -0.7253
  462MOL0     H62331   7.165   2.782   3.068 -0.2826 -2.6547 -0.1278
  462MOL0     H62332   7.578   3.000   3.299  2.8022 -0.8132 -0.5245
  462MOL0     H62333   7.796   3.080   3.212 -0.1246 -0.4529  0.1858
  462MOL0     H62334   7.868   3.298   2.823  1.0609  2.7745  0.6451
  462MOL0     H62335   7.792   3.359   2.956 -0.4773  0.4437 -2.6861
  462MOL0     H62336   8.014   3.423   2.937  0.4941 -0.4994 -1.2479
  462MOL0     H62337   7.981   3.358   3.102  2.1644  4.3574 -0.1214
  462MOL0     H62338   8.111   3.154   2.972 -2.3039  1.1096  0.8170
  462MOL0     H62339   8.179   3.277   2.881  0.7429 -3.9181 -0.1379
  462MOL0     H62340   8.219   3.403   3.102 -0.9493 -0.5332 -0.5773
  462MOL0     H62341   8.333   3.273   3.041  0.3345  0.6142 -1.2716
  462MOL0     H62342   8.117   3.243   3.252  0.3259  0.1714  0.1187
  462MOL0     H62343   8.289   3.261   3.295 -0.2395 -0.5895  2.2230
  462MOL0     H62344   8.203   3.031   3.315 -0.0048  0.3570  0.6256
  462MOL0     H62345   8.160   3.030   3.148  1.5513  1.9546 -1.4630
  462MOL0     H62346   8.439   3.088   3.215 -0.3791  0.6227  0.3281
  462MOL0     H62347   8.377   3.033   3.059 -0.0600  1.4988 -0.2861
  462MOL0     H62348   8.513   2.852   3.156 -0.6386 -0.2055 -1.6144
  462MOL0     H62349   8.430   2.874   3.303  0.6350 -1.1346 -0.2229
  462MOL0     H62350   7.635   3.093   2.822  1.3233  1.7428  1.4510
  462MOL0     H62351   7.405   3.005   2.921 -0.4845  1.0148  0.0164
  462MOL0     H62352   7.205   2.832   3.493  0.3356 -0.5169  0.9116
  462MOL0     H62353   6.995   2.691   3.517  1.2709  0.0609  0.1018
  462MOL0     H62354   7.704   2.197   3.585  0.4794 -1.5027 -0.6573
  462MOL0     H62355   7.792   2.405   3.465 -1.8980  3.6928 -1.9048
  462MOL0     H62356   7.853   2.810   3.118  4.4280  1.8201  0.5810
  462MOL0     H62357   7.998   2.864   2.947  1.1291  0.0542  3.7460
  462MOL0     H62358   8.225   2.859   2.884 -1.1406 -1.2972  0.5763
  462MOL0     H62359   8.133   2.870   2.731 -0.6203 -1.6332 -1.2650
  462MOL0     H62360   8.388   2.894   2.703  0.3065 -0.6390  0.3485
  462MOL0     H62361   8.347   2.736   2.629  1.2402  0.2652 -0.6526
  462MOL0     H62362   8.383   2.641   2.869 -1.5323  1.1202  2.6406
  462MOL0     H62363   8.456   2.801   2.900 -2.7368  0.7279 -0.6031
  462MOL0     H62364   8.543   2.620   2.675 -0.4287 -2.4149  2.2013
  462MOL0     H62365   8.613   2.770   2.719 -1.0642 -0.2352 -0.7895
  462MOL0     H62366   8.758   2.546   3.048  1.2704 -0.9826 -1.3726
  462MOL0     H62367   8.084   2.448   2.882 -0.5896 -1.8310  0.5408
  462MOL0     H62368   8.042   2.314   3.030  1.2864  1.6334 -0.6692
  462MOL0     H62369   7.960   2.329   3.184 -4.6370 -2.4178  0.1063
  462MOL0     H62370   7.859   2.302   3.043 -0.1032  1.9207 -0.7758
  463MOL0     O62371   6.018  10.486   5.039 -0.7808  0.7158 -0.0156
  463MOL0     C62372   5.901  10.525   5.028  0.3557 -0.1272  0.2162
  463MOL0     O62373   5.863  10.645   4.977  0.0550  0.3636  0.3963
  463MOL0     C62374   5.966  10.714   4.917 -0.4065 -0.6325  0.7588
  463MOL0     C62375   5.998  10.843   4.976 -0.1191  0.5223  0.1539
  463MOL0     C62376   6.106  10.906   4.921 -0.1896  0.0785 -0.5952
  463MOL0     C62377   6.196  10.844   4.825  0.2833 -0.2338  0.0884
  463MOL0     O62378   6.322  10.904   4.810 -0.4972  0.0142  0.2889
  463MOL0     C62379   6.373  10.922   4.673  0.3226 -0.2424  0.3892
  463MOL0     C62380   6.499  11.002   4.675  0.4374 -0.2779 -0.2457
  463MOL0     C62381   6.596  10.955   4.572  0.9773  0.8481  0.4029
  463MOL0     C62382   6.737  11.021   4.577 -0.7344  0.5110  0.2715
  463MOL0     C62383   6.834  10.969   4.457 -0.3425 -0.7169 -0.2436
  463MOL0     C62384   6.826  11.053   4.323  0.3753 -1.1189  0.7757
  463MOL0     C62385   6.850  11.208   4.343 -0.0543 -0.1024 -0.1497
  463MOL0     C62386   6.988  11.245   4.386  1.2227 -0.1992 -0.9496
  463MOL0     N62387   6.997  11.380   4.439  0.0837  0.4748 -0.8022
  463MOL0     C62388   7.081  11.426   4.543 -0.3142  0.0628  0.5988
  463MOL0     C62389   7.031  11.545   4.571  0.1084 -1.2996  0.4737
  463MOL0     C62390   7.099  11.630   4.677 -0.4329  0.4784  0.5675
  463MOL0     C62391   7.102  11.778   4.658  0.4468 -0.4894 -0.4902
  463MOL0     C62392   7.166  11.842   4.775 -0.1284 -0.3514  0.5555
  463MOL0     C62393   7.163  11.996   4.752 -0.4353 -0.4551  0.1696
  463MOL0     O62394   7.231  12.081   4.843 -0.6367  0.3737 -0.4212
  463MOL0     C62395   7.366  12.103   4.835 -0.7919  0.3818 -0.4611
  463MOL0     C62396   7.454  12.045   4.736 -0.2022 -0.6773 -0.7043
  463MOL0     C62397   7.589  12.077   4.729 -0.9767 -0.0728  0.1404
  463MOL0     C62398   7.641  12.166   4.832  0.4804 -0.4487  1.2654
  463MOL0     C62399   7.788  12.199   4.830 -0.0416 -0.9437  0.2687
  463MOL0     O62400   7.848  12.286   4.908  0.2643  0.2782 -0.4197
  463MOL0     C62401   7.987  12.292   4.933 -0.4903  0.1257 -0.6173
  463MOL0     C62402   8.011  12.399   5.027 -0.8087 -0.4569  0.4151
  463MOL0     C62403   8.143  12.432   5.066  0.3586  0.1391 -0.0554
  463MOL0     C62404   8.252  12.352   5.025  0.5407 -0.2134 -0.4060
  463MOL0     O62405   8.375  12.393   5.080 -0.3154 -0.3531 -0.1939
  463MOL0     C62406   8.457  12.288   5.132 -0.6986  0.1329  0.1024
  463MOL0     C62407   8.577  12.328   5.208 -0.9042 -0.2978  0.0074
  463MOL0     C62408   8.674  12.205   5.242 -0.6857 -0.3694  0.6394
  463MOL0     C62409   8.586  12.110   5.323  0.1145  1.7121 -0.3980
  463MOL0     C62410   8.671  11.993   5.373 -0.1396  0.8387  0.3032
  463MOL0     C62411   8.594  11.871   5.431  0.4074  0.4009  0.4070
  463MOL0     C62412   8.665  11.780   5.531 -0.6911 -0.1435 -0.2815
  463MOL0     C62413   8.757  11.681   5.462  0.4782 -0.6020 -0.1037
  463MOL0    Cl62414   8.876  11.623   5.582  0.0095 -0.0598 -0.1597
  463MOL0     C62415   8.221  12.238   4.946 -0.4778 -0.4476  0.1284
  463MOL0     C62416   8.091  12.207   4.906 -0.4415  0.0857  0.4734
  463MOL0     O62417   7.849  12.128   4.751 -0.4779  0.5808  0.0933
  463MOL0     C62418   7.552  12.217   4.927  0.2753 -1.0162  0.8581
  463MOL0     C62419   7.416  12.183   4.925 -0.2575 -0.3161 -0.1757
  463MOL0     N62420   6.921  11.573   4.505  0.6139 -1.1465 -0.5646
  463MOL0     N62421   6.908  11.481   4.417  0.1320 -0.0782 -0.2575
  463MOL0     C62422   6.157  10.728   4.769 -0.4871 -0.6053  0.5763
  463MOL0     C62423   6.041  10.667   4.810  0.1710  0.8742  0.0917
  463MOL0     C62424   5.786  10.435   5.063  0.0904 -0.0316 -0.3243
  463MOL0     C62425   5.653  10.486   5.047 -0.8313 -1.0335  1.4522
  463MOL0     C62426   5.544  10.408   5.067  1.1223  0.7704 -0.6096
  463MOL0     C62427   5.546  10.276   5.101  0.4348 -0.3835 -0.6633
  463MOL0     O62428   5.439  10.206   5.137  0.4479  0.8490  0.3045
  463MOL0     C62429   5.305  10.254   5.116 -1.1110 -0.8239 -0.3145
  463MOL0     C62430   5.208  10.139   5.088 -0.4546  0.3992  0.8051
  463MOL0     C62431   5.071  10.185   5.029  0.5021  0.3652 -0.2459
  463MOL0     C62432   5.024  10.070   4.930  0.8811  0.0204  1.1031
  463MOL0     C62433   4.917  10.138   4.847  0.0217 -0.0587 -0.3290
  463MOL0     C62434   4.812  10.185   4.811 -0.2156  0.8011  0.8023
  463MOL0     C62435   5.674  10.216   5.121  0.3854 -0.4002 -0.4452
  463MOL0     C62436   5.794  10.290   5.097 -0.6795 -0.0649  0.5088
  463MOL0     C62437   5.915  10.210   5.116 -0.3060  0.5283  0.1838
  463MOL0     H62438   5.948  10.881   5.065  1.4529  2.7738  0.1730
  463MOL0     H62439   6.143  10.999   4.962  2.0450  0.5175 -3.2742
  463MOL0     H62440   6.389  10.820   4.638 -4.3602 -0.1913 -2.6708
  463MOL0     H62441   6.300  10.972   4.610  2.0058 -0.3908 -1.8035
  463MOL0     H62442   6.541  10.988   4.776  0.1207  0.3751 -0.0221
  463MOL0     H62443   6.471  11.108   4.670  0.3202 -0.3604 -1.5268
  463MOL0     H62444   6.555  10.981   4.474  0.8341 -1.8144 -0.3250
  463MOL0     H62445   6.604  10.846   4.564  1.0855  0.8697 -6.7522
  463MOL0     H62446   6.746  11.130   4.573  0.2834  0.4221 -0.3862
  463MOL0     H62447   6.784  10.988   4.671 -0.7599 -1.7948 -0.4527
  463MOL0     H62448   6.932  10.972   4.505 -1.0132  2.5926  1.2196
  463MOL0     H62449   6.804  10.867   4.433 -0.3020 -0.6442 -0.6159
  463MOL0     H62450   6.899  11.012   4.253  1.4563  0.2426  1.0686
  463MOL0     H62451   6.724  11.043   4.285  1.9690 -2.0409 -3.8204
  463MOL0     H62452   6.772  11.246   4.410  2.0184  2.1859  1.1538
  463MOL0     H62453   6.827  11.251   4.245 -2.9179  2.0996  1.3295
  463MOL0     H62454   7.018  11.161   4.449  0.2682 -1.4116 -2.0508
  463MOL0     H62455   7.056  11.235   4.300  2.3308  2.2183 -0.4235
  463MOL0     H62456   7.170  11.384   4.588 -1.5784  0.5039  3.7509
  463MOL0     H62457   7.064  11.598   4.776 -2.0670  2.2946  0.6331
  463MOL0     H62458   7.204  11.602   4.665 -1.7646 -4.9295 -1.7398
  463MOL0     H62459   7.155  11.801   4.565  2.0608  0.0923  0.5402
  463MOL0     H62460   7.005  11.828   4.645  0.1898 -0.0714  2.3333
  463MOL0     H62461   7.267  11.801   4.784  0.0193 -0.0984  0.0855
  463MOL0     H62462   7.106  11.826   4.865 -1.0924 -1.3557 -0.2427
  463MOL0     H62463   7.061  12.031   4.768 -0.5206 -0.0726 -1.1316
  463MOL0     H62464   7.187  12.006   4.646  2.8920 -0.2853  0.8222
  463MOL0     H62465   7.416  11.981   4.657 -2.3607  0.9016 -1.0361
  463MOL0     H62466   7.649  12.036   4.648  1.9589 -0.3452  2.2820
  463MOL0     H62467   7.936  12.476   5.043 -0.9141 -0.6061  0.6370
  463MOL0     H62468   8.168  12.520   5.124 -1.1038 -0.8045  2.1373
  463MOL0     H62469   8.391  12.215   5.179 -0.6397 -1.0694 -1.6133
  463MOL0     H62470   8.496  12.231   5.047 -0.1515  1.8674 -0.8605
  463MOL0     H62471   8.635  12.399   5.150 -0.2887  1.5999  2.7701
  463MOL0     H62472   8.534  12.378   5.296 -1.7254 -1.7303  0.4732
  463MOL0     H62473   8.715  12.156   5.153 -2.0085  0.4834 -0.4967
  463MOL0     H62474   8.761  12.242   5.297  0.7509 -0.9162 -1.1763
  463MOL0     H62475   8.515  12.064   5.253  0.2700  0.3869  0.2643
  463MOL0     H62476   8.525  12.157   5.401  0.3338  2.0788 -0.4455
  463MOL0     H62477   8.746  12.016   5.448  0.2574 -2.5164  1.0951
  463MOL0     H62478   8.733  11.956   5.290  0.0450 -0.3952  0.9672
  463MOL0     H62479   8.511  11.923   5.479  1.0146  1.9454 -0.1586
  463MOL0     H62480   8.553  11.808   5.352 -1.0212  0.1546  1.2991
  463MOL0     H62481   8.601  11.723   5.599  2.1982 -2.0139  1.0527
  463MOL0     H62482   8.724  11.838   5.603 -1.7374 -1.2495  1.5273
  463MOL0     H62483   8.707  11.594   5.418  1.1830  1.0811 -4.7529
  463MOL0     H62484   8.815  11.737   5.388  0.6271 -1.9253 -1.0193
  463MOL0     H62485   8.301  12.173   4.911 -0.0740  1.5149 -2.9357
  463MOL0     H62486   8.070  12.112   4.857  0.0730  0.1931  0.0422
  463MOL0     H62487   7.607  12.276   5.001 -0.3544  1.4403 -0.5447
  463MOL0     H62488   7.359  12.214   5.012 -2.6018 -0.4170 -1.6070
  463MOL0     H62489   6.210  10.686   4.684  0.0823  1.9897 -0.4601
  463MOL0     H62490   6.029  10.564   4.777 -0.1276  1.1617 -0.7125
  463MOL0     H62491   5.642  10.586   5.008  0.1143 -1.8431 -1.0809
  463MOL0     H62492   5.453  10.468   5.067 -0.1650 -1.0648 -0.3055
  463MOL0     H62493   5.308  10.320   5.028  2.3598  3.2395  2.4369
  463MOL0     H62494   5.266  10.319   5.195  2.5431  1.6241 -0.3036
  463MOL0     H62495   5.188  10.088   5.183  1.2649 -2.4388 -0.2436
  463MOL0     H62496   5.264  10.062   5.035 -0.3588 -0.2005  1.7408
  463MOL0     H62497   5.101  10.275   4.975  0.2355 -0.1365 -1.2617
  463MOL0     H62498   4.994  10.217   5.100 -0.1890  1.4604 -1.4471
  463MOL0     H62499   5.102  10.030   4.865  2.4009  3.5976  0.5071
  463MOL0     H62500   4.978   9.991   4.990  2.0575 -1.5617  0.0029
  463MOL0     H62501   4.720  10.229   4.778 -0.6470 -0.9481 -0.5095
  463MOL0     H62502   5.679  10.111   5.147 -0.4453 -0.1426  0.8611
  463MOL0     H62503   6.008  10.265   5.134 -0.2949 -0.0077  1.9406
  463MOL0     H62504   5.913  10.135   5.196  1.1462  1.9921  1.6822
  463MOL0     H62505   5.930  10.156   5.022 -2.2952  0.0178  0.1205
  464MOL0     O62506   6.229   2.683   9.467  0.1359 -0.5611 -0.1575
  464MOL0     C62507   6.153   2.614   9.545  0.9416 -0.8502 -0.4862
  464MOL0     O62508   6.185   2.493   9.589 -0.1365  0.6763 -0.3371
  464MOL0     C62509   6.252   2.413   9.497  0.1603 -0.1205  0.0162
  464MOL0     C62510   6.392   2.380   9.512  0.7934 -0.4748 -0.3640
  464MOL0     C62511   6.444   2.295   9.414  0.5469  0.0620 -0.6700
  464MOL0     C62512   6.379   2.252   9.303 -0.5061 -0.4401 -0.2253
  464MOL0     O62513   6.433   2.170   9.206 -0.3282  0.6807 -0.2256
  464MOL0     C62514   6.576   2.147   9.197 -0.3215 -0.1430 -0.3046
  464MOL0     C62515   6.630   2.208   9.071 -0.6812 -0.7107 -0.1624
  464MOL0     C62516   6.643   2.360   9.088  1.2763  0.3905  0.4423
  464MOL0     C62517   6.749   2.411   9.180  0.6954 -0.2270 -1.0714
  464MOL0     C62518   6.731   2.564   9.202  0.2130 -0.9201 -0.3915
  464MOL0     C62519   6.627   2.604   9.310  0.9213 -0.6433  0.3518
  464MOL0     C62520   6.611   2.756   9.311  0.0595 -0.6459 -0.3073
  464MOL0     C62521   6.568   2.796   9.450  0.3828  0.2855  0.1730
  464MOL0     N62522   6.519   2.932   9.446 -0.2067  0.2931  0.2158
  464MOL0     C62523   6.396   2.959   9.391  0.3050 -1.2840 -0.8392
  464MOL0     C62524   6.392   3.098   9.406 -0.0853 -0.1836  0.8314
  464MOL0     C62525   6.281   3.184   9.373  0.8353 -0.4006  0.0568
  464MOL0     C62526   6.179   3.169   9.490 -1.6261  0.2229  0.4020
  464MOL0     C62527   6.050   3.250   9.464 -0.9402  0.4256  1.5179
  464MOL0     C62528   5.951   3.229   9.567 -0.1133 -0.5993  0.4650
  464MOL0     O62529   6.015   3.255   9.691 -0.0774  0.6553  0.4958
  464MOL0     C62530   5.948   3.229   9.807 -0.0825 -1.0030 -0.4039
  464MOL0     C62531   5.820   3.164   9.815 -0.0734  0.2802  1.0277
  464MOL0     C62532   5.754   3.144   9.931 -0.6054  0.6676 -0.1392
  464MOL0     C62533   5.805   3.195  10.051  0.5612  0.6691 -0.0110
  464MOL0     C62534   5.717   3.189  10.169 -0.5932 -0.6360  0.2455
  464MOL0     O62535   5.638   3.075  10.166 -0.2707 -0.3526  0.8264
  464MOL0     C62536   5.523   3.055  10.238 -0.4050  0.6347 -0.5754
  464MOL0     C62537   5.418   2.987  10.176  0.3935  0.1592 -0.9784
  464MOL0     C62538   5.298   2.952  10.244 -0.4491 -0.6402 -0.4725
  464MOL0     C62539   5.284   2.968  10.385  0.0513  0.5032  0.4877
  464MOL0     O62540   5.153   2.938  10.436 -0.6073 -0.4285  0.4266
  464MOL0     C62541   5.130   2.959  10.572 -0.5727 -0.4122 -0.2925
  464MOL0     C62542   4.981   2.933  10.599 -0.4610  0.7983 -0.4124
  464MOL0     C62543   4.937   2.785  10.601  0.5756 -0.0737 -0.4628
  464MOL0     C62544   4.884   2.724  10.732 -0.1222  0.2713 -0.1221
  464MOL0     C62545   4.854   2.572  10.722 -0.1652 -0.2766  1.2720
  464MOL0     C62546   4.811   2.519  10.859 -0.8568  0.8417  0.0946
  464MOL0     C62547   4.790   2.359  10.859  0.6797 -0.2480  0.3133
  464MOL0     C62548   4.701   2.321  10.735 -0.1801 -0.1167 -0.5063
  464MOL0    Cl62549   4.649   2.152  10.760 -0.1645  0.1426  0.1317
  464MOL0     C62550   5.391   3.028  10.451  0.5567  0.5258 -0.3844
  464MOL0     C62551   5.511   3.067  10.376 -0.3132  1.1034 -0.3582
  464MOL0     O62552   5.705   3.285  10.244 -0.4725 -1.3039  0.0424
  464MOL0     C62553   5.926   3.264  10.051  0.4624  0.3328  0.4403
  464MOL0     C62554   5.997   3.286   9.929 -0.0243  0.5120  0.2343
  464MOL0     N62555   6.511   3.139   9.452 -0.2231 -0.8271 -0.1693
  464MOL0     N62556   6.589   3.043   9.475 -0.0585  0.2341 -0.5212
  464MOL0     C62557   6.247   2.290   9.278 -0.1469 -0.5854 -0.0451
  464MOL0     C62558   6.192   2.366   9.377  0.3361  0.2382  0.5998
  464MOL0     C62559   6.031   2.678   9.600  0.5281  0.6037 -0.0960
  464MOL0     C62560   5.983   2.647   9.726  0.1625 -0.0771  0.2260
  464MOL0     C62561   5.871   2.702   9.784 -0.1074 -0.4435 -1.1015
  464MOL0     C62562   5.788   2.786   9.710  0.2970  0.9225  0.6906
  464MOL0     O62563   5.668   2.831   9.746  0.4705  0.4634 -0.4389
  464MOL0     C62564   5.591   2.781   9.855 -0.7503 -0.5299 -0.5061
  464MOL0     C62565   5.534   2.643   9.823  0.1235 -0.9439  0.4891
  464MOL0     C62566   5.457   2.622   9.694 -0.3450  0.2912 -0.6353
  464MOL0     C62567   5.396   2.739   9.629 -0.4436  0.3636 -0.6905
  464MOL0     C62568   5.303   2.796   9.724 -0.4324  0.5898  0.7213
  464MOL0     C62569   5.234   2.843   9.811  0.7731  0.1401 -0.2402
  464MOL0     C62570   5.818   2.803   9.574  0.1368 -0.9076 -0.2778
  464MOL0     C62571   5.940   2.764   9.523  0.0567 -0.3095  0.0622
  464MOL0     C62572   5.944   2.799   9.378  0.1196 -1.1346  0.3579
  464MOL0     H62573   6.448   2.411   9.600 -0.6610 -0.9678  0.7601
  464MOL0     H62574   6.541   2.247   9.424  1.0832  1.0127 -1.1572
  464MOL0     H62575   6.636   2.172   9.286  0.7941  1.6856 -1.5008
  464MOL0     H62576   6.596   2.040   9.184 -3.1280 -1.0546  1.8158
  464MOL0     H62577   6.568   2.186   8.984  0.8670  2.3927 -2.2265
  464MOL0     H62578   6.735   2.183   9.055  0.5733  3.9235 -0.6996
  464MOL0     H62579   6.547   2.400   9.123 -0.1043 -2.0552 -0.2940
  464MOL0     H62580   6.670   2.406   8.992  0.2260  1.1838  0.5101
  464MOL0     H62581   6.749   2.372   9.282  2.3181  0.2539 -0.8532
  464MOL0     H62582   6.848   2.392   9.138 -0.3612  0.3130 -4.0695
  464MOL0     H62583   6.832   2.600   9.226  0.0908 -0.4742 -0.5341
  464MOL0     H62584   6.702   2.618   9.111 -0.1844 -2.6062 -1.3017
  464MOL0     H62585   6.527   2.561   9.299  0.8912 -0.5632  0.3163
  464MOL0     H62586   6.665   2.567   9.406  2.7799  3.3879  1.4116
  464MOL0     H62587   6.548   2.786   9.227 -0.8727 -1.6645  0.0038
  464MOL0     H62588   6.708   2.804   9.299  2.1053 -3.6111  2.6608
  464MOL0     H62589   6.490   2.723   9.474  1.1024  0.3549  3.0858
  464MOL0     H62590   6.647   2.780   9.524  2.6980 -2.8972 -2.6198
  464MOL0     H62591   6.325   2.888   9.351  0.9583 -0.3773 -3.8908
  464MOL0     H62592   6.296   3.287   9.341 -4.1000  0.3477 -0.5651
  464MOL0     H62593   6.229   3.119   9.301  2.1116  1.9138 -3.2064
  464MOL0     H62594   6.168   3.064   9.518 -0.9911  0.1934  0.5444
  464MOL0     H62595   6.226   3.210   9.580 -1.8267 -0.0011  0.6101
  464MOL0     H62596   6.005   3.215   9.371  0.4390 -1.8531  1.6478
  464MOL0     H62597   6.077   3.356   9.462  4.8636 -0.7182 -0.2112
  464MOL0     H62598   5.924   3.124   9.560 -1.0087 -0.3310 -0.2673
  464MOL0     H62599   5.864   3.294   9.552 -0.2799 -0.6551  1.1383
  464MOL0     H62600   5.772   3.139   9.720 -3.8340  2.7078  2.0615
  464MOL0     H62601   5.658   3.096   9.911 -0.3975  1.1068 -2.5030
  464MOL0     H62602   5.417   2.983  10.067  1.5800  0.6162 -1.0268
  464MOL0     H62603   5.222   2.915  10.175 -0.2824  0.3821 -1.2372
  464MOL0     H62604   5.208   2.913  10.633  0.6350  0.5769 -1.0194
  464MOL0     H62605   5.135   3.068  10.582 -1.1306 -0.2923 -1.2544
  464MOL0     H62606   4.948   2.981  10.692 -1.7265 -0.5034 -0.1688
  464MOL0     H62607   4.925   2.983  10.520  1.5453  0.7266 -1.9726
  464MOL0     H62608   4.860   2.761  10.528  1.7109  1.3737 -2.2394
  464MOL0     H62609   5.015   2.715  10.570  0.2819  0.0803 -1.5895
  464MOL0     H62610   4.790   2.770  10.765 -2.0908 -1.8228 -2.3483
  464MOL0     H62611   4.949   2.752  10.816  5.4274 -3.7463 -2.4606
  464MOL0     H62612   4.946   2.519  10.693 -0.7635 -0.3781 -0.4988
  464MOL0     H62613   4.771   2.560  10.653 -0.6207  3.0592  1.0608
  464MOL0     H62614   4.889   2.544  10.931  0.8336  2.9414 -2.2489
  464MOL0     H62615   4.719   2.571  10.887 -1.1949  1.1379 -1.4390
  464MOL0     H62616   4.736   2.322  10.947 -1.2370  2.3167  0.3427
  464MOL0     H62617   4.887   2.310  10.864  0.9115 -0.4662 -3.5647
  464MOL0     H62618   4.615   2.387  10.720 -0.9238 -1.2435 -1.2869
  464MOL0     H62619   4.750   2.334  10.638  1.5507  2.5404  0.5935
  464MOL0     H62620   5.377   3.051  10.556 -1.6516 -0.2162 -0.4667
  464MOL0     H62621   5.603   3.104  10.421  0.2873 -1.9858  1.2497
  464MOL0     H62622   5.942   3.313  10.147  1.0718 -0.8927  0.9834
  464MOL0     H62623   6.085   3.350   9.927  0.9795 -0.8264  0.5378
  464MOL0     H62624   6.203   2.259   9.184  3.9657 -0.5189 -2.2292
  464MOL0     H62625   6.093   2.406   9.356 -0.5321 -0.8402  2.3951
  464MOL0     H62626   6.041   2.573   9.781 -1.0870 -2.1624 -1.1327
  464MOL0     H62627   5.854   2.653   9.880  0.3783 -2.4284 -1.9761
  464MOL0     H62628   5.508   2.850   9.874  0.1907  0.5577 -0.2093
  464MOL0     H62629   5.632   2.779   9.956 -2.7061  0.5513  0.3675
  464MOL0     H62630   5.458   2.637   9.902  2.1169 -0.5327  2.5287
  464MOL0     H62631   5.607   2.563   9.840 -1.3930 -3.4382 -3.3104
  464MOL0     H62632   5.387   2.538   9.694  1.8539 -1.6463 -1.7452
  464MOL0     H62633   5.543   2.584   9.639  1.5169 -0.2160  2.3809
  464MOL0     H62634   5.478   2.806   9.603 -1.4676  2.7935  1.8116
  464MOL0     H62635   5.344   2.715   9.535 -0.0818  0.7861 -1.0009
  464MOL0     H62636   5.164   2.885   9.880  3.6355  2.4425  1.4851
  464MOL0     H62637   5.745   2.852   9.510 -0.0981  2.6735  2.3819
  464MOL0     H62638   5.854   2.777   9.320 -1.5505  0.2862  2.2575
  464MOL0     H62639   5.959   2.908   9.382  0.3256 -1.1771  0.8878
  464MOL0     H62640   6.040   2.761   9.343  1.1187  1.0265  0.6094
  465MOL0     O62641  11.322   2.184   4.685  0.3899  0.0504  0.4004
  465MOL0     C62642  11.345   2.272   4.765 -0.1049  0.4566 -1.0354
  465MOL0     O62643  11.267   2.379   4.787  0.2179 -0.7844 -0.0664
  465MOL0     C62644  11.141   2.387   4.731 -0.3238 -0.1319  0.3473
  465MOL0     C62645  11.023   2.398   4.810 -0.4072  0.4590  0.1553
  465MOL0     C62646  10.891   2.385   4.746 -0.3505 -0.0262 -0.7685
  465MOL0     C62647  10.887   2.390   4.607  1.1129 -0.1785 -0.4330
  465MOL0     O62648  10.767   2.393   4.543 -0.2662 -0.2833  0.4649
  465MOL0     C62649  10.769   2.373   4.395 -0.0195 -0.2852 -0.6537
  465MOL0     C62650  10.626   2.323   4.360  0.2928 -0.8283 -0.7169
  465MOL0     C62651  10.611   2.316   4.213 -1.0020  0.6541  0.4673
  465MOL0     C62652  10.518   2.192   4.164  0.2129  0.2156  0.0028
  465MOL0     C62653  10.593   2.068   4.110  0.5680  0.6277 -0.0557
  465MOL0     C62654  10.663   1.990   4.221 -0.9660  0.3635 -0.4678
  465MOL0     C62655  10.750   1.881   4.173 -0.4472 -0.1672 -0.4266
  465MOL0     C62656  10.858   1.914   4.071 -0.3069 -0.2048 -0.1464
  465MOL0     N62657  10.947   2.030   4.113 -0.5748 -0.2228  0.0665
  465MOL0     C62658  11.053   2.026   4.195  0.8460  0.3391  0.0446
  465MOL0     C62659  11.097   2.155   4.201 -0.4726  0.0888  0.5308
  465MOL0     C62660  11.215   2.196   4.280 -0.4295 -0.6180 -0.2720
  465MOL0     C62661  11.355   2.135   4.242 -0.2218  0.3956  0.6702
  465MOL0     C62662  11.466   2.216   4.316 -0.2723  0.5399 -0.3288
  465MOL0     C62663  11.589   2.122   4.328 -0.1842 -0.3258 -0.1457
  465MOL0     O62664  11.682   2.202   4.414 -1.0491  0.0920  0.0893
  465MOL0     C62665  11.779   2.284   4.356  0.2899  0.7698  0.2073
  465MOL0     C62666  11.870   2.234   4.261  0.8492 -0.2627 -0.2991
  465MOL0     C62667  11.971   2.316   4.217 -0.0087 -0.0186  0.3051
  465MOL0     C62668  11.965   2.453   4.243 -1.0611 -0.1707 -1.0301
  465MOL0     C62669  12.067   2.535   4.187 -0.3485 -0.7709  0.1931
  465MOL0     O62670  12.115   2.503   4.059 -0.1936 -0.2122 -0.3669
  465MOL0     C62671  12.231   2.559   4.016  0.4638  1.1240  0.7779
  465MOL0     C62672  12.251   2.545   3.877  0.3037 -1.2465  0.4556
  465MOL0     C62673  12.370   2.587   3.810  0.4765 -0.2569  0.7048
  465MOL0     C62674  12.486   2.624   3.884 -0.9972 -0.8469 -0.2732
  465MOL0     O62675  12.608   2.631   3.831 -0.2133  0.9159 -0.1232
  465MOL0     C62676  12.629   2.601   3.697  0.2872  0.1792 -0.2931
  465MOL0     C62677  12.777   2.572   3.671 -0.4028 -0.4236 -0.0324
  465MOL0     C62678  12.846   2.711   3.683  0.0362 -0.2705 -0.3939
  465MOL0     C62679  12.992   2.686   3.676 -0.1853 -0.1587 -0.1805
  465MOL0     C62680  13.067   2.819   3.660  0.0478  1.2077 -0.1840
  465MOL0     C62681  13.210   2.773   3.642  0.3372 -0.3698  1.0529
  465MOL0     C62682  13.316   2.890   3.657 -1.3046  0.5600 -0.2455
  465MOL0     C62683  13.297   3.001   3.565 -0.0167  0.0585 -0.0103
  465MOL0    Cl62684  13.171   3.131   3.594  0.1995 -0.1132 -0.0700
  465MOL0     C62685  12.467   2.643   4.026  0.4060 -0.8681  0.3206
  465MOL0     C62686  12.346   2.614   4.094 -0.4040  0.7014 -0.4862
  465MOL0     O62687  12.099   2.640   4.246  0.3623 -0.0765  0.6498
  465MOL0     C62688  11.864   2.510   4.319  1.2491  0.3712  0.5813
  465MOL0     C62689  11.784   2.419   4.388 -0.2104  0.8645 -0.0483
  465MOL0     N62690  11.023   2.228   4.109 -0.3164 -0.5116 -1.4029
  465MOL0     N62691  10.928   2.155   4.066 -0.5678 -0.6560  0.9241
  465MOL0     C62692  11.008   2.402   4.535  0.0306 -0.1165 -0.6454
  465MOL0     C62693  11.128   2.389   4.598 -0.4467  0.1860  1.0101
  465MOL0     C62694  11.484   2.263   4.831  0.5480 -0.4281 -0.9265
  465MOL0     C62695  11.526   2.147   4.896  0.4309 -0.0721  0.1534
  465MOL0     C62696  11.658   2.129   4.937 -0.5407  0.1614 -0.2758
  465MOL0     C62697  11.752   2.234   4.926  0.5198 -0.1438  0.8768
  465MOL0     O62698  11.888   2.222   4.950  0.4213  0.0119  0.2304
  465MOL0     C62699  11.942   2.092   4.977 -0.2069  0.2497 -0.4231
  465MOL0     C62700  12.090   2.092   4.982  0.5438 -0.1775 -0.2021
  465MOL0     C62701  12.136   2.179   5.097 -0.7464  0.5440  0.1484
  465MOL0     C62702  12.288   2.139   5.116 -0.1370 -0.0567  0.4057
  465MOL0     C62703  12.372   2.119   4.998 -0.3082  0.0388  0.2967
  465MOL0     C62704  12.438   2.101   4.898 -0.9545 -0.3397  0.2553
  465MOL0     C62705  11.711   2.348   4.856 -0.1751  0.7031  0.7930
  465MOL0     C62706  11.582   2.369   4.809  0.8485  0.8579  0.4926
  465MOL0     C62707  11.553   2.498   4.734  0.2181  0.4457  0.1906
  465MOL0     H62708  11.025   2.409   4.918  1.2528 -0.8813  0.3200
  465MOL0     H62709  10.805   2.389   4.813 -0.4295  1.6292 -0.9080
  465MOL0     H62710  10.795   2.469   4.349 -0.8182  0.2588 -0.0161
  465MOL0     H62711  10.842   2.307   4.349 -0.3194 -0.5485 -0.7586
  465MOL0     H62712  10.552   2.385   4.411  0.1717 -1.8155  0.3544
  465MOL0     H62713  10.602   2.228   4.410  1.5362 -0.1496  1.3065
  465MOL0     H62714  10.708   2.305   4.164 -1.3101  2.0947 -0.5221
  465MOL0     H62715  10.575   2.416   4.186 -1.8499  0.7183  1.7554
  465MOL0     H62716  10.449   2.160   4.242  0.4786  0.0594  0.1747
  465MOL0     H62717  10.443   2.216   4.087  0.3648  1.7801  0.3052
  465MOL0     H62718  10.521   1.996   4.072  1.2680 -0.1854  0.1278
  465MOL0     H62719  10.652   2.086   4.019  0.5539  2.3542  0.2406
  465MOL0     H62720  10.730   2.053   4.281  0.4517 -0.5683 -1.0152
  465MOL0     H62721  10.586   1.964   4.295 -1.3802 -0.6164 -1.2278
  465MOL0     H62722  10.687   1.810   4.119 -0.2934 -1.0626  0.5305
  465MOL0     H62723  10.796   1.826   4.256  1.2225  0.5393 -0.8281
  465MOL0     H62724  10.922   1.826   4.058  2.5571  1.8316 -0.5338
  465MOL0     H62725  10.804   1.930   3.977 -0.9999  1.4783  0.5032
  465MOL0     H62726  11.090   1.932   4.235  1.0108  0.7588  0.9190
  465MOL0     H62727  11.225   2.305   4.273 -2.0042 -0.5217 -1.9045
  465MOL0     H62728  11.194   2.159   4.381  0.9216  2.9544  1.4786
  465MOL0     H62729  11.366   2.027   4.257 -0.0411 -0.0237 -2.0492
  465MOL0     H62730  11.373   2.143   4.135  2.4925  2.4380  1.1671
  465MOL0     H62731  11.426   2.235   4.416 -0.1698 -0.2928 -0.1165
  465MOL0     H62732  11.500   2.304   4.261  0.8452  0.0199 -0.4947
  465MOL0     H62733  11.640   2.078   4.242  2.9184  1.6271  0.5381
  465MOL0     H62734  11.569   2.030   4.383 -2.0953 -2.5422 -4.1378
  465MOL0     H62735  11.861   2.129   4.238 -1.3370  0.1685 -1.7906
  465MOL0     H62736  12.038   2.266   4.148 -0.2280  0.3012 -0.1431
  465MOL0     H62737  12.172   2.498   3.819  0.3630 -0.6456 -0.1235
  465MOL0     H62738  12.372   2.579   3.702 -1.4906 -2.2500  0.7488
  465MOL0     H62739  12.560   2.524   3.662 -0.8379  0.3385  1.4372
  465MOL0     H62740  12.611   2.690   3.635  0.2012  0.5665  0.2773
  465MOL0     H62741  12.815   2.508   3.751  2.4388  0.7646 -0.3337
  465MOL0     H62742  12.789   2.535   3.569  1.5108  3.4101 -1.3955
  465MOL0     H62743  12.823   2.781   3.601 -0.8446 -0.0804 -0.0000
  465MOL0     H62744  12.827   2.766   3.776 -0.8282 -0.0173 -0.7050
  465MOL0     H62745  13.016   2.614   3.597 -0.0188  0.7255 -0.9591
  465MOL0     H62746  13.027   2.641   3.769 -2.5068 -2.1280 -0.1769
  465MOL0     H62747  13.063   2.889   3.744 -0.8809 -0.1680  0.9733
  465MOL0     H62748  13.033   2.864   3.567  2.4380  1.3346 -1.0765
  465MOL0     H62749  13.228   2.694   3.716  0.9299 -1.0581  0.1914
  465MOL0     H62750  13.234   2.727   3.546 -1.4351 -0.8603  0.8072
  465MOL0     H62751  13.413   2.844   3.637 -1.6970 -0.6981  0.6578
  465MOL0     H62752  13.323   2.940   3.754  0.6102  1.3801 -0.7659
  465MOL0     H62753  13.395   3.048   3.550 -0.5758  1.2678  0.0431
  465MOL0     H62754  13.280   2.956   3.467 -1.3074 -4.9216  2.1939
  465MOL0     H62755  12.556   2.673   4.081  0.0166 -0.0470  0.5117
  465MOL0     H62756  12.333   2.631   4.201 -0.7812  3.5158 -0.8893
  465MOL0     H62757  11.858   2.617   4.338 -0.2009 -0.1644  3.8834
  465MOL0     H62758  11.714   2.446   4.467  0.6547  1.8177  0.4201
  465MOL0     H62759  11.012   2.413   4.427  0.5005  1.4039 -0.4970
  465MOL0     H62760  11.217   2.394   4.535  1.3649  2.0885  3.4984
  465MOL0     H62761  11.460   2.067   4.927  1.7421 -0.6702  1.5036
  465MOL0     H62762  11.686   2.033   4.981 -3.6697 -0.2983  0.9214
  465MOL0     H62763  11.904   2.028   4.897  0.5525 -0.3837 -0.2888
  465MOL0     H62764  11.910   2.046   5.072 -1.6774 -0.5847 -1.2742
  465MOL0     H62765  12.136   2.124   4.888 -0.6287  2.4826  0.0236
  465MOL0     H62766  12.112   1.986   4.993 -0.6122 -0.3925  0.1678
  465MOL0     H62767  12.080   2.156   5.187 -0.3348 -0.8993  0.0529
  465MOL0     H62768  12.125   2.283   5.064 -0.1941 -0.0774 -2.2057
  465MOL0     H62769  12.344   2.213   5.175  2.5470 -1.5849 -0.0593
  465MOL0     H62770  12.295   2.042   5.165 -0.3059  0.2651  1.0960
  465MOL0     H62771  12.489   2.073   4.808 -2.0295  2.1267 -1.2285
  465MOL0     H62772  11.785   2.423   4.829  0.2628 -0.1631 -0.5159
  465MOL0     H62773  11.503   2.484   4.638  1.5868  0.6067 -0.5686
  465MOL0     H62774  11.493   2.558   4.802  0.3929 -0.9603  1.6424
  465MOL0     H62775  11.647   2.548   4.709 -0.2102 -0.2498 -3.3895
  466MOL0     O62776   8.520   6.185   0.007  0.4970 -0.1093  0.6374
  466MOL0     C62777   8.519   6.281   0.084  0.3212  0.2632  0.0806
  466MOL0     O62778   8.593   6.298   0.197 -0.2894 -0.5368  0.3852
  466MOL0     C62779   8.672   6.201   0.247  0.1040  0.6557  0.1986
  466MOL0     C62780   8.805   6.171   0.205  0.3994 -0.5280 -0.3578
  466MOL0     C62781   8.878   6.069   0.252 -0.0047  0.7678  0.2902
  466MOL0     C62782   8.829   5.994   0.359  0.1790 -0.0001  0.5218
  466MOL0     O62783   8.913   5.890   0.401  0.1091 -0.0767  0.1560
  466MOL0     C62784   8.855   5.796   0.489  0.4345 -0.0376 -0.1181
  466MOL0     C62785   8.943   5.667   0.484  0.5320 -0.0625  0.9048
  466MOL0     C62786   9.090   5.691   0.539 -0.0637 -0.1261  1.2108
  466MOL0     C62787   9.174   5.568   0.498  0.9328 -0.4503 -0.0011
  466MOL0     C62788   9.122   5.433   0.551  0.3781 -0.1221 -0.2907
  466MOL0     C62789   9.216   5.315   0.518  0.2754 -0.1671  0.7789
  466MOL0     C62790   9.194   5.172   0.576  0.3237  0.0308  0.1351
  466MOL0     C62791   9.059   5.103   0.543  0.3164 -0.2022 -0.0798
  466MOL0     N62792   9.039   4.991   0.637 -0.2216 -0.0690 -0.6165
  466MOL0     C62793   8.987   5.017   0.760 -0.5542 -0.0134 -0.5612
  466MOL0     C62794   8.991   4.894   0.824  0.8372  0.3210  0.5471
  466MOL0     C62795   8.972   4.879   0.967  0.5490  0.2292  0.1247
  466MOL0     C62796   9.086   4.791   1.022  0.7357 -0.6005 -0.1154
  466MOL0     C62797   9.073   4.768   1.169  0.1088 -0.0295  0.9172
  466MOL0     C62798   9.184   4.676   1.222 -0.4307 -0.5678 -0.2482
  466MOL0     O62799   9.314   4.732   1.189  0.7316  0.7379  0.4050
  466MOL0     C62800   9.365   4.824   1.277  0.0620  0.2384  0.5598
  466MOL0     C62801   9.307   4.871   1.396 -0.7320  0.3355 -0.2913
  466MOL0     C62802   9.381   4.939   1.487  0.4667 -0.5693  0.8541
  466MOL0     C62803   9.515   4.988   1.461  0.8776  0.4754  0.2239
  466MOL0     C62804   9.584   5.086   1.542 -0.5836  0.1679 -0.1776
  466MOL0     O62805   9.635   5.193   1.477  1.3544 -0.7988  0.1365
  466MOL0     C62806   9.711   5.293   1.528 -0.3291  0.0481 -0.0691
  466MOL0     C62807   9.742   5.400   1.441 -0.2907 -0.3770 -0.3479
  466MOL0     C62808   9.812   5.515   1.495  0.6074 -0.2515 -1.0944
  466MOL0     C62809   9.857   5.520   1.631  0.4253  0.0518 -0.4982
  466MOL0     O62810   9.944   5.620   1.660  0.8872 -1.2968 -0.1555
  466MOL0     C62811   9.898   5.714   1.763  0.6301 -0.2602  0.0576
  466MOL0     C62812  10.007   5.818   1.802  0.2114 -0.7343 -0.3377
  466MOL0     C62813  10.052   5.920   1.690  0.6379  0.4281  0.0606
  466MOL0     C62814   9.963   6.039   1.695 -0.0297  0.5556 -0.6330
  466MOL0     C62815  10.029   6.140   1.609  0.3069  0.0749  0.2564
  466MOL0     C62816   9.965   6.281   1.634  0.1887  0.0398 -1.4284
  466MOL0     C62817  10.018   6.338   1.764 -0.1412 -0.7354 -0.8612
  466MOL0     C62818   9.995   6.489   1.794  0.6612 -0.5723 -0.1297
  466MOL0    Cl62819  10.023   6.570   1.648 -0.2239 -0.4056  0.0464
  466MOL0     C62820   9.837   5.406   1.704  0.8697  0.5157  0.0376
  466MOL0     C62821   9.763   5.296   1.657 -0.1911 -0.3006  0.1008
  466MOL0     O62822   9.591   5.064   1.665  0.4131  0.1943  0.1811
  466MOL0     C62823   9.564   4.958   1.342 -0.9925 -0.4121 -0.0611
  466MOL0     C62824   9.499   4.874   1.253 -0.3244  0.5650 -0.8302
  466MOL0     N62825   9.050   4.799   0.743 -0.1832 -0.4300 -0.1779
  466MOL0     N62826   9.076   4.861   0.630 -1.0659 -0.3875  0.7595
  466MOL0     C62827   8.708   6.031   0.413 -0.4667 -0.6574 -1.1200
  466MOL0     C62828   8.629   6.134   0.357  0.2081  1.0468  0.7712
  466MOL0     C62829   8.430   6.393   0.051 -0.8500  0.5390  0.8325
  466MOL0     C62830   8.340   6.438   0.143  0.0277 -0.8278  0.2159
  466MOL0     C62831   8.257   6.542   0.103  0.4314  0.0554 -0.1356
  466MOL0     C62832   8.264   6.604  -0.019 -0.2262  0.6049 -1.0096
  466MOL0     O62833   8.190   6.719  -0.026 -1.0765  0.6071 -0.2117
  466MOL0     C62834   8.257   6.832  -0.064  0.6638 -0.6400  0.2606
  466MOL0     C62835   8.237   6.962   0.026  0.4552  0.2070 -0.0856
  466MOL0     C62836   8.269   6.940   0.179  0.2719  0.3610  0.0959
  466MOL0     C62837   8.258   7.058   0.271  0.1092 -0.8085  0.4611
  466MOL0     C62838   8.200   7.018   0.399  0.4222  0.6766 -0.4651
  466MOL0     C62839   8.152   6.979   0.506 -0.7590  0.7317  0.0963
  466MOL0     C62840   8.354   6.557  -0.114 -0.0481  0.1332 -0.2274
  466MOL0     C62841   8.434   6.449  -0.082 -0.5469 -0.1110 -0.9789
  466MOL0     C62842   8.531   6.396  -0.184  0.3003 -0.2566 -0.0490
  466MOL0     H62843   8.830   6.237   0.122 -0.0616 -0.3816 -0.3827
  466MOL0     H62844   8.963   6.039   0.193 -1.5935 -1.8375 -0.8503
  466MOL0     H62845   8.856   5.839   0.589  1.4641  3.7961 -1.6187
  466MOL0     H62846   8.749   5.789   0.464  0.5313  0.9344 -0.8239
  466MOL0     H62847   8.942   5.620   0.385 -0.8365  0.9668  0.4011
  466MOL0     H62848   8.886   5.602   0.551 -3.8914  3.5566  1.1022
  466MOL0     H62849   9.087   5.686   0.649 -4.9565 -1.7250  1.2838
  466MOL0     H62850   9.133   5.783   0.500  2.9993 -1.3408  1.4788
  466MOL0     H62851   9.191   5.557   0.391  1.9668 -0.6686  0.1780
  466MOL0     H62852   9.269   5.597   0.544 -0.5501  2.6764  1.3902
  466MOL0     H62853   9.111   5.438   0.660 -0.1238  1.0989 -0.3854
  466MOL0     H62854   9.026   5.410   0.504 -0.4211  1.8612  0.2828
  466MOL0     H62855   9.220   5.284   0.413 -2.8139 -3.7871  1.5247
  466MOL0     H62856   9.316   5.352   0.545  0.1860  0.2968  0.4839
  466MOL0     H62857   9.197   5.186   0.684  2.9032 -1.4372  0.3404
  466MOL0     H62858   9.282   5.108   0.563 -1.3454 -2.0275 -2.1242
  466MOL0     H62859   8.972   5.169   0.534  0.5806  0.0968 -0.4515
  466MOL0     H62860   9.065   5.059   0.443  1.1170 -0.5734  0.1241
  466MOL0     H62861   8.961   5.114   0.799 -0.8000 -1.0146  1.9970
  466MOL0     H62862   8.975   4.968   1.031  1.6779 -0.2931  0.8170
  466MOL0     H62863   8.873   4.840   0.993  1.2849 -0.8260  1.4857
  466MOL0     H62864   9.086   4.689   0.983  0.0190  0.3921 -2.9695
  466MOL0     H62865   9.180   4.847   1.012  0.5587  1.0626  4.8605
  466MOL0     H62866   8.980   4.714   1.190  0.8531 -0.8808  2.1160
  466MOL0     H62867   9.075   4.864   1.222  2.0096  0.4000  0.1573
  466MOL0     H62868   9.172   4.576   1.179 -0.4802 -2.7208  4.1994
  466MOL0     H62869   9.169   4.670   1.330 -0.9504 -0.0129 -0.2859
  466MOL0     H62870   9.202   4.852   1.418 -1.0693  0.4832 -1.6795
  466MOL0     H62871   9.328   4.961   1.580  1.0604  0.9693  0.8673
  466MOL0     H62872   9.702   5.393   1.341  0.9579  1.1026 -0.9826
  466MOL0     H62873   9.823   5.609   1.442 -1.8481  2.4950  2.7099
  466MOL0     H62874   9.812   5.773   1.731 -0.8664  1.1268  5.5532
  466MOL0     H62875   9.849   5.659   1.843 -2.6703 -2.3096 -3.0773
  466MOL0     H62876   9.964   5.881   1.881  0.3699  1.0226 -1.6069
  466MOL0     H62877  10.092   5.763   1.845 -1.0861 -3.1218 -0.6332
  466MOL0     H62878  10.155   5.945   1.716  0.5458  0.7001  0.1612
  466MOL0     H62879  10.042   5.863   1.596  0.3143 -3.4928  2.2574
  466MOL0     H62880   9.952   6.068   1.800 -0.8837  1.7395 -1.0371
  466MOL0     H62881   9.863   6.021   1.655  0.7758 -1.0582 -2.0460
  466MOL0     H62882  10.042   6.114   1.504  0.9927  0.9400  0.1187
  466MOL0     H62883  10.132   6.143   1.645 -0.6804  0.0621  3.3469
  466MOL0     H62884   9.977   6.340   1.543 -5.0575  1.1268 -1.7281
  466MOL0     H62885   9.856   6.277   1.640  0.0071  1.9707 -2.7379
  466MOL0     H62886  10.127   6.328   1.770 -0.0999  0.2015  0.6731
  466MOL0     H62887   9.973   6.275   1.842 -3.2141  0.3692 -1.5995
  466MOL0     H62888   9.887   6.498   1.811  0.2441 -1.6251 -2.0234
  466MOL0     H62889  10.054   6.528   1.877 -0.6494  1.0288  0.1144
  466MOL0     H62890   9.880   5.390   1.803 -0.4618  1.5266  0.8060
  466MOL0     H62891   9.738   5.218   1.729 -2.5408 -1.3414 -1.7370
  466MOL0     H62892   9.650   5.011   1.302 -0.7589 -2.5301 -2.6131
  466MOL0     H62893   9.542   4.860   1.155 -0.2484  1.4173 -0.9326
  466MOL0     H62894   8.670   5.993   0.508  2.0653  0.9111  0.6612
  466MOL0     H62895   8.537   6.167   0.405 -0.7023  3.5473 -2.3257
  466MOL0     H62896   8.337   6.404   0.246 -4.5052  0.3082  0.6991
  466MOL0     H62897   8.202   6.582   0.188 -4.1729 -0.2502 -2.6462
  466MOL0     H62898   8.225   6.860  -0.165 -0.1916 -0.8700  0.4587
  466MOL0     H62899   8.363   6.806  -0.070  0.3621 -1.9801 -6.0204
  466MOL0     H62900   8.131   6.984   0.008  0.3114  0.3453  0.8335
  466MOL0     H62901   8.290   7.044  -0.023 -0.4246  1.0980  0.3858
  466MOL0     H62902   8.374   6.909   0.186 -0.5571 -2.7056  0.2507
  466MOL0     H62903   8.204   6.860   0.215  2.9138 -1.6472  0.7314
  466MOL0     H62904   8.359   7.090   0.297  0.7440 -2.5238  0.2431
  466MOL0     H62905   8.213   7.147   0.226  1.6187 -0.2250  0.0414
  466MOL0     H62906   8.083   6.947   0.581 -2.8179  2.9745 -0.7110
  466MOL0     H62907   8.346   6.605  -0.211 -0.4630 -0.7048 -0.6232
  466MOL0     H62908   8.552   6.471  -0.261 -1.4923 -0.5880 -0.8969
  466MOL0     H62909   8.627   6.372  -0.136  0.5514  0.1828 -0.3237
  466MOL0     H62910   8.487   6.303  -0.219 -2.2701  1.3708 -1.4633
  467MOL0     O62911  10.526   2.329   8.024 -0.1011  0.0281 -0.0428
  467MOL0     C62912  10.499   2.440   8.066  0.1864 -0.7293  0.8114
  467MOL0     O62913  10.498   2.465   8.200  0.3011 -0.3830  0.1398
  467MOL0     C62914  10.552   2.370   8.272 -1.0837  0.5553 -1.6836
  467MOL0     C62915  10.507   2.233   8.287  1.1005 -0.6029  0.1139
  467MOL0     C62916  10.547   2.143   8.380 -0.1298 -0.3183 -0.3895
  467MOL0     C62917  10.644   2.178   8.463 -0.0069  0.3152 -0.4174
  467MOL0     O62918  10.689   2.080   8.551 -0.0709 -0.9590 -0.0017
  467MOL0     C62919  10.756   2.121   8.671  1.0157  0.2825  0.5941
  467MOL0     C62920  10.809   1.995   8.747 -0.3535 -0.3782  0.1718
  467MOL0     C62921  10.903   1.916   8.653  0.1967 -0.1429 -0.5695
  467MOL0     C62922  10.995   1.810   8.727  0.7095 -1.3969 -0.6490
  467MOL0     C62923  11.060   1.716   8.620  0.1616 -0.0674 -0.4826
  467MOL0     C62924  11.126   1.598   8.686  0.4596  0.5089 -0.3998
  467MOL0     C62925  11.182   1.502   8.582 -0.3682 -0.2347  0.8300
  467MOL0     C62926  11.292   1.550   8.482 -0.4541 -0.4008 -0.0337
  467MOL0     N62927  11.318   1.458   8.367  0.9912 -0.1269 -0.0605
  467MOL0     C62928  11.378   1.484   8.246  0.3389 -0.6285 -0.1052
  467MOL0     C62929  11.402   1.366   8.192 -0.5356  0.2804  0.4806
  467MOL0     C62930  11.486   1.324   8.067  0.2467  0.1980  1.2313
  467MOL0     C62931  11.398   1.290   7.944 -0.5583  0.4380  0.9003
  467MOL0     C62932  11.491   1.218   7.838 -0.1520  0.0259 -0.8644
  467MOL0     C62933  11.580   1.328   7.780 -1.1702 -0.3439 -0.1745
  467MOL0     O62934  11.660   1.267   7.676  0.4593  0.1290 -0.0672
  467MOL0     C62935  11.599   1.221   7.564 -0.6190  0.5962  0.5214
  467MOL0     C62936  11.460   1.248   7.526 -0.7957 -0.2710 -0.9453
  467MOL0     C62937  11.411   1.205   7.407 -0.3436  0.1200  0.2689
  467MOL0     C62938  11.491   1.111   7.332  0.0692 -0.0623 -0.3092
  467MOL0     C62939  11.432   1.051   7.206 -0.4352  0.3208  0.1898
  467MOL0     O62940  11.516   0.970   7.141  0.6073 -0.1989 -0.5373
  467MOL0     C62941  11.484   0.903   7.019  0.5728 -0.2941 -0.1573
  467MOL0     C62942  11.569   0.802   6.988 -0.0958  0.0320  0.4545
  467MOL0     C62943  11.564   0.726   6.876 -0.0268  0.7437  0.4188
  467MOL0     C62944  11.464   0.759   6.776 -1.2649  0.3736 -1.2388
  467MOL0     O62945  11.455   0.689   6.656 -0.4780 -0.6159 -0.6994
  467MOL0     C62946  11.409   0.559   6.679 -0.3569  0.3634 -0.0569
  467MOL0     C62947  11.417   0.477   6.550 -1.0534 -0.0173 -0.2614
  467MOL0     C62948  11.317   0.534   6.450 -0.0613  0.3263  0.5581
  467MOL0     C62949  11.301   0.450   6.323 -0.2412 -0.7179 -0.1881
  467MOL0     C62950  11.212   0.327   6.338  0.7738 -0.1618  0.0559
  467MOL0     C62951  11.190   0.273   6.193  0.5784  0.8356  0.4049
  467MOL0     C62952  11.080   0.169   6.199 -0.5934 -0.1360  0.5176
  467MOL0     C62953  11.028   0.121   6.074  0.1906 -0.1451  0.2364
  467MOL0    Cl62954  10.908  -0.005   6.090 -0.4659 -0.1819 -0.4211
  467MOL0     C62955  11.381   0.865   6.805 -0.2325  0.6247  0.8943
  467MOL0     C62956  11.381   0.928   6.926 -0.3894 -0.1442 -0.3444
  467MOL0     O62957  11.328   1.089   7.159  0.4311 -0.0410  0.0045
  467MOL0     C62958  11.614   1.081   7.367 -0.5429  0.4142 -0.8391
  467MOL0     C62959  11.668   1.137   7.480 -0.2324  0.2402  0.2561
  467MOL0     N62960  11.327   1.273   8.266 -0.2968 -0.3055 -0.3442
  467MOL0     N62961  11.281   1.326   8.374  0.0582 -0.5262 -0.0222
  467MOL0     C62962  10.695   2.309   8.455 -0.3466 -0.9264 -0.1767
  467MOL0     C62963  10.656   2.406   8.366  0.0077  0.1346  0.9268
  467MOL0     C62964  10.455   2.558   7.979 -0.0639 -0.2825 -0.0511
  467MOL0     C62965  10.425   2.683   8.044  0.9628 -0.1223  0.1665
  467MOL0     C62966  10.391   2.808   7.968 -0.4229  0.9473 -0.1828
  467MOL0     C62967  10.391   2.801   7.830  0.1470  0.0984 -0.0227
  467MOL0     O62968  10.372   2.920   7.771  0.3011  0.0995 -0.0963
  467MOL0     C62969  10.384   2.932   7.628 -0.3187 -0.1730 -0.1690
  467MOL0     C62970  10.360   3.083   7.592  0.1222 -0.1927 -0.2703
  467MOL0     C62971  10.454   3.188   7.661  0.3671  0.2022  0.3212
  467MOL0     C62972  10.493   3.313   7.587  0.0549  0.0464 -0.1803
  467MOL0     C62973  10.574   3.274   7.469  0.9915  0.0750  0.2959
  467MOL0     C62974  10.656   3.241   7.384  0.4568  0.5248  0.4056
  467MOL0     C62975  10.402   2.680   7.766 -0.6942  0.2802 -0.6376
  467MOL0     C62976  10.451   2.562   7.839  0.6392 -0.3354  0.3074
  467MOL0     C62977  10.487   2.444   7.752 -0.2756  0.3002  0.4365
  467MOL0     H62978  10.418   2.212   8.229  0.3662  0.0064  0.9783
  467MOL0     H62979  10.504   2.044   8.372 -0.8515  0.1154 -2.5844
  467MOL0     H62980  10.819   2.211   8.671 -0.2362  1.2009 -0.5760
  467MOL0     H62981  10.675   2.162   8.731  1.7975 -0.0252  1.9166
  467MOL0     H62982  10.720   1.938   8.776  0.1105 -1.9617 -1.3717
  467MOL0     H62983  10.869   2.020   8.835  0.3686 -0.4385 -0.2919
  467MOL0     H62984  10.967   1.977   8.588  2.5425 -2.9860 -1.1571
  467MOL0     H62985  10.847   1.861   8.577 -0.4470 -0.8348  0.3805
  467MOL0     H62986  11.080   1.862   8.772 -0.6479  0.9868 -0.6488
  467MOL0     H62987  10.946   1.751   8.805  3.2816  0.7895  2.9112
  467MOL0     H62988  10.986   1.679   8.548  0.9273  3.3840 -3.3379
  467MOL0     H62989  11.122   1.782   8.558 -0.3812 -0.9168 -1.9995
  467MOL0     H62990  11.202   1.629   8.759 -0.6285 -0.6012  1.2782
  467MOL0     H62991  11.059   1.529   8.740 -0.1509 -0.0745 -1.8609
  467MOL0     H62992  11.101   1.460   8.521  0.0546  1.6432 -1.1720
  467MOL0     H62993  11.220   1.414   8.636 -0.9692 -1.8661 -1.2536
  467MOL0     H62994  11.266   1.643   8.430  0.2942  0.1435  0.5314
  467MOL0     H62995  11.380   1.574   8.543 -0.8445 -0.6052  0.6260
  467MOL0     H62996  11.401   1.580   8.201  1.2811 -1.2180 -0.9209
  467MOL0     H62997  11.554   1.409   8.056 -0.6636  0.7940 -0.1260
  467MOL0     H62998  11.549   1.243   8.104  5.2719  2.8640 -0.4920
  467MOL0     H62999  11.322   1.212   7.961 -0.1564 -1.0711 -2.9726
  467MOL0     H63000  11.346   1.381   7.915 -0.8956  0.0124  0.1260
  467MOL0     H63001  11.433   1.157   7.768 -1.9851  2.0435 -1.1979
  467MOL0     H63002  11.538   1.137   7.894 -4.4482 -1.1448  1.5324
  467MOL0     H63003  11.652   1.373   7.848 -0.7037  0.3506 -1.1149
  467MOL0     H63004  11.511   1.409   7.754 -2.0048  0.0988  3.0853
  467MOL0     H63005  11.398   1.300   7.599  1.6175  1.6185 -0.1044
  467MOL0     H63006  11.310   1.230   7.376  0.0131 -1.1569 -2.1360
  467MOL0     H63007  11.644   0.789   7.065 -0.2288  0.3478  0.6393
  467MOL0     H63008  11.639   0.650   6.857 -2.1356 -1.2700 -0.3453
  467MOL0     H63009  11.464   0.497   6.751  0.0942  0.9263  0.0992
  467MOL0     H63010  11.306   0.575   6.711 -0.5547  0.2524 -0.6380
  467MOL0     H63011  11.520   0.484   6.512 -0.7999 -2.1405 -0.0539
  467MOL0     H63012  11.378   0.376   6.563  1.1143 -0.7521  1.1191
  467MOL0     H63013  11.214   0.537   6.487 -1.0743 -3.5600 -1.4133
  467MOL0     H63014  11.347   0.636   6.426  1.2392 -0.5096 -1.7310
  467MOL0     H63015  11.396   0.420   6.278 -0.2705  0.7103 -1.2889
  467MOL0     H63016  11.256   0.524   6.256 -0.4597 -2.2251 -1.7573
  467MOL0     H63017  11.115   0.352   6.383 -0.1826 -1.2632 -1.2995
  467MOL0     H63018  11.256   0.250   6.402 -2.2747 -1.4293  0.7970
  467MOL0     H63019  11.150   0.349   6.126 -0.8305 -1.2882 -1.2639
  467MOL0     H63020  11.273   0.221   6.145  0.7546  2.0548 -0.6527
  467MOL0     H63021  10.994   0.206   6.256 -0.1791  2.2616 -0.2995
  467MOL0     H63022  11.125   0.076   6.236  0.1134 -0.7791 -1.8146
  467MOL0     H63023  10.962   0.201   6.041 -1.7156 -1.5289  0.5267
  467MOL0     H63024  11.109   0.089   6.008 -1.1487 -0.1135 -1.4984
  467MOL0     H63025  11.305   0.888   6.731  0.3465 -2.2454 -0.7575
  467MOL0     H63026  11.300   0.996   6.949 -0.5075 -0.8193  1.4376
  467MOL0     H63027  11.674   1.001   7.323  0.8741  0.7705  0.3414
  467MOL0     H63028  11.772   1.123   7.508 -0.2269  2.9845  1.9358
  467MOL0     H63029  10.776   2.330   8.524  0.5415 -1.1528 -1.1277
  467MOL0     H63030  10.692   2.509   8.361  2.4186 -0.5804  2.1199
  467MOL0     H63031  10.446   2.709   8.148 -2.8940  3.5529  0.2922
  467MOL0     H63032  10.372   2.899   8.024 -0.2094  3.2527 -3.5480
  467MOL0     H63033  10.316   2.865   7.576 -4.1072 -0.1982  4.1179
  467MOL0     H63034  10.486   2.909   7.597 -0.2615  0.5568 -0.5482
  467MOL0     H63035  10.257   3.105   7.623 -0.0649 -3.4959  1.9236
  467MOL0     H63036  10.369   3.095   7.484  1.3052 -1.2923 -0.3174
  467MOL0     H63037  10.546   3.130   7.676 -0.4340 -0.8419  1.3230
  467MOL0     H63038  10.417   3.210   7.761 -0.1746 -2.3954  0.7697
  467MOL0     H63039  10.410   3.367   7.543 -0.5753 -1.6085 -1.1182
  467MOL0     H63040  10.567   3.376   7.639 -2.3401  0.9768  2.3464
  467MOL0     H63041  10.735   3.210   7.319 -1.5459  0.7080 -2.3392
  467MOL0     H63042  10.402   2.667   7.659 -0.8323  0.4542 -0.6590
  467MOL0     H63043  10.419   2.410   7.673  0.7702 -0.8437 -0.0101
  467MOL0     H63044  10.590   2.467   7.725 -0.0925  2.2218  2.5051
  467MOL0     H63045  10.498   2.350   7.807 -3.0229  1.9850  4.3276
  468MOL0     O63046   6.727   6.087   3.959 -0.1427  0.1311 -0.1826
  468MOL0     C63047   6.767   6.051   3.850  0.8989 -0.3053  0.3082
  468MOL0     O63048   6.871   5.956   3.829  0.9359  0.1649  0.4246
  468MOL0     C63049   6.884   5.868   3.930  0.0973 -0.2970 -0.4378
  468MOL0     C63050   6.856   5.733   3.908  0.3989 -0.3581 -0.4669
  468MOL0     C63051   6.890   5.640   4.004 -0.0486 -0.5087  0.4251
  468MOL0     C63052   6.944   5.678   4.130 -0.0486  0.9501  0.4115
  468MOL0     O63053   6.981   5.590   4.222  0.5333 -0.1987  0.0033
  468MOL0     C63054   6.899   5.591   4.337  0.2943 -0.9125 -0.4094
  468MOL0     C63055   6.985   5.606   4.466  0.0532  1.6400  0.3122
  468MOL0     C63056   7.076   5.484   4.483  0.2752  0.5362 -0.1092
  468MOL0     C63057   7.152   5.515   4.615  0.4310 -0.3111  0.9833
  468MOL0     C63058   7.218   5.379   4.658  0.3318 -0.0006  0.0926
  468MOL0     C63059   7.258   5.375   4.809  0.1721  0.1988  0.4596
  468MOL0     C63060   7.334   5.248   4.831  0.0495  1.0727 -0.0879
  468MOL0     C63061   7.333   5.188   4.969 -0.2729 -0.7831  0.7823
  468MOL0     N63062   7.413   5.272   5.060 -0.3980  0.3849 -0.0181
  468MOL0     C63063   7.364   5.389   5.109 -0.5541  0.0725  0.1189
  468MOL0     C63064   7.454   5.432   5.198  0.0243  0.1404 -0.0805
  468MOL0     C63065   7.474   5.566   5.258 -0.6325  0.6242  0.4117
  468MOL0     C63066   7.377   5.670   5.198  0.6238 -0.5302 -0.7270
  468MOL0     C63067   7.413   5.727   5.061 -0.1366  0.3435  0.1348
  468MOL0     C63068   7.298   5.820   5.017 -0.0670 -0.5180 -0.5440
  468MOL0     O63069   7.197   5.736   4.970  0.0183 -0.0674 -0.6535
  468MOL0     C63070   7.076   5.780   4.916 -1.4707 -0.1574  0.2113
  468MOL0     C63071   6.958   5.783   4.980 -0.0656  0.7680  0.7407
  468MOL0     C63072   6.836   5.801   4.908 -0.5944 -0.6400  0.1017
  468MOL0     C63073   6.841   5.818   4.770 -0.8256 -0.3403  0.2603
  468MOL0     C63074   6.716   5.820   4.692 -0.7918  0.7611  0.2210
  468MOL0     O63075   6.731   5.857   4.566  0.1811  0.4415  0.8534
  468MOL0     C63076   6.635   5.930   4.502 -0.5637 -0.4609 -0.3229
  468MOL0     C63077   6.650   5.945   4.362  0.4662  0.4116  0.0725
  468MOL0     C63078   6.560   6.014   4.283 -0.1546 -0.2521 -0.9443
  468MOL0     C63079   6.451   6.074   4.347  1.0659 -0.1716  0.1498
  468MOL0     O63080   6.353   6.141   4.274  0.6089  0.1500 -0.1907
  468MOL0     C63081   6.386   6.217   4.164 -0.2943 -0.7354  0.6500
  468MOL0     C63082   6.266   6.263   4.082 -0.6497  0.1094 -0.1130
  468MOL0     C63083   6.156   6.161   4.054 -0.5670 -0.3152 -0.4170
  468MOL0     C63084   6.205   6.030   3.991  0.3514 -0.5794  0.0644
  468MOL0     C63085   6.235   6.057   3.850  0.1675  0.5158  0.3134
  468MOL0     C63086   6.294   5.933   3.775  0.1284  0.0068  0.1515
  468MOL0     C63087   6.388   5.848   3.862 -0.5759 -0.0820  0.9247
  468MOL0     C63088   6.498   5.769   3.784 -0.1996  0.1013 -0.2953
  468MOL0    Cl63089   6.420   5.625   3.694 -0.0031 -0.1208  0.2330
  468MOL0     C63090   6.443   6.086   4.485  0.1632  0.0755 -0.0042
  468MOL0     C63091   6.536   6.011   4.564  0.1638  0.0268  0.0475
  468MOL0     O63092   6.602   5.801   4.753 -0.5591 -0.2220  0.7361
  468MOL0     C63093   6.970   5.837   4.715 -0.7258  0.2949  1.3308
  468MOL0     C63094   7.082   5.816   4.785 -0.5500 -0.3337 -0.5866
  468MOL0     N63095   7.558   5.344   5.190  0.1104 -0.5482  0.1678
  468MOL0     N63096   7.532   5.238   5.119 -0.2887 -0.0116 -0.1489
  468MOL0     C63097   6.988   5.810   4.147  0.4530 -0.1663 -0.0648
  468MOL0     C63098   6.957   5.902   4.043  0.0792 -0.6669 -0.1824
  468MOL0     C63099   6.691   6.123   3.741 -0.3072  0.1708  0.0689
  468MOL0     C63100   6.590   6.215   3.777  0.1671  0.3780  0.9155
  468MOL0     C63101   6.525   6.289   3.677 -0.6647 -0.7240 -0.0274
  468MOL0     C63102   6.555   6.268   3.540 -0.0313  0.4137  0.2902
  468MOL0     O63103   6.475   6.302   3.423 -0.2974 -0.0484 -0.2693
  468MOL0     C63104   6.370   6.395   3.432  0.0338  0.0597 -0.0190
  468MOL0     C63105   6.245   6.319   3.477  0.3533  0.7991  0.0276
  468MOL0     C63106   6.129   6.396   3.521 -0.2075 -0.0402  0.8672
  468MOL0     C63107   6.005   6.319   3.482  0.8447  0.3129  0.1436
  468MOL0     C63108   5.985   6.329   3.339 -0.1668  0.2912  0.0464
  468MOL0     C63109   5.972   6.343   3.223 -0.1699 -0.2266  0.3249
  468MOL0     C63110   6.660   6.188   3.513  0.5518  0.8509 -0.1731
  468MOL0     C63111   6.727   6.114   3.608 -1.0228 -0.2298  0.0814
  468MOL0     C63112   6.832   6.013   3.555 -0.0468  0.2975  0.6233
  468MOL0     H63113   6.819   5.689   3.816  0.9506 -2.3349  0.2147
  468MOL0     H63114   6.882   5.535   3.979  0.9908 -1.2145  2.8058
  468MOL0     H63115   6.825   5.672   4.342  1.4216  0.1289 -0.1090
  468MOL0     H63116   6.838   5.501   4.337 -0.1769 -0.6821 -3.1710
  468MOL0     H63117   6.913   5.618   4.548  0.8481 -1.1394  1.5531
  468MOL0     H63118   7.044   5.698   4.456  1.1611  0.8887 -0.1408
  468MOL0     H63119   7.154   5.484   4.406  0.9209 -2.4148  0.4233
  468MOL0     H63120   7.023   5.389   4.472  0.6452 -0.0345  2.2985
  468MOL0     H63121   7.229   5.593   4.607  0.7434 -0.7194 -0.0269
  468MOL0     H63122   7.080   5.546   4.692 -1.6724 -1.6355 -0.3453
  468MOL0     H63123   7.149   5.298   4.631  0.9484  0.3119 -2.8266
  468MOL0     H63124   7.312   5.359   4.606 -0.6590 -2.4124 -0.9026
  468MOL0     H63125   7.322   5.462   4.825 -0.3237  1.5718 -3.8071
  468MOL0     H63126   7.172   5.387   4.875  0.6076  1.6073  0.8076
  468MOL0     H63127   7.440   5.273   4.816  1.2299 -1.1327  3.2960
  468MOL0     H63128   7.300   5.174   4.759 -0.1732  1.8546 -0.8010
  468MOL0     H63129   7.230   5.180   5.006 -0.1107 -0.8896  1.2173
  468MOL0     H63130   7.379   5.091   4.947 -0.6952 -0.2362 -3.3983
  468MOL0     H63131   7.278   5.444   5.071  0.1786 -0.3002 -2.2562
  468MOL0     H63132   7.463   5.561   5.366 -1.0872 -0.4060  0.3367
  468MOL0     H63133   7.579   5.593   5.242 -0.3395 -1.0985 -1.0221
  468MOL0     H63134   7.279   5.622   5.206  0.7668 -0.6778  0.2645
  468MOL0     H63135   7.376   5.749   5.274 -0.2956 -1.6665  0.4931
  468MOL0     H63136   7.441   5.643   4.997  3.5961  3.7455 -3.2527
  468MOL0     H63137   7.506   5.784   5.060 -0.8974  1.6467 -0.5147
  468MOL0     H63138   7.341   5.895   4.949  2.3572 -0.3285  1.0843
  468MOL0     H63139   7.256   5.879   5.099 -0.8957  2.9700 -3.1981
  468MOL0     H63140   6.952   5.749   5.083 -0.1885 -0.2941  0.4001
  468MOL0     H63141   6.738   5.784   4.953 -1.0578 -1.0721 -1.0364
  468MOL0     H63142   6.743   5.893   4.340  2.1719  2.4255  1.9873
  468MOL0     H63143   6.581   6.010   4.177  0.2310 -0.8438 -0.8494
  468MOL0     H63144   6.447   6.302   4.196  1.0979 -1.1215 -0.8709
  468MOL0     H63145   6.443   6.160   4.090  0.3272  1.0997 -0.3425
  468MOL0     H63146   6.230   6.348   4.140 -0.5411 -0.0842  0.2409
  468MOL0     H63147   6.301   6.296   3.984  0.0331  0.3462  0.2070
  468MOL0     H63148   6.093   6.143   4.141 -0.2271 -1.3880 -0.3781
  468MOL0     H63149   6.092   6.209   3.978  0.1464 -1.3987 -1.7454
  468MOL0     H63150   6.118   5.963   3.995 -1.4773  1.6167 -0.8246
  468MOL0     H63151   6.297   6.002   4.043 -0.1606 -1.1993  0.6530
  468MOL0     H63152   6.306   6.140   3.846 -0.6326  1.1620 -1.4623
  468MOL0     H63153   6.144   6.082   3.795 -0.5594  0.4462  1.4522
  468MOL0     H63154   6.216   5.872   3.727  1.5071 -1.4864 -0.2810
  468MOL0     H63155   6.346   5.983   3.693 -1.9158 -0.2733 -1.4128
  468MOL0     H63156   6.326   5.778   3.920  0.4065 -0.6849  1.2715
  468MOL0     H63157   6.440   5.911   3.934 -2.6042  1.1537  1.3846
  468MOL0     H63158   6.552   5.835   3.716  0.4367  0.4525  0.5299
  468MOL0     H63159   6.568   5.728   3.857 -2.4856 -3.4043  0.2144
  468MOL0     H63160   6.368   6.154   4.524 -0.3887  0.6150 -1.9084
  468MOL0     H63161   6.534   6.020   4.672  1.3795  2.1649 -0.0522
  468MOL0     H63162   6.978   5.884   4.617 -0.0100 -2.2113  0.1135
  468MOL0     H63163   7.174   5.824   4.728 -0.9132  1.1456 -1.0314
  468MOL0     H63164   7.037   5.831   4.241 -1.3778  2.9618  0.3272
  468MOL0     H63165   6.987   6.005   4.058  0.5995 -0.8624  0.1862
  468MOL0     H63166   6.554   6.212   3.879  0.7194  1.3372  1.1452
  468MOL0     H63167   6.441   6.356   3.697 -0.0264  0.3459 -0.8229
  468MOL0     H63168   6.329   6.447   3.345 -3.5744  0.6328  1.8311
  468MOL0     H63169   6.399   6.476   3.500  4.1743 -0.4944 -0.8556
  468MOL0     H63170   6.264   6.250   3.560 -0.4906 -2.2699 -2.1419
  468MOL0     H63171   6.230   6.253   3.391  4.0495 -0.2604  0.0076
  468MOL0     H63172   6.128   6.491   3.467  0.3203 -0.1035  0.7416
  468MOL0     H63173   6.116   6.412   3.629 -1.0988 -0.6289  0.8639
  468MOL0     H63174   5.996   6.219   3.526  0.7639  0.6977  1.0265
  468MOL0     H63175   5.928   6.371   3.540  0.6297  1.1104 -0.8229
  468MOL0     H63176   5.951   6.364   3.120 -1.5791 -1.9598  0.2100
  468MOL0     H63177   6.691   6.177   3.409  1.4902  1.4862  0.0259
  468MOL0     H63178   6.840   6.001   3.447  1.6149 -1.5282  0.8916
  468MOL0     H63179   6.933   6.035   3.591  1.0988 -0.1383 -2.0920
  468MOL0     H63180   6.815   5.908   3.580 -4.1956  0.1596 -1.8572
  469MOL0     O63181   5.025   4.396   4.408  0.1045  0.2383  0.3468
  469MOL0     C63182   4.988   4.489   4.335 -0.4103  0.3239 -1.0926
  469MOL0     O63183   4.934   4.479   4.208  0.2917  0.3718 -1.0672
  469MOL0     C63184   4.950   4.362   4.139  0.5177  0.3610 -0.7855
  469MOL0     C63185   4.842   4.325   4.055  0.0008 -0.2337 -0.1793
  469MOL0     C63186   4.850   4.215   3.970  0.2954  0.4246  0.2277
  469MOL0     C63187   4.975   4.145   3.953  0.6588 -0.6606  0.2608
  469MOL0     O63188   5.005   4.055   3.853  0.4393  0.5634 -0.2999
  469MOL0     C63189   4.898   3.989   3.789 -0.2690  0.3639  0.1915
  469MOL0     C63190   4.949   3.892   3.683 -0.2728  0.3941  0.1782
  469MOL0     C63191   5.072   3.951   3.609  0.1106  0.0046  0.6424
  469MOL0     C63192   5.195   3.861   3.613 -1.2353 -0.1566  0.0800
  469MOL0     C63193   5.180   3.736   3.518 -0.7640 -1.2013 -0.4312
  469MOL0     C63194   5.313   3.671   3.487  0.1136  0.2403  1.2483
  469MOL0     C63195   5.369   3.603   3.615  0.2327  0.0814  0.3756
  469MOL0     C63196   5.512   3.580   3.583  0.1574 -0.0141  0.0951
  469MOL0     N63197   5.596   3.518   3.691 -0.5850  0.3432  0.1041
  469MOL0     C63198   5.660   3.604   3.779 -1.2472 -0.8049  0.0077
  469MOL0     C63199   5.750   3.531   3.852  0.1020 -0.1384  0.1405
  469MOL0     C63200   5.848   3.581   3.956 -0.3893  1.1911  0.1113
  469MOL0     C63201   5.834   3.499   4.082  0.0011  0.0368  0.2655
  469MOL0     C63202   5.913   3.551   4.197  0.4409 -0.3874 -0.6206
  469MOL0     C63203   6.060   3.593   4.181  0.1132 -0.4668  0.0080
  469MOL0     O63204   6.076   3.713   4.096  0.0305  0.4993 -0.3249
  469MOL0     C63205   6.192   3.758   4.052  0.3143 -0.6862 -0.3606
  469MOL0     C63206   6.317   3.716   4.096 -0.6304 -0.5702  1.4782
  469MOL0     C63207   6.433   3.755   4.040  0.2211 -0.9124 -0.0533
  469MOL0     C63208   6.433   3.852   3.933 -0.6511  0.4660 -0.6163
  469MOL0     C63209   6.558   3.908   3.885 -0.0223 -1.0625 -0.1973
  469MOL0     O63210   6.671   3.851   3.933 -0.5679 -0.5147  0.4233
  469MOL0     C63211   6.790   3.912   3.936 -0.2956 -0.7327 -0.2322
  469MOL0     C63212   6.796   4.047   3.938 -0.7138 -0.1396 -0.6937
  469MOL0     C63213   6.922   4.113   3.950  0.5299 -0.1365  0.0234
  469MOL0     C63214   7.042   4.034   3.951  0.7082 -0.1833  0.2440
  469MOL0     O63215   7.161   4.103   3.982  0.2352  0.0020 -0.2818
  469MOL0     C63216   7.185   4.076   4.121  0.0074 -0.0465 -0.6041
  469MOL0     C63217   7.279   4.184   4.187 -0.6040 -0.3694  0.7213
  469MOL0     C63218   7.211   4.322   4.179 -0.7712  0.1135  0.2031
  469MOL0     C63219   7.301   4.438   4.237 -0.2580  0.4112  0.4163
  469MOL0     C63220   7.254   4.572   4.186  0.4575 -0.5208  0.8598
  469MOL0     C63221   7.316   4.604   4.053 -0.4200 -0.6117  0.7648
  469MOL0     C63222   7.266   4.725   3.986  0.2789 -0.6579  0.1790
  469MOL0     C63223   7.315   4.857   4.068  0.1671  0.3738  0.3047
  469MOL0    Cl63224   7.478   4.912   4.008 -0.0067 -0.1207 -0.5079
  469MOL0     C63225   7.033   3.895   3.929  0.6199 -0.2201 -0.0983
  469MOL0     C63226   6.908   3.837   3.927  0.5360 -0.4984 -0.0401
  469MOL0     O63227   6.553   3.999   3.802 -0.4558  0.2243  0.1299
  469MOL0     C63228   6.304   3.908   3.893 -0.6081  0.0801  0.0522
  469MOL0     C63229   6.188   3.861   3.955 -0.7156  0.9162  0.4029
  469MOL0     N63230   5.723   3.397   3.811  0.1881  0.1870  0.1013
  469MOL0     N63231   5.636   3.391   3.712 -0.1565 -0.0075 -0.1164
  469MOL0     C63232   5.081   4.186   4.037 -0.3246  0.5722 -0.2850
  469MOL0     C63233   5.066   4.289   4.124 -1.1975 -0.9995 -0.3080
  469MOL0     C63234   4.967   4.617   4.400  0.6155 -1.1498 -0.2386
  469MOL0     C63235   4.842   4.681   4.380  0.4107  0.4533 -0.2671
  469MOL0     C63236   4.816   4.803   4.440 -0.0067 -0.9272  0.3317
  469MOL0     C63237   4.918   4.865   4.517  0.3558  0.0702  0.2508
  469MOL0     O63238   4.869   4.978   4.575 -0.3270  0.6923 -0.3879
  469MOL0     C63239   4.930   5.027   4.708 -0.6199 -0.7565 -0.8519
  469MOL0     C63240   4.913   5.179   4.731  0.4877  0.0303  1.0206
  469MOL0     C63241   5.015   5.238   4.832 -0.4935  0.3639 -0.1831
  469MOL0     C63242   5.135   5.301   4.761  0.5271 -0.3870 -0.5198
  469MOL0     C63243   5.231   5.361   4.859 -1.2658 -0.1293 -0.6037
  469MOL0     C63244   5.319   5.402   4.930  1.0283 -0.5905  0.3738
  469MOL0     C63245   5.041   4.794   4.541  0.3650 -0.4607 -0.2296
  469MOL0     C63246   5.065   4.672   4.484  0.6802 -0.2716  0.1024
  469MOL0     C63247   5.204   4.610   4.507  0.0852  0.9793 -0.3360
  469MOL0     H63248   4.755   4.389   4.051  1.0666  1.2295 -0.5867
  469MOL0     H63249   4.760   4.186   3.916  1.5393 -2.2755 -0.6072
  469MOL0     H63250   4.824   3.944   3.857 -1.4191 -1.3237 -2.0379
  469MOL0     H63251   4.845   4.070   3.738 -1.3074 -0.2299  0.3054
  469MOL0     H63252   4.881   3.854   3.606  2.5869 -3.3570 -0.8378
  469MOL0     H63253   4.971   3.796   3.732 -1.5154 -0.4023 -0.7666
  469MOL0     H63254   5.104   4.044   3.657 -2.8747  1.3038  0.3927
  469MOL0     H63255   5.040   3.974   3.506 -1.3910 -3.3753  0.2147
  469MOL0     H63256   5.290   3.912   3.595 -0.0962 -1.6129  1.6240
  469MOL0     H63257   5.202   3.821   3.715 -2.0009  1.0310  0.6271
  469MOL0     H63258   5.110   3.670   3.570 -1.1800  0.3568  1.0908
  469MOL0     H63259   5.139   3.771   3.423  1.3998  1.6292 -0.4763
  469MOL0     H63260   5.300   3.597   3.407  2.2696 -1.0904  2.0670
  469MOL0     H63261   5.381   3.740   3.438  1.5657 -1.9335  0.0290
  469MOL0     H63262   5.319   3.510   3.641 -0.4240  0.6704  1.2657
  469MOL0     H63263   5.366   3.661   3.708  0.2887 -1.9339  1.6893
  469MOL0     H63264   5.519   3.512   3.498  0.4411 -0.0107  0.1137
  469MOL0     H63265   5.556   3.679   3.565  0.9914 -0.2306  0.8393
  469MOL0     H63266   5.656   3.713   3.782  1.4656 -0.6053 -0.7638
  469MOL0     H63267   5.949   3.556   3.922  0.2665 -0.9439  3.1923
  469MOL0     H63268   5.837   3.685   3.987  0.3581  0.7124  2.1413
  469MOL0     H63269   5.729   3.503   4.113 -0.8293  0.7894 -2.4434
  469MOL0     H63270   5.871   3.397   4.073  1.7448  0.1734  3.7945
  469MOL0     H63271   5.903   3.480   4.280  1.8814 -0.0613 -0.1513
  469MOL0     H63272   5.859   3.642   4.224 -0.8775 -1.1996 -0.4035
  469MOL0     H63273   6.111   3.507   4.136 -1.2291 -1.4126  0.2216
  469MOL0     H63274   6.114   3.594   4.276 -1.8011 -1.0144  1.1600
  469MOL0     H63275   6.329   3.648   4.179 -1.6894  0.0254  2.1340
  469MOL0     H63276   6.517   3.701   4.084 -0.3266 -1.5674  0.2189
  469MOL0     H63277   6.712   4.117   3.941 -0.8684 -0.3349 -0.4734
  469MOL0     H63278   6.911   4.221   3.949 -0.5383 -0.2311 -0.3833
  469MOL0     H63279   7.094   4.073   4.180  0.1395  1.1123 -0.3318
  469MOL0     H63280   7.227   3.976   4.137 -0.2474 -0.0749 -0.0959
  469MOL0     H63281   7.317   4.155   4.286  0.9977 -3.1223 -0.5606
  469MOL0     H63282   7.367   4.184   4.121  0.1758  0.4840  1.7249
  469MOL0     H63283   7.200   4.339   4.072  1.2820  2.3343  0.2738
  469MOL0     H63284   7.118   4.314   4.237 -1.4832 -0.2583 -0.9546
  469MOL0     H63285   7.407   4.421   4.218 -0.3970  0.1758 -0.1689
  469MOL0     H63286   7.291   4.435   4.346  0.2126 -1.9029  0.4463
  469MOL0     H63287   7.296   4.647   4.253  0.7010 -0.0519  0.1905
  469MOL0     H63288   7.145   4.583   4.190  0.3037  0.4982 -2.8043
  469MOL0     H63289   7.424   4.616   4.063 -0.4881 -0.5742  1.5251
  469MOL0     H63290   7.294   4.522   3.984  0.4892  2.7267 -3.9419
  469MOL0     H63291   7.157   4.715   3.983  0.0983  0.7605  1.2646
  469MOL0     H63292   7.312   4.726   3.887 -2.8505 -2.3715 -1.4494
  469MOL0     H63293   7.243   4.938   4.053  0.2095  0.5326  0.9351
  469MOL0     H63294   7.317   4.844   4.177  2.2419 -0.5691  0.2038
  469MOL0     H63295   7.120   3.829   3.934  1.7327  1.0363 -1.7291
  469MOL0     H63296   6.889   3.730   3.919  0.8553 -0.5301 -0.3889
  469MOL0     H63297   6.289   3.993   3.827  0.7516 -0.6840 -1.2880
  469MOL0     H63298   6.090   3.898   3.925  0.1333  3.4367  0.4895
  469MOL0     H63299   5.176   4.134   4.035 -0.9683 -0.6949  0.8423
  469MOL0     H63300   5.143   4.318   4.195 -0.8943  3.9778 -2.2649
  469MOL0     H63301   4.764   4.620   4.336  2.1827 -0.8864 -1.7349
  469MOL0     H63302   4.713   4.835   4.443 -0.2580 -1.7733  1.7717
  469MOL0     H63303   5.037   5.006   4.701 -0.9811 -2.2931 -2.7049
  469MOL0     H63304   4.904   4.970   4.797  0.5581 -1.3630 -0.8781
  469MOL0     H63305   4.815   5.200   4.775 -0.6590 -0.9092 -0.9723
  469MOL0     H63306   4.909   5.238   4.639  0.2517 -1.5416 -0.0170
  469MOL0     H63307   5.049   5.164   4.906  0.5074  0.7700 -0.2212
  469MOL0     H63308   4.965   5.320   4.884 -0.1356 -0.1439  1.0022
  469MOL0     H63309   5.190   5.226   4.703 -1.6340 -3.9510  1.6593
  469MOL0     H63310   5.097   5.378   4.692  1.3662 -0.3788 -0.9895
  469MOL0     H63311   5.406   5.434   4.983  0.7093  0.1923  0.4429
  469MOL0     H63312   5.111   4.841   4.610 -0.2661  1.0538 -0.5667
  469MOL0     H63313   5.190   4.523   4.571  3.5643 -0.3330 -1.1520
  469MOL0     H63314   5.255   4.578   4.416  2.3172  0.6315  0.9808
  469MOL0     H63315   5.278   4.674   4.556  3.7198 -1.2961 -2.4062
  470MOL0     O63316   6.994   7.804   4.483 -0.1717  0.5802 -0.3493
  470MOL0     C63317   6.949   7.701   4.523 -0.9790  0.1365  0.5994
  470MOL0     O63318   6.991   7.642   4.628 -0.8973  0.2053 -0.2309
  470MOL0     C63319   7.081   7.701   4.712 -0.1970  0.1171  0.4595
  470MOL0     C63320   7.071   7.817   4.784 -0.6245  0.2403  0.2333
  470MOL0     C63321   7.178   7.849   4.873 -0.1210 -0.0757  0.4979
  470MOL0     C63322   7.297   7.773   4.881  1.0176  0.2569  0.5478
  470MOL0     O63323   7.397   7.834   4.949  0.6289  0.5292 -0.0764
  470MOL0     C63324   7.529   7.800   4.932 -0.1435  0.0681  0.5735
  470MOL0     C63325   7.629   7.912   4.974 -0.4352 -0.6143 -0.1358
  470MOL0     C63326   7.774   7.860   5.004  0.0739  0.8486  1.1262
  470MOL0     C63327   7.788   7.809   5.141 -1.4292 -0.2635  0.9251
  470MOL0     C63328   7.930   7.754   5.152  0.8548  0.6874  0.1420
  470MOL0     C63329   7.964   7.724   5.302 -0.0004 -0.2126  0.1562
  470MOL0     C63330   8.106   7.662   5.316  0.3713  0.7702  0.6817
  470MOL0     C63331   8.125   7.540   5.224  0.0741  0.6955 -0.1776
  470MOL0     N63332   8.256   7.471   5.265 -0.4450  0.3881  0.7561
  470MOL0     C63333   8.273   7.361   5.348  0.1999 -0.2572 -0.5606
  470MOL0     C63334   8.404   7.325   5.339 -0.2616 -0.3469  0.2250
  470MOL0     C63335   8.465   7.213   5.399  0.2708 -0.5553  0.7021
  470MOL0     C63336   8.609   7.184   5.358 -0.8643 -0.3609  0.2719
  470MOL0     C63337   8.675   7.096   5.458 -0.2791 -0.4304  0.1224
  470MOL0     C63338   8.824   7.071   5.425  0.9166  1.2226 -0.5980
  470MOL0     O63339   8.862   6.976   5.528 -0.4756 -0.0028 -0.5208
  470MOL0     C63340   8.990   6.924   5.543  0.1277 -0.2447  0.6164
  470MOL0     C63341   9.005   6.829   5.637 -0.6769  0.1460  0.4260
  470MOL0     C63342   9.127   6.762   5.649 -0.1020  0.1478 -0.1302
  470MOL0     C63343   9.230   6.792   5.562 -0.3228  0.7519 -0.3506
  470MOL0     C63344   9.367   6.735   5.572 -0.7565 -0.9197  0.3929
  470MOL0     O63345   9.466   6.806   5.518  0.1175  0.3698  0.6180
  470MOL0     C63346   9.588   6.774   5.571  0.5189 -0.5332  0.6339
  470MOL0     C63347   9.687   6.702   5.499  1.1102  0.1647 -0.0965
  470MOL0     C63348   9.820   6.701   5.542  0.0839  0.0388 -0.6474
  470MOL0     C63349   9.858   6.751   5.675  1.0648  0.6369 -0.2429
  470MOL0     O63350   9.989   6.725   5.714 -0.4652 -0.0673  0.3673
  470MOL0     C63351  10.025   6.726   5.852  0.7146  0.0975  0.4154
  470MOL0     C63352  10.175   6.712   5.873  0.1817  0.1753 -0.0262
  470MOL0     C63353  10.199   6.665   6.024 -0.1831 -0.3193  0.2019
  470MOL0     C63354  10.345   6.613   6.048 -0.0753  0.0855  0.2776
  470MOL0     C63355  10.371   6.582   6.202  0.3980  0.2430  0.7743
  470MOL0     C63356  10.515   6.543   6.238  0.2400 -0.7228  0.3114
  470MOL0     C63357  10.530   6.528   6.392 -0.1476 -0.8672  1.2736
  470MOL0     C63358  10.647   6.431   6.426  0.4714  0.5770  0.6539
  470MOL0    Cl63359  10.704   6.492   6.577  0.9143  0.5730  0.2341
  470MOL0     C63360   9.756   6.805   5.745 -0.2638 -0.6971 -0.4497
  470MOL0     C63361   9.627   6.815   5.703 -0.5626 -0.3857 -0.2503
  470MOL0     O63362   9.376   6.638   5.646  0.2576 -1.1089 -0.1398
  470MOL0     C63363   9.207   6.883   5.454 -0.0447 -0.6847  0.1786
  470MOL0     C63364   9.093   6.952   5.447  0.6730 -0.9395 -0.0350
  470MOL0     N63365   8.466   7.421   5.260  0.5591  0.1629  0.0229
  470MOL0     N63366   8.376   7.500   5.214 -0.1946  0.3136  0.6965
  470MOL0     C63367   7.291   7.648   4.812 -0.2993 -0.0913  0.9186
  470MOL0     C63368   7.194   7.613   4.726 -0.2206 -0.0574 -0.2273
  470MOL0     C63369   6.834   7.649   4.453  0.6167 -0.0691  0.0482
  470MOL0     C63370   6.759   7.738   4.370  0.4429 -0.3210  0.0685
  470MOL0     C63371   6.640   7.692   4.295  0.2262 -0.7420 -1.2552
  470MOL0     C63372   6.590   7.562   4.310 -0.2015 -0.8952  0.2451
  470MOL0     O63373   6.483   7.532   4.231  0.5818 -0.5317 -0.0085
  470MOL0     C63374   6.431   7.402   4.259  0.4037  0.3373  0.6417
  470MOL0     C63375   6.286   7.375   4.210 -0.9691  0.2134 -0.8127
  470MOL0     C63376   6.270   7.414   4.068  0.3734 -0.7380  0.4825
  470MOL0     C63377   6.135   7.379   4.009  0.1191  0.4370  0.2064
  470MOL0     C63378   6.127   7.234   3.996  0.3233  0.6460  0.2036
  470MOL0     C63379   6.124   7.119   3.954  0.4674  1.0769  0.6497
  470MOL0     C63380   6.659   7.479   4.403 -0.4439  0.1539 -0.1831
  470MOL0     C63381   6.775   7.520   4.476  0.2680 -0.0516  0.2288
  470MOL0     C63382   6.825   7.417   4.578 -0.2728 -0.3691  0.1978
  470MOL0     H63383   6.981   7.877   4.790 -0.1440  0.8716  1.3743
  470MOL0     H63384   7.169   7.939   4.932  1.3819 -1.0132  2.2584
  470MOL0     H63385   7.553   7.710   4.990 -1.4458 -1.8709 -1.6821
  470MOL0     H63386   7.554   7.779   4.827  1.8819 -1.5384  1.3161
  470MOL0     H63387   7.593   7.944   5.072 -0.6436 -0.5759 -0.2247
  470MOL0     H63388   7.636   7.988   4.896  1.0977  1.2304  1.6630
  470MOL0     H63389   7.842   7.943   4.988 -1.9055  2.4081  0.2891
  470MOL0     H63390   7.796   7.776   4.937 -1.8471 -0.2832  1.8237
  470MOL0     H63391   7.779   7.887   5.217  0.5347 -0.1099  1.0672
  470MOL0     H63392   7.719   7.727   5.160  0.1101 -1.7635  0.3827
  470MOL0     H63393   7.935   7.660   5.098  0.7918  0.5971  0.2922
  470MOL0     H63394   8.001   7.826   5.111  0.2623  0.6617 -0.9473
  470MOL0     H63395   7.962   7.810   5.370  0.0930 -2.6679  3.5279
  470MOL0     H63396   7.885   7.659   5.341  0.4329 -0.7914  0.0895
  470MOL0     H63397   8.120   7.628   5.419 -1.3140 -3.0317 -0.1847
  470MOL0     H63398   8.187   7.732   5.292  1.4315 -1.1802 -1.9758
  470MOL0     H63399   8.049   7.463   5.241  1.1957 -0.0183  1.9343
  470MOL0     H63400   8.131   7.571   5.119 -2.3912  0.0968 -0.5696
  470MOL0     H63401   8.198   7.302   5.401 -1.2391 -0.0878 -2.3201
  470MOL0     H63402   8.457   7.230   5.507 -0.6530  0.1431  0.5273
  470MOL0     H63403   8.409   7.121   5.380 -0.7310  0.1405  0.2339
  470MOL0     H63404   8.608   7.136   5.259 -2.1306  0.7360 -0.2788
  470MOL0     H63405   8.669   7.274   5.341  0.5075 -1.0957  1.0491
  470MOL0     H63406   8.615   7.005   5.457 -1.8563  0.5602 -1.4313
  470MOL0     H63407   8.672   7.149   5.553 -0.7322  0.4636 -0.3797
  470MOL0     H63408   8.894   7.155   5.421  1.0394  1.3401  2.2287
  470MOL0     H63409   8.834   7.027   5.326  2.8313  2.0469 -0.8174
  470MOL0     H63410   8.917   6.800   5.693  0.7612 -1.8996  1.7829
  470MOL0     H63411   9.134   6.686   5.726  0.8871 -0.2871 -0.6385
  470MOL0     H63412   9.664   6.667   5.399  1.3221 -0.6297  0.1329
  470MOL0     H63413   9.892   6.650   5.479  0.3032 -0.1900 -0.2182
  470MOL0     H63414  10.003   6.823   5.899 -2.1212 -0.6773  0.8563
  470MOL0     H63415   9.965   6.654   5.908 -0.5432  2.9613  3.0562
  470MOL0     H63416  10.203   6.633   5.802  3.5928 -0.0059  1.3253
  470MOL0     H63417  10.237   6.800   5.855  0.6038  0.2726  1.7219
  470MOL0     H63418  10.172   6.746   6.093  2.6956  0.0490  1.0130
  470MOL0     H63419  10.125   6.589   6.052 -2.2313  2.4714  3.2048
  470MOL0     H63420  10.409   6.698   6.020 -3.0669  2.9024  1.2870
  470MOL0     H63421  10.361   6.526   5.984 -2.0007  2.6499 -4.1472
  470MOL0     H63422  10.305   6.497   6.223 -1.2084  1.0483 -0.7580
  470MOL0     H63423  10.336   6.665   6.264 -0.1163 -1.4015  2.7934
  470MOL0     H63424  10.542   6.450   6.187 -1.7812 -0.3407 -1.6303
  470MOL0     H63425  10.588   6.616   6.199 -0.7487 -0.5984 -1.4301
  470MOL0     H63426  10.438   6.500   6.444 -1.9317  2.2538  0.0536
  470MOL0     H63427  10.555   6.626   6.433  0.1502  0.0902 -1.0603
  470MOL0     H63428  10.598   6.336   6.450  0.7309  0.1366 -0.5277
  470MOL0     H63429  10.732   6.412   6.361 -1.6928 -0.1111 -2.1319
  470MOL0     H63430   9.782   6.853   5.839 -3.6524  0.9007 -0.1658
  470MOL0     H63431   9.544   6.856   5.759 -0.3846 -0.0157 -0.2586
  470MOL0     H63432   9.285   6.908   5.382  0.1276 -1.3910  0.1175
  470MOL0     H63433   9.087   7.023   5.365 -1.7526  0.5808  1.3341
  470MOL0     H63434   7.382   7.590   4.830 -0.9512 -1.1501  0.9117
  470MOL0     H63435   7.202   7.522   4.667  0.8420  0.2371 -0.5607
  470MOL0     H63436   6.796   7.838   4.354 -3.3671  1.0196 -1.5673
  470MOL0     H63437   6.587   7.763   4.233 -0.3095  0.9639  0.9821
  470MOL0     H63438   6.428   7.382   4.367 -1.4797  1.2460  0.7981
  470MOL0     H63439   6.493   7.320   4.221 -2.1113 -0.7748 -1.4142
  470MOL0     H63440   6.201   7.402   4.273 -0.5672 -0.4666  0.0587
  470MOL0     H63441   6.284   7.265   4.207  0.2662  0.1463  0.0622
  470MOL0     H63442   6.355   7.380   4.008  0.7086  1.0809 -0.1413
  470MOL0     H63443   6.285   7.522   4.060 -1.3764 -0.5390 -0.6150
  470MOL0     H63444   6.055   7.426   4.067 -1.3593 -2.0966  0.3734
  470MOL0     H63445   6.129   7.410   3.904  2.7213  0.1003 -0.1006
  470MOL0     H63446   6.120   7.019   3.917  0.9966  0.9728  0.8574
  470MOL0     H63447   6.627   7.376   4.410  2.5062 -0.7981  1.2803
  470MOL0     H63448   6.772   7.323   4.561  1.0556 -1.3069  1.0959
  470MOL0     H63449   6.932   7.405   4.561 -0.4857 -0.7127 -0.9737
  470MOL0     H63450   6.818   7.454   4.681  2.9216  1.8857 -0.2427
  471MOL0     O63451   2.311  10.530   9.425 -0.7930  0.0807 -0.1093
  471MOL0     C63452   2.251  10.463   9.514 -0.0034 -0.3766  0.5101
  471MOL0     O63453   2.298  10.454   9.643 -0.1303 -0.4630 -0.2360
  471MOL0     C63454   2.423  10.497   9.665  0.0146  0.6486  0.3909
  471MOL0     C63455   2.530  10.411   9.664  0.4357  0.1438 -0.6580
  471MOL0     C63456   2.656  10.465   9.698  0.0420  0.4603  0.5874
  471MOL0     C63457   2.677  10.601   9.717 -0.2147 -0.4345  0.5001
  471MOL0     O63458   2.805  10.663   9.734  0.1806  1.0542 -0.2542
  471MOL0     C63459   2.864  10.617   9.851  0.1791  0.4529  0.5752
  471MOL0     C63460   2.830  10.706   9.968 -0.0288  0.6250 -0.8142
  471MOL0     C63461   2.918  10.694  10.097  0.1225  0.1436 -0.1378
  471MOL0     C63462   2.930  10.543  10.131  0.4985 -0.2247 -0.2891
  471MOL0     C63463   2.971  10.532  10.276  0.0324 -0.2968 -0.3085
  471MOL0     C63464   3.114  10.582  10.310 -0.4902 -0.2041 -1.2465
  471MOL0     C63465   3.139  10.544  10.455 -0.6688 -0.7824 -0.1278
  471MOL0     C63466   3.279  10.562  10.512 -0.1697 -0.7066 -0.6620
  471MOL0     N63467   3.385  10.477  10.456 -1.0438  0.0834 -0.0530
  471MOL0     C63468   3.379  10.346  10.481 -0.0974  0.2270  0.0838
  471MOL0     C63469   3.449  10.285  10.377 -0.0804  0.5601  0.5160
  471MOL0     C63470   3.472  10.134  10.351 -0.6287  0.5867 -0.3848
  471MOL0     C63471   3.483  10.037  10.471 -0.2083  0.7221 -0.5071
  471MOL0     C63472   3.605  10.055  10.558 -0.5517  0.7462 -0.0529
  471MOL0     C63473   3.740  10.033  10.483 -0.7144  0.1247 -0.5504
  471MOL0     O63474   3.771   9.890  10.471 -0.0954  0.9624 -0.2987
  471MOL0     C63475   3.820   9.817  10.579 -0.1626 -0.4286 -0.3700
  471MOL0     C63476   3.847   9.863  10.707  0.0625  0.7971 -0.0063
  471MOL0     C63477   3.892   9.776  10.811  0.2574 -0.2583  0.5653
  471MOL0     C63478   3.919   9.637  10.792  0.9119 -0.4053  0.7399
  471MOL0     C63479   3.960   9.538  10.893  0.5575  0.2111  0.0832
  471MOL0     O63480   4.010   9.419  10.856 -0.5057 -0.0947 -0.4188
  471MOL0     C63481   4.119   9.410  10.781  0.3670 -0.0723  0.1098
  471MOL0     C63482   4.139   9.287  10.725 -0.0280 -0.3890  0.6764
  471MOL0     C63483   4.255   9.253  10.648 -0.0176 -0.5667  0.1064
  471MOL0     C63484   4.345   9.350  10.615 -0.2323  0.1384  0.1787
  471MOL0     O63485   4.452   9.317  10.541  0.8871 -0.1257 -0.3537
  471MOL0     C63486   4.509   9.425  10.459  0.3589 -0.0559  0.7094
  471MOL0     C63487   4.618   9.363  10.369 -0.1140 -0.4270 -0.2299
  471MOL0     C63488   4.686   9.471  10.281 -0.8421 -0.0093 -0.7057
  471MOL0     C63489   4.595   9.528  10.172 -0.2081 -0.2928  0.1204
  471MOL0     C63490   4.674   9.637  10.097 -0.2438 -0.3616  0.0665
  471MOL0     C63491   4.798   9.584  10.022 -0.0861 -0.0833 -0.1670
  471MOL0     C63492   4.850   9.677   9.913 -0.9891 -0.0491 -0.0323
  471MOL0     C63493   4.860   9.826   9.960 -1.1112 -1.5089  0.1488
  471MOL0    Cl63494   4.912   9.920   9.818 -0.3324 -0.4746  0.0710
  471MOL0     C63495   4.326   9.484  10.677  1.0912  0.6689  0.6635
  471MOL0     C63496   4.214   9.509  10.757 -0.2005 -0.2853 -0.0807
  471MOL0     O63497   3.960   9.575  11.008 -0.4756  0.3790  0.6257
  471MOL0     C63498   3.873   9.591  10.664 -0.3728 -0.0384  0.0821
  471MOL0     C63499   3.832   9.677  10.554 -0.4860 -1.1144 -0.1241
  471MOL0     N63500   3.502  10.388  10.300 -0.1700 -0.3046  0.1338
  471MOL0     N63501   3.470  10.496  10.353 -0.1256  0.1912  0.5938
  471MOL0     C63502   2.569  10.686   9.701  0.4524 -0.0859  0.3007
  471MOL0     C63503   2.441  10.632   9.680 -0.3233 -0.2508  0.6476
  471MOL0     C63504   2.123  10.388   9.482  0.0271  0.3635 -0.3398
  471MOL0     C63505   2.039  10.356   9.589 -0.1018  1.1677 -0.0123
  471MOL0     C63506   1.909  10.313   9.567 -0.0837 -0.4640  0.0313
  471MOL0     C63507   1.859  10.308   9.437 -0.3758 -0.7649  0.1168
  471MOL0     O63508   1.726  10.290   9.407 -0.1287 -0.1456 -0.2990
  471MOL0     C63509   1.698  10.154   9.366 -0.3488 -1.0584  0.2530
  471MOL0     C63510   1.579  10.094   9.439 -0.2725  1.0886  0.8702
  471MOL0     C63511   1.590  10.085   9.592 -0.6972  0.2273 -0.2708
  471MOL0     C63512   1.694   9.974   9.644 -0.4428  0.2557  0.0837
  471MOL0     C63513   1.659   9.844   9.579  0.1624  0.0299 -0.7243
  471MOL0     C63514   1.616   9.743   9.533  1.1574 -0.3125 -0.6541
  471MOL0     C63515   1.956  10.317   9.336  0.6230  0.9554 -0.5728
  471MOL0     C63516   2.091  10.355   9.348  0.0602 -0.1400 -0.3013
  471MOL0     C63517   2.182  10.363   9.225 -0.1631 -0.2160 -0.2281
  471MOL0     H63518   2.537  10.305   9.638  1.2515  0.0072  0.0849
  471MOL0     H63519   2.730  10.391   9.725 -2.3223 -1.5362  1.9389
  471MOL0     H63520   2.840  10.513   9.874  0.9690 -0.3244 -1.8033
  471MOL0     H63521   2.972  10.621   9.829  0.0327  0.9016 -0.1085
  471MOL0     H63522   2.723  10.698   9.987  0.4012 -0.4471  1.5629
  471MOL0     H63523   2.847  10.807   9.930  0.6951  1.5562  1.8093
  471MOL0     H63524   2.868  10.743  10.182  3.5061  1.1941  1.4296
  471MOL0     H63525   3.019  10.733  10.084 -0.3461  1.1749 -0.8004
  471MOL0     H63526   2.841  10.482  10.112 -0.8907  1.9074 -1.0647
  471MOL0     H63527   3.007  10.494  10.071 -1.0311 -2.7121 -0.3596
  471MOL0     H63528   2.901  10.591  10.336 -0.3150  0.2150 -1.1954
  471MOL0     H63529   2.961  10.432  10.319 -0.4065 -0.6681 -1.2416
  471MOL0     H63530   3.181  10.522  10.247  0.9302  1.6425 -1.5967
  471MOL0     H63531   3.133  10.684  10.276  1.4865 -0.7088 -1.7907
  471MOL0     H63532   3.112  10.439  10.464 -0.0492 -1.1080 -1.7573
  471MOL0     H63533   3.081  10.612  10.519  0.4043  0.0851 -0.0403
  471MOL0     H63534   3.307  10.667  10.523  1.0693 -1.2004  1.5448
  471MOL0     H63535   3.261  10.536  10.617 -1.7884  0.6435 -0.5813
  471MOL0     H63536   3.305  10.299  10.545  0.0015  2.4863  1.9950
  471MOL0     H63537   3.377  10.103  10.306 -0.8146 -0.6554  0.7757
  471MOL0     H63538   3.548  10.110  10.277 -0.5650  0.1077 -0.1662
  471MOL0     H63539   3.401  10.066  10.536 -0.3792 -2.0130  0.5958
  471MOL0     H63540   3.470   9.931  10.450 -0.4466  0.5799  0.3345
  471MOL0     H63541   3.603   9.972  10.629  2.4738  0.4455 -0.2032
  471MOL0     H63542   3.597  10.151  10.610 -1.2352 -0.2097  1.6947
  471MOL0     H63543   3.818  10.089  10.536 -2.1302  0.6287  1.0756
  471MOL0     H63544   3.727  10.068  10.380 -0.2039 -1.7737 -1.2978
  471MOL0     H63545   3.835   9.967  10.735 -0.3323  1.1079 -1.2580
  471MOL0     H63546   3.913   9.825  10.905 -1.3239  1.8378 -0.1045
  471MOL0     H63547   4.069   9.208  10.750 -0.8203  0.0826  0.0108
  471MOL0     H63548   4.258   9.156  10.600 -0.6371  0.4682 -2.1481
  471MOL0     H63549   4.427   9.468  10.401  0.8215 -0.4884 -0.2845
  471MOL0     H63550   4.554   9.495  10.531  1.0228 -0.4551  0.6945
  471MOL0     H63551   4.694   9.325  10.437 -0.1048  0.4803  0.2813
  471MOL0     H63552   4.567   9.283  10.314 -0.7455 -0.8413  0.9327
  471MOL0     H63553   4.729   9.545  10.349 -3.7212  0.4348  0.7759
  471MOL0     H63554   4.768   9.423  10.227 -1.5156 -0.7115 -1.1288
  471MOL0     H63555   4.512   9.583  10.217  1.5412  1.0994  1.8773
  471MOL0     H63556   4.551   9.446  10.115 -0.8721 -0.3755  0.7277
  471MOL0     H63557   4.696   9.722  10.162 -1.1016  0.8680 -1.1885
  471MOL0     H63558   4.603   9.689  10.031  0.6246  1.0060  0.1656
  471MOL0     H63559   4.884   9.549  10.080  0.2873 -2.1518 -1.8669
  471MOL0     H63560   4.772   9.493   9.966 -0.7650  0.4105 -0.6645
  471MOL0     H63561   4.787   9.675   9.823  0.3459 -0.4582 -0.9975
  471MOL0     H63562   4.948   9.647   9.873 -1.5065  0.4819 -1.8176
  471MOL0     H63563   4.767   9.860  10.006 -0.2581 -0.3524  1.1160
  471MOL0     H63564   4.943   9.824  10.031 -1.2020 -3.3138  0.2388
  471MOL0     H63565   4.396   9.564  10.655  2.5901 -1.0497 -1.2232
  471MOL0     H63566   4.209   9.608  10.800 -1.2725  0.1658 -1.1802
  471MOL0     H63567   3.881   9.489  10.627 -1.7131  0.1073 -0.6555
  471MOL0     H63568   3.824   9.647  10.450 -0.4377  0.2114 -0.5250
  471MOL0     H63569   2.576  10.794   9.709 -0.1130  0.2872 -2.9000
  471MOL0     H63570   2.356  10.699   9.672  1.0321  1.6528  1.2979
  471MOL0     H63571   2.076  10.376   9.689  4.4627 -0.2449 -1.2072
  471MOL0     H63572   1.837  10.292   9.645  2.1058 -3.6131  1.3648
  471MOL0     H63573   1.787  10.094   9.390  0.6590  0.4970  0.5180
  471MOL0     H63574   1.684  10.142   9.258 -0.0923 -0.7650  0.1858
  471MOL0     H63575   1.564   9.994   9.396  0.4630  1.0566  0.6690
  471MOL0     H63576   1.493  10.160   9.421 -1.7311 -0.1188  2.9515
  471MOL0     H63577   1.486  10.076   9.625 -0.7988  1.4412 -0.2246
  471MOL0     H63578   1.628  10.181   9.628  0.6072 -0.6190  0.7226
  471MOL0     H63579   1.796  10.002   9.615 -0.3354 -0.3926 -0.1834
  471MOL0     H63580   1.684   9.969   9.753 -1.5366  0.0460 -0.0142
  471MOL0     H63581   1.564   9.657   9.497  1.3511 -0.7182  0.0071
  471MOL0     H63582   1.923  10.287   9.237 -0.6385 -0.3454  0.1947
  471MOL0     H63583   2.274  10.306   9.243  0.8339  1.6862  0.9806
  471MOL0     H63584   2.127  10.322   9.140 -0.5015  0.0136 -0.1211
  471MOL0     H63585   2.215  10.464   9.200  0.8345 -0.3647  0.4213
  472MOL0     O63586   3.101   5.026   6.993  0.2482 -0.1335  0.8412
  472MOL0     C63587   3.198   5.045   7.069 -0.1797 -0.9498 -0.0647
  472MOL0     O63588   3.215   4.964   7.182 -0.5886  0.5068 -0.4757
  472MOL0     C63589   3.120   4.865   7.212 -1.1769  0.2958  0.3154
  472MOL0     C63590   3.176   4.734   7.235  0.7948  0.4380  0.0557
  472MOL0     C63591   3.079   4.638   7.271 -1.1520 -0.4081 -0.3657
  472MOL0     C63592   2.947   4.670   7.290  0.0556  0.3150 -0.6632
  472MOL0     O63593   2.863   4.560   7.319 -0.2714 -1.1175 -0.1432
  472MOL0     C63594   2.733   4.560   7.367 -0.2452 -0.3765 -0.4825
  472MOL0     C63595   2.715   4.411   7.413 -0.5955 -0.3827  0.8920
  472MOL0     C63596   2.592   4.389   7.506  0.7953  0.4870 -0.8952
  472MOL0     C63597   2.516   4.259   7.474  0.0054  0.8367 -0.2653
  472MOL0     C63598   2.416   4.234   7.581  0.4207  0.0264 -0.0368
  472MOL0     C63599   2.333   4.099   7.570  0.1871  1.3522  0.5282
  472MOL0     C63600   2.217   4.070   7.667  0.4926 -1.2021 -0.0314
  472MOL0     C63601   2.278   4.082   7.809  0.2612  0.1237 -0.7164
  472MOL0     N63602   2.164   4.078   7.904 -0.1124 -0.5443  0.4164
  472MOL0     C63603   2.078   3.979   7.942  0.4875  0.7329 -0.4185
  472MOL0     C63604   1.967   4.038   7.995 -0.3716  0.6887  0.1613
  472MOL0     C63605   1.837   3.974   8.058  0.5358  0.0943  0.2888
  472MOL0     C63606   1.871   3.875   8.172 -0.4613  0.0034  0.6005
  472MOL0     C63607   1.740   3.798   8.199  0.6979 -0.3506 -0.8958
  472MOL0     C63608   1.750   3.680   8.298  0.3812  0.4075  0.7125
  472MOL0     O63609   1.860   3.603   8.242 -0.0464 -0.2052 -0.3806
  472MOL0     C63610   1.884   3.483   8.300  0.9352  0.4431  0.4809
  472MOL0     C63611   1.809   3.424   8.396  0.7005  0.1069 -0.2686
  472MOL0     C63612   1.818   3.285   8.431  0.8093 -0.0639  0.9441
  472MOL0     C63613   1.910   3.210   8.362 -0.8403 -0.5171 -0.2023
  472MOL0     C63614   1.921   3.064   8.394  0.1341 -0.2879  0.2588
  472MOL0     O63615   2.005   2.995   8.318 -0.3094  1.8138 -0.9279
  472MOL0     C63616   2.036   2.861   8.342  0.0603 -0.9654 -0.1646
  472MOL0     C63617   2.050   2.778   8.229 -0.4500 -0.0813  0.1420
  472MOL0     C63618   2.100   2.647   8.232 -0.1430 -0.6530 -0.3308
  472MOL0     C63619   2.099   2.582   8.358  0.3856 -0.8234 -1.0409
  472MOL0     O63620   2.121   2.439   8.352 -0.3992 -0.0377 -1.2366
  472MOL0     C63621   2.206   2.406   8.460 -0.6594  0.7009 -0.1662
  472MOL0     C63622   2.283   2.271   8.407 -0.1210 -0.3029 -0.6546
  472MOL0     C63623   2.369   2.306   8.282  0.6514 -1.0265 -0.8974
  472MOL0     C63624   2.412   2.178   8.210 -1.1739 -0.4116  1.3838
  472MOL0     C63625   2.482   2.197   8.072  0.0765 -0.6455  0.3205
  472MOL0     C63626   2.383   2.206   7.956  0.3444 -0.9666 -0.3745
  472MOL0     C63627   2.451   2.178   7.822  0.1468 -0.3288 -0.0892
  472MOL0     C63628   2.338   2.166   7.711 -0.2060  0.5975  1.0898
  472MOL0    Cl63629   2.282   2.005   7.700 -0.0418  0.1619 -0.1384
  472MOL0     C63630   2.084   2.664   8.471  0.8057 -0.4213 -0.7772
  472MOL0     C63631   2.062   2.802   8.470  0.2578 -0.4677 -0.4903
  472MOL0     O63632   1.842   3.015   8.484  0.1792  0.6512  0.0729
  472MOL0     C63633   1.998   3.274   8.270  0.6182  0.4053 -0.6316
  472MOL0     C63634   1.979   3.406   8.237 -0.3569  0.7355 -0.4009
  472MOL0     N63635   1.988   4.176   7.988 -0.4250  0.9954 -0.2157
  472MOL0     N63636   2.109   4.195   7.939 -0.4218  0.7515  0.1171
  472MOL0     C63637   2.893   4.798   7.270 -0.3280 -0.4484  0.2218
  472MOL0     C63638   2.982   4.900   7.226  0.2742 -0.2249  0.6084
  472MOL0     C63639   3.287   5.162   7.053  0.1889  0.1238  0.3757
  472MOL0     C63640   3.380   5.187   7.159 -0.9662 -0.2998  0.1548
  472MOL0     C63641   3.453   5.308   7.162 -0.0628 -0.1315  0.1425
  472MOL0     C63642   3.437   5.404   7.064 -0.9314 -0.7173 -0.5082
  472MOL0     O63643   3.522   5.513   7.059  0.2131  0.7785 -0.7228
  472MOL0     C63644   3.514   5.601   7.180  0.0118  0.3382  0.0499
  472MOL0     C63645   3.403   5.694   7.171  0.0379  0.4312 -0.5246
  472MOL0     C63646   3.402   5.787   7.048 -0.6110  0.2230 -0.7491
  472MOL0     C63647   3.522   5.876   7.049  0.3992  0.0168 -0.0613
  472MOL0     C63648   3.567   5.948   7.173 -0.4148  0.2279  0.1740
  472MOL0     C63649   3.618   6.000   7.266 -0.1085  0.5364 -0.1686
  472MOL0     C63650   3.349   5.373   6.958 -0.4526 -0.2700 -0.4273
  472MOL0     C63651   3.267   5.259   6.952 -0.2265 -0.7053 -0.4334
  472MOL0     C63652   3.183   5.238   6.824 -0.1817 -0.1988 -0.1280
  472MOL0     H63653   3.281   4.709   7.220  0.5125  0.2983 -2.0664
  472MOL0     H63654   3.109   4.536   7.295  2.5014  0.9121  1.3389
  472MOL0     H63655   2.717   4.631   7.449  2.6650 -0.9091  0.6569
  472MOL0     H63656   2.673   4.589   7.280  1.0658  1.3621 -0.8559
  472MOL0     H63657   2.803   4.379   7.469 -1.0352  1.9377  3.0787
  472MOL0     H63658   2.687   4.343   7.332  0.0559 -0.3900  0.6735
  472MOL0     H63659   2.521   4.468   7.483  2.1759  1.7148 -1.1041
  472MOL0     H63660   2.632   4.390   7.608 -1.3271 -3.0538  0.1582
  472MOL0     H63661   2.465   4.249   7.378 -2.3865  1.2180  0.8917
  472MOL0     H63662   2.585   4.174   7.473 -1.2178 -0.2129  0.4277
  472MOL0     H63663   2.458   4.252   7.680  0.8531 -1.1576  0.0101
  472MOL0     H63664   2.341   4.314   7.578 -1.5533 -1.7138  0.5828
  472MOL0     H63665   2.281   4.086   7.474  1.1746 -0.4887  0.2017
  472MOL0     H63666   2.405   4.017   7.578 -1.4255 -0.2864 -0.8945
  472MOL0     H63667   2.177   3.971   7.644  1.7222 -1.3862 -1.5661
  472MOL0     H63668   2.140   4.147   7.655  1.3509 -0.5191 -1.3365
  472MOL0     H63669   2.338   3.993   7.828 -0.1795  0.0924  0.5891
  472MOL0     H63670   2.327   4.179   7.820 -1.4474  1.0053 -0.6695
  472MOL0     H63671   2.097   3.873   7.931 -1.5208  0.1875  0.7867
  472MOL0     H63672   1.776   4.054   8.101  1.8480 -0.2655  3.0187
  472MOL0     H63673   1.781   3.926   7.977 -2.0161  0.7715  1.5624
  472MOL0     H63674   1.957   3.817   8.137  0.2055 -0.3144  2.6330
  472MOL0     H63675   1.903   3.921   8.266  2.6403 -2.0897  0.7115
  472MOL0     H63676   1.693   3.760   8.108 -3.9010 -0.6144  1.3013
  472MOL0     H63677   1.669   3.869   8.244  1.9269  1.0431 -1.0709
  472MOL0     H63678   1.655   3.633   8.272  0.6372  2.6123 -6.5806
  472MOL0     H63679   1.749   3.727   8.397  0.0989 -0.4418  1.1220
  472MOL0     H63680   1.730   3.477   8.448  0.0618 -1.1537  0.0917
  472MOL0     H63681   1.740   3.237   8.488 -0.1913 -0.5712 -0.7750
  472MOL0     H63682   2.038   2.831   8.135 -1.8260 -1.1962 -0.3409
  472MOL0     H63683   2.123   2.589   8.143 -1.5760 -4.0251  1.3141
  472MOL0     H63684   2.278   2.487   8.476  0.5320 -0.3857  0.1633
  472MOL0     H63685   2.153   2.379   8.551  2.2343  1.1890  1.7779
  472MOL0     H63686   2.339   2.229   8.490 -3.0137 -1.9944  0.5906
  472MOL0     H63687   2.212   2.192   8.382  0.0323 -1.0253  1.0815
  472MOL0     H63688   2.314   2.363   8.207 -0.6192 -0.0789  0.6924
  472MOL0     H63689   2.450   2.372   8.315  0.2537 -0.8958 -0.1681
  472MOL0     H63690   2.321   2.119   8.198 -2.0973  1.3136 -0.7641
  472MOL0     H63691   2.481   2.115   8.267  0.1204 -0.1569  0.1400
  472MOL0     H63692   2.539   2.104   8.062 -0.9599 -1.3022  0.3566
  472MOL0     H63693   2.548   2.284   8.065 -0.8720 -0.0539 -3.6840
  472MOL0     H63694   2.294   2.143   7.967  0.1750 -0.8335 -0.9599
  472MOL0     H63695   2.339   2.306   7.954  0.7058 -0.8143 -0.6333
  472MOL0     H63696   2.511   2.087   7.832  3.5550  1.8459  1.2114
  472MOL0     H63697   2.513   2.261   7.786 -2.0722  1.3653 -0.1915
  472MOL0     H63698   2.254   2.235   7.714 -0.2440  0.5156  2.5775
  472MOL0     H63699   2.393   2.169   7.617 -2.2106  0.4201 -0.1315
  472MOL0     H63700   2.094   2.617   8.568  2.3871  0.8804 -0.2485
  472MOL0     H63701   2.036   2.860   8.557  0.4402  0.8173 -1.2610
  472MOL0     H63702   2.069   3.226   8.205  1.1282 -0.0196  0.2156
  472MOL0     H63703   2.057   3.441   8.170  0.8064 -0.7265  0.1143
  472MOL0     H63704   2.785   4.811   7.273 -0.2101  0.5198  1.0802
  472MOL0     H63705   2.938   4.996   7.203 -2.5526 -1.2148  1.4423
  472MOL0     H63706   3.414   5.107   7.224 -0.0187  1.4013  1.8332
  472MOL0     H63707   3.522   5.332   7.241 -0.0894 -1.2635  0.5377
  472MOL0     H63708   3.605   5.662   7.185 -0.3073  0.7285  1.3734
  472MOL0     H63709   3.492   5.552   7.275 -0.7044 -1.5855 -1.0409
  472MOL0     H63710   3.398   5.760   7.258 -1.8928 -0.5744  0.1835
  472MOL0     H63711   3.307   5.641   7.174  0.0870  0.3963  0.4737
  472MOL0     H63712   3.313   5.849   7.059 -0.4108  0.9076 -2.6475
  472MOL0     H63713   3.395   5.742   6.948 -0.2642  0.6514 -0.9694
  472MOL0     H63714   3.600   5.818   6.998 -0.3000  2.3884 -4.3361
  472MOL0     H63715   3.499   5.951   6.973  0.4419  0.1753  0.0829
  472MOL0     H63716   3.643   6.051   7.357 -1.3738  0.5703  0.1765
  472MOL0     H63717   3.351   5.449   6.880 -0.6074  0.2033  0.0259
  472MOL0     H63718   3.213   5.304   6.743 -2.5101 -0.7582 -1.5485
  472MOL0     H63719   3.190   5.140   6.777 -0.1712  0.1385 -0.8458
  472MOL0     H63720   3.077   5.257   6.844 -0.3861 -1.7404  0.3619
  473MOL0     O63721   1.453  11.168   9.760  0.1935  0.0474  0.2083
  473MOL0     C63722   1.435  11.077   9.839  1.0106 -0.0852  0.3255
  473MOL0     O63723   1.331  10.991   9.833  0.2071  0.0007  0.2647
  473MOL0     C63724   1.240  11.006   9.729 -0.0338 -0.1680  0.3811
  473MOL0     C63725   1.271  11.026   9.593  0.2092 -0.1079  0.0888
  473MOL0     C63726   1.165  11.022   9.497  0.1452  0.8191 -1.3462
  473MOL0     C63727   1.035  10.986   9.530  0.2256  0.2142 -0.2956
  473MOL0     O63728   0.930  10.985   9.438 -0.8679 -0.1543 -0.5582
  473MOL0     C63729   0.825  11.086   9.463 -0.6025 -0.5595 -0.0090
  473MOL0     C63730   0.845  11.219   9.378 -0.0268 -0.3238  1.2119
  473MOL0     C63731   0.778  11.218   9.240 -0.0230  0.4429  0.1209
  473MOL0     C63732   0.873  11.146   9.139 -0.6979 -0.8126 -0.7786
  473MOL0     C63733   0.836  11.171   8.991  0.3942  0.0406  0.5303
  473MOL0     C63734   0.704  11.117   8.932 -0.1930  0.3603 -0.1273
  473MOL0     C63735   0.674  10.972   8.967  0.4782 -0.5319  0.4545
  473MOL0     C63736   0.563  10.912   8.870 -0.3150  0.0625 -0.5958
  473MOL0     N63737   0.427  10.978   8.891  0.0824 -0.3056 -0.2699
  473MOL0     C63738   0.352  11.021   8.793 -0.1757  0.0704  1.8327
  473MOL0     C63739   0.277  11.126   8.834 -0.2098  0.1441 -0.1039
  473MOL0     C63740   0.217  11.239   8.746  0.0707 -0.4400  0.6699
  473MOL0     C63741   0.104  11.309   8.819  0.6702 -0.0982  0.5541
  473MOL0     C63742   0.017  11.398   8.723  0.1323 -0.0263  1.1118
  473MOL0     C63743   0.090  11.508   8.642  0.7453  0.0940  0.3221
  473MOL0     O63744  -0.015  11.579   8.577  0.1004  0.4067  0.3513
  473MOL0     C63745   0.014  11.686   8.505 -0.1199  0.3968  0.1657
  473MOL0     C63746   0.144  11.711   8.459 -0.6363  0.0573 -0.6241
  473MOL0     C63747   0.167  11.813   8.369  0.1565  0.6014 -0.1153
  473MOL0     C63748   0.064  11.905   8.340 -0.5482  0.8947 -0.1288
  473MOL0     C63749   0.104  12.028   8.270 -0.5070  1.1174 -1.1108
  473MOL0     O63750   0.236  12.078   8.286  0.2564  0.2440 -0.4042
  473MOL0     C63751   0.263  12.207   8.249 -0.8758 -0.2334  0.2359
  473MOL0     C63752   0.377  12.221   8.169 -0.4448  0.1620 -0.5041
  473MOL0     C63753   0.414  12.353   8.124 -0.6320  0.0287  0.1819
  473MOL0     C63754   0.344  12.472   8.153 -0.1162  0.6447 -0.3970
  473MOL0     O63755   0.380  12.598   8.110 -0.2919  0.0039  0.8057
  473MOL0     C63756   0.438  12.628   7.976  0.7415  0.6518  0.2110
  473MOL0     C63757   0.592  12.612   7.960  0.5088  0.8837 -0.3839
  473MOL0     C63758   0.631  12.663   7.823  0.1918  0.0565  0.2052
  473MOL0     C63759   0.778  12.631   7.803  1.1069 -0.7530  0.8099
  473MOL0     C63760   0.830  12.689   7.667  0.7028  0.5213 -0.2835
  473MOL0     C63761   0.979  12.666   7.649 -0.4210  0.0545  0.0108
  473MOL0     C63762   1.026  12.705   7.515 -0.6234  0.9546  0.6352
  473MOL0     C63763   1.176  12.691   7.482 -0.1303 -0.5080  0.1525
  473MOL0    Cl63764   1.205  12.821   7.353 -0.0614  0.7731 -0.0792
  473MOL0     C63765   0.234  12.455   8.236  0.4561 -0.1436  1.0098
  473MOL0     C63766   0.190  12.327   8.277  0.1796 -0.2010  0.1756
  473MOL0     O63767   0.021  12.085   8.202 -0.6474  0.2245 -0.5611
  473MOL0     C63768  -0.066  11.880   8.383 -0.7090 -0.1400  0.1780
  473MOL0     C63769  -0.084  11.775   8.469 -0.7530 -0.3368  0.2184
  473MOL0     N63770   0.289  11.125   8.972  0.8116 -0.2719  0.2021
  473MOL0     N63771   0.378  11.029   9.002  0.2819  0.2573  0.5371
  473MOL0     C63772   1.007  10.956   9.668 -0.1098  0.3778 -0.2693
  473MOL0     C63773   1.113  10.968   9.760 -0.2341 -1.1579  0.5575
  473MOL0     C63774   1.537  11.036   9.944  0.0167  0.3981  0.8121
  473MOL0     C63775   1.498  10.960  10.060 -0.0254  0.3437  0.7565
  473MOL0     C63776   1.585  10.931  10.163  1.1820 -0.2609 -0.4304
  473MOL0     C63777   1.713  10.979  10.164 -0.4752  0.3460 -0.0631
  473MOL0     O63778   1.796  10.948  10.279  0.1914 -0.3323 -0.6428
  473MOL0     C63779   1.929  10.998  10.279 -0.3768 -0.0252 -0.1342
  473MOL0     C63780   2.000  10.916  10.388 -0.6829 -0.1598  0.2729
  473MOL0     C63781   2.146  10.912  10.366  0.0645  0.4854 -0.5023
  473MOL0     C63782   2.215  10.809  10.461 -0.0355  1.1660 -0.3176
  473MOL0     C63783   2.176  10.828  10.603  0.5193  0.5491 -0.2305
  473MOL0     C63784   2.140  10.833  10.721  0.1307  0.4456 -0.2616
  473MOL0     C63785   1.751  11.066  10.057 -0.5567 -0.6815  0.3889
  473MOL0     C63786   1.671  11.088   9.940  0.8123  0.9438 -0.6074
  473MOL0     C63787   1.740  11.181   9.837  0.0150  0.5040 -0.5033
  473MOL0     H63788   1.375  11.047   9.572  0.5455 -0.9878  0.8025
  473MOL0     H63789   1.190  11.035   9.392 -0.7796  0.1328 -1.6621
  473MOL0     H63790   0.728  11.041   9.439 -1.2213  0.0939  1.1829
  473MOL0     H63791   0.821  11.106   9.570 -1.1524 -2.3463  0.3477
  473MOL0     H63792   0.954  11.234   9.374 -0.2700  1.2883 -1.4028
  473MOL0     H63793   0.804  11.306   9.430  0.7326  0.4273  0.5889
  473MOL0     H63794   0.748  11.317   9.204 -0.7901 -0.7383 -2.7824
  473MOL0     H63795   0.685  11.161   9.247  0.3460 -0.2852 -0.6709
  473MOL0     H63796   0.979  11.169   9.153 -0.6147  0.7853 -3.3479
  473MOL0     H63797   0.861  11.041   9.168  0.0491 -0.4652  0.8972
  473MOL0     H63798   0.831  11.279   8.972  0.1175  0.5569  3.1509
  473MOL0     H63799   0.918  11.131   8.932 -0.9483  1.7775 -2.8076
  473MOL0     H63800   0.615  11.174   8.963 -1.3623 -2.3685  1.9666
  473MOL0     H63801   0.719  11.132   8.825 -1.8816  1.6330 -0.2435
  473MOL0     H63802   0.634  10.970   9.069  0.7528 -2.4928  0.5708
  473MOL0     H63803   0.758  10.902   8.963 -0.9686 -2.3159 -0.0155
  473MOL0     H63804   0.591  10.922   8.765 -1.7077 -3.1769 -1.4069
  473MOL0     H63805   0.545  10.806   8.891 -0.9747  0.2239 -0.3263
  473MOL0     H63806   0.369  10.994   8.689  0.8882 -1.6115  2.4063
  473MOL0     H63807   0.303  11.300   8.717  1.3403 -1.9298  1.1997
  473MOL0     H63808   0.171  11.188   8.660  1.6028 -0.0652 -0.4064
  473MOL0     H63809   0.043  11.232   8.868 -1.0343 -0.5142 -2.0061
  473MOL0     H63810   0.150  11.362   8.902  1.6391 -0.1662  0.0810
  473MOL0     H63811  -0.047  11.458   8.788  0.0490 -1.1771  2.1213
  473MOL0     H63812  -0.045  11.329   8.664  1.0505 -0.4580  0.6331
  473MOL0     H63813   0.159  11.462   8.571 -0.0222 -0.5664 -0.0073
  473MOL0     H63814   0.143  11.581   8.704  1.7815  2.1690 -2.7587
  473MOL0     H63815   0.226  11.645   8.488  0.0890  2.2385  2.9465
  473MOL0     H63816   0.266  11.826   8.327  1.5519 -3.1486  1.5585
  473MOL0     H63817   0.446  12.138   8.159 -0.5386 -0.1973  1.4321
  473MOL0     H63818   0.510  12.381   8.082 -0.8781  1.4860  0.5342
  473MOL0     H63819   0.378  12.576   7.901  1.3422  1.3191 -0.7520
  473MOL0     H63820   0.422  12.737   7.974 -0.2367  0.5074 -1.1389
  473MOL0     H63821   0.639  12.676   8.035  1.4862  0.9994 -1.0897
  473MOL0     H63822   0.631  12.511   7.979 -0.7359 -0.2961 -3.5001
  473MOL0     H63823   0.580  12.609   7.744  1.3846 -1.9966  0.7817
  473MOL0     H63824   0.614  12.771   7.812 -1.9451 -0.1221  1.2620
  473MOL0     H63825   0.790  12.522   7.804  2.6876 -0.6212  0.1412
  473MOL0     H63826   0.842  12.665   7.885  0.1089  0.9308  0.9328
  473MOL0     H63827   0.806  12.795   7.677  1.7072  0.7871 -0.5128
  473MOL0     H63828   0.764  12.640   7.595  0.7388 -0.2790  0.2241
  473MOL0     H63829   1.031  12.738   7.713  0.5289 -0.5763 -0.0250
  473MOL0     H63830   0.991  12.559   7.672 -0.8814  0.2054  1.0173
  473MOL0     H63831   0.991  12.805   7.489 -0.4802  0.5574 -1.2294
  473MOL0     H63832   0.981  12.639   7.440  2.9238 -0.8345 -0.1423
  473MOL0     H63833   1.235  12.713   7.571 -1.4000  0.6580  0.7435
  473MOL0     H63834   1.196  12.589   7.448 -0.7741 -0.1591 -1.3583
  473MOL0     H63835   0.172  12.541   8.257  1.4558  0.6252  0.8907
  473MOL0     H63836   0.099  12.320   8.336  0.3449  5.0097  1.5050
  473MOL0     H63837  -0.150  11.949   8.372 -0.9766 -0.6822 -1.5619
  473MOL0     H63838  -0.183  11.759   8.511 -1.1726 -4.4478 -1.8433
  473MOL0     H63839   0.909  10.924   9.705  0.5147 -1.2734  0.0578
  473MOL0     H63840   1.084  10.949   9.862 -1.9650  0.4572  0.4139
  473MOL0     H63841   1.397  10.921  10.066  0.4719 -0.8619  1.6814
  473MOL0     H63842   1.542  10.870  10.242 -1.5039 -0.5314 -2.0002
  473MOL0     H63843   1.940  11.105  10.297  3.2193 -0.2454 -0.3228
  473MOL0     H63844   1.975  10.972  10.183 -3.4631 -0.2623 -1.6633
  473MOL0     H63845   1.964  10.815  10.365  2.1686 -0.9154 -1.2776
  473MOL0     H63846   1.982  10.953  10.490 -1.1657  2.8974 -0.7927
  473MOL0     H63847   2.189  11.012  10.383 -0.9161  0.5181  2.2576
  473MOL0     H63848   2.164  10.887  10.261 -3.6825  1.6107 -1.5681
  473MOL0     H63849   2.165  10.714  10.440  0.5627  0.5988  0.7434
  473MOL0     H63850   2.324  10.798  10.453  0.1989  2.4164  0.7272
  473MOL0     H63851   2.109  10.831  10.823  1.3479 -1.2352  0.1127
  473MOL0     H63852   1.844  11.120  10.070 -0.4243 -1.4087  2.8671
  473MOL0     H63853   1.724  11.143   9.736 -1.4688  1.9507 -0.8557
  473MOL0     H63854   1.684  11.274   9.828 -3.2904 -1.4260 -1.8036
  473MOL0     H63855   1.849  11.183   9.846  0.0205 -0.8486 -0.0345
  474MOL0     O63856  11.038  10.619   8.997 -0.1755 -0.0775 -0.5344
  474MOL0     C63857  10.958  10.608   8.907  0.4392 -0.5826 -0.4741
  474MOL0     O63858  10.850  10.695   8.898  0.4792 -0.8912  0.8180
  474MOL0     C63859  10.817  10.774   9.005  0.3770 -0.1564  0.1055
  474MOL0     C63860  10.837  10.745   9.141 -0.9318 -0.7311  0.6469
  474MOL0     C63861  10.786  10.819   9.248  0.9474  0.3619  1.0074
  474MOL0     C63862  10.703  10.930   9.212  0.3818 -0.3519 -0.3213
  474MOL0     O63863  10.640  10.996   9.316 -0.1444  0.3468  1.0492
  474MOL0     C63864  10.589  11.129   9.293  0.3809  0.8478  0.2517
  474MOL0     C63865  10.566  11.207   9.428 -0.4131  0.0468  0.7292
  474MOL0     C63866  10.457  11.131   9.506 -0.6145  0.0863 -0.0327
  474MOL0     C63867  10.473  11.174   9.656  0.4066  0.2659 -0.7224
  474MOL0     C63868  10.374  11.118   9.752 -0.3546  0.0766  0.6333
  474MOL0     C63869  10.428  11.124   9.893 -0.1375 -0.2597  0.4586
  474MOL0     C63870  10.310  11.072   9.975 -0.3501 -0.1587  0.4784
  474MOL0     C63871  10.342  11.086  10.117  0.0369 -0.7496 -0.8471
  474MOL0     N63872  10.465  11.010  10.150  0.5816 -0.2865 -0.6140
  474MOL0     C63873  10.473  10.869  10.148 -0.0122  0.8352 -0.4288
  474MOL0     C63874  10.605  10.839  10.163 -0.5257 -0.2396 -0.1668
  474MOL0     C63875  10.672  10.701  10.159 -0.1060 -0.1543  0.1872
  474MOL0     C63876  10.578  10.587  10.203 -0.3433  0.2942 -0.3933
  474MOL0     C63877  10.634  10.438  10.199  0.5598  0.1288  0.8972
  474MOL0     C63878  10.722  10.412  10.327  1.1132 -0.6545  0.2087
  474MOL0     O63879  10.726  10.275  10.347  1.2119  0.8658 -0.3986
  474MOL0     C63880  10.773  10.186  10.250 -0.8777  0.4205  0.4603
  474MOL0     C63881  10.897  10.207  10.191 -0.8974 -0.2546  0.1898
  474MOL0     C63882  10.947  10.112  10.094 -0.6409  0.0757 -0.6022
  474MOL0     C63883  10.864  10.009  10.051  0.0161  0.2837 -0.0784
  474MOL0     C63884  10.906   9.927   9.938 -0.4234  0.7675 -0.3275
  474MOL0     O63885  11.002   9.977   9.859 -0.6619 -0.2299 -0.1114
  474MOL0     C63886  11.068   9.883   9.774  0.1857  0.6915 -0.5023
  474MOL0     C63887  11.152   9.772   9.813  0.4118 -0.3464  0.7856
  474MOL0     C63888  11.214   9.692   9.722 -0.0259  0.1429  0.4202
  474MOL0     C63889  11.181   9.713   9.589 -0.5292  0.9171  0.1848
  474MOL0     O63890  11.218   9.634   9.488 -1.1377 -0.5820 -0.4537
  474MOL0     C63891  11.186   9.492   9.516  1.2690  0.2872 -0.3653
  474MOL0     C63892  11.197   9.411   9.385  0.4210  0.4772  0.4649
  474MOL0     C63893  11.073   9.437   9.293 -0.2774 -0.6732 -0.0777
  474MOL0     C63894  11.099   9.368   9.159 -0.3281  0.5033  0.5915
  474MOL0     C63895  10.992   9.420   9.052 -0.3104  0.5777  0.1173
  474MOL0     C63896  10.987   9.318   8.933 -0.8805 -0.2608  0.7753
  474MOL0     C63897  11.122   9.303   8.857 -0.2520 -0.0622  0.1433
  474MOL0     C63898  11.092   9.247   8.720 -0.5079 -0.0406  0.0994
  474MOL0    Cl63899  11.020   9.082   8.730  0.0303  0.3790 -0.4972
  474MOL0     C63900  11.104   9.825   9.548 -0.1814  0.0166  0.1792
  474MOL0     C63901  11.045   9.909   9.641  0.4547  0.5002  0.1723
  474MOL0     O63902  10.864   9.810   9.930 -0.6199 -0.1470 -0.3566
  474MOL0     C63903  10.735   9.987  10.117  0.1104  0.9308  0.1850
  474MOL0     C63904  10.692  10.079  10.207 -0.6713  0.5370 -0.0538
  474MOL0     N63905  10.669  10.967  10.184  0.4017  0.4301 -0.4227
  474MOL0     N63906  10.588  11.061  10.176 -0.6253  0.7824  0.4812
  474MOL0     C63907  10.677  10.958   9.078 -0.4282  0.5963 -0.1288
  474MOL0     C63908  10.732  10.883   8.977 -0.7543  1.0917 -0.2488
  474MOL0     C63909  10.973  10.492   8.819 -0.3555 -0.3643  0.2249
  474MOL0     C63910  10.903  10.497   8.692 -0.1250  0.4492 -0.0061
  474MOL0     C63911  10.918  10.396   8.595  0.4697  0.5730 -0.3334
  474MOL0     C63912  11.002  10.294   8.623 -1.0427  0.4612  0.3080
  474MOL0     O63913  11.031  10.211   8.523  0.0246 -0.4097 -0.1618
  474MOL0     C63914  10.940  10.109   8.510  0.7924  0.2303 -0.6965
  474MOL0     C63915  10.921  10.091   8.360  0.6432  0.1045 -0.6542
  474MOL0     C63916  11.025   9.996   8.299  0.9435 -0.0581 -0.4125
  474MOL0     C63917  11.165  10.054   8.322  0.7787 -0.1387 -0.4255
  474MOL0     C63918  11.260  10.018   8.217 -0.3564  1.2633 -0.4910
  474MOL0     C63919  11.329   9.974   8.120 -0.2774 -0.1430  0.2043
  474MOL0     C63920  11.056  10.270   8.749 -0.8692  0.1769  0.3240
  474MOL0     C63921  11.047  10.371   8.849  0.5386  0.1923 -0.2953
  474MOL0     C63922  11.109  10.337   8.983  0.6272  0.2607  0.1970
  474MOL0     H63923  10.892  10.657   9.173  0.7407 -1.3253 -3.2962
  474MOL0     H63924  10.784  10.777   9.348 -0.5384  3.5693  2.4689
  474MOL0     H63925  10.654  11.198   9.238 -0.7348  1.4750 -0.3227
  474MOL0     H63926  10.494  11.124   9.239  0.5343  0.7389 -0.0097
  474MOL0     H63927  10.526  11.308   9.413 -1.4877  0.1042  3.4035
  474MOL0     H63928  10.657  11.225   9.486  0.1871  3.0133 -0.9522
  474MOL0     H63929  10.471  11.024   9.525  1.3490  0.6377  1.9930
  474MOL0     H63930  10.359  11.161   9.466 -1.1087 -2.4795 -0.9325
  474MOL0     H63931  10.574  11.144   9.688  0.5866 -0.1452 -1.6382
  474MOL0     H63932  10.464  11.282   9.668 -0.0056  0.5385 -3.1029
  474MOL0     H63933  10.273  11.159   9.746 -0.1219  0.5298 -0.4724
  474MOL0     H63934  10.363  11.016   9.716 -2.1173 -0.4280  2.4057
  474MOL0     H63935  10.518  11.061   9.894  3.3971  4.2369  0.0992
  474MOL0     H63936  10.451  11.227   9.923  0.0021 -0.1588  0.0098
  474MOL0     H63937  10.299  10.966   9.949 -0.1317 -0.0306 -0.1607
  474MOL0     H63938  10.215  11.117   9.947 -0.2430 -0.8250 -1.0910
  474MOL0     H63939  10.354  11.194  10.130 -1.2224 -0.2570 -3.2246
  474MOL0     H63940  10.263  11.061  10.189  2.2484 -2.9427  0.9863
  474MOL0     H63941  10.397  10.794  10.131  0.8044  0.1349 -1.0588
  474MOL0     H63942  10.721  10.677  10.065  2.4535  3.5011  0.3575
  474MOL0     H63943  10.757  10.715  10.226 -0.4156  1.1656  0.3424
  474MOL0     H63944  10.552  10.612  10.306  1.1056  2.2652 -0.4530
  474MOL0     H63945  10.489  10.581  10.139  0.0784 -0.3680 -0.9395
  474MOL0     H63946  10.692  10.407  10.111 -0.2994 -2.2780  1.0971
  474MOL0     H63947  10.548  10.371  10.211 -1.2025  1.9199 -1.1082
  474MOL0     H63948  10.667  10.454  10.412 -1.1466  0.3611 -1.6367
  474MOL0     H63949  10.824  10.449  10.315  1.2547 -1.4308 -1.2384
  474MOL0     H63950  10.941  10.303  10.217  1.4136 -1.0315 -0.5501
  474MOL0     H63951  11.040  10.123  10.039 -0.5048  1.4829 -0.1342
  474MOL0     H63952  11.166   9.752   9.919 -0.1783  0.8771  1.1136
  474MOL0     H63953  11.259   9.603   9.763  2.6193  2.2802  2.5432
  474MOL0     H63954  11.260   9.448   9.583  0.1774 -2.6504 -0.9475
  474MOL0     H63955  11.087   9.480   9.563  2.0781 -2.7699  0.8025
  474MOL0     H63956  11.285   9.446   9.329 -1.5452  2.6042 -1.5845
  474MOL0     H63957  11.203   9.305   9.410  0.6353 -0.1573 -2.0161
  474MOL0     H63958  10.977   9.406   9.334 -0.4000 -0.1454  0.0367
  474MOL0     H63959  11.060   9.545   9.283  1.4879 -0.2235  1.8883
  474MOL0     H63960  11.085   9.261   9.178  2.2923  0.0878  0.6063
  474MOL0     H63961  11.202   9.369   9.124 -1.2611  0.5230 -2.3936
  474MOL0     H63962  11.017   9.523   9.027  2.5710  0.3578  1.6976
  474MOL0     H63963  10.899   9.421   9.110  0.1850 -1.3464  1.0299
  474MOL0     H63964  10.957   9.220   8.971 -0.8479  1.0638  4.6470
  474MOL0     H63965  10.909   9.350   8.863  1.2855 -0.0233 -1.6880
  474MOL0     H63966  11.188   9.235   8.910 -1.9486 -1.6826  0.2817
  474MOL0     H63967  11.176   9.398   8.849  1.7901 -1.2870 -1.7862
  474MOL0     H63968  11.024   9.317   8.671 -0.8410 -1.2845 -1.2715
  474MOL0     H63969  11.186   9.249   8.663 -0.5318 -2.2718 -0.0923
  474MOL0     H63970  11.085   9.845   9.443 -0.9725  4.7309  0.9763
  474MOL0     H63971  10.973   9.985   9.610  3.3595  3.2509 -0.4384
  474MOL0     H63972  10.676   9.901  10.087  1.2974 -0.4157  1.5688
  474MOL0     H63973  10.600  10.070  10.264  0.2694 -1.1838  1.2646
  474MOL0     H63974  10.611  11.039   9.050 -1.2373  0.4496  1.2749
  474MOL0     H63975  10.701  10.906   8.876 -1.1598  0.3292 -0.3054
  474MOL0     H63976  10.843  10.582   8.661 -3.4024 -1.3792  0.7709
  474MOL0     H63977  10.875  10.405   8.495  3.3060  2.4184 -1.5151
  474MOL0     H63978  10.851  10.146   8.562  2.0664  1.1121  0.9570
  474MOL0     H63979  10.979  10.020   8.561 -2.5558 -0.7889  0.2929
  474MOL0     H63980  10.922  10.190   8.313 -0.5000  1.3231  1.7075
  474MOL0     H63981  10.828  10.040   8.331  0.8569  0.4442 -2.0151
  474MOL0     H63982  11.001   9.997   8.192  1.6637  3.7189 -0.6518
  474MOL0     H63983  11.017   9.894   8.339 -1.6170 -1.2976 -3.6103
  474MOL0     H63984  11.169  10.163   8.318  2.9024 -0.2054 -1.4065
  474MOL0     H63985  11.213  10.025   8.416  1.9362  0.2370 -0.8839
  474MOL0     H63986  11.356   9.960   8.017 -0.6004  2.1468 -0.2610
  474MOL0     H63987  11.125  10.189   8.771 -0.5714  0.3633  0.0884
  474MOL0     H63988  11.173  10.249   8.970 -0.0946 -0.0694 -1.3157
  474MOL0     H63989  11.175  10.412   9.026 -1.0617  2.3311 -0.6443
  474MOL0     H63990  11.028  10.326   9.056  0.6051  1.5146  0.3823
  475MOL0     O63991  10.044   9.683   5.434  0.3169  0.2701 -0.7490
  475MOL0     C63992   9.991   9.620   5.347  1.0901  0.0182 -0.2290
  475MOL0     O63993   9.937   9.679   5.230 -1.3313 -0.2895 -0.8495
  475MOL0     C63994   9.959   9.813   5.212  0.1042  0.5958  1.5236
  475MOL0     C63995  10.075   9.860   5.151 -1.5564  0.6720 -0.8411
  475MOL0     C63996  10.100   9.993   5.127 -0.3170 -0.3552 -0.8096
  475MOL0     C63997  10.007  10.090   5.169 -0.8084  0.0467  0.7197
  475MOL0     O63998  10.023  10.226   5.156 -0.2846 -0.3437  0.2154
  475MOL0     C63999  10.154  10.280   5.118 -0.5113 -0.6800  0.1684
  475MOL0     C64000  10.171  10.427   5.150 -0.7208  0.5540 -0.1272
  475MOL0     C64001  10.317  10.478   5.182 -0.2764 -0.6382 -0.6363
  475MOL0     C64002  10.348  10.628   5.163  0.2400  0.8362  0.5132
  475MOL0     C64003  10.402  10.656   5.024 -0.0837 -0.8570 -0.7992
  475MOL0     C64004  10.446  10.800   5.003 -0.0240 -0.1871 -0.2569
  475MOL0     C64005  10.461  10.827   4.847 -0.4136 -0.1411 -0.1249
  475MOL0     C64006  10.529  10.957   4.807  0.3317 -0.5136  0.7832
  475MOL0     N64007  10.576  10.964   4.667 -0.3746 -0.0388 -0.0147
  475MOL0     C64008  10.494  11.005   4.561 -0.2746 -0.1617 -0.0715
  475MOL0     C64009  10.566  10.958   4.450 -0.8578  0.4095  0.0496
  475MOL0     C64010  10.532  10.972   4.306  0.0308  0.5347  0.1557
  475MOL0     C64011  10.477  10.833   4.267 -0.1615 -0.0191  0.4431
  475MOL0     C64012  10.584  10.735   4.221  0.4415  0.8959 -1.0221
  475MOL0     C64013  10.524  10.604   4.163 -0.5933  0.8149  0.9552
  475MOL0     O64014  10.629  10.536   4.094  0.3096  0.4239 -0.5016
  475MOL0     C64015  10.590  10.472   3.981 -0.1728 -1.1449  0.1615
  475MOL0     C64016  10.687  10.464   3.884 -0.3110 -0.0811  0.1624
  475MOL0     C64017  10.666  10.411   3.754  1.3731 -0.3971  0.4657
  475MOL0     C64018  10.537  10.358   3.734  0.5814 -0.6044 -0.1485
  475MOL0     C64019  10.503  10.302   3.602 -0.2706  0.7408 -0.2151
  475MOL0     O64020  10.381  10.255   3.585 -0.1917  0.7373 -0.1824
  475MOL0     C64021  10.327  10.216   3.461 -0.5402 -0.9315 -0.5467
  475MOL0     C64022  10.320  10.082   3.423  0.3604 -0.3259 -0.5065
  475MOL0     C64023  10.259  10.046   3.303 -0.0304  0.6777 -1.2975
  475MOL0     C64024  10.183  10.133   3.233 -0.7706  0.0084  0.9235
  475MOL0     O64025  10.093  10.100   3.139  0.2407 -0.2989  0.2710
  475MOL0     C64026  10.009   9.980   3.140 -0.2153  0.3764 -0.2852
  475MOL0     C64027   9.885  10.001   3.053  0.3433 -0.9309 -0.1271
  475MOL0     C64028   9.912  10.008   2.904 -0.4018 -0.3105  0.1600
  475MOL0     C64029   9.784  10.019   2.820 -0.5015 -0.9968  0.1732
  475MOL0     C64030   9.819  10.068   2.670  0.5081  0.1832  0.4226
  475MOL0     C64031   9.714  10.026   2.564 -0.0838 -0.6743  0.5830
  475MOL0     C64032   9.747  10.082   2.426 -0.8887  0.0760 -0.2961
  475MOL0     C64033   9.614  10.090   2.340  0.7456  0.2341  0.5497
  475MOL0    Cl64034   9.558   9.921   2.306 -0.1473  0.2055 -0.0746
  475MOL0     C64035  10.188  10.272   3.270  0.8112  0.0489  0.7728
  475MOL0     C64036  10.266  10.315   3.377 -0.8370 -0.0458  0.7550
  475MOL0     O64037  10.589  10.319   3.516 -0.2039  0.3500 -0.0808
  475MOL0     C64038  10.443  10.359   3.838 -0.1029 -0.4281 -1.1499
  475MOL0     C64039  10.473  10.408   3.961 -0.2523 -0.7989  0.6879
  475MOL0     N64040  10.690  10.911   4.491 -0.4693 -0.9501  0.3104
  475MOL0     N64041  10.688  10.908   4.619  0.9319  0.1286  0.3904
  475MOL0     C64042   9.886  10.040   5.226 -0.6768  0.3967 -1.0867
  475MOL0     C64043   9.862   9.906   5.234 -0.3226  1.0547 -1.0181
  475MOL0     C64044   9.978   9.473   5.361 -0.8485 -0.1344 -0.2437
  475MOL0     C64045  10.010   9.401   5.242 -0.2335 -0.1337 -0.3582
  475MOL0     C64046  10.008   9.265   5.246 -0.1338  0.4851 -0.9529
  475MOL0     C64047  10.003   9.200   5.365 -0.3918 -0.2890 -0.8726
  475MOL0     O64048  10.037   9.072   5.365 -0.4125  0.6796  0.0191
  475MOL0     C64049   9.992   8.980   5.459 -0.0760 -0.7105  0.2237
  475MOL0     C64050   9.846   8.966   5.449 -0.8074  0.3018 -0.9293
  475MOL0     C64051   9.789   8.848   5.532  0.0479 -0.4380 -0.1406
  475MOL0     C64052   9.779   8.892   5.683 -0.2038 -0.3706 -0.0630
  475MOL0     C64053   9.724   8.786   5.766 -0.4671  0.2066 -0.0422
  475MOL0     C64054   9.678   8.719   5.847  0.8920 -0.3536  0.3612
  475MOL0     C64055   9.982   9.270   5.487 -0.0172  0.1510 -0.6257
  475MOL0     C64056   9.964   9.409   5.491  0.1881  1.6071 -0.4956
  475MOL0     C64057   9.917   9.478   5.622 -0.6702  0.8141 -0.4373
  475MOL0     H64058  10.148   9.782   5.132 -1.0348  0.4058  1.7976
  475MOL0     H64059  10.201  10.020   5.097  0.0111  0.1705  0.6771
  475MOL0     H64060  10.222  10.217   5.176 -3.4221 -2.8226  1.5067
  475MOL0     H64061  10.185  10.255   5.016 -3.3236 -0.9027 -0.7373
  475MOL0     H64062  10.103  10.451   5.233  1.9934 -0.2221  2.5108
  475MOL0     H64063  10.140  10.476   5.057 -1.2414  0.5711  0.0512
  475MOL0     H64064  10.398  10.435   5.122  0.8861 -0.7017  0.9055
  475MOL0     H64065  10.344  10.440   5.281  1.9156  0.0970 -0.9083
  475MOL0     H64066  10.259  10.688   5.185 -0.1911  0.7633 -0.9297
  475MOL0     H64067  10.431  10.654   5.230  1.4088 -1.1631 -0.0772
  475MOL0     H64068  10.495  10.601   5.010  1.1615  0.6686  0.9021
  475MOL0     H64069  10.323  10.629   4.953 -1.8143  1.0653  0.2690
  475MOL0     H64070  10.383  10.877   5.049  2.9565  0.7147  2.7318
  475MOL0     H64071  10.542  10.800   5.055 -1.1970  1.1087  2.0330
  475MOL0     H64072  10.360  10.828   4.806 -0.4225 -0.6430 -0.1318
  475MOL0     H64073  10.507  10.736   4.806  1.8202  0.1881  1.4629
  475MOL0     H64074  10.476  11.049   4.834 -0.5335 -0.7780  0.0400
  475MOL0     H64075  10.616  10.959   4.873  0.1487  3.8165  1.1634
  475MOL0     H64076  10.404  11.066   4.565 -0.1563  0.3315 -2.7375
  475MOL0     H64077  10.456  11.045   4.279  0.1905  1.2538  1.5765
  475MOL0     H64078  10.628  10.987   4.254 -0.3823  0.1100 -0.7579
  475MOL0     H64079  10.408  10.803   4.347 -1.3712  0.6218 -0.3094
  475MOL0     H64080  10.403  10.836   4.186 -0.7111 -1.9892  0.8242
  475MOL0     H64081  10.649  10.710   4.305 -2.0279 -0.0192  0.7306
  475MOL0     H64082  10.647  10.787   4.148  3.2075 -1.2275 -0.3237
  475MOL0     H64083  10.452  10.642   4.091  0.7280  0.9171 -0.3541
  475MOL0     H64084  10.490  10.537   4.243 -1.7854 -1.4241 -1.3049
  475MOL0     H64085  10.785  10.506   3.907 -1.1488  2.7541 -0.9080
  475MOL0     H64086  10.749  10.419   3.684 -0.1033  1.8301 -1.1830
  475MOL0     H64087  10.382  10.007   3.471  1.1931  0.4032 -0.4130
  475MOL0     H64088  10.271   9.943   3.271 -0.5268  0.4715 -0.8343
  475MOL0     H64089  10.067   9.895   3.104  1.9539  2.0940 -1.0599
  475MOL0     H64090   9.964   9.958   3.237 -2.7848  3.2126 -0.6949
  475MOL0     H64091   9.815   9.916   3.060  0.7638 -1.3969 -1.4134
  475MOL0     H64092   9.839  10.089   3.099 -3.3027 -2.1155 -1.1606
  475MOL0     H64093   9.967  10.099   2.877 -1.4239  1.7841  4.3518
  475MOL0     H64094   9.962   9.922   2.859 -1.5386 -0.1274 -1.6017
  475MOL0     H64095   9.720  10.098   2.859 -2.2103 -1.5173 -1.4262
  475MOL0     H64096   9.730   9.924   2.811  2.8647 -2.8750 -4.7239
  475MOL0     H64097   9.911  10.023   2.632 -0.2960 -0.9189 -0.3004
  475MOL0     H64098   9.834  10.176   2.668  0.2036  0.3056  2.4495
  475MOL0     H64099   9.713   9.916   2.561  0.6776 -0.6739  0.1308
  475MOL0     H64100   9.617  10.069   2.591 -0.7204 -0.3996 -1.8778
  475MOL0     H64101   9.829  10.028   2.379 -1.2430 -0.4393 -0.3247
  475MOL0     H64102   9.786  10.184   2.429  1.3950 -0.4608 -4.7315
  475MOL0     H64103   9.529  10.146   2.380  0.9062 -0.0072  1.2336
  475MOL0     H64104   9.633  10.135   2.242  0.1575 -0.9264 -0.1296
  475MOL0     H64105  10.135  10.347   3.213  2.4375  1.5365  1.1218
  475MOL0     H64106  10.283  10.420   3.396  0.0955  0.2485 -1.4486
  475MOL0     H64107  10.346  10.311   3.831  1.0362 -3.5089  1.7945
  475MOL0     H64108  10.398  10.398   4.039 -0.2236 -0.8205  0.7123
  475MOL0     H64109   9.804  10.111   5.234 -2.5726 -1.4886 -2.5472
  475MOL0     H64110   9.768   9.872   5.276 -1.5011  2.5420 -2.3171
  475MOL0     H64111  10.024   9.447   5.144  1.3863 -3.8293 -2.0679
  475MOL0     H64112  10.042   9.214   5.157 -1.1917 -3.9072  0.9054
  475MOL0     H64113  10.031   9.016   5.555  2.0164  2.1368 -1.5227
  475MOL0     H64114  10.047   8.886   5.447  2.8243  0.9345 -0.2822
  475MOL0     H64115   9.816   8.950   5.345 -0.1872 -1.6563 -0.8491
  475MOL0     H64116   9.801   9.061   5.480 -1.6666 -0.2164 -0.5370
  475MOL0     H64117   9.838   8.751   5.520 -0.3312 -0.7738  0.8874
  475MOL0     H64118   9.690   8.831   5.489 -0.1771  0.0077  0.1907
  475MOL0     H64119   9.876   8.911   5.730 -1.1343 -2.0803  2.7885
  475MOL0     H64120   9.715   8.979   5.696  0.1956 -0.1465  0.4343
  475MOL0     H64121   9.640   8.658   5.927 -3.5379  0.3913 -0.8749
  475MOL0     H64122   9.981   9.219   5.583 -0.4271 -4.0560 -2.6361
  475MOL0     H64123  10.000   9.533   5.667  2.0653 -1.5180 -2.2414
  475MOL0     H64124   9.827   9.539   5.609 -1.2736  0.2864  1.0793
  475MOL0     H64125   9.898   9.388   5.681 -1.6067  2.2215  1.5170
  476MOL0     O64126  10.997   4.746   8.414  0.0344  0.2620  0.8951
  476MOL0     C64127  11.086   4.829   8.394  0.9946 -0.0172 -0.0266
  476MOL0     O64128  11.094   4.908   8.287  0.1984  0.1300  0.1147
  476MOL0     C64129  10.998   4.916   8.192 -0.9759  0.8191 -0.5040
  476MOL0     C64130  11.041   4.890   8.060 -0.1428 -0.5569  0.0438
  476MOL0     C64131  10.965   4.936   7.954  0.1154  0.1626  0.2578
  476MOL0     C64132  10.842   5.004   7.979  0.2138  0.2682  0.1743
  476MOL0     O64133  10.775   5.049   7.863 -0.1602  0.3361 -0.5894
  476MOL0     C64134  10.732   5.193   7.863 -0.7983  0.4881 -0.1037
  476MOL0     C64135  10.850   5.280   7.849 -0.3214 -2.0057 -1.0962
  476MOL0     C64136  10.903   5.280   7.704 -0.7440  0.1770 -0.1413
  476MOL0     C64137  11.049   5.333   7.713 -0.9204  0.2321 -0.2577
  476MOL0     C64138  11.097   5.326   7.568 -1.0418  0.7352  0.4988
  476MOL0     C64139  11.239   5.397   7.546 -0.2358  0.0496 -0.1276
  476MOL0     C64140  11.239   5.549   7.579  0.8499  0.3673 -0.6605
  476MOL0     C64141  11.209   5.630   7.456 -0.0391 -0.0945 -0.4259
  476MOL0     N64142  11.203   5.772   7.469 -0.0623 -0.6255  0.2188
  476MOL0     C64143  11.093   5.847   7.494 -0.1916 -0.3320  0.7897
  476MOL0     C64144  11.147   5.966   7.499  0.0170 -1.1180  0.5789
  476MOL0     C64145  11.085   6.098   7.537  0.3274 -0.5891  1.2511
  476MOL0     C64146  10.941   6.086   7.604  0.6531  0.4625  0.3708
  476MOL0     C64147  10.854   6.213   7.596 -0.2485  0.4642 -0.4418
  476MOL0     C64148  10.934   6.326   7.664 -0.6681  0.4160  0.0761
  476MOL0     O64149  10.855   6.442   7.671 -0.8115 -0.8741  0.0250
  476MOL0     C64150  10.916   6.562   7.725  0.9936  0.0837  0.3376
  476MOL0     C64151  11.028   6.554   7.815 -1.1812 -0.4179  1.1939
  476MOL0     C64152  11.093   6.669   7.865 -0.5461  0.1528  0.2339
  476MOL0     C64153  11.043   6.787   7.822  0.4771 -0.4417 -1.2536
  476MOL0     C64154  11.108   6.912   7.881 -0.0156 -0.6620  0.0335
  476MOL0     O64155  11.063   7.029   7.825  0.5025 -0.0973  0.2520
  476MOL0     C64156  11.131   7.141   7.857  0.3184 -0.5369  0.2377
  476MOL0     C64157  11.194   7.212   7.754  0.4895  0.5970  0.4585
  476MOL0     C64158  11.270   7.319   7.796  0.0482  0.3858 -0.2641
  476MOL0     C64159  11.279   7.368   7.927 -0.4445 -0.0605 -0.0200
  476MOL0     O64160  11.352   7.480   7.956  0.4882 -0.9451 -0.1814
  476MOL0     C64161  11.294   7.586   8.030 -0.1190 -0.3172 -0.4060
  476MOL0     C64162  11.303   7.718   7.949 -0.3731 -0.5049 -0.2000
  476MOL0     C64163  11.299   7.834   8.053 -0.0857 -0.5077 -0.1887
  476MOL0     C64164  11.275   7.967   7.985 -0.0973  0.4462  1.0330
  476MOL0     C64165  11.339   8.088   8.064  0.2360 -1.0899 -0.1539
  476MOL0     C64166  11.289   8.222   8.016 -0.4308 -0.4831 -0.0618
  476MOL0     C64167  11.303   8.238   7.861 -0.3575 -1.0772 -0.7042
  476MOL0     C64168  11.271   8.375   7.809 -0.1333  0.4213  0.2628
  476MOL0    Cl64169  11.098   8.429   7.833  0.2279  0.1978  0.0753
  476MOL0     C64170  11.197   7.299   8.023 -0.0069 -0.1538 -0.5758
  476MOL0     C64171  11.119   7.188   7.986 -0.4648  0.1259 -0.5680
  476MOL0     O64172  11.201   6.900   7.961  0.2881 -0.0266  0.6522
  476MOL0     C64173  10.925   6.796   7.735 -0.3311 -0.3325  0.6003
  476MOL0     C64174  10.857   6.682   7.682 -0.0537 -0.0509  0.6118
  476MOL0     N64175  11.283   5.961   7.464 -0.3041 -0.2035  0.2366
  476MOL0     N64176  11.317   5.844   7.442  0.5199 -1.0829  0.1867
  476MOL0     C64177  10.797   5.014   8.111 -0.4983 -0.4194 -0.0206
  476MOL0     C64178  10.873   4.975   8.217 -0.2844  0.2121 -0.0654
  476MOL0     C64179  11.195   4.829   8.496  0.9963  0.2834  0.6975
  476MOL0     C64180  11.188   4.740   8.608  0.7616 -0.0496 -0.5948
  476MOL0     C64181  11.293   4.733   8.695  0.0202  0.7366  1.3268
  476MOL0     C64182  11.397   4.815   8.680 -0.1370 -1.1410  0.5886
  476MOL0     O64183  11.506   4.821   8.767 -0.2162 -0.4660 -0.0768
  476MOL0     C64184  11.630   4.759   8.715  0.8767 -0.7998  0.1265
  476MOL0     C64185  11.749   4.793   8.809 -1.2547 -0.7333 -0.5623
  476MOL0     C64186  11.735   4.722   8.942 -0.3143  0.2115  1.3879
  476MOL0     C64187  11.858   4.741   9.028 -0.1500  0.2964 -0.0432
  476MOL0     C64188  11.870   4.867   9.094 -1.1435 -1.0189 -1.0266
  476MOL0     C64189  11.874   4.978   9.153 -0.1096  0.3666  0.4515
  476MOL0     C64190  11.410   4.904   8.575 -0.6219 -0.2062  0.5436
  476MOL0     C64191  11.306   4.917   8.483  0.4701 -0.0375  0.4266
  476MOL0     C64192  11.321   5.021   8.370  0.1392  0.1817  0.0005
  476MOL0     H64193  11.133   4.838   8.038 -1.2502 -2.7956  0.4551
  476MOL0     H64194  11.000   4.936   7.851  0.2515  1.9085  0.2663
  476MOL0     H64195  10.646   5.197   7.796 -3.0822 -3.5591  2.1451
  476MOL0     H64196  10.692   5.226   7.960 -2.5126  0.5466 -0.7945
  476MOL0     H64197  10.928   5.267   7.925  1.6119 -0.7406 -2.7600
  476MOL0     H64198  10.802   5.377   7.864 -0.0560 -1.9580 -0.5245
  476MOL0     H64199  10.848   5.345   7.634  0.2715  0.9790 -0.2210
  476MOL0     H64200  10.903   5.180   7.660 -0.6726 -1.3675  3.1292
  476MOL0     H64201  11.050   5.437   7.745 -1.2434  1.2132 -3.1215
  476MOL0     H64202  11.105   5.260   7.772 -0.8173  1.4588  1.2048
  476MOL0     H64203  11.111   5.220   7.542  2.6832  0.8006  1.7690
  476MOL0     H64204  11.025   5.378   7.505  0.2728  2.1837  0.1380
  476MOL0     H64205  11.318   5.344   7.598 -1.2878 -0.9369  0.4967
  476MOL0     H64206  11.271   5.392   7.441  3.0576 -0.1916  0.7807
  476MOL0     H64207  11.338   5.579   7.614 -0.2567  2.6154  0.7579
  476MOL0     H64208  11.168   5.580   7.656 -0.0281  1.5303 -1.8865
  476MOL0     H64209  11.279   5.601   7.377 -1.2169 -2.9940 -0.5384
  476MOL0     H64210  11.114   5.589   7.418  0.9200 -2.9189 -0.0365
  476MOL0     H64211  10.991   5.812   7.499 -1.7882  3.1096 -2.4573
  476MOL0     H64212  11.143   6.153   7.611 -2.4033 -0.3699  3.3733
  476MOL0     H64213  11.071   6.160   7.448  0.8494  1.0739  2.3028
  476MOL0     H64214  10.886   6.006   7.554  2.9965 -1.8642  1.3205
  476MOL0     H64215  10.939   6.054   7.708 -1.6610 -2.7097 -0.4980
  476MOL0     H64216  10.761   6.202   7.652 -1.4279 -1.6131 -2.6119
  476MOL0     H64217  10.832   6.242   7.493  0.4500  1.7123 -0.2563
  476MOL0     H64218  11.021   6.367   7.612 -1.2661  2.8665  0.9007
  476MOL0     H64219  10.961   6.295   7.766  2.8314  2.5479 -0.0576
  476MOL0     H64220  11.052   6.455   7.850 -0.2988 -0.7388 -0.2173
  476MOL0     H64221  11.174   6.662   7.936 -0.8696  1.3442  0.7391
  476MOL0     H64222  11.214   7.173   7.655  1.5437 -0.9852  1.2448
  476MOL0     H64223  11.331   7.367   7.721  1.8485  0.7229  1.3345
  476MOL0     H64224  11.196   7.567   8.074 -0.0809  0.1167 -0.1243
  476MOL0     H64225  11.359   7.601   8.117 -1.6761 -0.0589  0.7534
  476MOL0     H64226  11.405   7.724   7.910  1.3200 -0.3956  3.8427
  476MOL0     H64227  11.223   7.723   7.874 -1.0179 -2.3228  0.3181
  476MOL0     H64228  11.212   7.818   8.117 -1.5639 -0.8259 -2.1795
  476MOL0     H64229  11.395   7.842   8.104  0.3629  1.6214 -1.2531
  476MOL0     H64230  11.169   7.993   7.991  0.2457  2.2776 -0.1372
  476MOL0     H64231  11.312   7.974   7.882 -2.6556 -3.5964 -0.4343
  476MOL0     H64232  11.448   8.077   8.071  0.4118  0.7935  0.8290
  476MOL0     H64233  11.308   8.084   8.169  3.2068 -0.8733  0.8197
  476MOL0     H64234  11.182   8.216   8.039 -0.2513  1.6253  1.6723
  476MOL0     H64235  11.327   8.312   8.064  0.8062  0.8906 -3.2981
  476MOL0     H64236  11.234   8.172   7.808  0.1430 -0.4631 -2.2053
  476MOL0     H64237  11.404   8.203   7.838  1.0123  0.4285  2.4006
  476MOL0     H64238  11.337   8.448   7.856 -1.3526 -0.1571  3.0956
  476MOL0     H64239  11.290   8.380   7.701  2.3817 -1.6875  0.4894
  476MOL0     H64240  11.202   7.310   8.131  1.1733 -1.0698 -0.5082
  476MOL0     H64241  11.063   7.134   8.062 -0.4202  2.2732  1.0852
  476MOL0     H64242  10.885   6.894   7.714 -2.6088 -1.6909 -2.0709
  476MOL0     H64243  10.775   6.676   7.611 -0.3379  1.2906  0.8030
  476MOL0     H64244  10.697   5.048   8.134 -0.0558  0.4586  0.6723
  476MOL0     H64245  10.843   5.004   8.317 -0.2787  0.9233 -0.2619
  476MOL0     H64246  11.105   4.670   8.615 -0.6143  1.4297 -1.2839
  476MOL0     H64247  11.296   4.664   8.779  0.1915 -0.1898  0.5810
  476MOL0     H64248  11.658   4.794   8.615  2.4376 -0.4826  0.6418
  476MOL0     H64249  11.617   4.652   8.732  0.1599 -0.5815  1.0293
  476MOL0     H64250  11.759   4.900   8.828  3.8670 -0.7482 -1.8854
  476MOL0     H64251  11.840   4.760   8.760  1.6871  0.0394  3.8191
  476MOL0     H64252  11.707   4.617   8.926 -0.4789  0.3996  0.4121
  476MOL0     H64253  11.645   4.769   8.983 -2.0626 -1.4796 -0.3085
  476MOL0     H64254  11.862   4.664   9.106  0.3890 -0.9834 -1.2723
  476MOL0     H64255  11.937   4.728   8.953 -1.0895 -1.3954 -0.7994
  476MOL0     H64256  11.874   5.075   9.198  1.3034  1.7640 -2.3633
  476MOL0     H64257  11.494   4.972   8.584  2.0749 -3.4487  2.1972
  476MOL0     H64258  11.334   4.970   8.274 -0.7779 -0.0419 -0.0187
  476MOL0     H64259  11.242   5.097   8.369  1.1697  1.2905  0.6109
  476MOL0     H64260  11.415   5.074   8.386 -0.5205  1.1806  0.7287
  477MOL0     O64261   1.261   7.878   9.251 -0.1031 -0.3166  0.1033
  477MOL0     C64262   1.229   7.927   9.139 -0.8768 -0.2847  0.2541
  477MOL0     O64263   1.100   7.934   9.087  0.6528 -0.0734  0.7779
  477MOL0     C64264   1.007   7.849   9.133  0.2178 -0.1717 -0.2360
  477MOL0     C64265   0.945   7.768   9.045  0.2842 -0.5622  0.3984
  477MOL0     C64266   0.838   7.693   9.097  0.6277 -0.3711  0.7508
  477MOL0     C64267   0.779   7.726   9.223  0.5977 -0.2983 -0.9992
  477MOL0     O64268   0.671   7.667   9.295 -0.1983 -0.0472 -0.3836
  477MOL0     C64269   0.592   7.580   9.225  0.8821  0.9768 -0.6450
  477MOL0     C64270   0.511   7.480   9.309 -0.1172 -0.4886 -0.2584
  477MOL0     C64271   0.402   7.562   9.386  0.1345 -0.4238 -0.0121
  477MOL0     C64272   0.290   7.466   9.434  0.4103 -0.8653 -0.1902
  477MOL0     C64273   0.173   7.527   9.515  0.1334 -0.1699 -0.9376
  477MOL0     C64274   0.081   7.417   9.554  0.2555  0.5136 -1.2603
  477MOL0     C64275  -0.027   7.458   9.653 -0.3407 -0.2874  0.3668
  477MOL0     C64276  -0.130   7.354   9.678  0.4603  0.0718 -0.6500
  477MOL0     N64277  -0.230   7.376   9.783 -0.5722 -0.5110 -0.7741
  477MOL0     C64278  -0.360   7.391   9.771 -0.5247 -0.1048  1.3983
  477MOL0     C64279  -0.414   7.400   9.892 -0.3171 -0.3842 -0.1962
  477MOL0     C64280  -0.566   7.417   9.921  0.3770  0.0441 -0.2133
  477MOL0     C64281  -0.593   7.506  10.049 -0.4520 -1.0749 -1.9077
  477MOL0     C64282  -0.738   7.513  10.103  0.8210 -1.2084  0.1666
  477MOL0     C64283  -0.778   7.661  10.115  0.3272  0.4244  0.2372
  477MOL0     O64284  -0.877   7.706  10.208 -0.2013 -0.6092 -0.1242
  477MOL0     C64285  -1.011   7.701  10.166 -0.0997 -0.8857  1.2363
  477MOL0     C64286  -1.058   7.684  10.032 -1.4821  1.3031  0.3216
  477MOL0     C64287  -1.190   7.663  10.001 -0.9201  0.0524 -0.2648
  477MOL0     C64288  -1.293   7.694  10.090  0.0404  0.5045 -1.3324
  477MOL0     C64289  -1.442   7.691  10.064 -0.2401 -0.0978 -0.7590
  477MOL0     O64290  -1.518   7.701  10.180 -0.1859  0.2311 -0.1769
  477MOL0     C64291  -1.656   7.695  10.178  0.1516 -0.6479  1.0674
  477MOL0     C64292  -1.740   7.742  10.070 -0.4736 -0.1855 -0.5404
  477MOL0     C64293  -1.882   7.737  10.084  1.1303  0.3943  0.0777
  477MOL0     C64294  -1.943   7.685  10.194 -0.3440  0.6301 -0.7004
  477MOL0     O64295  -2.074   7.675  10.215  0.3837 -0.9060  0.9617
  477MOL0     C64296  -2.147   7.798  10.187  0.0073  0.5019 -0.0843
  477MOL0     C64297  -2.290   7.789  10.249 -0.5504 -0.5009 -0.7003
  477MOL0     C64298  -2.269   7.823  10.397  0.0172  0.2576  0.3635
  477MOL0     C64299  -2.398   7.888  10.444 -0.1581  0.8183 -0.7851
  477MOL0     C64300  -2.399   7.907  10.600  0.0442  0.3810  0.2144
  477MOL0     C64301  -2.288   7.992  10.646 -0.3006  0.2559 -0.9498
  477MOL0     C64302  -2.278   7.988  10.798 -1.4455 -0.7821  0.4200
  477MOL0     C64303  -2.163   8.080  10.842 -0.6692  0.4291 -0.5524
  477MOL0    Cl64304  -2.141   8.082  11.020  0.1136 -0.5027  0.4600
  477MOL0     C64305  -1.859   7.643  10.303 -0.0385 -0.0207 -1.4856
  477MOL0     C64306  -1.719   7.655  10.297  0.4339  0.4830  0.6378
  477MOL0     O64307  -1.480   7.656   9.950 -0.8109 -0.0410 -0.5898
  477MOL0     C64308  -1.247   7.723  10.221 -1.0463 -1.0787  0.5187
  477MOL0     C64309  -1.113   7.722  10.257  0.8359 -1.5147 -0.5383
  477MOL0     N64310  -0.310   7.375   9.982 -0.8825  0.0944  0.3349
  477MOL0     N64311  -0.197   7.363   9.917 -0.5868 -0.0674 -0.9487
  477MOL0     C64312   0.834   7.826   9.299 -0.0145  0.0290 -0.1905
  477MOL0     C64313   0.948   7.890   9.254  0.3587  0.0058  0.6055
  477MOL0     C64314   1.336   7.990   9.055  0.8125  0.2291 -1.0276
  477MOL0     C64315   1.299   8.094   8.969 -0.8403  0.4311  0.3803
  477MOL0     C64316   1.394   8.159   8.884  0.0448  0.0929 -0.6474
  477MOL0     C64317   1.527   8.109   8.878  0.1845 -0.0343 -0.7518
  477MOL0     O64318   1.626   8.136   8.784  0.3789 -0.4545  0.5517
  477MOL0     C64319   1.586   8.158   8.652  0.0244  0.4519 -0.2647
  477MOL0     C64320   1.656   8.066   8.556  0.0093  0.7802 -0.1246
  477MOL0     C64321   1.811   8.026   8.584  0.5463 -0.5690  0.5558
  477MOL0     C64322   1.869   7.933   8.479  0.0902 -0.5215  0.2892
  477MOL0     C64323   1.859   8.016   8.354 -0.6080  0.7980  0.1215
  477MOL0     C64324   1.883   8.086   8.256 -0.1391  0.0327 -0.5398
  477MOL0     C64325   1.564   8.009   8.970 -0.6790  0.9007  0.2691
  477MOL0     C64326   1.470   7.954   9.058 -0.6112  0.1401 -0.2825
  477MOL0     C64327   1.523   7.832   9.141  1.2852  0.3954 -0.3096
  477MOL0     H64328   0.971   7.755   8.940 -6.0476 -3.1394 -1.3047
  477MOL0     H64329   0.795   7.613   9.038 -0.7554 -0.0832  1.3455
  477MOL0     H64330   0.517   7.638   9.170 -1.2418  0.3895  1.4647
  477MOL0     H64331   0.649   7.519   9.154  1.5574 -0.3111  0.9433
  477MOL0     H64332   0.569   7.415   9.375  1.1582  1.3874  0.5677
  477MOL0     H64333   0.455   7.404   9.254 -1.7427  0.4663 -0.0146
  477MOL0     H64334   0.363   7.648   9.331 -0.4475  0.7544  2.1116
  477MOL0     H64335   0.450   7.605   9.474 -1.5472  0.3900  0.5536
  477MOL0     H64336   0.242   7.424   9.346 -1.6672 -0.5678  0.7405
  477MOL0     H64337   0.337   7.383   9.487  1.3320  0.8344  1.7844
  477MOL0     H64338   0.225   7.574   9.599  0.3532  0.2383 -1.2991
  477MOL0     H64339   0.121   7.606   9.461  0.6986  0.1599 -1.0060
  477MOL0     H64340   0.042   7.382   9.459  0.9579 -1.8904 -0.7232
  477MOL0     H64341   0.136   7.335   9.602 -4.4360 -1.7352  0.8854
  477MOL0     H64342  -0.081   7.541   9.608  0.1602  0.0271  0.3306
  477MOL0     H64343   0.024   7.495   9.742 -0.6812  0.2416  0.3458
  477MOL0     H64344  -0.190   7.348   9.587 -3.6663  2.0410  1.6914
  477MOL0     H64345  -0.079   7.264   9.716  2.9282  2.8497  3.3875
  477MOL0     H64346  -0.420   7.401   9.681 -0.8514 -0.8922  1.5121
  477MOL0     H64347  -0.622   7.471   9.843  0.7900  1.6582  0.5657
  477MOL0     H64348  -0.597   7.314   9.939 -0.9963  0.5154  0.2392
  477MOL0     H64349  -0.539   7.450  10.125 -0.2256  0.2008 -1.1139
  477MOL0     H64350  -0.541   7.600  10.031 -0.2588 -0.5530  0.9974
  477MOL0     H64351  -0.742   7.459  10.198  0.6360 -0.1692  0.7641
  477MOL0     H64352  -0.811   7.458  10.043 -0.6767 -1.1170  1.8423
  477MOL0     H64353  -0.788   7.698  10.013 -0.9051  2.2557  0.9684
  477MOL0     H64354  -0.695   7.726  10.144 -0.1681  1.8311 -1.3304
  477MOL0     H64355  -0.984   7.667   9.954 -0.2482 -1.6241  1.9517
  477MOL0     H64356  -1.218   7.629   9.902 -0.6402  1.6258 -0.9196
  477MOL0     H64357  -1.675   7.788   9.997  1.3337  0.2981  1.2761
  477MOL0     H64358  -1.947   7.791  10.016 -1.0256 -0.9392  0.9672
  477MOL0     H64359  -2.101   7.895  10.211 -2.5421  1.9407 -0.6085
  477MOL0     H64360  -2.169   7.807  10.081  0.8768 -0.1632 -0.3303
  477MOL0     H64361  -2.358   7.856  10.196 -1.6749  1.4187  2.8219
  477MOL0     H64362  -2.340   7.693  10.237 -3.1601  0.9134 -1.9431
  477MOL0     H64363  -2.263   7.737  10.464 -0.3453 -0.7274 -0.8449
  477MOL0     H64364  -2.187   7.895  10.404 -1.0346  1.6992 -1.3069
  477MOL0     H64365  -2.484   7.824  10.421  0.7989 -0.9094  0.2011
  477MOL0     H64366  -2.405   7.990  10.405  0.8409  1.2746  0.1804
  477MOL0     H64367  -2.405   7.804  10.635  0.1612 -0.4151 -1.9151
  477MOL0     H64368  -2.495   7.952  10.627  1.6366  2.6454  2.6410
  477MOL0     H64369  -2.198   7.958  10.593  0.7479 -3.6363  2.7299
  477MOL0     H64370  -2.306   8.095  10.617  1.0984  0.4270 -1.2824
  477MOL0     H64371  -2.255   7.886  10.829  1.5470 -0.1427  0.6044
  477MOL0     H64372  -2.371   8.018  10.848 -0.2182  1.5302  1.4847
  477MOL0     H64373  -2.066   8.054  10.798  0.4072  0.0431  1.8576
  477MOL0     H64374  -2.191   8.182  10.815 -0.7023 -0.1116 -2.7330
  477MOL0     H64375  -1.916   7.604  10.388  0.8988  1.9792  0.1413
  477MOL0     H64376  -1.661   7.631  10.385  0.0740  0.3672  0.8445
  477MOL0     H64377  -1.317   7.740  10.303 -2.2983 -2.7578 -0.1474
  477MOL0     H64378  -1.088   7.767  10.353 -2.2541  2.4081 -1.3099
  477MOL0     H64379   0.780   7.850   9.391 -0.5380  2.1072 -0.9601
  477MOL0     H64380   1.007   7.966   9.304  1.3461  0.1253 -0.6913
  477MOL0     H64381   1.199   8.136   8.965 -1.2321 -0.4731  0.4713
  477MOL0     H64382   1.362   8.233   8.811  0.1288 -1.6654 -2.5623
  477MOL0     H64383   1.623   8.258   8.627 -1.7507  0.9979 -0.8581
  477MOL0     H64384   1.478   8.153   8.632  0.5151  0.7424 -3.6347
  477MOL0     H64385   1.644   8.104   8.454  1.1925 -2.8812 -1.8074
  477MOL0     H64386   1.602   7.972   8.553  0.4535  0.5429 -0.9044
  477MOL0     H64387   1.823   7.971   8.678  0.8029 -3.7954 -1.2248
  477MOL0     H64388   1.871   8.116   8.596  1.9157 -1.2402 -0.9638
  477MOL0     H64389   1.975   7.909   8.495 -0.1631 -0.4644  2.2505
  477MOL0     H64390   1.808   7.844   8.462  0.1443 -0.9878  2.2562
  477MOL0     H64391   1.912   8.131   8.163 -0.3798  1.1839 -0.0769
  477MOL0     H64392   1.658   7.956   8.962 -0.4725  1.0867  1.2914
  477MOL0     H64393   1.451   7.750   9.145 -1.3366  2.5226 -0.7533
  477MOL0     H64394   1.624   7.803   9.113  0.9860 -1.1863  0.1350
  477MOL0     H64395   1.538   7.866   9.244 -1.4726  3.7616 -0.8094
  478MOL0     O64396  10.975   4.857   2.834  0.1550  0.4723 -0.1496
  478MOL0     C64397  11.074   4.929   2.877  0.0755  0.5767  0.1374
  478MOL0     O64398  11.111   4.942   3.010  0.1599  0.2691  0.3845
  478MOL0     C64399  11.027   4.916   3.114  1.1858  0.4296  0.5088
  478MOL0     C64400  11.082   4.931   3.241 -0.4018  0.6857 -0.9385
  478MOL0     C64401  11.026   4.874   3.357 -0.0640  0.0016 -0.5703
  478MOL0     C64402  10.889   4.849   3.355  1.0325  0.0460  0.7914
  478MOL0     O64403  10.819   4.809   3.473 -0.3300 -0.1227  0.8040
  478MOL0     C64404  10.741   4.693   3.463  0.7263  0.0555  1.3057
  478MOL0     C64405  10.585   4.720   3.462 -1.0073 -0.8555  0.6199
  478MOL0     C64406  10.489   4.600   3.484  1.3351 -0.9454  0.3508
  478MOL0     C64407  10.477   4.557   3.631 -0.2082 -0.4506 -0.1722
  478MOL0     C64408  10.436   4.407   3.640 -0.1654 -0.1419  0.2268
  478MOL0     C64409  10.408   4.359   3.784 -0.5189 -0.3620 -0.5600
  478MOL0     C64410  10.443   4.213   3.809  0.5551 -0.2726 -0.5407
  478MOL0     C64411  10.325   4.116   3.845 -0.3597  0.1669 -0.9957
  478MOL0     N64412  10.221   4.134   3.745 -0.5140  0.0088  0.0245
  478MOL0     C64413  10.243   4.091   3.623  0.0339  0.6564 -0.6807
  478MOL0     C64414  10.133   4.126   3.563  0.0870  0.2023  0.1526
  478MOL0     C64415  10.112   4.120   3.419  0.6394 -0.5939 -0.7018
  478MOL0     C64416  10.159   4.254   3.357  0.2321 -0.9948  0.9140
  478MOL0     C64417  10.165   4.225   3.205  0.0201 -0.3983 -0.6623
  478MOL0     C64418  10.174   4.351   3.121  0.0670 -0.0878 -0.1493
  478MOL0     O64419  10.296   4.418   3.145 -0.5703 -0.5405 -1.0194
  478MOL0     C64420  10.333   4.516   3.063  0.1035  0.2908  0.7654
  478MOL0     C64421  10.244   4.606   3.003  0.3020  0.5352  0.4604
  478MOL0     C64422  10.285   4.698   2.910  0.0546 -0.1714  0.3778
  478MOL0     C64423  10.416   4.696   2.861 -0.3722  0.0375 -0.7085
  478MOL0     C64424  10.465   4.794   2.756  0.3588 -0.0612  0.7686
  478MOL0     O64425  10.584   4.785   2.705 -0.5497  0.2400  0.6744
  478MOL0     C64426  10.606   4.863   2.595 -0.2247  0.4683 -0.4046
  478MOL0     C64427  10.602   5.006   2.608  0.8136 -0.7992  0.5238
  478MOL0     C64428  10.637   5.075   2.503  0.2426 -0.9086  0.2233
  478MOL0     C64429  10.670   5.015   2.379 -0.0169 -0.1860  0.1249
  478MOL0     O64430  10.699   5.101   2.274  0.1936 -0.1054 -0.6128
  478MOL0     C64431  10.591   5.092   2.171 -0.8946 -0.6114 -0.3254
  478MOL0     C64432  10.559   5.226   2.109  0.1139 -0.0500  0.4151
  478MOL0     C64433  10.469   5.222   1.982 -0.1314  0.7578 -0.0421
  478MOL0     C64434  10.422   5.355   1.928  0.6515 -0.7826 -0.4609
  478MOL0     C64435  10.301   5.342   1.826 -0.7259 -0.3555  0.0552
  478MOL0     C64436  10.324   5.356   1.674 -0.5182  0.6525  0.2920
  478MOL0     C64437  10.394   5.226   1.617 -0.1624 -0.3730  0.1294
  478MOL0     C64438  10.310   5.135   1.529  0.2311 -1.1642  0.9096
  478MOL0    Cl64439  10.415   4.989   1.535  0.2272  0.3344  0.4095
  478MOL0     C64440  10.660   4.876   2.358 -0.4616 -0.4836  0.3718
  478MOL0     C64441  10.636   4.801   2.475 -0.2717 -0.2805 -1.0932
  478MOL0     O64442  10.379   4.872   2.712  0.3979  0.1112 -0.3796
  478MOL0     C64443  10.506   4.607   2.917 -0.3914  0.6381  0.4080
  478MOL0     C64444  10.467   4.518   3.010  0.6101 -0.5578  0.0106
  478MOL0     N64445  10.041   4.188   3.650  0.4322 -0.1089  0.0752
  478MOL0     N64446  10.101   4.189   3.765 -0.9091 -0.0010 -0.7904
  478MOL0     C64447  10.823   4.847   3.227  0.9881  0.2458  1.1346
  478MOL0     C64448  10.890   4.883   3.111 -1.3040  0.2398  0.5268
  478MOL0     C64449  11.164   4.979   2.775  0.0263 -0.6575 -0.4042
  478MOL0     C64450  11.298   5.022   2.811  0.2967  0.2351  0.6712
  478MOL0     C64451  11.382   5.073   2.711  0.4932  0.1105  0.8906
  478MOL0     C64452  11.331   5.100   2.582  0.1062  0.2571 -0.1983
  478MOL0     O64453  11.406   5.161   2.487  0.5614  0.0167  0.4578
  478MOL0     C64454  11.515   5.249   2.511  0.4128  0.3618 -0.3775
  478MOL0     C64455  11.641   5.165   2.516 -0.1902 -0.6071 -0.1186
  478MOL0     C64456  11.754   5.220   2.606  0.1874 -0.7863 -0.7163
  478MOL0     C64457  11.829   5.353   2.566 -0.3308 -0.3565 -0.6895
  478MOL0     C64458  11.754   5.479   2.617  0.8277  0.5521 -0.1357
  478MOL0     C64459  11.690   5.575   2.662  0.2749 -1.1378  0.0848
  478MOL0     C64460  11.206   5.071   2.544  0.9276  0.1213  0.0979
  478MOL0     C64461  11.118   5.018   2.641  0.6790  0.5811  0.4007
  478MOL0     C64462  10.977   4.994   2.592  0.3307  0.1404  0.1403
  478MOL0     H64463  11.182   4.974   3.244 -0.6196  1.1491 -0.0203
  478MOL0     H64464  11.070   4.862   3.455  2.7650  0.0929 -1.7272
  478MOL0     H64465  10.772   4.637   3.374 -0.8094 -3.8248  2.9592
  478MOL0     H64466  10.758   4.628   3.550  0.4550 -3.1929 -0.8967
  478MOL0     H64467  10.551   4.765   3.369 -0.5050 -0.3767  0.6625
  478MOL0     H64468  10.564   4.790   3.543  0.6833 -1.1656  1.3691
  478MOL0     H64469  10.517   4.516   3.419  1.9089 -0.9885  0.6440
  478MOL0     H64470  10.393   4.636   3.446  3.1651  2.9764 -1.1269
  478MOL0     H64471  10.577   4.564   3.675 -0.4896 -1.9363  0.7538
  478MOL0     H64472  10.403   4.615   3.687  1.0887  1.0610  0.0792
  478MOL0     H64473  10.349   4.394   3.575  0.4970 -2.6976 -0.2754
  478MOL0     H64474  10.508   4.342   3.590 -0.3561 -1.1110  1.1572
  478MOL0     H64475  10.472   4.422   3.846 -0.0175 -0.8332 -0.5942
  478MOL0     H64476  10.301   4.376   3.803 -1.2315 -3.4287 -1.2426
  478MOL0     H64477  10.507   4.226   3.896 -0.4398  2.5337 -0.1040
  478MOL0     H64478  10.507   4.166   3.734  0.2777 -0.7900 -0.4524
  478MOL0     H64479  10.354   4.011   3.848  3.2735  1.0338 -1.4228
  478MOL0     H64480  10.296   4.149   3.945  0.9728 -0.6902 -0.2985
  478MOL0     H64481  10.322   4.044   3.565 -0.4328 -1.7403  0.5068
  478MOL0     H64482  10.177   4.039   3.385  0.4315 -1.3998  0.7401
  478MOL0     H64483  10.008   4.104   3.392  0.1366  1.4335 -0.1267
  478MOL0     H64484  10.082   4.329   3.377 -1.0315 -2.7796  3.0831
  478MOL0     H64485  10.258   4.281   3.394 -0.0505 -3.3535  3.7678
  478MOL0     H64486  10.069   4.180   3.176 -1.2212  0.8479  1.2400
  478MOL0     H64487  10.251   4.161   3.186  2.8976  2.3302  2.1083
  478MOL0     H64488  10.092   4.417   3.148  0.1067 -1.1131  2.7603
  478MOL0     H64489  10.182   4.325   3.015  1.3657 -3.5406  0.6749
  478MOL0     H64490  10.142   4.619   3.038  0.6209 -0.6794  1.9067
  478MOL0     H64491  10.213   4.767   2.867  2.6368  2.5295  0.0762
  478MOL0     H64492  10.566   5.061   2.694 -0.0050 -1.0794  0.3683
  478MOL0     H64493  10.628   5.182   2.491  1.7258 -0.9991 -2.4389
  478MOL0     H64494  10.630   5.023   2.095 -0.3255 -0.0246 -0.5745
  478MOL0     H64495  10.499   5.056   2.216 -0.6394 -1.0553 -0.1520
  478MOL0     H64496  10.508   5.297   2.175  1.2179  0.1264  1.1045
  478MOL0     H64497  10.652   5.264   2.066  0.1171 -1.1315 -0.6121
  478MOL0     H64498  10.526   5.175   1.901  2.8065  2.7451  0.7353
  478MOL0     H64499  10.393   5.151   2.016  0.2158  0.7599  0.7567
  478MOL0     H64500  10.507   5.405   1.882  1.3714  1.0804  2.6417
  478MOL0     H64501  10.372   5.405   2.011  0.9921 -2.3048  0.6932
  478MOL0     H64502  10.229   5.423   1.848  0.1055  1.0066 -1.9380
  478MOL0     H64503  10.247   5.250   1.852  0.9920 -1.6715 -0.8881
  478MOL0     H64504  10.227   5.364   1.623 -1.5165 -1.4823  1.6729
  478MOL0     H64505  10.383   5.440   1.636  0.3877 -1.1111 -2.4842
  478MOL0     H64506  10.444   5.164   1.692 -1.8749 -1.2338  0.6009
  478MOL0     H64507  10.477   5.263   1.556 -1.4726  0.7472 -1.0369
  478MOL0     H64508  10.209   5.124   1.568 -0.1944 -0.0756  0.1407
  478MOL0     H64509  10.300   5.165   1.425 -0.9143 -3.0206  0.4263
  478MOL0     H64510  10.673   4.829   2.262  0.7383 -0.3785  0.4714
  478MOL0     H64511  10.632   4.693   2.466  0.4563 -0.5087  0.8936
  478MOL0     H64512  10.599   4.596   2.863  0.3480  0.8455  1.6073
  478MOL0     H64513  10.538   4.444   3.046 -0.9929 -0.6914  3.2733
  478MOL0     H64514  10.719   4.825   3.209  0.6479 -1.0818  4.0435
  478MOL0     H64515  10.848   4.860   3.013  1.4831 -0.1238 -0.6615
  478MOL0     H64516  11.330   5.001   2.912  2.4708  1.0083  0.1872
  478MOL0     H64517  11.479   5.108   2.742  0.3655  0.9775  0.3377
  478MOL0     H64518  11.501   5.301   2.606  1.8669 -2.2480  1.3933
  478MOL0     H64519  11.526   5.329   2.437 -0.9199  2.5624  1.6894
  478MOL0     H64520  11.683   5.149   2.417 -2.6237  1.2735 -1.5666
  478MOL0     H64521  11.620   5.062   2.546  0.0149 -0.0617  2.0601
  478MOL0     H64522  11.833   5.144   2.612 -0.4360 -1.4898 -1.2699
  478MOL0     H64523  11.712   5.224   2.707  0.9524  0.6279 -0.4299
  478MOL0     H64524  11.935   5.356   2.593 -0.3064 -0.3654 -0.7859
  478MOL0     H64525  11.829   5.360   2.457  2.9209 -1.9600 -0.9106
  478MOL0     H64526  11.634   5.656   2.703  1.3632 -0.6714  0.6934
  478MOL0     H64527  11.173   5.079   2.441 -1.6518 -2.2080  0.6050
  478MOL0     H64528  10.962   4.887   2.580 -0.4916  0.4066 -1.4756
  478MOL0     H64529  10.910   5.029   2.670  0.1923  0.5942 -0.1734
  478MOL0     H64530  10.968   5.037   2.491  4.4153 -1.1338 -0.9692
  479MOL0     O64531   8.497  10.819   1.245 -0.4438  0.1170 -0.4693
  479MOL0     C64532   8.473  10.747   1.152 -0.7029 -0.1083  0.0391
  479MOL0     O64533   8.525  10.761   1.031 -0.4239  0.2818 -0.0011
  479MOL0     C64534   8.602  10.861   0.983 -0.2391 -0.9722 -0.1448
  479MOL0     C64535   8.710  10.914   1.063 -0.8846 -0.5414  0.0461
  479MOL0     C64536   8.796  10.999   1.009 -0.6606 -0.4054 -0.2495
  479MOL0     C64537   8.777  11.063   0.885  0.0466  0.1301  0.5633
  479MOL0     O64538   8.859  11.164   0.828 -0.5323 -0.4900 -0.7809
  479MOL0     C64539   8.998  11.168   0.861 -0.1624 -0.5999 -0.3529
  479MOL0     C64540   9.081  11.091   0.763  0.3299  1.2332  0.6454
  479MOL0     C64541   9.070  11.147   0.616 -0.6069  0.2911 -0.4735
  479MOL0     C64542   9.213  11.125   0.556  0.4606  0.2764 -0.0550
  479MOL0     C64543   9.214  11.187   0.429 -0.2601 -1.2490 -0.7546
  479MOL0     C64544   9.342  11.136   0.346 -0.5608  0.2225  0.6014
  479MOL0     C64545   9.373  11.227   0.229 -0.2848 -0.6431 -0.2171
  479MOL0     C64546   9.443  11.357   0.281 -1.3682  0.2415 -0.4108
  479MOL0     N64547   9.578  11.342   0.335 -0.3698 -0.6028 -0.1247
  479MOL0     C64548   9.606  11.335   0.469 -1.4340  0.8415  0.0972
  479MOL0     C64549   9.732  11.288   0.464 -1.1505  0.2788  0.8713
  479MOL0     C64550   9.829  11.258   0.571 -0.2956  0.0894 -0.6448
  479MOL0     C64551   9.761  11.198   0.697 -0.3329  0.8420  0.0225
  479MOL0     C64552   9.662  11.081   0.663 -0.4805 -0.3925 -0.0942
  479MOL0     C64553   9.586  11.038   0.784  0.5844  0.4217  0.1921
  479MOL0     O64554   9.483  10.932   0.753  0.5107  0.2323  0.7256
  479MOL0     C64555   9.404  10.875   0.845  0.0085 -0.0922 -0.0247
  479MOL0     C64556   9.402  10.901   0.980  0.1016 -0.0480 -0.2952
  479MOL0     C64557   9.326  10.830   1.074  0.6517 -0.7015 -0.0188
  479MOL0     C64558   9.226  10.745   1.031  0.6775  0.8081  0.6209
  479MOL0     C64559   9.136  10.669   1.122 -0.6078 -0.2750 -0.1798
  479MOL0     O64560   9.127  10.726   1.235 -0.0838 -1.1667 -0.4531
  479MOL0     C64561   9.032  10.688   1.321 -0.8230  1.6304  1.0081
  479MOL0     C64562   8.899  10.672   1.292 -0.9322  0.5092 -1.5107
  479MOL0     C64563   8.797  10.655   1.383 -0.3098  0.0177 -0.7587
  479MOL0     C64564   8.835  10.654   1.518  1.0395 -0.1037  0.6334
  479MOL0     O64565   8.734  10.631   1.607  0.8469  0.0569 -0.5169
  479MOL0     C64566   8.741  10.497   1.671 -0.0515 -0.1047 -0.0589
  479MOL0     C64567   8.599  10.463   1.729 -0.0436  0.5617 -0.4510
  479MOL0     C64568   8.587  10.316   1.754  1.4296  0.6515 -0.3198
  479MOL0     C64569   8.680  10.260   1.866  0.7440 -0.2114 -0.6475
  479MOL0     C64570   8.667  10.110   1.894  0.4005 -0.4713 -0.4153
  479MOL0     C64571   8.806  10.049   1.940 -0.1160  0.2748  0.2953
  479MOL0     C64572   8.801   9.895   1.964 -0.7764 -0.0736  0.1674
  479MOL0     C64573   8.884   9.860   2.092 -0.3880  0.1565  1.1803
  479MOL0    Cl64574   9.037   9.954   2.102  0.3908  0.5053 -0.1990
  479MOL0     C64575   8.965  10.652   1.558 -0.5519 -0.5606  0.1832
  479MOL0     C64576   9.070  10.676   1.455  0.3101  0.6904  0.8451
  479MOL0     O64577   9.074  10.567   1.093  0.3839  0.2662  0.3510
  479MOL0     C64578   9.219  10.720   0.893 -0.1070  0.5038 -0.2384
  479MOL0     C64579   9.316  10.777   0.802  0.6641  0.5364 -0.8267
  479MOL0     N64580   9.773  11.284   0.337 -0.5006  1.1173 -0.5245
  479MOL0     N64581   9.682  11.322   0.257 -0.0200  0.9735  0.3225
  479MOL0     C64582   8.672  11.014   0.797  0.6080 -0.6974 -0.6646
  479MOL0     C64583   8.583  10.918   0.856 -0.4173  1.1349  0.3279
  479MOL0     C64584   8.351  10.654   1.149  0.7148  0.3951 -0.1619
  479MOL0     C64585   8.288  10.628   1.030 -0.3594  1.3254 -0.6408
  479MOL0     C64586   8.204  10.519   1.024  0.0937  0.0645 -0.0725
  479MOL0     C64587   8.168  10.437   1.130  0.4170 -0.3012  0.6085
  479MOL0     O64588   8.077  10.333   1.107 -0.1989  0.3133 -0.6508
  479MOL0     C64589   8.021  10.255   1.219 -0.7451 -0.4873  0.8386
  479MOL0     C64590   8.099  10.135   1.263 -0.1503 -0.2854 -0.6185
  479MOL0     C64591   8.142  10.037   1.159  0.5299 -0.4756  0.1048
  479MOL0     C64592   8.025   9.981   1.077  0.1343 -0.8671  0.4174
  479MOL0     C64593   8.071   9.888   0.976  0.5588 -0.0565  0.5542
  479MOL0     C64594   8.126   9.804   0.914 -0.2272  1.1945  0.0570
  479MOL0     C64595   8.224  10.475   1.254 -0.0580 -0.7644 -0.3937
  479MOL0     C64596   8.309  10.582   1.271  1.1439 -0.2471 -0.0467
  479MOL0     C64597   8.362  10.603   1.417  0.0966  0.7299  0.0283
  479MOL0     H64598   8.742  10.877   1.160 -1.9067 -1.0178  0.2206
  479MOL0     H64599   8.885  11.034   1.060  0.3556  0.8371 -2.7130
  479MOL0     H64600   9.030  11.272   0.871 -0.9799 -0.5766  3.0396
  479MOL0     H64601   9.017  11.121   0.958  1.3957  3.7737  1.7080
  479MOL0     H64602   9.055  10.985   0.756 -2.0076  1.8484 -1.0813
  479MOL0     H64603   9.177  11.097   0.814  0.1785  0.5142  1.0283
  479MOL0     H64604   9.049  11.254   0.614 -0.8039  0.3800  2.2524
  479MOL0     H64605   8.988  11.099   0.561 -0.1245 -0.1550 -0.8151
  479MOL0     H64606   9.287  11.170   0.624 -0.0666 -1.9256  2.1342
  479MOL0     H64607   9.237  11.018   0.555 -0.6886 -0.0669  1.7571
  479MOL0     H64608   9.133  11.161   0.360  1.4710 -1.7975 -2.7161
  479MOL0     H64609   9.221  11.295   0.450 -4.9794 -0.6275 -1.3848
  479MOL0     H64610   9.434  11.135   0.405  0.2779 -3.5680 -0.4723
  479MOL0     H64611   9.322  11.031   0.322  0.3987 -1.1536  4.9621
  479MOL0     H64612   9.281  11.249   0.175 -0.9422 -3.5184 -0.4675
  479MOL0     H64613   9.438  11.168   0.164  1.5381  1.9643 -0.8972
  479MOL0     H64614   9.458  11.414   0.188 -2.2738  1.0134 -0.0954
  479MOL0     H64615   9.376  11.424   0.335  2.9598  3.7236  1.1627
  479MOL0     H64616   9.534  11.352   0.548 -1.6831  3.2956 -0.5798
  479MOL0     H64617   9.905  11.187   0.538 -1.5058 -0.6942 -1.9025
  479MOL0     H64618   9.880  11.345   0.613  1.1720 -0.4345 -1.2693
  479MOL0     H64619   9.832  11.169   0.774 -0.9690  0.0961  0.3531
  479MOL0     H64620   9.704  11.282   0.737  1.9619  2.8297 -0.6711
  479MOL0     H64621   9.722  10.997   0.627 -1.0513 -2.1582  2.6956
  479MOL0     H64622   9.587  11.114   0.590 -0.4469  1.8144  0.7862
  479MOL0     H64623   9.522  11.121   0.815  1.0478  0.9769 -0.3269
  479MOL0     H64624   9.652  10.998   0.861  3.3731  0.0576 -2.2234
  479MOL0     H64625   9.452  10.983   1.028 -0.0512  1.4132 -2.4698
  479MOL0     H64626   9.332  10.873   1.174  1.4740  2.1262 -1.1991
  479MOL0     H64627   8.854  10.673   1.193  2.4000 -0.0534 -3.1856
  479MOL0     H64628   8.695  10.637   1.351  0.1023 -0.9472 -1.6054
  479MOL0     H64629   8.766  10.415   1.602  1.9369 -0.6411  1.2155
  479MOL0     H64630   8.808  10.493   1.758 -0.5476 -2.9866  0.3092
  479MOL0     H64631   8.567  10.526   1.813  1.0886 -1.8623  1.9718
  479MOL0     H64632   8.532  10.468   1.643  0.4499 -1.1798 -0.9876
  479MOL0     H64633   8.484  10.293   1.781  1.5175 -5.0846 -3.4161
  479MOL0     H64634   8.607  10.252   1.667 -2.2632  0.1764 -1.0137
  479MOL0     H64635   8.677  10.313   1.962 -0.6903  1.5505 -1.5940
  479MOL0     H64636   8.784  10.280   1.836  1.1184 -1.5593 -0.2973
  479MOL0     H64637   8.641  10.063   1.799 -2.5355 -0.9814  0.5190
  479MOL0     H64638   8.581  10.097   1.961  1.7481  0.9284  1.7212
  479MOL0     H64639   8.873  10.064   1.854 -2.1475 -0.2765 -1.4608
  479MOL0     H64640   8.838  10.113   2.022  0.2401  1.9432 -1.0762
  479MOL0     H64641   8.853   9.848   1.880  1.6337  1.7805  0.5164
  479MOL0     H64642   8.701   9.854   1.980 -0.8630 -0.8475 -2.0846
  479MOL0     H64643   8.818   9.894   2.172 -1.8681  1.0608 -0.3852
  479MOL0     H64644   8.903   9.753   2.107 -1.1159  0.2482  2.9522
  479MOL0     H64645   8.992  10.651   1.663  1.7761  0.9285 -0.3260
  479MOL0     H64646   9.174  10.679   1.486  0.2869 -1.6169  1.3270
  479MOL0     H64647   9.148  10.648   0.852  0.9746  0.8157 -2.8074
  479MOL0     H64648   9.309  10.752   0.696  2.3560 -1.2273 -0.5804
  479MOL0     H64649   8.643  11.062   0.704  0.2831  0.1703 -0.1257
  479MOL0     H64650   8.495  10.881   0.805 -0.5147  1.0718  0.5383
  479MOL0     H64651   8.323  10.692   0.951  1.6680  1.6684  0.4565
  479MOL0     H64652   8.158  10.493   0.929 -0.2007  3.3697 -0.9310
  479MOL0     H64653   7.921  10.218   1.193 -0.6768 -0.4844  0.5699
  479MOL0     H64654   8.023  10.319   1.308  1.9320  1.5577 -0.5511
  479MOL0     H64655   8.038  10.074   1.331  1.1905 -0.0028  0.8897
  479MOL0     H64656   8.188  10.160   1.321 -0.5842 -0.3586  0.0995
  479MOL0     H64657   8.182   9.955   1.220 -0.8218 -0.0570  1.6267
  479MOL0     H64658   8.216  10.083   1.093 -1.1967  0.6495 -1.1357
  479MOL0     H64659   7.963   9.929   1.151  0.6562  0.1040  1.5752
  479MOL0     H64660   7.961  10.052   1.022 -2.3962 -1.4919  2.3792
  479MOL0     H64661   8.180   9.730   0.857 -0.3716  2.1668 -1.4170
  479MOL0     H64662   8.211  10.407   1.338 -1.2191 -0.8477 -0.6222
  479MOL0     H64663   8.355  10.508   1.471 -0.6009 -0.0481 -1.3637
  479MOL0     H64664   8.466  10.636   1.433  0.2110  1.0024 -1.1850
  479MOL0     H64665   8.293  10.670   1.468 -1.3207  2.2530 -3.5831
  480MOL0     O64666   2.912   8.676   3.214 -0.5735  0.0473  0.3466
  480MOL0     C64667   2.999   8.602   3.282  0.3360 -0.0638 -1.0272
  480MOL0     O64668   3.048   8.479   3.243 -0.1862 -0.2505  0.4681
  480MOL0     C64669   3.042   8.450   3.114 -0.5713 -0.4175  0.1885
  480MOL0     C64670   3.165   8.451   3.045  0.0191 -0.5285  0.2903
  480MOL0     C64671   3.171   8.436   2.909  0.9322 -0.2675  0.2493
  480MOL0     C64672   3.062   8.410   2.838  1.0127  0.0675  0.1242
  480MOL0     O64673   3.097   8.391   2.708  0.6814  0.1772  0.2169
  480MOL0     C64674   2.984   8.381   2.614  0.0064 -0.9909 -0.1589
  480MOL0     C64675   2.933   8.518   2.571 -0.0591  0.8788  0.2509
  480MOL0     C64676   2.872   8.523   2.430 -0.7931 -0.3352 -0.1587
  480MOL0     C64677   2.714   8.515   2.434 -1.2170 -0.3062  0.5424
  480MOL0     C64678   2.659   8.491   2.292 -0.1264 -0.0499 -0.6184
  480MOL0     C64679   2.513   8.471   2.293  0.1661  0.5149  0.6352
  480MOL0     C64680   2.454   8.436   2.151 -0.2221  0.4156 -0.3846
  480MOL0     C64681   2.492   8.300   2.096 -0.3276  0.5220 -0.1232
  480MOL0     N64682   2.433   8.195   2.184  0.2669 -0.4427  0.4243
  480MOL0     C64683   2.309   8.194   2.235 -0.1885 -0.7113 -0.0841
  480MOL0     C64684   2.301   8.082   2.310  0.4905 -0.3915  0.2789
  480MOL0     C64685   2.176   8.058   2.391  0.1819 -0.1368 -1.2373
  480MOL0     C64686   2.209   8.059   2.541  0.0357  0.8070 -0.4404
  480MOL0     C64687   2.083   8.090   2.635 -0.0592 -0.6274  0.1409
  480MOL0     C64688   2.133   8.076   2.789  0.5245 -0.2628  0.9989
  480MOL0     O64689   2.254   8.151   2.812  0.2201  0.0055  0.6909
  480MOL0     C64690   2.312   8.152   2.934  0.0191  0.1811  1.0366
  480MOL0     C64691   2.322   8.044   3.017 -0.3544  0.1091  0.2646
  480MOL0     C64692   2.390   8.044   3.137 -0.5973 -0.3365  0.3334
  480MOL0     C64693   2.484   8.148   3.166 -0.3500  0.0791  0.2984
  480MOL0     C64694   2.554   8.141   3.296 -0.1955  0.1866 -0.0835
  480MOL0     O64695   2.624   8.256   3.330 -0.5405  0.4297  0.9091
  480MOL0     C64696   2.719   8.248   3.431  0.6934 -0.1104  0.3681
  480MOL0     C64697   2.664   8.240   3.559 -0.7298 -0.6336 -0.2325
  480MOL0     C64698   2.744   8.244   3.674 -0.3357 -1.1525  0.0440
  480MOL0     C64699   2.879   8.270   3.666  0.5676 -0.5912  0.0063
  480MOL0     O64700   2.961   8.260   3.779  0.8036  0.8728  0.7798
  480MOL0     C64701   3.056   8.367   3.790 -0.3131 -0.7205  0.4485
  480MOL0     C64702   3.105   8.369   3.934  0.4166 -0.2105 -0.1025
  480MOL0     C64703   3.136   8.518   3.977 -0.1191  0.3361 -0.0052
  480MOL0     C64704   3.260   8.522   4.072 -0.1214 -0.1926 -0.0307
  480MOL0     C64705   3.291   8.672   4.123  0.1060  0.4224 -0.2986
  480MOL0     C64706   3.370   8.673   4.256 -1.0316 -0.5126 -0.0223
  480MOL0     C64707   3.462   8.794   4.249 -1.4614 -0.0210 -0.4746
  480MOL0     C64708   3.511   8.838   4.387 -0.3550 -0.7718 -0.5917
  480MOL0    Cl64709   3.657   8.943   4.368  0.1582 -0.0631 -0.3107
  480MOL0     C64710   2.934   8.289   3.537  0.6622 -0.0458 -0.3947
  480MOL0     C64711   2.862   8.277   3.422  0.3437 -0.0858 -0.1564
  480MOL0     O64712   2.552   8.030   3.362 -0.5150 -0.1287 -0.4062
  480MOL0     C64713   2.481   8.254   3.074 -0.5665 -0.4958  0.5515
  480MOL0     C64714   2.405   8.256   2.959 -0.1169  0.3699 -0.1114
  480MOL0     N64715   2.420   8.008   2.291  0.1516 -0.9233  0.4017
  480MOL0     N64716   2.489   8.082   2.209  0.0597  0.6631  1.0820
  480MOL0     C64717   2.932   8.397   2.909 -0.8462  0.5986  0.7122
  480MOL0     C64718   2.924   8.412   3.048 -0.7054 -0.4808 -0.2414
  480MOL0     C64719   3.040   8.659   3.419  0.2219  0.2596  0.4035
  480MOL0     C64720   2.951   8.754   3.482  0.5285 -0.4399  0.2594
  480MOL0     C64721   2.980   8.802   3.614  0.9063 -0.3332 -0.2988
  480MOL0     C64722   3.104   8.768   3.674 -0.3829  0.0969  0.3744
  480MOL0     O64723   3.150   8.820   3.791 -0.2745  0.3315 -1.0663
  480MOL0     C64724   3.147   8.961   3.800  1.3441  0.0332  0.8803
  480MOL0     C64725   3.256   9.026   3.891  0.5236 -0.2040  0.0603
  480MOL0     C64726   3.212   9.159   3.943  0.0254 -0.6556  0.7454
  480MOL0     C64727   3.331   9.234   4.001  0.6168 -0.3165  0.0891
  480MOL0     C64728   3.285   9.363   4.061  1.2071 -1.1095  0.6395
  480MOL0     C64729   3.258   9.469   4.113  0.2370  0.9177  0.9874
  480MOL0     C64730   3.179   8.673   3.611  0.9308 -0.9386 -0.7135
  480MOL0     C64731   3.160   8.627   3.493 -0.6816 -0.4772 -0.6689
  480MOL0     C64732   3.267   8.530   3.446 -0.0506 -0.2458 -0.5178
  480MOL0     H64733   3.249   8.490   3.102 -1.4390  4.0266 -0.2547
  480MOL0     H64734   3.269   8.435   2.863  0.7662  0.5344 -0.1421
  480MOL0     H64735   3.028   8.322   2.534  0.0754 -0.2900 -0.6455
  480MOL0     H64736   2.899   8.326   2.656 -0.4798 -1.3403 -1.5634
  480MOL0     H64737   3.016   8.587   2.591  0.3428  0.7912 -1.0191
  480MOL0     H64738   2.854   8.546   2.641 -1.1393  0.1951 -0.6550
  480MOL0     H64739   2.917   8.436   2.381 -0.7113 -1.0593  1.1482
  480MOL0     H64740   2.904   8.612   2.375  0.7095 -0.7328  0.0365
  480MOL0     H64741   2.691   8.426   2.492 -0.3132 -1.6066 -0.9982
  480MOL0     H64742   2.680   8.607   2.482 -0.6524 -0.2649  0.8791
  480MOL0     H64743   2.683   8.579   2.232 -2.5457  1.8294  0.9828
  480MOL0     H64744   2.719   8.411   2.246  0.2074 -1.2800  1.7774
  480MOL0     H64745   2.492   8.387   2.360  2.7212 -0.0191  0.8462
  480MOL0     H64746   2.464   8.562   2.330 -0.3992  0.3456  0.3177
  480MOL0     H64747   2.496   8.515   2.088  0.8089  0.6618  0.5959
  480MOL0     H64748   2.345   8.431   2.161 -0.4263 -1.3223 -2.6126
  480MOL0     H64749   2.447   8.300   1.996 -1.3685 -0.1122  0.3309
  480MOL0     H64750   2.601   8.288   2.106 -0.3547  0.7187  0.4069
  480MOL0     H64751   2.230   8.268   2.227 -0.4340 -1.0994 -1.5470
  480MOL0     H64752   2.099   8.133   2.374 -2.7218 -2.6139  0.0051
  480MOL0     H64753   2.126   7.964   2.366 -1.0415  0.5552 -1.4784
  480MOL0     H64754   2.263   7.966   2.561  1.3519  1.2265 -1.8625
  480MOL0     H64755   2.281   8.134   2.574 -3.5253  3.9616  0.8514
  480MOL0     H64756   2.017   8.009   2.600  1.4672 -1.1377 -1.6865
  480MOL0     H64757   2.052   8.192   2.610  1.9800  0.1205  0.5147
  480MOL0     H64758   2.150   7.969   2.804  1.6561 -0.3705 -0.6667
  480MOL0     H64759   2.053   8.100   2.859  0.5081  1.2247  0.5136
  480MOL0     H64760   2.251   7.967   2.986 -0.6439  1.5998 -3.2446
  480MOL0     H64761   2.382   7.954   3.198 -1.6298  0.3720  1.2810
  480MOL0     H64762   2.556   8.245   3.568 -0.4777  1.2059  3.5523
  480MOL0     H64763   2.708   8.232   3.776  0.4561 -2.4770  0.1880
  480MOL0     H64764   3.132   8.348   3.713  0.0736 -0.0638  0.6695
  480MOL0     H64765   3.014   8.464   3.765  1.4934 -0.5430 -2.4654
  480MOL0     H64766   3.022   8.327   3.991 -2.9120 -1.2372 -5.1026
  480MOL0     H64767   3.189   8.299   3.941  1.1690 -0.1620 -4.9397
  480MOL0     H64768   3.159   8.589   3.897  2.8852  0.3850  0.7937
  480MOL0     H64769   3.044   8.549   4.028 -1.0141 -1.0470 -0.6955
  480MOL0     H64770   3.350   8.478   4.028  0.5154  1.2309 -0.2021
  480MOL0     H64771   3.220   8.473   4.162 -2.4222 -0.3610 -1.0936
  480MOL0     H64772   3.198   8.728   4.137  0.9491  2.1785 -1.3284
  480MOL0     H64773   3.354   8.720   4.046  1.1743  1.1383  0.9812
  480MOL0     H64774   3.304   8.678   4.342 -1.8324 -0.4106 -0.6295
  480MOL0     H64775   3.423   8.577   4.266 -1.0440 -0.5032  0.1374
  480MOL0     H64776   3.413   8.873   4.191  0.5773  0.8463 -1.0891
  480MOL0     H64777   3.550   8.763   4.192  0.2807  1.8704  1.0530
  480MOL0     H64778   3.422   8.876   4.436 -1.2852 -4.2520  0.7350
  480MOL0     H64779   3.551   8.753   4.444  1.6150  2.6183  3.5642
  480MOL0     H64780   3.039   8.314   3.525  0.8339 -0.6383 -0.1225
  480MOL0     H64781   2.907   8.301   3.326  3.0896  1.2093  1.3682
  480MOL0     H64782   2.550   8.335   3.097  0.1607 -0.6486 -0.9476
  480MOL0     H64783   2.406   8.331   2.881  1.0099 -0.2576 -0.7227
  480MOL0     H64784   2.843   8.364   2.856 -0.7445 -1.7227  1.8962
  480MOL0     H64785   2.830   8.411   3.102  1.1928  0.0869  3.4940
  480MOL0     H64786   2.873   8.795   3.418  2.2118 -0.4448 -1.9099
  480MOL0     H64787   2.905   8.861   3.665  1.3018  0.8482 -1.0506
  480MOL0     H64788   3.046   8.993   3.827 -0.0164 -3.7628  0.9048
  480MOL0     H64789   3.171   9.003   3.701 -2.4487 -0.0727 -0.2248
  480MOL0     H64790   3.344   9.032   3.826  0.2682 -0.8785 -0.3606
  480MOL0     H64791   3.271   8.961   3.977 -0.9881 -3.6809 -2.0525
  480MOL0     H64792   3.125   9.146   4.009 -1.3006  1.9366 -0.3506
  480MOL0     H64793   3.162   9.213   3.863 -2.2561  0.2366  2.6448
  480MOL0     H64794   3.388   9.176   4.075  3.8931  2.5809  0.0783
  480MOL0     H64795   3.394   9.255   3.914 -1.5001  0.0529 -1.4233
  480MOL0     H64796   3.234   9.552   4.176  0.4007  2.3146 -0.7080
  480MOL0     H64797   3.274   8.651   3.658  0.1929  2.0132  2.5819
  480MOL0     H64798   3.365   8.562   3.483  0.0834 -2.3741  1.1642
  480MOL0     H64799   3.259   8.427   3.481 -2.6311 -0.5987 -1.8696
  480MOL0     H64800   3.261   8.526   3.337 -2.6656 -0.2240 -0.4331
  481MOL0     O64801   6.061   2.175  10.878 -0.2785 -0.5619  0.0224
  481MOL0     C64802   5.977   2.262  10.886  0.7411 -0.8513 -0.8508
  481MOL0     O64803   5.988   2.386  10.836  0.1688  0.2613  0.6805
  481MOL0     C64804   6.096   2.431  10.766  0.0599 -0.4126 -0.0305
  481MOL0     C64805   6.197   2.501  10.837 -0.7816 -0.5794  0.5340
  481MOL0     C64806   6.321   2.523  10.766  1.0256  0.3054 -0.4373
  481MOL0     C64807   6.337   2.486  10.636  1.3473 -0.2061  0.6847
  481MOL0     O64808   6.459   2.513  10.574  0.2117 -0.1820 -0.1851
  481MOL0     C64809   6.472   2.568  10.439 -0.3367  0.4231  0.4356
  481MOL0     C64810   6.415   2.706  10.444  0.0098  0.1582 -0.5347
  481MOL0     C64811   6.435   2.780  10.309 -0.7328 -0.8305 -0.2476
  481MOL0     C64812   6.580   2.799  10.260  0.1683  0.0203 -0.0127
  481MOL0     C64813   6.640   2.934  10.305 -1.2456  0.8366 -0.2638
  481MOL0     C64814   6.782   2.961  10.273  0.0570 -0.1711 -0.2572
  481MOL0     C64815   6.796   3.030  10.139 -1.9700  0.0639 -0.0529
  481MOL0     C64816   6.940   3.062  10.095 -0.7668  0.2817 -0.0411
  481MOL0     N64817   6.986   3.190  10.142 -0.7772  0.1804  0.5692
  481MOL0     C64818   6.997   3.297  10.054  0.4119 -0.4259  0.0566
  481MOL0     C64819   7.037   3.403  10.131  0.8207  0.1430  0.8458
  481MOL0     C64820   7.075   3.538  10.072  0.2584 -0.0194 -0.7149
  481MOL0     C64821   6.958   3.628  10.061 -1.2862 -0.3465  0.0786
  481MOL0     C64822   6.924   3.695  10.201  0.1562 -0.9804  0.2648
  481MOL0     C64823   6.799   3.774  10.193  0.3302 -0.2507 -0.2481
  481MOL0     O64824   6.694   3.690  10.135  0.4118  0.6402  0.1036
  481MOL0     C64825   6.575   3.758  10.135  0.1271  0.0124  0.1715
  481MOL0     C64826   6.489   3.769  10.237 -0.5918 -1.0989  0.2955
  481MOL0     C64827   6.361   3.827  10.230  0.4306 -0.0950  0.2610
  481MOL0     C64828   6.324   3.888  10.104  0.1204  0.0168 -0.4359
  481MOL0     C64829   6.199   3.959  10.096 -0.0559  0.3292  0.5209
  481MOL0     O64830   6.162   4.018   9.975 -0.2710 -0.5589 -0.6189
  481MOL0     C64831   6.035   4.069   9.971 -0.0017 -1.3810 -0.6728
  481MOL0     C64832   6.024   4.191   9.894 -0.6271  0.2095  0.2232
  481MOL0     C64833   5.898   4.228   9.840  0.3472  0.4825 -0.5428
  481MOL0     C64834   5.781   4.174   9.890  0.0567 -0.3682 -0.4297
  481MOL0     O64835   5.655   4.207   9.844  0.1970  0.0106  0.6889
  481MOL0     C64836   5.608   4.339   9.879  0.3642 -0.0069 -0.3075
  481MOL0     C64837   5.470   4.348   9.829 -1.3933 -0.6021  0.1801
  481MOL0     C64838   5.361   4.281   9.919 -0.6680 -0.5947 -0.3167
  481MOL0     C64839   5.221   4.331   9.883 -0.5951  0.3565 -0.2035
  481MOL0     C64840   5.176   4.293   9.741 -0.4874 -0.6239 -0.5959
  481MOL0     C64841   5.032   4.354   9.723  0.2778 -0.1251 -0.3217
  481MOL0     C64842   4.933   4.270   9.643  0.5855  0.2961  0.5983
  481MOL0     C64843   4.952   4.126   9.653  0.0258  0.5413  0.5387
  481MOL0    Cl64844   4.828   4.064   9.539 -0.2519  0.4066  0.2060
  481MOL0     C64845   5.785   4.057   9.976 -1.2908  0.3530  0.1247
  481MOL0     C64846   5.915   4.001  10.018  0.8574 -0.2235 -0.2759
  481MOL0     O64847   6.135   3.971  10.202  0.0524 -0.2068  0.7686
  481MOL0     C64848   6.423   3.880  10.002  0.3092  0.4133 -0.5771
  481MOL0     C64849   6.544   3.815  10.010 -0.9779 -0.4032  0.1327
  481MOL0     N64850   7.035   3.364  10.271  1.2328 -0.6372  0.0044
  481MOL0     N64851   6.997   3.236  10.269  0.4540  0.2748 -0.0545
  481MOL0     C64852   6.230   2.437  10.565 -0.0292  0.1769  0.0376
  481MOL0     C64853   6.109   2.398  10.629 -0.7820 -0.7359  0.0859
  481MOL0     C64854   5.855   2.231  10.974  0.0960 -0.4404  0.8587
  481MOL0     C64855   5.827   2.098  11.028 -0.5659 -0.5046  0.0428
  481MOL0     C64856   5.711   2.064  11.095  0.1996 -0.0281 -0.5772
  481MOL0     C64857   5.612   2.160  11.126  0.4119 -1.2063  0.8846
  481MOL0     O64858   5.500   2.124  11.200 -0.1164 -0.9030  0.1824
  481MOL0     C64859   5.378   2.209  11.200  0.2087  0.5142  0.3115
  481MOL0     C64860   5.248   2.153  11.253 -0.7301 -0.1771  0.0173
  481MOL0     C64861   5.240   2.146  11.406  0.1839  1.8108 -0.1822
  481MOL0     C64862   5.339   2.045  11.467 -0.8191  0.3964  0.3034
  481MOL0     C64863   5.319   2.008  11.602  0.2083  0.4493  0.7587
  481MOL0     C64864   5.294   1.986  11.716 -0.1226  0.0363  0.0284
  481MOL0     C64865   5.639   2.294  11.086  0.3482  0.3735 -0.8474
  481MOL0     C64866   5.757   2.323  11.013  1.0870  0.7985  0.0240
  481MOL0     C64867   5.766   2.465  10.971 -0.7255  0.9148 -0.1799
  481MOL0     H64868   6.187   2.520  10.943 -2.2271 -0.2193  0.3566
  481MOL0     H64869   6.412   2.546  10.821  1.2695 -1.7161  0.0953
  481MOL0     H64870   6.578   2.560  10.412 -0.6848 -1.7231 -0.5201
  481MOL0     H64871   6.414   2.510  10.366  0.5905  0.4878 -0.3774
  481MOL0     H64872   6.458   2.751  10.534 -1.6088  0.9628 -0.1361
  481MOL0     H64873   6.308   2.697  10.463  0.4160 -0.4533  1.8284
  481MOL0     H64874   6.382   2.876  10.305 -0.7285 -0.7186  1.5617
  481MOL0     H64875   6.380   2.733  10.227  0.6821  2.6832 -3.5590
  481MOL0     H64876   6.644   2.716  10.292 -0.6110 -0.1592  1.1713
  481MOL0     H64877   6.584   2.789  10.152  3.4872 -1.6495  0.1388
  481MOL0     H64878   6.574   3.016  10.274 -2.3589 -0.5707 -1.7767
  481MOL0     H64879   6.623   2.940  10.413 -1.9016 -0.3965 -0.2819
  481MOL0     H64880   6.819   3.031  10.350 -0.7293 -0.5660  0.4962
  481MOL0     H64881   6.836   2.867  10.266 -0.1202 -0.7276  3.6751
  481MOL0     H64882   6.730   3.118  10.132 -3.2013 -0.7668  0.7133
  481MOL0     H64883   6.756   2.960  10.065 -4.3500 -0.1168  1.3087
  481MOL0     H64884   6.992   2.975  10.137  0.8528  1.0144 -0.4242
  481MOL0     H64885   6.951   3.051   9.987  0.1414 -0.2375  0.0921
  481MOL0     H64886   6.985   3.292   9.947  1.4923 -0.3639 -0.0791
  481MOL0     H64887   7.162   3.577  10.126  0.1936  0.4041 -0.9141
  481MOL0     H64888   7.113   3.520   9.971 -0.6244 -2.8139 -0.6235
  481MOL0     H64889   6.989   3.711   9.997 -1.8638 -0.1811  0.0025
  481MOL0     H64890   6.882   3.572  10.005 -1.9167  1.9819 -1.5259
  481MOL0     H64891   7.008   3.761  10.227  2.1863 -3.5773  0.6535
  481MOL0     H64892   6.912   3.626  10.284  0.8440 -1.7487 -0.2685
  481MOL0     H64893   6.809   3.867  10.137 -1.0335 -0.2205 -0.4780
  481MOL0     H64894   6.771   3.807  10.294  0.5484 -0.7479 -0.0220
  481MOL0     H64895   6.524   3.737  10.335 -1.5091  0.5174  1.1853
  481MOL0     H64896   6.291   3.835  10.313 -0.7239  0.4031 -0.7215
  481MOL0     H64897   6.114   4.246   9.870  0.2220 -1.4685 -0.5871
  481MOL0     H64898   5.895   4.307   9.765 -2.1538  1.0121  0.0243
  481MOL0     H64899   5.612   4.353   9.988 -0.5562 -1.0520 -0.1236
  481MOL0     H64900   5.676   4.415   9.840 -0.1664  0.6601  0.0480
  481MOL0     H64901   5.443   4.454   9.821 -1.2930 -0.6885 -1.9135
  481MOL0     H64902   5.484   4.307   9.728 -0.6955 -3.4436  1.3493
  481MOL0     H64903   5.363   4.172   9.916  0.5728 -0.7620  2.5635
  481MOL0     H64904   5.391   4.321  10.017  3.7331  3.0422 -2.7285
  481MOL0     H64905   5.214   4.439   9.899  3.6560  0.7905 -0.2089
  481MOL0     H64906   5.157   4.276   9.952 -2.2715  1.8946 -0.4582
  481MOL0     H64907   5.179   4.183   9.741 -1.5714 -0.6748 -0.0353
  481MOL0     H64908   5.249   4.330   9.669 -2.1552  2.5182 -0.8506
  481MOL0     H64909   4.982   4.365   9.820 -1.0136  0.5012 -1.0263
  481MOL0     H64910   5.042   4.456   9.684  2.0482 -0.4741 -0.8507
  481MOL0     H64911   4.935   4.296   9.537  0.1046 -3.5459 -0.5115
  481MOL0     H64912   4.835   4.297   9.681  1.1897 -1.1004  3.4236
  481MOL0     H64913   5.051   4.093   9.621 -0.5522  0.8483 -1.7672
  481MOL0     H64914   4.936   4.103   9.758 -1.5347 -4.3287 -0.5415
  481MOL0     H64915   5.696   4.008  10.014 -2.0475  0.3822 -1.4887
  481MOL0     H64916   5.920   3.914  10.083 -1.7704 -1.2512 -1.3572
  481MOL0     H64917   6.399   3.925   9.906  2.2038  2.6871 -0.0742
  481MOL0     H64918   6.621   3.807   9.934 -1.5179  1.5158 -0.6695
  481MOL0     H64919   6.231   2.398  10.463 -4.6405  4.0940 -1.9288
  481MOL0     H64920   6.038   2.331  10.582 -2.5014 -0.5697  2.2477
  481MOL0     H64921   5.896   2.015  11.012  0.1717  0.3393 -1.4064
  481MOL0     H64922   5.682   1.968  11.136  1.6842  0.6424  2.3086
  481MOL0     H64923   5.358   2.227  11.094  3.3365  0.4604 -0.3613
  481MOL0     H64924   5.393   2.302  11.254  2.0121  1.9395 -2.3900
  481MOL0     H64925   5.232   2.056  11.206  0.7203  0.3958 -1.7714
  481MOL0     H64926   5.170   2.224  11.224 -1.1185 -1.0907 -1.2577
  481MOL0     H64927   5.142   2.105  11.430  1.8145 -1.7636  1.2212
  481MOL0     H64928   5.235   2.242  11.457 -0.8419 -1.2927  6.7200
  481MOL0     H64929   5.334   1.951  11.411 -0.8954 -1.0490  2.6093
  481MOL0     H64930   5.442   2.079  11.448 -0.2340 -2.6504 -3.2668
  481MOL0     H64931   5.250   1.970  11.812 -1.9953 -0.8870 -0.9439
  481MOL0     H64932   5.567   2.367  11.123 -0.6313 -1.6732  1.5855
  481MOL0     H64933   5.782   2.463  10.863  2.1050 -0.0665  0.1774
  481MOL0     H64934   5.671   2.515  10.992 -2.4164 -3.1936  3.7985
  481MOL0     H64935   5.851   2.515  11.017  1.1191 -0.9006 -1.4575
  482MOL0     O64936   0.638   0.713   9.171  0.1201  0.4705  0.3612
  482MOL0     C64937   0.624   0.787   9.271  0.0402 -0.9198  0.5691
  482MOL0     O64938   0.685   0.770   9.394 -0.0582 -0.0751 -0.2141
  482MOL0     C64939   0.754   0.651   9.396  0.0880  0.3081  0.8459
  482MOL0     C64940   0.895   0.650   9.412  0.9160  0.5567  0.4386
  482MOL0     C64941   0.971   0.538   9.434 -0.2966 -0.0530 -0.5375
  482MOL0     C64942   0.922   0.413   9.429  0.2193  0.2466  0.6054
  482MOL0     O64943   1.012   0.310   9.446  0.4733  0.0703  0.2441
  482MOL0     C64944   0.958   0.174   9.444 -0.4716  0.0829  0.0529
  482MOL0     C64945   1.061   0.064   9.491  0.3461 -0.0170 -0.4601
  482MOL0     C64946   1.157   0.063   9.372  0.4675 -0.5342 -0.0217
  482MOL0     C64947   1.246  -0.066   9.347 -0.1697  0.3545 -1.1985
  482MOL0     C64948   1.392  -0.030   9.323  1.2507  0.4170 -0.4987
  482MOL0     C64949   1.464  -0.164   9.294  0.3398 -0.3016  0.4318
  482MOL0     C64950   1.617  -0.165   9.312 -0.0788  0.4588 -0.3672
  482MOL0     C64951   1.678  -0.206   9.456  0.1260 -0.4456  0.2321
  482MOL0     N64952   1.823  -0.170   9.453  0.2466  0.4515 -0.2102
  482MOL0     C64953   1.866  -0.040   9.454  0.3348 -1.1209 -0.8724
  482MOL0     C64954   1.998  -0.044   9.491 -0.4428  0.1378 -0.4680
  482MOL0     C64955   2.099   0.064   9.498  0.0007 -0.0763  0.6182
  482MOL0     C64956   2.204   0.038   9.601  0.2839  1.2381  0.5747
  482MOL0     C64957   2.137   0.019   9.739 -0.0392  0.1818 -0.2574
  482MOL0     C64958   2.246   0.009   9.859 -0.2198 -1.5631  0.1345
  482MOL0     O64959   2.357  -0.070   9.831  0.5662 -0.3328  0.8316
  482MOL0     C64960   2.480  -0.016   9.852  0.6889  0.6168 -0.4005
  482MOL0     C64961   2.546  -0.045   9.979 -0.4573  0.0873  0.1095
  482MOL0     C64962   2.682  -0.016   9.995 -0.3637  0.3429  0.5513
  482MOL0     C64963   2.754   0.052   9.893 -0.2411  0.2489 -0.2577
  482MOL0     C64964   2.904   0.086   9.912 -0.5049  0.2805  0.7398
  482MOL0     O64965   2.974   0.035  10.014  0.0156 -0.0514 -0.0256
  482MOL0     C64966   3.105   0.053  10.041  0.3062 -0.3516 -0.2325
  482MOL0     C64967   3.150   0.181  10.064  0.0521 -0.8967 -0.3147
  482MOL0     C64968   3.286   0.206  10.103 -0.0341  1.0989 -0.0879
  482MOL0     C64969   3.359   0.087  10.136  0.5036  0.1365 -0.5034
  482MOL0     O64970   3.487   0.093  10.171 -0.9424 -0.8726  0.1028
  482MOL0     C64971   3.576   0.203  10.151 -0.4000 -0.2286  0.0506
  482MOL0     C64972   3.701   0.195  10.236  0.4272  0.4124  1.3360
  482MOL0     C64973   3.651   0.221  10.372  0.2703 -0.2289 -0.1407
  482MOL0     C64974   3.749   0.228  10.484 -0.1100  0.2088 -0.6172
  482MOL0     C64975   3.850   0.106  10.496  0.6037 -0.2452 -1.1281
  482MOL0     C64976   3.783  -0.027  10.509 -0.4355 -0.4364  0.0715
  482MOL0     C64977   3.694  -0.041  10.627 -1.0482 -0.1807 -0.3172
  482MOL0     C64978   3.613  -0.171  10.601 -0.7639 -0.3191 -0.3701
  482MOL0    Cl64979   3.478  -0.142  10.480 -0.1770  0.1574 -0.2328
  482MOL0     C64980   3.306  -0.043  10.113 -0.8950 -0.5194 -1.1267
  482MOL0     C64981   3.181  -0.064  10.055 -0.0288  0.2967 -0.1701
  482MOL0     O64982   2.949   0.168   9.838  0.1142 -0.7424  0.8983
  482MOL0     C64983   2.685   0.100   9.777 -0.3519  0.0982  0.5558
  482MOL0     C64984   2.555   0.059   9.754  0.3737 -0.0614 -0.3897
  482MOL0     N64985   2.031  -0.181   9.514 -0.1045  0.5366  0.8488
  482MOL0     N64986   1.927  -0.255   9.492  0.3195 -1.2796 -0.2484
  482MOL0     C64987   0.778   0.404   9.413  0.0687  0.5744  0.1682
  482MOL0     C64988   0.698   0.516   9.393 -0.3650  1.0824  0.1244
  482MOL0     C64989   0.549   0.916   9.254  0.0867 -0.0569 -1.1210
  482MOL0     C64990   0.571   1.021   9.354  0.2308  0.1652  0.7933
  482MOL0     C64991   0.504   1.140   9.344 -0.1918  0.0942  0.2331
  482MOL0     C64992   0.408   1.155   9.246  1.0656  0.6914  0.3136
  482MOL0     O64993   0.317   1.262   9.251 -1.2095 -0.5490  0.6480
  482MOL0     C64994   0.365   1.376   9.164 -0.2087 -0.1784 -0.2433
  482MOL0     C64995   0.248   1.460   9.108  0.4176 -0.8832 -0.6702
  482MOL0     C64996   0.181   1.547   9.217 -0.1600 -0.5683  1.0409
  482MOL0     C64997   0.258   1.673   9.259  0.2313  0.1858  1.0551
  482MOL0     C64998   0.174   1.739   9.350  0.8402 -0.9232  0.0761
  482MOL0     C64999   0.101   1.802   9.428 -0.3888 -0.3208  0.2598
  482MOL0     C65000   0.370   1.044   9.170  0.3796 -0.4788  0.6316
  482MOL0     C65001   0.447   0.940   9.154 -0.3966  0.7121  0.4125
  482MOL0     C65002   0.403   0.848   9.044  0.6318  0.2221  0.2275
  482MOL0     H65003   0.931   0.752   9.410 -2.3506  1.8706 -1.9070
  482MOL0     H65004   1.077   0.552   9.451 -0.2647 -2.3196  1.6738
  482MOL0     H65005   0.869   0.174   9.507 -0.1595 -1.4722  0.5478
  482MOL0     H65006   0.927   0.147   9.343 -1.0269  1.5557 -0.1857
  482MOL0     H65007   1.008  -0.031   9.500  1.3993 -0.4704  1.5756
  482MOL0     H65008   1.104   0.095   9.587 -3.0907 -1.1039  1.5926
  482MOL0     H65009   1.228   0.143   9.391 -0.4773  1.2084 -3.1078
  482MOL0     H65010   1.109   0.089   9.277 -0.7593 -1.5883  0.2793
  482MOL0     H65011   1.240  -0.136   9.432  1.6895  2.7354  1.0487
  482MOL0     H65012   1.202  -0.121   9.263  1.7527  1.3246 -2.9129
  482MOL0     H65013   1.405   0.047   9.246  3.4701  1.6771  1.0342
  482MOL0     H65014   1.424   0.008   9.420 -3.1016 -0.8283  1.7001
  482MOL0     H65015   1.416  -0.253   9.336 -1.3660 -0.9115 -2.5099
  482MOL0     H65016   1.442  -0.179   9.188  3.6677 -0.7172 -0.3051
  482MOL0     H65017   1.645  -0.064   9.280 -2.3757  1.2619 -0.0147
  482MOL0     H65018   1.659  -0.236   9.241 -1.1612  0.9562 -1.5269
  482MOL0     H65019   1.630  -0.149   9.536 -0.3417 -1.1562  0.4670
  482MOL0     H65020   1.671  -0.313   9.480 -1.3145 -0.0705  1.6969
  482MOL0     H65021   1.802   0.046   9.438  1.2972 -0.8775 -3.9815
  482MOL0     H65022   2.164   0.075   9.410 -0.0151  1.4124  0.7562
  482MOL0     H65023   2.050   0.162   9.503 -0.2387  0.1184 -2.8084
  482MOL0     H65024   2.263  -0.048   9.569 -3.9969 -1.2483 -1.3978
  482MOL0     H65025   2.274   0.121   9.613  0.4226  1.0891  0.8048
  482MOL0     H65026   2.083  -0.076   9.735 -0.6328  0.5602 -1.6055
  482MOL0     H65027   2.073   0.103   9.766 -0.1270 -0.4836  1.7832
  482MOL0     H65028   2.191  -0.039   9.940 -0.0802  0.5537  1.5867
  482MOL0     H65029   2.272   0.108   9.900 -0.7011 -1.3934  0.0403
  482MOL0     H65030   2.491  -0.096  10.056  0.5816 -0.1075  0.7409
  482MOL0     H65031   2.729  -0.059  10.083 -1.5665  0.2994  1.1925
  482MOL0     H65032   3.087   0.268  10.056  0.7265 -0.4259 -0.6573
  482MOL0     H65033   3.331   0.303  10.118  2.7344 -0.3318  1.7031
  482MOL0     H65034   3.601   0.215  10.046  3.0618  1.2771  0.9244
  482MOL0     H65035   3.527   0.297  10.180  1.0497  0.4491  0.3820
  482MOL0     H65036   3.751   0.098  10.228  0.1549  0.2813  1.2027
  482MOL0     H65037   3.768   0.279  10.216  0.7377  0.0952  1.0304
  482MOL0     H65038   3.611   0.323  10.367 -1.4118 -0.9188 -2.3606
  482MOL0     H65039   3.577   0.144  10.394  2.1024 -1.7454  0.9677
  482MOL0     H65040   3.711   0.242  10.586  0.6640 -5.5987  0.8385
  482MOL0     H65041   3.805   0.319  10.462 -0.8255  0.8140 -0.0199
  482MOL0     H65042   3.912   0.113  10.586 -3.1711  2.0404  1.6220
  482MOL0     H65043   3.923   0.102  10.415  2.9951 -2.9209  0.9332
  482MOL0     H65044   3.739  -0.065  10.417 -1.7111 -0.9235  0.8483
  482MOL0     H65045   3.865  -0.095  10.534 -0.2263 -1.0526 -2.0857
  482MOL0     H65046   3.628   0.047  10.634 -1.3895 -0.5509  1.9160
  482MOL0     H65047   3.752  -0.051  10.719  0.8750  0.0312 -1.4620
  482MOL0     H65048   3.682  -0.250  10.569 -0.5881  0.0295 -0.8627
  482MOL0     H65049   3.571  -0.197  10.698  3.0476  1.2814  1.9157
  482MOL0     H65050   3.374  -0.124  10.137 -3.3218 -1.5345  3.3785
  482MOL0     H65051   3.134  -0.159  10.031  1.4120 -0.8688  1.3395
  482MOL0     H65052   2.726   0.171   9.707  2.2980 -1.2281  0.6110
  482MOL0     H65053   2.502   0.102   9.670 -1.0401 -1.9246 -0.5013
  482MOL0     H65054   0.740   0.303   9.405  3.5595 -0.7891 -1.7390
  482MOL0     H65055   0.593   0.507   9.365 -0.6922  1.8933  1.0174
  482MOL0     H65056   0.637   0.995   9.436  0.7565 -0.3047  0.2313
  482MOL0     H65057   0.517   1.209   9.428  3.0754 -0.4463  0.3075
  482MOL0     H65058   0.430   1.338   9.085 -1.2955 -2.0228 -0.3097
  482MOL0     H65059   0.427   1.441   9.226 -1.1593  0.7193 -0.2132
  482MOL0     H65060   0.170   1.397   9.065 -1.8270  2.3471 -1.6611
  482MOL0     H65061   0.283   1.525   9.028  3.6778 -0.2739  1.0549
  482MOL0     H65062   0.171   1.478   9.302  2.2481 -0.9009  1.1359
  482MOL0     H65063   0.089   1.587   9.173  1.4795  3.2310  0.7196
  482MOL0     H65064   0.348   1.641   9.313 -0.8579 -1.1501  2.1245
  482MOL0     H65065   0.280   1.728   9.167  1.7775 -0.3911  1.0441
  482MOL0     H65066   0.036   1.864   9.488  0.1768 -1.2458  1.8783
  482MOL0     H65067   0.279   1.063   9.115 -0.7628  1.0952  2.9170
  482MOL0     H65068   0.498   0.813   9.002  1.4403  1.4509  0.9425
  482MOL0     H65069   0.339   0.770   9.085  0.2366  0.1311 -0.5400
  482MOL0     H65070   0.342   0.904   8.972  0.2292 -1.7837 -1.0507
  483MOL0     O65071   0.839  11.055  10.148 -0.1810 -0.5222 -0.5762
  483MOL0     C65072   0.911  11.006  10.236  0.2041  0.1158 -0.1451
  483MOL0     O65073   0.925  11.052  10.369  0.1753 -0.2544  0.1785
  483MOL0     C65074   0.841  11.154  10.412  0.5400  0.3014  1.1847
  483MOL0     C65075   0.791  11.261  10.331 -0.9546 -0.2552  0.4554
  483MOL0     C65076   0.723  11.370  10.395  0.3239  0.0005 -0.3871
  483MOL0     C65077   0.705  11.379  10.528  0.6496 -1.3645 -0.7404
  483MOL0     O65078   0.649  11.488  10.590  0.5162 -0.2583  0.0140
  483MOL0     C65079   0.528  11.539  10.528  0.0435 -0.6143 -0.2702
  483MOL0     C65080   0.418  11.432  10.521  0.1048  0.8015 -0.6182
  483MOL0     C65081   0.281  11.498  10.512 -0.8948 -0.2390  1.3428
  483MOL0     C65082   0.171  11.396  10.505 -0.5464 -0.1573 -1.4066
  483MOL0     C65083   0.049  11.451  10.444 -0.3258 -0.6492 -0.0495
  483MOL0     C65084  -0.038  11.542  10.539 -0.4073  0.2024 -0.1084
  483MOL0     C65085  -0.158  11.609  10.466  0.1176  0.1242 -0.9542
  483MOL0     C65086  -0.229  11.716  10.555  0.1181  0.3196  0.1839
  483MOL0     N65087  -0.267  11.657  10.682 -1.3492  0.1999  0.2641
  483MOL0     C65088  -0.309  11.529  10.707 -0.0247  0.7059  0.4971
  483MOL0     C65089  -0.289  11.513  10.841 -0.2160 -0.5961 -0.0833
  483MOL0     C65090  -0.311  11.396  10.928 -0.9255  0.2347 -0.4636
  483MOL0     C65091  -0.286  11.412  11.080 -0.3690 -0.4654  0.8652
  483MOL0     C65092  -0.390  11.507  11.142  0.9659 -0.0499 -0.8350
  483MOL0     C65093  -0.538  11.441  11.153 -0.0075 -0.0836  0.5029
  483MOL0     O65094  -0.604  11.433  11.028 -0.0834  0.4996  0.2002
  483MOL0     C65095  -0.731  11.368  11.025  0.4455 -0.5511 -0.1356
  483MOL0     C65096  -0.798  11.310  11.139 -0.5938  0.1587 -0.9820
  483MOL0     C65097  -0.908  11.227  11.129  1.3142 -0.2454 -0.2388
  483MOL0     C65098  -0.975  11.201  11.004  0.9586  0.2779  0.9199
  483MOL0     C65099  -1.095  11.110  10.991 -0.0831 -0.0090  0.4345
  483MOL0     O65100  -1.168  11.093  11.099  0.9343  1.0024 -0.2014
  483MOL0     C65101  -1.290  11.022  11.088  0.1018  0.4636 -0.6166
  483MOL0     C65102  -1.415  11.066  11.145  0.5837  0.8184  0.3620
  483MOL0     C65103  -1.528  10.985  11.133 -0.0600  0.4726 -0.0333
  483MOL0     C65104  -1.517  10.850  11.087  0.3049  0.3898 -0.0493
  483MOL0     O65105  -1.634  10.775  11.059 -0.2520  0.0771  0.1710
  483MOL0     C65106  -1.722  10.745  11.161 -0.6076  0.2003 -0.5413
  483MOL0     C65107  -1.855  10.688  11.109  0.1963 -0.6524  0.4355
  483MOL0     C65108  -1.927  10.787  11.015 -0.0719  0.3124 -0.0370
  483MOL0     C65109  -2.075  10.780  10.995  0.3706 -1.1649  1.4115
  483MOL0     C65110  -2.123  10.877  10.876 -0.6115  0.8755 -0.7983
  483MOL0     C65111  -2.279  10.897  10.884 -0.6330 -0.0377  0.9421
  483MOL0     C65112  -2.312  11.029  10.966  0.2340  0.0323  0.7625
  483MOL0     C65113  -2.462  11.049  10.986 -0.6495 -0.3093  0.4550
  483MOL0    Cl65114  -2.542  10.936  11.102 -0.0561  0.0211  0.0668
  483MOL0     C65115  -1.397  10.811  11.047  0.8730 -0.7783 -1.0936
  483MOL0     C65116  -1.283  10.890  11.040 -0.1645 -0.4176  0.1301
  483MOL0     O65117  -1.123  11.073  10.876 -0.5055  0.0455 -0.2718
  483MOL0     C65118  -0.904  11.250  10.890 -0.1349  0.0156  0.5059
  483MOL0     C65119  -0.794  11.332  10.899 -0.7757 -0.7557  0.0663
  483MOL0     N65120  -0.235  11.633  10.895  0.5803  0.1366  0.2499
  483MOL0     N65121  -0.224  11.718  10.799  0.1411 -0.4520  0.2823
  483MOL0     C65122   0.750  11.274  10.596  0.1568  0.0461 -0.1091
  483MOL0     C65123   0.810  11.155  10.548 -0.0074  0.5238 -0.0632
  483MOL0     C65124   0.977  10.885  10.201  0.1367  0.2190 -0.7870
  483MOL0     C65125   1.110  10.859  10.261  0.0669  0.2551 -0.9249
  483MOL0     C65126   1.169  10.733  10.244  0.2321 -0.0804  0.1806
  483MOL0     C65127   1.110  10.635  10.152  0.6137  0.2823  1.0482
  483MOL0     O65128   1.183  10.516  10.128 -0.4692  0.3402  0.7245
  483MOL0     C65129   1.117  10.391  10.137  0.0785  0.6370 -0.7052
  483MOL0     C65130   1.214  10.274  10.180  0.6663  0.3072  0.0073
  483MOL0     C65131   1.276  10.297  10.323 -0.4417  0.3148 -0.9722
  483MOL0     C65132   1.186  10.319  10.444  0.1862  0.7878  0.5038
  483MOL0     C65133   1.243  10.294  10.578  0.7246  0.1787  0.0848
  483MOL0     C65134   1.282  10.272  10.693 -0.1330  0.7969  0.6843
  483MOL0     C65135   0.985  10.666  10.093 -0.1375 -0.1374  0.1441
  483MOL0     C65136   0.917  10.783  10.118 -0.5709 -0.4937  0.6653
  483MOL0     C65137   0.792  10.805  10.034 -1.0907  0.0667 -0.9165
  483MOL0     H65138   0.790  11.258  10.222 -1.0193  0.6138  0.4251
  483MOL0     H65139   0.683  11.458  10.345 -0.2416  0.7341  1.2874
  483MOL0     H65140   0.496  11.622  10.591  1.4816  0.9226 -1.4844
  483MOL0     H65141   0.544  11.574  10.426  0.8806  0.9917  0.3880
  483MOL0     H65142   0.405  11.381  10.617  1.7380  0.1539 -0.7093
  483MOL0     H65143   0.435  11.351  10.450 -1.4194 -1.0559  0.9941
  483MOL0     H65144   0.292  11.549  10.415  0.2999 -1.3979  0.8430
  483MOL0     H65145   0.249  11.573  10.586 -0.9661 -1.9609  3.1370
  483MOL0     H65146   0.202  11.320  10.433 -0.8026  0.2376 -1.9307
  483MOL0     H65147   0.148  11.357  10.605 -1.9602 -0.6084 -1.8928
  483MOL0     H65148   0.083  11.510  10.359  1.2054 -1.3413  0.0492
  483MOL0     H65149  -0.013  11.371  10.403  0.9866 -1.7229 -0.0174
  483MOL0     H65150  -0.072  11.487  10.628  0.7239 -1.4241 -0.6462
  483MOL0     H65151   0.023  11.625  10.577 -0.2930  0.1800 -0.2413
  483MOL0     H65152  -0.238  11.538  10.443 -0.5606  1.1817 -1.9561
  483MOL0     H65153  -0.121  11.657  10.375 -0.6315  0.4285 -1.1133
  483MOL0     H65154  -0.163  11.801  10.578  2.5579 -0.5710 -2.8779
  483MOL0     H65155  -0.322  11.744  10.505  1.4942 -2.0302 -4.1913
  483MOL0     H65156  -0.343  11.447  10.644  1.6231  1.5122 -1.5483
  483MOL0     H65157  -0.409  11.353  10.902 -0.7322  0.2512 -1.2642
  483MOL0     H65158  -0.237  11.323  10.895 -1.2765  0.1959 -1.2075
  483MOL0     H65159  -0.284  11.313  11.128  0.3033  0.5959  3.1589
  483MOL0     H65160  -0.186  11.453  11.095 -1.1274  1.4188  1.0655
  483MOL0     H65161  -0.390  11.610  11.104 -0.1050 -0.1117 -1.0344
  483MOL0     H65162  -0.354  11.510  11.245 -0.0933 -2.6468 -0.3164
  483MOL0     H65163  -0.598  11.506  11.217 -0.3085  0.6018 -0.4495
  483MOL0     H65164  -0.534  11.337  11.188 -2.6214  0.2851  2.1638
  483MOL0     H65165  -0.764  11.325  11.241 -2.1530  0.2301 -0.4418
  483MOL0     H65166  -0.938  11.180  11.222 -0.0415 -0.4237 -0.7413
  483MOL0     H65167  -1.415  11.170  11.175 -1.4202  1.0258 -0.2154
  483MOL0     H65168  -1.624  11.024  11.165 -1.0811 -1.4546 -0.6048
  483MOL0     H65169  -1.671  10.670  11.223  1.6907  1.7583 -0.3971
  483MOL0     H65170  -1.740  10.826  11.232  1.3158 -0.9065  1.3510
  483MOL0     H65171  -1.837  10.594  11.055 -2.1689  0.2446 -2.1204
  483MOL0     H65172  -1.916  10.663  11.196 -0.2469 -3.9523 -0.6795
  483MOL0     H65173  -1.900  10.887  11.050  1.4920 -0.1579  0.1852
  483MOL0     H65174  -1.868  10.780  10.923  2.2196  0.7964  1.3184
  483MOL0     H65175  -2.139  10.811  11.078 -2.7604 -0.0349 -1.2133
  483MOL0     H65176  -2.104  10.688  10.944  1.9856  0.9279 -4.0669
  483MOL0     H65177  -2.103  10.824  10.783 -0.6748  1.9596 -1.4562
  483MOL0     H65178  -2.061  10.967  10.874 -1.7496  1.6762 -1.3315
  483MOL0     H65179  -2.316  10.906  10.782 -0.6330  0.5675  0.9875
  483MOL0     H65180  -2.329  10.817  10.939 -0.0633 -1.2084 -0.1819
  483MOL0     H65181  -2.273  11.119  10.918 -0.6943 -1.5447 -3.4569
  483MOL0     H65182  -2.264  11.023  11.064  4.4271 -0.6378 -1.1234
  483MOL0     H65183  -2.480  11.154  11.012  0.4463 -0.1372  0.5647
  483MOL0     H65184  -2.504  11.022  10.888  3.0262 -3.6822 -0.4274
  483MOL0     H65185  -1.394  10.716  10.995  0.3839 -0.5768 -1.5001
  483MOL0     H65186  -1.185  10.853  11.010  1.4030  2.3221  1.4870
  483MOL0     H65187  -0.944  11.232  10.791 -3.2163 -0.4412  1.7214
  483MOL0     H65188  -0.749  11.362  10.805  5.5939 -0.1133  2.8328
  483MOL0     H65189   0.725  11.270  10.702  0.7344 -3.3977  0.0051
  483MOL0     H65190   0.851  11.077  10.612  4.0663  1.9079 -0.7613
  483MOL0     H65191   1.149  10.944  10.316 -1.1294  0.2748 -0.0687
  483MOL0     H65192   1.263  10.704  10.288 -0.2235  0.5701  1.6357
  483MOL0     H65193   1.072  10.362  10.041 -3.1734 -0.4177  0.9773
  483MOL0     H65194   1.028  10.402  10.199 -1.1473 -0.1472 -2.2557
  483MOL0     H65195   1.293  10.280  10.105  0.5635 -0.1449 -0.1456
  483MOL0     H65196   1.149  10.186  10.176  0.0585  0.7135  0.6484
  483MOL0     H65197   1.354  10.374  10.323 -0.1305  0.0021 -0.6806
  483MOL0     H65198   1.328  10.202  10.333 -0.2394  0.4871 -0.3591
  483MOL0     H65199   1.155  10.424  10.441 -2.1715  0.1752 -3.8269
  483MOL0     H65200   1.096  10.258  10.437  1.4702 -1.0260 -1.3811
  483MOL0     H65201   1.303  10.252  10.796 -3.2045  0.5381  1.3378
  483MOL0     H65202   0.928  10.596  10.032 -1.4005 -1.1175  2.3395
  483MOL0     H65203   0.715  10.854  10.095 -0.1860  0.0767  0.2401
  483MOL0     H65204   0.819  10.867   9.948 -2.4429  0.6353 -0.9617
  483MOL0     H65205   0.754  10.708   9.999 -0.4537 -0.2569 -0.7185
  484MOL0     O65206   7.285   4.885  11.215  0.2700 -0.0989  0.2188
  484MOL0     C65207   7.239   4.919  11.102 -0.3587  0.5164 -0.8227
  484MOL0     O65208   7.167   5.034  11.078 -0.2669  0.6387  0.0888
  484MOL0     C65209   7.167   5.145  11.161 -0.5683 -0.0534  0.4143
  484MOL0     C65210   7.253   5.159  11.273 -0.3935 -0.9225 -0.7152
  484MOL0     C65211   7.242   5.276  11.353 -0.6006  0.9665  0.0034
  484MOL0     C65212   7.153   5.377  11.325  0.0296 -1.2004 -0.4175
  484MOL0     O65213   7.158   5.494  11.398  0.3568  0.5702  0.9431
  484MOL0     C65214   7.093   5.613  11.336 -1.0878  0.2978 -0.3815
  484MOL0     C65215   7.108   5.734  11.428 -0.3663 -0.2259 -0.9172
  484MOL0     C65216   7.019   5.715  11.546  1.3509 -0.3580  0.1488
  484MOL0     C65217   7.039   5.831  11.654  0.5769  1.2716 -0.3737
  484MOL0     C65218   6.906   5.832  11.731 -0.6660 -0.2678  0.0335
  484MOL0     C65219   6.905   5.921  11.855  0.0068 -0.0127 -0.2767
  484MOL0     C65220   7.030   5.919  11.953  0.0382 -0.1615  0.3451
  484MOL0     C65221   7.145   6.014  11.922 -0.4044 -0.3415 -0.4474
  484MOL0     N65222   7.233   6.022  12.035  0.6788 -0.5500  0.0604
  484MOL0     C65223   7.262   5.913  12.105 -0.4135  0.2286 -0.8817
  484MOL0     C65224   7.315   5.968  12.213 -0.0229 -0.2841  0.6779
  484MOL0     C65225   7.314   5.899  12.351  1.0954  0.6206 -0.0265
  484MOL0     C65226   7.170   5.865  12.400 -0.2944  0.0200  0.0137
  484MOL0     C65227   7.179   5.784  12.535  0.0491 -0.2127 -0.7573
  484MOL0     C65228   7.241   5.646  12.516  0.1301  0.0470  0.5201
  484MOL0     O65229   7.192   5.550  12.618 -0.1893 -0.0557  0.3554
  484MOL0     C65230   7.249   5.421  12.642  0.1313  0.7793 -0.0700
  484MOL0     C65231   7.305   5.342  12.544 -0.8709 -0.0556  0.2368
  484MOL0     C65232   7.357   5.221  12.579 -0.1115 -0.9642  0.0628
  484MOL0     C65233   7.364   5.171  12.712 -0.4053  0.3008  0.8898
  484MOL0     C65234   7.426   5.044  12.742  0.1430 -0.4918 -0.1424
  484MOL0     O65235   7.489   4.982  12.641  0.1422  0.0258  0.2240
  484MOL0     C65236   7.586   4.886  12.668 -0.4336  0.2422  0.2831
  484MOL0     C65237   7.703   4.908  12.731 -0.2156  0.0146  0.0242
  484MOL0     C65238   7.798   4.807  12.756 -0.1488 -0.3519  0.2761
  484MOL0     C65239   7.782   4.675  12.699  0.1696 -0.8687 -0.0640
  484MOL0     O65240   7.870   4.588  12.757  0.2756  0.2125  0.0343
  484MOL0     C65241   7.803   4.460  12.762  0.9804 -0.3892 -0.4613
  484MOL0     C65242   7.879   4.372  12.853 -1.0452 -0.6411  0.4494
  484MOL0     C65243   8.021   4.364  12.806 -0.1470  0.7002  0.4958
  484MOL0     C65244   8.099   4.273  12.900  0.8393 -0.2642  0.2435
  484MOL0     C65245   8.234   4.239  12.823  0.4112  0.1585  0.1868
  484MOL0     C65246   8.327   4.178  12.913 -0.3981  1.0248  0.0616
  484MOL0     C65247   8.313   4.026  12.936 -0.3807 -0.2497 -0.3649
  484MOL0     C65248   8.427   3.976  13.020  0.4765  0.0390  0.8415
  484MOL0    Cl65249   8.593   4.007  12.949 -0.2948  0.0696 -0.6109
  484MOL0     C65250   7.667   4.661  12.615 -0.4145 -0.1943 -0.3071
  484MOL0     C65251   7.570   4.766  12.613  0.1939  0.1100 -0.4396
  484MOL0     O65252   7.429   5.015  12.866  0.0942 -0.6207  0.4627
  484MOL0     C65253   7.305   5.252  12.805 -0.1200 -0.0125 -0.2019
  484MOL0     C65254   7.252   5.374  12.775  0.6389 -0.2528  0.3696
  484MOL0     N65255   7.336   6.103  12.199 -0.0749 -0.8050 -0.2706
  484MOL0     N65256   7.272   6.139  12.102 -0.8762 -0.0174  0.8398
  484MOL0     C65257   7.070   5.359  11.207  0.0186 -0.9031 -0.1786
  484MOL0     C65258   7.073   5.241  11.138 -0.8260 -0.1896 -0.1773
  484MOL0     C65259   7.253   4.812  10.999  0.3647  0.0888  0.4194
  484MOL0     C65260   7.217   4.848  10.869 -0.1289  0.4600  0.1992
  484MOL0     C65261   7.229   4.764  10.763 -0.7739 -0.5919  0.4311
  484MOL0     C65262   7.270   4.624  10.786  1.3767 -0.0437  0.2463
  484MOL0     O65263   7.285   4.528  10.687 -0.6853 -0.0705  0.2272
  484MOL0     C65264   7.250   4.552  10.549  0.2051  0.3452  0.2738
  484MOL0     C65265   7.271   4.413  10.485  0.6961 -0.6589  0.3375
  484MOL0     C65266   7.408   4.391  10.447 -0.4829  0.0602  0.0381
  484MOL0     C65267   7.412   4.279  10.343  1.1408 -0.0297  0.2453
  484MOL0     C65268   7.545   4.240  10.302  0.3692 -1.0427  0.1293
  484MOL0     C65269   7.662   4.213  10.290 -0.7109 -0.0651 -0.0222
  484MOL0     C65270   7.291   4.581  10.918  0.7996 -0.3034  0.4022
  484MOL0     C65271   7.280   4.678  11.019 -0.4231 -0.2316 -0.8562
  484MOL0     C65272   7.322   4.615  11.155  0.2840  0.0368 -0.3376
  484MOL0     H65273   7.341   5.099  11.293 -0.3983 -1.8667 -3.1905
  484MOL0     H65274   7.306   5.277  11.441 -1.5580 -1.4971  0.8074
  484MOL0     H65275   7.138   5.616  11.236  0.5540  0.4278  0.3219
  484MOL0     H65276   6.988   5.585  11.324 -1.0468 -1.2117  2.0753
  484MOL0     H65277   7.079   5.830  11.384 -1.1204  0.2700  0.5945
  484MOL0     H65278   7.208   5.746  11.470 -1.0232 -2.1542  1.4141
  484MOL0     H65279   7.043   5.617  11.589  0.5742 -1.9578 -2.8063
  484MOL0     H65280   6.913   5.715  11.519  1.2412  2.0434  0.2932
  484MOL0     H65281   7.119   5.808  11.724 -2.1890  0.7594  2.8688
  484MOL0     H65282   7.063   5.928  11.610 -1.7438  1.1422 -2.1040
  484MOL0     H65283   6.814   5.855  11.677 -0.5742  0.7163  0.2772
  484MOL0     H65284   6.890   5.733  11.774 -1.0987  0.0572  0.6298
  484MOL0     H65285   6.893   6.019  11.808  0.8807 -1.3899 -3.6904
  484MOL0     H65286   6.816   5.896  11.914  1.6938 -2.9802  1.3070
  484MOL0     H65287   7.066   5.816  11.944  3.7563  1.2105 -3.2378
  484MOL0     H65288   6.982   5.941  12.049 -0.1083 -2.4820  0.8514
  484MOL0     H65289   7.200   5.974  11.836  1.9917  1.9906 -0.1036
  484MOL0     H65290   7.103   6.113  11.898 -1.0406 -0.4480  0.2022
  484MOL0     H65291   7.215   5.816  12.092 -1.0045  0.2292  0.9308
  484MOL0     H65292   7.370   5.807  12.332 -3.6365 -2.6231 -0.0662
  484MOL0     H65293   7.366   5.969  12.416  2.3398  1.0319 -1.4268
  484MOL0     H65294   7.110   5.956  12.408 -2.0401 -0.8143 -2.3360
  484MOL0     H65295   7.119   5.801  12.327  2.4031 -1.0724 -1.0700
  484MOL0     H65296   7.086   5.766  12.589 -0.9874 -2.0777 -2.9799
  484MOL0     H65297   7.236   5.840  12.610  1.0274 -1.9486 -0.1713
  484MOL0     H65298   7.347   5.669  12.528  0.0458  1.5957 -1.1729
  484MOL0     H65299   7.227   5.608  12.414  0.3565  1.5457 -0.0858
  484MOL0     H65300   7.313   5.370  12.440  2.3903  1.3105  0.7258
  484MOL0     H65301   7.410   5.161  12.505 -0.3234 -1.7650  0.5493
  484MOL0     H65302   7.704   5.011  12.766 -3.9295  1.0811 -2.3795
  484MOL0     H65303   7.880   4.828  12.825 -2.7421  3.1389  2.6536
  484MOL0     H65304   7.709   4.472  12.816  0.3377 -3.8532 -0.5809
  484MOL0     H65305   7.790   4.411  12.665  2.3657 -3.7170  0.8794
  484MOL0     H65306   7.890   4.412  12.954 -0.6516 -4.0287  1.8940
  484MOL0     H65307   7.827   4.275  12.854 -0.5724 -1.3487 -5.5343
  484MOL0     H65308   8.012   4.319  12.706 -0.6038  0.6916  0.5387
  484MOL0     H65309   8.080   4.455  12.798  1.3638  0.4603  5.5461
  484MOL0     H65310   8.044   4.183  12.929  1.3236 -0.0585  1.9539
  484MOL0     H65311   8.125   4.320  12.996  0.9457 -1.1959  0.6889
  484MOL0     H65312   8.269   4.330  12.773 -0.4883  0.9388  0.9147
  484MOL0     H65313   8.209   4.168  12.744  0.9130  1.0907 -0.8377
  484MOL0     H65314   8.425   4.196  12.869  0.3563 -2.3581  0.0611
  484MOL0     H65315   8.326   4.227  13.011 -3.3996 -1.5041  1.4598
  484MOL0     H65316   8.316   3.986  12.834 -2.5684  2.1641 -1.5196
  484MOL0     H65317   8.222   4.002  12.991  0.5984  0.7035  1.8044
  484MOL0     H65318   8.410   4.020  13.118 -0.3126 -2.1736  1.7438
  484MOL0     H65319   8.418   3.868  13.033 -0.1689 -0.0379 -0.1015
  484MOL0     H65320   7.652   4.560  12.579  3.5269  0.4039 -4.5644
  484MOL0     H65321   7.478   4.747  12.559  0.7405  0.1875 -1.4193
  484MOL0     H65322   7.299   5.226  12.911 -1.2006  0.9191 -0.0119
  484MOL0     H65323   7.212   5.439  12.853  1.4189 -1.4220  1.7966
  484MOL0     H65324   6.984   5.420  11.185  0.0335 -0.5799  0.6326
  484MOL0     H65325   6.992   5.218  11.070  0.5515 -4.2961 -0.6749
  484MOL0     H65326   7.191   4.950  10.843 -2.0713  0.1021  0.6509
  484MOL0     H65327   7.212   4.808  10.665 -0.8416 -1.6394 -0.0439
  484MOL0     H65328   7.308   4.634  10.507  0.7999  0.6665  1.6825
  484MOL0     H65329   7.144   4.581  10.550 -0.0561 -0.4183 -1.4458
  484MOL0     H65330   7.200   4.416  10.402 -0.0794 -0.9441  0.9739
  484MOL0     H65331   7.231   4.337  10.553  1.8909  0.2532  2.1614
  484MOL0     H65332   7.469   4.373  10.537  2.3341 -0.1364 -1.7900
  484MOL0     H65333   7.447   4.483  10.404  1.0449 -0.5724 -0.0055
  484MOL0     H65334   7.380   4.192  10.401  4.9077  1.1539  4.7085
  484MOL0     H65335   7.361   4.297  10.248  0.3325  0.7706  0.8117
  484MOL0     H65336   7.763   4.179  10.279 -0.7786 -0.6438  0.9720
  484MOL0     H65337   7.316   4.478  10.940  1.0890 -0.0452  1.3274
  484MOL0     H65338   7.359   4.512  11.155  2.8140  0.8391 -2.3668
  484MOL0     H65339   7.399   4.680  11.198  1.3845 -1.5108  0.1213
  484MOL0     H65340   7.242   4.604  11.229  1.8034 -3.0989  0.9931
  485MOL0     O65341   0.270   6.698   1.256  0.4509 -0.5769  0.1979
  485MOL0     C65342   0.378   6.677   1.312  0.2598 -0.5637 -0.2390
  485MOL0     O65343   0.434   6.561   1.324 -0.1925 -0.0855 -1.0582
  485MOL0     C65344   0.399   6.459   1.247  0.5046 -0.0954 -0.0473
  485MOL0     C65345   0.284   6.391   1.278  0.6500  0.5537 -1.0778
  485MOL0     C65346   0.251   6.271   1.216 -0.0788 -0.8008 -0.1469
  485MOL0     C65347   0.343   6.218   1.125  0.0537  0.0720 -0.0526
  485MOL0     O65348   0.306   6.103   1.068 -0.7004  0.2677 -0.4639
  485MOL0     C65349   0.382   6.054   0.953 -0.5621  0.2647  0.6228
  485MOL0     C65350   0.287   5.952   0.883  0.9541 -0.1479 -1.0995
  485MOL0     C65351   0.156   6.003   0.818 -0.1328  0.0377 -1.2025
  485MOL0     C65352   0.077   5.881   0.778 -0.3703  0.3093 -0.9542
  485MOL0     C65353  -0.063   5.915   0.717 -0.3033  0.5883 -0.4867
  485MOL0     C65354  -0.108   5.801   0.626  0.1228 -0.9451 -0.4728
  485MOL0     C65355  -0.091   5.661   0.687 -1.3575 -0.8801 -0.4622
  485MOL0     C65356  -0.221   5.583   0.697  0.3521  0.0844 -0.0918
  485MOL0     N65357  -0.260   5.537   0.562  0.1918 -0.5535  0.5123
  485MOL0     C65358  -0.227   5.576   0.432  0.3961  0.5781  0.2677
  485MOL0     C65359  -0.305   5.509   0.346 -1.0087 -0.5206 -1.4312
  485MOL0     C65360  -0.312   5.531   0.205  0.4832  0.5960  0.7197
  485MOL0     C65361  -0.183   5.578   0.130 -0.2800  0.3381  0.0538
  485MOL0     C65362  -0.098   5.455   0.107  0.4210 -0.1448 -0.8935
  485MOL0     C65363   0.026   5.484   0.023  0.6275  1.0462 -0.1297
  485MOL0     O65364   0.088   5.361   0.021  0.8022 -0.0748 -0.5040
  485MOL0     C65365   0.079   5.262  -0.073  0.1834  0.0344  0.3797
  485MOL0     C65366   0.166   5.151  -0.072  0.6125 -0.7247  0.0664
  485MOL0     C65367   0.158   5.050  -0.167 -0.2287 -0.1033  0.4670
  485MOL0     C65368   0.066   5.053  -0.274  0.3365  0.8476  0.5021
  485MOL0     C65369   0.062   4.953  -0.377  0.2791 -0.9501 -0.7241
  485MOL0     O65370  -0.048   4.967  -0.465  0.0407 -0.6769 -0.2109
  485MOL0     C65371  -0.073   4.882  -0.566  0.0470 -0.1520 -1.0038
  485MOL0     C65372  -0.205   4.853  -0.588 -0.6725  0.0384 -0.7206
  485MOL0     C65373  -0.242   4.766  -0.693 -0.5015  0.2292  0.8159
  485MOL0     C65374  -0.148   4.693  -0.763  0.4114  0.5201  0.3909
  485MOL0     O65375  -0.179   4.608  -0.868 -0.3337 -0.6454 -0.5002
  485MOL0     C65376  -0.313   4.553  -0.879 -0.1799  0.1516 -0.8195
  485MOL0     C65377  -0.324   4.478  -1.008  0.6677  0.6767 -0.4586
  485MOL0     C65378  -0.231   4.353  -1.029  0.6688  0.7618  0.1030
  485MOL0     C65379  -0.249   4.288  -1.167 -0.1886 -0.6751  0.2879
  485MOL0     C65380  -0.169   4.165  -1.195 -0.4276 -0.3227  0.0701
  485MOL0     C65381  -0.177   4.134  -1.354 -0.0717 -0.4109  0.3819
  485MOL0     C65382  -0.106   3.997  -1.383  0.4760 -0.7323 -0.3310
  485MOL0     C65383  -0.070   3.984  -1.533  0.2990  0.3253  0.4131
  485MOL0    Cl65384   0.080   4.070  -1.580 -0.5521 -0.3918 -0.3413
  485MOL0     C65385  -0.018   4.709  -0.719  0.1094 -0.0886  0.2015
  485MOL0     C65386   0.028   4.803  -0.625  0.1255  0.1175 -0.2849
  485MOL0     O65387   0.150   4.868  -0.383  0.1113 -0.1676 -0.2396
  485MOL0     C65388  -0.028   5.163  -0.282 -0.9305  0.0208 -0.2632
  485MOL0     C65389  -0.011   5.268  -0.188 -0.2457  0.9724  0.2750
  485MOL0     N65390  -0.384   5.427   0.419  0.1689  0.2413  0.2796
  485MOL0     N65391  -0.352   5.440   0.544 -0.2360 -0.1318  0.5655
  485MOL0     C65392   0.468   6.283   1.116  0.2950 -0.0405  0.4709
  485MOL0     C65393   0.495   6.402   1.172 -0.9487 -0.2717  0.4397
  485MOL0     C65394   0.444   6.792   1.382  1.2313 -1.1550  0.1669
  485MOL0     C65395   0.520   6.768   1.498 -0.6305 -0.1214  0.0409
  485MOL0     C65396   0.592   6.857   1.569 -0.4414  0.0359  0.6648
  485MOL0     C65397   0.582   6.989   1.530  0.3197 -0.1107 -0.5415
  485MOL0     O65398   0.649   7.086   1.608  0.7453  0.2693  0.3557
  485MOL0     C65399   0.743   7.178   1.539  0.0288 -0.2414  0.2564
  485MOL0     C65400   0.852   7.093   1.489 -0.2787  0.2471  0.5699
  485MOL0     C65401   0.977   7.179   1.427  0.4289 -0.7362  0.1109
  485MOL0     C65402   1.087   7.216   1.533  0.0972  0.3492  0.6218
  485MOL0     C65403   1.217   7.243   1.473 -1.0163 -0.0803 -0.8511
  485MOL0     C65404   1.329   7.271   1.438 -0.1383  0.1762 -0.0646
  485MOL0     C65405   0.500   7.030   1.419 -1.4494 -0.4073 -0.3018
  485MOL0     C65406   0.439   6.926   1.340  0.1310 -0.8465  0.6027
  485MOL0     C65407   0.331   6.974   1.235 -0.9383 -0.2693  0.2197
  485MOL0     H65408   0.217   6.433   1.353  0.6513  0.3012 -0.9319
  485MOL0     H65409   0.162   6.216   1.242 -0.0854 -0.2215  1.0956
  485MOL0     H65410   0.407   6.135   0.883 -0.9858 -0.2134 -0.1005
  485MOL0     H65411   0.467   6.001   0.994 -0.5434  1.2565  1.9233
  485MOL0     H65412   0.253   5.893   0.968 -2.0029  3.4753  0.4959
  485MOL0     H65413   0.341   5.893   0.808 -0.4605 -0.3706 -1.9847
  485MOL0     H65414   0.174   6.057   0.724  3.6724  1.7054  0.3118
  485MOL0     H65415   0.105   6.067   0.891  1.8646 -0.0341  0.3143
  485MOL0     H65416   0.124   5.817   0.703  4.7550  0.3740  1.7886
  485MOL0     H65417   0.069   5.823   0.870 -2.6514  2.0827  0.0718
  485MOL0     H65418  -0.137   5.907   0.797 -1.2122  1.3431 -1.2108
  485MOL0     H65419  -0.064   6.014   0.669  1.4305 -0.1867 -2.2361
  485MOL0     H65420  -0.211   5.825   0.597 -0.2594 -2.3459 -0.3619
  485MOL0     H65421  -0.047   5.814   0.537  0.4562 -2.1359 -0.4396
  485MOL0     H65422  -0.067   5.664   0.794  2.8885 -0.8578 -1.2340
  485MOL0     H65423  -0.017   5.597   0.639  1.8060  2.4131 -0.3647
  485MOL0     H65424  -0.221   5.502   0.770 -0.9858  1.2593  1.2951
  485MOL0     H65425  -0.296   5.654   0.733 -0.7165 -0.7023 -0.6944
  485MOL0     H65426  -0.156   5.654   0.409  2.2345 -0.6669  1.4071
  485MOL0     H65427  -0.345   5.433   0.170  2.0735 -0.6815  2.5425
  485MOL0     H65428  -0.384   5.613   0.206 -0.3154 -0.0831  2.2157
  485MOL0     H65429  -0.203   5.636   0.039 -2.6511 -0.9790 -0.3204
  485MOL0     H65430  -0.129   5.648   0.195  1.3257 -1.7865  1.1054
  485MOL0     H65431  -0.162   5.393   0.043 -1.7311  1.6187 -0.6105
  485MOL0     H65432  -0.072   5.415   0.205 -2.2104  0.4313  0.1355
  485MOL0     H65433   0.093   5.553   0.076  0.0658  0.3691  1.5112
  485MOL0     H65434  -0.011   5.521  -0.073 -2.6578 -2.5118 -0.4687
  485MOL0     H65435   0.235   5.166   0.010 -0.4725 -1.2136  1.1023
  485MOL0     H65436   0.225   4.966  -0.153 -0.4524 -0.4167 -0.3070
  485MOL0     H65437  -0.274   4.900  -0.518  1.5404  2.9222 -0.2825
  485MOL0     H65438  -0.346   4.766  -0.724  0.1599  0.5494 -1.6359
  485MOL0     H65439  -0.338   4.489  -0.794 -1.2104 -0.4089 -1.5348
  485MOL0     H65440  -0.365   4.648  -0.891 -1.5639 -0.7078 -1.9245
  485MOL0     H65441  -0.429   4.449  -1.022  0.9510  0.5046 -2.4523
  485MOL0     H65442  -0.304   4.540  -1.096  3.0118 -0.9170 -1.1464
  485MOL0     H65443  -0.126   4.382  -1.032  0.8840 -0.0441 -1.6954
  485MOL0     H65444  -0.260   4.290  -0.945 -0.6891  0.6887 -0.3969
  485MOL0     H65445  -0.222   4.366  -1.238 -1.3462 -0.6586 -0.1498
  485MOL0     H65446  -0.353   4.260  -1.187 -0.1919 -0.1767 -0.4116
  485MOL0     H65447  -0.217   4.087  -1.135 -2.7737  1.3226  0.4705
  485MOL0     H65448  -0.068   4.175  -1.155 -0.0925  4.1779 -1.3082
  485MOL0     H65449  -0.285   4.131  -1.373 -0.4644  0.4982  2.2612
  485MOL0     H65450  -0.143   4.224  -1.406 -2.2341 -0.5958 -1.5324
  485MOL0     H65451  -0.180   3.921  -1.359  0.9389 -2.0938 -2.8238
  485MOL0     H65452  -0.011   3.991  -1.329  1.1468  3.7983 -0.6232
  485MOL0     H65453  -0.061   3.879  -1.561 -1.2971  0.0749  0.8006
  485MOL0     H65454  -0.150   4.029  -1.593 -1.9452 -1.2120  2.1069
  485MOL0     H65455   0.052   4.640  -0.766 -1.3099 -1.0025 -0.6805
  485MOL0     H65456   0.135   4.812  -0.613  0.2609 -1.6632  0.0908
  485MOL0     H65457  -0.104   5.167  -0.359 -0.6849 -2.4454 -0.6886
  485MOL0     H65458  -0.082   5.350  -0.191  0.3248  1.4554 -0.5569
  485MOL0     H65459   0.544   6.243   1.050 -0.6017 -1.9284  0.5358
  485MOL0     H65460   0.591   6.453   1.164  1.0912 -3.8727 -0.2065
  485MOL0     H65461   0.522   6.667   1.538  1.8021 -0.4222 -0.6874
  485MOL0     H65462   0.651   6.837   1.658  1.0460  0.6754 -0.1432
  485MOL0     H65463   0.780   7.252   1.611 -1.1047  0.5476  0.0527
  485MOL0     H65464   0.689   7.229   1.459 -1.6844 -0.2998  1.3011
  485MOL0     H65465   0.817   7.029   1.408  0.0492 -2.7722  2.6608
  485MOL0     H65466   0.880   7.012   1.558  0.0843 -1.9761 -2.0337
  485MOL0     H65467   0.945   7.273   1.381 -0.5946 -1.2110 -0.1838
  485MOL0     H65468   1.031   7.112   1.359 -0.5482 -2.2033  0.7381
  485MOL0     H65469   1.049   7.311   1.571  0.9403  0.0379  2.3459
  485MOL0     H65470   1.083   7.147   1.618  0.2402  0.2270  0.5315
  485MOL0     H65471   1.413   7.324   1.400 -1.2368  0.6731 -1.9049
  485MOL0     H65472   0.479   7.135   1.400  1.3766  0.0091 -1.6201
  485MOL0     H65473   0.362   7.077   1.215  0.2797 -0.0462  2.8241
  485MOL0     H65474   0.341   6.918   1.142  3.4950 -2.6302  1.8099
  485MOL0     H65475   0.231   6.962   1.278 -0.4682 -0.9044  1.1665
  486MOL0     O65476   6.684  11.380   1.760  0.3719 -0.0224  0.1554
  486MOL0     C65477   6.769  11.455   1.806  0.2127 -0.2270  0.2066
  486MOL0     O65478   6.745  11.573   1.889 -0.6134  0.3295  1.6565
  486MOL0     C65479   6.628  11.610   1.940  1.0554 -0.1782 -0.6318
  486MOL0     C65480   6.622  11.741   1.984  0.0412 -0.1831  0.2947
  486MOL0     C65481   6.509  11.802   2.031  0.6265 -0.7448  1.0340
  486MOL0     C65482   6.388  11.726   2.028 -0.7961 -0.4986 -0.2910
  486MOL0     O65483   6.269  11.795   2.056 -0.4975  0.2209  0.9393
  486MOL0     C65484   6.193  11.746   2.169  0.9789  0.0898 -0.2975
  486MOL0     C65485   6.087  11.851   2.221 -0.1990 -0.4837  0.9574
  486MOL0     C65486   5.990  11.916   2.120  0.0453 -0.5235 -0.2222
  486MOL0     C65487   5.869  11.976   2.188  0.2937 -0.8784  0.0392
  486MOL0     C65488   5.754  12.002   2.083  0.6277  0.3487 -0.2218
  486MOL0     C65489   5.652  12.086   2.167 -0.5282 -0.4345  0.0951
  486MOL0     C65490   5.527  12.107   2.077 -0.1848 -0.4364  0.9942
  486MOL0     C65491   5.463  12.238   2.111  0.4024  0.7132  0.0781
  486MOL0     N65492   5.523  12.346   2.029  0.4355  0.7339  0.4478
  486MOL0     C65493   5.657  12.385   2.014  0.7492 -0.6407 -0.3997
  486MOL0     C65494   5.651  12.494   1.930  0.1230 -0.2987 -0.0534
  486MOL0     C65495   5.776  12.581   1.904 -0.7577 -0.1666 -0.4619
  486MOL0     C65496   5.848  12.552   1.772 -0.0755 -0.3346 -0.0866
  486MOL0     C65497   5.839  12.669   1.682  0.1625 -0.1292 -0.4292
  486MOL0     C65498   5.889  12.653   1.539 -0.0708 -0.2202 -0.0065
  486MOL0     O65499   5.996  12.562   1.524 -0.7720  0.1673  0.3681
  486MOL0     C65500   6.125  12.593   1.553 -0.0342  0.2640  0.3122
  486MOL0     C65501   6.219  12.489   1.547  0.1558 -0.2342  0.1910
  486MOL0     C65502   6.357  12.516   1.565 -0.2597  0.5215  1.3216
  486MOL0     C65503   6.400  12.642   1.610 -0.0749 -0.0132  0.2819
  486MOL0     C65504   6.544  12.668   1.636  0.0000 -0.6014  1.1410
  486MOL0     O65505   6.629  12.567   1.614  0.4250  0.7620 -0.0080
  486MOL0     C65506   6.766  12.584   1.611  0.6217  0.5974  0.2309
  486MOL0     C65507   6.832  12.522   1.510 -0.7271 -0.5858  0.5729
  486MOL0     C65508   6.976  12.519   1.503  0.1857 -0.5930  0.1443
  486MOL0     C65509   7.052  12.589   1.599 -0.2609  0.8474 -0.7906
  486MOL0     O65510   7.187  12.590   1.611  0.5029  0.2576  0.0826
  486MOL0     C65511   7.260  12.563   1.491  0.4517  0.0115  0.3844
  486MOL0     C65512   7.414  12.561   1.507 -0.0420 -0.8580 -0.6217
  486MOL0     C65513   7.463  12.674   1.604  0.3732  0.2978  0.4164
  486MOL0     C65514   7.612  12.721   1.581 -0.2598 -0.3542 -0.1260
  486MOL0     C65515   7.625  12.797   1.446 -0.0019 -0.2620  0.1882
  486MOL0     C65516   7.765  12.836   1.403 -0.7164 -1.0434 -0.1456
  486MOL0     C65517   7.853  12.924   1.506  0.2227  0.0104 -0.7864
  486MOL0     C65518   7.991  12.968   1.450 -0.6157 -0.2535 -0.2263
  486MOL0    Cl65519   7.991  13.108   1.336 -0.0739  0.1662  0.2248
  486MOL0     C65520   6.984  12.666   1.692 -0.9596  0.3363 -0.4723
  486MOL0     C65521   6.845  12.659   1.697  0.0044 -0.4221  0.2040
  486MOL0     O65522   6.571  12.776   1.688  0.3335  0.5733 -0.3081
  486MOL0     C65523   6.303  12.738   1.623 -0.1559 -0.8303  0.2623
  486MOL0     C65524   6.170  12.719   1.586 -0.6061 -0.1873 -0.5723
  486MOL0     N65525   5.518  12.517   1.899 -0.5807 -0.3129 -0.1992
  486MOL0     N65526   5.447  12.436   1.964  0.0145  0.3978  0.2359
  486MOL0     C65527   6.391  11.588   1.999  0.5008 -0.3377 -0.5560
  486MOL0     C65528   6.511  11.538   1.958  0.1622  0.5870 -0.6252
  486MOL0     C65529   6.912  11.424   1.749  0.3967 -0.2809  0.1992
  486MOL0     C65530   7.015  11.489   1.811 -0.6921  0.0050 -0.4888
  486MOL0     C65531   7.139  11.491   1.755 -0.6165 -0.8446 -0.1197
  486MOL0     C65532   7.168  11.421   1.640  0.5671  0.2799  0.4781
  486MOL0     O65533   7.288  11.433   1.579  0.2969  1.1956 -0.2576
  486MOL0     C65534   7.315  11.555   1.506 -0.0187 -0.8239  0.1425
  486MOL0     C65535   7.467  11.560   1.477 -0.3189 -0.2169  0.0510
  486MOL0     C65536   7.524  11.598   1.615 -0.3374 -0.9063  0.0606
  486MOL0     C65537   7.674  11.595   1.597  0.3571  0.6992 -0.4200
  486MOL0     C65538   7.712  11.683   1.486 -0.2742 -0.1707  0.1360
  486MOL0     C65539   7.739  11.750   1.392 -0.0607  0.5779 -0.0252
  486MOL0     C65540   7.066  11.352   1.575 -0.4289  0.1479 -0.0454
  486MOL0     C65541   6.937  11.351   1.622 -0.0967 -0.1515  0.0370
  486MOL0     C65542   6.830  11.285   1.542 -0.5225  0.9267  0.3326
  486MOL0     H65543   6.706  11.809   1.967 -1.1877  1.5200  0.8195
  486MOL0     H65544   6.508  11.910   2.039 -1.3400 -0.4729 -1.5558
  486MOL0     H65545   6.129  11.661   2.142  0.8510  0.2428 -0.4786
  486MOL0     H65546   6.253  11.713   2.254  1.5778  1.0688 -0.3362
  486MOL0     H65547   6.148  11.930   2.266  0.6684 -0.0387 -0.9146
  486MOL0     H65548   6.031  11.812   2.307  0.8943 -0.2837  1.7766
  486MOL0     H65549   5.946  11.833   2.064  0.6176 -0.3786 -0.8998
  486MOL0     H65550   6.035  11.990   2.053  0.7486  0.2091  1.0235
  486MOL0     H65551   5.830  11.901   2.257 -2.4631  0.3744  0.0071
  486MOL0     H65552   5.887  12.070   2.241 -0.7266 -1.1176  0.8525
  486MOL0     H65553   5.795  12.043   1.990  2.3841  1.2338  0.8971
  486MOL0     H65554   5.713  11.906   2.051  2.4957 -0.4681 -0.3225
  486MOL0     H65555   5.626  12.033   2.259 -1.0417 -0.5513 -0.1126
  486MOL0     H65556   5.694  12.180   2.204 -1.8374  1.0582 -1.9945
  486MOL0     H65557   5.454  12.028   2.098 -0.4009 -0.7180 -0.6695
  486MOL0     H65558   5.560  12.106   1.973  1.6355  1.8881  1.4416
  486MOL0     H65559   5.355  12.231   2.093  0.8531 -0.9090 -2.5925
  486MOL0     H65560   5.472  12.270   2.215 -2.2186  4.3762 -0.6092
  486MOL0     H65561   5.742  12.342   2.065 -1.4629 -2.4151  2.0321
  486MOL0     H65562   5.746  12.686   1.907 -3.7043 -0.8788 -1.1034
  486MOL0     H65563   5.847  12.562   1.985 -2.2400  1.3042  1.2722
  486MOL0     H65564   5.952  12.520   1.785 -0.1515 -0.6491 -0.2387
  486MOL0     H65565   5.797  12.469   1.724 -2.2228  1.6030 -1.3537
  486MOL0     H65566   5.897  12.744   1.735 -0.1641  0.3761 -0.7792
  486MOL0     H65567   5.737  12.705   1.668  0.5452  0.5100 -1.8536
  486MOL0     H65568   5.932  12.742   1.492 -0.1933 -0.2885 -0.2508
  486MOL0     H65569   5.814  12.624   1.465  2.5843 -1.1428 -2.5391
  486MOL0     H65570   6.173  12.394   1.522  0.5793 -0.7928  1.4371
  486MOL0     H65571   6.429  12.435   1.561 -0.2201  0.6125 -0.9742
  486MOL0     H65572   6.767  12.468   1.442  1.6998 -0.0324 -2.4251
  486MOL0     H65573   7.021  12.464   1.421  1.1274  2.3601 -1.4941
  486MOL0     H65574   7.230  12.476   1.432  1.7868  0.3048 -0.7803
  486MOL0     H65575   7.232  12.642   1.420  0.3649 -0.5658 -0.2320
  486MOL0     H65576   7.443  12.460   1.538 -1.9100 -1.4171 -0.5533
  486MOL0     H65577   7.465  12.568   1.411 -0.3881 -2.0411 -0.9018
  486MOL0     H65578   7.406  12.766   1.590 -1.8560 -1.1931 -0.9691
  486MOL0     H65579   7.450  12.648   1.710  1.7251  0.0609  0.5470
  486MOL0     H65580   7.681  12.637   1.573  0.4208 -0.0135  1.7073
  486MOL0     H65581   7.640  12.783   1.667 -2.0213  1.1679 -0.5858
  486MOL0     H65582   7.568  12.890   1.450  0.7910  0.1977  1.1640
  486MOL0     H65583   7.589  12.738   1.362  3.0413 -0.7702 -0.8998
  486MOL0     H65584   7.822  12.746   1.374  1.0792 -1.2852  3.6050
  486MOL0     H65585   7.757  12.908   1.321  1.4960 -0.7721 -0.1842
  486MOL0     H65586   7.885  12.872   1.596  2.1119  0.7076 -1.0069
  486MOL0     H65587   7.794  13.012   1.533 -2.1024 -0.5097 -3.5750
  486MOL0     H65588   8.057  12.995   1.532 -1.6593  0.4709  0.3978
  486MOL0     H65589   8.039  12.883   1.402  0.4928  1.8405 -3.1598
  486MOL0     H65590   7.036  12.718   1.772  1.0902  0.2946 -1.7005
  486MOL0     H65591   6.802  12.716   1.779  0.2337  1.3614 -0.8582
  486MOL0     H65592   6.338  12.830   1.668  3.2052 -0.9923 -1.7074
  486MOL0     H65593   6.114  12.810   1.605  0.4435  0.2416  0.6344
  486MOL0     H65594   6.302  11.527   2.009 -1.2887  2.4814  3.2045
  486MOL0     H65595   6.525  11.435   1.928  0.3671  0.3313  0.3028
  486MOL0     H65596   6.996  11.556   1.894 -3.7534  0.1739 -1.2248
  486MOL0     H65597   7.222  11.537   1.808 -0.4995 -0.5770 -0.5292
  486MOL0     H65598   7.301  11.641   1.572  0.2198 -0.0871 -0.7415
  486MOL0     H65599   7.250  11.567   1.419 -1.3372 -0.5625  1.1378
  486MOL0     H65600   7.494  11.638   1.405  3.1639 -0.3927  0.9966
  486MOL0     H65601   7.500  11.460   1.447  0.8824 -0.4579  1.9872
  486MOL0     H65602   7.492  11.529   1.693  0.4494  0.3590  1.5626
  486MOL0     H65603   7.506  11.697   1.658 -2.0475  0.8560 -4.1784
  486MOL0     H65604   7.727  11.612   1.690 -0.0019  0.1758 -0.1137
  486MOL0     H65605   7.702  11.492   1.570  2.4326  1.5376 -1.7321
  486MOL0     H65606   7.767  11.801   1.302 -3.8128 -1.7513 -2.8367
  486MOL0     H65607   7.104  11.311   1.482  0.1148  2.0988 -0.7260
  486MOL0     H65608   6.751  11.353   1.510 -0.8856  2.4761  3.9440
  486MOL0     H65609   6.886  11.245   1.457  2.2754  0.9102  2.0167
  486MOL0     H65610   6.783  11.202   1.596  1.7212 -1.9542 -1.7760
  487MOL0     O65611   7.921   8.807  10.308 -0.3443  0.1323 -0.0527
  487MOL0     C65612   7.862   8.901  10.272 -0.1654 -0.0234 -0.7470
  487MOL0     O65613   7.862   8.947  10.140 -0.8507  0.6171  0.5290
  487MOL0     C65614   7.940   8.890  10.041 -0.2758 -0.7810  0.6986
  487MOL0     C65615   8.017   8.979   9.978 -0.7608 -0.2460  0.2760
  487MOL0     C65616   8.078   8.937   9.859  0.3533  0.4562  0.4701
  487MOL0     C65617   8.069   8.799   9.814  0.3818  0.7594  0.0463
  487MOL0     O65618   8.120   8.749   9.699  0.1719  0.5556  0.4231
  487MOL0     C65619   8.159   8.834   9.587  0.0083 -0.5904 -0.3760
  487MOL0     C65620   8.044   8.855   9.498 -0.3386 -0.4677 -0.6099
  487MOL0     C65621   8.084   8.956   9.395  0.3617 -0.7923  0.1000
  487MOL0     C65622   8.139   8.897   9.271 -0.6213 -0.5136 -0.2031
  487MOL0     C65623   8.179   9.013   9.175  0.3570  0.2245 -0.5167
  487MOL0     C65624   8.208   8.970   9.034  0.0097  0.1214 -0.9648
  487MOL0     C65625   8.087   8.927   8.947  0.2091  0.4489 -0.1389
  487MOL0     C65626   7.973   9.020   8.959  0.7257 -0.3043  0.0022
  487MOL0     N65627   7.881   8.995   9.071 -0.5559 -0.3339 -0.7869
  487MOL0     C65628   7.811   8.877   9.107 -0.3442 -0.0805  0.1286
  487MOL0     C65629   7.747   8.903   9.224  0.2148 -0.4856  0.2582
  487MOL0     C65630   7.670   8.796   9.288 -0.0317 -0.2791  0.2005
  487MOL0     C65631   7.549   8.859   9.361 -0.2326 -1.1032 -0.1804
  487MOL0     C65632   7.453   8.959   9.288 -1.5171 -0.3468 -0.0219
  487MOL0     C65633   7.425   8.924   9.143  0.4050 -0.0035 -0.9979
  487MOL0     O65634   7.388   9.049   9.083  0.1253  0.1108 -0.5586
  487MOL0     C65635   7.479   9.102   8.983  0.0539  0.8501 -0.1938
  487MOL0     C65636   7.580   9.042   8.896 -0.2742 -0.6789  0.0675
  487MOL0     C65637   7.647   9.114   8.799 -0.0348  1.0436 -0.0099
  487MOL0     C65638   7.637   9.247   8.794 -0.7835 -0.0009  0.1822
  487MOL0     C65639   7.730   9.327   8.706 -0.3967  0.5395  0.4776
  487MOL0     O65640   7.705   9.461   8.698 -0.2828  0.4472  0.6341
  487MOL0     C65641   7.774   9.556   8.620 -0.5165 -0.4101 -0.4764
  487MOL0     C65642   7.783   9.682   8.680  0.2771 -0.0253  0.6075
  487MOL0     C65643   7.857   9.785   8.617 -0.4299 -0.6282 -0.5357
  487MOL0     C65644   7.914   9.769   8.485  0.2506 -0.4485 -1.1621
  487MOL0     O65645   7.976   9.862   8.418 -0.6249 -0.1013 -0.3544
  487MOL0     C65646   8.045   9.966   8.501 -0.3602 -0.0379  0.4137
  487MOL0     C65647   7.985  10.106   8.497 -0.6090 -0.7605 -0.1936
  487MOL0     C65648   7.931  10.147   8.368  0.5687  0.4420 -0.0720
  487MOL0     C65649   8.038  10.136   8.255 -0.2313  0.4635  0.3285
  487MOL0     C65650   7.993  10.220   8.138  0.8305  0.4856 -0.5405
  487MOL0     C65651   8.078  10.185   8.025  0.6900  0.5458 -0.6613
  487MOL0     C65652   8.027  10.239   7.889 -0.6849  0.2106  0.1879
  487MOL0     C65653   8.119  10.199   7.780  0.5087 -0.1715  0.6484
  487MOL0    Cl65654   8.291  10.220   7.826  0.1069 -0.3300  0.3516
  487MOL0     C65655   7.889   9.649   8.430 -0.2656  0.3469  0.2646
  487MOL0     C65656   7.821   9.536   8.494 -1.0033 -0.7702  0.2728
  487MOL0     O65657   7.825   9.273   8.654  0.1590  0.0061  0.0400
  487MOL0     C65658   7.543   9.305   8.879 -0.1418 -0.8831  0.4215
  487MOL0     C65659   7.459   9.242   8.965 -0.5891  0.4159 -0.1293
  487MOL0     N65660   7.760   9.036   9.253  0.0264 -0.7845  0.0474
  487MOL0     N65661   7.840   9.085   9.167 -0.9030 -0.6524 -0.1841
  487MOL0     C65662   8.003   8.712   9.896  0.7451  0.0098 -0.4610
  487MOL0     C65663   7.930   8.757  10.006 -0.0654 -0.9593  0.4964
  487MOL0     C65664   7.757   8.950  10.365  1.0022 -0.2471 -0.1442
  487MOL0     C65665   7.770   8.919  10.507 -0.5044  0.7352 -0.1496
  487MOL0     C65666   7.681   8.964  10.599 -0.9148 -0.3290  0.2959
  487MOL0     C65667   7.571   9.037  10.558  0.1096  0.4870 -0.9283
  487MOL0     O65668   7.470   9.078  10.634  0.1541  0.0737  0.5031
  487MOL0     C65669   7.466   9.020  10.767  0.8601 -0.0639 -0.1601
  487MOL0     C65670   7.332   9.062  10.838 -0.8736 -0.0488 -0.4289
  487MOL0     C65671   7.311   8.979  10.966 -0.3647 -0.2419 -0.8199
  487MOL0     C65672   7.241   9.061  11.080  0.3277  0.2751 -0.4378
  487MOL0     C65673   7.098   9.062  11.051  0.1372 -1.1727  0.5680
  487MOL0     C65674   6.980   9.051  11.019  0.1903 -0.1392  0.2058
  487MOL0     C65675   7.556   9.079  10.426 -0.8514 -0.1265  0.5117
  487MOL0     C65676   7.644   9.032  10.331  0.1399  1.0038  0.2986
  487MOL0     C65677   7.598   9.061  10.192  0.0208 -0.1855 -0.3337
  487MOL0     H65678   8.031   9.080  10.013  0.1631  0.6545 -2.4052
  487MOL0     H65679   8.143   9.000   9.799  0.2492 -0.3627 -0.5246
  487MOL0     H65680   8.199   8.929   9.626  0.1139 -0.3302 -1.1046
  487MOL0     H65681   8.238   8.776   9.539 -0.7236 -0.4993 -1.7216
  487MOL0     H65682   7.959   8.901   9.551 -1.4271 -1.5555 -1.3462
  487MOL0     H65683   8.012   8.755   9.467 -1.1851 -0.9774  1.6700
  487MOL0     H65684   8.144   9.036   9.439 -2.0619  1.4643 -0.4344
  487MOL0     H65685   7.996   9.013   9.367  1.0884 -0.2661 -1.2251
  487MOL0     H65686   8.229   8.838   9.290 -1.2691 -2.1156 -1.8867
  487MOL0     H65687   8.056   8.839   9.229  0.7616 -2.5726 -0.2217
  487MOL0     H65688   8.101   9.090   9.177  1.9362  1.8612  0.7375
  487MOL0     H65689   8.264   9.061   9.225  0.6153 -1.7469  1.0522
  487MOL0     H65690   8.257   9.051   8.978 -0.1414  0.0171 -1.2519
  487MOL0     H65691   8.277   8.885   9.038  0.9649  0.8529 -1.2529
  487MOL0     H65692   8.050   8.826   8.966 -2.0451  1.6909  2.7321
  487MOL0     H65693   8.122   8.919   8.843  0.6693 -0.7959  0.0911
  487MOL0     H65694   8.011   9.122   8.951  1.4549 -0.6974 -3.4214
  487MOL0     H65695   7.913   9.000   8.869 -0.7323  4.0752 -0.2311
  487MOL0     H65696   7.815   8.780   9.058 -1.1578  1.2341 -2.7706
  487MOL0     H65697   7.634   8.735   9.204  2.0024  0.4426 -1.2856
  487MOL0     H65698   7.728   8.736   9.359 -0.5501  0.8897  1.6518
  487MOL0     H65699   7.485   8.778   9.398 -1.9115 -0.1123 -0.7779
  487MOL0     H65700   7.584   8.898   9.456  0.8434 -2.6683  0.1042
  487MOL0     H65701   7.514   9.049   9.285  1.5292 -1.7740  5.8844
  487MOL0     H65702   7.356   8.971   9.338 -0.9842 -0.7780  1.1268
  487MOL0     H65703   7.344   8.850   9.140 -0.2204  0.6828 -1.4841
  487MOL0     H65704   7.512   8.883   9.090  2.1828 -1.2150  2.5645
  487MOL0     H65705   7.617   8.940   8.900  3.8431  0.5427 -1.9261
  487MOL0     H65706   7.719   9.053   8.745  0.6990  1.2670  0.7022
  487MOL0     H65707   7.720   9.691   8.768 -0.1578 -0.6353  0.3659
  487MOL0     H65708   7.855   9.883   8.663 -2.2491  0.9382 -3.5997
  487MOL0     H65709   8.064   9.938   8.605  1.0327  0.8835  0.4415
  487MOL0     H65710   8.143   9.977   8.453 -0.1514  1.0786  1.0548
  487MOL0     H65711   7.907  10.109   8.573  1.0619  0.5236  1.5574
  487MOL0     H65712   8.068  10.172   8.523 -1.3108  0.7120 -1.4882
  487MOL0     H65713   7.845  10.085   8.340 -0.1565  1.9104 -1.2234
  487MOL0     H65714   7.918  10.255   8.377 -2.6107  0.1136  0.7310
  487MOL0     H65715   8.052  10.029   8.239 -0.2385  0.4536  0.3916
  487MOL0     H65716   8.139  10.166   8.287 -0.3032 -0.2355  1.2627
  487MOL0     H65717   8.002  10.326   8.162  0.0910  0.3472  0.4038
  487MOL0     H65718   7.887  10.201   8.119  1.1309 -1.7839 -0.3234
  487MOL0     H65719   8.173  10.229   8.055  0.3118  1.3497 -0.5985
  487MOL0     H65720   8.087  10.077   8.011 -1.9116  0.1561  0.1444
  487MOL0     H65721   8.017  10.347   7.904 -0.9570 -0.0760  2.3723
  487MOL0     H65722   7.923  10.208   7.872 -1.1473  1.5876  0.3516
  487MOL0     H65723   8.093  10.095   7.761 -1.0046  0.5136 -1.2684
  487MOL0     H65724   8.078  10.253   7.695 -1.6684 -2.0427  0.4307
  487MOL0     H65725   7.918   9.646   8.326 -0.6874  2.9755 -0.0020
  487MOL0     H65726   7.774   9.459   8.434 -1.9312  1.2011 -1.6741
  487MOL0     H65727   7.533   9.411   8.857 -1.5460 -1.4581 -1.9487
  487MOL0     H65728   7.389   9.297   9.027  0.5515  3.5841 -1.4208
  487MOL0     H65729   7.991   8.604   9.894 -1.4924  0.2255 -0.5633
  487MOL0     H65730   7.857   8.697  10.060 -2.6510  0.3357 -1.3160
  487MOL0     H65731   7.860   8.867  10.537 -0.3103 -0.7230 -2.9056
  487MOL0     H65732   7.698   8.937  10.703  0.5606  2.0558  0.7556
  487MOL0     H65733   7.542   9.067  10.830  0.5341 -1.1349  1.0913
  487MOL0     H65734   7.481   8.913  10.752  0.4594 -0.0603 -0.5848
  487MOL0     H65735   7.247   9.048  10.771 -1.0936 -2.1948  0.2190
  487MOL0     H65736   7.341   9.171  10.850 -1.8365 -0.0619  0.6888
  487MOL0     H65737   7.412   8.955  11.000  0.1081 -1.2741 -2.8252
  487MOL0     H65738   7.265   8.882  10.945 -0.0680 -0.8697  1.2337
  487MOL0     H65739   7.254   9.008  11.175 -0.9169  1.8499  0.6480
  487MOL0     H65740   7.274   9.165  11.083 -0.2997  0.5469 -2.2199
  487MOL0     H65741   6.883   9.060  10.973  0.2245 -2.4272 -0.4298
  487MOL0     H65742   7.470   9.139  10.401 -1.4019 -0.4869  1.5019
  487MOL0     H65743   7.495   9.093  10.175  0.1179  1.1290  1.2709
  487MOL0     H65744   7.659   9.145  10.156  2.8706 -1.7236  0.5874
  487MOL0     H65745   7.618   8.978  10.124 -0.7810 -1.0147  0.4112
  488MOL0     O65746   1.566   8.588   8.905  0.4521 -0.5506  0.3916
  488MOL0     C65747   1.576   8.680   8.992 -0.2532 -0.1886  0.8112
  488MOL0     O65748   1.491   8.691   9.097 -0.0064  0.3303 -0.4911
  488MOL0     C65749   1.380   8.609   9.095  0.0637 -0.0165 -0.8746
  488MOL0     C65750   1.291   8.599   8.985  0.0509 -0.7141  0.2816
  488MOL0     C65751   1.180   8.510   8.991 -0.2714  0.2765 -0.2728
  488MOL0     C65752   1.167   8.421   9.100 -1.2577  0.0114  0.1378
  488MOL0     O65753   1.070   8.323   9.116 -0.9304 -0.0698  0.2160
  488MOL0     C65754   0.947   8.348   9.048 -0.2307 -0.6522  0.4109
  488MOL0     C65755   0.866   8.229   9.087 -0.0429  0.6498  0.9663
  488MOL0     C65756   0.723   8.236   9.026 -1.2898 -0.4875  0.0412
  488MOL0     C65757   0.653   8.095   9.040  0.1298  0.3259  0.2814
  488MOL0     C65758   0.519   8.092   8.975 -0.0333 -0.4129 -1.0808
  488MOL0     C65759   0.452   7.954   8.996  0.1375  0.1527 -0.3194
  488MOL0     C65760   0.396   7.924   9.139  0.3763  0.2829  0.5932
  488MOL0     C65761   0.303   8.027   9.196 -0.6065  0.1232 -1.2636
  488MOL0     N65762   0.245   7.980   9.332 -0.1108 -0.0375  0.4366
  488MOL0     C65763   0.125   7.916   9.340  0.1962  0.1172 -0.0213
  488MOL0     C65764   0.078   7.935   9.466  0.1637  0.5491 -0.0770
  488MOL0     C65765  -0.056   7.896   9.532  0.3865 -0.3221  0.2343
  488MOL0     C65766  -0.173   7.917   9.440  0.2722 -0.4467  0.4939
  488MOL0     C65767  -0.199   8.069   9.424  0.5664 -1.0935  0.1108
  488MOL0     C65768  -0.320   8.102   9.333  0.6560  0.2410  1.0535
  488MOL0     O65769  -0.437   8.073   9.409  0.6301  1.0764  0.7366
  488MOL0     C65770  -0.566   8.085   9.353  0.4764  1.2117 -0.2896
  488MOL0     C65771  -0.681   8.034   9.418 -0.7000  0.1674 -0.4898
  488MOL0     C65772  -0.814   8.029   9.364  0.1835 -0.5939 -0.3191
  488MOL0     C65773  -0.840   8.102   9.251  0.1220  0.5636  0.4135
  488MOL0     C65774  -0.982   8.111   9.189  0.0141  0.7813  0.3787
  488MOL0     O65775  -1.002   8.187   9.087 -0.8068 -0.0265  0.3098
  488MOL0     C65776  -1.119   8.185   9.013 -1.0519  0.6291 -0.5597
  488MOL0     C65777  -1.173   8.306   8.971 -0.3961  0.1628  0.0197
  488MOL0     C65778  -1.291   8.307   8.907  0.2642  0.7122 -0.5955
  488MOL0     C65779  -1.354   8.188   8.862 -0.3862 -0.2198 -0.0602
  488MOL0     O65780  -1.468   8.193   8.785 -0.4045  0.4099  0.8167
  488MOL0     C65781  -1.452   8.135   8.651 -0.9808 -0.1527 -0.6960
  488MOL0     C65782  -1.571   8.191   8.568 -0.3464 -0.7937 -0.0415
  488MOL0     C65783  -1.551   8.126   8.431 -0.3148  0.1851  0.7296
  488MOL0     C65784  -1.646   8.176   8.331  0.2288 -0.5421 -0.2183
  488MOL0     C65785  -1.626   8.321   8.279 -0.3962  0.2094  0.3863
  488MOL0     C65786  -1.482   8.329   8.214  0.0634 -0.7258  0.0253
  488MOL0     C65787  -1.473   8.440   8.095 -0.1837  0.1624 -0.2116
  488MOL0     C65788  -1.324   8.469   8.070  0.0826 -0.0547  0.8989
  488MOL0    Cl65789  -1.300   8.625   8.006  0.1281 -0.2423  0.0662
  488MOL0     C65790  -1.284   8.071   8.886  0.0154 -0.9444 -0.3204
  488MOL0     C65791  -1.173   8.062   8.971  0.0156  0.0448  0.1133
  488MOL0     O65792  -1.065   8.031   9.232 -0.5245  0.3707 -0.9359
  488MOL0     C65793  -0.735   8.178   9.193  0.2263  1.3035  0.5678
  488MOL0     C65794  -0.600   8.168   9.244 -0.2622 -0.3504 -0.4037
  488MOL0     N65795   0.183   8.004   9.536  0.2935 -0.0129 -0.4352
  488MOL0     N65796   0.282   8.031   9.456  0.1882 -1.0314 -0.3725
  488MOL0     C65797   1.250   8.444   9.209 -0.6439  0.4061 -0.5124
  488MOL0     C65798   1.362   8.530   9.210 -0.1335 -0.5720 -0.5178
  488MOL0     C65799   1.684   8.775   8.997 -1.0091 -0.0976  0.4449
  488MOL0     C65800   1.709   8.846   9.113  0.1589 -0.2650 -0.4064
  488MOL0     C65801   1.819   8.934   9.128  0.2400  0.4975 -0.5034
  488MOL0     C65802   1.895   8.960   9.008 -0.4675 -0.4616 -0.2260
  488MOL0     O65803   1.982   9.061   8.994  0.4246  0.2732 -0.2093
  488MOL0     C65804   1.971   9.166   9.093  0.9486 -0.0742 -0.1055
  488MOL0     C65805   2.060   9.280   9.059  0.3956  0.4537 -0.4584
  488MOL0     C65806   2.000   9.349   8.941 -0.6292  0.2707  0.1833
  488MOL0     C65807   2.104   9.417   8.860  1.1585 -0.4371  0.0375
  488MOL0     C65808   2.167   9.529   8.936  1.2997  0.5396 -0.0982
  488MOL0     C65809   2.215   9.613   9.011 -0.2403  0.3547  1.0481
  488MOL0     C65810   1.866   8.891   8.888  0.6776 -0.9126 -0.2156
  488MOL0     C65811   1.756   8.809   8.882 -0.7952 -0.3908  0.1271
  488MOL0     C65812   1.727   8.762   8.746  0.9278  0.4223  0.6547
  488MOL0     H65813   1.314   8.662   8.900  0.1878  0.3410  1.0664
  488MOL0     H65814   1.098   8.516   8.921 -2.3472  1.5204  2.0852
  488MOL0     H65815   0.900   8.445   9.067 -0.8376 -0.6365 -1.0147
  488MOL0     H65816   0.962   8.351   8.939 -1.3276  2.1065  0.2685
  488MOL0     H65817   0.868   8.205   9.194  2.4218  0.1401  0.8730
  488MOL0     H65818   0.916   8.153   9.026 -0.3371  3.4738 -3.2009
  488MOL0     H65819   0.733   8.255   8.919  1.2408 -1.2258  0.0903
  488MOL0     H65820   0.658   8.316   9.062  0.5787  0.9006  0.4894
  488MOL0     H65821   0.721   8.017   9.004 -0.6216 -0.3661  0.3495
  488MOL0     H65822   0.635   8.075   9.146 -1.0605  0.2330  0.0695
  488MOL0     H65823   0.455   8.177   9.004  3.9190  2.6409 -0.4767
  488MOL0     H65824   0.538   8.095   8.867  4.3571  1.7281 -0.4664
  488MOL0     H65825   0.367   7.948   8.927  0.4637  0.9395 -0.8042
  488MOL0     H65826   0.527   7.877   8.977  0.2770  0.1998  0.0327
  488MOL0     H65827   0.481   7.903   9.203  0.0925 -1.5747  0.4212
  488MOL0     H65828   0.343   7.829   9.130 -0.9404  0.9906  0.4573
  488MOL0     H65829   0.352   8.125   9.205  2.2464 -1.3280  0.5635
  488MOL0     H65830   0.215   8.054   9.137 -0.0892  3.3489 -0.7335
  488MOL0     H65831   0.068   7.868   9.260  2.1683 -2.0928 -0.1911
  488MOL0     H65832  -0.048   7.793   9.566  2.2002 -0.4611 -0.4807
  488MOL0     H65833  -0.060   7.959   9.621  1.2192 -2.4081  1.8290
  488MOL0     H65834  -0.159   7.874   9.341  0.1853 -0.0012  0.2843
  488MOL0     H65835  -0.265   7.876   9.482 -1.9233  2.9569 -0.6173
  488MOL0     H65836  -0.108   8.105   9.375  2.4414 -1.0182  3.3660
  488MOL0     H65837  -0.203   8.127   9.517 -1.2294  1.7966 -1.6035
  488MOL0     H65838  -0.310   8.061   9.233  1.6327 -1.3945  1.7854
  488MOL0     H65839  -0.322   8.208   9.306 -0.0346 -0.8139 -3.9800
  488MOL0     H65840  -0.660   7.990   9.515 -1.3609 -2.1831 -1.3422
  488MOL0     H65841  -0.889   7.988   9.431 -0.2111  2.3544  1.1967
  488MOL0     H65842  -1.150   8.400   9.020  1.0808 -0.1492 -0.0369
  488MOL0     H65843  -1.337   8.405   8.900  1.1767  1.1401 -0.8157
  488MOL0     H65844  -1.360   8.179   8.610 -0.3989  0.6129  1.3009
  488MOL0     H65845  -1.455   8.026   8.645 -3.8127 -0.5897  3.8283
  488MOL0     H65846  -1.669   8.164   8.607 -0.4051  0.7552  0.9443
  488MOL0     H65847  -1.575   8.300   8.577  1.4722 -0.8015  1.7411
  488MOL0     H65848  -1.444   8.126   8.407 -0.8372  0.4058 -1.7852
  488MOL0     H65849  -1.574   8.019   8.430 -1.5895  0.3944 -2.4915
  488MOL0     H65850  -1.748   8.174   8.369  0.5554  0.3297  0.7634
  488MOL0     H65851  -1.645   8.111   8.244 -2.3328 -1.2630  0.2158
  488MOL0     H65852  -1.640   8.388   8.364 -0.2276  2.7924 -1.4689
  488MOL0     H65853  -1.696   8.356   8.203 -3.0985  1.7292  3.3413
  488MOL0     H65854  -1.433   8.367   8.304 -3.2528  0.4024  1.5096
  488MOL0     H65855  -1.436   8.236   8.179  0.4777 -0.5304  0.0470
  488MOL0     H65856  -1.537   8.528   8.106 -2.8054 -0.9768 -4.3011
  488MOL0     H65857  -1.510   8.399   8.001 -1.6999  1.5665 -0.2734
  488MOL0     H65858  -1.259   8.451   8.157 -1.7404  0.2895  2.3880
  488MOL0     H65859  -1.290   8.395   7.997  0.1559  0.9478 -0.1111
  488MOL0     H65860  -1.338   7.984   8.849 -0.0643 -0.0611 -2.4040
  488MOL0     H65861  -1.122   7.969   8.993  1.4133  0.5871 -0.7412
  488MOL0     H65862  -0.773   8.256   9.127 -3.0480 -0.1555  0.5349
  488MOL0     H65863  -0.522   8.230   9.201  0.7288 -0.9856  0.4333
  488MOL0     H65864   1.243   8.389   9.302 -0.8784  1.0333 -0.1551
  488MOL0     H65865   1.437   8.535   9.288 -0.3346  1.3834 -0.3852
  488MOL0     H65866   1.658   8.810   9.202 -1.4349 -1.3944 -1.7213
  488MOL0     H65867   1.830   8.987   9.222  0.2021  2.9571 -1.8123
  488MOL0     H65868   1.995   9.124   9.191 -0.7839  0.2911  0.5076
  488MOL0     H65869   1.870   9.207   9.102  2.0703  2.4344  3.1813
  488MOL0     H65870   2.164   9.246   9.054  1.0651  1.9455  1.7753
  488MOL0     H65871   2.066   9.349   9.143 -0.8785 -1.5089  1.3234
  488MOL0     H65872   1.938   9.429   8.984 -0.5906  0.1349  0.4953
  488MOL0     H65873   1.941   9.287   8.873  1.2159 -3.1230  1.4557
  488MOL0     H65874   2.173   9.344   8.819  1.8387  0.3546 -0.2588
  488MOL0     H65875   2.052   9.463   8.775  0.2686  0.5195  1.0543
  488MOL0     H65876   2.255   9.697   9.064 -1.6340  0.3175  2.2296
  488MOL0     H65877   1.930   8.902   8.801  2.1217  1.7801  1.0361
  488MOL0     H65878   1.794   8.797   8.667 -0.2713  0.3025 -0.4336
  488MOL0     H65879   1.757   8.657   8.751 -0.8249 -0.3162 -2.3144
  488MOL0     H65880   1.624   8.777   8.716  1.5333 -2.0123 -3.3677
  489MOL0     O65881   0.050   1.615   6.429  0.0877 -0.4981 -0.2722
  489MOL0     C65882   0.047   1.615   6.309  0.4348 -0.1282  0.1410
  489MOL0     O65883   0.158   1.592   6.221  0.0977  1.3584 -0.0604
  489MOL0     C65884   0.285   1.557   6.264  0.3827  0.5711 -0.3486
  489MOL0     C65885   0.323   1.487   6.379 -0.5661 -0.4021 -0.3077
  489MOL0     C65886   0.464   1.455   6.396  0.2335  0.0511 -0.5229
  489MOL0     C65887   0.565   1.485   6.300 -0.0307 -0.2521  0.1592
  489MOL0     O65888   0.703   1.446   6.308  0.3766  0.5822 -0.0538
  489MOL0     C65889   0.753   1.374   6.423 -0.1103  0.7484  0.3739
  489MOL0     C65890   0.898   1.331   6.429 -0.5268  0.8642  0.9069
  489MOL0     C65891   0.982   1.454   6.432  1.0997 -0.2115 -1.1879
  489MOL0     C65892   1.099   1.433   6.531  0.1760  0.8593 -0.8388
  489MOL0     C65893   1.196   1.549   6.519  0.1514  0.4048  0.1605
  489MOL0     C65894   1.301   1.565   6.626  0.9383  0.4666  0.9337
  489MOL0     C65895   1.341   1.707   6.646  0.9695  0.2615  0.6890
  489MOL0     C65896   1.404   1.739   6.771 -0.9639  0.8960 -0.4828
  489MOL0     N65897   1.312   1.767   6.883 -0.0904  0.3268  0.3307
  489MOL0     C65898   1.244   1.889   6.892 -0.1863  1.1078 -0.5641
  489MOL0     C65899   1.144   1.872   6.981  0.2276 -0.6782 -0.2932
  489MOL0     C65900   1.032   1.964   7.010  0.5438 -0.0927 -0.6007
  489MOL0     C65901   1.055   2.108   6.959  0.3945  0.2832  0.0800
  489MOL0     C65902   0.950   2.202   7.022  0.5619 -0.4669 -0.1693
  489MOL0     C65903   0.982   2.345   6.993  0.2413 -0.6567  0.1655
  489MOL0     O65904   1.091   2.380   7.076 -0.4965 -0.4942 -0.6803
  489MOL0     C65905   1.132   2.510   7.085  0.0501 -0.4262 -0.9842
  489MOL0     C65906   1.217   2.534   7.195 -0.1927  0.4270 -0.1306
  489MOL0     C65907   1.283   2.656   7.190 -0.1198 -0.9352 -0.1230
  489MOL0     C65908   1.261   2.755   7.090 -0.0240  0.0088 -0.3565
  489MOL0     C65909   1.333   2.880   7.091  0.1748 -0.8507 -0.2641
  489MOL0     O65910   1.280   2.979   7.012 -0.2013  0.4569  0.2057
  489MOL0     C65911   1.327   3.104   7.011 -1.0178  0.4798  0.4393
  489MOL0     C65912   1.351   3.181   7.130  0.1398 -1.0011 -0.0539
  489MOL0     C65913   1.407   3.311   7.125 -0.0642 -0.1725  0.6718
  489MOL0     C65914   1.442   3.369   7.003  0.5188  0.2160 -0.3668
  489MOL0     O65915   1.502   3.489   6.998 -0.2980 -0.0423 -0.3361
  489MOL0     C65916   1.420   3.587   6.942  0.1118 -0.3105 -0.3570
  489MOL0     C65917   1.492   3.710   6.899 -0.2344  1.0435 -0.6152
  489MOL0     C65918   1.391   3.793   6.819 -0.6051 -0.0512 -0.9619
  489MOL0     C65919   1.301   3.870   6.909  0.5608  0.3713  0.4388
  489MOL0     C65920   1.199   3.969   6.836 -0.5444 -0.6153 -0.0672
  489MOL0     C65921   1.089   4.022   6.934 -0.0686 -0.1056  0.1635
  489MOL0     C65922   0.997   3.916   7.003 -0.4091 -0.1394  0.0016
  489MOL0     C65923   0.889   3.998   7.077  0.3433 -0.0033 -0.5038
  489MOL0    Cl65924   0.952   4.126   7.177  0.0624 -0.8041  0.1461
  489MOL0     C65925   1.424   3.296   6.891  0.4838  0.3528  0.8423
  489MOL0     C65926   1.370   3.166   6.888  0.3061  0.2782 -0.0047
  489MOL0     O65927   1.440   2.885   7.151 -0.2293  0.4762  0.4442
  489MOL0     C65928   1.155   2.736   6.991 -1.1094 -0.2501  0.3854
  489MOL0     C65929   1.098   2.604   6.986  0.0700 -0.3092 -0.5578
  489MOL0     N65930   1.152   1.742   7.028 -0.6002  0.3698  0.5608
  489MOL0     N65931   1.248   1.682   6.961  0.2199  0.8598  0.2255
  489MOL0     C65932   0.531   1.554   6.193 -0.0068 -0.6216 -0.0928
  489MOL0     C65933   0.394   1.579   6.176  0.3960  0.4425 -0.2444
  489MOL0     C65934  -0.079   1.642   6.241  1.6913 -0.8308 -0.5131
  489MOL0     C65935  -0.099   1.780   6.202  0.8907 -0.0524 -0.9604
  489MOL0     C65936  -0.230   1.808   6.150  0.2186  0.1838  0.6490
  489MOL0     C65937  -0.327   1.713   6.129 -1.0084  0.1526 -0.0038
  489MOL0     O65938  -0.453   1.723   6.069 -0.4281  0.1819  0.5803
  489MOL0     C65939  -0.492   1.854   6.015  0.1637  0.7065  0.4093
  489MOL0     C65940  -0.643   1.873   6.011  0.1560  0.2557 -0.1073
  489MOL0     C65941  -0.693   1.913   6.150 -0.4116 -0.3182 -0.5895
  489MOL0     C65942  -0.674   2.059   6.182 -0.8987 -0.3824 -0.5160
  489MOL0     C65943  -0.693   2.086   6.324  0.2067 -0.0280  0.0979
  489MOL0     C65944  -0.712   2.116   6.432 -0.6526  0.2105 -0.5090
  489MOL0     C65945  -0.301   1.581   6.161  0.1679 -0.3423 -0.9648
  489MOL0     C65946  -0.183   1.543   6.235 -0.1748 -1.1266  1.0776
  489MOL0     C65947  -0.145   1.403   6.287 -0.3846  0.2817  0.9415
  489MOL0     H65948   0.249   1.474   6.457 -1.2587  0.7043 -0.7579
  489MOL0     H65949   0.488   1.410   6.492  3.1963  0.2976 -1.0602
  489MOL0     H65950   0.729   1.433   6.512  0.7902 -1.7531  2.3574
  489MOL0     H65951   0.691   1.284   6.428  1.0566 -0.1670 -0.8899
  489MOL0     H65952   0.935   1.268   6.348  0.7714  3.2889 -0.4995
  489MOL0     H65953   0.893   1.280   6.526  1.7316  0.3672  0.8229
  489MOL0     H65954   0.922   1.540   6.466  0.8284 -1.1615  0.9193
  489MOL0     H65955   1.019   1.464   6.330 -0.9065 -1.8275 -2.1351
  489MOL0     H65956   1.055   1.422   6.630  4.9349 -1.9036  1.2924
  489MOL0     H65957   1.142   1.335   6.509  0.1128  0.8081 -0.7331
  489MOL0     H65958   1.242   1.547   6.420 -0.3420  1.6042 -0.1251
  489MOL0     H65959   1.140   1.643   6.518 -0.4868  0.0401 -1.5555
  489MOL0     H65960   1.242   1.529   6.711  2.1669 -3.1695  0.4189
  489MOL0     H65961   1.386   1.496   6.615  0.6352  0.3093 -0.6955
  489MOL0     H65962   1.256   1.771   6.619  0.7275 -0.5157 -0.4592
  489MOL0     H65963   1.406   1.734   6.562  0.3460 -0.2902  0.0122
  489MOL0     H65964   1.465   1.652   6.796 -0.9544  1.1539  0.4104
  489MOL0     H65965   1.473   1.821   6.754  0.6029 -0.2670  0.0129
  489MOL0     H65966   1.249   1.974   6.823  1.6511 -0.8411 -2.9891
  489MOL0     H65967   0.947   1.923   6.954  2.4250 -0.5204 -3.3341
  489MOL0     H65968   1.003   1.962   7.115  2.8723  1.2484  0.1502
  489MOL0     H65969   1.156   2.144   6.985  1.1677 -1.3621 -0.5315
  489MOL0     H65970   1.059   2.113   6.850 -3.2946  2.7917 -0.1140
  489MOL0     H65971   0.933   2.188   7.129  3.3255 -0.0257  0.3901
  489MOL0     H65972   0.855   2.196   6.968 -1.2446  2.3151  2.4097
  489MOL0     H65973   0.889   2.399   7.012  0.7971 -0.4999  2.7731
  489MOL0     H65974   1.013   2.360   6.889  2.4486 -1.0757  0.7014
  489MOL0     H65975   1.232   2.452   7.264 -1.0930  0.1644 -0.2334
  489MOL0     H65976   1.357   2.681   7.265 -0.2013  0.4760 -0.4993
  489MOL0     H65977   1.337   3.137   7.228 -2.2317  0.5426  0.3663
  489MOL0     H65978   1.414   3.371   7.216  2.8903  0.1391  0.3355
  489MOL0     H65979   1.371   3.549   6.851 -0.1174  0.6025 -0.6330
  489MOL0     H65980   1.338   3.608   7.011 -0.4976 -0.2959 -1.0641
  489MOL0     H65981   1.533   3.764   6.984 -1.6927 -1.4649  1.8594
  489MOL0     H65982   1.565   3.682   6.822 -0.2656 -0.2256 -0.1989
  489MOL0     H65983   1.461   3.862   6.771  2.2190 -0.3987  2.2663
  489MOL0     H65984   1.342   3.733   6.741 -0.6686 -3.9917  1.8166
  489MOL0     H65985   1.348   3.922   6.992 -2.6408  1.8343  1.4876
  489MOL0     H65986   1.231   3.797   6.950 -0.8987  1.5747  0.1862
  489MOL0     H65987   1.151   3.914   6.754  4.0215 -3.0585 -1.4806
  489MOL0     H65988   1.255   4.056   6.800 -0.0042 -0.7984  0.3175
  489MOL0     H65989   1.141   4.082   7.009  2.0426 -5.2622  3.3781
  489MOL0     H65990   1.016   4.079   6.875 -0.1867 -0.6699 -0.2491
  489MOL0     H65991   1.047   3.863   7.084 -0.5012 -0.2233  0.0036
  489MOL0     H65992   0.952   3.836   6.944  0.6461 -1.7081  1.2336
  489MOL0     H65993   0.822   4.024   6.994  4.3042  2.7642 -3.2623
  489MOL0     H65994   0.845   3.924   7.144 -2.4847  1.7583 -0.2669
  489MOL0     H65995   1.451   3.350   6.801  0.5540  1.0514  1.2748
  489MOL0     H65996   1.353   3.111   6.796 -0.8508 -0.2381  0.4932
  489MOL0     H65997   1.145   2.806   6.909  3.1325 -2.7273 -2.5768
  489MOL0     H65998   1.023   2.593   6.909 -2.4787 -1.6982  1.9231
  489MOL0     H65999   0.594   1.595   6.115  0.5884  0.1619  0.7791
  489MOL0     H66000   0.366   1.639   6.089  2.9655  0.0760 -1.3957
  489MOL0     H66001  -0.019   1.853   6.204  2.3687 -1.6323 -0.8716
  489MOL0     H66002  -0.254   1.907   6.113 -1.1905 -0.2874  0.2594
  489MOL0     H66003  -0.458   1.844   5.911 -0.2853 -0.9469  0.3997
  489MOL0     H66004  -0.452   1.938   6.072 -2.2394  1.4035  1.1793
  489MOL0     H66005  -0.687   1.782   5.968 -2.9191  2.1916 -1.3682
  489MOL0     H66006  -0.669   1.953   5.942  1.8755  0.9316 -0.0052
  489MOL0     H66007  -0.629   1.857   6.219 -1.9395  0.6056  1.6950
  489MOL0     H66008  -0.795   1.875   6.165  0.8475 -3.0696  2.1106
  489MOL0     H66009  -0.568   2.083   6.169 -0.0670 -1.2272  3.4507
  489MOL0     H66010  -0.738   2.116   6.113  0.4241 -3.2350 -4.4351
  489MOL0     H66011  -0.730   2.148   6.532 -1.9364 -0.3039 -0.5614
  489MOL0     H66012  -0.375   1.504   6.145  1.0916 -1.2213 -1.1060
  489MOL0     H66013  -0.137   1.406   6.396 -3.5325 -1.7262  1.3450
  489MOL0     H66014  -0.237   1.344   6.286  0.5321 -1.2038  1.3104
  489MOL0     H66015  -0.060   1.358   6.236 -1.1054 -0.8472  0.6975
  490MOL0     O66016   3.686  10.984   4.603  0.3268 -0.1801  0.9626
  490MOL0     C66017   3.705  10.861   4.610  0.3387 -0.1270  0.1921
  490MOL0     O66018   3.750  10.779   4.515  0.0970  0.1751 -0.0357
  490MOL0     C66019   3.780  10.856   4.400 -0.5063 -0.0100  0.3858
  490MOL0     C66020   3.692  10.837   4.289 -0.3771 -0.3173 -0.3890
  490MOL0     C66021   3.715  10.906   4.168 -0.1450  0.7380 -0.9095
  490MOL0     C66022   3.831  10.988   4.154 -0.5362  0.2685 -0.5777
  490MOL0     O66023   3.886  11.044   4.043 -0.1282 -0.1556 -0.5286
  490MOL0     C66024   3.861  10.973   3.923  0.1391 -0.1249 -0.0218
  490MOL0     C66025   3.906  11.056   3.802  0.6976 -0.4742  0.1106
  490MOL0     C66026   4.051  11.079   3.787  0.1172 -0.5426 -0.2236
  490MOL0     C66027   4.086  11.168   3.665 -0.2109 -0.2597  0.4241
  490MOL0     C66028   4.234  11.204   3.655  0.5935  0.0232 -0.0618
  490MOL0     C66029   4.292  11.309   3.742 -0.0080 -0.6405 -0.0181
  490MOL0     C66030   4.441  11.335   3.706 -1.2148 -0.8212  0.8018
  490MOL0     C66031   4.462  11.473   3.650  0.1706 -0.2498  1.1029
  490MOL0     N66032   4.415  11.482   3.503 -0.7352  0.2536 -1.1278
  490MOL0     C66033   4.288  11.514   3.470 -0.6651 -1.0882 -0.6030
  490MOL0     C66034   4.291  11.487   3.339 -0.5297  0.2960  1.1974
  490MOL0     C66035   4.171  11.508   3.259  0.9825 -0.7001 -0.5803
  490MOL0     C66036   4.220  11.546   3.118  0.3373 -0.8214 -0.7953
  490MOL0     C66037   4.104  11.606   3.039  0.4833 -0.5966 -0.4973
  490MOL0     C66038   4.145  11.736   2.965  0.2949 -0.6706  0.4182
  490MOL0     O66039   4.244  11.694   2.872  0.5512 -0.3842  0.6939
  490MOL0     C66040   4.273  11.768   2.756  0.5273  0.6361 -0.1268
  490MOL0     C66041   4.211  11.896   2.726  0.1050  0.4063 -0.4183
  490MOL0     C66042   4.258  11.968   2.622 -0.9033 -0.3363  0.1274
  490MOL0     C66043   4.357  11.929   2.536  0.4400 -0.6560  1.0700
  490MOL0     C66044   4.406  12.025   2.438 -0.3731 -0.9240 -0.0228
  490MOL0     O66045   4.332  12.128   2.398  0.3786  0.8407 -0.0185
  490MOL0     C66046   4.397  12.219   2.316  0.9566 -0.6623  0.2435
  490MOL0     C66047   4.504  12.292   2.364 -0.0512 -0.5026 -0.2075
  490MOL0     C66048   4.566  12.383   2.284  0.0239  0.6470  0.2813
  490MOL0     C66049   4.517  12.421   2.166 -0.5319 -0.4326 -0.7445
  490MOL0     O66050   4.597  12.515   2.111 -0.0903 -1.5507 -1.1981
  490MOL0     C66051   4.532  12.590   2.010 -0.1951 -0.5756  0.6457
  490MOL0     C66052   4.592  12.733   1.986 -0.4344  0.1893  0.6302
  490MOL0     C66053   4.598  12.818   2.113 -0.1089  1.4465 -0.3388
  490MOL0     C66054   4.465  12.882   2.158  0.3682 -0.1367 -0.2122
  490MOL0     C66055   4.473  13.040   2.179 -0.7681  0.0318  0.5489
  490MOL0     C66056   4.341  13.113   2.188  0.3533  0.3642  0.7423
  490MOL0     C66057   4.359  13.269   2.190 -0.2645  0.4597 -0.1841
  490MOL0     C66058   4.219  13.332   2.176 -0.8636 -0.0938  0.3773
  490MOL0    Cl66059   4.139  13.334   2.336  0.1281  0.0674 -0.3501
  490MOL0     C66060   4.413  12.348   2.108  0.5198  0.5364  0.9351
  490MOL0     C66061   4.351  12.247   2.185 -0.1751 -0.0069 -0.2724
  490MOL0     O66062   4.515  11.994   2.388  0.2518 -0.2451  0.9059
  490MOL0     C66063   4.409  11.799   2.557  0.1439 -0.4102  0.3437
  490MOL0     C66064   4.375  11.720   2.671 -0.8298  0.3671  0.1892
  490MOL0     N66065   4.414  11.433   3.298  0.0480 -0.8082  0.0155
  490MOL0     N66066   4.493  11.449   3.400  0.6156  0.4378 -0.2228
  490MOL0     C66067   3.910  11.004   4.265  0.8341 -0.3830 -0.4669
  490MOL0     C66068   3.889  10.942   4.388  0.0639 -0.2589  0.1231
  490MOL0     C66069   3.696  10.801   4.750 -0.5621  0.0393  0.1676
  490MOL0     C66070   3.576  10.819   4.830 -0.0494 -0.3635  0.8876
  490MOL0     C66071   3.574  10.769   4.959 -0.1854  0.0512  0.5269
  490MOL0     C66072   3.685  10.698   5.006 -0.5981  0.1530 -0.8488
  490MOL0     O66073   3.685  10.651   5.141  0.1020  0.0352 -0.1105
  490MOL0     C66074   3.564  10.642   5.222 -0.3584 -0.2468  0.8024
  490MOL0     C66075   3.603  10.620   5.368  1.2805 -0.7384  0.0767
  490MOL0     C66076   3.482  10.652   5.466 -0.1743 -0.7088  0.4247
  490MOL0     C66077   3.496  10.594   5.611 -0.2068  0.0284  0.5526
  490MOL0     C66078   3.469  10.457   5.616  0.1296 -0.0264  0.4557
  490MOL0     C66079   3.437  10.344   5.651  1.4539  0.6392  0.7204
  490MOL0     C66080   3.801  10.687   4.937  0.2600  0.6553  0.1000
  490MOL0     C66081   3.808  10.725   4.801  1.0506 -0.2923  0.9104
  490MOL0     C66082   3.943  10.717   4.732  1.0768  0.3330 -0.5527
  490MOL0     H66083   3.607  10.769   4.293 -0.5004 -0.0977  1.4891
  490MOL0     H66084   3.638  10.889   4.093 -2.8733 -1.3927  2.1149
  490MOL0     H66085   3.918  10.882   3.908  0.1698  0.2007 -2.2052
  490MOL0     H66086   3.753  10.966   3.904  0.0209  2.2131 -0.5803
  490MOL0     H66087   3.857  11.152   3.817  0.8133 -0.3228 -0.4408
  490MOL0     H66088   3.868  11.006   3.712  2.8343 -1.8242 -0.1235
  490MOL0     H66089   4.103  10.983   3.789 -4.7886 -3.6907 -3.0322
  490MOL0     H66090   4.076  11.136   3.877 -1.2167  2.0320 -1.3502
  490MOL0     H66091   4.058  11.100   3.584  0.3976 -3.0514  2.3954
  490MOL0     H66092   4.017  11.251   3.680 -2.5932 -2.2028  0.9456
  490MOL0     H66093   4.293  11.113   3.641  2.2260  0.2558  3.8103
  490MOL0     H66094   4.234  11.251   3.557  1.1642 -1.2986 -0.7148
  490MOL0     H66095   4.231  11.399   3.726 -0.8830 -1.2232 -0.0209
  490MOL0     H66096   4.280  11.283   3.848  1.7932 -0.0369  0.3671
  490MOL0     H66097   4.468  11.267   3.625 -1.7057  1.9628 -1.9067
  490MOL0     H66098   4.515  11.325   3.786 -0.5786 -3.2154  0.0114
  490MOL0     H66099   4.416  11.544   3.720 -1.4004 -0.5076  0.3899
  490MOL0     H66100   4.566  11.506   3.655 -0.2826  1.3959  0.1238
  490MOL0     H66101   4.215  11.555   3.538 -0.1505  0.6249 -1.0394
  490MOL0     H66102   4.111  11.416   3.247 -1.8118  1.1088 -1.6163
  490MOL0     H66103   4.113  11.589   3.304 -1.8906 -1.6842 -2.1989
  490MOL0     H66104   4.313  11.604   3.115  1.3722 -2.4445 -1.0267
  490MOL0     H66105   4.249  11.456   3.065 -1.0054  0.0677 -3.1993
  490MOL0     H66106   4.026  11.635   3.110  2.5672 -0.8539  2.0419
  490MOL0     H66107   4.049  11.532   2.980 -1.5407  0.7925 -0.4880
  490MOL0     H66108   4.185  11.802   3.043  0.4596 -2.9373  2.3885
  490MOL0     H66109   4.060  11.783   2.916 -0.7526  0.1192  2.8539
  490MOL0     H66110   4.132  11.936   2.788  1.2788  1.6468  0.3220
  490MOL0     H66111   4.222  12.070   2.609  0.2927 -0.1219 -2.0782
  490MOL0     H66112   4.540  12.258   2.460  2.3965  1.5156 -0.3255
  490MOL0     H66113   4.648  12.441   2.325  0.1546  1.8243 -1.5044
  490MOL0     H66114   4.537  12.525   1.922 -0.6613 -1.1982  1.0652
  490MOL0     H66115   4.426  12.610   2.030  0.3561  2.0376  1.3020
  490MOL0     H66116   4.699  12.724   1.962 -0.6012  3.4419 -2.0313
  490MOL0     H66117   4.550  12.777   1.896  0.0503 -0.9603 -0.1847
  490MOL0     H66118   4.636  12.757   2.196 -0.5277  2.3267  0.5114
  490MOL0     H66119   4.671  12.898   2.099  2.6429 -0.3995  2.3480
  490MOL0     H66120   4.434  12.837   2.252  0.4752  1.2861  0.5444
  490MOL0     H66121   4.391  12.872   2.078 -1.6571 -1.0714  1.6779
  490MOL0     H66122   4.533  13.067   2.091 -0.9956 -2.8850 -0.6365
  490MOL0     H66123   4.534  13.071   2.264 -0.2856  3.0561 -0.7815
  490MOL0     H66124   4.276  13.100   2.101  2.4811  0.9464 -1.0264
  490MOL0     H66125   4.287  13.084   2.279  1.5734  0.1471  1.4151
  490MOL0     H66126   4.428  13.305   2.113  0.8525  0.8839  0.9788
  490MOL0     H66127   4.406  13.285   2.288 -1.4432  0.4427  0.3916
  490MOL0     H66128   4.234  13.434   2.142  1.7114 -0.8300 -0.9268
  490MOL0     H66129   4.158  13.282   2.100 -0.9741 -1.1837  1.1520
  490MOL0     H66130   4.372  12.351   2.008  1.9210 -3.7213 -0.0007
  490MOL0     H66131   4.255  12.201   2.165  1.8171 -5.3525  0.9750
  490MOL0     H66132   4.486  11.772   2.485 -0.0791  1.7061 -0.7449
  490MOL0     H66133   4.425  11.625   2.687 -0.1032  0.8463  0.8789
  490MOL0     H66134   3.995  11.071   4.256  0.2143  0.1917 -2.5955
  490MOL0     H66135   3.949  10.964   4.476  0.1696 -1.1927  0.2899
  490MOL0     H66136   3.500  10.872   4.773  1.0342  0.0719 -0.2114
  490MOL0     H66137   3.479  10.773   5.011 -2.3401  1.0829 -3.1138
  490MOL0     H66138   3.510  10.564   5.168  0.4347  1.5834 -2.9257
  490MOL0     H66139   3.523  10.744   5.215  0.2659 -0.0867 -0.9092
  490MOL0     H66140   3.685  10.690   5.388  0.2928 -0.5094  4.1314
  490MOL0     H66141   3.636  10.518   5.388 -0.1405 -1.0517  1.0038
  490MOL0     H66142   3.390  10.618   5.419  0.4624  0.3964 -1.7447
  490MOL0     H66143   3.480  10.762   5.467  1.3173 -0.6047 -1.5657
  490MOL0     H66144   3.601  10.603   5.641  0.1691  2.2285 -1.2264
  490MOL0     H66145   3.433  10.660   5.671  0.9145  1.6064  0.0607
  490MOL0     H66146   3.422  10.243   5.685  0.9973  0.5376  0.2346
  490MOL0     H66147   3.886  10.644   4.989 -1.0428 -1.9115  0.2554
  490MOL0     H66148   3.929  10.690   4.626 -0.4023  2.4788 -0.9582
  490MOL0     H66149   3.990  10.815   4.741 -0.0285  0.7724  0.7534
  490MOL0     H66150   4.006  10.637   4.773  0.8579  0.7101  0.5496
  491MOL0     O66151   0.727   0.232   5.345  0.5710 -0.4805 -1.0442
  491MOL0     C66152   0.782   0.229   5.236 -1.0314  0.6759  1.0004
  491MOL0     O66153   0.911   0.264   5.221 -0.5573  0.5900  0.6914
  491MOL0     C66154   0.983   0.302   5.332  0.3071  0.4483  0.4965
  491MOL0     C66155   1.048   0.205   5.411 -0.6840  0.6164 -0.2860
  491MOL0     C66156   1.133   0.245   5.518 -0.5504  0.1281  1.3462
  491MOL0     C66157   1.165   0.382   5.541  0.1979  0.6816  0.0711
  491MOL0     O66158   1.257   0.431   5.633 -0.3125 -0.3426 -0.8921
  491MOL0     C66159   1.303   0.355   5.741 -0.1412  0.9027  0.2051
  491MOL0     C66160   1.335   0.425   5.872 -0.0395  0.1119 -0.0470
  491MOL0     C66161   1.204   0.502   5.916  0.0955 -0.3649 -0.4771
  491MOL0     C66162   1.214   0.542   6.065 -0.4404 -0.4899  0.1085
  491MOL0     C66163   1.088   0.561   6.138  0.5212 -0.0651 -0.2822
  491MOL0     C66164   1.128   0.591   6.283  0.7117  1.6719  0.2084
  491MOL0     C66165   1.007   0.587   6.375 -0.1985 -0.6290 -0.0019
  491MOL0     C66166   1.032   0.602   6.520 -0.0859 -0.1172 -0.7169
  491MOL0     N66167   1.103   0.488   6.579 -1.7402  0.4019  0.1841
  491MOL0     C66168   1.234   0.492   6.618 -0.1729  0.2681  1.3251
  491MOL0     C66169   1.255   0.362   6.667 -1.0473 -0.6675  0.5410
  491MOL0     C66170   1.378   0.320   6.737  0.2269  0.9837  0.2422
  491MOL0     C66171   1.395   0.360   6.881  0.0239  0.2605  0.3454
  491MOL0     C66172   1.536   0.316   6.937 -0.1469  0.3604  0.1500
  491MOL0     C66173   1.541   0.349   7.093  0.1509  0.7008  0.4888
  491MOL0     O66174   1.681   0.353   7.137  0.0794  0.2908 -0.3214
  491MOL0     C66175   1.710   0.245   7.218 -0.6578  0.1124 -0.9013
  491MOL0     C66176   1.773   0.260   7.343 -0.5146  0.5086 -0.0129
  491MOL0     C66177   1.795   0.155   7.424 -0.1486  0.7129  0.4370
  491MOL0     C66178   1.737   0.031   7.397 -0.5294 -0.1465  0.5366
  491MOL0     C66179   1.736  -0.074   7.499  0.5263  0.4586 -0.2586
  491MOL0     O66180   1.843  -0.081   7.586  0.2455  0.2340 -0.9803
  491MOL0     C66181   1.857  -0.180   7.682 -1.0045  0.1152  0.4373
  491MOL0     C66182   1.960  -0.158   7.768  1.0899 -0.4751 -0.9067
  491MOL0     C66183   2.000  -0.259   7.863  0.4793 -0.0364 -0.1475
  491MOL0     C66184   1.942  -0.391   7.860  0.2702 -0.1902 -0.2796
  491MOL0     O66185   1.995  -0.475   7.959  0.0531 -0.5397  0.1005
  491MOL0     C66186   1.959  -0.620   7.963 -0.8323 -0.0531  0.0396
  491MOL0     C66187   2.052  -0.696   8.053  0.8714 -0.0487 -0.2727
  491MOL0     C66188   2.078  -0.626   8.183 -0.7436 -0.5720 -0.2569
  491MOL0     C66189   2.211  -0.686   8.235 -0.9756  0.4769 -0.7623
  491MOL0     C66190   2.254  -0.622   8.370  0.3710 -0.6148  0.7344
  491MOL0     C66191   2.159  -0.654   8.484 -1.1204  0.2969  0.0807
  491MOL0     C66192   2.146  -0.800   8.507  0.1229  0.3085  0.5425
  491MOL0     C66193   2.090  -0.810   8.649  1.0535  0.7567  0.9048
  491MOL0    Cl66194   2.032  -0.972   8.677  0.1095  0.1044  0.0634
  491MOL0     C66195   1.836  -0.411   7.773  0.0529  0.1001 -0.0584
  491MOL0     C66196   1.786  -0.306   7.689 -0.4308 -0.2616  0.0708
  491MOL0     O66197   1.652  -0.167   7.481 -0.2343 -0.2319  0.1813
  491MOL0     C66198   1.664   0.016   7.280  0.0087  0.1768 -1.2378
  491MOL0     C66199   1.657   0.118   7.186 -1.7341  0.5240 -0.5289
  491MOL0     N66200   1.155   0.279   6.639 -0.3801  0.1584  0.1245
  491MOL0     N66201   1.058   0.362   6.595 -1.0508  0.3720  0.1694
  491MOL0     C66202   1.107   0.473   5.445  0.0999  0.3465 -0.2237
  491MOL0     C66203   1.006   0.438   5.351 -1.2120  1.0132 -0.8268
  491MOL0     C66204   0.723   0.175   5.097  1.5467  0.6033 -0.7995
  491MOL0     C66205   0.804   0.180   4.983  0.0075 -0.7402  1.1727
  491MOL0     C66206   0.753   0.136   4.860  0.1073  0.0713  0.0764
  491MOL0     C66207   0.620   0.102   4.840 -0.1061  0.6255 -0.2083
  491MOL0     O66208   0.562   0.078   4.720  0.3282 -0.4457 -0.2510
  491MOL0     C66209   0.643   0.062   4.605  0.1229 -0.2514  0.3700
  491MOL0     C66210   0.716  -0.073   4.604  0.1048  0.0161  0.4294
  491MOL0     C66211   0.616  -0.168   4.551  0.8100 -0.3051  0.2280
  491MOL0     C66212   0.675  -0.308   4.529 -0.6399 -0.1376 -0.3478
  491MOL0     C66213   0.652  -0.399   4.642  0.6002 -0.3305 -0.0426
  491MOL0     C66214   0.641  -0.487   4.721  0.5148 -0.8259 -0.9483
  491MOL0     C66215   0.538   0.098   4.953 -0.9223 -0.2443 -0.3669
  491MOL0     C66216   0.588   0.137   5.081  0.0039  1.0604  0.2909
  491MOL0     C66217   0.493   0.131   5.198 -0.0301 -0.1302  0.1114
  491MOL0     H66218   1.035   0.098   5.402  0.4055  0.3436  1.0593
  491MOL0     H66219   1.184   0.167   5.574 -0.7132 -0.4040  0.7589
  491MOL0     H66220   1.226   0.285   5.777  0.2391  0.0264 -0.6121
  491MOL0     H66221   1.396   0.307   5.709 -0.1165  2.7328 -2.9277
  491MOL0     H66222   1.421   0.493   5.859  2.6818 -2.7589  1.6778
  491MOL0     H66223   1.358   0.352   5.950 -1.8573  2.0095  2.4068
  491MOL0     H66224   1.121   0.431   5.915  1.4932 -2.1493  1.4085
  491MOL0     H66225   1.183   0.589   5.853 -1.7347 -0.9901 -0.7677
  491MOL0     H66226   1.260   0.461   6.121 -0.8280 -0.4213  0.5335
  491MOL0     H66227   1.284   0.626   6.062  0.2302 -1.0657 -1.2288
  491MOL0     H66228   1.025   0.645   6.109  2.2479  2.2449  2.2006
  491MOL0     H66229   1.032   0.469   6.120 -2.3216  1.5887 -0.4122
  491MOL0     H66230   1.194   0.512   6.321 -1.0785  1.3795  3.0155
  491MOL0     H66231   1.189   0.681   6.300  1.6763  0.5253  3.7403
  491MOL0     H66232   0.948   0.496   6.363 -2.7340  1.0656 -1.0024
  491MOL0     H66233   0.940   0.667   6.344  1.2385 -0.4158 -2.8957
  491MOL0     H66234   1.091   0.694   6.524  2.1137 -1.3118 -2.7754
  491MOL0     H66235   0.935   0.613   6.569 -1.1735 -0.0843 -2.7572
  491MOL0     H66236   1.310   0.568   6.609  1.0326 -0.9868  0.4327
  491MOL0     H66237   1.392   0.212   6.725  2.3452  1.3157 -0.6394
  491MOL0     H66238   1.463   0.371   6.691  0.2821  1.6906  1.0897
  491MOL0     H66239   1.379   0.467   6.895 -2.1012  0.0672 -0.2365
  491MOL0     H66240   1.317   0.315   6.942 -0.9056  2.0662  0.5567
  491MOL0     H66241   1.621   0.360   6.884  0.0812 -1.2853 -0.9297
  491MOL0     H66242   1.546   0.207   6.927 -1.6745  0.0565  1.5067
  491MOL0     H66243   1.482   0.288   7.162  2.2668  1.0389  2.7123
  491MOL0     H66244   1.495   0.448   7.104  1.0065  1.6392 -2.9975
  491MOL0     H66245   1.808   0.355   7.381  0.8174 -0.8476  2.3968
  491MOL0     H66246   1.858   0.170   7.511 -0.0468  2.8134  0.0680
  491MOL0     H66247   1.999  -0.057   7.762 -1.9345  1.0789  2.0628
  491MOL0     H66248   2.079  -0.240   7.935  0.6238 -1.5328  0.1152
  491MOL0     H66249   1.861  -0.626   8.012 -1.7438  0.9999 -1.5858
  491MOL0     H66250   1.970  -0.657   7.861 -0.0164 -1.4109  0.5821
  491MOL0     H66251   2.018  -0.800   8.060 -3.0259  1.0170 -1.2112
  491MOL0     H66252   2.144  -0.693   7.993  0.8199  0.7618 -0.3272
  491MOL0     H66253   2.107  -0.520   8.178  4.6802 -1.8328 -1.4172
  491MOL0     H66254   1.988  -0.638   8.243 -1.3390 -0.3447 -1.0766
  491MOL0     H66255   2.285  -0.676   8.154 -0.6119 -0.9234 -0.6147
  491MOL0     H66256   2.196  -0.792   8.255 -3.8685  0.6628 -1.5419
  491MOL0     H66257   2.267  -0.513   8.367 -0.1780 -0.5596  0.0117
  491MOL0     H66258   2.350  -0.669   8.395  0.2411  0.5075  3.6282
  491MOL0     H66259   2.200  -0.605   8.572 -0.3211  0.2106 -0.2345
  491MOL0     H66260   2.058  -0.619   8.464 -1.2290 -0.1691 -0.2065
  491MOL0     H66261   2.239  -0.855   8.487 -1.2051 -0.9715 -2.7724
  491MOL0     H66262   2.070  -0.832   8.435 -0.7814  1.9350  0.7231
  491MOL0     H66263   2.165  -0.786   8.724  1.0465  0.6914  0.9321
  491MOL0     H66264   2.008  -0.739   8.666 -0.7929 -1.4265  1.5579
  491MOL0     H66265   1.786  -0.507   7.770 -2.7670  1.4836 -0.4301
  491MOL0     H66266   1.705  -0.327   7.620  0.0300  1.8446 -1.1921
  491MOL0     H66267   1.635  -0.083   7.247  1.6615 -0.3120 -1.3408
  491MOL0     H66268   1.609   0.089   7.093 -0.5980  1.2831 -1.3668
  491MOL0     H66269   1.133   0.577   5.457  1.1520 -0.1537  2.8859
  491MOL0     H66270   0.955   0.508   5.285 -3.5240 -0.8704 -1.2075
  491MOL0     H66271   0.903   0.223   4.976 -0.8409  1.2341  0.6274
  491MOL0     H66272   0.832   0.130   4.786  0.0484 -1.3069  0.0931
  491MOL0     H66273   0.723   0.136   4.608  1.2295 -1.4587  2.3552
  491MOL0     H66274   0.586   0.070   4.511 -1.1667 -3.0268  0.7986
  491MOL0     H66275   0.755  -0.107   4.700  0.4064  2.5659  1.3010
  491MOL0     H66276   0.799  -0.059   4.535  0.0147  2.1476  0.6906
  491MOL0     H66277   0.587  -0.137   4.450  0.5647  1.3662  0.7886
  491MOL0     H66278   0.524  -0.168   4.610  0.8827 -0.0670  0.3429
  491MOL0     H66279   0.623  -0.355   4.445  2.4918 -1.1218 -1.8847
  491MOL0     H66280   0.782  -0.310   4.507 -0.7669 -1.8668 -0.9877
  491MOL0     H66281   0.613  -0.564   4.790 -3.7580  1.1081 -0.2191
  491MOL0     H66282   0.435   0.082   4.924 -0.9543 -0.6090 -0.0598
  491MOL0     H66283   0.401   0.076   5.174  0.0238 -1.3626  2.3904
  491MOL0     H66284   0.538   0.065   5.273  1.3645  0.9001  0.2187
  491MOL0     H66285   0.467   0.230   5.236 -2.2870 -0.3664 -0.6949
  492MOL0     O66286   5.740  10.890   2.700  0.9276 -0.4493  0.2346
  492MOL0     C66287   5.671  10.799   2.657 -0.5709  1.0234  0.6243
  492MOL0     O66288   5.533  10.800   2.648  0.1388 -0.1006 -0.0586
  492MOL0     C66289   5.443  10.883   2.713  0.7921 -0.0917  0.0132
  492MOL0     C66290   5.459  10.986   2.805 -1.0939 -0.7419 -0.1843
  492MOL0     C66291   5.346  11.063   2.858  0.9118 -0.1531  0.7360
  492MOL0     C66292   5.219  11.039   2.804 -0.6054 -0.1420 -0.0769
  492MOL0     O66293   5.124  11.107   2.870 -0.1894  0.2028 -0.8969
  492MOL0     C66294   4.999  11.039   2.883  1.0726 -0.4452  1.2965
  492MOL0     C66295   4.900  11.099   2.993  0.3601 -0.2017  0.2021
  492MOL0     C66296   4.780  11.012   3.032 -0.9424  0.1744 -0.1969
  492MOL0     C66297   4.827  10.874   3.071 -0.0588 -0.3572  0.7282
  492MOL0     C66298   4.711  10.775   3.103 -0.1617  0.5963  0.2659
  492MOL0     C66299   4.636  10.797   3.232  0.3552 -0.0966 -0.3037
  492MOL0     C66300   4.548  10.678   3.272  1.0931  0.0684  1.0934
  492MOL0     C66301   4.487  10.691   3.410 -0.3365 -0.1004 -0.1426
  492MOL0     N66302   4.387  10.585   3.445  0.3092 -0.1443  0.3609
  492MOL0     C66303   4.260  10.573   3.395  0.7300 -0.2341 -0.9207
  492MOL0     C66304   4.215  10.460   3.445  0.6217  0.2606 -1.0730
  492MOL0     C66305   4.080  10.404   3.430 -0.8798  0.6847  0.6332
  492MOL0     C66306   4.085  10.274   3.352 -0.1164  0.2960  1.3134
  492MOL0     C66307   4.093  10.286   3.194 -0.6044  0.0696 -0.4673
  492MOL0     C66308   4.107  10.154   3.128  0.5768  0.2662  0.5383
  492MOL0     O66309   4.205  10.069   3.189  0.0588 -0.3935  0.2504
  492MOL0     C66310   4.166   9.949   3.228  0.3297 -0.4267  0.1599
  492MOL0     C66311   4.220   9.896   3.339  0.2214  0.4071  0.1814
  492MOL0     C66312   4.190   9.773   3.396 -0.6953  0.1572  0.8249
  492MOL0     C66313   4.108   9.683   3.324 -0.8721  0.0413 -0.0996
  492MOL0     C66314   4.074   9.541   3.366 -0.6966  1.0895  0.7476
  492MOL0     O66315   4.011   9.455   3.272 -0.5423 -0.1431 -0.0252
  492MOL0     C66316   3.976   9.326   3.304  0.5651 -0.6996 -0.6242
  492MOL0     C66317   3.845   9.285   3.293  0.1195 -0.2064  0.2323
  492MOL0     C66318   3.814   9.145   3.300  0.5744 -0.4097 -0.8471
  492MOL0     C66319   3.911   9.049   3.330 -0.1117  0.4307 -0.4269
  492MOL0     O66320   3.870   8.914   3.319 -0.3559  0.1066 -0.3919
  492MOL0     C66321   3.919   8.853   3.203  0.0828  0.4328  0.3043
  492MOL0     C66322   3.834   8.899   3.080 -0.7845  0.3825  0.3589
  492MOL0     C66323   3.888   8.822   2.954 -0.5920  0.4412  0.4284
  492MOL0     C66324   3.819   8.879   2.833  0.0057  0.2991  0.7522
  492MOL0     C66325   3.672   8.865   2.825  0.2952 -0.2692  0.0565
  492MOL0     C66326   3.615   8.886   2.690 -0.2345  0.2034  0.6400
  492MOL0     C66327   3.472   8.822   2.692  0.0515  0.6211  0.1857
  492MOL0     C66328   3.467   8.689   2.610  0.9927 -0.0226 -0.0041
  492MOL0    Cl66329   3.298   8.633   2.620  0.4325  0.2657  0.1103
  492MOL0     C66330   4.039   9.097   3.349  0.0030  1.0427  0.1282
  492MOL0     C66331   4.069   9.227   3.330 -0.2316 -0.3786  1.3875
  492MOL0     O66332   4.116   9.499   3.475  0.0493  0.3713  0.2486
  492MOL0     C66333   4.058   9.735   3.206 -0.3144 -0.5544 -0.3518
  492MOL0     C66334   4.084   9.863   3.154 -0.2699 -0.6180  0.0524
  492MOL0     N66335   4.298  10.420   3.544 -0.5162  0.2781  0.1889
  492MOL0     N66336   4.396  10.499   3.547 -0.3643 -0.2191 -0.9790
  492MOL0     C66337   5.206  10.929   2.723 -0.6595  0.7464  0.6222
  492MOL0     C66338   5.314  10.869   2.664  0.1318  0.0209  0.3058
  492MOL0     C66339   5.732  10.661   2.635  0.2801  0.3331  0.3938
  492MOL0     C66340   5.648  10.552   2.612 -0.9457  0.2921  1.1016
  492MOL0     C66341   5.700  10.419   2.610  0.4931 -0.4630 -0.4349
  492MOL0     C66342   5.838  10.389   2.634  0.4762 -0.4697 -1.0709
  492MOL0     O66343   5.872  10.254   2.634 -0.1688 -0.3264  0.0484
  492MOL0     C66344   6.008  10.214   2.658 -0.0546 -0.4923 -0.6273
  492MOL0     C66345   6.022  10.056   2.636 -0.2110  0.0692  0.2807
  492MOL0     C66346   5.930   9.976   2.724 -0.5314 -0.5245 -0.5522
  492MOL0     C66347   5.960  10.003   2.872  0.1696  0.2051  0.1863
  492MOL0     C66348   6.098   9.953   2.890 -0.8801  0.3499 -0.7040
  492MOL0     C66349   6.218   9.923   2.890  0.1005  0.1966 -0.6360
  492MOL0     C66350   5.925  10.503   2.653  0.0204  0.9630  0.1997
  492MOL0     C66351   5.876  10.640   2.637 -0.1395  0.8871 -0.8519
  492MOL0     C66352   5.974  10.757   2.648  0.1003 -0.2192 -1.0717
  492MOL0     H66353   5.561  11.007   2.835 -0.2220 -0.0242 -3.3106
  492MOL0     H66354   5.350  11.153   2.918  1.1971  0.3852 -0.0748
  492MOL0     H66355   4.953  11.050   2.784 -2.9832 -0.8148  2.9262
  492MOL0     H66356   5.028  10.936   2.908 -2.5174 -1.6544  1.0594
  492MOL0     H66357   4.863  11.200   2.972 -5.5471 -1.1366  4.0088
  492MOL0     H66358   4.970  11.104   3.078  0.9465 -1.1887 -0.2038
  492MOL0     H66359   4.712  11.015   2.946 -0.4377 -0.1203 -0.6164
  492MOL0     H66360   4.738  11.042   3.128 -1.6007 -5.5567  1.6957
  492MOL0     H66361   4.871  10.830   2.981 -2.5720 -1.7077  0.0636
  492MOL0     H66362   4.901  10.887   3.150  0.5503  2.4209 -0.1899
  492MOL0     H66363   4.645  10.782   3.016 -1.0611  0.1833  0.8915
  492MOL0     H66364   4.751  10.674   3.111  0.4354  0.9204  1.6644
  492MOL0     H66365   4.704  10.808   3.317  0.3313  0.9660 -0.4065
  492MOL0     H66366   4.567  10.882   3.221 -0.6848 -1.1070 -2.0044
  492MOL0     H66367   4.615  10.592   3.268  2.2510  0.8517  2.7683
  492MOL0     H66368   4.470  10.672   3.195  2.3894  0.6263 -0.3104
  492MOL0     H66369   4.568  10.686   3.483  0.6446  1.2291 -1.0833
  492MOL0     H66370   4.440  10.789   3.421 -2.4193 -0.9812 -0.6581
  492MOL0     H66371   4.202  10.639   3.331  0.2669  0.4714  0.1950
  492MOL0     H66372   4.028  10.377   3.523 -1.3253 -0.0866  0.1686
  492MOL0     H66373   4.014  10.471   3.375 -1.5985  1.3587  2.2555
  492MOL0     H66374   4.163  10.206   3.388  1.6006  1.7457  0.5177
  492MOL0     H66375   3.995  10.213   3.367 -0.2550  0.0192 -0.4325
  492MOL0     H66376   4.174  10.358   3.176  0.3924  0.1046  3.2167
  492MOL0     H66377   4.002  10.338   3.161 -1.2648 -0.7154  0.0849
  492MOL0     H66378   4.134  10.183   3.026 -1.2342  1.5831  0.3801
  492MOL0     H66379   4.004  10.117   3.128 -0.2950  2.5278  1.2060
  492MOL0     H66380   4.304   9.939   3.394  2.4241 -2.9426 -0.2452
  492MOL0     H66381   4.236   9.744   3.490  1.6245 -1.5307 -0.7297
  492MOL0     H66382   3.774   9.362   3.265 -0.6952 -1.7065 -2.0542
  492MOL0     H66383   3.709   9.120   3.286  1.2056 -2.2624 -2.7699
  492MOL0     H66384   4.026   8.865   3.184  0.1176 -1.1144 -0.6078
  492MOL0     H66385   3.899   8.748   3.228  1.4923  0.1129  0.2058
  492MOL0     H66386   3.728   8.872   3.090 -0.9518  1.6372  2.7525
  492MOL0     H66387   3.846   9.002   3.044 -1.1193 -0.3615 -2.0990
  492MOL0     H66388   3.997   8.822   2.948 -0.6564  0.8001 -0.9532
  492MOL0     H66389   3.854   8.722   2.984 -0.0030  0.3764  0.9145
  492MOL0     H66390   3.869   8.829   2.750  0.1820  2.2442 -0.3826
  492MOL0     H66391   3.854   8.983   2.834  3.8115 -0.8208  1.4198
  492MOL0     H66392   3.615   8.935   2.888 -1.4604 -1.2140 -0.4276
  492MOL0     H66393   3.645   8.768   2.867  0.0828 -0.1075  0.3017
  492MOL0     H66394   3.622   8.989   2.652 -3.6005  0.1465 -0.4113
  492MOL0     H66395   3.670   8.823   2.620 -0.1154 -0.0840  0.9945
  492MOL0     H66396   3.388   8.886   2.663  0.4200  0.9534 -0.1734
  492MOL0     H66397   3.458   8.771   2.787  1.6790 -1.1593 -0.4525
  492MOL0     H66398   3.488   8.719   2.507 -0.0163  0.4303 -0.0879
  492MOL0     H66399   3.540   8.614   2.644  0.8988  1.2805  3.5122
  492MOL0     H66400   4.116   9.025   3.375  0.9005  2.3771  1.2941
  492MOL0     H66401   4.172   9.257   3.343 -0.9677  1.8811  2.4143
  492MOL0     H66402   4.013   9.664   3.137  1.2346 -0.2607 -1.7338
  492MOL0     H66403   4.044   9.900   3.060 -2.5622 -1.1683  0.7542
  492MOL0     H66404   5.106  10.913   2.686 -0.6486  2.6428 -0.3716
  492MOL0     H66405   5.301  10.806   2.577 -4.1208 -0.2513  0.9007
  492MOL0     H66406   5.541  10.565   2.597 -1.5799 -1.5812  3.4114
  492MOL0     H66407   5.631  10.335   2.601 -1.2793  0.6323  1.8445
  492MOL0     H66408   6.030  10.240   2.762 -1.9572  0.0166 -0.3151
  492MOL0     H66409   6.074  10.276   2.597 -0.9473  1.8726  0.6664
  492MOL0     H66410   6.129  10.042   2.653 -1.0076 -2.8540  4.5646
  492MOL0     H66411   5.999  10.035   2.531 -2.6194 -2.1756  1.1363
  492MOL0     H66412   5.920   9.870   2.701  1.7658 -0.5291 -1.7795
  492MOL0     H66413   5.833  10.025   2.711  0.7267  3.6346  3.0291
  492MOL0     H66414   5.951  10.103   2.914  2.4793  0.6821 -0.2816
  492MOL0     H66415   5.888   9.940   2.925 -1.4305 -0.1567 -2.2561
  492MOL0     H66416   6.319   9.893   2.909 -0.0952  0.7794  1.6044
  492MOL0     H66417   6.031  10.485   2.660  0.2542  1.2053 -1.9588
  492MOL0     H66418   5.977  10.807   2.746 -1.8089  0.3198 -1.2549
  492MOL0     H66419   6.078  10.726   2.637  1.2056  2.2306  1.2279
  492MOL0     H66420   5.961  10.829   2.566 -1.8689  2.9167  1.7197
  493MOL0     O66421  10.651   7.163   8.325 -0.9826  0.0179  0.1254
  493MOL0     C66422  10.716   7.095   8.246 -1.2176  0.8130  0.4050
  493MOL0     O66423  10.845   7.096   8.225  0.3034  0.3335  0.2972
  493MOL0     C66424  10.922   7.193   8.291  0.2604 -0.1383 -0.2561
  493MOL0     C66425  10.997   7.150   8.403 -0.2476 -0.4075 -0.1562
  493MOL0     C66426  11.067   7.246   8.478  0.7894 -0.4050  0.6990
  493MOL0     C66427  11.072   7.382   8.439  0.1248  0.3324 -0.1217
  493MOL0     O66428  11.151   7.466   8.508  0.5113 -0.0327  0.1600
  493MOL0     C66429  11.082   7.575   8.558  0.4218 -0.0727 -0.9141
  493MOL0     C66430  11.183   7.649   8.641 -0.3869  0.4058 -0.3528
  493MOL0     C66431  11.276   7.727   8.561 -0.7662  0.0522  0.5504
  493MOL0     C66432  11.223   7.837   8.470  0.6293  0.3775  0.0626
  493MOL0     C66433  11.143   7.944   8.540 -0.7154 -0.5900  0.3521
  493MOL0     C66434  11.120   8.066   8.446 -0.0961 -0.1842 -0.1221
  493MOL0     C66435  11.033   8.177   8.504 -0.1504  0.0536  0.3617
  493MOL0     C66436  11.116   8.297   8.554  0.1686 -0.0892 -0.4994
  493MOL0     N66437  11.162   8.373   8.435  0.4654  0.3416  0.6360
  493MOL0     C66438  11.091   8.463   8.370 -0.0352  0.3148  0.6074
  493MOL0     C66439  11.183   8.525   8.294  0.1437 -0.5143 -0.0110
  493MOL0     C66440  11.126   8.635   8.207 -0.7447 -0.0767 -0.5179
  493MOL0     C66441  11.232   8.755   8.177  0.5257  0.7453 -0.1420
  493MOL0     C66442  11.332   8.693   8.088  0.9531  0.1037  0.6947
  493MOL0     C66443  11.437   8.795   8.036 -0.2161 -0.4845  0.2614
  493MOL0     O66444  11.515   8.757   7.923 -0.1947 -0.2858 -0.5575
  493MOL0     C66445  11.646   8.822   7.906  0.1837 -0.0914  0.8233
  493MOL0     C66446  11.698   8.920   7.999  0.1931  0.3044 -0.7144
  493MOL0     C66447  11.815   8.986   7.962 -0.5789  0.3151 -0.1444
  493MOL0     C66448  11.887   8.946   7.849 -0.4049  0.3955  1.2055
  493MOL0     C66449  12.019   9.006   7.823 -0.2265 -0.1168 -0.2025
  493MOL0     O66450  12.107   8.929   7.745  0.7283  0.3421 -0.1547
  493MOL0     C66451  12.229   8.991   7.733 -0.3466  0.2450 -0.4504
  493MOL0     C66452  12.262   9.058   7.620 -0.3988 -0.0806 -1.0028
  493MOL0     C66453  12.384   9.122   7.600 -0.1689 -0.3106  0.3606
  493MOL0     C66454  12.478   9.112   7.703 -0.0830 -0.7181  0.8083
  493MOL0     O66455  12.602   9.168   7.685 -0.0352  0.3456 -0.3377
  493MOL0     C66456  12.680   9.198   7.805 -0.2690  0.5688  0.1010
  493MOL0     C66457  12.797   9.298   7.774  0.4318 -0.3359 -0.6667
  493MOL0     C66458  12.895   9.242   7.681 -0.2005 -0.3810  0.5067
  493MOL0     C66459  13.024   9.327   7.701  0.1251  0.3035  0.1649
  493MOL0     C66460  13.117   9.314   7.585  0.1511 -1.1375  0.0622
  493MOL0     C66461  13.078   9.401   7.468  0.3809 -0.4650  0.6160
  493MOL0     C66462  13.186   9.404   7.359  0.4060 -0.1025 -0.2306
  493MOL0     C66463  13.134   9.452   7.225  0.2396 -0.7692 -0.0967
  493MOL0    Cl66464  13.031   9.609   7.256 -0.3380  0.0308  0.2222
  493MOL0     C66465  12.450   9.038   7.813  0.6428  0.5477 -0.5724
  493MOL0     C66466  12.323   8.979   7.837  0.2586  1.0679  0.2096
  493MOL0     O66467  12.021   9.129   7.839  0.2867  0.9882  0.4681
  493MOL0     C66468  11.836   8.850   7.761  1.4215  1.4640 -1.3988
  493MOL0     C66469  11.708   8.791   7.786 -0.8515 -0.4690  0.0524
  493MOL0     N66470  11.306   8.471   8.309 -0.5370 -0.1250 -0.3255
  493MOL0     N66471  11.293   8.375   8.392  0.0434  0.7410 -0.0096
  493MOL0     C66472  10.992   7.425   8.332  0.6923  0.2999 -0.7106
  493MOL0     C66473  10.922   7.326   8.257  0.3420 -0.8224  0.0786
  493MOL0     C66474  10.644   6.986   8.165 -0.7539  0.1684  0.2076
  493MOL0     C66475  10.719   6.892   8.092 -0.4845  0.0523 -0.3961
  493MOL0     C66476  10.659   6.784   8.028  0.0127 -0.6831 -0.0250
  493MOL0     C66477  10.520   6.766   8.036 -0.1651 -1.2760  0.9695
  493MOL0     O66478  10.453   6.673   7.970 -0.0622  0.1493 -1.4116
  493MOL0     C66479  10.527   6.572   7.894 -0.1526 -0.7055 -0.4948
  493MOL0     C66480  10.431   6.459   7.858 -1.3270 -0.3314  0.3319
  493MOL0     C66481  10.327   6.493   7.750 -0.3918 -0.4617  0.5129
  493MOL0     C66482  10.286   6.371   7.659 -0.0736  0.4397 -0.5256
  493MOL0     C66483  10.193   6.278   7.732  0.1245  0.4170  0.7774
  493MOL0     C66484  10.116   6.206   7.787 -0.5542  0.4022 -0.3630
  493MOL0     C66485  10.443   6.858   8.107 -0.3383 -0.1873  0.6291
  493MOL0     C66486  10.501   6.966   8.172  0.0851  0.1419 -0.0383
  493MOL0     C66487  10.408   7.062   8.238  0.5337  0.4640 -0.1997
  493MOL0     H66488  11.010   7.042   8.408  2.2206 -0.1601  0.0203
  493MOL0     H66489  11.123   7.191   8.553 -0.6156 -4.1427 -0.7305
  493MOL0     H66490  11.046   7.647   8.484 -3.4064  0.5648  1.2960
  493MOL0     H66491  11.002   7.530   8.617 -0.7517 -1.7978 -3.5950
  493MOL0     H66492  11.245   7.591   8.711  0.1042  1.8169  0.4251
  493MOL0     H66493  11.128   7.715   8.708  0.2753 -0.1701  0.8002
  493MOL0     H66494  11.328   7.660   8.493  3.5882  0.8823  2.7261
  493MOL0     H66495  11.350   7.776   8.625 -0.3425  1.7585 -1.1581
  493MOL0     H66496  11.316   7.876   8.428  0.5248  3.2663  2.1822
  493MOL0     H66497  11.158   7.787   8.398  0.7075 -0.8440  0.8108
  493MOL0     H66498  11.045   7.900   8.558 -0.7856 -3.4931 -5.0731
  493MOL0     H66499  11.186   7.985   8.631 -0.7610  2.3795 -0.8293
  493MOL0     H66500  11.217   8.090   8.402  0.3617 -2.3995 -0.4156
  493MOL0     H66501  11.076   8.029   8.353  1.5552  0.2860 -1.1454
  493MOL0     H66502  10.976   8.156   8.594 -0.9442  3.2585  0.7114
  493MOL0     H66503  10.953   8.207   8.436  1.4358 -1.3949 -2.2915
  493MOL0     H66504  11.049   8.358   8.614 -0.9952 -1.2725 -0.5639
  493MOL0     H66505  11.198   8.274   8.624  0.4319  3.4033  0.5628
  493MOL0     H66506  10.983   8.475   8.363  0.3082  3.8502 -0.7483
  493MOL0     H66507  11.087   8.585   8.118  1.3276 -2.0348 -0.4000
  493MOL0     H66508  11.032   8.674   8.247  0.5605  2.5406  0.2474
  493MOL0     H66509  11.186   8.842   8.130  0.5882  2.0839  2.1543
  493MOL0     H66510  11.282   8.786   8.269 -1.9217 -0.9205  1.9018
  493MOL0     H66511  11.274   8.656   8.003  1.3213  2.0358 -0.4534
  493MOL0     H66512  11.390   8.610   8.130 -0.8949 -2.3428 -1.2850
  493MOL0     H66513  11.501   8.803   8.125 -1.4607 -0.0440  1.1443
  493MOL0     H66514  11.398   8.894   8.009 -0.9391 -0.7191  0.4194
  493MOL0     H66515  11.644   8.963   8.083  2.6491  0.7254  0.7659
  493MOL0     H66516  11.859   9.056   8.032 -0.2698 -0.4551  0.4542
  493MOL0     H66517  12.183   9.053   7.545 -1.5228  0.8122  0.0844
  493MOL0     H66518  12.410   9.188   7.518 -0.9503  1.9203  1.8224
  493MOL0     H66519  12.619   9.252   7.877 -0.2093 -0.7434  1.1863
  493MOL0     H66520  12.720   9.115   7.865  1.1889  1.6228  0.6564
  493MOL0     H66521  12.758   9.390   7.729  1.9667 -0.3673 -2.1890
  493MOL0     H66522  12.836   9.328   7.871 -2.0391 -1.2070  0.6736
  493MOL0     H66523  12.918   9.136   7.699 -0.3514 -0.6200 -0.5835
  493MOL0     H66524  12.866   9.241   7.575  1.3332 -1.0150  0.0663
  493MOL0     H66525  13.079   9.294   7.790  1.7054  3.6911  0.6028
  493MOL0     H66526  12.994   9.430   7.722 -0.0733  0.3873 -0.5006
  493MOL0     H66527  13.127   9.213   7.543 -1.1804 -1.8921  1.4345
  493MOL0     H66528  13.214   9.332   7.633 -1.3602  0.9818  2.5939
  493MOL0     H66529  12.990   9.357   7.421  1.1496 -1.1324 -0.2571
  493MOL0     H66530  13.056   9.503   7.498  1.2134 -0.6549  1.9738
  493MOL0     H66531  13.232   9.306   7.340  1.5464  0.0582  1.4864
  493MOL0     H66532  13.267   9.459   7.407 -1.1983  2.1182  0.0591
  493MOL0     H66533  13.225   9.470   7.167  1.4474 -3.9586  0.6498
  493MOL0     H66534  13.068   9.382   7.173 -1.3627  1.1612 -0.8072
  493MOL0     H66535  12.526   9.031   7.891  0.3723 -0.8554 -0.4177
  493MOL0     H66536  12.299   8.942   7.937 -1.1623  0.9942 -0.1393
  493MOL0     H66537  11.889   8.822   7.671  1.1828  0.3126 -1.2031
  493MOL0     H66538  11.664   8.723   7.714 -1.2817 -0.7655  0.5805
  493MOL0     H66539  10.986   7.531   8.308  2.2386  1.6662  3.8451
  493MOL0     H66540  10.855   7.357   8.177  1.5879  3.1378  0.3739
  493MOL0     H66541  10.826   6.898   8.072 -0.9000 -0.2185 -3.1245
  493MOL0     H66542  10.727   6.718   7.975  0.2808  0.0072 -0.5644
  493MOL0     H66543  10.617   6.536   7.945 -1.6915 -0.6097  2.5110
  493MOL0     H66544  10.562   6.630   7.808 -1.1539  0.9837  0.1781
  493MOL0     H66545  10.376   6.409   7.938 -1.8548 -0.8576 -0.3411
  493MOL0     H66546  10.503   6.382   7.828  1.5066  2.3640 -0.1905
  493MOL0     H66547  10.365   6.572   7.684 -0.0587 -0.7346  0.3726
  493MOL0     H66548  10.232   6.527   7.791 -1.5200 -1.5133 -1.1143
  493MOL0     H66549  10.239   6.407   7.567 -1.3023 -3.3409 -1.5531
  493MOL0     H66550  10.370   6.313   7.620 -0.9470 -0.8623 -0.5035
  493MOL0     H66551  10.058   6.134   7.841  0.6094 -3.1794 -3.4375
  493MOL0     H66552  10.336   6.843   8.104 -0.2721 -2.3534  3.8124
  493MOL0     H66553  10.433   7.168   8.227  1.8581  0.1987  0.0828
  493MOL0     H66554  10.306   7.040   8.206  0.3504 -0.5052  0.9948
  493MOL0     H66555  10.418   7.032   8.342 -1.8615 -2.3065 -0.6480
  494MOL0     O66556   2.776   7.843   6.738  0.0682  0.2664 -0.4285
  494MOL0     C66557   2.689   7.880   6.666  0.0184 -0.1939  0.2388
  494MOL0     O66558   2.643   8.008   6.650 -0.7241 -0.2569 -0.0822
  494MOL0     C66559   2.712   8.110   6.707  0.7877 -0.6236 -0.0973
  494MOL0     C66560   2.846   8.139   6.689 -0.4809  0.8487  0.1743
  494MOL0     C66561   2.908   8.251   6.738  0.9234 -0.0284 -0.0721
  494MOL0     C66562   2.829   8.336   6.820 -0.1085  0.3596 -0.2443
  494MOL0     O66563   2.864   8.461   6.866  0.1467 -0.0325  0.1419
  494MOL0     C66564   2.968   8.546   6.799  0.3822  0.7557  0.5157
  494MOL0     C66565   2.985   8.665   6.898 -0.0235  0.1043 -0.3906
  494MOL0     C66566   3.085   8.660   7.012 -0.2419  0.3783 -0.4818
  494MOL0     C66567   3.232   8.661   6.952  0.2689 -0.3517  0.0581
  494MOL0     C66568   3.337   8.680   7.049  0.6598  0.2122 -0.5742
  494MOL0     C66569   3.471   8.742   6.996  0.2959  0.3112  0.0241
  494MOL0     C66570   3.575   8.763   7.107  0.5349  0.2901 -0.3315
  494MOL0     C66571   3.720   8.785   7.060 -0.5196 -0.8770  0.0217
  494MOL0     N66572   3.732   8.923   7.018  0.4307 -0.6493  0.1469
  494MOL0     C66573   3.722   9.018   7.113  0.7037 -0.2295 -0.1811
  494MOL0     C66574   3.760   9.134   7.056 -0.0770  0.1082  0.5628
  494MOL0     C66575   3.761   9.264   7.135  0.7785  0.4613 -0.0128
  494MOL0     C66576   3.785   9.381   7.033  0.8803 -0.2657  0.7514
  494MOL0     C66577   3.927   9.405   7.014  0.9655 -1.1106 -0.8913
  494MOL0     C66578   3.946   9.537   6.941  0.0004  0.0377  0.3013
  494MOL0     O66579   4.065   9.603   6.990  0.2173  0.0232 -0.6139
  494MOL0     C66580   4.189   9.560   6.945  0.2243  0.0624  1.3316
  494MOL0     C66581   4.205   9.444   6.863 -0.5398 -0.3441 -0.0416
  494MOL0     C66582   4.337   9.403   6.826 -0.7968 -0.0420  0.4410
  494MOL0     C66583   4.446   9.483   6.854  0.1415 -0.3182 -0.1061
  494MOL0     C66584   4.583   9.444   6.812 -0.4187  0.6773 -0.4379
  494MOL0     O66585   4.684   9.510   6.880 -2.0551  0.4711  0.4166
  494MOL0     C66586   4.818   9.473   6.857  1.2508 -0.6113 -0.5313
  494MOL0     C66587   4.866   9.341   6.826 -0.1493 -0.3093 -0.7879
  494MOL0     C66588   5.003   9.313   6.826 -0.1506  1.0231 -0.3256
  494MOL0     C66589   5.099   9.414   6.866 -0.3583 -0.0872  0.1005
  494MOL0     O66590   5.238   9.387   6.878  0.7147 -0.3841  1.0548
  494MOL0     C66591   5.333   9.491   6.870 -0.1717  0.7417  0.3389
  494MOL0     C66592   5.470   9.446   6.817  0.5372  0.4562 -0.5126
  494MOL0     C66593   5.584   9.556   6.833  0.8061 -0.1072 -0.1641
  494MOL0     C66594   5.551   9.662   6.738  0.0111 -1.3630  0.1692
  494MOL0     C66595   5.655   9.777   6.722  0.8748 -0.8414 -0.0487
  494MOL0     C66596   5.771   9.725   6.641 -0.1761  0.1365 -0.7062
  494MOL0     C66597   5.894   9.823   6.666 -0.3084 -0.1930  0.3981
  494MOL0     C66598   6.020   9.779   6.600  0.8355  0.4122  0.0120
  494MOL0    Cl66599   6.128   9.918   6.557  0.2175  0.3447  0.3810
  494MOL0     C66600   5.051   9.536   6.904  0.2799 -0.4116 -0.0879
  494MOL0     C66601   4.915   9.569   6.893  0.1387  0.0294 -0.5084
  494MOL0     O66602   4.593   9.369   6.715  0.7935 -0.0218 -1.0935
  494MOL0     C66603   4.431   9.599   6.943 -0.4455 -0.2876  0.6292
  494MOL0     C66604   4.305   9.630   6.994  0.4369  0.1528  0.4032
  494MOL0     N66605   3.777   9.110   6.923 -0.3606  0.1619  0.6537
  494MOL0     N66606   3.752   8.981   6.897 -0.0487 -0.1597 -0.2321
  494MOL0     C66607   2.695   8.303   6.843 -1.0962 -0.3832 -0.1155
  494MOL0     C66608   2.632   8.198   6.786  0.1166  0.1312  0.0944
  494MOL0     C66609   2.613   7.767   6.617 -0.2636  0.3590  0.9854
  494MOL0     C66610   2.530   7.690   6.688 -1.2686 -0.4641 -0.2770
  494MOL0     C66611   2.447   7.587   6.639 -0.0548 -0.7726 -0.2726
  494MOL0     C66612   2.455   7.550   6.513  0.5075  0.1845  0.6777
  494MOL0     O66613   2.370   7.453   6.460  0.1729  0.0508  0.0978
  494MOL0     C66614   2.425   7.315   6.449  0.1385  0.4618  0.0675
  494MOL0     C66615   2.515   7.297   6.325 -0.4922 -0.2106  0.1923
  494MOL0     C66616   2.443   7.298   6.185 -0.3325  1.0506 -0.5880
  494MOL0     C66617   2.538   7.295   6.061  1.1764  0.6121 -0.8037
  494MOL0     C66618   2.611   7.425   6.061  0.1641  0.0841  0.1411
  494MOL0     C66619   2.658   7.533   6.072  0.1661  0.3119  1.2088
  494MOL0     C66620   2.544   7.617   6.430 -0.3098 -0.5641  0.3056
  494MOL0     C66621   2.610   7.742   6.476 -0.4952  0.2539 -0.0567
  494MOL0     C66622   2.678   7.836   6.364 -0.8710  0.4418 -0.2961
  494MOL0     H66623   2.907   8.067   6.636  1.1971  0.8036  2.0645
  494MOL0     H66624   3.012   8.275   6.722  1.2908 -0.9159  0.8477
  494MOL0     H66625   3.057   8.484   6.808  0.1324 -0.2982 -2.8661
  494MOL0     H66626   2.944   8.591   6.702  1.1760 -0.0190 -0.0527
  494MOL0     H66627   2.893   8.680   6.955  0.5725  0.5111  0.4915
  494MOL0     H66628   3.014   8.758   6.848 -0.3159  0.5119  0.1889
  494MOL0     H66629   3.082   8.570   7.074 -1.4997  1.2359  0.7752
  494MOL0     H66630   3.070   8.756   7.063  0.2582  0.1784  0.0457
  494MOL0     H66631   3.241   8.559   6.915 -2.0551 -1.0078  1.1235
  494MOL0     H66632   3.247   8.730   6.869  2.0151  0.0689  0.6827
  494MOL0     H66633   3.301   8.733   7.137  2.4496 -0.9213  0.9235
  494MOL0     H66634   3.354   8.586   7.103 -0.7518  1.2898  1.8965
  494MOL0     H66635   3.515   8.684   6.914 -1.5510  1.1625 -1.6801
  494MOL0     H66636   3.427   8.833   6.953  0.4784 -0.2760 -1.4606
  494MOL0     H66637   3.583   8.678   7.176  2.4241  1.4796  1.0359
  494MOL0     H66638   3.552   8.851   7.168 -1.0178  0.9406 -1.7996
  494MOL0     H66639   3.791   8.763   7.141 -1.6253 -1.7446  0.7939
  494MOL0     H66640   3.743   8.718   6.976 -1.8346 -0.0223 -1.0513
  494MOL0     H66641   3.720   9.001   7.221 -1.3419 -2.2435 -0.4580
  494MOL0     H66642   3.662   9.275   7.179 -0.0328 -1.6447 -1.1527
  494MOL0     H66643   3.824   9.261   7.224 -1.0333  1.4130  1.3478
  494MOL0     H66644   3.726   9.372   6.942 -2.0906 -1.8369  2.6491
  494MOL0     H66645   3.736   9.465   7.083  0.2071  1.2461 -2.2339
  494MOL0     H66646   3.970   9.321   6.959  1.3175 -1.7304  0.2954
  494MOL0     H66647   3.974   9.412   7.112 -1.4782  2.4119  0.2324
  494MOL0     H66648   3.863   9.608   6.952  2.7619  4.1376 -2.5801
  494MOL0     H66649   3.958   9.526   6.833  3.6883  0.5625  0.5354
  494MOL0     H66650   4.124   9.377   6.836 -1.7945  0.8840  0.5745
  494MOL0     H66651   4.355   9.315   6.766 -3.8166  0.3604 -1.2992
  494MOL0     H66652   4.796   9.260   6.811  1.0726 -0.8999 -4.1187
  494MOL0     H66653   5.031   9.209   6.811  0.3921  1.1156  0.0172
  494MOL0     H66654   5.286   9.576   6.819 -2.5081 -0.0652  1.0185
  494MOL0     H66655   5.351   9.516   6.975  1.5502  2.1205 -0.2469
  494MOL0     H66656   5.496   9.350   6.862 -2.3981 -0.6136 -0.8968
  494MOL0     H66657   5.459   9.422   6.711  2.6430  1.6955 -1.0689
  494MOL0     H66658   5.590   9.571   6.942 -0.6931 -3.2200  0.4874
  494MOL0     H66659   5.681   9.515   6.805  1.9843  1.5927  1.2391
  494MOL0     H66660   5.452   9.699   6.765  0.9081 -0.1583  2.0280
  494MOL0     H66661   5.549   9.621   6.637  0.8211 -4.0434  1.1547
  494MOL0     H66662   5.679   9.810   6.824  2.3030  0.0507 -0.6435
  494MOL0     H66663   5.604   9.861   6.675  0.8919 -0.8711 -0.1200
  494MOL0     H66664   5.803   9.623   6.664 -0.9705 -0.2715 -1.3350
  494MOL0     H66665   5.747   9.736   6.535  0.6410  4.4367 -0.6091
  494MOL0     H66666   5.908   9.833   6.774 -0.5613 -1.6488  0.5904
  494MOL0     H66667   5.861   9.919   6.625 -2.8214  0.1950  3.0434
  494MOL0     H66668   6.078   9.711   6.662  0.0307 -2.0751 -1.7999
  494MOL0     H66669   5.989   9.728   6.508  1.7023  0.5846 -0.3931
  494MOL0     H66670   5.120   9.615   6.932  1.0088 -0.2589 -2.1323
  494MOL0     H66671   4.900   9.675   6.912 -0.5156 -0.1843  0.2433
  494MOL0     H66672   4.518   9.659   6.967 -2.1193  1.4138  2.9020
  494MOL0     H66673   4.298   9.713   7.064  0.3792  2.9785 -2.7076
  494MOL0     H66674   2.629   8.371   6.896 -0.7447 -0.5078  0.5004
  494MOL0     H66675   2.526   8.183   6.803  0.0326  0.4383 -0.1527
  494MOL0     H66676   2.521   7.723   6.791 -1.8597  0.8392 -0.7264
  494MOL0     H66677   2.376   7.543   6.708  2.0403 -1.7179  1.3634
  494MOL0     H66678   2.343   7.245   6.431 -0.0609  0.9388 -0.9458
  494MOL0     H66679   2.476   7.300   6.545 -0.9687  1.3974  0.8293
  494MOL0     H66680   2.551   7.194   6.332  0.2920 -0.0572 -1.2641
  494MOL0     H66681   2.587   7.379   6.333 -1.4012  0.5220  1.1295
  494MOL0     H66682   2.390   7.394   6.179  1.5060  2.1342 -0.2462
  494MOL0     H66683   2.370   7.217   6.184  1.6164 -0.9533  2.5180
  494MOL0     H66684   2.600   7.205   6.059  0.1185 -0.1271 -2.0690
  494MOL0     H66685   2.480   7.305   5.969 -1.2655  1.5812  0.7528
  494MOL0     H66686   2.711   7.625   6.090  0.4633  0.2146  0.8406
  494MOL0     H66687   2.535   7.588   6.326  1.3131 -1.3829  0.3693
  494MOL0     H66688   2.642   7.804   6.266  1.3675  0.8594 -1.3284
  494MOL0     H66689   2.647   7.940   6.381  0.9926  1.1988 -1.2568
  494MOL0     H66690   2.785   7.816   6.378 -0.5873  1.6396 -0.6431
  495MOL0     O66691  11.182   8.247  10.513 -0.3756 -0.3353  0.0210
  495MOL0     C66692  11.173   8.178  10.611  0.2618  0.6039  0.4374
  495MOL0     O66693  11.086   8.188  10.718 -0.1955 -0.2865  0.3618
  495MOL0     C66694  10.985   8.280  10.695  0.9363 -0.1078  0.6456
  495MOL0     C66695  10.993   8.409  10.748  1.3698 -0.0751 -0.2816
  495MOL0     C66696  10.895   8.508  10.733 -0.2010 -0.0272  0.3850
  495MOL0     C66697  10.777   8.467  10.665 -0.9429  0.0114  1.3170
  495MOL0     O66698  10.689   8.577  10.654  0.0012  0.4599  0.0584
  495MOL0     C66699  10.550   8.547  10.658  0.0261 -0.1197  0.2218
  495MOL0     C66700  10.479   8.682  10.648  0.3693  0.3454 -0.3467
  495MOL0     C66701  10.340   8.659  10.608  0.8078 -0.2103  0.1328
  495MOL0     C66702  10.268   8.798  10.571 -0.1604  0.0442 -0.0272
  495MOL0     C66703  10.157   8.783  10.473  0.1743 -0.1943 -0.2961
  495MOL0     C66704  10.038   8.734  10.560  0.5218 -0.4356  1.1215
  495MOL0     C66705   9.914   8.680  10.483 -1.1196  0.2581  0.6442
  495MOL0     C66706   9.813   8.782  10.438  0.1581 -0.1878  1.1143
  495MOL0     N66707   9.729   8.858  10.536  0.3224  0.7285 -0.8082
  495MOL0     C66708   9.613   8.916  10.493 -0.8289 -0.2807  0.0976
  495MOL0     C66709   9.575   8.990  10.601  0.9320 -0.5574 -0.2180
  495MOL0     C66710   9.466   9.096  10.599 -0.4918  0.4930 -0.2993
  495MOL0     C66711   9.391   9.110  10.739  0.2506 -0.9462 -0.3016
  495MOL0     C66712   9.289   9.230  10.735  0.6612  0.2434 -0.7491
  495MOL0     C66713   9.244   9.275  10.884  0.5490 -0.4245  0.3268
  495MOL0     O66714   9.344   9.233  10.979  0.0474 -0.2023  0.0870
  495MOL0     C66715   9.329   9.265  11.112 -0.4580  0.7759 -0.0997
  495MOL0     C66716   9.412   9.202  11.206 -0.2345  0.1308  0.4798
  495MOL0     C66717   9.399   9.227  11.337 -0.3527  0.5047 -0.3771
  495MOL0     C66718   9.315   9.328  11.388 -0.3784  0.7282 -0.6395
  495MOL0     C66719   9.284   9.353  11.531 -0.2377  0.3190 -0.2358
  495MOL0     O66720   9.327   9.258  11.617 -0.0377  0.3858  0.6993
  495MOL0     C66721   9.308   9.298  11.749  0.1526 -0.3806  0.0434
  495MOL0     C66722   9.427   9.339  11.811  0.9315  1.0820  0.4268
  495MOL0     C66723   9.424   9.373  11.946 -0.1566  0.2076 -0.2134
  495MOL0     C66724   9.303   9.359  12.013 -0.9713  0.4210  0.3678
  495MOL0     O66725   9.288   9.398  12.138  0.4397 -0.1135  0.4346
  495MOL0     C66726   9.233   9.540  12.150 -0.1761  0.0743 -0.9516
  495MOL0     C66727   9.092   9.542  12.225  0.5296 -1.0127 -0.5153
  495MOL0     C66728   9.017   9.679  12.224 -0.7626 -0.6944  0.1963
  495MOL0     C66729   8.865   9.660  12.235  0.0949 -0.9162  0.4778
  495MOL0     C66730   8.797   9.797  12.207  0.7988  0.8658 -0.6982
  495MOL0     C66731   8.783   9.875  12.344  0.1862  0.7971  0.0476
  495MOL0     C66732   8.687   9.991  12.326 -0.0653  0.2668  0.1980
  495MOL0     C66733   8.541   9.951  12.297 -0.5030 -0.0369 -0.0087
  495MOL0    Cl66734   8.441  10.080  12.346  0.1847 -0.0672  0.0652
  495MOL0     C66735   9.186   9.309  11.952 -0.1005  0.3753  0.0913
  495MOL0     C66736   9.196   9.280  11.815  0.8791  0.1663 -0.4436
  495MOL0     O66737   9.239   9.466  11.561  0.4176 -0.0440  0.1190
  495MOL0     C66738   9.240   9.394  11.294  0.2721  0.0724  0.2784
  495MOL0     C66739   9.251   9.367  11.154  0.0211  0.1158 -0.3925
  495MOL0     N66740   9.668   8.976  10.696  0.1932 -0.9560 -0.4302
  495MOL0     N66741   9.764   8.893  10.669  0.8055  0.1152  0.1226
  495MOL0     C66742  10.759   8.336  10.612 -0.4574  0.3278 -0.8387
  495MOL0     C66743  10.865   8.243  10.623  0.1309 -0.4139 -0.3143
  495MOL0     C66744  11.241   8.043  10.606 -0.6985 -0.2636  0.5634
  495MOL0     C66745  11.277   7.986  10.725  0.1330 -0.4748 -0.5236
  495MOL0     C66746  11.368   7.878  10.739  0.3287  0.2480 -0.0930
  495MOL0     C66747  11.421   7.818  10.624 -0.5504 -0.8703  0.2940
  495MOL0     O66748  11.521   7.717  10.638 -0.1737 -0.2074 -0.0440
  495MOL0     C66749  11.585   7.674  10.516 -0.1299 -0.3943 -0.0938
  495MOL0     C66750  11.712   7.591  10.532  0.1480  0.9723 -0.1844
  495MOL0     C66751  11.683   7.450  10.600  0.6000  0.1954  0.7509
  495MOL0     C66752  11.780   7.381  10.690 -0.9460  0.0562  0.0063
  495MOL0     C66753  11.894   7.335  10.611 -0.8731  0.3657  0.3470
  495MOL0     C66754  11.973   7.292  10.526 -0.5273 -0.9119  1.0166
  495MOL0     C66755  11.367   7.865  10.504 -0.1755 -0.2638 -0.0010
  495MOL0     C66756  11.284   7.976  10.490  0.2221  0.5038 -0.7096
  495MOL0     C66757  11.255   8.026  10.349  0.2828  0.2610 -0.1598
  495MOL0     H66758  11.081   8.425  10.810  0.4195  1.8965  0.6596
  495MOL0     H66759  10.918   8.606  10.774  0.3086  0.5842 -1.2967
  495MOL0     H66760  10.525   8.486  10.571 -0.2474 -0.6414  0.6602
  495MOL0     H66761  10.528   8.481  10.742  1.1616 -2.0075 -0.8627
  495MOL0     H66762  10.524   8.733  10.561  0.9478  0.1064 -0.1949
  495MOL0     H66763  10.481   8.739  10.742 -0.5063  1.8270 -1.1798
  495MOL0     H66764  10.275   8.612  10.682 -0.7113 -0.5588 -1.3606
  495MOL0     H66765  10.344   8.596  10.519  1.6658  3.4846 -2.7403
  495MOL0     H66766  10.245   8.847  10.666 -3.1640  1.1348 -1.1954
  495MOL0     H66767  10.337   8.861  10.514  1.1099  2.0512  3.3878
  495MOL0     H66768  10.142   8.872  10.412 -0.7536  0.5353  0.9307
  495MOL0     H66769  10.168   8.700  10.403 -4.1230 -2.3570  1.1865
  495MOL0     H66770  10.066   8.649  10.623  4.5871  0.9080  1.4262
  495MOL0     H66771  10.007   8.814  10.628 -0.1948 -2.0267  2.7593
  495MOL0     H66772   9.851   8.627  10.555 -0.0117  1.2831  2.4431
  495MOL0     H66773   9.947   8.607  10.408  1.6331 -1.1878  3.0725
  495MOL0     H66774   9.858   8.866  10.384 -1.2050  1.1375  1.9552
  495MOL0     H66775   9.749   8.736  10.362 -0.0287  0.5893  0.7923
  495MOL0     H66776   9.556   8.911  10.400  1.6926 -2.8147 -1.4695
  495MOL0     H66777   9.518   9.189  10.577  0.0112  0.7026  1.6113
  495MOL0     H66778   9.400   9.076  10.514  1.1900  0.8182 -1.7524
  495MOL0     H66779   9.345   9.019  10.778 -0.0570 -1.6551 -2.1845
  495MOL0     H66780   9.472   9.123  10.811  2.7186  1.5899 -3.2464
  495MOL0     H66781   9.196   9.207  10.682 -0.0719  2.4594 -0.5279
  495MOL0     H66782   9.337   9.312  10.682  0.7517  1.9463  1.7784
  495MOL0     H66783   9.157   9.214  10.910 -0.2162  0.4847 -0.0361
  495MOL0     H66784   9.209   9.378  10.893  0.7258 -0.4073  0.8744
  495MOL0     H66785   9.490   9.130  11.180 -0.4211  0.2616 -0.4698
  495MOL0     H66786   9.451   9.166  11.410 -3.0983 -1.3517  0.2016
  495MOL0     H66787   9.516   9.351  11.750  0.7598  2.6180  0.4252
  495MOL0     H66788   9.511   9.413  11.997 -0.2085  1.0275 -0.7472
  495MOL0     H66789   9.308   9.597  12.206 -0.1068  0.8291 -1.7976
  495MOL0     H66790   9.224   9.592  12.054 -1.4601 -1.4638 -1.7187
  495MOL0     H66791   9.031   9.462  12.182  0.8644 -2.1251  1.0019
  495MOL0     H66792   9.097   9.518  12.331 -2.9336 -0.5081 -0.1035
  495MOL0     H66793   9.052   9.747  12.302  2.5025 -3.0628  1.0078
  495MOL0     H66794   9.055   9.718  12.129  4.2972 -1.7681  1.4936
  495MOL0     H66795   8.831   9.610  12.326 -2.0488  0.4858  0.5292
  495MOL0     H66796   8.845   9.610  12.140  0.1993 -0.2848  0.1138
  495MOL0     H66797   8.697   9.767  12.176 -1.3400  5.2544  1.0789
  495MOL0     H66798   8.862   9.857  12.142  3.2501 -0.3157  0.5296
  495MOL0     H66799   8.753   9.812  12.428  0.5823  0.9575  0.3126
  495MOL0     H66800   8.881   9.914  12.372 -0.4750  1.6552  1.2915
  495MOL0     H66801   8.724  10.072  12.263 -0.6520  0.7546  0.4700
  495MOL0     H66802   8.682  10.041  12.423  0.6471 -0.6118  0.7037
  495MOL0     H66803   8.525   9.929  12.191 -2.3912  0.7283  0.0676
  495MOL0     H66804   8.510   9.866  12.359 -0.5042  0.0586  0.1225
  495MOL0     H66805   9.097   9.296  12.013  1.2843 -0.0326  2.1321
  495MOL0     H66806   9.107   9.236  11.771  0.8970  0.6326 -0.9592
  495MOL0     H66807   9.173   9.473  11.327 -1.0820  0.6520 -3.3957
  495MOL0     H66808   9.199   9.425  11.079 -0.0233  0.7616  0.1323
  495MOL0     H66809  10.668   8.306  10.562  0.5058 -1.0466 -1.8388
  495MOL0     H66810  10.847   8.144  10.581 -0.9036 -1.6300  2.7226
  495MOL0     H66811  11.253   8.030  10.821 -1.9882 -0.4235 -1.0363
  495MOL0     H66812  11.388   7.836  10.837  2.3845  3.3083  0.9271
  495MOL0     H66813  11.613   7.765  10.461  1.0883 -2.0263 -2.3283
  495MOL0     H66814  11.518   7.616  10.452 -2.4743  1.5114  0.4617
  495MOL0     H66815  11.785   7.649  10.590 -0.1955 -0.8919  2.2850
  495MOL0     H66816  11.761   7.573  10.436  1.3252  2.0629  0.1848
  495MOL0     H66817  11.635   7.382  10.529 -1.7401  2.7377 -0.3152
  495MOL0     H66818  11.598   7.469  10.667  1.4041  3.1126  1.0883
  495MOL0     H66819  11.815   7.438  10.776  0.6341  1.0080 -1.2160
  495MOL0     H66820  11.731   7.295  10.737 -1.2184  0.4220  0.4008
  495MOL0     H66821  12.060   7.282  10.465 -0.9765  2.5471 -0.4522
  495MOL0     H66822  11.409   7.832  10.409 -0.2189  2.7599 -1.1889
  495MOL0     H66823  11.164   8.087  10.342 -0.0440  0.1393  2.2188
  495MOL0     H66824  11.342   8.087  10.326  0.3979 -0.2105 -1.0350
  495MOL0     H66825  11.245   7.943  10.277 -1.1188  1.3996 -1.3469
  496MOL0     O66826   4.098   6.369   9.098 -0.5749 -0.2573  0.1820
  496MOL0     C66827   4.158   6.406   8.997  0.1745 -0.0106 -0.9360
  496MOL0     O66828   4.291   6.389   8.982  0.0854  0.6957 -0.2115
  496MOL0     C66829   4.361   6.328   9.083 -0.1266 -0.5540 -1.2387
  496MOL0     C66830   4.349   6.369   9.219  0.0628 -0.0982 -0.4949
  496MOL0     C66831   4.424   6.299   9.318  1.0526  0.6557  0.9428
  496MOL0     C66832   4.504   6.188   9.285 -0.1106  0.3449  0.1056
  496MOL0     O66833   4.574   6.120   9.385 -0.7232 -0.1348  0.2168
  496MOL0     C66834   4.681   6.034   9.353  0.2649  0.1297 -0.3628
  496MOL0     C66835   4.750   5.977   9.479  0.3260 -0.2991  0.5084
  496MOL0     C66836   4.865   5.896   9.414 -0.5965  0.7447  0.7897
  496MOL0     C66837   4.949   5.843   9.527 -0.0782  0.8299  0.3606
  496MOL0     C66838   5.073   5.771   9.467 -0.5084  0.2683  0.5208
  496MOL0     C66839   5.176   5.876   9.410  0.0272  0.6495 -0.0214
  496MOL0     C66840   5.311   5.794   9.377 -0.2588  0.3690 -0.9228
  496MOL0     C66841   5.431   5.869   9.328  0.1728 -0.6317  0.0919
  496MOL0     N66842   5.545   5.784   9.293  0.0088  0.7838  0.0470
  496MOL0     C66843   5.646   5.746   9.379 -0.1493  0.6638  0.5620
  496MOL0     C66844   5.713   5.657   9.308  0.9887 -0.1088  1.5577
  496MOL0     C66845   5.822   5.548   9.339  0.8296 -0.5816  0.1143
  496MOL0     C66846   5.802   5.459   9.458 -0.2783  1.2039 -0.6933
  496MOL0     C66847   5.924   5.363   9.479  0.1653  0.2103  0.5514
  496MOL0     C66848   5.973   5.273   9.368  0.1699 -0.0583 -0.7692
  496MOL0     O66849   6.096   5.219   9.424  0.1590 -0.1038 -0.7650
  496MOL0     C66850   6.178   5.144   9.339 -0.0246  0.0077 -0.6642
  496MOL0     C66851   6.294   5.093   9.392 -0.2571 -1.1535  0.0964
  496MOL0     C66852   6.382   5.022   9.310 -0.7111  0.1497 -0.9702
  496MOL0     C66853   6.343   4.971   9.186 -0.6005 -0.1590  0.0656
  496MOL0     C66854   6.444   4.902   9.102 -0.6072  0.0675 -0.5297
  496MOL0     O66855   6.408   4.902   8.971  1.1461 -0.9243  0.0113
  496MOL0     C66856   6.486   4.836   8.874  0.9014  0.3587 -0.4851
  496MOL0     C66857   6.584   4.735   8.896 -0.1317 -0.6840  0.4582
  496MOL0     C66858   6.642   4.673   8.781  0.1775 -0.2029  1.2137
  496MOL0     C66859   6.603   4.706   8.650  0.5359 -0.0837  0.3151
  496MOL0     O66860   6.659   4.647   8.539  0.1241 -0.8733 -0.3331
  496MOL0     C66861   6.732   4.724   8.454 -0.3677  0.5777 -0.0409
  496MOL0     C66862   6.748   4.638   8.320 -0.0494 -0.1032 -0.4218
  496MOL0     C66863   6.616   4.648   8.242  0.6523  0.3627 -0.0054
  496MOL0     C66864   6.619   4.555   8.134 -0.6312  0.2661 -0.3324
  496MOL0     C66865   6.494   4.526   8.056 -0.3391  0.6980 -1.3590
  496MOL0     C66866   6.447   4.645   7.974  0.2138 -0.4698 -0.5167
  496MOL0     C66867   6.330   4.612   7.885 -0.5252  0.2467 -0.2515
  496MOL0     C66868   6.301   4.728   7.793  0.0365  0.1057 -0.8040
  496MOL0    Cl66869   6.428   4.761   7.662 -0.3955  0.1357 -0.0145
  496MOL0     C66870   6.508   4.803   8.634  1.1598 -0.6072 -0.0605
  496MOL0     C66871   6.446   4.867   8.747  0.2065  0.3328 -0.4978
  496MOL0     O66872   6.563   4.878   9.146 -0.1660  0.4678 -0.2925
  496MOL0     C66873   6.220   5.022   9.140 -0.3190  0.2582  0.4219
  496MOL0     C66874   6.140   5.112   9.207 -0.0270 -0.3681 -0.0188
  496MOL0     N66875   5.667   5.660   9.173 -0.5120  0.4297 -0.8673
  496MOL0     N66876   5.564   5.735   9.170  0.2692 -0.1781  0.1496
  496MOL0     C66877   4.507   6.150   9.145 -0.2342 -0.0754  0.0032
  496MOL0     C66878   4.442   6.224   9.044 -0.0298 -0.4204 -0.8537
  496MOL0     C66879   4.090   6.498   8.902  0.6433 -0.4146  0.4337
  496MOL0     C66880   4.174   6.586   8.830 -0.6835 -0.6630 -0.4419
  496MOL0     C66881   4.132   6.672   8.727  0.6096 -0.2312  0.2068
  496MOL0     C66882   3.999   6.691   8.710  0.1723 -0.3295 -0.5025
  496MOL0     O66883   3.939   6.767   8.615  0.3522  0.3162  0.5132
  496MOL0     C66884   4.016   6.836   8.512 -1.1112 -0.9399  0.3456
  496MOL0     C66885   3.923   6.898   8.413 -0.9651 -0.2372  0.2614
  496MOL0     C66886   4.011   6.997   8.322 -0.2741  0.5618  0.6900
  496MOL0     C66887   4.103   6.922   8.217 -0.1902  0.2294 -0.0554
  496MOL0     C66888   4.247   6.932   8.247 -0.4193  0.2818 -0.0500
  496MOL0     C66889   4.364   6.934   8.278 -0.0315 -0.0476 -0.2909
  496MOL0     C66890   3.906   6.612   8.784 -0.9332 -1.1860  0.4240
  496MOL0     C66891   3.956   6.510   8.871 -0.5285  0.7733  0.8812
  496MOL0     C66892   3.848   6.431   8.935 -0.4147  0.1806 -0.2594
  496MOL0     H66893   4.273   6.441   9.246 -1.7170 -2.1126  0.2003
  496MOL0     H66894   4.424   6.327   9.422  2.9549  1.2508  0.8385
  496MOL0     H66895   4.631   5.953   9.299  0.9117 -1.9664  2.0059
  496MOL0     H66896   4.752   6.080   9.282 -2.2416  1.0503 -2.4542
  496MOL0     H66897   4.681   5.914   9.535 -1.1090 -1.6027 -2.4621
  496MOL0     H66898   4.780   6.061   9.542 -2.1180  1.2700 -0.2789
  496MOL0     H66899   4.936   5.947   9.348 -0.2524 -0.5626  0.1188
  496MOL0     H66900   4.826   5.813   9.353  1.4144 -0.7052  1.3903
  496MOL0     H66901   4.977   5.926   9.591 -1.7045  0.5523  1.4888
  496MOL0     H66902   4.891   5.763   9.574  0.0619  1.5864  1.8723
  496MOL0     H66903   5.128   5.717   9.545 -1.0187  2.1744  2.3021
  496MOL0     H66904   5.033   5.693   9.403  1.8377 -1.0731  0.5689
  496MOL0     H66905   5.142   5.937   9.326  1.2757  1.6353  0.1511
  496MOL0     H66906   5.188   5.956   9.483 -1.2938  1.8492 -1.0491
  496MOL0     H66907   5.291   5.713   9.306  4.1784  0.0718 -2.1637
  496MOL0     H66908   5.344   5.740   9.466 -2.8986 -2.3431 -1.4324
  496MOL0     H66909   5.414   5.928   9.238 -1.4775 -0.8161  0.2459
  496MOL0     H66910   5.461   5.934   9.410  0.2751 -1.6061  0.8512
  496MOL0     H66911   5.674   5.767   9.482  1.3671  1.3992  0.0224
  496MOL0     H66912   5.826   5.480   9.252 -0.5562 -2.6305  1.5438
  496MOL0     H66913   5.919   5.595   9.354  0.8364 -0.4106 -0.4543
  496MOL0     H66914   5.797   5.522   9.547 -1.8030  1.3983 -0.8859
  496MOL0     H66915   5.708   5.404   9.448 -0.8140  1.5939  1.6829
  496MOL0     H66916   5.901   5.297   9.564  1.6734 -2.0482 -0.6786
  496MOL0     H66917   6.007   5.431   9.500 -0.4250  0.8519  0.8219
  496MOL0     H66918   5.984   5.340   9.282 -2.0256 -1.0004 -1.8557
  496MOL0     H66919   5.906   5.190   9.347  1.6394 -1.6821  0.6703
  496MOL0     H66920   6.332   5.118   9.491  0.1822  4.7857 -1.1804
  496MOL0     H66921   6.478   4.987   9.347 -1.2948  0.6819  1.1397
  496MOL0     H66922   6.615   4.700   8.994  1.7122  3.6364  1.6915
  496MOL0     H66923   6.717   4.595   8.784  1.4556  0.8502 -0.8769
  496MOL0     H66924   6.678   4.817   8.433 -0.1470  0.9654  1.0462
  496MOL0     H66925   6.830   4.755   8.492  0.1260 -1.5033  0.5098
  496MOL0     H66926   6.837   4.659   8.260 -0.8960  0.8208 -1.3870
  496MOL0     H66927   6.768   4.538   8.362  2.4211  0.6705  0.4324
  496MOL0     H66928   6.533   4.620   8.307 -2.7742  1.9218 -3.3734
  496MOL0     H66929   6.599   4.749   8.203  2.0143  0.4151 -0.5154
  496MOL0     H66930   6.638   4.459   8.183  0.0713  1.5630  2.1156
  496MOL0     H66931   6.701   4.573   8.063 -1.8380  0.1510 -1.7975
  496MOL0     H66932   6.414   4.497   8.124  0.1914 -1.4531 -1.5760
  496MOL0     H66933   6.530   4.446   7.990  0.0704  0.7925 -1.2520
  496MOL0     H66934   6.428   4.730   8.039  0.4236 -0.4258 -0.5109
  496MOL0     H66935   6.532   4.669   7.909  1.6793 -1.9981  0.7347
  496MOL0     H66936   6.244   4.571   7.939  0.0290 -2.8942 -1.4950
  496MOL0     H66937   6.356   4.540   7.806 -0.6911  2.6016 -2.6000
  496MOL0     H66938   6.205   4.702   7.749 -1.2529 -3.2726  3.2599
  496MOL0     H66939   6.289   4.822   7.847  1.2873  0.0458 -0.3847
  496MOL0     H66940   6.482   4.851   8.540 -1.5223 -1.3207  0.2342
  496MOL0     H66941   6.372   4.944   8.728  0.5431  0.3551 -1.8426
  496MOL0     H66942   6.192   4.991   9.040  2.5548  0.0433 -0.3992
  496MOL0     H66943   6.052   5.156   9.161  0.4997 -0.4509 -1.1371
  496MOL0     H66944   4.568   6.062   9.127 -2.2047 -1.4561 -0.1731
  496MOL0     H66945   4.442   6.194   8.939  1.9554  0.9630 -1.3099
  496MOL0     H66946   4.277   6.591   8.861 -0.1622 -0.9588 -2.0091
  496MOL0     H66947   4.208   6.724   8.671  1.2260  0.0334  1.2490
  496MOL0     H66948   4.083   6.764   8.464  0.2004 -0.3595  1.2459
  496MOL0     H66949   4.089   6.905   8.556  1.0800 -2.0797 -1.3087
  496MOL0     H66950   3.863   6.965   8.475 -2.2923 -2.3336  1.3502
  496MOL0     H66951   3.869   6.828   8.349 -1.1203  1.7110 -1.8676
  496MOL0     H66952   4.070   7.064   8.385 -2.4315  1.4652  1.8898
  496MOL0     H66953   3.940   7.064   8.272 -0.7448 -0.3777  0.0883
  496MOL0     H66954   4.062   6.823   8.196 -2.6366  1.5433 -2.0913
  496MOL0     H66955   4.092   6.977   8.123 -3.5704  0.2246  0.2105
  496MOL0     H66956   4.470   6.933   8.289  0.2316 -1.5735 -2.4604
  496MOL0     H66957   3.800   6.627   8.765 -1.3404 -4.9289 -1.0384
  496MOL0     H66958   3.891   6.348   8.992 -0.4386  1.3877  1.5842
  496MOL0     H66959   3.798   6.497   9.006  1.3635  1.4163 -0.1092
  496MOL0     H66960   3.793   6.382   8.853  2.1118 -0.3382 -1.7495
  497MOL0     O66961   0.712  10.681   1.192  0.3049 -0.1906  0.0473
  497MOL0     C66962   0.813  10.657   1.132 -0.1181  0.5853  0.7786
  497MOL0     O66963   0.845  10.534   1.086 -0.1007 -0.1856  0.5439
  497MOL0     C66964   0.776  10.429   1.143 -0.2787  0.5161  0.0111
  497MOL0     C66965   0.735  10.325   1.066  0.1881  0.3361 -0.4263
  497MOL0     C66966   0.655  10.219   1.107 -0.2708 -0.1932  0.0436
  497MOL0     C66967   0.625  10.214   1.238  0.3735  0.9568  0.5359
  497MOL0     O66968   0.534  10.117   1.275 -0.2819  0.4070 -0.3786
  497MOL0     C66969   0.547  10.082   1.415  0.0300 -0.1371 -1.0246
  497MOL0     C66970   0.478   9.945   1.438  0.1684  0.4845  1.1444
  497MOL0     C66971   0.473   9.918   1.592  0.4585  0.0137  0.6434
  497MOL0     C66972   0.376   9.814   1.629  0.3208  0.4884  1.1307
  497MOL0     C66973   0.395   9.744   1.767 -0.2121  0.5211  0.0172
  497MOL0     C66974   0.387   9.840   1.885  0.1370  0.3820  0.5631
  497MOL0     C66975   0.422   9.772   2.018  0.6422  0.3056 -0.4710
  497MOL0     C66976   0.398   9.866   2.139 -0.0137 -0.4440 -0.7454
  497MOL0     N66977   0.437   9.821   2.273 -0.1946 -0.7668  1.0095
  497MOL0     C66978   0.380   9.713   2.327 -0.5418 -0.0704 -0.6977
  497MOL0     C66979   0.441   9.704   2.449  0.0454  1.3016  0.7850
  497MOL0     C66980   0.415   9.591   2.539 -0.3488 -0.2192 -0.4870
  497MOL0     C66981   0.558   9.552   2.605 -0.4716  0.2186 -0.3211
  497MOL0     C66982   0.577   9.413   2.677  0.8157 -0.2043 -1.2397
  497MOL0     C66983   0.501   9.398   2.817 -0.6528  0.2807  0.0910
  497MOL0     O66984   0.357   9.399   2.799 -0.2826  0.5278  0.2448
  497MOL0     C66985   0.268   9.352   2.892  1.3926 -1.0062 -0.1266
  497MOL0     C66986   0.282   9.230   2.951 -0.0693  0.5703  0.0245
  497MOL0     C66987   0.185   9.183   3.043  0.0864 -0.0948 -0.0796
  497MOL0     C66988   0.074   9.256   3.071  1.1607  0.3686  0.7519
  497MOL0     C66989  -0.036   9.204   3.158  0.0545 -0.7196  0.6961
  497MOL0     O66990  -0.060   9.077   3.136 -0.7767 -0.0071  1.3627
  497MOL0     C66991  -0.151   9.024   3.216  0.2576  0.2840  0.3358
  497MOL0     C66992  -0.117   8.942   3.323  0.2887  0.0103 -0.5578
  497MOL0     C66993  -0.218   8.882   3.405 -0.5856 -0.2453 -0.0665
  497MOL0     C66994  -0.346   8.894   3.367  0.6624  1.1719 -0.0139
  497MOL0     O66995  -0.437   8.825   3.450 -0.2190  0.2156  0.1639
  497MOL0     C66996  -0.567   8.800   3.393  0.6671 -0.1829  0.4880
  497MOL0     C66997  -0.665   8.753   3.515  0.4813  0.1219  0.3362
  497MOL0     C66998  -0.802   8.713   3.476  0.6616 -0.4059  0.0062
  497MOL0     C66999  -0.810   8.574   3.442  0.9322  0.7528 -0.8780
  497MOL0     C67000  -0.956   8.527   3.405 -0.2702 -0.5680  0.1530
  497MOL0     C67001  -0.963   8.387   3.338 -0.0515  0.1624  0.1843
  497MOL0     C67002  -1.103   8.328   3.304  0.6803  0.2810 -0.1920
  497MOL0     C67003  -1.164   8.251   3.419  0.5264  0.7618 -0.4676
  497MOL0    Cl67004  -1.342   8.280   3.424 -0.0402 -0.3471 -0.2829
  497MOL0     C67005  -0.379   8.981   3.265 -0.4927 -0.5757 -0.6131
  497MOL0     C67006  -0.284   9.048   3.193  0.6830  0.2247 -0.3845
  497MOL0     O67007  -0.094   9.278   3.240  0.4583  0.3438 -0.0941
  497MOL0     C67008   0.060   9.384   3.009 -0.2460 -0.2933  0.0550
  497MOL0     C67009   0.158   9.430   2.919 -0.1647 -0.6105 -0.9468
  497MOL0     N67010   0.529   9.805   2.459  0.0119  0.1401  0.4973
  497MOL0     N67011   0.524   9.879   2.355 -0.5360  0.5441 -0.1364
  497MOL0     C67012   0.680  10.310   1.325 -0.1409  0.0005  0.0055
  497MOL0     C67013   0.758  10.414   1.283  0.5332 -0.3588  0.1507
  497MOL0     C67014   0.896  10.775   1.109 -0.8610  0.4510  0.3684
  497MOL0     C67015   1.001  10.747   1.019 -1.3463 -0.2504  0.2216
  497MOL0     C67016   1.090  10.845   0.976 -0.9645 -0.4832  0.1290
  497MOL0     C67017   1.082  10.975   1.035  1.5688  0.2534  0.2159
  497MOL0     O67018   1.170  11.075   0.989  0.4206 -0.2215  0.8322
  497MOL0     C67019   1.171  11.204   1.051  0.2042  1.3539 -0.1713
  497MOL0     C67020   1.296  11.291   1.011 -0.3621 -0.8275  0.4265
  497MOL0     C67021   1.278  11.431   1.079 -0.4158  0.1237 -0.5565
  497MOL0     C67022   1.424  11.486   1.105  0.0844  0.2732 -0.2622
  497MOL0     C67023   1.405  11.613   1.177 -0.7969  0.8946 -1.2887
  497MOL0     C67024   1.397  11.715   1.246 -1.0726 -0.5625  0.6854
  497MOL0     C67025   0.974  11.004   1.127  0.6097 -0.0013  0.4073
  497MOL0     C67026   0.883  10.908   1.162  0.4183  0.8039  0.3224
  497MOL0     C67027   0.753  10.950   1.222  0.1740  0.9248  0.1534
  497MOL0     H67028   0.755  10.354   0.963 -1.3495  1.1461 -0.5380
  497MOL0     H67029   0.604  10.147   1.044 -1.2677  0.6295 -0.1199
  497MOL0     H67030   0.653  10.075   1.442 -0.1242 -4.6399 -0.8894
  497MOL0     H67031   0.507  10.161   1.480 -0.4143 -1.7660  0.7678
  497MOL0     H67032   0.536   9.868   1.388  2.0445  2.1689  0.6197
  497MOL0     H67033   0.379   9.932   1.391  0.9200 -3.5654  0.2997
  497MOL0     H67034   0.436  10.006   1.646 -1.5198 -1.4062  1.7664
  497MOL0     H67035   0.569   9.890   1.634  0.5358  0.2040  0.5966
  497MOL0     H67036   0.276   9.854   1.608  0.8377  1.5457  0.6141
  497MOL0     H67037   0.398   9.738   1.554 -0.8030  2.5744 -1.4918
  497MOL0     H67038   0.314   9.671   1.775 -0.1526  0.6512  3.2522
  497MOL0     H67039   0.484   9.681   1.775  0.8687  1.9101 -0.5396
  497MOL0     H67040   0.462   9.919   1.875  1.4115 -0.5796  1.8949
  497MOL0     H67041   0.289   9.887   1.894  0.7287  1.2944  3.2844
  497MOL0     H67042   0.527   9.743   2.020  0.8097  0.9199 -0.3344
  497MOL0     H67043   0.369   9.677   2.033  1.5317 -0.2452 -0.7406
  497MOL0     H67044   0.455   9.959   2.127  2.5582 -1.7796  0.2234
  497MOL0     H67045   0.289   9.867   2.139 -0.0702  2.4871  1.0161
  497MOL0     H67046   0.302   9.647   2.290  0.0609 -0.7294 -0.8231
  497MOL0     H67047   0.339   9.623   2.611 -1.2699  3.4827 -2.8010
  497MOL0     H67048   0.367   9.509   2.484 -2.4211  1.7635 -1.8141
  497MOL0     H67049   0.633   9.540   2.526 -1.2492  1.6319 -1.3325
  497MOL0     H67050   0.607   9.622   2.673  0.6909 -1.1789  0.3437
  497MOL0     H67051   0.684   9.414   2.700  0.1735 -2.4811  2.8259
  497MOL0     H67052   0.560   9.325   2.615  0.4393 -0.0921 -1.3026
  497MOL0     H67053   0.517   9.475   2.893 -5.3536 -0.3569  2.0680
  497MOL0     H67054   0.526   9.297   2.852 -0.0909  0.2236 -0.4627
  497MOL0     H67055   0.364   9.162   2.928 -1.0160  0.1432 -2.4295
  497MOL0     H67056   0.193   9.083   3.084  0.7816  0.2578  0.6562
  497MOL0     H67057  -0.014   8.928   3.356  1.4036  2.6606 -2.5121
  497MOL0     H67058  -0.204   8.821   3.493 -1.1876  1.8748  1.5714
  497MOL0     H67059  -0.610   8.892   3.353  1.6002  0.5083  1.0260
  497MOL0     H67060  -0.557   8.717   3.322  0.1702  2.2608 -2.6354
  497MOL0     H67061  -0.620   8.660   3.552  0.2794 -0.2083 -0.2348
  497MOL0     H67062  -0.677   8.825   3.596 -0.8740 -2.3921  2.5628
  497MOL0     H67063  -0.868   8.733   3.561  0.0646  2.4914 -1.0142
  497MOL0     H67064  -0.837   8.769   3.389 -1.0930 -1.8827 -0.2915
  497MOL0     H67065  -0.776   8.507   3.521  1.9275 -0.0956 -2.0008
  497MOL0     H67066  -0.744   8.555   3.358  0.5370  0.8244 -1.2096
  497MOL0     H67067  -1.004   8.585   3.326  2.6286 -1.5666 -2.5372
  497MOL0     H67068  -1.021   8.529   3.493 -4.1268 -2.1364 -2.3906
  497MOL0     H67069  -0.907   8.406   3.247  0.7911 -0.7013  0.5081
  497MOL0     H67070  -0.906   8.312   3.394  0.2920 -0.8285 -1.4464
  497MOL0     H67071  -1.091   8.264   3.216 -0.2975  2.0715 -1.6885
  497MOL0     H67072  -1.173   8.404   3.269  0.1574  1.5647  3.2247
  497MOL0     H67073  -1.143   8.143   3.416  0.6295  0.6838  1.5746
  497MOL0     H67074  -1.124   8.298   3.509  1.6914  0.3393 -0.7448
  497MOL0     H67075  -0.481   9.010   3.241 -0.7627 -2.5432 -2.0607
  497MOL0     H67076  -0.314   9.116   3.113 -2.3120  0.2432  0.6297
  497MOL0     H67077  -0.027   9.449   3.017  0.6271  1.1740 -1.5755
  497MOL0     H67078   0.142   9.521   2.861 -0.2609 -1.8093 -2.9049
  497MOL0     H67079   0.665  10.303   1.433 -1.0687 -1.4273 -0.1903
  497MOL0     H67080   0.795  10.485   1.356 -0.8000  0.3579  0.1686
  497MOL0     H67081   1.003  10.656   0.960 -2.4795  0.8551 -1.5966
  497MOL0     H67082   1.157  10.814   0.897 -1.8385 -1.1040 -0.3975
  497MOL0     H67083   1.168  11.190   1.159  0.1417 -1.9742 -0.5078
  497MOL0     H67084   1.072  11.245   1.027 -0.0164  0.4661 -0.8154
  497MOL0     H67085   1.307  11.304   0.903 -0.8356 -1.2392  0.3236
  497MOL0     H67086   1.390  11.238   1.029 -1.1998 -3.2382 -1.7965
  497MOL0     H67087   1.215  11.419   1.168  0.3229 -0.4437 -0.1013
  497MOL0     H67088   1.220  11.490   1.008 -1.6768 -0.1912  0.1804
  497MOL0     H67089   1.488  11.416   1.160  1.7476 -1.2832 -3.8967
  497MOL0     H67090   1.488  11.503   1.018 -0.9247  1.8034 -0.7608
  497MOL0     H67091   1.370  11.803   1.301  0.8285  1.9354 -2.0640
  497MOL0     H67092   0.981  11.102   1.172  0.7085  0.8457 -1.3846
  497MOL0     H67093   0.672  10.934   1.151  1.6789 -0.1711 -1.4038
  497MOL0     H67094   0.739  10.907   1.322  2.1672  0.7943  0.4218
  497MOL0     H67095   0.745  11.057   1.244 -2.2212  0.3480  2.5582
  498MOL0     O67096  10.480   5.259   7.166 -0.4200  0.2142  0.2995
  498MOL0     C67097  10.396   5.171   7.160 -0.4301 -0.5521  0.1081
  498MOL0     O67098  10.416   5.036   7.203 -0.0183 -0.5433 -0.3117
  498MOL0     C67099  10.530   5.002   7.276 -0.5207 -0.2801 -0.7639
  498MOL0     C67100  10.607   5.083   7.361 -0.2066 -0.2838  0.9078
  498MOL0     C67101  10.700   5.022   7.452  0.1345 -0.6440  0.4443
  498MOL0     C67102  10.718   4.880   7.446  0.3727 -0.8331 -0.8598
  498MOL0     O67103  10.826   4.837   7.520  0.6171 -0.5558  0.0436
  498MOL0     C67104  10.789   4.811   7.660 -0.1507  0.4475 -0.2450
  498MOL0     C67105  10.761   4.667   7.699  0.4707 -0.6178 -0.9814
  498MOL0     C67106  10.737   4.663   7.848  0.3406 -0.3074 -0.1127
  498MOL0     C67107  10.678   4.530   7.907  1.1262  0.2169 -0.0281
  498MOL0     C67108  10.654   4.536   8.057  0.1485  0.4228  0.0828
  498MOL0     C67109  10.626   4.392   8.123 -0.7529  0.5702  0.2311
  498MOL0     C67110  10.574   4.414   8.270  0.5415  0.9567  0.1517
  498MOL0     C67111  10.535   4.285   8.352 -1.1053  0.2973  0.2631
  498MOL0     N67112  10.490   4.329   8.479 -0.4854 -0.1048 -0.3366
  498MOL0     C67113  10.364   4.373   8.507  0.2402  0.3924 -0.0124
  498MOL0     C67114  10.368   4.435   8.633  0.0272 -0.7326  0.7844
  498MOL0     C67115  10.253   4.492   8.720 -0.2016 -0.7654 -1.0585
  498MOL0     C67116  10.139   4.562   8.645 -0.7828 -0.4329  0.5928
  498MOL0     C67117  10.158   4.717   8.625  0.3063 -0.1721  0.3062
  498MOL0     C67118  10.189   4.806   8.744  0.5587 -0.1953 -0.2082
  498MOL0     O67119  10.124   4.748   8.857 -0.1852 -0.0686 -0.5553
  498MOL0     C67120  10.005   4.797   8.902 -0.3087 -0.1349 -0.6411
  498MOL0     C67121   9.918   4.898   8.840 -0.8915  0.8221  0.7035
  498MOL0     C67122   9.804   4.941   8.897  0.7838 -0.5040  0.2415
  498MOL0     C67123   9.758   4.880   9.014 -0.1202 -0.0462  0.2819
  498MOL0     C67124   9.628   4.921   9.076  0.2257  0.5170 -0.5296
  498MOL0     O67125   9.558   5.011   9.007  1.0670  0.1768  0.3940
  498MOL0     C67126   9.433   5.056   9.043  0.0350 -0.5828  0.0597
  498MOL0     C67127   9.395   5.195   9.027 -0.0060 -0.4109  0.0965
  498MOL0     C67128   9.280   5.240   9.087  0.8018 -0.4220 -0.6868
  498MOL0     C67129   9.184   5.157   9.160 -0.8040 -0.4239  0.2295
  498MOL0     O67130   9.073   5.199   9.220  0.3120 -0.2660 -0.8032
  498MOL0     C67131   9.059   5.340   9.258  0.5216 -0.5413 -0.8048
  498MOL0     C67132   8.918   5.402   9.293 -0.4686 -0.1473 -0.2225
  498MOL0     C67133   8.842   5.316   9.396 -0.1996 -0.7372 -0.2444
  498MOL0     C67134   8.702   5.364   9.430  0.0444  0.2030  0.4676
  498MOL0     C67135   8.617   5.263   9.516  0.2476  0.2536 -0.0597
  498MOL0     C67136   8.647   5.274   9.665  0.6145  0.2913 -0.0250
  498MOL0     C67137   8.549   5.182   9.744  0.5974 -0.1947  0.0371
  498MOL0     C67138   8.551   5.235   9.885  0.0508  0.2521 -0.0147
  498MOL0    Cl67139   8.714   5.218   9.961  0.3361  0.0219 -0.0467
  498MOL0     C67140   9.219   5.026   9.172 -0.3942  0.3088  0.0587
  498MOL0     C67141   9.340   4.971   9.105 -0.0413 -0.5165  0.3503
  498MOL0     O67142   9.609   4.892   9.196  0.2219  0.5427  0.9201
  498MOL0     C67143   9.833   4.776   9.067  0.2275  0.4815  0.1287
  498MOL0     C67144   9.961   4.742   9.017  0.5603  0.6271 -0.3910
  498MOL0     N67145  10.498   4.408   8.688 -0.1172  0.9052 -0.0039
  498MOL0     N67146  10.565   4.354   8.587 -0.8124  0.2212 -0.8158
  498MOL0     C67147  10.650   4.802   7.351  0.2378 -0.2640 -0.2814
  498MOL0     C67148  10.558   4.864   7.263  0.0484  0.6650  0.3697
  498MOL0     C67149  10.258   5.206   7.121 -0.5443 -0.5028  1.0413
  498MOL0     C67150  10.201   5.326   7.159  0.5516 -0.1182 -0.1523
  498MOL0     C67151  10.075   5.363   7.113 -0.8925  0.4155 -0.2795
  498MOL0     C67152  10.003   5.285   7.033  0.7496 -0.2684  0.1413
  498MOL0     O67153   9.875   5.327   6.989  0.0214  0.6032 -0.7149
  498MOL0     C67154   9.827   5.451   7.035  0.6077  0.5045  1.2539
  498MOL0     C67155   9.876   5.574   6.940 -0.7658  0.9328 -0.0266
  498MOL0     C67156   9.814   5.564   6.803  0.7791 -1.1350  0.1441
  498MOL0     C67157   9.826   5.702   6.733 -0.0623  0.2311 -0.8349
  498MOL0     C67158   9.961   5.736   6.699  0.1763  0.1846 -1.4670
  498MOL0     C67159  10.074   5.770   6.689  0.0977  0.2371 -0.6465
  498MOL0     C67160  10.054   5.163   6.990 -0.3408  0.1095 -0.1564
  498MOL0     C67161  10.174   5.121   7.038 -0.7200 -0.4818  0.7426
  498MOL0     C67162  10.233   4.994   6.977 -0.6398 -0.5420  0.0859
  498MOL0     H67163  10.586   5.190   7.363  1.3779  0.1641 -1.6149
  498MOL0     H67164  10.755   5.085   7.521 -1.9821  2.9088 -0.7986
  498MOL0     H67165  10.870   4.844   7.725 -1.1850 -1.5255  2.2135
  498MOL0     H67166  10.699   4.865   7.690 -0.0632 -0.8384  2.5825
  498MOL0     H67167  10.851   4.608   7.682  0.0301 -2.0557  1.1821
  498MOL0     H67168  10.678   4.619   7.646 -1.1926  4.7409 -4.0278
  498MOL0     H67169  10.662   4.740   7.868 -0.6019 -1.4935  1.0588
  498MOL0     H67170  10.824   4.691   7.910  1.6435 -0.0369 -1.9806
  498MOL0     H67171  10.584   4.510   7.855  0.1011  2.8269  0.6514
  498MOL0     H67172  10.741   4.448   7.871 -0.3171 -0.1616 -1.8802
  498MOL0     H67173  10.747   4.566   8.106  1.0204 -1.8278 -0.1130
  498MOL0     H67174  10.568   4.600   8.079 -0.8850 -1.3847  1.5264
  498MOL0     H67175  10.543   4.356   8.061 -1.3654  0.8285  0.8924
  498MOL0     H67176  10.712   4.326   8.109 -1.3619  0.2108 -2.2962
  498MOL0     H67177  10.491   4.486   8.265 -1.8559 -1.7146 -0.9432
  498MOL0     H67178  10.666   4.451   8.316  1.0310 -0.2583  0.1775
  498MOL0     H67179  10.470   4.219   8.292  1.9381 -1.5119 -1.3042
  498MOL0     H67180  10.625   4.224   8.366 -0.9027 -0.6049 -3.7598
  498MOL0     H67181  10.274   4.372   8.447  0.1750 -1.1479  0.0661
  498MOL0     H67182  10.203   4.411   8.774 -1.0784  1.1474  1.1766
  498MOL0     H67183  10.296   4.553   8.800 -1.3713 -2.5404  1.0578
  498MOL0     H67184  10.123   4.503   8.554  1.5879  1.0548 -0.8635
  498MOL0     H67185  10.044   4.546   8.699 -1.9953  0.6159 -1.1525
  498MOL0     H67186  10.058   4.746   8.592 -0.0097 -1.2169  0.3274
  498MOL0     H67187  10.233   4.738   8.548 -2.0449 -0.8671 -2.3223
  498MOL0     H67188  10.157   4.909   8.724  0.0827 -0.3116 -0.0592
  498MOL0     H67189  10.297   4.809   8.763  0.4243 -0.2476  0.6056
  498MOL0     H67190   9.943   4.925   8.738  2.5846 -1.1989  0.8646
  498MOL0     H67191   9.766   5.028   8.845  2.4464  0.3944  0.4757
  498MOL0     H67192   9.465   5.259   8.975  1.0199 -1.6433 -0.1070
  498MOL0     H67193   9.251   5.345   9.079 -0.0152 -0.6017 -0.2519
  498MOL0     H67194   9.128   5.346   9.343  1.3792  0.2666 -1.5389
  498MOL0     H67195   9.095   5.407   9.179 -1.1699 -1.3371 -2.3258
  498MOL0     H67196   8.944   5.499   9.335  0.7395 -0.6633  0.2790
  498MOL0     H67197   8.860   5.404   9.200  0.8203  1.6915 -1.0466
  498MOL0     H67198   8.837   5.210   9.369  1.3715 -0.5039 -1.6557
  498MOL0     H67199   8.909   5.316   9.482  0.4150  0.8373 -0.6915
  498MOL0     H67200   8.649   5.373   9.335  2.6529 -3.7764 -1.6725
  498MOL0     H67201   8.702   5.468   9.463 -0.7366  0.2814  0.2363
  498MOL0     H67202   8.634   5.157   9.491 -0.6190 -0.3463  1.7030
  498MOL0     H67203   8.514   5.281   9.485  0.3970 -0.2441 -0.8859
  498MOL0     H67204   8.747   5.235   9.690  0.0361 -0.0224  2.0122
  498MOL0     H67205   8.636   5.380   9.690 -1.5628  0.0462  0.2640
  498MOL0     H67206   8.586   5.079   9.747  1.5361  0.1090 -0.7344
  498MOL0     H67207   8.447   5.189   9.705 -0.3509 -4.9504  1.0154
  498MOL0     H67208   8.528   5.342   9.881 -0.4883  0.1241 -0.2942
  498MOL0     H67209   8.489   5.180   9.956  0.1159 -0.3393 -0.4118
  498MOL0     H67210   9.163   4.966   9.243 -0.1831 -0.1666 -0.1738
  498MOL0     H67211   9.355   4.863   9.102 -2.1802 -0.8433 -0.2180
  498MOL0     H67212   9.803   4.729   9.160  0.2345  1.0712  0.4358
  498MOL0     H67213  10.022   4.669   9.068 -1.9017 -1.0766  0.3180
  498MOL0     H67214  10.667   4.695   7.360  0.8021 -0.3658 -2.2207
  498MOL0     H67215  10.494   4.810   7.195 -2.0614  0.9948  1.9914
  498MOL0     H67216  10.264   5.392   7.217  3.1939  0.1858 -3.1043
  498MOL0     H67217  10.042   5.458   7.153 -1.5838 -1.0682  2.9335
  498MOL0     H67218   9.845   5.477   7.140  1.9287  0.8800  0.9495
  498MOL0     H67219   9.718   5.449   7.040  0.4474  0.5173 -1.1145
  498MOL0     H67220   9.984   5.563   6.929 -1.0283 -0.4279 -1.7471
  498MOL0     H67221   9.840   5.666   6.986  0.3450  1.7906 -0.8277
  498MOL0     H67222   9.709   5.535   6.809 -0.0041 -0.3298 -4.9427
  498MOL0     H67223   9.864   5.485   6.746  0.5207 -0.5976 -0.8417
  498MOL0     H67224   9.770   5.683   6.642 -0.8411 -1.0218 -0.1223
  498MOL0     H67225   9.770   5.782   6.784 -0.3035 -0.0683 -0.6268
  498MOL0     H67226  10.180   5.783   6.681  0.1453 -0.7852 -1.9158
  498MOL0     H67227   9.991   5.101   6.928 -0.0882  0.1428 -0.4552
  498MOL0     H67228  10.341   5.007   6.965 -0.1609 -3.8500 -0.0798
  498MOL0     H67229  10.216   4.914   7.049 -1.7649  0.4109  0.8994
  498MOL0     H67230  10.188   4.973   6.880 -1.7717 -1.8086  0.8595
  499MOL0     O67231   2.389  10.177   9.043 -0.0630  0.8694 -0.5751
  499MOL0     C67232   2.387  10.263   8.952  0.4145  0.2836  0.0750
  499MOL0     O67233   2.477  10.358   8.943  0.2562  0.4251 -0.3527
  499MOL0     C67234   2.567  10.360   9.045  0.0961  0.2044 -0.1441
  499MOL0     C67235   2.693  10.300   9.018 -0.4584  0.3262  0.3147
  499MOL0     C67236   2.790  10.305   9.122  0.2799 -0.8997 -0.0800
  499MOL0     C67237   2.765  10.374   9.242  0.1744 -0.8583 -0.2353
  499MOL0     O67238   2.863  10.373   9.336 -0.4548  0.4392  0.0495
  499MOL0     C67239   2.840  10.422   9.467 -1.1244  0.2627 -0.5900
  499MOL0     C67240   2.976  10.439   9.538 -0.7372 -0.7255 -0.2003
  499MOL0     C67241   3.041  10.303   9.569 -0.4261  0.5509  0.0415
  499MOL0     C67242   2.987  10.256   9.706  0.8247  0.0857  0.4852
  499MOL0     C67243   3.097  10.164   9.769 -0.5150  0.1376 -0.3841
  499MOL0     C67244   3.052  10.109   9.896  0.6027 -0.2730 -0.3539
  499MOL0     C67245   3.142   9.998   9.962  1.0313 -0.2384 -1.0373
  499MOL0     C67246   3.094   9.961  10.102 -0.1642  0.4353  0.0671
  499MOL0     N67247   2.955   9.918  10.103  0.3389  0.8778 -0.1020
  499MOL0     C67248   2.896   9.815  10.030  1.0433 -1.1241 -0.1130
  499MOL0     C67249   2.765   9.823  10.060  0.6232 -0.6737  0.5807
  499MOL0     C67250   2.651   9.740  10.003  0.3627  0.1005  0.3786
  499MOL0     C67251   2.637   9.613  10.087 -0.3684 -0.9390 -0.1737
  499MOL0     C67252   2.761   9.520  10.087  0.4313  0.8755 -0.6521
  499MOL0     C67253   2.725   9.370  10.083  0.3634 -0.5367 -0.8756
  499MOL0     O67254   2.845   9.292  10.077 -0.4080 -0.3856  0.3968
  499MOL0     C67255   2.846   9.167  10.027 -0.1083  0.6659  0.7986
  499MOL0     C67256   2.970   9.105  10.024  0.7215 -1.1888 -1.4237
  499MOL0     C67257   2.991   8.985   9.970  0.3729 -0.0819 -0.0235
  499MOL0     C67258   2.880   8.907   9.930 -0.6683  0.4429 -0.3017
  499MOL0     C67259   2.902   8.776   9.866 -0.1857  0.9029  0.7089
  499MOL0     O67260   2.805   8.723   9.778 -0.4409  0.3632 -0.3505
  499MOL0     C67261   2.814   8.585   9.740  0.0667  0.4902 -0.0452
  499MOL0     C67262   2.815   8.480   9.839 -0.9253  0.1701  0.0159
  499MOL0     C67263   2.809   8.342   9.796 -0.4681  0.8241  1.0666
  499MOL0     C67264   2.814   8.307   9.655 -0.2211  0.1814 -0.4656
  499MOL0     O67265   2.826   8.184   9.594 -0.3802  0.4900 -0.3735
  499MOL0     C67266   2.791   8.056   9.663 -0.2150  0.0748 -0.0445
  499MOL0     C67267   2.854   7.934   9.602  0.4610 -0.1934  0.7967
  499MOL0     C67268   2.840   7.821   9.695  0.7831  0.7309 -0.2033
  499MOL0     C67269   2.753   7.707   9.632  0.6359  1.3095  0.4771
  499MOL0     C67270   2.664   7.644   9.744 -1.4373 -1.3657  0.3181
  499MOL0     C67271   2.622   7.504   9.718 -0.0848  0.3890 -0.5079
  499MOL0     C67272   2.512   7.507   9.618 -0.1485 -0.2097  0.0052
  499MOL0     C67273   2.441   7.379   9.601  0.0617  0.1613 -0.7280
  499MOL0    Cl67274   2.302   7.383   9.490 -0.0833 -0.2014 -0.4531
  499MOL0     C67275   2.798   8.419   9.567 -0.2077  0.3560  0.7720
  499MOL0     C67276   2.804   8.554   9.605  0.3347 -0.2744 -0.0227
  499MOL0     O67277   3.014   8.718   9.895 -0.1271  0.0291  0.6159
  499MOL0     C67278   2.748   8.962   9.945 -0.1182 -0.5086 -0.0226
  499MOL0     C67279   2.732   9.094   9.988  0.0609 -0.7354 -0.1381
  499MOL0     N67280   2.745   9.929  10.143  0.0672  0.3673 -0.5241
  499MOL0     N67281   2.856   9.985  10.164  0.0787  0.4816  0.4389
  499MOL0     C67282   2.642  10.440   9.255  0.4529  0.0774 -0.7137
  499MOL0     C67283   2.543  10.434   9.164  0.2664  0.1069  0.0937
  499MOL0     C67284   2.297  10.250   8.835  0.6519 -0.1498 -0.2453
  499MOL0     C67285   2.331  10.322   8.720 -0.9913  0.2969 -0.1615
  499MOL0     C67286   2.271  10.291   8.595  0.5118 -0.7351 -0.6625
  499MOL0     C67287   2.161  10.205   8.598 -0.2209  0.8956  0.3790
  499MOL0     O67288   2.094  10.165   8.485 -0.4111  0.4317 -0.2025
  499MOL0     C67289   2.085  10.267   8.381 -0.4333 -0.4223  0.2986
  499MOL0     C67290   1.975  10.222   8.283 -0.0604 -0.3359 -0.0804
  499MOL0     C67291   1.985  10.078   8.225 -0.7101 -0.0335  0.2304
  499MOL0     C67292   1.882  10.058   8.115  1.4573  0.2081 -0.9181
  499MOL0     C67293   1.922  10.109   7.987 -0.3013  0.5180  0.0493
  499MOL0     C67294   1.965  10.141   7.882  0.3493  0.1403 -0.5750
  499MOL0     C67295   2.127  10.138   8.709  0.8781  0.0108 -0.4412
  499MOL0     C67296   2.187  10.155   8.832 -0.7767 -0.2308  0.3421
  499MOL0     C67297   2.119  10.088   8.947  0.2692  0.4801  0.1747
  499MOL0     H67298   2.712  10.243   8.928 -0.7300  0.8454 -0.0779
  499MOL0     H67299   2.883  10.250   9.111  0.3912 -0.8377  0.4837
  499MOL0     H67300   2.786  10.517   9.471  0.4900  1.1852  0.7516
  499MOL0     H67301   2.778  10.345   9.515 -2.4714  1.9451  0.5099
  499MOL0     H67302   2.963  10.487   9.635 -0.8768 -3.5139  1.2296
  499MOL0     H67303   3.048  10.505   9.486 -1.8517 -0.5242 -1.5581
  499MOL0     H67304   3.150  10.312   9.565 -0.2182 -1.7828 -0.7922
  499MOL0     H67305   3.027  10.222   9.498  2.2917 -0.0181  0.0346
  499MOL0     H67306   2.959  10.336   9.775  0.7457 -0.3351  0.9477
  499MOL0     H67307   2.896  10.198   9.690  1.8696 -1.1964 -1.0932
  499MOL0     H67308   3.126  10.087   9.697 -0.3311 -1.6994  1.5549
  499MOL0     H67309   3.179  10.234   9.787 -0.6697  0.3565 -0.5130
  499MOL0     H67310   3.033  10.187   9.970  2.8813 -1.5074  1.6673
  499MOL0     H67311   2.956  10.065   9.864  1.2696 -0.1524 -2.7201
  499MOL0     H67312   3.240  10.036   9.993  0.8819 -0.6256 -0.0494
  499MOL0     H67313   3.159   9.909   9.900 -1.6058 -0.0671 -2.1222
  499MOL0     H67314   3.157   9.879  10.137  1.2769  1.3548 -0.3289
  499MOL0     H67315   3.104  10.049  10.166  1.1580 -0.0038  0.4803
  499MOL0     H67316   2.951   9.740   9.974  0.5993 -0.1591 -1.9357
  499MOL0     H67317   2.558   9.798  10.000 -1.0925 -2.1466 -0.7190
  499MOL0     H67318   2.666   9.702   9.901 -3.1096  1.1639 -0.6723
  499MOL0     H67319   2.610   9.639  10.189  0.0417 -4.5651  1.0093
  499MOL0     H67320   2.552   9.549  10.059  1.3758 -3.0504 -0.9301
  499MOL0     H67321   2.806   9.536  10.185 -1.7577  1.0477  0.3773
  499MOL0     H67322   2.837   9.543  10.012  1.6292  0.4324  0.4041
  499MOL0     H67323   2.677   9.351   9.987  0.8267  0.1270 -1.2414
  499MOL0     H67324   2.651   9.349  10.161  1.6456 -2.8059 -0.1880
  499MOL0     H67325   3.045   9.175  10.058 -2.2803  1.1684  0.8437
  499MOL0     H67326   3.096   8.957   9.957  0.6902  0.9230  0.3190
  499MOL0     H67327   2.832   8.500   9.944  0.1185 -0.0497 -0.0973
  499MOL0     H67328   2.815   8.260   9.867  2.7242 -0.9888 -1.0630
  499MOL0     H67329   2.821   8.072   9.768 -0.5179  1.7204 -0.1868
  499MOL0     H67330   2.682   8.054   9.667 -0.1830 -0.3647  1.0019
  499MOL0     H67331   2.801   7.916   9.507  1.3111 -0.0849  0.2960
  499MOL0     H67332   2.961   7.944   9.583  0.2431 -1.3829 -1.4655
  499MOL0     H67333   2.944   7.789   9.706 -0.0252 -1.5449  1.6016
  499MOL0     H67334   2.804   7.840   9.797 -0.4672 -3.7670  0.4035
  499MOL0     H67335   2.826   7.632   9.598 -1.7798  0.4863 -3.6377
  499MOL0     H67336   2.705   7.731   9.537 -1.7485  0.1447  1.3183
  499MOL0     H67337   2.579   7.709   9.768 -0.4297 -0.1709  0.7961
  499MOL0     H67338   2.728   7.647   9.833  1.1484  0.5147 -1.4530
  499MOL0     H67339   2.696   7.440   9.670 -0.3827 -0.4703  0.1589
  499MOL0     H67340   2.591   7.454   9.810  1.7341  2.3478  1.2724
  499MOL0     H67341   2.562   7.529   9.523 -2.4140 -0.5807 -1.3496
  499MOL0     H67342   2.444   7.587   9.649 -1.5082 -0.8211 -1.2783
  499MOL0     H67343   2.505   7.292   9.580  1.4571  1.0699 -0.3870
  499MOL0     H67344   2.403   7.353   9.701  0.5513 -3.0410 -1.2486
  499MOL0     H67345   2.792   8.396   9.462  2.7110 -0.1594  0.6286
  499MOL0     H67346   2.799   8.628   9.525  0.4740 -1.2312 -0.9300
  499MOL0     H67347   2.650   8.920   9.926 -0.0579 -2.0148  2.5614
  499MOL0     H67348   2.628   9.124  10.000  0.6969  1.9456 -0.7681
  499MOL0     H67349   2.618  10.482   9.352  0.9947 -2.5056  0.6346
  499MOL0     H67350   2.450  10.488   9.183 -0.2931 -0.6624 -0.4049
  499MOL0     H67351   2.412  10.394   8.717 -0.1876 -0.5326  0.9101
  499MOL0     H67352   2.300  10.344   8.505  2.1362  0.1705  0.3649
  499MOL0     H67353   2.179  10.277   8.326 -0.8530 -5.6867 -2.0502
  499MOL0     H67354   2.052  10.363   8.419 -1.2667 -0.3549 -0.5370
  499MOL0     H67355   1.957  10.303   8.211  0.7055  1.1546  1.3391
  499MOL0     H67356   1.888  10.225   8.350 -0.4024  1.9996 -0.5115
  499MOL0     H67357   1.976  10.003   8.304 -0.2610 -0.5128 -0.1685
  499MOL0     H67358   2.090  10.073   8.194  0.5248  2.9033  3.2274
  499MOL0     H67359   1.874   9.951   8.098  0.2051  0.2400 -0.6152
  499MOL0     H67360   1.786  10.106   8.138  2.0590  1.6777 -1.3233
  499MOL0     H67361   2.025  10.141   7.793  0.6964 -0.7042 -0.3468
  499MOL0     H67362   2.053  10.060   8.695  1.7811 -0.8956 -0.2339
  499MOL0     H67363   2.138  10.141   9.041  1.8398  1.0962 -0.4582
  499MOL0     H67364   2.010  10.086   8.942  0.2901  1.0724 -0.7169
  499MOL0     H67365   2.152   9.984   8.952 -1.5641 -0.1489 -0.0302
  500MOL0     O67366   4.307   2.727   5.504  0.1854 -0.7112  0.3472
  500MOL0     C67367   4.258   2.626   5.454 -0.6165 -0.5059 -0.7157
  500MOL0     O67368   4.326   2.509   5.447 -0.5559  0.1783  0.0097
  500MOL0     C67369   4.466   2.503   5.460 -0.4755  0.0648 -0.3614
  500MOL0     C67370   4.546   2.561   5.359 -0.2130  0.4791  0.6674
  500MOL0     C67371   4.683   2.538   5.373 -0.8427  0.3080 -0.4861
  500MOL0     C67372   4.738   2.455   5.470  0.1656 -0.4697  0.5840
  500MOL0     O67373   4.873   2.432   5.489 -0.4633  0.2338  0.3724
  500MOL0     C67374   4.936   2.501   5.599  0.4382  0.4413  0.1965
  500MOL0     C67375   5.088   2.536   5.586  0.6069 -0.1917 -0.0790
  500MOL0     C67376   5.113   2.684   5.551 -0.6752  0.2959  0.2194
  500MOL0     C67377   5.254   2.720   5.555  0.3900 -0.2308 -0.4011
  500MOL0     C67378   5.276   2.865   5.510  1.1015 -0.2968  0.5440
  500MOL0     C67379   5.413   2.910   5.506 -0.3467  1.0427 -0.5395
  500MOL0     C67380   5.473   2.935   5.646 -0.1910 -0.3228  0.1489
  500MOL0     C67381   5.624   2.954   5.645 -1.0524 -0.3148  0.0091
  500MOL0     N67382   5.671   3.089   5.609 -0.7170 -0.0908  0.9662
  500MOL0     C67383   5.660   3.149   5.486  0.4478 -0.1249  0.3138
  500MOL0     C67384   5.751   3.254   5.498  0.3885 -0.9947 -0.6395
  500MOL0     C67385   5.791   3.359   5.388  0.1940 -0.3087  0.1642
  500MOL0     C67386   5.922   3.314   5.316 -0.4175 -0.1106  1.1486
  500MOL0     C67387   5.915   3.186   5.229 -0.2533  0.1529  0.1604
  500MOL0     C67388   6.056   3.136   5.199 -0.4756  1.1029  0.0179
  500MOL0     O67389   6.036   3.008   5.127  0.3557 -0.0819 -0.0028
  500MOL0     C67390   6.150   2.952   5.068 -0.5206  0.3390  0.0442
  500MOL0     C67391   6.268   2.941   5.144 -0.3984 -0.4591  0.0950
  500MOL0     C67392   6.369   2.875   5.078  0.1522  0.4735 -0.2363
  500MOL0     C67393   6.362   2.807   4.952 -0.0217 -0.6165 -0.5146
  500MOL0     C67394   6.475   2.732   4.897  0.7253 -0.3313 -0.3301
  500MOL0     O67395   6.590   2.756   4.954 -0.3438 -0.2499  0.6885
  500MOL0     C67396   6.700   2.702   4.888 -0.4650 -0.9358  0.0908
  500MOL0     C67397   6.754   2.574   4.919  0.1732  0.9172 -0.4288
  500MOL0     C67398   6.878   2.537   4.868  0.6610 -0.2740 -0.0880
  500MOL0     C67399   6.957   2.609   4.781  0.7848 -0.0261  0.9905
  500MOL0     O67400   7.079   2.555   4.739 -0.1432  0.0612  0.9680
  500MOL0     C67401   7.142   2.632   4.638 -0.2154  0.3651 -0.3769
  500MOL0     C67402   7.237   2.738   4.697  0.0513 -1.3234  0.3989
  500MOL0     C67403   7.284   2.831   4.591 -0.6853  0.3402 -0.1830
  500MOL0     C67404   7.389   2.923   4.657 -0.5022 -0.1419 -0.1887
  500MOL0     C67405   7.451   3.037   4.571  0.6111  0.0489  0.2929
  500MOL0     C67406   7.554   2.982   4.472  0.8654 -0.4661 -0.2710
  500MOL0     C67407   7.553   3.050   4.340 -0.4771  0.2869 -0.3515
  500MOL0     C67408   7.665   3.004   4.241 -0.5220 -0.0437 -0.7163
  500MOL0    Cl67409   7.635   3.081   4.079 -0.2600 -0.0685 -0.6931
  500MOL0     C67410   6.903   2.743   4.747  0.3683  0.9201  0.5549
  500MOL0     C67411   6.770   2.775   4.790 -0.0900  0.3328  0.0285
  500MOL0     O67412   6.455   2.669   4.795  0.0383 -0.4998  0.2681
  500MOL0     C67413   6.243   2.824   4.883 -0.3522 -0.6287 -0.0859
  500MOL0     C67414   6.131   2.892   4.940  0.5225 -0.2757 -0.4872
  500MOL0     N67415   5.816   3.252   5.620  0.7480  0.3653  0.1702
  500MOL0     N67416   5.764   3.152   5.685  0.3137 -0.2396 -0.4604
  500MOL0     C67417   4.652   2.392   5.558 -0.6358 -0.1939  0.0123
  500MOL0     C67418   4.516   2.415   5.553  0.1825 -0.0474  0.2551
  500MOL0     C67419   4.113   2.618   5.419 -0.2883 -0.6296 -0.3760
  500MOL0     C67420   4.057   2.496   5.360  0.3249  0.4563 -0.5075
  500MOL0     C67421   3.916   2.478   5.332 -0.3313 -0.1026  0.0117
  500MOL0     C67422   3.828   2.584   5.356  0.2054  0.4775  0.1820
  500MOL0     O67423   3.695   2.562   5.307  0.1876  0.3285 -0.7183
  500MOL0     C67424   3.628   2.672   5.240 -0.1208 -0.5357  0.2482
  500MOL0     C67425   3.517   2.730   5.322 -0.0906 -0.9065 -0.3919
  500MOL0     C67426   3.444   2.846   5.252  0.6375  0.3407 -0.2517
  500MOL0     C67427   3.355   2.786   5.132  0.4416 -0.5638  0.3233
  500MOL0     C67428   3.316   2.900   5.055  0.3418 -0.0605 -0.4564
  500MOL0     C67429   3.258   3.008   5.018 -0.1557 -0.8738 -0.1678
  500MOL0     C67430   3.875   2.706   5.410  0.1997  0.8404 -0.8513
  500MOL0     C67431   4.003   2.723   5.446  0.9448 -0.4784  0.1188
  500MOL0     C67432   4.019   2.858   5.512  0.5830  0.0130  0.9894
  500MOL0     H67433   4.506   2.600   5.265 -3.3044 -2.4375  0.5963
  500MOL0     H67434   4.753   2.580   5.301  0.7097 -3.4676 -1.4177
  500MOL0     H67435   4.875   2.590   5.610  1.9137  1.1886  3.4446
  500MOL0     H67436   4.920   2.434   5.684  0.0435 -1.6201 -1.4244
  500MOL0     H67437   5.136   2.471   5.512 -0.1831 -1.3539  0.4096
  500MOL0     H67438   5.148   2.512   5.674  0.9759 -3.8701 -1.1766
  500MOL0     H67439   5.058   2.752   5.617  1.0568  3.1759 -1.0675
  500MOL0     H67440   5.068   2.689   5.451 -2.1670 -0.6359  0.8231
  500MOL0     H67441   5.288   2.700   5.657  0.9168 -0.2658 -0.5795
  500MOL0     H67442   5.304   2.661   5.478  0.4197  1.2033 -1.5312
  500MOL0     H67443   5.237   2.889   5.410  1.5008  0.5463  0.5845
  500MOL0     H67444   5.219   2.931   5.577  0.9781 -0.4527  0.5921
  500MOL0     H67445   5.468   2.827   5.460  0.5863  0.4812  1.4298
  500MOL0     H67446   5.416   3.009   5.460 -0.9908 -0.5002 -4.2172
  500MOL0     H67447   5.456   2.842   5.701  0.0738 -0.6802 -0.3761
  500MOL0     H67448   5.415   3.013   5.698 -1.0058 -2.6425  3.0202
  500MOL0     H67449   5.659   2.942   5.748  1.3992  2.8289 -0.3151
  500MOL0     H67450   5.671   2.879   5.580 -1.6275 -0.0689 -0.7027
  500MOL0     H67451   5.589   3.121   5.409  0.3982  1.0007 -0.0766
  500MOL0     H67452   5.707   3.358   5.317  0.0855 -2.1615  0.2606
  500MOL0     H67453   5.822   3.459   5.418  1.6887 -0.7418  0.1558
  500MOL0     H67454   5.968   3.387   5.248 -0.8168  0.2846  1.2989
  500MOL0     H67455   6.002   3.299   5.389  1.8295  0.6935 -1.0144
  500MOL0     H67456   5.866   3.208   5.133  0.4667 -0.4940 -0.3663
  500MOL0     H67457   5.859   3.114   5.289  1.6133  0.3265  2.2128
  500MOL0     H67458   6.115   3.116   5.289 -1.9786 -3.2817  0.2598
  500MOL0     H67459   6.108   3.208   5.135  1.6512 -1.4563 -1.2879
  500MOL0     H67460   6.287   2.978   5.244 -0.8585  0.0168  0.0146
  500MOL0     H67461   6.464   2.872   5.131 -0.2270  1.0140  0.4958
  500MOL0     H67462   6.699   2.509   4.987 -0.0078 -0.3054 -1.7129
  500MOL0     H67463   6.929   2.447   4.900 -2.5271 -1.9386  0.6615
  500MOL0     H67464   7.194   2.557   4.578 -0.4081  0.2124 -0.3503
  500MOL0     H67465   7.072   2.671   4.564  0.8788  0.2239 -1.5267
  500MOL0     H67466   7.187   2.795   4.776  2.0934  0.2214  0.6848
  500MOL0     H67467   7.329   2.689   4.728  0.8734 -1.1615 -1.6130
  500MOL0     H67468   7.330   2.771   4.511 -2.4658  1.1886 -1.9358
  500MOL0     H67469   7.214   2.899   4.542  1.3675  3.9048  1.4926
  500MOL0     H67470   7.476   2.868   4.694 -1.1536 -0.4701  0.9134
  500MOL0     H67471   7.331   2.969   4.738  2.5849  1.8053  1.1247
  500MOL0     H67472   7.506   3.103   4.639  0.1657 -0.2520  0.9626
  500MOL0     H67473   7.368   3.087   4.521  0.8215 -0.9457 -1.0927
  500MOL0     H67474   7.643   2.974   4.535 -0.7051 -0.2685  2.1323
  500MOL0     H67475   7.530   2.880   4.441 -1.3726 -0.2848  0.6262
  500MOL0     H67476   7.566   3.158   4.350  2.6192  0.0386 -0.5814
  500MOL0     H67477   7.454   3.027   4.300 -0.9296  1.3329  0.1364
  500MOL0     H67478   7.760   3.035   4.285 -0.6920 -2.6935  1.7703
  500MOL0     H67479   7.665   2.897   4.221 -1.1710  0.0362 -1.1701
  500MOL0     H67480   6.954   2.812   4.681 -0.0295  1.8587  1.2081
  500MOL0     H67481   6.721   2.872   4.786 -0.1586  0.3816  1.5584
  500MOL0     H67482   6.252   2.788   4.781  2.2832  1.3209 -0.6575
  500MOL0     H67483   6.039   2.902   4.884  0.7278 -0.3460 -0.8355
  500MOL0     H67484   4.691   2.325   5.634 -3.1756 -0.0424  1.5506
  500MOL0     H67485   4.462   2.352   5.624  0.7232 -0.0555  0.6638
  500MOL0     H67486   4.115   2.405   5.347 -1.5134 -1.0760  1.1042
  500MOL0     H67487   3.883   2.392   5.276  2.5427 -0.6020 -1.0809
  500MOL0     H67488   3.599   2.642   5.139 -0.3281 -1.2910  0.5244
  500MOL0     H67489   3.700   2.754   5.226 -1.0950  0.4433  0.8379
  500MOL0     H67490   3.555   2.763   5.419 -0.9587  0.3875 -0.4579
  500MOL0     H67491   3.443   2.653   5.345 -1.5041  0.6650  0.5617
  500MOL0     H67492   3.530   2.905   5.219  0.0795  1.2210 -0.1770
  500MOL0     H67493   3.384   2.919   5.307  0.3453 -0.0921  0.0150
  500MOL0     H67494   3.406   2.716   5.066 -2.5960 -1.0005 -1.7850
  500MOL0     H67495   3.272   2.730   5.174 -0.2495 -0.0894 -0.3652
  500MOL0     H67496   3.205   3.097   4.990  0.7993  0.2636  1.4402
  500MOL0     H67497   3.801   2.785   5.418 -1.4178 -0.8340  2.0713
  500MOL0     H67498   4.025   2.938   5.437 -1.4007  1.1567  1.9755
  500MOL0     H67499   3.937   2.891   5.575  1.5891  2.1344  1.2706
  500MOL0     H67500   4.105   2.867   5.578  0.1644 -2.0673  1.8958
  501MOL0     O67501   2.434   9.071   7.819 -0.3645  0.0650  0.0571
  501MOL0     C67502   2.510   9.076   7.721 -0.2950  0.1271  0.4541
  501MOL0     O67503   2.545   8.969   7.652 -0.1529  0.8595 -0.4400
  501MOL0     C67504   2.500   8.842   7.693 -0.8690  0.4137 -0.3797
  501MOL0     C67505   2.599   8.764   7.746 -0.9518 -0.0443 -0.4853
  501MOL0     C67506   2.577   8.639   7.789  0.3688 -0.4094 -0.6254
  501MOL0     C67507   2.449   8.571   7.786 -0.0093 -0.8927 -0.5460
  501MOL0     O67508   2.419   8.438   7.809 -0.4397 -0.3968 -0.4645
  501MOL0     C67509   2.534   8.358   7.829  0.1338 -0.3376 -0.4113
  501MOL0     C67510   2.496   8.216   7.873  0.8026  0.5308 -0.1180
  501MOL0     C67511   2.441   8.134   7.760 -0.2569 -0.1482 -0.2791
  501MOL0     C67512   2.315   8.064   7.802  0.2310  0.0385  0.2964
  501MOL0     C67513   2.254   7.947   7.718  0.8852 -0.0262  0.5700
  501MOL0     C67514   2.222   7.990   7.576  0.1180  1.1064  0.0221
  501MOL0     C67515   2.193   7.864   7.496  0.0672 -1.0705  1.0121
  501MOL0     C67516   2.180   7.913   7.345  0.2842  0.6827  0.0529
  501MOL0     N67517   2.089   7.837   7.253 -0.1139 -0.4123  0.3073
  501MOL0     C67518   2.128   7.797   7.125 -0.3187 -0.9153  0.0358
  501MOL0     C67519   2.040   7.709   7.083  0.4355 -1.0363 -0.1102
  501MOL0     C67520   2.034   7.630   6.967  0.3011 -0.7056  0.6061
  501MOL0     C67521   1.991   7.722   6.852  0.5256 -0.1804 -0.4526
  501MOL0     C67522   1.937   7.661   6.724 -0.7455  0.4009 -0.1198
  501MOL0     C67523   2.018   7.534   6.685  0.0609  0.0121 -0.2631
  501MOL0     O67524   1.972   7.490   6.555 -0.2427  0.5639 -0.1280
  501MOL0     C67525   1.907   7.364   6.529  0.0525 -0.1269 -1.1456
  501MOL0     C67526   1.963   7.287   6.427 -0.1325  0.8660  0.0991
  501MOL0     C67527   1.912   7.157   6.405  0.3789  0.2153  0.9202
  501MOL0     C67528   1.807   7.105   6.483  0.1718 -0.6905  0.0163
  501MOL0     C67529   1.740   6.974   6.460 -0.2786  0.0260 -0.1730
  501MOL0     O67530   1.661   6.928   6.560 -0.3557 -0.3822  0.0168
  501MOL0     C67531   1.631   6.797   6.547  0.6679  0.0490 -0.1130
  501MOL0     C67532   1.554   6.732   6.451 -0.2635 -0.4508  0.3588
  501MOL0     C67533   1.507   6.603   6.473  0.3985 -0.7236  0.3942
  501MOL0     C67534   1.541   6.536   6.588  0.2939 -0.6820 -0.7842
  501MOL0     O67535   1.507   6.407   6.602  0.2103 -0.4491 -0.0023
  501MOL0     C67536   1.488   6.360   6.738  0.1005  0.6270 -0.5680
  501MOL0     C67537   1.433   6.218   6.725 -0.1511 -0.4494  0.1406
  501MOL0     C67538   1.429   6.150   6.865  0.3840 -0.2719  0.4378
  501MOL0     C67539   1.383   6.000   6.864 -0.5621 -0.0229 -0.3527
  501MOL0     C67540   1.481   5.905   6.782  0.2754 -1.0223 -0.0957
  501MOL0     C67541   1.409   5.769   6.785  0.8814 -0.1323 -0.4051
  501MOL0     C67542   1.466   5.693   6.903 -0.2587  0.2589 -1.2449
  501MOL0     C67543   1.360   5.634   6.994 -0.2939 -0.5162  0.4570
  501MOL0    Cl67544   1.272   5.770   7.073 -0.1582  0.2912 -0.1185
  501MOL0     C67545   1.616   6.599   6.690  0.4444 -0.4476 -0.7336
  501MOL0     C67546   1.664   6.731   6.663  0.8209  0.3164  0.0722
  501MOL0     O67547   1.763   6.924   6.352  0.3046  0.7821  0.5366
  501MOL0     C67548   1.770   7.185   6.593  0.2316  0.5304  0.1559
  501MOL0     C67549   1.823   7.312   6.625  0.3690  0.5010  0.3068
  501MOL0     N67550   1.934   7.697   7.175 -0.1159 -0.3351  0.1657
  501MOL0     N67551   1.975   7.763   7.282  0.8783 -0.2393  0.2769
  501MOL0     C67552   2.346   8.655   7.753  0.3359 -0.5956  0.5004
  501MOL0     C67553   2.368   8.792   7.717 -0.5960  0.6130  0.0286
  501MOL0     C67554   2.538   9.212   7.664 -0.6619  0.1558 -0.0563
  501MOL0     C67555   2.550   9.312   7.758  0.3491 -0.6663  0.5478
  501MOL0     C67556   2.563   9.449   7.719 -0.5860 -0.1064 -0.8330
  501MOL0     C67557   2.551   9.487   7.583  0.0345 -0.4400 -0.0731
  501MOL0     O67558   2.575   9.611   7.530  0.2679  0.3386 -0.1552
  501MOL0     C67559   2.478   9.716   7.567 -0.5025  0.5930 -0.1087
  501MOL0     C67560   2.509   9.780   7.695 -1.0588  0.6638 -0.1754
  501MOL0     C67561   2.407   9.883   7.727 -0.4516  0.2543  0.1095
  501MOL0     C67562   2.437   9.956   7.859 -1.2104 -0.6173 -1.5401
  501MOL0     C67563   2.347   9.932   7.971 -1.1215  0.2531 -1.5402
  501MOL0     C67564   2.264   9.902   8.060 -0.3885 -0.5398  0.4016
  501MOL0     C67565   2.524   9.385   7.492 -1.0985  0.9604  0.2438
  501MOL0     C67566   2.527   9.248   7.526  0.0766 -0.5156 -0.1035
  501MOL0     C67567   2.502   9.148   7.423  0.7855 -0.7179 -0.3484
  501MOL0     H67568   2.695   8.814   7.741 -1.4066  0.7767 -1.4990
  501MOL0     H67569   2.663   8.589   7.833  0.0583  0.7931  1.4359
  501MOL0     H67570   2.611   8.364   7.752 -0.3056 -1.9882 -1.0240
  501MOL0     H67571   2.585   8.394   7.919  2.0406  0.3328 -1.7051
  501MOL0     H67572   2.424   8.221   7.956  2.1890  0.8070  1.1225
  501MOL0     H67573   2.594   8.174   7.898 -0.4249 -1.7122  1.2604
  501MOL0     H67574   2.522   8.069   7.729  0.6818  0.4367  0.8309
  501MOL0     H67575   2.418   8.205   7.680  3.3836  0.9719 -0.5285
  501MOL0     H67576   2.338   8.021   7.900  0.2255 -0.4345  0.0960
  501MOL0     H67577   2.235   8.138   7.803 -0.3543 -0.4932 -1.7448
  501MOL0     H67578   2.323   7.862   7.721  1.1210  0.1336 -0.0583
  501MOL0     H67579   2.160   7.936   7.772  0.3868  0.6245 -0.1427
  501MOL0     H67580   2.144   8.066   7.570 -0.9620 -0.0108 -0.3906
  501MOL0     H67581   2.309   8.027   7.521 -0.2174  0.4078 -1.0062
  501MOL0     H67582   2.098   7.825   7.533 -0.7793  0.9890  1.1751
  501MOL0     H67583   2.267   7.787   7.516  0.6239 -0.7497  0.2512
  501MOL0     H67584   2.144   8.016   7.352  2.1326  1.3036  1.2462
  501MOL0     H67585   2.277   7.917   7.294  0.2127  0.6860 -0.0808
  501MOL0     H67586   2.213   7.828   7.065 -1.2613 -0.1990 -0.9421
  501MOL0     H67587   2.135   7.591   6.951  0.6805  0.4091  0.1731
  501MOL0     H67588   1.964   7.547   6.979 -1.5602  0.8958  1.3561
  501MOL0     H67589   1.907   7.786   6.883  1.2006 -0.2831  1.7833
  501MOL0     H67590   2.074   7.792   6.840 -2.5677  3.6270 -1.6310
  501MOL0     H67591   1.955   7.732   6.644  2.9668  1.0226  1.1034
  501MOL0     H67592   1.831   7.637   6.735 -0.7540 -0.1321 -1.1827
  501MOL0     H67593   2.013   7.459   6.765  2.7521  1.4520  1.4003
  501MOL0     H67594   2.123   7.562   6.675  0.6223 -1.1243  1.8734
  501MOL0     H67595   2.042   7.331   6.367  1.7482  0.9110  2.4829
  501MOL0     H67596   1.955   7.098   6.324  0.8625  0.7507  0.7808
  501MOL0     H67597   1.529   6.781   6.358 -2.7120 -1.4615  0.4164
  501MOL0     H67598   1.449   6.548   6.400 -0.9534  0.5618  0.4588
  501MOL0     H67599   1.585   6.371   6.789  0.1545  4.9631 -1.1656
  501MOL0     H67600   1.417   6.425   6.789 -0.1361 -0.6658  0.8006
  501MOL0     H67601   1.333   6.225   6.682  0.3566 -0.1270 -1.0304
  501MOL0     H67602   1.493   6.162   6.654  0.5100  0.7349 -0.2678
  501MOL0     H67603   1.521   6.167   6.923 -0.0715  0.9264  0.8348
  501MOL0     H67604   1.351   6.203   6.921  1.7605 -0.1193  2.3337
  501MOL0     H67605   1.280   5.983   6.832 -0.1238  0.2207 -1.9394
  501MOL0     H67606   1.392   5.966   6.968 -1.2042 -1.0682 -0.6275
  501MOL0     H67607   1.585   5.903   6.814  0.2191 -0.2690  0.1302
  501MOL0     H67608   1.480   5.937   6.677  0.6770 -1.1894 -0.1500
  501MOL0     H67609   1.301   5.788   6.788  1.3121  4.1137 -3.2253
  501MOL0     H67610   1.430   5.712   6.695 -0.6395  1.9318 -2.1642
  501MOL0     H67611   1.524   5.763   6.964 -2.4414  0.1139  1.1653
  501MOL0     H67612   1.538   5.619   6.867  1.7822  0.9011  1.2003
  501MOL0     H67613   1.281   5.577   6.944 -0.8451 -0.5237  1.3060
  501MOL0     H67614   1.394   5.557   7.064  1.0096 -0.8831 -0.5543
  501MOL0     H67615   1.643   6.569   6.790 -2.2855  4.2665  1.8183
  501MOL0     H67616   1.712   6.779   6.747  1.6338  0.2311 -0.3301
  501MOL0     H67617   1.705   7.153   6.675 -1.3312  0.2110 -1.1461
  501MOL0     H67618   1.783   7.349   6.719 -1.2698 -1.5811  0.5270
  501MOL0     H67619   2.242   8.626   7.761 -0.7609  2.0039 -2.4570
  501MOL0     H67620   2.292   8.867   7.696  0.9413  1.8178 -1.6653
  501MOL0     H67621   2.566   9.301   7.865 -0.6530 -4.9878  0.4141
  501MOL0     H67622   2.573   9.524   7.797  0.8415 -0.4556 -0.6508
  501MOL0     H67623   2.374   9.682   7.568 -1.1988  2.1723 -3.6934
  501MOL0     H67624   2.479   9.796   7.492  1.6692 -0.2091 -1.0217
  501MOL0     H67625   2.612   9.815   7.694 -0.1622 -1.5050  2.5437
  501MOL0     H67626   2.496   9.713   7.782 -0.9553 -0.2972 -0.8803
  501MOL0     H67627   2.309   9.835   7.727  0.6610 -2.1801  0.0439
  501MOL0     H67628   2.401   9.953   7.644  1.4512 -0.3029 -0.5618
  501MOL0     H67629   2.535   9.929   7.900 -0.1654  0.4482 -3.2193
  501MOL0     H67630   2.438  10.064   7.845  0.2769 -0.4677 -0.5072
  501MOL0     H67631   2.205   9.886   8.148  0.2350  2.8490  1.5683
  501MOL0     H67632   2.514   9.410   7.387 -0.4674 -0.6484 -0.2377
  501MOL0     H67633   2.588   9.084   7.402  1.7402  0.8282 -1.4498
  501MOL0     H67634   2.409   9.100   7.455  0.5617  0.7389  1.3200
  501MOL0     H67635   2.470   9.199   7.331  0.0507  1.9389  1.2652
  502MOL0     O67636   8.425   4.480   7.177 -0.6231 -0.5200  0.0444
  502MOL0     C67637   8.382   4.362   7.172  0.2655 -0.5352  0.7080
  502MOL0     O67638   8.368   4.282   7.274  0.3739 -0.4791 -0.1921
  502MOL0     C67639   8.405   4.325   7.403 -0.4639 -0.8197  0.6939
  502MOL0     C67640   8.475   4.230   7.484 -0.3301 -1.1496 -0.5488
  502MOL0     C67641   8.500   4.256   7.619 -0.0498 -0.6231 -0.7801
  502MOL0     C67642   8.443   4.361   7.680 -0.2543 -0.3666  0.1695
  502MOL0     O67643   8.456   4.379   7.819 -0.4393  0.5783 -0.0336
  502MOL0     C67644   8.388   4.489   7.884  0.0106  1.0593  0.6437
  502MOL0     C67645   8.242   4.482   7.914 -0.4882  0.3957  0.3936
  502MOL0     C67646   8.219   4.408   8.044  0.7836 -0.1673 -0.1222
  502MOL0     C67647   8.080   4.437   8.104  0.0039  0.7743  0.7561
  502MOL0     C67648   8.086   4.528   8.219 -0.2646 -0.1931  0.1776
  502MOL0     C67649   8.160   4.472   8.339 -0.4661 -0.1735 -0.1087
  502MOL0     C67650   8.114   4.525   8.474 -0.1578  0.5403  0.0580
  502MOL0     C67651   8.197   4.459   8.593 -0.2373 -0.9308 -0.1538
  502MOL0     N67652   8.213   4.553   8.716  1.4219 -0.3225 -0.3042
  502MOL0     C67653   8.213   4.523   8.851 -0.3628 -0.3597  0.6703
  502MOL0     C67654   8.191   4.647   8.911  0.6555 -0.3275  0.6541
  502MOL0     C67655   8.182   4.669   9.061  0.0222  1.1881 -0.2400
  502MOL0     C67656   8.142   4.808   9.115 -0.6017 -0.2270 -0.4339
  502MOL0     C67657   8.264   4.896   9.136  0.0181 -0.1950  0.8227
  502MOL0     C67658   8.379   4.887   9.032 -0.6547 -0.1136 -1.3313
  502MOL0     O67659   8.483   4.978   9.069  0.0997 -0.3233 -0.0802
  502MOL0     C67660   8.578   5.015   8.972 -0.0079 -0.9026 -0.4125
  502MOL0     C67661   8.663   5.134   8.992 -0.2339 -0.0001 -0.3336
  502MOL0     C67662   8.762   5.177   8.899  1.0881  0.3122  0.4783
  502MOL0     C67663   8.778   5.089   8.789  0.0936  1.0369 -0.8792
  502MOL0     C67664   8.887   5.111   8.695  0.0390 -0.2784  0.9193
  502MOL0     O67665   8.888   5.040   8.580 -0.5688 -0.5426  0.0185
  502MOL0     C67666   8.997   5.043   8.498 -0.4797  0.6271  0.7761
  502MOL0     C67667   9.050   5.171   8.462 -0.5928  0.8759  0.7772
  502MOL0     C67668   9.165   5.186   8.383 -0.6559 -0.4218  0.0380
  502MOL0     C67669   9.226   5.064   8.333 -0.3801 -0.2160  0.5115
  502MOL0     O67670   9.338   5.050   8.265 -0.4579 -0.1440  0.4227
  502MOL0     C67671   9.415   5.164   8.238  0.8748 -0.6670  0.1566
  502MOL0     C67672   9.552   5.150   8.180 -0.2776 -0.3337 -0.5823
  502MOL0     C67673   9.557   5.060   8.055  0.3983  0.1437 -0.6667
  502MOL0     C67674   9.708   5.021   8.030 -0.6334 -0.1847 -0.0136
  502MOL0     C67675   9.727   4.941   7.898  0.4436  0.3084 -0.3718
  502MOL0     C67676   9.874   4.917   7.890 -0.5225  0.2269 -0.4274
  502MOL0     C67677   9.913   4.850   7.753  0.0374 -0.2500 -0.0047
  502MOL0     C67678   9.979   4.712   7.774 -0.3034 -1.5885 -0.7147
  502MOL0    Cl67679   9.886   4.585   7.830  0.1390 -0.1855 -0.2317
  502MOL0     C67680   9.171   4.942   8.376  0.1278 -1.0040  0.8397
  502MOL0     C67681   9.062   4.933   8.452  0.5169  0.2453 -1.0033
  502MOL0     O67682   8.976   5.183   8.733 -0.3975  0.1152  0.2165
  502MOL0     C67683   8.708   4.971   8.775  0.5326  0.0321  0.6610
  502MOL0     C67684   8.608   4.931   8.865 -0.0212 -0.6225  0.8303
  502MOL0     N67685   8.194   4.750   8.823  0.7775  1.0009  0.5538
  502MOL0     N67686   8.200   4.689   8.710 -0.0914  0.6046  0.7397
  502MOL0     C67687   8.380   4.459   7.601  0.5506  0.6423 -0.8617
  502MOL0     C67688   8.360   4.443   7.469  0.0940 -0.1587 -0.3882
  502MOL0     C67689   8.375   4.315   7.041 -0.9690 -0.8061  0.0338
  502MOL0     C67690   8.344   4.404   6.929  0.2357  0.5664 -0.9976
  502MOL0     C67691   8.327   4.356   6.799  0.1872  0.4101 -0.5468
  502MOL0     C67692   8.328   4.215   6.775  0.1104  0.3054 -0.8401
  502MOL0     O67693   8.299   4.156   6.665 -0.1797 -0.8702  0.2354
  502MOL0     C67694   8.217   4.217   6.561 -0.7816  0.6067 -0.2391
  502MOL0     C67695   8.072   4.176   6.577 -0.7551 -0.7788 -1.0282
  502MOL0     C67696   8.051   4.035   6.548 -0.0211  0.8534 -0.2167
  502MOL0     C67697   7.906   4.000   6.537 -0.0556 -0.3794 -0.9189
  502MOL0     C67698   7.896   3.862   6.491 -0.9107 -0.1564 -1.3338
  502MOL0     C67699   7.861   3.762   6.441 -0.4486 -0.1956  1.0152
  502MOL0     C67700   8.360   4.127   6.886 -0.0832 -0.8398  0.4955
  502MOL0     C67701   8.400   4.182   7.010 -0.7443  0.4065  0.3798
  502MOL0     C67702   8.439   4.072   7.106  0.3090  0.6213  0.3680
  502MOL0     H67703   8.506   4.142   7.427 -1.2371 -0.5511 -2.0099
  502MOL0     H67704   8.546   4.174   7.673 -0.5792 -1.2270 -1.2323
  502MOL0     H67705   8.435   4.495   7.982  2.1298  0.2562 -0.2761
  502MOL0     H67706   8.406   4.581   7.827 -0.7930 -0.9421 -3.2311
  502MOL0     H67707   8.190   4.428   7.835 -2.2572  1.0422  1.0658
  502MOL0     H67708   8.196   4.581   7.926 -2.3560 -0.3008 -0.6058
  502MOL0     H67709   8.290   4.423   8.125 -0.6760  3.7789  0.6534
  502MOL0     H67710   8.211   4.302   8.016 -2.3886  0.2404 -1.2458
  502MOL0     H67711   8.005   4.468   8.031 -0.0268 -1.9763 -0.4985
  502MOL0     H67712   8.042   4.339   8.133  1.0087 -0.1702 -0.9433
  502MOL0     H67713   8.134   4.616   8.177 -0.1634 -0.3555 -0.0524
  502MOL0     H67714   7.981   4.544   8.245 -1.7220 -4.1438 -2.2527
  502MOL0     H67715   8.152   4.363   8.340  1.0768 -0.3108  1.7166
  502MOL0     H67716   8.268   4.488   8.341 -0.5558  0.3949  1.3495
  502MOL0     H67717   8.010   4.507   8.500  0.5602 -2.7398  1.2376
  502MOL0     H67718   8.136   4.631   8.460 -2.0611  0.7153 -2.2594
  502MOL0     H67719   8.155   4.362   8.618 -0.2113 -0.6710  0.9674
  502MOL0     H67720   8.298   4.445   8.552 -0.8319  0.3870 -2.2337
  502MOL0     H67721   8.209   4.429   8.904 -0.6437 -0.0383  1.2230
  502MOL0     H67722   8.113   4.589   9.092  1.6020 -0.1297  0.0211
  502MOL0     H67723   8.275   4.643   9.112 -1.1555  2.4045  2.7532
  502MOL0     H67724   8.063   4.842   9.048 -2.4292 -2.0575  0.6288
  502MOL0     H67725   8.099   4.789   9.214  2.1315  4.2896  1.9391
  502MOL0     H67726   8.303   4.886   9.238 -0.7248  4.3135  1.7580
  502MOL0     H67727   8.218   4.994   9.151 -1.7801 -0.9094  0.1961
  502MOL0     H67728   8.330   4.917   8.939 -0.3120  0.1179 -1.4346
  502MOL0     H67729   8.411   4.783   9.020 -3.0724 -1.2806  1.1281
  502MOL0     H67730   8.639   5.203   9.072 -3.7509 -1.7231  0.3174
  502MOL0     H67731   8.825   5.263   8.918 -2.8266  3.6552 -0.2581
  502MOL0     H67732   9.002   5.259   8.505 -1.2299 -0.0128  1.9584
  502MOL0     H67733   9.189   5.287   8.351 -1.0224 -0.3406  0.0136
  502MOL0     H67734   9.359   5.234   8.176  0.0767 -0.4457  1.1056
  502MOL0     H67735   9.444   5.222   8.326  3.1749 -0.7301 -0.4911
  502MOL0     H67736   9.586   5.249   8.148  0.0788 -0.8296 -1.7751
  502MOL0     H67737   9.623   5.120   8.257  0.1007 -1.5263 -1.3676
  502MOL0     H67738   9.492   4.974   8.075 -3.5010  3.2930  1.6269
  502MOL0     H67739   9.507   5.111   7.972 -0.0196  1.9924  0.6714
  502MOL0     H67740   9.740   4.957   8.113 -1.7965  0.7944  1.2394
  502MOL0     H67741   9.770   5.110   8.046 -0.0846 -0.4780 -0.4682
  502MOL0     H67742   9.678   4.980   7.809 -0.1054  0.0290 -0.1973
  502MOL0     H67743   9.672   4.848   7.917 -2.2072  2.1653  1.9126
  502MOL0     H67744   9.931   5.009   7.906  0.9315 -1.0472  2.4822
  502MOL0     H67745   9.898   4.843   7.967  1.7634 -2.8042 -3.6921
  502MOL0     H67746   9.982   4.918   7.701 -0.3634 -0.0423 -0.2676
  502MOL0     H67747   9.830   4.828   7.685  2.0219 -2.2669 -1.9629
  502MOL0     H67748  10.009   4.669   7.678 -0.2983  0.1750 -1.5584
  502MOL0     H67749  10.070   4.715   7.835  0.0872 -2.2673 -1.2506
  502MOL0     H67750   9.213   4.852   8.330 -5.0472 -2.6859 -1.3198
  502MOL0     H67751   9.021   4.837   8.481 -1.9690  1.6702  0.5517
  502MOL0     H67752   8.732   4.902   8.694 -0.4222 -0.5150  0.8399
  502MOL0     H67753   8.556   4.839   8.839 -0.1746 -0.6210  1.1316
  502MOL0     H67754   8.330   4.551   7.630 -2.9377 -1.7357  1.4814
  502MOL0     H67755   8.293   4.507   7.412  1.9191  1.3361 -0.9180
  502MOL0     H67756   8.354   4.511   6.934  0.1410  0.5298  0.4046
  502MOL0     H67757   8.312   4.423   6.715  1.0145 -0.6159 -1.5456
  502MOL0     H67758   8.253   4.183   6.463 -1.1011  0.8796 -0.4539
  502MOL0     H67759   8.224   4.325   6.554 -1.5631  0.5895 -1.8129
  502MOL0     H67760   8.019   4.242   6.509  0.1903  0.7884 -0.2903
  502MOL0     H67761   8.035   4.186   6.680 -0.3633 -1.5279 -0.8039
  502MOL0     H67762   8.098   3.973   6.625  0.4560 -3.1369 -3.4220
  502MOL0     H67763   8.105   4.006   6.458  1.4637  0.5091  0.7444
  502MOL0     H67764   7.856   4.016   6.632  2.2578 -2.0811  0.7120
  502MOL0     H67765   7.851   4.049   6.457 -2.6807 -0.6830  0.5918
  502MOL0     H67766   7.819   3.697   6.367 -0.3787  2.1982 -1.2779
  502MOL0     H67767   8.350   4.020   6.872  0.2222 -0.7449 -0.5166
  502MOL0     H67768   8.539   4.077   7.149  1.7295 -1.0958 -2.4406
  502MOL0     H67769   8.363   4.060   7.184  0.0145  2.5602  0.4257
  502MOL0     H67770   8.449   3.973   7.060  1.0758  1.1180 -0.5705
  503MOL0     O67771   2.544   4.515   6.285 -0.0158  0.0856 -0.3815
  503MOL0     C67772   2.503   4.403   6.248 -0.3709 -0.9202 -1.2974
  503MOL0     O67773   2.471   4.371   6.124 -0.5595  0.2183 -0.0542
  503MOL0     C67774   2.478   4.479   6.029  1.3017  0.2969  1.1234
  503MOL0     C67775   2.575   4.587   6.019 -0.0676  0.0735 -0.0063
  503MOL0     C67776   2.574   4.678   5.910  0.6932  1.0585  0.7720
  503MOL0     C67777   2.471   4.664   5.818  0.7731  0.1375 -0.7829
  503MOL0     O67778   2.475   4.758   5.720  0.2417 -0.6277  0.2035
  503MOL0     C67779   2.400   4.738   5.600  0.6829  1.3508  0.2559
  503MOL0     C67780   2.414   4.860   5.492 -0.3311  0.4672 -0.1582
  503MOL0     C67781   2.542   4.838   5.413  0.4217  0.4526 -0.6783
  503MOL0     C67782   2.674   4.826   5.471 -0.4406  0.4577 -0.3755
  503MOL0     C67783   2.774   4.836   5.359 -0.9995 -0.5246 -0.0406
  503MOL0     C67784   2.914   4.790   5.411 -0.2667 -0.3513 -0.1370
  503MOL0     C67785   2.964   4.869   5.539  0.6932  0.0882  0.1769
  503MOL0     C67786   3.097   4.804   5.583  0.2904 -0.2545 -0.1130
  503MOL0     N67787   3.075   4.662   5.606  0.5059  0.9309  0.1947
  503MOL0     C67788   2.976   4.611   5.684  0.1393  0.3693  0.6185
  503MOL0     C67789   2.965   4.478   5.665 -0.2076 -0.2479  0.3689
  503MOL0     C67790   2.869   4.377   5.733  0.8620  0.1311 -0.3721
  503MOL0     C67791   2.758   4.349   5.626 -0.2895  0.3235 -1.1742
  503MOL0     C67792   2.642   4.274   5.704 -1.0916 -0.6623 -0.2996
  503MOL0     C67793   2.538   4.244   5.601 -0.1596  0.6131  0.8115
  503MOL0     O67794   2.436   4.153   5.664 -0.0424  0.7890 -0.3078
  503MOL0     C67795   2.371   4.070   5.589  0.2695  0.0881  1.0295
  503MOL0     C67796   2.241   4.113   5.561 -0.0210 -0.0931 -0.9613
  503MOL0     C67797   2.148   4.043   5.490 -0.2079 -0.8166 -0.8463
  503MOL0     C67798   2.196   3.924   5.426  0.5215 -0.1655  0.1008
  503MOL0     C67799   2.099   3.847   5.357  0.3182 -0.2937 -0.1279
  503MOL0     O67800   2.152   3.733   5.319  0.8716  0.1443  0.9738
  503MOL0     C67801   2.073   3.633   5.261  0.9302 -0.5386 -1.1770
  503MOL0     C67802   2.111   3.497   5.270  0.0050 -0.1475 -0.4420
  503MOL0     C67803   2.058   3.392   5.193 -0.3661  0.4791 -0.3823
  503MOL0     C67804   1.954   3.427   5.101 -0.2726  0.0114 -0.7692
  503MOL0     O67805   1.883   3.346   5.022  0.0311 -0.5177  0.2465
  503MOL0     C67806   1.907   3.204   5.023  0.0896 -0.4471  0.1322
  503MOL0     C67807   1.815   3.139   4.919  0.2331 -1.3712 -0.2770
  503MOL0     C67808   1.836   2.989   4.920 -0.2130 -0.5390 -0.6342
  503MOL0     C67809   1.763   2.910   4.813 -0.6044 -0.6648 -0.8422
  503MOL0     C67810   1.814   2.776   4.771  0.5622 -0.4984 -0.3352
  503MOL0     C67811   1.730   2.721   4.658  0.2081  0.0135 -0.0849
  503MOL0     C67812   1.806   2.618   4.577 -0.2450  0.6401  0.1277
  503MOL0     C67813   1.707   2.545   4.478  1.2870 -0.7649 -1.1620
  503MOL0    Cl67814   1.574   2.467   4.577  0.2135  0.1512 -0.1758
  503MOL0     C67815   1.912   3.559   5.090  0.6957 -0.1108 -1.0355
  503MOL0     C67816   1.974   3.661   5.167  0.6322  0.4233  0.7164
  503MOL0     O67817   1.976   3.881   5.354 -0.3820 -0.0222  0.6868
  503MOL0     C67818   2.332   3.891   5.438 -0.6620  0.1276 -0.0328
  503MOL0     C67819   2.420   3.958   5.528  0.9789  0.4542  0.0316
  503MOL0     N67820   3.070   4.448   5.578  0.6481 -0.4531  0.0378
  503MOL0     N67821   3.118   4.557   5.528  0.7429  0.3367 -0.1704
  503MOL0     C67822   2.372   4.568   5.828 -0.1850  1.0116  0.5504
  503MOL0     C67823   2.378   4.465   5.922 -0.1411  0.5509 -0.6662
  503MOL0     C67824   2.513   4.288   6.348  0.3001  0.8957  0.4943
  503MOL0     C67825   2.451   4.167   6.304 -0.0507  0.4646  1.3704
  503MOL0     C67826   2.458   4.055   6.384 -0.8477 -1.1180  0.0958
  503MOL0     C67827   2.517   4.056   6.512 -0.3677 -0.2993 -0.0734
  503MOL0     O67828   2.492   3.941   6.583 -0.8398  0.9168 -0.3648
  503MOL0     C67829   2.569   3.928   6.703  0.4487  0.4347 -0.3735
  503MOL0     C67830   2.485   3.992   6.813  0.7604  0.0902 -0.0618
  503MOL0     C67831   2.556   3.986   6.941 -0.2978 -0.1053 -0.2020
  503MOL0     C67832   2.478   4.038   7.064 -0.8663  0.5941  0.7085
  503MOL0     C67833   2.535   4.001   7.200 -0.0941  0.7384  0.3682
  503MOL0     C67834   2.584   3.961   7.301  0.3641  0.7345 -0.1487
  503MOL0     C67835   2.591   4.165   6.547  0.3794  0.2120 -0.1882
  503MOL0     C67836   2.580   4.280   6.470 -1.4676  0.0987  0.7193
  503MOL0     C67837   2.673   4.394   6.503 -0.1994 -0.5539 -0.2254
  503MOL0     H67838   2.655   4.595   6.091 -0.3878 -0.3365  0.4035
  503MOL0     H67839   2.652   4.753   5.898  1.4427  0.1369 -0.3215
  503MOL0     H67840   2.427   4.640   5.559  0.1965  0.1071  2.7073
  503MOL0     H67841   2.294   4.733   5.624  0.3259 -2.6544 -1.4335
  503MOL0     H67842   2.419   4.959   5.539  1.0689  2.0094 -3.3050
  503MOL0     H67843   2.330   4.864   5.422  0.7167  4.0153 -1.3907
  503MOL0     H67844   2.544   4.929   5.353  2.2449  0.5079 -0.5836
  503MOL0     H67845   2.519   4.750   5.353  0.7870  0.1656 -0.4013
  503MOL0     H67846   2.692   4.913   5.535  2.2323  0.5561 -1.1221
  503MOL0     H67847   2.682   4.734   5.530 -0.0902  2.5793  3.1989
  503MOL0     H67848   2.757   4.779   5.267  1.3713  1.4087 -1.8210
  503MOL0     H67849   2.791   4.942   5.338  1.1767 -0.8710 -0.2745
  503MOL0     H67850   2.903   4.683   5.430  0.5344 -0.2634  0.8963
  503MOL0     H67851   2.982   4.798   5.325  1.0849  1.7428  1.0523
  503MOL0     H67852   2.897   4.867   5.625  2.8062  1.9753  1.9846
  503MOL0     H67853   2.977   4.978   5.530  0.7398  0.2799  2.1020
  503MOL0     H67854   3.170   4.822   5.504 -0.8359  2.1518 -0.7333
  503MOL0     H67855   3.135   4.857   5.671  1.6239 -2.7567  0.9206
  503MOL0     H67856   2.917   4.661   5.760 -0.4434 -0.4304  0.7116
  503MOL0     H67857   2.929   4.289   5.760  1.3544  1.5712  4.1147
  503MOL0     H67858   2.837   4.418   5.829  0.5539 -1.4597  0.2294
  503MOL0     H67859   2.715   4.444   5.592 -2.3919  1.0320  2.8545
  503MOL0     H67860   2.800   4.285   5.549 -1.1102 -2.3198  0.4562
  503MOL0     H67861   2.596   4.335   5.782  0.5571 -0.6587  0.7325
  503MOL0     H67862   2.685   4.186   5.753  4.0964  1.6097 -0.0723
  503MOL0     H67863   2.580   4.200   5.511 -0.7417  0.6630  0.5067
  503MOL0     H67864   2.481   4.332   5.570 -3.3342 -0.9265  1.8137
  503MOL0     H67865   2.208   4.206   5.606  0.0903 -0.8845  0.8778
  503MOL0     H67866   2.043   4.069   5.487 -0.0876 -0.2737 -0.4658
  503MOL0     H67867   2.180   3.472   5.350  1.3799  0.7905 -1.3018
  503MOL0     H67868   2.096   3.292   5.208  0.5432  1.2642  3.8458
  503MOL0     H67869   2.013   3.187   5.002 -0.1627 -2.3901  0.2879
  503MOL0     H67870   1.890   3.152   5.117  3.0896  1.2042  1.7550
  503MOL0     H67871   1.712   3.163   4.949 -0.8298 -0.9001 -3.8573
  503MOL0     H67872   1.830   3.194   4.826 -1.1605  0.9886  0.7839
  503MOL0     H67873   1.944   2.987   4.902 -0.0757  0.2026  0.0338
  503MOL0     H67874   1.828   2.943   5.019 -1.5346  0.2408 -0.3580
  503MOL0     H67875   1.764   2.979   4.728 -0.7398  1.8813  1.0998
  503MOL0     H67876   1.659   2.893   4.842 -1.4295 -0.1631 -3.2733
  503MOL0     H67877   1.799   2.714   4.860  1.3143  0.8306  0.7606
  503MOL0     H67878   1.918   2.787   4.739  0.2058 -2.0584 -2.2093
  503MOL0     H67879   1.644   2.678   4.709  1.1551  2.1975  3.7684
  503MOL0     H67880   1.685   2.796   4.593 -0.4334  0.2473  0.6153
  503MOL0     H67881   1.844   2.542   4.646 -1.0861  0.4217  0.3675
  503MOL0     H67882   1.884   2.662   4.515 -1.2314  0.1660 -1.5083
  503MOL0     H67883   1.684   2.620   4.401  3.3673  2.2455  0.9293
  503MOL0     H67884   1.760   2.463   4.429  0.3957 -3.0922  1.4962
  503MOL0     H67885   1.832   3.585   5.022 -1.6842 -1.4540  1.0750
  503MOL0     H67886   1.938   3.759   5.138 -3.0088 -0.4640  1.7365
  503MOL0     H67887   2.366   3.799   5.392 -2.5202 -2.6718  3.6855
  503MOL0     H67888   2.521   3.917   5.525  1.4874  1.5641  1.2922
  503MOL0     H67889   2.306   4.547   5.744  0.7596  0.0691  0.0179
  503MOL0     H67890   2.312   4.379   5.915 -0.4302  0.3734  2.5446
  503MOL0     H67891   2.392   4.165   6.213  1.2957 -2.4597  0.4666
  503MOL0     H67892   2.403   3.968   6.349  0.5053 -1.2752 -1.8049
  503MOL0     H67893   2.669   3.974   6.702  1.5437 -1.6335  2.0544
  503MOL0     H67894   2.584   3.823   6.730 -2.7189  0.8160  3.9545
  503MOL0     H67895   2.395   3.932   6.821 -0.0833  1.1871 -0.9834
  503MOL0     H67896   2.444   4.088   6.780  0.9633 -1.2512 -4.9879
  503MOL0     H67897   2.649   4.039   6.918  0.3108 -1.7891 -1.8950
  503MOL0     H67898   2.583   3.882   6.964  0.4549  0.5271  1.9946
  503MOL0     H67899   2.469   4.147   7.061  0.8883  0.8171 -3.4669
  503MOL0     H67900   2.376   3.997   7.065 -2.9544  5.0698 -1.2187
  503MOL0     H67901   2.627   3.927   7.394 -3.3175  0.8370  1.7796
  503MOL0     H67902   2.633   4.174   6.646 -0.8471  0.2408  0.3540
  503MOL0     H67903   2.750   4.361   6.574  0.3087  1.1809  0.0806
  503MOL0     H67904   2.726   4.425   6.412  0.8692  0.6147  0.7419
  503MOL0     H67905   2.626   4.482   6.548  3.0642  1.5624 -0.5637
  504MOL0     O67906   4.389   2.229  10.056 -0.1806 -0.6006  0.5782
  504MOL0     C67907   4.490   2.235  10.120  0.1833 -0.1428 -0.1724
  504MOL0     O67908   4.505   2.209  10.244  0.1637 -0.2690 -0.5305
  504MOL0     C67909   4.404   2.174  10.327  0.4394  0.9774 -0.2182
  504MOL0     C67910   4.281   2.111  10.285  0.9800  0.2515 -0.0974
  504MOL0     C67911   4.175   2.102  10.380 -0.0480 -0.0302 -0.4086
  504MOL0     C67912   4.185   2.161  10.506 -0.3027  0.3161  0.0860
  504MOL0     O67913   4.096   2.141  10.596  0.6291  0.5585  0.0230
  504MOL0     C67914   3.956   2.134  10.557 -0.5444 -0.5824 -0.6328
  504MOL0     C67915   3.875   2.174  10.677  0.4148 -0.2688 -0.3366
  504MOL0     C67916   3.895   2.107  10.814 -0.2899  0.3900 -0.1134
  504MOL0     C67917   3.926   1.959  10.797  0.8838 -0.1036 -0.0611
  504MOL0     C67918   3.905   1.888  10.935 -0.4739  0.3216 -0.1889
  504MOL0     C67919   3.888   1.737  10.933 -0.0968  0.0609  0.2698
  504MOL0     C67920   3.981   1.670  10.843 -0.5519 -0.6733  0.5061
  504MOL0     C67921   4.134   1.696  10.880  0.3129 -0.1857 -0.8414
  504MOL0     N67922   4.229   1.631  10.796 -0.9447  0.2651 -0.3448
  504MOL0     C67923   4.279   1.690  10.681 -0.0656 -0.5086  0.1497
  504MOL0     C67924   4.386   1.613  10.639  0.2954 -0.0509 -0.5180
  504MOL0     C67925   4.475   1.644  10.525 -0.2180  0.4305  0.2227
  504MOL0     C67926   4.553   1.765  10.571  0.5782 -0.0051 -0.2686
  504MOL0     C67927   4.675   1.793  10.472  0.5703  0.4621  0.2331
  504MOL0     C67928   4.636   1.841  10.334 -0.4477  1.1355  0.3307
  504MOL0     O67929   4.760   1.861  10.256  0.8887  0.0407  0.8454
  504MOL0     C67930   4.832   1.973  10.273 -0.4145 -0.1654  0.6643
  504MOL0     C67931   4.953   1.967  10.200  0.2297 -0.4972  0.7165
  504MOL0     C67932   5.051   2.067  10.204  0.4327  0.4823 -0.1792
  504MOL0     C67933   5.033   2.178  10.287  0.6551 -0.1559 -0.5230
  504MOL0     C67934   5.136   2.283  10.313  0.3834  0.9915  0.1812
  504MOL0     O67935   5.240   2.266  10.216 -0.0856 -0.0070  0.2309
  504MOL0     C67936   5.343   2.360  10.219  0.9756 -0.5921 -0.4471
  504MOL0     C67937   5.329   2.501  10.185 -0.3336 -0.0112 -0.2190
  504MOL0     C67938   5.440   2.579  10.160 -0.4620 -0.1736 -0.2602
  504MOL0     C67939   5.571   2.522  10.167  0.0836 -0.5828 -0.0350
  504MOL0     O67940   5.691   2.582  10.145  0.5808  0.3985  0.0378
  504MOL0     C67941   5.780   2.584  10.251  0.3499 -0.0073 -0.0850
  504MOL0     C67942   5.913   2.658  10.225 -0.3881 -0.9205 -0.0406
  504MOL0     C67943   5.882   2.808  10.208  0.0808  0.3527 -0.0577
  504MOL0     C67944   6.015   2.884  10.188  0.4469  0.2405  0.0945
  504MOL0     C67945   6.050   2.891  10.039  0.1674  0.0686 -0.3249
  504MOL0     C67946   6.191   2.957  10.016 -0.0050  0.2779  0.0748
  504MOL0     C67947   6.219   2.974   9.869 -0.2110  1.3884  0.1101
  504MOL0     C67948   6.354   3.044   9.851  0.1269 -0.3240  0.7070
  504MOL0    Cl67949   6.500   2.956   9.905 -0.7052  0.4400 -0.5929
  504MOL0     C67950   5.587   2.395  10.207 -0.2342  0.8716 -0.1033
  504MOL0     C67951   5.469   2.315  10.232 -0.6051 -0.1017  0.2732
  504MOL0     O67952   5.118   2.366  10.407  0.1234  0.2329  0.0054
  504MOL0     C67953   4.909   2.175  10.362 -0.7914 -0.1958  0.8532
  504MOL0     C67954   4.806   2.084  10.350  0.4454 -0.3907 -0.2058
  504MOL0     N67955   4.390   1.504  10.732 -0.3871 -0.8215  0.5632
  504MOL0     N67956   4.300   1.513  10.822  0.2350  0.0455  0.4420
  504MOL0     C67957   4.311   2.202  10.547  0.6035  0.7488 -0.1731
  504MOL0     C67958   4.420   2.200  10.465 -0.5692 -0.8196  0.0536
  504MOL0     C67959   4.612   2.269  10.042  0.3418  1.0910  0.5811
  504MOL0     C67960   4.712   2.174  10.026  0.2093 -0.2808 -0.8806
  504MOL0     C67961   4.833   2.211   9.966 -0.2957 -0.2134 -0.2346
  504MOL0     C67962   4.864   2.331   9.910 -0.0924 -0.3235 -0.7851
  504MOL0     O67963   4.978   2.369   9.855  0.3365 -1.2453  0.2868
  504MOL0     C67964   5.040   2.264   9.771 -0.1292  0.7775  0.1906
  504MOL0     C67965   5.138   2.179   9.849  0.0030 -0.0326 -0.1940
  504MOL0     C67966   5.270   2.257   9.871  0.6768 -1.1665  0.6075
  504MOL0     C67967   5.351   2.258   9.745  0.5206 -0.4357 -0.0270
  504MOL0     C67968   5.489   2.278   9.786  0.3707 -0.2980  0.2037
  504MOL0     C67969   5.597   2.310   9.833  0.6010  0.1435  0.8530
  504MOL0     C67970   4.761   2.425   9.920  0.0812  0.0365 -0.6009
  504MOL0     C67971   4.627   2.396   9.977 -1.6971 -0.3217 -1.3761
  504MOL0     C67972   4.536   2.523   9.988  0.2621 -0.2455  0.6641
  504MOL0     H67973   4.253   2.063  10.192  1.6259 -0.0087 -0.1594
  504MOL0     H67974   4.086   2.049  10.348 -1.9327  3.5384 -1.5635
  504MOL0     H67975   3.930   2.190  10.467 -1.8998 -2.3987 -1.4297
  504MOL0     H67976   3.934   2.031  10.530 -2.0209 -0.8407  1.3239
  504MOL0     H67977   3.769   2.160  10.659  0.4241 -0.2179 -0.4349
  504MOL0     H67978   3.888   2.282  10.695  1.5127 -0.7559  2.2449
  504MOL0     H67979   3.805   2.131  10.871 -0.3965  2.3481 -1.0166
  504MOL0     H67980   3.983   2.148  10.864 -2.7592  2.3770  2.9776
  504MOL0     H67981   3.851   1.928  10.723 -0.6634  0.9156  1.0174
  504MOL0     H67982   4.024   1.938  10.754  0.7038 -0.6879 -0.1985
  504MOL0     H67983   3.986   1.922  11.001 -0.0855 -0.1400 -0.4261
  504MOL0     H67984   3.815   1.921  10.987  0.5463 -0.5483  2.2865
  504MOL0     H67985   3.896   1.686  11.030 -0.9022 -0.6890 -0.0434
  504MOL0     H67986   3.784   1.720  10.904  0.5233 -0.7031 -1.6701
  504MOL0     H67987   3.946   1.713  10.748  0.1319  0.8441  0.9146
  504MOL0     H67988   3.965   1.563  10.827  0.7114 -0.6851 -0.8886
  504MOL0     H67989   4.150   1.805  10.876 -1.4651  0.1492  0.2532
  504MOL0     H67990   4.152   1.657  10.980 -4.8273  0.7077  0.7193
  504MOL0     H67991   4.246   1.780  10.630  4.0546 -0.0823 -2.1831
  504MOL0     H67992   4.543   1.558  10.518 -0.1238  0.4925  0.3972
  504MOL0     H67993   4.419   1.668  10.434 -1.6353  2.6234  1.6024
  504MOL0     H67994   4.484   1.847  10.592  0.8254  0.0344  0.4044
  504MOL0     H67995   4.599   1.740  10.667 -0.5348 -0.8879  0.0572
  504MOL0     H67996   4.742   1.707  10.464  0.0420 -0.0694  1.2395
  504MOL0     H67997   4.728   1.867  10.533 -0.7194 -0.2369  2.3422
  504MOL0     H67998   4.564   1.924  10.332 -1.3776  0.3607 -1.8021
  504MOL0     H67999   4.585   1.756  10.287 -1.3582  0.9483  1.6047
  504MOL0     H68000   4.980   1.889  10.129  2.2134  1.4422 -0.7915
  504MOL0     H68001   5.141   2.045  10.148 -0.2134 -1.4392 -0.5292
  504MOL0     H68002   5.228   2.536  10.166 -1.0724 -1.2864  1.1742
  504MOL0     H68003   5.423   2.685  10.145  2.3434  0.4973  0.8162
  504MOL0     H68004   5.730   2.626  10.339 -1.8059 -2.5028 -0.0031
  504MOL0     H68005   5.818   2.484  10.274 -0.1038  0.0429  0.9414
  504MOL0     H68006   5.969   2.646  10.318  0.1255 -0.3988 -0.2776
  504MOL0     H68007   5.968   2.619  10.139 -0.8352  0.1871 -0.8491
  504MOL0     H68008   5.817   2.814  10.121  0.7828 -0.4301 -0.6565
  504MOL0     H68009   5.818   2.832  10.293 -2.1812  1.9304 -2.0774
  504MOL0     H68010   6.085   2.822  10.246 -1.0666 -0.3400  1.3621
  504MOL0     H68011   6.005   2.984  10.231  4.9168  1.9706 -2.2664
  504MOL0     H68012   5.973   2.955   9.994  1.0607  1.2746 -0.1978
  504MOL0     H68013   6.032   2.791   9.998 -0.4668 -1.6463  3.7253
  504MOL0     H68014   6.177   3.052  10.069 -0.2253  1.5389 -2.0863
  504MOL0     H68015   6.273   2.904  10.065  0.0945 -2.0188 -2.3391
  504MOL0     H68016   6.146   3.032   9.812  0.2085 -0.1445 -2.1169
  504MOL0     H68017   6.225   2.875   9.822  0.8968  0.8312  1.3679
  504MOL0     H68018   6.351   3.070   9.745  1.4915  1.0039  0.9622
  504MOL0     H68019   6.347   3.137   9.908 -5.1121  1.2053 -1.7912
  504MOL0     H68020   5.676   2.335  10.223 -1.7626 -0.9383  2.4031
  504MOL0     H68021   5.490   2.214  10.265  0.0598 -0.7501 -1.9547
  504MOL0     H68022   4.899   2.263  10.425 -0.0022  0.9223 -0.5068
  504MOL0     H68023   4.716   2.091  10.411  0.3690  0.1587 -0.3717
  504MOL0     H68024   4.315   2.263  10.636  2.9362 -1.1645  1.1764
  504MOL0     H68025   4.515   2.246  10.490 -0.1751  0.2299 -2.9764
  504MOL0     H68026   4.698   2.081  10.080  2.9261 -0.4087 -0.2597
  504MOL0     H68027   4.915   2.143   9.984 -0.2549  0.5444  3.0823
  504MOL0     H68028   5.099   2.315   9.693  1.8990  0.1914  1.2806
  504MOL0     H68029   4.966   2.207   9.715  1.4588  0.5459 -1.8219
  504MOL0     H68030   5.149   2.089   9.788  1.4715 -1.9994  2.7550
  504MOL0     H68031   5.100   2.138   9.943 -0.6968 -1.3197 -1.0090
  504MOL0     H68032   5.328   2.210   9.951  0.0663 -2.9802  0.0326
  504MOL0     H68033   5.247   2.357   9.908 -3.9305 -1.3602 -1.0856
  504MOL0     H68034   5.340   2.169   9.683 -0.5297 -0.5220  0.2676
  504MOL0     H68035   5.311   2.342   9.688  0.2609 -0.9176 -0.5656
  504MOL0     H68036   5.687   2.342   9.882  2.3786 -2.8579 -0.1730
  504MOL0     H68037   4.785   2.530   9.906 -2.1113  0.8206  0.9118
  504MOL0     H68038   4.532   2.568   9.888 -0.8464 -1.0858  0.3062
  504MOL0     H68039   4.436   2.491  10.017 -0.1004  1.1072  0.9727
  504MOL0     H68040   4.578   2.599  10.054  0.9798 -0.4975  0.5088
  505MOL0     O68041   8.571   4.232   2.523  0.3384 -0.3782  0.5453
  505MOL0     C68042   8.545   4.262   2.642 -1.2637  0.8019  0.2746
  505MOL0     O68043   8.457   4.188   2.734  0.4597  0.1342  0.1409
  505MOL0     C68044   8.420   4.064   2.686  1.2510  0.4197 -0.0385
  505MOL0     C68045   8.495   3.949   2.701 -0.1492 -0.2794 -0.1994
  505MOL0     C68046   8.463   3.825   2.646 -0.1440 -0.9594 -0.1091
  505MOL0     C68047   8.340   3.823   2.570 -0.6828  0.7338  0.3724
  505MOL0     O68048   8.309   3.711   2.501 -0.1459  0.2711 -0.1555
  505MOL0     C68049   8.337   3.717   2.359  0.7106  0.0013 -0.3032
  505MOL0     C68050   8.380   3.586   2.298 -0.4548  0.1839  0.0380
  505MOL0     C68051   8.533   3.557   2.315 -0.1323 -0.9390 -0.0724
  505MOL0     C68052   8.593   3.461   2.214 -0.1555 -0.8056  0.3971
  505MOL0     C68053   8.744   3.464   2.220  0.5745  0.1705  0.3307
  505MOL0     C68054   8.811   3.584   2.150 -0.7776  0.1342  0.1510
  505MOL0     C68055   8.782   3.610   2.008  0.7993  0.6930 -0.4939
  505MOL0     C68056   8.864   3.516   1.925 -0.1542 -0.1947 -1.2110
  505MOL0     N68057   8.833   3.524   1.782 -0.2068  0.2428 -0.1381
  505MOL0     C68058   8.859   3.629   1.702 -0.8459 -0.6511 -0.8215
  505MOL0     C68059   8.784   3.612   1.590  0.1450  0.3832  0.3006
  505MOL0     C68060   8.797   3.693   1.466  0.1225 -0.3257 -1.0827
  505MOL0     C68061   8.891   3.622   1.381 -0.2927 -0.0187  0.4546
  505MOL0     C68062   8.915   3.698   1.251 -1.5324 -0.2212 -0.1081
  505MOL0     C68063   8.802   3.704   1.147 -0.4031 -0.7654 -0.1557
  505MOL0     O68064   8.875   3.727   1.023  0.6112  0.1180  0.1513
  505MOL0     C68065   8.807   3.701   0.903 -0.6798  0.3926 -0.2995
  505MOL0     C68066   8.891   3.677   0.796 -0.4053 -0.0332  0.5956
  505MOL0     C68067   8.841   3.662   0.672  0.5980 -0.5109  0.0746
  505MOL0     C68068   8.700   3.650   0.652  0.1202  0.0856 -0.6113
  505MOL0     C68069   8.635   3.623   0.521  0.3572 -0.3123 -0.0392
  505MOL0     O68070   8.705   3.638   0.405 -0.4030  0.0386 -0.2674
  505MOL0     C68071   8.638   3.619   0.289 -0.0128 -0.0896 -0.8932
  505MOL0     C68072   8.662   3.495   0.221  0.8263 -0.0806 -0.0947
  505MOL0     C68073   8.595   3.462   0.099  0.0778 -0.7099  0.3712
  505MOL0     C68074   8.513   3.565   0.048 -0.1475  0.0371 -0.3459
  505MOL0     O68075   8.448   3.551  -0.068  1.3484  0.1558 -0.4769
  505MOL0     C68076   8.334   3.460  -0.073 -0.2353  0.1471 -1.2474
  505MOL0     C68077   8.207   3.522  -0.024 -0.4103  1.3784  0.0532
  505MOL0     C68078   8.122   3.613  -0.107 -0.0856 -1.0489  0.1581
  505MOL0     C68079   8.109   3.572  -0.261  0.2903  0.3362 -0.7573
  505MOL0     C68080   8.004   3.669  -0.315  0.3430 -0.4946  0.9053
  505MOL0     C68081   7.856   3.652  -0.266  0.1631 -0.0936 -0.6846
  505MOL0     C68082   7.804   3.513  -0.230  0.8903  0.1008 -0.3323
  505MOL0     C68083   7.658   3.493  -0.273  0.5718  0.1342 -0.1096
  505MOL0    Cl68084   7.603   3.325  -0.222 -0.3651 -0.0060  0.0864
  505MOL0     C68085   8.494   3.684   0.119  1.1555 -0.6808  0.4539
  505MOL0     C68086   8.552   3.707   0.242  0.1870  0.2331 -0.2797
  505MOL0     O68087   8.515   3.597   0.525  0.2534 -0.5350  0.3621
  505MOL0     C68088   8.617   3.649   0.773  0.1535 -0.0303  0.3244
  505MOL0     C68089   8.668   3.680   0.895  0.1300 -0.0446  0.2726
  505MOL0     N68090   8.722   3.488   1.612 -0.2048  0.6535 -0.1463
  505MOL0     N68091   8.749   3.436   1.729  0.0809  0.6938  0.0654
  505MOL0     C68092   8.262   3.941   2.548  0.1165  0.0650  0.7120
  505MOL0     C68093   8.305   4.065   2.604  0.3926 -0.2130  0.5110
  505MOL0     C68094   8.617   4.380   2.699  0.5928 -0.6757 -0.4012
  505MOL0     C68095   8.749   4.383   2.671  0.1982  0.6582  0.5340
  505MOL0     C68096   8.824   4.484   2.708  0.1453  0.0837 -0.2103
  505MOL0     C68097   8.776   4.586   2.792 -0.0843  0.2862 -0.6040
  505MOL0     O68098   8.863   4.688   2.830 -0.1977 -0.9498  0.5215
  505MOL0     C68099   8.811   4.822   2.843 -0.2008  0.3677 -0.4229
  505MOL0     C68100   8.923   4.926   2.806 -0.4157 -0.4265 -0.0621
  505MOL0     C68101   8.951   4.919   2.651 -0.6026  0.1625 -0.1838
  505MOL0     C68102   9.082   4.991   2.613  0.1284  0.0024  0.8727
  505MOL0     C68103   9.067   5.139   2.630 -0.2141  0.6509 -1.1326
  505MOL0     C68104   9.061   5.255   2.667  0.1919 -0.3918  0.1033
  505MOL0     C68105   8.640   4.583   2.831 -1.1131  0.4467  0.7931
  505MOL0     C68106   8.555   4.483   2.780 -0.0585 -0.3385  0.1830
  505MOL0     C68107   8.398   4.487   2.792 -0.4918  0.4415 -0.7651
  505MOL0     H68108   8.583   3.956   2.764 -0.1063 -3.7872  0.3299
  505MOL0     H68109   8.522   3.735   2.660  0.4042 -0.9777 -2.2690
  505MOL0     H68110   8.240   3.746   2.316 -0.8241  1.1469  3.5415
  505MOL0     H68111   8.410   3.794   2.330  1.4442  0.6510  2.9134
  505MOL0     H68112   8.367   3.588   2.190  0.1854 -2.0084 -0.1203
  505MOL0     H68113   8.326   3.502   2.343  1.1561  0.2342  2.2357
  505MOL0     H68114   8.541   3.523   2.419  0.7354  1.7186  0.8063
  505MOL0     H68115   8.585   3.652   2.303 -3.4099  0.7166 -3.1933
  505MOL0     H68116   8.562   3.362   2.251  1.2992 -1.7618 -0.8433
  505MOL0     H68117   8.550   3.476   2.115 -1.3795  1.9573  1.2634
  505MOL0     H68118   8.773   3.460   2.325 -0.5624 -2.1680  0.6219
  505MOL0     H68119   8.780   3.376   2.166  0.1464  0.3773 -0.3078
  505MOL0     H68120   8.795   3.670   2.215 -4.8672  1.5501 -2.3221
  505MOL0     H68121   8.917   3.558   2.149 -1.0354 -0.9568  0.3287
  505MOL0     H68122   8.792   3.716   1.981 -1.4854  0.3991 -2.9044
  505MOL0     H68123   8.676   3.590   1.987  1.0494 -1.4197  0.0065
  505MOL0     H68124   8.969   3.546   1.929 -0.7336  1.8035  0.9726
  505MOL0     H68125   8.857   3.411   1.957  0.1070  0.3835  0.8773
  505MOL0     H68126   8.920   3.716   1.722  0.8053 -2.1678  1.2397
  505MOL0     H68127   8.702   3.701   1.411  1.7161  1.6739 -3.7700
  505MOL0     H68128   8.827   3.795   1.491 -1.0024  0.2000 -1.7556
  505MOL0     H68129   8.989   3.617   1.430  1.5262  3.1063 -2.4391
  505MOL0     H68130   8.859   3.518   1.374 -1.6177  0.2184  2.2393
  505MOL0     H68131   9.008   3.679   1.197 -1.5050 -0.7301  0.1106
  505MOL0     H68132   8.924   3.803   1.282 -3.6970 -0.0361  0.1082
  505MOL0     H68133   8.737   3.790   1.165  1.6035  0.6173  0.8073
  505MOL0     H68134   8.750   3.607   1.146 -3.3986  0.4514  4.5019
  505MOL0     H68135   8.994   3.708   0.806  0.3561 -0.7085 -3.4427
  505MOL0     H68136   8.900   3.642   0.583  0.1772 -3.0692  0.2901
  505MOL0     H68137   8.737   3.432   0.268 -0.4025  0.0005  2.1354
  505MOL0     H68138   8.609   3.364   0.054 -0.6754 -0.7417  0.1848
  505MOL0     H68139   8.316   3.420  -0.174  1.1054  0.2638 -1.5459
  505MOL0     H68140   8.353   3.365  -0.022  1.8518  1.3141  0.2952
  505MOL0     H68141   8.144   3.435  -0.006 -2.5431  2.1988 -2.8117
  505MOL0     H68142   8.221   3.574   0.071 -0.4614 -1.6239  1.8350
  505MOL0     H68143   8.024   3.626  -0.060  0.1606  0.5248  0.2980
  505MOL0     H68144   8.159   3.716  -0.100 -1.6373 -0.4603  0.1285
  505MOL0     H68145   8.076   3.468  -0.270  3.4542 -0.9607  1.0425
  505MOL0     H68146   8.200   3.585  -0.320 -0.1155 -4.1202 -2.8016
  505MOL0     H68147   8.008   3.640  -0.420  1.4714 -0.4223  0.9134
  505MOL0     H68148   8.039   3.772  -0.317 -0.7412  0.0012 -4.1848
  505MOL0     H68149   7.850   3.695  -0.166  1.3827 -3.1740  0.8600
  505MOL0     H68150   7.786   3.708  -0.328  0.5068 -0.5267 -1.4923
  505MOL0     H68151   7.817   3.496  -0.123 -1.8366  0.6344  0.1703
  505MOL0     H68152   7.856   3.425  -0.269  2.5340 -0.2736  2.4208
  505MOL0     H68153   7.593   3.565  -0.223 -0.3020 -1.7162  1.6027
  505MOL0     H68154   7.654   3.508  -0.381 -1.6236  0.2562 -0.0561
  505MOL0     H68155   8.416   3.748   0.080  1.4634 -1.2250 -1.1343
  505MOL0     H68156   8.528   3.795   0.302  1.3408 -1.0110  2.1944
  505MOL0     H68157   8.517   3.606   0.773 -0.7400  1.9066 -0.9154
  505MOL0     H68158   8.611   3.697   0.985 -0.6393 -0.2795 -0.1672
  505MOL0     H68159   8.185   3.934   2.472 -0.4428  0.5903  1.2261
  505MOL0     H68160   8.236   4.149   2.604 -1.6739 -1.7593 -2.2634
  505MOL0     H68161   8.799   4.309   2.608 -0.1076  1.3924 -0.5942
  505MOL0     H68162   8.922   4.467   2.665 -0.8594 -3.2303 -1.4877
  505MOL0     H68163   8.782   4.837   2.947  0.5317 -0.0578 -0.1476
  505MOL0     H68164   8.729   4.832   2.771 -0.1128 -0.4394 -0.6495
  505MOL0     H68165   9.017   4.908   2.859  0.6493  3.2595 -0.4028
  505MOL0     H68166   8.895   5.029   2.832  1.4136  0.7467 -2.3866
  505MOL0     H68167   8.870   4.972   2.600  0.6908  0.4820 -2.0067
  505MOL0     H68168   8.971   4.819   2.612  3.8275  1.2869 -1.3721
  505MOL0     H68169   9.173   4.954   2.660  1.4102 -0.6731 -1.9094
  505MOL0     H68170   9.094   4.956   2.510 -1.1846 -1.6429  1.2293
  505MOL0     H68171   9.044   5.360   2.679  1.1322 -0.4269  2.0892
  505MOL0     H68172   8.598   4.672   2.878  0.4464  1.3845  0.4685
  505MOL0     H68173   8.360   4.440   2.883  2.0156 -1.7052 -0.7170
  505MOL0     H68174   8.371   4.592   2.775 -1.3712 -0.0777 -2.9313
  505MOL0     H68175   8.350   4.428   2.713 -0.4209 -0.6388 -0.0241
  506MOL0     O68176   9.059   8.580   8.344 -0.1614 -0.3185  0.3468
  506MOL0     C68177   9.058   8.495   8.255  0.5994 -0.2430 -0.5131
  506MOL0     O68178   8.979   8.497   8.142  0.8752 -0.0909  0.6071
  506MOL0     C68179   8.906   8.606   8.117  0.6076  0.2395 -0.1430
  506MOL0     C68180   8.957   8.729   8.075 -0.2855 -0.9728  0.5307
  506MOL0     C68181   8.875   8.830   8.022  0.6955 -0.4124 -0.3725
  506MOL0     C68182   8.738   8.816   8.028  0.1606 -0.4123  0.5203
  506MOL0     O68183   8.652   8.924   7.987 -0.8814  0.1685 -1.4866
  506MOL0     C68184   8.513   8.885   7.958  0.0068 -0.3934 -0.4631
  506MOL0     C68185   8.425   9.000   7.924 -0.3130 -0.0031  0.4156
  506MOL0     C68186   8.483   9.076   7.801 -0.3857 -0.1833 -0.6399
  506MOL0     C68187   8.405   9.205   7.786 -0.1618  1.5474  0.8147
  506MOL0     C68188   8.491   9.299   7.707 -0.1576 -1.5305  0.5134
  506MOL0     C68189   8.432   9.442   7.716 -0.8272  0.4945  0.5588
  506MOL0     C68190   8.286   9.455   7.672  0.6412  0.8000  0.0193
  506MOL0     C68191   8.239   9.606   7.649  0.2052 -0.7003  0.6673
  506MOL0     N68192   8.214   9.682   7.775 -0.1620  0.0903  0.7438
  506MOL0     C68193   8.311   9.751   7.854  0.6744  0.4959 -0.9575
  506MOL0     C68194   8.249   9.827   7.950  0.7451  0.3789 -0.0014
  506MOL0     C68195   8.303   9.890   8.076 -0.5835 -0.0087  0.1925
  506MOL0     C68196   8.348   9.771   8.156 -0.2597  0.0341  0.4106
  506MOL0     C68197   8.234   9.682   8.215  0.8835  0.3471  0.5888
  506MOL0     C68198   8.212   9.552   8.138 -0.6376  0.6965  0.2107
  506MOL0     O68199   8.334   9.473   8.124  0.1416  0.7198  0.4467
  506MOL0     C68200   8.379   9.375   8.217  0.9038 -0.9490  0.4331
  506MOL0     C68201   8.496   9.309   8.193  0.1487 -0.5476 -0.4243
  506MOL0     C68202   8.540   9.212   8.282  0.5708 -0.1206 -0.8136
  506MOL0     C68203   8.456   9.168   8.381  1.0206 -0.3774 -0.6634
  506MOL0     C68204   8.493   9.055   8.469  0.1322  0.0113  0.8562
  506MOL0     O68205   8.623   9.014   8.455  0.2351 -0.1792  0.0983
  506MOL0     C68206   8.679   8.929   8.542  0.2517 -0.3666 -0.9009
  506MOL0     C68207   8.671   8.945   8.681 -0.1051 -0.5044 -0.3008
  506MOL0     C68208   8.731   8.842   8.758 -0.4486  0.2135 -0.4215
  506MOL0     C68209   8.803   8.734   8.707 -0.0960 -0.8309 -0.5328
  506MOL0     O68210   8.868   8.669   8.810 -0.0131 -0.3456  0.0207
  506MOL0     C68211   8.925   8.538   8.775 -0.1916  0.0850  1.3984
  506MOL0     C68212   9.080   8.558   8.733  0.4553  0.1683 -0.0584
  506MOL0     C68213   9.178   8.543   8.844  0.0477 -0.7399 -0.0203
  506MOL0     C68214   9.319   8.545   8.795 -0.1520  0.2640 -0.9608
  506MOL0     C68215   9.406   8.507   8.921 -0.0656 -0.2260 -0.3749
  506MOL0     C68216   9.549   8.529   8.892 -0.7000 -0.3834 -0.0697
  506MOL0     C68217   9.645   8.467   8.991  0.4417 -0.8125  0.1524
  506MOL0     C68218   9.783   8.530   8.984  0.7553  0.5191  0.8553
  506MOL0    Cl68219   9.859   8.536   8.813 -0.3728 -0.4046 -0.4736
  506MOL0     C68220   8.816   8.725   8.573  0.2485  0.0015  0.0055
  506MOL0     C68221   8.760   8.820   8.488 -0.0325  0.5633  0.4618
  506MOL0     O68222   8.410   9.005   8.544 -0.5007  0.3607  0.6202
  506MOL0     C68223   8.338   9.238   8.409 -0.8130 -0.3706 -0.1635
  506MOL0     C68224   8.310   9.346   8.328  0.1128  0.1838  0.4947
  506MOL0     N68225   8.113   9.814   7.927  0.1697  0.1418  0.6990
  506MOL0     N68226   8.094   9.718   7.833  0.7944  0.7135  0.2227
  506MOL0     C68227   8.687   8.694   8.083  0.6652  0.2410  0.2307
  506MOL0     C68228   8.762   8.593   8.126 -1.1757 -0.1273  0.4159
  506MOL0     C68229   9.146   8.382   8.258 -0.4327  0.2192  0.3704
  506MOL0     C68230   9.277   8.396   8.207 -0.0211 -0.2973 -0.7123
  506MOL0     C68231   9.362   8.286   8.194 -1.7191  0.4399  0.3054
  506MOL0     C68232   9.323   8.159   8.244 -0.1969  0.8099  0.5364
  506MOL0     O68233   9.405   8.047   8.237  0.1922  0.0776 -0.1891
  506MOL0     C68234   9.388   7.940   8.334  1.0574 -0.2015  0.4324
  506MOL0     C68235   9.511   7.855   8.346  0.2868  0.1097  1.1108
  506MOL0     C68236   9.477   7.719   8.395 -0.2239  0.7188  0.2744
  506MOL0     C68237   9.601   7.637   8.417 -0.0627  0.3235 -0.0160
  506MOL0     C68238   9.657   7.585   8.291  0.2593  1.0747 -0.1431
  506MOL0     C68239   9.704   7.533   8.191 -0.9085  0.5629 -0.6961
  506MOL0     C68240   9.197   8.151   8.304  0.2442 -0.0728  0.4187
  506MOL0     C68241   9.106   8.259   8.310 -1.4067  0.8010  0.8406
  506MOL0     C68242   8.983   8.229   8.384  0.3734 -0.6040  1.2869
  506MOL0     H68243   9.065   8.739   8.086  0.2667 -1.7316 -2.9235
  506MOL0     H68244   8.911   8.929   7.996 -0.5405  0.1434 -0.0837
  506MOL0     H68245   8.522   8.819   7.871  4.1519 -1.3210  0.4605
  506MOL0     H68246   8.469   8.830   8.042  2.1759 -0.3059  0.8097
  506MOL0     H68247   8.413   9.073   8.005 -2.5468  2.7964 -2.1790
  506MOL0     H68248   8.326   8.968   7.889 -0.1463  0.3359 -0.4051
  506MOL0     H68249   8.488   9.025   7.705  1.6725  0.4141 -0.8962
  506MOL0     H68250   8.584   9.096   7.839 -1.3569  0.7127  1.6597
  506MOL0     H68251   8.311   9.193   7.731 -0.8407  3.5522  1.4285
  506MOL0     H68252   8.385   9.251   7.884  1.2320 -0.0217  1.8855
  506MOL0     H68253   8.592   9.301   7.750 -0.7948  1.3638  2.1079
  506MOL0     H68254   8.498   9.272   7.601  2.4206 -4.1167  1.2325
  506MOL0     H68255   8.451   9.469   7.821  2.0610 -4.1788  1.5449
  506MOL0     H68256   8.492   9.497   7.643  0.7909 -2.6588 -0.6779
  506MOL0     H68257   8.230   9.413   7.755  1.3811  3.1991  1.8404
  506MOL0     H68258   8.282   9.388   7.586  0.1322 -1.7611  1.9483
  506MOL0     H68259   8.318   9.655   7.590  0.7227 -2.4955 -0.2052
  506MOL0     H68260   8.149   9.603   7.588  2.1438 -1.4502 -2.3878
  506MOL0     H68261   8.418   9.748   7.837  1.0238  4.6732 -0.6636
  506MOL0     H68262   8.395   9.938   8.041  0.6215 -3.5684 -2.0593
  506MOL0     H68263   8.229   9.945   8.135 -0.6690 -0.5494  0.5988
  506MOL0     H68264   8.426   9.716   8.102 -0.4770  4.4016 -5.3053
  506MOL0     H68265   8.395   9.817   8.244  0.7831 -1.9076  0.9250
  506MOL0     H68266   8.139   9.736   8.211  0.3053 -0.6452  0.4292
  506MOL0     H68267   8.257   9.649   8.317  2.3202 -1.7666 -0.3513
  506MOL0     H68268   8.187   9.578   8.034  1.3696 -3.0330 -1.4000
  506MOL0     H68269   8.134   9.492   8.188 -1.5934  2.3578  0.7890
  506MOL0     H68270   8.552   9.340   8.106  2.1577  3.9544  2.0994
  506MOL0     H68271   8.642   9.178   8.262  1.1101  2.6855 -3.7247
  506MOL0     H68272   8.639   9.036   8.731 -1.5105 -1.4305  0.5509
  506MOL0     H68273   8.734   8.860   8.865 -2.0740  1.1542 -0.5136
  506MOL0     H68274   8.930   8.473   8.863 -0.1647  0.0728  1.3869
  506MOL0     H68275   8.874   8.489   8.692 -0.3501  2.6694 -0.1379
  506MOL0     H68276   9.105   8.483   8.657  1.9950 -0.4351  0.9848
  506MOL0     H68277   9.082   8.657   8.687 -0.3587 -0.4400 -1.4409
  506MOL0     H68278   9.179   8.624   8.918 -0.0162  2.0467 -2.8323
  506MOL0     H68279   9.161   8.451   8.901 -1.5402 -0.1433  0.5084
  506MOL0     H68280   9.348   8.646   8.763  2.4640  0.0139  0.3965
  506MOL0     H68281   9.338   8.473   8.714 -1.4755 -0.3462 -0.7648
  506MOL0     H68282   9.385   8.403   8.943  1.3012 -0.0367  2.2025
  506MOL0     H68283   9.378   8.548   9.019  1.0368  1.8614 -0.8576
  506MOL0     H68284   9.574   8.478   8.798 -1.6243  1.1212 -1.1727
  506MOL0     H68285   9.563   8.637   8.888  1.4041 -0.5725  1.0106
  506MOL0     H68286   9.638   8.362   8.959  1.9166  0.1656 -4.1205
  506MOL0     H68287   9.602   8.489   9.089 -1.0079  1.8069 -0.9734
  506MOL0     H68288   9.786   8.635   9.015 -0.5254  1.3442 -1.5636
  506MOL0     H68289   9.850   8.465   9.040  0.0086  0.3507  1.5732
  506MOL0     H68290   8.877   8.646   8.529  0.6460 -0.2381  0.9399
  506MOL0     H68291   8.779   8.808   8.382  2.5097  1.6693  0.7341
  506MOL0     H68292   8.271   9.205   8.488 -1.5474  0.3696 -0.4578
  506MOL0     H68293   8.222   9.402   8.356 -1.1284 -2.0368  1.2333
  506MOL0     H68294   8.581   8.677   8.101  1.1575 -2.5726  0.8321
  506MOL0     H68295   8.716   8.497   8.148 -3.0600  1.0413  1.9727
  506MOL0     H68296   9.300   8.496   8.171 -1.4391  0.7415  1.0687
  506MOL0     H68297   9.460   8.296   8.150 -2.3044  0.8402 -0.9741
  506MOL0     H68298   9.304   7.878   8.301  1.4811 -1.3786  1.4589
  506MOL0     H68299   9.360   7.988   8.428 -1.4312  1.2123 -0.9344
  506MOL0     H68300   9.573   7.910   8.417  0.5091  1.8101 -0.3420
  506MOL0     H68301   9.565   7.848   8.251  0.4176 -0.2842  1.2107
  506MOL0     H68302   9.406   7.666   8.331 -2.0531  3.5011 -0.1846
  506MOL0     H68303   9.423   7.727   8.490 -2.5414  0.7472 -0.9748
  506MOL0     H68304   9.680   7.706   8.449 -1.2179  2.8476 -2.1940
  506MOL0     H68305   9.572   7.560   8.489 -1.6440  1.4120  0.5603
  506MOL0     H68306   9.752   7.469   8.119  0.4531  2.3780 -1.5023
  506MOL0     H68307   9.169   8.055   8.346 -0.8523 -0.1294 -0.4144
  506MOL0     H68308   8.966   8.312   8.454  1.9773  1.3427 -0.5266
  506MOL0     H68309   8.918   8.248   8.298  2.4103  1.5287  0.1350
  506MOL0     H68310   8.963   8.133   8.433  1.7649 -1.3698  0.4064
  507MOL0     O68311   7.907   1.798   4.853 -0.3438 -0.4464  0.0086
  507MOL0     C68312   7.969   1.899   4.894 -0.9369  0.1378  0.6087
  507MOL0     O68313   7.921   2.022   4.868  0.3754 -0.1496  0.4627
  507MOL0     C68314   7.788   2.050   4.880 -0.2264  0.9760  0.3001
  507MOL0     C68315   7.698   1.962   4.941  0.3009 -0.4033 -0.1583
  507MOL0     C68316   7.562   1.991   4.943 -0.4330 -0.4339 -0.2859
  507MOL0     C68317   7.513   2.113   4.891  0.8729 -0.2126 -0.0891
  507MOL0     O68318   7.375   2.130   4.902 -0.4805  0.5327 -0.2550
  507MOL0     C68319   7.320   2.264   4.911  0.6056  0.8345  0.4214
  507MOL0     C68320   7.171   2.255   4.955 -0.0766 -0.5450  0.4619
  507MOL0     C68321   7.159   2.192   5.100  0.5320  0.0886  0.2212
  507MOL0     C68322   7.017   2.189   5.135  0.2762 -0.8322 -0.2261
  507MOL0     C68323   7.008   2.100   5.255 -0.3101  0.9697 -0.0435
  507MOL0     C68324   7.043   2.175   5.379  0.2744 -0.3459  0.0116
  507MOL0     C68325   7.034   2.087   5.505 -0.3881 -0.6967  0.6748
  507MOL0     C68326   7.153   1.990   5.513  0.5590  0.2938 -0.2392
  507MOL0     N68327   7.143   1.893   5.619 -0.2885 -0.4275  0.7472
  507MOL0     C68328   7.194   1.937   5.739  0.0258 -0.8045  0.0641
  507MOL0     C68329   7.171   1.832   5.825  0.6317  0.0164 -0.2653
  507MOL0     C68330   7.176   1.826   5.977 -0.0355  0.1037 -0.0964
  507MOL0     C68331   7.118   1.953   6.036  0.6605  0.2415 -0.5475
  507MOL0     C68332   7.127   1.944   6.184  0.0492  0.2329 -1.1013
  507MOL0     C68333   7.104   2.085   6.262  0.5672 -0.4051  0.1623
  507MOL0     O68334   6.985   2.155   6.213  0.5690  0.1478  0.5379
  507MOL0     C68335   6.902   2.249   6.280  0.7062 -0.2563 -1.0859
  507MOL0     C68336   6.960   2.347   6.353 -0.3576  0.1820 -0.6892
  507MOL0     C68337   6.890   2.444   6.417  0.0401 -0.0926 -0.3821
  507MOL0     C68338   6.753   2.446   6.393  0.9014  0.2662 -0.2167
  507MOL0     C68339   6.670   2.550   6.459  0.4301 -0.0406 -0.9575
  507MOL0     O68340   6.731   2.629   6.550 -0.8785 -0.0071  0.7979
  507MOL0     C68341   6.675   2.743   6.604 -1.4433  0.3420 -0.7966
  507MOL0     C68342   6.734   2.778   6.727 -0.1473 -0.6343 -0.3991
  507MOL0     C68343   6.695   2.896   6.785 -0.1491 -0.0478 -0.2852
  507MOL0     C68344   6.595   2.977   6.735  0.0135  0.5326 -0.0558
  507MOL0     O68345   6.559   3.087   6.810 -0.7614 -0.6442  0.6870
  507MOL0     C68346   6.537   3.211   6.734 -0.1006 -0.0494 -0.1516
  507MOL0     C68347   6.566   3.338   6.816  1.4413  0.3462  0.3075
  507MOL0     C68348   6.446   3.360   6.913 -0.2160 -0.7675 -0.1955
  507MOL0     C68349   6.460   3.496   6.990 -0.6667  0.3674  0.0456
  507MOL0     C68350   6.537   3.464   7.117  0.2604 -0.3668 -0.3650
  507MOL0     C68351   6.556   3.584   7.206 -0.9388  0.2146 -0.2696
  507MOL0     C68352   6.653   3.534   7.328  0.4723 -1.0580  0.1032
  507MOL0     C68353   6.702   3.641   7.412 -0.0359 -0.1783 -0.8286
  507MOL0    Cl68354   6.820   3.579   7.529  0.0258 -0.0078 -0.2001
  507MOL0     C68355   6.538   2.939   6.613 -0.6054 -0.8599 -0.2221
  507MOL0     C68356   6.577   2.828   6.547  0.0238  0.5469 -0.0100
  507MOL0     O68357   6.544   2.550   6.431 -0.5026  0.7078  0.2637
  507MOL0     C68358   6.689   2.341   6.325  0.3518  0.7652  0.0295
  507MOL0     C68359   6.763   2.244   6.264 -0.8034 -0.9493 -0.2890
  507MOL0     N68360   7.094   1.739   5.753  0.5098 -0.2387  0.0470
  507MOL0     N68361   7.086   1.773   5.628  0.3441  0.0117 -0.1047
  507MOL0     C68362   7.606   2.206   4.840  0.9575  0.1003 -0.0606
  507MOL0     C68363   7.736   2.175   4.846 -0.0929 -0.1925  0.1312
  507MOL0     C68364   8.105   1.875   4.953 -0.0522  0.7931  0.6081
  507MOL0     C68365   8.157   1.743   4.972 -0.4112 -0.4236  0.8534
  507MOL0     C68366   8.289   1.731   5.022  0.4621  1.0744  0.7726
  507MOL0     C68367   8.364   1.841   5.057 -0.4260  0.8095  1.0958
  507MOL0     O68368   8.496   1.842   5.100  0.1384 -0.1446 -0.7871
  507MOL0     C68369   8.569   1.726   5.074 -0.2103 -0.4132  0.3432
  507MOL0     C68370   8.713   1.738   5.119  0.0663 -0.8900  0.4969
  507MOL0     C68371   8.725   1.726   5.273  0.0416  0.3195 -0.0390
  507MOL0     C68372   8.868   1.704   5.304  0.3865 -0.4035 -0.2872
  507MOL0     C68373   8.903   1.564   5.280 -0.1151 -0.3144  0.6971
  507MOL0     C68374   8.953   1.451   5.271 -0.4827  0.1499 -0.8478
  507MOL0     C68375   8.312   1.967   5.043 -0.1444 -0.0309 -0.0982
  507MOL0     C68376   8.189   1.982   4.999  0.7643 -0.5708  0.0919
  507MOL0     C68377   8.142   2.125   5.016 -0.0152  0.3467 -0.1090
  507MOL0     H68378   7.727   1.876   5.001 -1.3320  1.1412  3.1279
  507MOL0     H68379   7.500   1.916   4.991  0.9045 -0.0314  2.2513
  507MOL0     H68380   7.376   2.327   4.981 -1.1523  1.1876  1.5651
  507MOL0     H68381   7.316   2.314   4.814 -0.4118 -1.4541 -0.7908
  507MOL0     H68382   7.126   2.200   4.872 -1.0351  0.7264  0.1080
  507MOL0     H68383   7.133   2.357   4.961  1.0908 -0.0581  0.0326
  507MOL0     H68384   7.219   2.261   5.161  0.7552 -1.3950  1.7374
  507MOL0     H68385   7.210   2.096   5.105 -3.1211 -2.0274  0.1726
  507MOL0     H68386   6.990   2.295   5.141  2.3661 -0.3333  1.5289
  507MOL0     H68387   6.958   2.150   5.051  1.6105  2.8527 -3.2154
  507MOL0     H68388   6.910   2.053   5.264  1.9422 -4.2152  0.9411
  507MOL0     H68389   7.067   2.009   5.244 -2.2698 -0.3849  0.1418
  507MOL0     H68390   7.143   2.220   5.380 -0.3213  1.1009  2.2004
  507MOL0     H68391   6.966   2.250   5.398  0.9636  0.4913 -0.3566
  507MOL0     H68392   6.932   2.048   5.510 -0.6200  0.0395  2.2203
  507MOL0     H68393   7.041   2.154   5.591  0.7939 -0.5960  0.5142
  507MOL0     H68394   7.162   1.933   5.420 -3.1578 -1.2980  0.2038
  507MOL0     H68395   7.236   2.057   5.535  1.4789 -0.6211 -0.8353
  507MOL0     H68396   7.252   2.025   5.764  0.7561 -0.5727 -2.2759
  507MOL0     H68397   7.115   1.739   6.001  0.2626  0.0535  0.4854
  507MOL0     H68398   7.280   1.815   6.008 -0.0483  1.2442  0.4155
  507MOL0     H68399   7.174   2.035   5.991 -2.4016  1.6742 -2.0958
  507MOL0     H68400   7.011   1.964   6.013  0.4218 -0.0659  0.3516
  507MOL0     H68401   7.218   1.895   6.219 -0.3283  0.5551  0.3816
  507MOL0     H68402   7.046   1.880   6.217 -2.3575  3.0099 -1.2539
  507MOL0     H68403   7.188   2.153   6.246 -0.7301  1.1977 -0.0963
  507MOL0     H68404   7.097   2.083   6.371  0.9409 -1.9269  0.1731
  507MOL0     H68405   7.067   2.362   6.360 -0.4149  0.0702  0.6054
  507MOL0     H68406   6.936   2.524   6.474  1.4308  0.2084 -1.8615
  507MOL0     H68407   6.808   2.716   6.778 -2.9082 -2.2701  1.9583
  507MOL0     H68408   6.743   2.927   6.877  0.7936 -0.6566 -0.5585
  507MOL0     H68409   6.604   3.205   6.647  2.4965  0.2563  1.6955
  507MOL0     H68410   6.433   3.221   6.701 -1.0296  0.7915  2.7904
  507MOL0     H68411   6.661   3.324   6.868  1.2610 -1.5782  0.1952
  507MOL0     H68412   6.573   3.415   6.739  2.3636 -0.2668 -0.2407
  507MOL0     H68413   6.351   3.349   6.860 -1.7721  0.2586  2.1965
  507MOL0     H68414   6.459   3.273   6.979  3.0745  1.0318  1.8062
  507MOL0     H68415   6.367   3.549   7.011 -0.9203  0.9362 -2.2638
  507MOL0     H68416   6.534   3.553   6.933  3.0417 -4.6870 -0.8863
  507MOL0     H68417   6.631   3.415   7.091 -0.4775 -1.3791 -1.2215
  507MOL0     H68418   6.474   3.404   7.184 -0.3671  0.6260 -0.0493
  507MOL0     H68419   6.600   3.671   7.155 -0.2255  0.6112  0.9809
  507MOL0     H68420   6.464   3.629   7.246 -0.6610  1.8606 -1.3594
  507MOL0     H68421   6.747   3.494   7.288  2.2148  1.2381  1.5851
  507MOL0     H68422   6.606   3.454   7.385  2.0927 -0.1749  2.8873
  507MOL0     H68423   6.740   3.719   7.346 -3.1348  3.3063  1.1131
  507MOL0     H68424   6.617   3.679   7.470  0.9326 -0.3149  0.7149
  507MOL0     H68425   6.467   3.008   6.568 -3.5107 -3.0529  0.6966
  507MOL0     H68426   6.528   2.789   6.459 -0.0432 -2.9008  1.3943
  507MOL0     H68427   6.583   2.318   6.319  1.0456 -4.8724  2.5367
  507MOL0     H68428   6.715   2.164   6.210 -3.3130  0.9624 -1.0662
  507MOL0     H68429   7.569   2.301   4.803  2.3744  1.2796  1.4056
  507MOL0     H68430   7.798   2.253   4.804 -0.1651  0.4094  1.0957
  507MOL0     H68431   8.093   1.655   4.963 -1.3386  0.4461 -2.5137
  507MOL0     H68432   8.339   1.635   5.027  1.7965  1.6090 -1.0522
  507MOL0     H68433   8.575   1.708   4.967 -0.5192  4.2662 -0.6286
  507MOL0     H68434   8.525   1.638   5.124 -0.9341  1.1035  2.5534
  507MOL0     H68435   8.746   1.837   5.089 -2.9315 -0.2932 -1.2097
  507MOL0     H68436   8.778   1.663   5.073 -0.3909 -1.7894  1.2842
  507MOL0     H68437   8.666   1.645   5.317 -0.0167 -2.4024 -4.5572
  507MOL0     H68438   8.701   1.820   5.323  2.5199 -0.2516  2.5144
  507MOL0     H68439   8.933   1.772   5.248 -1.8348  3.1914  1.1548
  507MOL0     H68440   8.882   1.732   5.409 -0.0468  0.9154 -0.5568
  507MOL0     H68441   9.005   1.357   5.269  1.4172  1.1607 -1.0043
  507MOL0     H68442   8.373   2.054   5.066  0.0618  0.8313 -3.4177
  507MOL0     H68443   8.070   2.128   5.099 -0.9500 -0.1409 -0.8758
  507MOL0     H68444   8.226   2.194   5.027 -0.5904  0.7585  2.1199
  507MOL0     H68445   8.085   2.164   4.930 -1.4999 -0.0167  0.6690
  508MOL0     O68446   6.710   2.345   2.577 -0.6909 -0.6004  1.1775
  508MOL0     C68447   6.755   2.264   2.660 -0.2997  0.4279  0.8469
  508MOL0     O68448   6.884   2.262   2.709 -0.0556  0.7867 -0.3592
  508MOL0     C68449   6.998   2.314   2.648 -0.5224 -0.7536 -0.6833
  508MOL0     C68450   7.017   2.293   2.514  0.1634  0.1680  0.0705
  508MOL0     C68451   7.128   2.356   2.449  0.2276  0.0998 -0.2097
  508MOL0     C68452   7.231   2.419   2.522  0.0225 -0.2774  0.1963
  508MOL0     O68453   7.331   2.480   2.443  0.9538 -0.5582  0.2141
  508MOL0     C68454   7.456   2.465   2.507 -0.8837 -0.9326  0.2717
  508MOL0     C68455   7.558   2.475   2.405  0.4784  0.6400  0.2940
  508MOL0     C68456   7.560   2.606   2.311  0.3088  0.7297 -0.2396
  508MOL0     C68457   7.656   2.597   2.185  0.0493 -0.6090 -0.3290
  508MOL0     C68458   7.735   2.723   2.154 -0.5372 -0.1593 -0.0480
  508MOL0     C68459   7.691   2.870   2.189  0.3614  0.0575  1.0895
  508MOL0     C68460   7.548   2.913   2.143 -0.0977 -0.3773 -0.5960
  508MOL0     C68461   7.531   2.873   2.000  0.1410  0.3465  0.3471
  508MOL0     N68462   7.392   2.896   1.963 -0.0950 -0.3798  0.1096
  508MOL0     C68463   7.274   2.852   2.033 -0.2758  0.2337 -0.0416
  508MOL0     C68464   7.178   2.898   1.954  0.5914  0.5045 -0.0572
  508MOL0     C68465   7.035   2.860   1.976 -1.1759 -1.0437  0.2179
  508MOL0     C68466   6.993   2.770   1.866 -0.2280  0.7759  0.6344
  508MOL0     C68467   6.854   2.711   1.904 -0.0803 -0.0828  0.0284
  508MOL0     C68468   6.813   2.616   1.789  0.3040  0.0034  0.3783
  508MOL0     O68469   6.706   2.530   1.829  0.5262  0.3952 -0.5439
  508MOL0     C68470   6.579   2.562   1.787 -0.0810 -0.1151  0.3847
  508MOL0     C68471   6.530   2.691   1.776 -0.4380  1.4218 -0.2386
  508MOL0     C68472   6.397   2.713   1.737 -0.0425  0.5818 -0.8431
  508MOL0     C68473   6.312   2.606   1.714 -0.4120 -0.8991 -0.7781
  508MOL0     C68474   6.182   2.629   1.663  0.1755  0.4295 -0.0142
  508MOL0     O68475   6.142   2.759   1.653 -0.2404  0.8421 -0.4290
  508MOL0     C68476   6.015   2.806   1.617 -0.2792 -0.0449  0.2879
  508MOL0     C68477   5.895   2.736   1.618 -0.7653  0.0427 -0.4578
  508MOL0     C68478   5.773   2.796   1.587  0.0511  0.2734  0.1118
  508MOL0     C68479   5.767   2.921   1.535 -0.8290  0.6823  0.3007
  508MOL0     O68480   5.647   2.978   1.499  0.0344  0.6175 -0.1177
  508MOL0     C68481   5.658   3.072   1.390  0.0216  0.1040  0.0964
  508MOL0     C68482   5.529   3.072   1.320 -0.1875  0.6225 -0.0154
  508MOL0     C68483   5.429   3.163   1.387 -1.0899  1.1592  0.5458
  508MOL0     C68484   5.441   3.309   1.337  0.3441  0.0464  0.3195
  508MOL0     C68485   5.374   3.420   1.420 -0.3034 -0.7006  0.7904
  508MOL0     C68486   5.428   3.442   1.554 -0.1556 -0.5834  0.0351
  508MOL0     C68487   5.549   3.528   1.562  0.0699 -0.7480 -0.4981
  508MOL0     C68488   5.586   3.580   1.700 -0.7836 -0.0391  0.9656
  508MOL0    Cl68489   5.642   3.445   1.791  0.5546 -0.3531 -0.6972
  508MOL0     C68490   5.885   2.998   1.547 -0.2774 -0.1369  1.0979
  508MOL0     C68491   6.009   2.938   1.582  0.6354  0.4320 -0.1660
  508MOL0     O68492   6.114   2.531   1.639 -0.1695  0.6377 -0.0533
  508MOL0     C68493   6.359   2.480   1.734  0.2069  0.4037  0.1543
  508MOL0     C68494   6.490   2.459   1.762 -0.4582  0.2898  0.1092
  508MOL0     N68495   7.228   2.975   1.856  0.8276 -0.6609 -0.2315
  508MOL0     N68496   7.359   2.970   1.860  0.2053  0.2628 -0.0907
  508MOL0     C68497   7.217   2.426   2.660 -0.0439  0.4409  0.5942
  508MOL0     C68498   7.110   2.363   2.716  0.7129 -0.3968  0.1466
  508MOL0     C68499   6.653   2.164   2.712 -1.0048  0.2016 -1.2239
  508MOL0     C68500   6.524   2.208   2.725 -0.0427  0.2864 -0.0321
  508MOL0     C68501   6.429   2.120   2.786 -0.5924  0.6696  0.1654
  508MOL0     C68502   6.455   1.989   2.824  0.3242  0.3816  0.8561
  508MOL0     O68503   6.367   1.909   2.890 -0.4902  0.1981 -0.4250
  508MOL0     C68504   6.251   1.952   2.962  0.2797 -1.0364 -0.3841
  508MOL0     C68505   6.289   2.044   3.081  0.0581 -0.5052  0.0440
  508MOL0     C68506   6.160   2.082   3.160 -0.4208 -0.7864  0.5953
  508MOL0     C68507   6.191   2.193   3.269  0.2994  0.4140  0.5300
  508MOL0     C68508   6.264   2.124   3.385 -0.0775 -0.5892 -0.4110
  508MOL0     C68509   6.335   2.079   3.477  0.3069  0.8969 -0.4293
  508MOL0     C68510   6.583   1.943   2.803 -0.1477  0.2064 -0.1283
  508MOL0     C68511   6.687   2.024   2.749  0.1722 -0.3796 -0.8616
  508MOL0     C68512   6.822   1.966   2.750 -0.2117 -0.7561 -0.6606
  508MOL0     H68513   6.941   2.245   2.454  0.8917  2.0931 -2.5654
  508MOL0     H68514   7.132   2.367   2.342  3.7793 -1.1677 -0.3079
  508MOL0     H68515   7.474   2.542   2.582  2.1498  2.4749 -3.5010
  508MOL0     H68516   7.464   2.365   2.550 -1.1462 -1.0722  0.0013
  508MOL0     H68517   7.534   2.396   2.333  0.8106  0.3391  0.5119
  508MOL0     H68518   7.658   2.461   2.448  0.1117  2.2559  1.8192
  508MOL0     H68519   7.596   2.684   2.379  0.9310  0.2574 -0.0221
  508MOL0     H68520   7.458   2.637   2.284 -1.0947 -0.3525  3.1720
  508MOL0     H68521   7.735   2.522   2.197  1.8924  1.2589 -0.3941
  508MOL0     H68522   7.598   2.576   2.094 -1.3337  3.5607 -0.5980
  508MOL0     H68523   7.827   2.719   2.212  0.5929  1.9931 -1.5295
  508MOL0     H68524   7.762   2.716   2.048 -1.3808  1.0911 -0.3754
  508MOL0     H68525   7.697   2.875   2.298  4.7801 -2.3150  1.2151
  508MOL0     H68526   7.766   2.938   2.146 -0.6421 -1.6015 -3.9072
  508MOL0     H68527   7.541   3.022   2.151 -0.7425 -0.0965 -3.7627
  508MOL0     H68528   7.469   2.872   2.207 -2.1196  1.0308 -2.0688
  508MOL0     H68529   7.597   2.939   1.942 -1.9107  1.5332 -0.7504
  508MOL0     H68530   7.552   2.767   1.982  0.5818  0.9313 -3.2640
  508MOL0     H68531   7.266   2.765   2.097 -0.1936 -1.5033 -2.2624
  508MOL0     H68532   7.029   2.814   2.075 -1.1105  0.9368  1.1941
  508MOL0     H68533   6.983   2.956   1.971 -1.6546 -1.2915  0.3827
  508MOL0     H68534   6.989   2.819   1.768 -1.6568  1.0453  0.8026
  508MOL0     H68535   7.065   2.691   1.843  0.4097  2.0265 -2.0373
  508MOL0     H68536   6.788   2.798   1.908 -0.1206 -0.0719 -0.7427
  508MOL0     H68537   6.851   2.661   2.001 -1.2127 -1.1497 -0.5322
  508MOL0     H68538   6.902   2.563   1.755 -0.0061  0.3157 -0.9938
  508MOL0     H68539   6.768   2.661   1.700  0.0684  0.6656  0.8281
  508MOL0     H68540   6.602   2.769   1.797  0.9071 -0.1428  1.2999
  508MOL0     H68541   6.358   2.814   1.728 -1.5237  0.1904  0.7084
  508MOL0     H68542   5.902   2.631   1.646  1.5377 -0.3634 -2.2238
  508MOL0     H68543   5.677   2.747   1.589  0.0389  0.2393 -0.8572
  508MOL0     H68544   5.687   3.169   1.433 -3.2413  0.4346  1.8452
  508MOL0     H68545   5.738   3.038   1.324 -0.1519 -0.7667  0.3297
  508MOL0     H68546   5.546   3.103   1.217 -3.0062 -1.5785 -1.2622
  508MOL0     H68547   5.485   2.972   1.316  3.2459 -1.0584 -5.3690
  508MOL0     H68548   5.332   3.126   1.351 -0.1833  0.6185 -1.4745
  508MOL0     H68549   5.446   3.142   1.492 -0.5054 -4.1816 -0.3699
  508MOL0     H68550   5.396   3.308   1.237 -1.2179  0.3174  0.9970
  508MOL0     H68551   5.548   3.330   1.339  0.9669 -2.8029  2.2688
  508MOL0     H68552   5.272   3.379   1.423 -1.2185  1.2363 -1.0915
  508MOL0     H68553   5.374   3.515   1.365 -1.0525 -0.6778  0.8117
  508MOL0     H68554   5.345   3.486   1.610  1.0595 -1.0562  2.3067
  508MOL0     H68555   5.456   3.345   1.595  3.6534  0.8141  1.2423
  508MOL0     H68556   5.527   3.612   1.496  1.3126 -0.4068 -0.5086
  508MOL0     H68557   5.639   3.480   1.523  0.3255 -0.3547 -0.4081
  508MOL0     H68558   5.672   3.646   1.688 -2.3937  2.4934  2.4870
  508MOL0     H68559   5.505   3.632   1.752 -2.1924  0.4957 -1.5627
  508MOL0     H68560   5.877   3.102   1.515 -0.0611 -0.6238 -0.6266
  508MOL0     H68561   6.106   2.982   1.563  0.7551  0.9898  1.5133
  508MOL0     H68562   6.293   2.397   1.714  0.7979 -0.1611  0.5228
  508MOL0     H68563   6.523   2.356   1.772  3.1850  1.4096  1.0685
  508MOL0     H68564   7.307   2.440   2.720  0.0140 -0.9480  0.8791
  508MOL0     H68565   7.104   2.353   2.824  1.3412  2.2546  0.4888
  508MOL0     H68566   6.498   2.312   2.709  1.8935  0.6049 -1.4820
  508MOL0     H68567   6.325   2.150   2.795 -1.4483 -2.0563  0.1542
  508MOL0     H68568   6.196   1.866   3.001 -1.1983  0.4926  1.0638
  508MOL0     H68569   6.184   2.007   2.895 -1.4122 -3.5186 -0.8684
  508MOL0     H68570   6.337   2.131   3.036  0.8671 -0.4628  0.9540
  508MOL0     H68571   6.363   2.003   3.151  1.2424  2.5905  0.7825
  508MOL0     H68572   6.113   1.993   3.202 -2.0019  0.2485  1.0899
  508MOL0     H68573   6.090   2.125   3.089 -0.6593 -1.0128  0.6934
  508MOL0     H68574   6.238   2.277   3.219  1.7281  1.2305  3.0653
  508MOL0     H68575   6.094   2.229   3.306  0.4709  1.7778 -0.3058
  508MOL0     H68576   6.391   2.047   3.562  1.5949 -0.5347 -1.7731
  508MOL0     H68577   6.610   1.842   2.829 -0.0856  0.3236  0.2706
  508MOL0     H68578   6.827   1.858   2.764 -1.1916 -0.6381  0.7604
  508MOL0     H68579   6.857   2.000   2.652  0.9152 -2.2801 -0.8189
  508MOL0     H68580   6.884   2.014   2.826 -2.3767  2.1117 -0.5252
  509MOL0     O68581   4.615   2.958   1.245 -0.3565  0.2039 -1.1714
  509MOL0     C68582   4.492   2.942   1.228  0.5057 -0.0031  0.4385
  509MOL0     O68583   4.435   2.818   1.208  0.3115 -0.7778  0.5495
  509MOL0     C68584   4.517   2.711   1.205  0.0526 -0.6616  0.0348
  509MOL0     C68585   4.564   2.661   1.327 -0.0718  0.2670  0.3736
  509MOL0     C68586   4.636   2.540   1.320 -0.6101 -0.6016 -0.8685
  509MOL0     C68587   4.677   2.480   1.201 -1.2568  0.2979  0.2440
  509MOL0     O68588   4.760   2.377   1.203  0.1069 -0.4153 -1.2860
  509MOL0     C68589   4.874   2.364   1.123  0.2661 -0.2853 -0.2474
  509MOL0     C68590   4.976   2.279   1.203  0.5967 -0.5557  1.4172
  509MOL0     C68591   5.083   2.214   1.116  0.2996  0.4359 -0.3577
  509MOL0     C68592   5.198   2.160   1.208 -0.5449 -0.5545 -0.2569
  509MOL0     C68593   5.286   2.085   1.116 -0.7841 -0.1810  0.1086
  509MOL0     C68594   5.429   2.076   1.178  0.0874 -0.2550 -0.8098
  509MOL0     C68595   5.526   2.056   1.066 -0.1178  0.1174 -0.1133
  509MOL0     C68596   5.667   2.048   1.114  0.0650  0.4051  0.0907
  509MOL0     N68597   5.759   2.028   0.997  0.5807  0.8500 -0.6538
  509MOL0     C68598   5.830   1.907   0.974  0.1230 -0.7843  0.9825
  509MOL0     C68599   5.935   1.946   0.892 -0.4245  0.6154 -0.6995
  509MOL0     C68600   6.034   1.847   0.826  0.0901  0.1168  0.1997
  509MOL0     C68601   6.095   1.743   0.925  0.2971 -0.1055  0.2669
  509MOL0     C68602   6.226   1.684   0.864  0.8149 -0.6372  0.3295
  509MOL0     C68603   6.335   1.791   0.867 -0.0273 -0.3621 -0.7071
  509MOL0     O68604   6.456   1.716   0.851  0.1829 -0.3143  0.0560
  509MOL0     C68605   6.577   1.759   0.911  0.8314  0.5458  0.2229
  509MOL0     C68606   6.595   1.890   0.954  0.0718 -0.0508 -0.6655
  509MOL0     C68607   6.712   1.917   1.017 -0.1609 -1.1440 -1.3613
  509MOL0     C68608   6.823   1.830   1.023 -0.2909 -0.8484  0.0417
  509MOL0     C68609   6.948   1.873   1.096 -0.0086 -0.1663 -0.2820
  509MOL0     O68610   6.967   2.007   1.114  0.0872  0.5224  0.0229
  509MOL0     C68611   7.076   2.060   1.174 -1.0561  0.4776 -0.5257
  509MOL0     C68612   7.173   1.991   1.257 -0.0011  0.5618  1.0371
  509MOL0     C68613   7.287   2.054   1.308  0.9146  0.1225  0.2743
  509MOL0     C68614   7.298   2.189   1.307 -0.1692  0.2779  0.5326
  509MOL0     O68615   7.410   2.240   1.371 -0.2921  0.1804  0.0605
  509MOL0     C68616   7.520   2.291   1.289  0.2548 -0.1665  0.3991
  509MOL0     C68617   7.499   2.438   1.245  0.2849 -0.1271 -0.4730
  509MOL0     C68618   7.459   2.516   1.369  0.5180  0.4583 -0.2684
  509MOL0     C68619   7.464   2.670   1.357  0.8788 -0.7919  0.5969
  509MOL0     C68620   7.426   2.740   1.492 -0.5817  0.3557 -0.7412
  509MOL0     C68621   7.457   2.883   1.488  0.1451 -0.7392 -0.3430
  509MOL0     C68622   7.323   2.959   1.494 -0.4597  0.0569  0.7605
  509MOL0     C68623   7.344   3.101   1.526 -0.0787  0.7625 -0.7866
  509MOL0    Cl68624   7.185   3.182   1.509  0.4803 -0.0802  0.0329
  509MOL0     C68625   7.210   2.262   1.220  0.3508  0.0715 -1.2745
  509MOL0     C68626   7.095   2.205   1.162 -0.5029 -0.3240 -0.6378
  509MOL0     O68627   7.030   1.788   1.118  0.2624 -0.2426  1.1894
  509MOL0     C68628   6.803   1.701   0.974 -1.1527 -0.7987  0.1114
  509MOL0     C68629   6.686   1.668   0.907  0.4635  0.4098 -0.3355
  509MOL0     N68630   5.915   2.080   0.867 -0.4213 -0.0597 -0.8523
  509MOL0     N68631   5.813   2.129   0.927 -0.7282  0.2741  0.6688
  509MOL0     C68632   4.636   2.545   1.080 -0.6762  0.2570  0.1711
  509MOL0     C68633   4.558   2.657   1.087  0.2076 -0.5086 -0.2625
  509MOL0     C68634   4.392   3.056   1.227  0.3915 -0.1818  0.2112
  509MOL0     C68635   4.278   3.043   1.302 -0.1285 -0.7142 -0.3532
  509MOL0     C68636   4.180   3.148   1.309 -0.7307  0.0393  0.5687
  509MOL0     C68637   4.202   3.264   1.228 -0.6287 -0.9733 -0.3197
  509MOL0     O68638   4.106   3.367   1.232 -0.8270  0.5872  0.7718
  509MOL0     C68639   4.154   3.495   1.168  1.3310 -0.2196  0.9285
  509MOL0     C68640   4.114   3.511   1.021 -1.0002  0.4894 -0.9275
  509MOL0     C68641   3.961   3.502   1.003 -0.4607  0.4898 -1.3564
  509MOL0     C68642   3.904   3.553   0.869 -0.5100  1.2407 -0.1061
  509MOL0     C68643   3.989   3.653   0.811  0.8196  0.1320  0.1867
  509MOL0     C68644   4.059   3.743   0.785 -0.0952  0.2797 -0.5512
  509MOL0     C68645   4.322   3.272   1.147  0.0997  0.0941 -0.4213
  509MOL0     C68646   4.423   3.176   1.154  0.1229 -0.5521  0.1453
  509MOL0     C68647   4.547   3.213   1.076 -0.1052 -1.5312 -0.7824
  509MOL0     H68648   4.557   2.701   1.428  0.0681  0.2233  0.4014
  509MOL0     H68649   4.655   2.500   1.419 -0.2082  1.6009 -0.0051
  509MOL0     H68650   4.853   2.296   1.039  2.0888  0.8227 -1.6855
  509MOL0     H68651   4.913   2.459   1.085  2.2273 -0.5961  0.8611
  509MOL0     H68652   4.937   2.196   1.263 -2.9135  0.3437  0.5629
  509MOL0     H68653   5.030   2.351   1.265  3.0435  0.1276 -1.3005
  509MOL0     H68654   5.120   2.291   1.047 -1.5716  0.0778 -1.8049
  509MOL0     H68655   5.024   2.130   1.078 -0.8826  1.1847 -0.2292
  509MOL0     H68656   5.246   2.251   1.244 -0.2610 -0.1640 -1.5633
  509MOL0     H68657   5.158   2.092   1.284 -1.7459  0.8270  0.3901
  509MOL0     H68658   5.248   1.983   1.108  0.6779 -0.6884 -0.8115
  509MOL0     H68659   5.288   2.137   1.020  0.0265  1.1914  0.8159
  509MOL0     H68660   5.447   2.161   1.245  1.0774 -1.0546 -0.0386
  509MOL0     H68661   5.431   1.984   1.238  1.1238  0.9962  1.1662
  509MOL0     H68662   5.507   2.144   1.003 -1.7422  0.1295  0.3313
  509MOL0     H68663   5.505   1.971   1.001  1.3014 -1.6011  1.5424
  509MOL0     H68664   5.702   2.139   1.163 -1.9067  1.2024  0.1249
  509MOL0     H68665   5.671   1.963   1.182 -1.7585  0.9705  0.9888
  509MOL0     H68666   5.808   1.804   1.002  4.9787 -2.2959  0.0435
  509MOL0     H68667   5.981   1.798   0.744 -0.4266 -0.1278  0.6756
  509MOL0     H68668   6.106   1.914   0.778  0.9237 -0.9593 -0.0939
  509MOL0     H68669   6.117   1.792   1.021 -0.7857 -0.2711  0.6179
  509MOL0     H68670   6.029   1.656   0.929  0.3576 -0.1128  3.1615
  509MOL0     H68671   6.214   1.648   0.762  1.8529 -3.2076  1.0466
  509MOL0     H68672   6.256   1.603   0.931  1.0381 -0.2745  0.6744
  509MOL0     H68673   6.352   1.831   0.967  0.0116 -0.2523 -0.7575
  509MOL0     H68674   6.337   1.870   0.791  1.1902  0.3812  0.0814
  509MOL0     H68675   6.521   1.970   0.947  1.5309  1.4048 -0.0631
  509MOL0     H68676   6.722   2.017   1.057 -4.1242 -1.1578  0.2080
  509MOL0     H68677   7.167   1.883   1.269 -2.6857  0.7489  1.9207
  509MOL0     H68678   7.362   2.006   1.371  0.1316 -2.0951 -0.3963
  509MOL0     H68679   7.609   2.298   1.352 -0.6140  3.4820  1.4772
  509MOL0     H68680   7.541   2.235   1.198  4.5947  1.1712  0.3769
  509MOL0     H68681   7.591   2.470   1.195  1.5838  0.8247  2.3127
  509MOL0     H68682   7.423   2.453   1.168  0.9886 -1.0138 -1.3673
  509MOL0     H68683   7.355   2.489   1.389  0.5612 -0.2746 -0.9813
  509MOL0     H68684   7.513   2.490   1.460  1.2649  0.4310 -0.7056
  509MOL0     H68685   7.393   2.702   1.280 -0.3044 -0.0869  1.9282
  509MOL0     H68686   7.559   2.712   1.323  0.9106 -1.4655 -0.1860
  509MOL0     H68687   7.474   2.688   1.576  0.2033  0.4277 -1.1334
  509MOL0     H68688   7.322   2.717   1.516  0.6015 -2.7171  2.2902
  509MOL0     H68689   7.507   2.891   1.585 -0.7552  0.1337  0.0707
  509MOL0     H68690   7.529   2.908   1.410 -1.4485 -1.7516 -2.2045
  509MOL0     H68691   7.251   2.908   1.559  1.8268 -0.3356  3.1156
  509MOL0     H68692   7.283   2.956   1.392 -0.3238  1.4557  0.6513
  509MOL0     H68693   7.388   3.118   1.625 -0.9316 -2.2402  0.1901
  509MOL0     H68694   7.410   3.143   1.449 -0.7324  1.5936 -0.9145
  509MOL0     H68695   7.215   2.369   1.231  0.1190 -0.2162  4.6014
  509MOL0     H68696   7.012   2.265   1.124 -0.8491 -0.6823 -0.4621
  509MOL0     H68697   6.882   1.627   0.978  0.8749  1.0298 -2.6774
  509MOL0     H68698   6.678   1.568   0.865 -0.3578  0.0609  0.6036
  509MOL0     H68699   4.648   2.491   0.986 -0.9778  0.8418 -0.2128
  509MOL0     H68700   4.514   2.694   0.994  2.7871  2.8826 -0.3374
  509MOL0     H68701   4.262   2.963   1.374 -2.0081  1.5710  1.9512
  509MOL0     H68702   4.086   3.131   1.361 -1.3799 -1.6985 -1.0639
  509MOL0     H68703   4.256   3.522   1.195  1.2176  0.6854  0.4814
  509MOL0     H68704   4.099   3.571   1.226 -1.8792 -2.1897  0.7303
  509MOL0     H68705   4.154   3.433   0.955  0.5273  0.0246  0.4695
  509MOL0     H68706   4.168   3.602   0.994 -0.7888 -0.2221 -3.0674
  509MOL0     H68707   3.906   3.556   1.081 -0.6296 -2.0476  0.4044
  509MOL0     H68708   3.917   3.404   1.020 -2.4145  1.6358  0.6810
  509MOL0     H68709   3.895   3.466   0.803  1.3089  0.7532  0.2208
  509MOL0     H68710   3.803   3.591   0.884  0.4483  2.5833  4.3022
  509MOL0     H68711   4.132   3.817   0.759 -0.6237  0.7958 -0.5932
  509MOL0     H68712   4.329   3.359   1.082  0.5652  1.7658  1.7516
  509MOL0     H68713   4.577   3.310   1.116  1.5576 -2.1585 -0.4302
  509MOL0     H68714   4.624   3.136   1.087 -1.2080 -2.6899 -0.9774
  509MOL0     H68715   4.521   3.238   0.973  1.0572  4.1223 -0.0361
  510MOL0     O68716   4.218   2.597   8.669  0.1904  0.1771 -0.4656
  510MOL0     C68717   4.206   2.720   8.647 -0.6740  0.0388 -0.4447
  510MOL0     O68718   4.309   2.807   8.645  0.1101 -0.2603  0.2810
  510MOL0     C68719   4.440   2.748   8.634 -0.4428  0.0307 -0.7055
  510MOL0     C68720   4.541   2.760   8.729 -0.5376 -0.3369 -0.3951
  510MOL0     C68721   4.673   2.712   8.699  1.1801  0.9855  0.3372
  510MOL0     C68722   4.696   2.659   8.571 -0.6553  0.3002 -0.6507
  510MOL0     O68723   4.829   2.619   8.538  0.4296  0.1881 -0.0937
  510MOL0     C68724   4.849   2.482   8.497 -0.6345  0.1553  0.1749
  510MOL0     C68725   4.998   2.446   8.497  0.4511 -0.0019 -0.7392
  510MOL0     C68726   5.036   2.439   8.645 -0.6224  0.2335  0.1111
  510MOL0     C68727   5.184   2.403   8.644  0.2822 -0.6648 -0.7856
  510MOL0     C68728   5.278   2.409   8.769  0.4606 -0.1183 -0.2627
  510MOL0     C68729   5.223   2.334   8.892  0.6533  0.2902  0.6997
  510MOL0     C68730   5.327   2.284   8.996  0.3185  0.4033  0.7053
  510MOL0     C68731   5.436   2.196   8.938  0.2887 -0.0330 -0.7900
  510MOL0     N68732   5.413   2.057   8.961 -0.7737  0.8811  0.5874
  510MOL0     C68733   5.517   1.992   9.022 -0.5759  0.7446  0.2748
  510MOL0     C68734   5.492   1.861   8.990  0.6571 -0.1136  1.2024
  510MOL0     C68735   5.567   1.738   9.015  0.3274 -0.3162 -0.5180
  510MOL0     C68736   5.489   1.624   9.071 -0.2488 -0.0343  0.1508
  510MOL0     C68737   5.417   1.665   9.196 -0.5022 -0.4393  0.5686
  510MOL0     C68738   5.513   1.706   9.317 -0.6508 -0.4610  0.0088
  510MOL0     O68739   5.572   1.833   9.329  0.5359  0.7289  1.1739
  510MOL0     C68740   5.483   1.941   9.328 -0.1394  0.0748 -1.5221
  510MOL0     C68741   5.345   1.933   9.357 -0.1148  0.1002  0.5808
  510MOL0     C68742   5.268   2.045   9.371 -0.0050 -0.2558  0.2051
  510MOL0     C68743   5.328   2.174   9.359  0.5083  0.1219 -0.4894
  510MOL0     C68744   5.250   2.299   9.363 -0.1144  0.1897  0.7672
  510MOL0     O68745   5.319   2.406   9.308  0.6109 -0.1027  0.1021
  510MOL0     C68746   5.259   2.535   9.299  0.0081  0.8941  0.9247
  510MOL0     C68747   5.296   2.612   9.187 -0.2268  0.3482  0.0571
  510MOL0     C68748   5.240   2.741   9.161 -0.4687 -0.2190  1.0348
  510MOL0     C68749   5.149   2.796   9.254 -0.3064  0.7021 -0.0527
  510MOL0     O68750   5.097   2.920   9.218 -0.3143 -0.0625 -0.0275
  510MOL0     C68751   5.049   2.997   9.322 -0.0519 -0.2245  0.2707
  510MOL0     C68752   5.064   3.144   9.266 -0.2275  0.0861  0.0047
  510MOL0     C68753   4.982   3.245   9.341  0.3189 -0.1778  0.5170
  510MOL0     C68754   5.036   3.392   9.322 -0.5206  0.7363  0.1326
  510MOL0     C68755   4.946   3.493   9.388  0.1411 -1.2333 -0.1521
  510MOL0     C68756   4.986   3.643   9.363  0.1387  0.2789 -0.1284
  510MOL0     C68757   5.124   3.672   9.414 -0.7265 -0.0592 -0.9931
  510MOL0     C68758   5.156   3.827   9.384  0.1212  0.1454 -0.0644
  510MOL0    Cl68759   5.333   3.877   9.408  0.1850  0.1679  0.1282
  510MOL0     C68760   5.121   2.724   9.366  1.4340  0.1016 -0.1725
  510MOL0     C68761   5.167   2.594   9.389  0.4366 -0.3667 -1.1764
  510MOL0     O68762   5.141   2.306   9.418  0.2162  0.1350  0.5364
  510MOL0     C68763   5.466   2.178   9.338 -1.4723 -0.2506 -0.1757
  510MOL0     C68764   5.535   2.063   9.327  0.0749  0.4688 -0.3169
  510MOL0     N68765   5.369   1.852   8.918 -0.0313 -0.1106  0.4152
  510MOL0     N68766   5.331   1.973   8.892  0.0838  0.2952  0.2365
  510MOL0     C68767   4.604   2.657   8.471  0.3661  0.0938 -0.0649
  510MOL0     C68768   4.476   2.697   8.505  0.1025  0.1649  0.1386
  510MOL0     C68769   4.082   2.793   8.638 -0.3731 -0.1712  0.1621
  510MOL0     C68770   4.065   2.928   8.686  0.4364  0.0342  0.7559
  510MOL0     C68771   3.936   2.987   8.688 -0.6516 -0.6131  0.3139
  510MOL0     C68772   3.817   2.927   8.650 -0.4233  0.8972 -1.0200
  510MOL0     O68773   3.689   2.980   8.633 -0.4736 -0.2518 -0.4061
  510MOL0     C68774   3.646   3.097   8.708  0.3778  0.0471  0.8975
  510MOL0     C68775   3.657   3.224   8.617  0.3868  0.6110 -0.2029
  510MOL0     C68776   3.602   3.356   8.675 -0.2248 -0.3075 -0.1492
  510MOL0     C68777   3.713   3.447   8.741  1.1857  0.2536 -0.6924
  510MOL0     C68778   3.714   3.575   8.681  0.4935 -0.8361  0.5379
  510MOL0     C68779   3.707   3.691   8.646  0.0062  0.4446 -0.4809
  510MOL0     C68780   3.835   2.798   8.608  1.4410  0.4694 -0.0641
  510MOL0     C68781   3.956   2.731   8.610 -0.2243  0.2541  0.8839
  510MOL0     C68782   3.939   2.585   8.580  0.7896 -0.1017  1.3183
  510MOL0     H68783   4.517   2.799   8.827  2.4457 -0.1128  0.3471
  510MOL0     H68784   4.739   2.709   8.786  1.6767  2.2002  0.0203
  510MOL0     H68785   4.789   2.407   8.549 -2.2845  1.9467  0.9988
  510MOL0     H68786   4.826   2.469   8.391 -0.2944  0.1902  0.0983
  510MOL0     H68787   5.050   2.531   8.452  0.0060  0.4745 -0.3740
  510MOL0     H68788   5.016   2.355   8.438  3.0624  1.7072 -2.8444
  510MOL0     H68789   4.975   2.367   8.701  2.4085 -0.6816  2.4614
  510MOL0     H68790   5.024   2.541   8.682  2.1217  1.3330 -1.6974
  510MOL0     H68791   5.182   2.300   8.608  0.3562 -1.3668  1.0858
  510MOL0     H68792   5.232   2.469   8.572 -0.6865  0.7666 -0.1731
  510MOL0     H68793   5.384   2.402   8.744  0.7081 -1.9900  1.0715
  510MOL0     H68794   5.270   2.512   8.804  1.7248 -0.1619  0.1896
  510MOL0     H68795   5.161   2.402   8.951 -0.4724 -0.7363  0.7305
  510MOL0     H68796   5.160   2.252   8.854  2.1126  0.6072 -2.8064
  510MOL0     H68797   5.287   2.232   9.084 -2.1951 -1.6151 -1.4455
  510MOL0     H68798   5.377   2.373   9.035  0.1193 -0.0004  1.9225
  510MOL0     H68799   5.449   2.208   8.830  0.6981 -3.2054 -1.1888
  510MOL0     H68800   5.530   2.231   8.982  0.9739 -2.2833 -0.3703
  510MOL0     H68801   5.610   2.018   9.072  0.3300 -1.1810 -0.3031
  510MOL0     H68802   5.597   1.702   8.915  0.7476 -0.1160 -0.4685
  510MOL0     H68803   5.658   1.749   9.075  0.7843 -0.8373 -1.0827
  510MOL0     H68804   5.423   1.582   8.994  0.6829  0.3884 -0.9006
  510MOL0     H68805   5.553   1.545   9.111  1.7138  3.1546  4.0719
  510MOL0     H68806   5.355   1.578   9.222 -0.7602 -0.1303  1.0203
  510MOL0     H68807   5.344   1.744   9.178  0.9023  0.8198  0.2339
  510MOL0     H68808   5.596   1.635   9.322  0.3298  0.5870 -0.7273
  510MOL0     H68809   5.453   1.700   9.408  0.9871  1.4843  1.3131
  510MOL0     H68810   5.297   1.836   9.370  0.4084 -0.5189 -1.5950
  510MOL0     H68811   5.162   2.042   9.394 -0.5671 -2.6582 -2.1192
  510MOL0     H68812   5.360   2.563   9.114  1.3890 -3.2586  3.4886
  510MOL0     H68813   5.258   2.801   9.073 -0.1585 -0.4874  0.9156
  510MOL0     H68814   4.948   2.967   9.351 -0.7897  2.0096  0.1961
  510MOL0     H68815   5.119   2.990   9.406  0.6080 -1.3091 -0.3463
  510MOL0     H68816   5.171   3.163   9.260  0.3928 -3.0687 -1.3686
  510MOL0     H68817   5.033   3.138   9.161 -0.4832 -0.7674  0.1160
  510MOL0     H68818   4.887   3.239   9.286  1.6758  0.9568 -2.1213
  510MOL0     H68819   4.972   3.226   9.448  0.1467 -0.0160  0.5302
  510MOL0     H68820   5.053   3.412   9.216 -0.0842  3.5529  0.6662
  510MOL0     H68821   5.130   3.401   9.377 -0.2810 -1.2353  0.1373
  510MOL0     H68822   4.936   3.466   9.493 -1.8364  0.2822  0.1107
  510MOL0     H68823   4.848   3.476   9.344  1.2742 -2.5795 -2.3325
  510MOL0     H68824   4.986   3.672   9.257 -1.8543 -2.2380 -0.9307
  510MOL0     H68825   4.910   3.706   9.410 -0.0908  0.5057 -0.7864
  510MOL0     H68826   5.196   3.604   9.367  0.5817 -1.1025  2.2207
  510MOL0     H68827   5.138   3.653   9.521  2.2306  0.1376 -1.2646
  510MOL0     H68828   5.125   3.861   9.285  2.2039  0.5054 -0.6525
  510MOL0     H68829   5.104   3.870   9.470  1.2667  2.8585 -0.6081
  510MOL0     H68830   5.079   2.768   9.456  0.4898  3.8535 -2.2220
  510MOL0     H68831   5.142   2.537   9.478 -2.0814  3.1189  0.5680
  510MOL0     H68832   5.521   2.271   9.337 -1.3952 -0.0921  3.7444
  510MOL0     H68833   5.641   2.079   9.313  0.5662 -2.2609 -0.1712
  510MOL0     H68834   4.637   2.616   8.376  0.0189  1.5653 -0.8520
  510MOL0     H68835   4.398   2.696   8.429  2.0319  1.9406 -2.0428
  510MOL0     H68836   4.150   2.990   8.712 -0.3778  1.7955 -0.5741
  510MOL0     H68837   3.920   3.080   8.740  0.0670  0.2517 -0.9535
  510MOL0     H68838   3.706   3.126   8.795 -0.0459  2.5562  0.4278
  510MOL0     H68839   3.541   3.086   8.735 -1.4114  1.9488 -4.0843
  510MOL0     H68840   3.613   3.209   8.518  3.2779  0.7658 -1.6100
  510MOL0     H68841   3.761   3.242   8.589  0.3729  1.8219  0.4697
  510MOL0     H68842   3.529   3.327   8.751  1.4491  0.6698  1.9182
  510MOL0     H68843   3.548   3.401   8.591  1.2235  0.5209 -0.6682
  510MOL0     H68844   3.681   3.453   8.846  1.6063 -1.5279 -0.4257
  510MOL0     H68845   3.810   3.399   8.754  1.2304  0.9559  2.2702
  510MOL0     H68846   3.679   3.793   8.625 -1.5524  0.0728 -0.3949
  510MOL0     H68847   3.747   2.742   8.579  0.6780  2.5940 -2.1513
  510MOL0     H68848   3.954   2.524   8.670  1.3606  0.0196  1.3122
  510MOL0     H68849   3.848   2.559   8.526  0.5933  1.3192  0.9273
  510MOL0     H68850   4.012   2.543   8.510 -1.7071 -2.4505 -0.0634
  511MOL0     O68851   1.951   7.160   5.940 -0.3871  0.0645 -0.5181
  511MOL0     C68852   1.843   7.204   5.973 -0.2035  0.1688  0.3997
  511MOL0     O68853   1.731   7.129   5.981  0.2080  0.0053 -0.1021
  511MOL0     C68854   1.725   7.000   5.929 -0.1177  0.3661  0.5711
  511MOL0     C68855   1.785   6.887   5.986  0.2010 -0.2821  1.0987
  511MOL0     C68856   1.775   6.765   5.927 -0.7395  0.6096  0.1428
  511MOL0     C68857   1.690   6.746   5.813 -0.2544  0.1212  0.4860
  511MOL0     O68858   1.664   6.616   5.775  0.3531 -0.2504  0.2421
  511MOL0     C68859   1.541   6.588   5.694 -0.1490  1.0394 -0.3782
  511MOL0     C68860   1.540   6.443   5.658 -0.4946  0.4000 -0.5372
  511MOL0     C68861   1.403   6.393   5.640 -0.7378  0.0508 -0.5380
  511MOL0     C68862   1.350   6.384   5.497  0.3483  0.0383 -0.1486
  511MOL0     C68863   1.215   6.304   5.486  0.1015  0.1047 -0.1360
  511MOL0     C68864   1.141   6.312   5.348 -0.9124  1.3213 -0.3528
  511MOL0     C68865   1.021   6.214   5.337  0.1889  0.1593  0.4044
  511MOL0     C68866   0.924   6.247   5.219  0.5720 -0.2831  1.3570
  511MOL0     N68867   0.791   6.193   5.226 -0.3306 -0.0833  0.5103
  511MOL0     C68868   0.693   6.218   5.318 -0.4131  0.0600 -0.2971
  511MOL0     C68869   0.610   6.117   5.292  0.5630  0.6910  0.4042
  511MOL0     C68870   0.493   6.079   5.370  0.3579  0.1859 -0.1265
  511MOL0     C68871   0.522   6.044   5.508  0.1332 -0.6847  1.0691
  511MOL0     C68872   0.410   5.947   5.574 -0.0569  0.5232  1.0685
  511MOL0     C68873   0.471   5.899   5.707 -0.3663 -0.8263  0.6225
  511MOL0     O68874   0.382   5.830   5.779 -0.1045  0.4747  0.7041
  511MOL0     C68875   0.427   5.780   5.906  0.1610 -0.5122  0.0969
  511MOL0     C68876   0.329   5.714   5.986  0.0801  0.0050  0.7930
  511MOL0     C68877   0.361   5.643   6.104  0.4220 -0.2613 -0.1115
  511MOL0     C68878   0.491   5.647   6.156  0.2401  0.3584  0.0416
  511MOL0     C68879   0.518   5.569   6.280 -1.2096 -0.4034  0.4183
  511MOL0     O68880   0.647   5.594   6.333  0.3743 -0.4919  0.2202
  511MOL0     C68881   0.678   5.503   6.434 -0.5846 -0.3087  0.2212
  511MOL0     C68882   0.719   5.552   6.558 -0.3760  0.2471 -0.0214
  511MOL0     C68883   0.756   5.459   6.664  0.3211  0.2116 -0.3031
  511MOL0     C68884   0.745   5.321   6.641 -0.7479  0.6581  0.1492
  511MOL0     O68885   0.788   5.240   6.741  0.2389  0.1604  0.3230
  511MOL0     C68886   0.711   5.125   6.771 -0.5757  0.1499  0.2220
  511MOL0     C68887   0.776   5.052   6.886  0.3296  0.1906 -0.1365
  511MOL0     C68888   0.726   4.906   6.912  0.1060 -0.7848  0.1402
  511MOL0     C68889   0.639   4.887   7.029 -0.7523  0.1225  0.4227
  511MOL0     C68890   0.596   4.740   7.051 -0.5626  0.6751 -0.7241
  511MOL0     C68891   0.500   4.722   7.180  0.0361  1.3151 -0.7472
  511MOL0     C68892   0.372   4.792   7.165 -0.4759  0.2089  0.4773
  511MOL0     C68893   0.276   4.745   7.268 -0.4849 -0.2954  0.8577
  511MOL0    Cl68894   0.134   4.849   7.269  0.1573  0.5341 -0.0517
  511MOL0     C68895   0.718   5.279   6.508  0.4629  0.1655  0.1862
  511MOL0     C68896   0.676   5.368   6.412  0.6033  1.1193 -0.8803
  511MOL0     O68897   0.432   5.498   6.318  0.5456 -0.0362 -0.0200
  511MOL0     C68898   0.584   5.726   6.081  0.3986  0.8827  1.0744
  511MOL0     C68899   0.558   5.794   5.959  1.0426 -0.7400 -0.1428
  511MOL0     N68900   0.660   6.037   5.198  0.5621  0.1222  0.7044
  511MOL0     N68901   0.762   6.086   5.150 -0.3088  0.5983 -1.2239
  511MOL0     C68902   1.632   6.854   5.757  0.3819  0.1933 -0.3851
  511MOL0     C68903   1.637   6.979   5.817  0.8218  0.4364  0.3026
  511MOL0     C68904   1.842   7.346   5.979 -0.4559  0.0725  0.5870
  511MOL0     C68905   1.956   7.412   6.039 -0.3488  0.2752  0.7726
  511MOL0     C68906   1.988   7.545   6.023  0.5877 -0.3878  0.8002
  511MOL0     C68907   1.901   7.628   5.957  0.4549 -1.2488 -0.2963
  511MOL0     O68908   1.930   7.758   5.952  0.0467 -0.7069  0.7225
  511MOL0     C68909   1.837   7.848   5.890  0.7864 -0.9185  0.4775
  511MOL0     C68910   1.881   7.994   5.906  1.2657 -0.3894 -1.1251
  511MOL0     C68911   1.835   8.055   6.037  0.8110 -0.1967  0.5110
  511MOL0     C68912   1.867   8.205   6.042  0.7343  0.1079  0.6486
  511MOL0     C68913   2.001   8.230   6.100  0.0064  0.9652  1.2513
  511MOL0     C68914   2.110   8.253   6.141 -0.0725  0.5086  0.5423
  511MOL0     C68915   1.783   7.568   5.900 -0.3460 -0.7293 -0.9776
  511MOL0     C68916   1.756   7.435   5.908  0.4291  0.3783  0.4301
  511MOL0     C68917   1.638   7.391   5.837  0.3092  0.3431 -0.4332
  511MOL0     H68918   1.854   6.879   6.069  2.7489  0.6699 -0.8139
  511MOL0     H68919   1.826   6.678   5.967 -0.9906  0.1063 -0.6005
  511MOL0     H68920   1.461   6.615   5.763 -1.9247  0.1228 -1.9911
  511MOL0     H68921   1.529   6.650   5.604  2.0048  0.3310 -1.2226
  511MOL0     H68922   1.589   6.386   5.738  1.7694  4.4625  1.3170
  511MOL0     H68923   1.605   6.431   5.571 -0.3834  0.8100 -0.5130
  511MOL0     H68924   1.338   6.452   5.705  1.3384  0.8771  0.9108
  511MOL0     H68925   1.404   6.293   5.684 -1.0493 -1.0538 -2.8882
  511MOL0     H68926   1.334   6.484   5.456  1.2205  1.3580  2.4656
  511MOL0     H68927   1.413   6.327   5.428 -1.9720 -3.3545  0.3091
  511MOL0     H68928   1.230   6.197   5.499 -0.7336 -0.1337 -0.9796
  511MOL0     H68929   1.143   6.332   5.565  0.2399 -0.8627  0.3441
  511MOL0     H68930   1.112   6.412   5.315 -1.5137  0.1543 -3.7532
  511MOL0     H68931   1.214   6.294   5.268  0.6620  4.0923  0.3403
  511MOL0     H68932   0.975   6.224   5.435  5.0865  2.4595  2.8270
  511MOL0     H68933   1.072   6.117   5.335  0.4377  0.2929  0.0332
  511MOL0     H68934   0.914   6.354   5.202 -1.1476 -0.7473 -0.9636
  511MOL0     H68935   0.966   6.197   5.131 -0.7330  0.6507  0.1592
  511MOL0     H68936   0.687   6.300   5.388  2.6175  1.7019 -1.7202
  511MOL0     H68937   0.420   6.159   5.384 -2.6353 -2.7328  2.7659
  511MOL0     H68938   0.437   5.995   5.330  1.2294  0.2266 -1.5161
  511MOL0     H68939   0.621   6.000   5.520  0.5546  0.6315  2.8372
  511MOL0     H68940   0.515   6.137   5.564  0.4350  1.6981 -2.5380
  511MOL0     H68941   0.397   5.858   5.512 -0.9916  0.7700  0.8989
  511MOL0     H68942   0.312   5.994   5.586  0.4481  1.1539  3.0432
  511MOL0     H68943   0.489   5.985   5.773 -2.4289 -1.2576  1.8400
  511MOL0     H68944   0.563   5.840   5.700  0.0975  0.0646 -2.5544
  511MOL0     H68945   0.224   5.719   5.955  0.2875 -1.4071 -0.2587
  511MOL0     H68946   0.279   5.601   6.161  1.1234 -0.2394  0.9439
  511MOL0     H68947   0.728   5.659   6.575  2.9010  0.0595 -0.0925
  511MOL0     H68948   0.786   5.504   6.758 -1.8538  1.4711 -0.1330
  511MOL0     H68949   0.612   5.159   6.804  0.0668  2.7702 -0.2974
  511MOL0     H68950   0.700   5.057   6.686 -1.8423  2.2468 -1.4229
  511MOL0     H68951   0.884   5.051   6.866  0.7224  1.5861  1.6071
  511MOL0     H68952   0.769   5.109   6.980 -0.4958 -1.0405  0.5718
  511MOL0     H68953   0.662   4.874   6.829 -0.7111 -2.9593  1.5138
  511MOL0     H68954   0.813   4.841   6.923  1.1985  0.2851 -1.6379
  511MOL0     H68955   0.559   4.961   7.026 -0.6044  0.2680 -0.0352
  511MOL0     H68956   0.695   4.912   7.120  1.2809  1.9621 -1.2225
  511MOL0     H68957   0.691   4.687   7.066 -1.8552 -1.2619  1.3464
  511MOL0     H68958   0.552   4.687   6.966  1.1718 -3.4275  0.6657
  511MOL0     H68959   0.473   4.616   7.189 -2.5264  1.9176 -0.6782
  511MOL0     H68960   0.552   4.760   7.268  2.4146  0.9077 -1.8896
  511MOL0     H68961   0.327   4.771   7.067  0.3365 -1.0854  0.3528
  511MOL0     H68962   0.386   4.900   7.172 -1.6286  0.3511  0.8093
  511MOL0     H68963   0.250   4.639   7.255 -0.5330 -0.1628 -0.1596
  511MOL0     H68964   0.327   4.747   7.365  0.3162  0.1512  0.4331
  511MOL0     H68965   0.713   5.174   6.481  1.3453  0.1508  0.0478
  511MOL0     H68966   0.644   5.341   6.312  1.2630 -2.5364 -0.2571
  511MOL0     H68967   0.683   5.751   6.120  1.5240  0.7693 -1.5163
  511MOL0     H68968   0.640   5.844   5.909  1.8428 -2.4948 -0.6319
  511MOL0     H68969   1.579   6.831   5.665  0.1565 -0.0758 -0.1908
  511MOL0     H68970   1.580   7.058   5.769  0.9117 -1.3167 -2.9737
  511MOL0     H68971   2.030   7.353   6.093 -1.0858  0.5961  2.1679
  511MOL0     H68972   2.078   7.582   6.071  0.4499  1.1051 -0.0478
  511MOL0     H68973   1.749   7.842   5.955  1.3896  1.3131  1.5917
  511MOL0     H68974   1.828   7.816   5.786  4.4925  0.2515 -0.3719
  511MOL0     H68975   1.844   8.053   5.822 -1.1968  1.7222  1.2465
  511MOL0     H68976   1.989   8.003   5.891  1.1734 -0.5025 -1.9018
  511MOL0     H68977   1.863   7.991   6.121  1.2210 -1.3704 -0.4843
  511MOL0     H68978   1.726   8.050   6.034  0.6550  0.7327  2.8024
  511MOL0     H68979   1.856   8.247   5.941 -0.9404 -1.5070  0.0901
  511MOL0     H68980   1.798   8.254   6.111 -1.4472 -1.3319 -0.4054
  511MOL0     H68981   2.204   8.252   6.191  0.2367 -2.4073  0.0958
  511MOL0     H68982   1.719   7.633   5.841  1.9904  2.3343 -0.4275
  511MOL0     H68983   1.553   7.421   5.898  1.9237  0.1624  2.0266
  511MOL0     H68984   1.620   7.424   5.734 -1.5021  0.5326 -0.0871
  511MOL0     H68985   1.633   7.283   5.820 -1.7949  0.2873  0.2123
  512MOL0     O68986   9.686   5.370   9.343  0.0093  0.5095 -0.3596
  512MOL0     C68987   9.725   5.317   9.446 -0.3282  0.6798  0.6727
  512MOL0     O68988   9.846   5.337   9.509 -1.2739  0.0288 -0.0484
  512MOL0     C68989   9.949   5.418   9.457  0.3697  0.5669  0.5734
  512MOL0     C68990  10.079   5.388   9.500  0.7549 -0.2381  0.5282
  512MOL0     C68991  10.195   5.457   9.452 -0.9559 -1.0245  0.2407
  512MOL0     C68992  10.171   5.561   9.357 -0.3437  0.1236 -0.5432
  512MOL0     O68993  10.278   5.624   9.296  0.1908 -0.0050 -0.2563
  512MOL0     C68994  10.266   5.756   9.243 -0.6706  0.4135 -0.2963
  512MOL0     C68995  10.388   5.779   9.161  0.8857 -0.5337  0.6604
  512MOL0     C68996  10.423   5.924   9.127 -0.0678 -0.5418 -0.3136
  512MOL0     C68997  10.300   6.002   9.067  1.0576 -0.4659 -0.0954
  512MOL0     C68998  10.263   5.985   8.926 -1.1702 -0.1605  0.3081
  512MOL0     C68999  10.193   5.863   8.886  0.3404 -0.0120 -0.8541
  512MOL0     C69000  10.038   5.871   8.911 -0.7982 -0.4263 -0.1524
  512MOL0     C69001   9.956   5.760   8.834 -0.3802 -0.8780  0.4833
  512MOL0     N69002  10.014   5.631   8.840 -0.1677  0.4641 -0.1798
  512MOL0     C69003  10.040   5.563   8.955 -0.1415 -0.4444  0.1373
  512MOL0     C69004  10.108   5.451   8.926 -0.2983 -0.3827  0.4483
  512MOL0     C69005  10.163   5.340   9.014  0.7776  0.4475 -0.0138
  512MOL0     C69006  10.058   5.283   9.118  0.9205  0.7972 -0.1802
  512MOL0     C69007  10.113   5.157   9.187  0.2880  0.6901  0.1052
  512MOL0     C69008  10.029   5.091   9.287  0.3878  0.3641 -0.5894
  512MOL0     O69009  10.108   5.024   9.380 -0.1315 -0.1948 -0.3180
  512MOL0     C69010  10.044   4.974   9.489 -0.2908  0.2030  0.0105
  512MOL0     C69011   9.914   4.929   9.486 -0.1860  0.5727  0.0044
  512MOL0     C69012   9.857   4.877   9.597 -0.2853 -1.5326 -0.4989
  512MOL0     C69013   9.931   4.870   9.722 -0.1326  0.2315  0.9999
  512MOL0     C69014   9.874   4.812   9.847 -0.9896  0.2063  1.2629
  512MOL0     O69015   9.779   4.717   9.832 -0.8434  0.6061 -0.0709
  512MOL0     C69016   9.742   4.640   9.943  0.3193  0.3475  0.1442
  512MOL0     C69017   9.815   4.608  10.068  0.2261  0.6073 -0.6598
  512MOL0     C69018   9.739   4.539  10.166 -0.5589 -0.5800  0.4078
  512MOL0     C69019   9.624   4.468  10.139 -1.1184 -0.0998  0.4479
  512MOL0     O69020   9.579   4.400  10.251  0.2003  0.3817 -0.4242
  512MOL0     C69021   9.484   4.300  10.233 -0.0386 -0.9085  0.0173
  512MOL0     C69022   9.517   4.182  10.319 -0.3253 -0.0775 -0.2028
  512MOL0     C69023   9.435   4.059  10.320  0.4251  0.3489  0.7625
  512MOL0     C69024   9.313   4.091  10.408  0.9572 -0.6631 -1.1838
  512MOL0     C69025   9.197   3.992  10.397 -0.1380  0.3543  0.1434
  512MOL0     C69026   9.156   3.961  10.258 -0.3353 -0.1218 -0.5616
  512MOL0     C69027   9.010   3.903  10.250  0.3520  0.1145 -0.5622
  512MOL0     C69028   9.011   3.760  10.281 -0.0326  0.6160 -0.8518
  512MOL0    Cl69029   9.040   3.702  10.450 -0.5964  0.3932 -0.3856
  512MOL0     C69030   9.560   4.488  10.025  1.0300 -0.9364  0.1586
  512MOL0     C69031   9.612   4.584   9.928  0.7742  0.2957 -1.2192
  512MOL0     O69032   9.921   4.853   9.949 -0.4256 -0.0490  0.4345
  512MOL0     C69033  10.061   4.917   9.728  1.1578 -0.2756  0.1175
  512MOL0     C69034  10.114   4.971   9.610 -0.7446 -0.3428  0.0688
  512MOL0     N69035  10.130   5.457   8.790 -0.1415 -0.0851 -0.6109
  512MOL0     N69036  10.072   5.563   8.745  0.3904  0.8205  0.2673
  512MOL0     C69037  10.035   5.592   9.319 -0.4676  0.8085  0.7020
  512MOL0     C69038   9.923   5.531   9.369 -0.2840 -0.4574 -0.7097
  512MOL0     C69039   9.635   5.221   9.499  0.3941  0.6957  0.0697
  512MOL0     C69040   9.544   5.146   9.421  0.2256 -0.6508  0.5208
  512MOL0     C69041   9.450   5.050   9.480  0.1763  0.5303  1.0748
  512MOL0     C69042   9.436   5.035   9.624 -0.3227 -0.7180  0.0530
  512MOL0     O69043   9.350   4.946   9.681  0.0941 -0.4013  1.1651
  512MOL0     C69044   9.410   4.850   9.775 -0.2112  0.0910  0.4461
  512MOL0     C69045   9.355   4.892   9.913  1.1577 -1.0494  0.6484
  512MOL0     C69046   9.262   4.781   9.979  0.7254 -0.3923  0.2942
  512MOL0     C69047   9.234   4.825  10.126  0.6462 -0.1669 -0.9033
  512MOL0     C69048   9.133   4.748  10.198 -0.6777 -0.3507 -0.5812
  512MOL0     C69049   9.055   4.673  10.252  0.1056  1.0665  0.2009
  512MOL0     C69050   9.529   5.115   9.701 -0.1603  0.2096 -0.2319
  512MOL0     C69051   9.625   5.201   9.640  0.7967 -0.3017  0.1920
  512MOL0     C69052   9.669   5.309   9.738  0.2435  0.4303 -0.1648
  512MOL0     H69053  10.095   5.296   9.554 -0.6428  0.2832  1.8936
  512MOL0     H69054  10.289   5.435   9.502 -2.1416 -3.2942  1.6087
  512MOL0     H69055  10.180   5.759   9.175 -0.1832  1.5670 -0.8757
  512MOL0     H69056  10.258   5.820   9.331 -2.0050 -2.5044  1.8941
  512MOL0     H69057  10.382   5.731   9.063 -2.4725  4.1456 -1.8314
  512MOL0     H69058  10.471   5.732   9.215  0.3803 -3.1848 -0.7095
  512MOL0     H69059  10.506   5.933   9.056  1.4324 -1.6358  1.2111
  512MOL0     H69060  10.466   5.968   9.218  0.5842 -4.6998  1.6277
  512MOL0     H69061  10.210   5.977   9.123  1.8041 -1.6910  0.5906
  512MOL0     H69062  10.311   6.108   9.093  4.1027  0.1340 -3.0641
  512MOL0     H69063  10.207   6.076   8.904 -0.9448 -0.0424  0.2188
  512MOL0     H69064  10.350   5.980   8.860 -0.2208  0.8847  1.4159
  512MOL0     H69065  10.200   5.834   8.781 -1.9872 -0.3058 -0.9975
  512MOL0     H69066  10.242   5.781   8.939 -0.9098 -0.4793 -0.3616
  512MOL0     H69067  10.002   5.971   8.885  0.5763  0.9214  2.5958
  512MOL0     H69068  10.017   5.873   9.019  3.0198  3.3519  0.8234
  512MOL0     H69069   9.854   5.760   8.873 -0.3049  0.4849  0.7241
  512MOL0     H69070   9.951   5.793   8.730  0.0940  0.0388  0.7388
  512MOL0     H69071  10.017   5.587   9.058  1.7356  1.8934  0.1129
  512MOL0     H69072  10.186   5.260   8.942 -2.7567  0.0239 -0.8856
  512MOL0     H69073  10.254   5.362   9.070  1.1184 -3.3505  1.2343
  512MOL0     H69074  10.024   5.351   9.197 -1.0833 -0.5533  0.2059
  512MOL0     H69075   9.964   5.268   9.064  1.7843  0.0692 -1.5285
  512MOL0     H69076  10.219   5.161   9.216  0.1419 -4.7696  2.8173
  512MOL0     H69077  10.115   5.083   9.107  0.4318  0.2143  0.5362
  512MOL0     H69078   9.964   5.017   9.239 -0.4742  1.6319 -1.4357
  512MOL0     H69079   9.962   5.165   9.332 -0.2169 -0.9329  0.7368
  512MOL0     H69080   9.851   4.926   9.397 -1.5472 -2.7496  0.9479
  512MOL0     H69081   9.757   4.836   9.613  0.0031 -1.8690  0.4631
  512MOL0     H69082   9.919   4.637  10.073  0.8281 -1.0350 -2.5996
  512MOL0     H69083   9.791   4.534  10.261  2.6642  0.1503 -1.1717
  512MOL0     H69084   9.387   4.341  10.261 -0.2804 -1.4179 -0.0684
  512MOL0     H69085   9.482   4.280  10.125 -1.5187  2.4644 -0.7282
  512MOL0     H69086   9.614   4.141  10.288 -1.1098 -2.3309  0.1297
  512MOL0     H69087   9.517   4.210  10.425 -3.1574 -0.7028  0.0238
  512MOL0     H69088   9.408   4.028  10.219 -0.2764  2.5050  0.2340
  512MOL0     H69089   9.496   3.982  10.367 -0.5991 -2.0384 -1.5890
  512MOL0     H69090   9.275   4.191  10.390 -2.2676 -1.3291  1.0201
  512MOL0     H69091   9.343   4.077  10.512 -1.3868  0.5667 -0.2717
  512MOL0     H69092   9.110   4.026  10.453  0.2265  1.3065  0.1459
  512MOL0     H69093   9.238   3.896  10.432 -2.9063  0.4920  4.4866
  512MOL0     H69094   9.150   4.054  10.200 -1.5494  0.2762  0.1852
  512MOL0     H69095   9.218   3.894  10.198 -1.1590  0.2157 -1.8323
  512MOL0     H69096   8.962   3.921  10.154 -1.1401 -0.3828  0.0613
  512MOL0     H69097   8.932   3.948  10.312 -3.9397 -1.7376 -4.0754
  512MOL0     H69098   8.908   3.729  10.264  0.5128 -1.1525 -1.1923
  512MOL0     H69099   9.082   3.703  10.220  2.8050  1.4768  1.3988
  512MOL0     H69100   9.456   4.460  10.007 -0.6090  4.6955 -0.9553
  512MOL0     H69101   9.554   4.604   9.838  0.5335  0.1765 -1.0926
  512MOL0     H69102  10.131   4.911   9.811  1.7635 -1.1075 -0.4384
  512MOL0     H69103  10.215   5.012   9.612 -1.4928  1.6017  0.0774
  512MOL0     H69104  10.006   5.673   9.253 -2.4696 -0.0408  0.4739
  512MOL0     H69105   9.824   5.572   9.352 -0.2133  0.2891  0.5744
  512MOL0     H69106   9.548   5.166   9.315 -2.4366 -0.5438  0.3802
  512MOL0     H69107   9.392   4.989   9.412  1.4411  1.8439 -1.3093
  512MOL0     H69108   9.519   4.856   9.761 -0.0263 -0.4498  1.5518
  512MOL0     H69109   9.379   4.746   9.759 -0.2606  0.3525 -1.3433
  512MOL0     H69110   9.292   4.981   9.908 -0.7018 -2.2459  1.5503
  512MOL0     H69111   9.437   4.922   9.979  1.2181  0.5966 -0.1285
  512MOL0     H69112   9.302   4.681   9.963  0.7408 -0.5379  1.2171
  512MOL0     H69113   9.165   4.768   9.929  0.0086 -3.4632  2.2370
  512MOL0     H69114   9.333   4.830  10.171  0.6488  2.4219 -1.0485
  512MOL0     H69115   9.205   4.930  10.127  2.7969  0.4959  1.3108
  512MOL0     H69116   8.983   4.605  10.292  0.8987 -1.4909 -2.3828
  512MOL0     H69117   9.523   5.102   9.808 -1.6007 -4.2130 -0.6632
  512MOL0     H69118   9.668   5.406   9.687  0.3581 -0.3423 -1.6794
  512MOL0     H69119   9.591   5.317   9.814 -0.3550 -0.6088 -0.6542
  512MOL0     H69120   9.764   5.293   9.791  0.7246  1.3686 -0.7026
  513MOL0     O69121  11.174   2.366   9.037  0.4855 -0.0182  0.0587
  513MOL0     C69122  11.227   2.257   9.053  0.0627 -0.3806  0.6620
  513MOL0     O69123  11.290   2.188   8.955 -0.1480  0.7959  0.3099
  513MOL0     C69124  11.269   2.229   8.824 -0.3350 -0.4408  0.1794
  513MOL0     C69125  11.372   2.298   8.751  1.0866 -0.2773  0.2086
  513MOL0     C69126  11.353   2.317   8.611 -0.8714 -0.3185 -1.1288
  513MOL0     C69127  11.237   2.282   8.551  0.4261 -0.7873  0.9767
  513MOL0     O69128  11.228   2.297   8.409 -0.8023  0.1681  0.1885
  513MOL0     C69129  11.134   2.402   8.371  0.6665 -0.5290  0.9167
  513MOL0     C69130  11.183   2.543   8.414 -0.2920  0.1663 -0.3806
  513MOL0     C69131  11.120   2.662   8.347 -1.1597  0.2377 -0.2404
  513MOL0     C69132  11.211   2.790   8.345  0.8108  0.3957 -0.5400
  513MOL0     C69133  11.142   2.906   8.285  0.2555  0.4886 -0.3107
  513MOL0     C69134  11.209   3.031   8.346 -0.1226 -0.2201  0.0159
  513MOL0     C69135  11.148   3.160   8.273  0.4751 -0.0153  0.0220
  513MOL0     C69136  11.234   3.286   8.295  0.6542 -0.6644 -0.1038
  513MOL0     N69137  11.365   3.279   8.227 -0.2326 -0.6087 -0.2138
  513MOL0     C69138  11.395   3.218   8.111 -0.5770  0.4503  0.7857
  513MOL0     C69139  11.523   3.239   8.089  0.0269  0.3562  0.0313
  513MOL0     C69140  11.617   3.170   7.990 -0.4494  0.2424 -0.1253
  513MOL0     C69141  11.644   3.015   8.033 -0.5761  0.1481  0.7527
  513MOL0     C69142  11.741   2.998   8.150 -0.0860  1.3071  0.7333
  513MOL0     C69143  11.809   2.864   8.160  0.1477  1.2629 -0.2126
  513MOL0     O69144  11.716   2.755   8.153  0.3901 -0.0017 -0.3424
  513MOL0     C69145  11.732   2.635   8.222 -0.3134 -0.3608  0.2059
  513MOL0     C69146  11.857   2.590   8.269  0.2601  0.4507  0.5981
  513MOL0     C69147  11.862   2.470   8.347  0.0194  0.4910 -0.1203
  513MOL0     C69148  11.745   2.395   8.367  0.0032 -0.2306  0.3504
  513MOL0     C69149  11.754   2.269   8.440 -0.5789  0.5176  0.2613
  513MOL0     O69150  11.889   2.214   8.449  0.0431  0.1763  0.0983
  513MOL0     C69151  11.906   2.098   8.506 -0.3838  0.3910  0.8877
  513MOL0     C69152  11.886   2.086   8.639  0.1826 -0.5041  0.1652
  513MOL0     C69153  11.908   1.970   8.714 -0.2810 -0.9118 -0.1315
  513MOL0     C69154  11.961   1.862   8.642  0.1873 -0.3333  0.1888
  513MOL0     O69155  11.984   1.742   8.687  0.4533  0.1144 -0.1999
  513MOL0     C69156  11.989   1.740   8.833 -0.4582  0.2463 -0.2324
  513MOL0     C69157  12.030   1.597   8.873  0.6237 -0.7264 -0.7874
  513MOL0     C69158  12.179   1.569   8.844 -0.8027 -0.0493  0.4192
  513MOL0     C69159  12.217   1.425   8.875  0.3262 -0.6151  0.6461
  513MOL0     C69160  12.203   1.380   9.030 -0.7442 -0.4198  0.3444
  513MOL0     C69161  12.331   1.420   9.100  0.4472  0.8894 -0.3397
  513MOL0     C69162  12.314   1.418   9.255 -0.7944  0.0257 -0.1663
  513MOL0     C69163  12.457   1.422   9.306 -0.1249  0.4102 -0.2964
  513MOL0    Cl69164  12.521   1.593   9.308 -0.4949 -0.4302 -0.4477
  513MOL0     C69165  11.989   1.864   8.501  0.5979 -1.2211 -1.0065
  513MOL0     C69166  11.957   1.987   8.432 -0.2554  0.0491 -0.0855
  513MOL0     O69167  11.645   2.219   8.472  0.4028 -0.2688  0.1455
  513MOL0     C69168  11.624   2.448   8.330 -0.2669 -0.5771  0.0859
  513MOL0     C69169  11.615   2.569   8.252 -0.0736 -0.6311 -0.1538
  513MOL0     N69170  11.567   3.319   8.188 -0.3347 -0.5168 -0.0256
  513MOL0     N69171  11.473   3.346   8.275 -0.3065 -0.1782 -0.1217
  513MOL0     C69172  11.133   2.228   8.620  0.4006  0.1566 -0.2387
  513MOL0     C69173  11.151   2.188   8.751 -0.4265 -0.2344 -0.6972
  513MOL0     C69174  11.212   2.194   9.193  0.3225  0.0055  0.3236
  513MOL0     C69175  11.130   2.265   9.285 -0.9510  1.3168 -0.2638
  513MOL0     C69176  11.102   2.211   9.402  0.2416 -0.2613 -0.4992
  513MOL0     C69177  11.144   2.079   9.434  0.5914  0.0834  1.1440
  513MOL0     O69178  11.119   2.009   9.552  0.6040 -0.1627 -0.4163
  513MOL0     C69179  11.048   2.077   9.653 -0.0887  0.5566  0.5773
  513MOL0     C69180  11.079   2.013   9.789  0.4019  0.5529 -1.1674
  513MOL0     C69181  11.169   2.099   9.875 -0.7159 -0.0216  0.1567
  513MOL0     C69182  11.157   2.040  10.017  0.8172  0.6526 -0.4589
  513MOL0     C69183  11.230   2.112  10.117  0.2223 -0.0935 -0.2659
  513MOL0     C69184  11.286   2.169  10.209  0.1377 -0.2934  0.1596
  513MOL0     C69185  11.227   2.019   9.341 -0.8396 -0.6647 -0.7914
  513MOL0     C69186  11.269   2.071   9.222 -0.2395 -0.0139  0.0367
  513MOL0     C69187  11.345   1.982   9.135  0.5063  0.5992 -0.6198
  513MOL0     H69188  11.471   2.307   8.796  2.4037 -1.1397 -2.3405
  513MOL0     H69189  11.442   2.357   8.564  0.2942 -0.1783  1.0743
  513MOL0     H69190  11.132   2.403   8.262 -2.7105  6.0786  0.5740
  513MOL0     H69191  11.036   2.384   8.416  0.3936  0.5267  0.7702
  513MOL0     H69192  11.291   2.540   8.400  0.2436 -1.1636  3.1447
  513MOL0     H69193  11.159   2.553   8.520 -4.3955 -1.8782 -0.9227
  513MOL0     H69194  11.024   2.681   8.397  0.5468 -0.2787  3.5130
  513MOL0     H69195  11.099   2.633   8.243 -1.1767  3.4048 -1.2348
  513MOL0     H69196  11.252   2.816   8.443  1.8319 -1.8825 -0.2895
  513MOL0     H69197  11.303   2.769   8.290  0.5121 -1.5162 -0.3935
  513MOL0     H69198  11.160   2.896   8.178 -2.7340 -0.8231 -0.7752
  513MOL0     H69199  11.035   2.914   8.305  0.3637  1.3609 -0.0390
  513MOL0     H69200  11.201   3.035   8.455  3.3975 -0.3378  0.3893
  513MOL0     H69201  11.316   3.031   8.324 -0.5996  1.3682 -2.7268
  513MOL0     H69202  11.052   3.178   8.321  0.8477  3.6374 -0.3234
  513MOL0     H69203  11.123   3.136   8.169  0.3142  1.1209 -0.2102
  513MOL0     H69204  11.178   3.373   8.258 -0.5117 -0.9129  1.0126
  513MOL0     H69205  11.249   3.310   8.400 -2.2162 -0.6725  0.3804
  513MOL0     H69206  11.328   3.158   8.050 -1.6512  1.3531  1.0354
  513MOL0     H69207  11.578   3.183   7.889 -1.1395  1.0100  0.2226
  513MOL0     H69208  11.712   3.220   8.008 -1.7477  1.3150  5.9444
  513MOL0     H69209  11.553   2.970   8.073  0.2336  0.7987  3.6286
  513MOL0     H69210  11.663   2.959   7.941  0.6318  3.0142 -0.8882
  513MOL0     H69211  11.686   3.018   8.242  0.4879 -2.6145  2.0946
  513MOL0     H69212  11.827   3.066   8.144  1.1563  0.1244  3.5013
  513MOL0     H69213  11.853   2.842   8.258 -1.8750  0.9012  0.6620
  513MOL0     H69214  11.879   2.838   8.080 -0.1589 -1.2987  0.2436
  513MOL0     H69215  11.947   2.643   8.242 -0.2941  0.6963 -0.8519
  513MOL0     H69216  11.960   2.437   8.378 -0.6379 -0.2928  1.2127
  513MOL0     H69217  11.844   2.172   8.689 -1.0773 -1.5879  1.0484
  513MOL0     H69218  11.869   1.975   8.815 -2.6026 -1.0984 -0.9561
  513MOL0     H69219  12.063   1.811   8.871  0.8210  0.4904 -2.9565
  513MOL0     H69220  11.892   1.757   8.881 -0.1571 -2.1690  1.4263
  513MOL0     H69221  11.996   1.580   8.975 -2.6504 -2.3125 -2.0298
  513MOL0     H69222  11.967   1.524   8.822  1.2233 -2.9416  1.4868
  513MOL0     H69223  12.201   1.584   8.738 -0.1991 -0.4540  0.4883
  513MOL0     H69224  12.233   1.645   8.902  1.4597  0.1812 -1.8003
  513MOL0     H69225  12.319   1.408   8.840 -0.0421  1.5267 -1.7497
  513MOL0     H69226  12.155   1.368   8.805 -0.7080  1.1473  0.0720
  513MOL0     H69227  12.186   1.273   9.049 -0.1349  0.1280  5.3849
  513MOL0     H69228  12.120   1.428   9.083  0.4474  1.7279  0.3814
  513MOL0     H69229  12.403   1.346   9.067 -3.0162 -3.0317  0.0658
  513MOL0     H69230  12.354   1.517   9.054  0.0149  0.5313 -1.3586
  513MOL0     H69231  12.253   1.333   9.286 -1.9160  0.2375 -1.6518
  513MOL0     H69232  12.256   1.506   9.285  0.3088  0.2769  1.3101
  513MOL0     H69233  12.463   1.381   9.407  5.6447 -2.4768 -1.4365
  513MOL0     H69234  12.518   1.353   9.247  1.1238 -0.3935  1.8262
  513MOL0     H69235  12.033   1.776   8.456 -0.6015 -1.9143 -0.8510
  513MOL0     H69236  11.994   1.998   8.330  0.0827  1.9183  0.2149
  513MOL0     H69237  11.529   2.398   8.349 -0.0588 -0.2975  2.0240
  513MOL0     H69238  11.526   2.610   8.205 -0.8189 -0.8126  1.0431
  513MOL0     H69239  11.039   2.205   8.570  0.7436 -0.7506 -0.4754
  513MOL0     H69240  11.066   2.135   8.793 -1.0169 -0.3290 -1.9732
  513MOL0     H69241  11.106   2.370   9.278  0.4656  1.9312  2.5666
  513MOL0     H69242  11.046   2.257   9.484  0.9270 -0.1004 -0.1130
  513MOL0     H69243  10.941   2.071   9.628  0.4770 -1.3868 -1.7114
  513MOL0     H69244  11.089   2.178   9.665  1.5338 -0.1351  1.0786
  513MOL0     H69245  11.122   1.912   9.794  1.8838  1.1824  2.5535
  513MOL0     H69246  10.981   1.997   9.835 -1.4922  1.1321 -4.6616
  513MOL0     H69247  11.137   2.204   9.878 -3.5994 -0.7760 -0.7506
  513MOL0     H69248  11.271   2.084   9.839 -1.6901 -4.9631 -1.3112
  513MOL0     H69249  11.053   2.032  10.049  1.4451 -2.2769  1.2846
  513MOL0     H69250  11.198   1.938  10.013  2.2305  1.1315  0.7818
  513MOL0     H69251  11.329   2.232  10.284 -0.3026  1.6766 -1.1714
  513MOL0     H69252  11.253   1.917   9.367 -1.9871 -0.5578  0.9643
  513MOL0     H69253  11.434   2.031   9.094  1.5105 -0.8565 -0.2390
  513MOL0     H69254  11.367   1.891   9.191  0.4947  0.9120 -0.0958
  513MOL0     H69255  11.281   1.957   9.051  0.0969 -0.9889  0.1247
  514MOL0     O69256   2.003   6.558  10.823 -0.0362 -0.7782 -0.0391
  514MOL0     C69257   2.035   6.602  10.938  0.0544  0.7461  1.1723
  514MOL0     O69258   2.127   6.532  11.014  1.0843  0.0974  0.0170
  514MOL0     C69259   2.184   6.424  10.964 -0.1537 -0.2749 -0.4509
  514MOL0     C69260   2.269   6.426  10.851 -0.5636 -0.0233  0.6966
  514MOL0     C69261   2.331   6.308  10.812 -0.5091 -0.1257  0.0521
  514MOL0     C69262   2.316   6.187  10.887  0.0144  0.1039  0.5482
  514MOL0     O69263   2.386   6.066  10.870 -0.7983  0.4399 -0.0792
  514MOL0     C69264   2.492   6.076  10.773  0.3254 -0.1512  0.3067
  514MOL0     C69265   2.594   5.950  10.782  0.1208  0.6950 -0.1483
  514MOL0     C69266   2.730   5.978  10.714  1.0327  0.2074  0.0363
  514MOL0     C69267   2.811   6.083  10.802  0.4356  0.2923  0.4758
  514MOL0     C69268   2.947   6.104  10.745 -0.1166 -0.0679  0.3394
  514MOL0     C69269   3.043   6.186  10.834 -0.0239 -0.0636  0.0131
  514MOL0     C69270   3.172   6.222  10.766 -0.4652 -0.2251  0.4495
  514MOL0     C69271   3.262   6.303  10.860 -0.3666 -0.1782 -0.8778
  514MOL0     N69272   3.271   6.235  10.995  0.0854 -1.0242  0.7863
  514MOL0     C69273   3.348   6.122  11.036  0.4191 -0.3314  0.3297
  514MOL0     C69274   3.321   6.106  11.168  0.2520  0.6479 -0.7490
  514MOL0     C69275   3.357   5.991  11.256 -0.3613  0.6032  0.5337
  514MOL0     C69276   3.509   5.968  11.269 -0.5490 -0.1426  0.7790
  514MOL0     C69277   3.574   6.084  11.346 -0.8129 -0.8272  0.4506
  514MOL0     C69278   3.726   6.093  11.319 -0.1885  0.0364 -0.6291
  514MOL0     O69279   3.770   6.214  11.381  0.9077  0.6966  0.5369
  514MOL0     C69280   3.892   6.236  11.415 -0.7223 -0.5164  0.6961
  514MOL0     C69281   3.997   6.154  11.389 -0.1147  0.4641 -0.4863
  514MOL0     C69282   4.124   6.185  11.452 -0.3255  0.2203 -0.8340
  514MOL0     C69283   4.145   6.300  11.531  0.7391 -0.4706  1.0600
  514MOL0     C69284   4.274   6.320  11.583 -0.2300  0.7251 -0.9959
  514MOL0     O69285   4.306   6.427  11.668 -1.1037 -0.0196 -0.7587
  514MOL0     C69286   4.401   6.392  11.764 -0.1302 -0.5774 -0.6670
  514MOL0     C69287   4.382   6.298  11.869  0.9315 -1.5334 -0.0594
  514MOL0     C69288   4.474   6.275  11.965 -0.4050 -0.4401 -0.4637
  514MOL0     C69289   4.602   6.331  11.952  0.3959  0.3655  0.2705
  514MOL0     O69290   4.692   6.295  12.051 -0.5923 -0.2554 -0.2461
  514MOL0     C69291   4.814   6.366  12.066 -0.2961 -0.0651  0.2479
  514MOL0     C69292   4.930   6.316  11.969 -0.5880  0.0612  0.4678
  514MOL0     C69293   5.066   6.330  12.044 -0.2586 -0.0177 -0.2599
  514MOL0     C69294   5.179   6.289  11.949  0.1370  0.3330 -0.2810
  514MOL0     C69295   5.308   6.304  12.018  0.6209  0.1110  0.3900
  514MOL0     C69296   5.423   6.237  11.932 -0.1461 -0.6499 -0.4094
  514MOL0     C69297   5.564   6.261  11.990  0.1411  0.5120  0.3944
  514MOL0     C69298   5.667   6.153  11.955 -0.5397  0.3441 -0.1625
  514MOL0    Cl69299   5.824   6.149  12.040 -0.0223  0.1532 -0.0366
  514MOL0     C69300   4.632   6.416  11.838  0.0079 -0.6737 -0.1890
  514MOL0     C69301   4.530   6.448  11.748 -0.3177 -0.5120 -0.9700
  514MOL0     O69302   4.356   6.240  11.543  0.2355  0.0788  1.0650
  514MOL0     C69303   4.029   6.386  11.550 -0.6067  1.0037 -0.7890
  514MOL0     C69304   3.907   6.347  11.499 -0.4567 -0.1809 -0.4135
  514MOL0     N69305   3.236   6.214  11.201  0.2899 -0.3731  0.9421
  514MOL0     N69306   3.195   6.286  11.099  0.1557 -0.5098  0.5885
  514MOL0     C69307   2.241   6.193  11.008 -0.2295 -0.2946  0.3020
  514MOL0     C69308   2.174   6.313  11.040  0.4258 -0.3622  1.2119
  514MOL0     C69309   1.995   6.733  10.988  0.1610 -0.0510 -0.4325
  514MOL0     C69310   2.073   6.790  11.085  0.8627 -0.8000 -0.6126
  514MOL0     C69311   2.032   6.908  11.141 -1.0733  0.3758 -0.0326
  514MOL0     C69312   1.938   6.986  11.077  0.3543 -0.4453  1.1350
  514MOL0     O69313   1.918   7.117  11.116  0.4356 -0.0373  0.1467
  514MOL0     C69314   1.805   7.097  11.203  0.1047 -0.6753 -0.7717
  514MOL0     C69315   1.736   7.225  11.256  0.0299 -0.1085  0.7528
  514MOL0     C69316   1.823   7.358  11.243  0.4848 -0.2834 -1.1225
  514MOL0     C69317   1.741   7.481  11.267 -0.3345 -0.7458  0.4672
  514MOL0     C69318   1.713   7.504  11.407  0.4439 -0.0007 -0.8959
  514MOL0     C69319   1.689   7.543  11.522  0.4386 -0.7300 -0.3658
  514MOL0     C69320   1.879   6.942  10.968 -0.2167  0.4122  0.2461
  514MOL0     C69321   1.896   6.812  10.921 -0.7984 -0.1554  0.1551
  514MOL0     C69322   1.825   6.759  10.796 -0.3472  0.3969 -0.4341
  514MOL0     H69323   2.284   6.511  10.785 -0.4438 -1.1579 -0.7997
  514MOL0     H69324   2.392   6.318  10.723 -1.1178  1.6115 -0.1871
  514MOL0     H69325   2.446   6.074  10.674  3.9591  2.2720 -1.6445
  514MOL0     H69326   2.542   6.173  10.785  0.0347  0.2579 -1.5534
  514MOL0     H69327   2.552   5.871  10.718  4.4053  0.1106 -2.6575
  514MOL0     H69328   2.614   5.905  10.880 -0.1867 -2.1443 -1.2815
  514MOL0     H69329   2.711   6.024  10.617 -1.7736  0.0047  0.4015
  514MOL0     H69330   2.782   5.885  10.688 -0.6552 -0.3855 -1.3929
  514MOL0     H69331   2.751   6.174  10.812 -1.7203 -1.1724  1.3517
  514MOL0     H69332   2.807   6.046  10.905 -2.2622  0.3252  0.4346
  514MOL0     H69333   2.992   6.008  10.716  1.9771 -0.1401  3.3014
  514MOL0     H69334   2.940   6.166  10.656  0.1286 -1.4572 -0.6883
  514MOL0     H69335   2.984   6.276  10.856 -0.6101 -0.5355  0.4120
  514MOL0     H69336   3.068   6.121  10.918  3.3097 -0.6715 -1.3034
  514MOL0     H69337   3.162   6.286  10.678 -3.0267 -2.4413 -1.0214
  514MOL0     H69338   3.230   6.136  10.730  1.3607  0.4086  1.7157
  514MOL0     H69339   3.367   6.307  10.831  0.1559  1.4059  0.9924
  514MOL0     H69340   3.227   6.404  10.884 -1.3537 -0.9115  1.0377
  514MOL0     H69341   3.395   6.054  10.967 -2.9014 -0.6129 -1.9169
  514MOL0     H69342   3.311   5.996  11.355 -1.9338 -1.1864 -0.0423
  514MOL0     H69343   3.324   5.906  11.196  2.3175 -0.9749  1.1111
  514MOL0     H69344   3.528   5.873  11.322  0.5908 -0.8381 -0.8023
  514MOL0     H69345   3.552   5.968  11.169 -0.7487  1.6966  0.6615
  514MOL0     H69346   3.557   6.060  11.451  1.6862 -3.7124  0.3336
  514MOL0     H69347   3.539   6.185  11.322 -0.9028 -0.7372  0.9510
  514MOL0     H69348   3.742   6.081  11.211  1.0898 -2.4420 -0.2382
  514MOL0     H69349   3.774   6.005  11.363 -0.3076 -0.1384 -0.8479
  514MOL0     H69350   4.003   6.053  11.349  3.2846  0.2810  0.1802
  514MOL0     H69351   4.208   6.118  11.442  1.3605  1.4575  3.0587
  514MOL0     H69352   4.288   6.246  11.877  0.7469 -0.9768  1.8642
  514MOL0     H69353   4.454   6.217  12.054 -2.6342 -0.3918 -0.8780
  514MOL0     H69354   4.815   6.475  12.052 -2.4533  0.3137  2.4256
  514MOL0     H69355   4.837   6.342  12.170 -1.8774 -1.9507  0.2093
  514MOL0     H69356   4.930   6.209  11.949 -0.2043 -0.1404  1.4890
  514MOL0     H69357   4.920   6.371  11.875 -0.3026 -0.4873  0.1131
  514MOL0     H69358   5.086   6.425  12.095 -0.8004 -0.5435  0.9774
  514MOL0     H69359   5.065   6.254  12.123  0.1115 -1.1206 -1.2988
  514MOL0     H69360   5.166   6.339  11.853 -1.5547  0.8985  0.2152
  514MOL0     H69361   5.165   6.182  11.929  3.3404 -0.0540 -1.1115
  514MOL0     H69362   5.302   6.254  12.115  0.1261 -0.4775  0.0625
  514MOL0     H69363   5.336   6.408  12.040  1.4954 -0.2158  0.8805
  514MOL0     H69364   5.400   6.130  11.926  3.0812 -1.3985 -1.0281
  514MOL0     H69365   5.408   6.270  11.829 -3.4073 -1.1486 -0.1952
  514MOL0     H69366   5.561   6.251  12.099  2.7954  0.6050  0.5510
  514MOL0     H69367   5.585   6.364  11.960  0.6408  1.0677  2.4415
  514MOL0     H69368   5.624   6.053  11.968 -0.5071  0.0701 -1.8743
  514MOL0     H69369   5.674   6.158  11.846 -0.9041 -1.0900 -0.2751
  514MOL0     H69370   4.733   6.444  11.810 -0.7037  1.5062 -0.7595
  514MOL0     H69371   4.564   6.501  11.659  4.4334  1.0061  1.3665
  514MOL0     H69372   4.045   6.472  11.614  1.2778 -0.9484  1.5726
  514MOL0     H69373   3.822   6.412  11.513 -1.8338 -2.2256  1.3858
  514MOL0     H69374   2.212   6.101  11.059  2.4927 -2.7959 -2.2822
  514MOL0     H69375   2.115   6.309  11.131  0.7934 -1.1271  1.4318
  514MOL0     H69376   2.165   6.744  11.120  0.9077 -1.9672 -2.1787
  514MOL0     H69377   2.076   6.954  11.229  0.3692  2.1169 -1.5621
  514MOL0     H69378   1.835   7.046  11.295 -0.9192  1.6947  0.9706
  514MOL0     H69379   1.729   7.033  11.156  0.6351 -1.7129 -0.2539
  514MOL0     H69380   1.699   7.222  11.359 -0.6941  2.2121  0.6093
  514MOL0     H69381   1.645   7.241  11.198  0.5923  0.5374  0.0368
  514MOL0     H69382   1.865   7.352  11.142  4.9569  2.5588  0.3088
  514MOL0     H69383   1.913   7.360  11.305 -0.6008  0.4011  0.4894
  514MOL0     H69384   1.805   7.564  11.237 -0.9367  0.1386  1.5689
  514MOL0     H69385   1.649   7.492  11.208 -0.6112 -2.7518  0.4441
  514MOL0     H69386   1.665   7.591  11.615 -0.3983 -1.9963  0.0995
  514MOL0     H69387   1.810   7.006  10.914  1.5558 -0.0031 -2.7149
  514MOL0     H69388   1.775   6.663  10.809  3.0307 -1.6480 -1.2725
  514MOL0     H69389   1.753   6.832  10.758 -2.5169 -1.0838  0.6394
  514MOL0     H69390   1.901   6.757  10.718  0.8226 -0.5605  0.6758
  515MOL0     O69391   7.429   8.749   4.343  0.0086 -0.3763  0.1714
  515MOL0     C69392   7.366   8.781   4.240 -0.0496  0.1382 -0.1722
  515MOL0     O69393   7.422   8.810   4.122 -0.2255  0.4315 -0.3830
  515MOL0     C69394   7.554   8.815   4.112 -0.4508  0.5009 -0.0615
  515MOL0     C69395   7.630   8.935   4.103 -0.5865  0.0799  0.1358
  515MOL0     C69396   7.769   8.939   4.091  0.2590 -0.2748 -0.5676
  515MOL0     C69397   7.844   8.823   4.080  0.6467  0.2903 -0.0130
  515MOL0     O69398   7.980   8.817   4.085 -0.3535 -0.4456 -0.1529
  515MOL0     C69399   8.042   8.856   3.960 -0.3849 -0.5177  0.1538
  515MOL0     C69400   8.048   8.738   3.859 -0.5772  0.3118 -0.9234
  515MOL0     C69401   8.053   8.777   3.720 -0.1028 -0.2153  0.3710
  515MOL0     C69402   8.181   8.850   3.698  0.2115 -0.1761 -0.0979
  515MOL0     C69403   8.226   8.839   3.557 -0.2791  0.4333 -0.6415
  515MOL0     C69404   8.355   8.914   3.525  0.3003  0.4348 -0.5723
  515MOL0     C69405   8.408   8.876   3.390 -0.3763 -0.2926  1.0797
  515MOL0     C69406   8.556   8.909   3.360 -0.3414 -0.4534  0.1717
  515MOL0     N69407   8.643   8.797   3.397 -0.0025 -0.5945  0.3649
  515MOL0     C69408   8.694   8.704   3.311 -0.3905  0.6545 -0.1402
  515MOL0     C69409   8.785   8.630   3.386  0.4509  0.1492  0.2678
  515MOL0     C69410   8.874   8.509   3.345 -0.9793  0.4968 -0.2574
  515MOL0     C69411   8.792   8.393   3.270 -0.2110  0.0030 -1.0087
  515MOL0     C69412   8.838   8.243   3.297  0.2586 -0.1941 -0.4937
  515MOL0     C69413   8.776   8.145   3.202 -0.4962 -0.1736 -0.3753
  515MOL0     O69414   8.627   8.131   3.193 -0.2248  0.0231 -0.2386
  515MOL0     C69415   8.578   8.047   3.099  0.3315  0.1843 -0.2741
  515MOL0     C69416   8.443   8.069   3.075 -0.1092  0.1991 -0.0699
  515MOL0     C69417   8.371   7.982   2.993  0.2783 -0.5771  0.5685
  515MOL0     C69418   8.442   7.880   2.918 -0.5128  0.3242 -0.1670
  515MOL0     C69419   8.366   7.786   2.836  0.0163  0.4845 -0.4574
  515MOL0     O69420   8.236   7.806   2.789 -0.4835  0.0238  0.2617
  515MOL0     C69421   8.149   7.712   2.752 -0.4342 -0.2712 -0.6704
  515MOL0     C69422   8.157   7.576   2.784 -0.6914 -0.7066 -0.7076
  515MOL0     C69423   8.061   7.475   2.748  0.7980 -0.2387  0.3885
  515MOL0     C69424   7.954   7.526   2.665 -0.8210  0.5109 -0.5041
  515MOL0     O69425   7.848   7.447   2.625 -0.2443  0.2852  0.1428
  515MOL0     C69426   7.882   7.337   2.535 -0.5604 -0.2630 -0.4668
  515MOL0     C69427   7.772   7.233   2.539 -0.2779  0.0097  0.5018
  515MOL0     C69428   7.799   7.113   2.447  0.6736 -0.5465 -0.5057
  515MOL0     C69429   7.743   7.138   2.302  0.7850  0.5470 -0.5361
  515MOL0     C69430   7.778   7.034   2.189 -0.0503 -0.2093 -0.1333
  515MOL0     C69431   7.752   6.888   2.226 -0.5451  0.2584 -1.0623
  515MOL0     C69432   7.611   6.844   2.268 -0.6104  0.0907 -0.1147
  515MOL0     C69433   7.509   6.843   2.150 -0.9604 -0.2543 -0.3679
  515MOL0    Cl69434   7.441   7.008   2.134  0.6317 -0.6327 -0.1561
  515MOL0     C69435   7.949   7.662   2.627 -1.0172 -0.1750 -0.4423
  515MOL0     C69436   8.042   7.753   2.668 -0.0379  0.3139  0.4744
  515MOL0     O69437   8.427   7.678   2.829  0.1349 -0.4527 -0.0021
  515MOL0     C69438   8.582   7.859   2.941  0.1887 -0.3950 -0.8164
  515MOL0     C69439   8.647   7.948   3.035  0.3553 -0.5109  1.1209
  515MOL0     N69440   8.789   8.689   3.513 -0.6547 -0.5297  0.7307
  515MOL0     N69441   8.701   8.781   3.521 -0.3504 -0.2798 -0.0820
  515MOL0     C69442   7.766   8.710   4.089 -0.1317 -0.5225 -0.0310
  515MOL0     C69443   7.629   8.706   4.095 -0.3971 -0.5171  0.2356
  515MOL0     C69444   7.213   8.784   4.259  0.2739  0.0013 -0.6184
  515MOL0     C69445   7.142   8.804   4.142 -0.4078 -0.2301  0.4474
  515MOL0     C69446   7.003   8.797   4.131 -0.7796 -0.4520 -0.2931
  515MOL0     C69447   6.933   8.784   4.250 -0.5152  0.0345  0.2444
  515MOL0     O69448   6.794   8.784   4.263  0.0928  0.3442 -0.5551
  515MOL0     C69449   6.715   8.715   4.159 -0.1156 -0.2162 -0.3811
  515MOL0     C69450   6.565   8.719   4.192  0.0487 -0.0378  0.0151
  515MOL0     C69451   6.530   8.701   4.346  0.6484 -0.4551 -0.5722
  515MOL0     C69452   6.383   8.699   4.369  0.0141 -0.7886 -0.0199
  515MOL0     C69453   6.335   8.576   4.309 -0.3437  0.6415  0.1723
  515MOL0     C69454   6.315   8.463   4.262 -0.6360  0.2845 -0.2164
  515MOL0     C69455   6.998   8.766   4.372  0.0934 -1.2937 -0.2973
  515MOL0     C69456   7.140   8.763   4.379  0.3683 -0.7429  0.1980
  515MOL0     C69457   7.194   8.763   4.515  0.7352  0.4465  0.1340
  515MOL0     H69458   7.569   9.025   4.109  0.3652  0.7424  0.1807
  515MOL0     H69459   7.805   9.041   4.102 -1.1039 -0.0555  3.2922
  515MOL0     H69460   7.996   8.943   3.913  3.0876  0.9311 -0.8843
  515MOL0     H69461   8.141   8.891   3.992 -0.2462 -0.8700  0.1125
  515MOL0     H69462   7.956   8.680   3.872 -1.0094  1.3339  0.8614
  515MOL0     H69463   8.121   8.660   3.880  0.7445  1.5318 -0.9062
  515MOL0     H69464   7.973   8.847   3.694  0.3895  0.1859 -0.1017
  515MOL0     H69465   8.053   8.686   3.660 -1.0550 -2.0119  2.9134
  515MOL0     H69466   8.178   8.956   3.726  0.9060  0.4019 -2.0124
  515MOL0     H69467   8.271   8.805   3.741  0.3887 -0.9411 -1.2147
  515MOL0     H69468   8.234   8.733   3.533  0.5865  0.3155  0.0730
  515MOL0     H69469   8.145   8.880   3.496 -1.1045 -1.7527 -1.0942
  515MOL0     H69470   8.342   9.022   3.539 -0.0855  0.3473 -0.2492
  515MOL0     H69471   8.432   8.899   3.602 -1.0124  0.2762  0.7596
  515MOL0     H69472   8.348   8.927   3.314  0.8674 -0.7734 -0.2603
  515MOL0     H69473   8.397   8.769   3.372  0.7312 -0.0879 -1.1158
  515MOL0     H69474   8.571   8.901   3.252 -1.6849 -0.4871 -0.0292
  515MOL0     H69475   8.578   9.011   3.393 -0.0405 -0.8657  1.2959
  515MOL0     H69476   8.677   8.691   3.205 -1.3314  0.2613  0.0459
  515MOL0     H69477   8.949   8.536   3.269 -1.7277  0.1917 -1.1257
  515MOL0     H69478   8.922   8.468   3.434  1.5182  0.9672 -1.2892
  515MOL0     H69479   8.693   8.385   3.318 -0.4135 -1.0198 -1.5836
  515MOL0     H69480   8.788   8.414   3.163  0.4338  0.0752 -1.0191
  515MOL0     H69481   8.812   8.198   3.393  1.8265 -0.8384 -0.3410
  515MOL0     H69482   8.947   8.238   3.294  0.3931  0.1453  2.0257
  515MOL0     H69483   8.812   8.054   3.250 -0.2616  0.9450  1.6555
  515MOL0     H69484   8.838   8.145   3.112  0.7844 -1.2492  0.4716
  515MOL0     H69485   8.383   8.147   3.120 -0.4825  0.8238 -1.5736
  515MOL0     H69486   8.264   7.995   2.983  0.0425 -2.6333 -0.1905
  515MOL0     H69487   8.241   7.539   2.841 -0.1210 -1.0951 -1.7652
  515MOL0     H69488   8.064   7.373   2.784  0.7635 -1.2313 -2.1738
  515MOL0     H69489   7.898   7.385   2.438  2.9605  3.3866  1.5704
  515MOL0     H69490   7.974   7.295   2.575 -1.6823  2.6725  6.7168
  515MOL0     H69491   7.770   7.199   2.643  0.7679  0.3206  0.6315
  515MOL0     H69492   7.670   7.269   2.520  0.0348 -0.1192 -1.7439
  515MOL0     H69493   7.907   7.095   2.436  0.4711 -0.1993 -4.9051
  515MOL0     H69494   7.762   7.019   2.489 -1.1489 -0.1362 -1.0860
  515MOL0     H69495   7.777   7.238   2.274  2.1245 -0.3511 -2.3400
  515MOL0     H69496   7.636   7.144   2.323  0.4540  1.1251 -2.1897
  515MOL0     H69497   7.884   7.046   2.166 -0.8981  0.0175 -4.7718
  515MOL0     H69498   7.729   7.068   2.098 -1.8812 -1.5466  0.2788
  515MOL0     H69499   7.783   6.836   2.135  3.0590  2.5310 -1.3398
  515MOL0     H69500   7.814   6.851   2.308 -1.6294  0.3413 -0.1789
  515MOL0     H69501   7.569   6.894   2.356 -1.1266 -2.8802  1.4912
  515MOL0     H69502   7.622   6.739   2.297 -1.7264 -1.5497 -4.8117
  515MOL0     H69503   7.560   6.820   2.057  0.1348 -0.6161  0.3021
  515MOL0     H69504   7.436   6.763   2.166 -0.7653 -0.2679  0.5481
  515MOL0     H69505   7.857   7.686   2.574 -1.0734 -1.4781 -0.9595
  515MOL0     H69506   8.042   7.854   2.630  1.0812  0.2592  0.2817
  515MOL0     H69507   8.641   7.783   2.890  0.4956 -2.8091  2.8063
  515MOL0     H69508   8.750   7.924   3.061  1.3283 -0.9420 -2.5572
  515MOL0     H69509   7.811   8.611   4.091 -0.9283 -0.8941 -0.0996
  515MOL0     H69510   7.580   8.611   4.081  0.5734 -0.9565 -0.2656
  515MOL0     H69511   7.194   8.801   4.047 -1.6110 -1.3409 -0.2230
  515MOL0     H69512   6.944   8.808   4.040 -1.9934  1.0003  0.6060
  515MOL0     H69513   6.758   8.614   4.166  5.0995  1.5191 -2.0333
  515MOL0     H69514   6.732   8.762   4.061 -1.8537  1.6866  0.1705
  515MOL0     H69515   6.519   8.634   4.142 -1.2643 -1.9348  4.0361
  515MOL0     H69516   6.521   8.811   4.152 -0.4611  0.0187  0.6871
  515MOL0     H69517   6.571   8.785   4.404 -0.9498 -0.1910  0.2316
  515MOL0     H69518   6.578   8.610   4.383 -0.2218 -0.5469  0.3605
  515MOL0     H69519   6.343   8.704   4.471 -1.0745 -1.2540 -0.4228
  515MOL0     H69520   6.344   8.786   4.316 -0.7794 -2.1583 -1.7957
  515MOL0     H69521   6.323   8.359   4.240 -1.1800  0.2635 -0.3293
  515MOL0     H69522   6.945   8.759   4.466  2.2955 -1.4007  1.0147
  515MOL0     H69523   7.206   8.662   4.555 -0.1003  0.3264  0.0969
  515MOL0     H69524   7.288   8.818   4.525  0.3049  1.4334 -0.9798
  515MOL0     H69525   7.124   8.820   4.577  0.6807  2.2028 -1.4555
  516MOL0     O69526   8.103   9.534   1.257  0.6050 -0.2836 -0.6101
  516MOL0     C69527   8.063   9.651   1.297  0.1200 -0.2065 -0.0760
  516MOL0     O69528   8.138   9.730   1.369  0.0782 -1.1316  0.3594
  516MOL0     C69529   8.275   9.724   1.374 -0.0073 -0.8947 -0.2537
  516MOL0     C69530   8.337   9.758   1.489  0.2856 -0.1524 -0.1783
  516MOL0     C69531   8.472   9.777   1.494 -0.4021 -1.4346  0.3993
  516MOL0     C69532   8.551   9.771   1.377 -0.4555  0.1784 -0.3729
  516MOL0     O69533   8.685   9.792   1.368 -0.5432  0.6899  0.4649
  516MOL0     C69534   8.769   9.864   1.453  0.0645 -0.7158 -1.0569
  516MOL0     C69535   8.913   9.843   1.401  0.1833  0.5316 -0.2344
  516MOL0     C69536   9.009   9.905   1.491  0.2987  0.1272 -0.1290
  516MOL0     C69537   9.140   9.919   1.410 -0.4597 -0.4248 -0.7107
  516MOL0     C69538   9.264   9.985   1.482 -0.8479 -0.0384  0.2407
  516MOL0     C69539   9.395   9.956   1.416 -0.6058  0.5242 -0.0088
  516MOL0     C69540   9.433   9.814   1.465 -0.3311  0.2601  0.1717
  516MOL0     C69541   9.572   9.787   1.412 -0.1981  0.1131  0.6489
  516MOL0     N69542   9.567   9.772   1.261  0.1782  0.4330 -0.1571
  516MOL0     C69543   9.511   9.665   1.193 -0.4229  0.0514 -0.2890
  516MOL0     C69544   9.561   9.691   1.067 -1.0414  0.2980  1.1776
  516MOL0     C69545   9.542   9.598   0.945 -0.4892 -0.4258 -0.6646
  516MOL0     C69546   9.653   9.503   0.939 -1.0264  0.8061  0.1987
  516MOL0     C69547   9.642   9.440   0.804  0.3885  0.2407  0.0901
  516MOL0     C69548   9.705   9.292   0.799 -0.3038 -0.8101 -0.4983
  516MOL0     O69549   9.620   9.192   0.857 -0.4280  0.9943  0.2601
  516MOL0     C69550   9.663   9.062   0.866  0.5070 -0.6027  0.3670
  516MOL0     C69551   9.783   9.011   0.803 -0.1692  1.5324 -0.0253
  516MOL0     C69552   9.813   8.876   0.814  0.3309  0.2235 -0.2538
  516MOL0     C69553   9.729   8.791   0.893  0.5425 -0.1176 -0.2978
  516MOL0     C69554   9.758   8.651   0.920 -1.2156  0.6273  0.2529
  516MOL0     O69555   9.860   8.590   0.852 -0.3825 -0.0226 -0.6174
  516MOL0     C69556   9.885   8.458   0.866 -0.2882 -0.8972  0.5288
  516MOL0     C69557  10.013   8.411   0.837  0.6470  0.0425  0.5571
  516MOL0     C69558  10.035   8.277   0.817  0.2480 -0.1716  0.4144
  516MOL0     C69559   9.939   8.173   0.835  1.1461 -0.0608 -0.0853
  516MOL0     O69560   9.969   8.040   0.824 -0.2438  0.8585 -0.3027
  516MOL0     C69561   9.887   7.935   0.874  0.6076  0.5911 -0.7825
  516MOL0     C69562   9.901   7.945   1.023  0.1033  0.5924  0.3926
  516MOL0     C69563   9.818   7.846   1.105 -1.2372  0.6788 -1.1694
  516MOL0     C69564   9.861   7.703   1.062  0.1231  0.5121 -0.1498
  516MOL0     C69565   9.774   7.593   1.126 -0.2330  0.2503  0.7329
  516MOL0     C69566   9.821   7.451   1.105 -0.1558  0.4027 -0.9981
  516MOL0     C69567   9.932   7.417   1.202 -0.4846  0.5345  1.0867
  516MOL0     C69568   9.981   7.270   1.207  0.7480  0.2880 -0.3029
  516MOL0    Cl69569   9.883   7.171   1.322 -0.0050  0.0586  0.2893
  516MOL0     C69570   9.811   8.230   0.873 -0.5572 -0.6136 -0.4319
  516MOL0     C69571   9.778   8.370   0.878 -0.2225  0.1055  0.3895
  516MOL0     O69572   9.686   8.599   1.002 -1.0998 -0.4997  0.0386
  516MOL0     C69573   9.615   8.847   0.960 -0.8766  0.0958 -0.4110
  516MOL0     C69574   9.591   8.982   0.955  0.7452 -0.6814  0.7588
  516MOL0     N69575   9.643   9.807   1.068  0.5622  0.6159  0.0773
  516MOL0     N69576   9.643   9.849   1.192 -0.5163 -0.4325  0.1025
  516MOL0     C69577   8.485   9.743   1.256  0.0716 -0.2863 -1.1533
  516MOL0     C69578   8.345   9.716   1.254 -0.1172 -0.2348 -0.5484
  516MOL0     C69579   7.929   9.695   1.275  0.1428  1.2461 -0.2375
  516MOL0     C69580   7.878   9.677   1.136  0.0439 -0.1139 -0.2634
  516MOL0     C69581   7.745   9.716   1.113 -0.9847 -0.0960 -0.1742
  516MOL0     C69582   7.669   9.775   1.212  0.1575  0.2776  0.1136
  516MOL0     O69583   7.533   9.814   1.186 -0.1830  0.6225  0.6266
  516MOL0     C69584   7.502   9.950   1.218  0.0819  0.6503 -0.4097
  516MOL0     C69585   7.541  10.041   1.102 -0.0001 -0.6761  0.0273
  516MOL0     C69586   7.463  10.027   0.970  0.0147  0.3638  0.2374
  516MOL0     C69587   7.494   9.910   0.881 -0.0100  0.4062 -0.6416
  516MOL0     C69588   7.628   9.902   0.823 -0.0103  0.0392  0.2911
  516MOL0     C69589   7.738   9.883   0.809 -0.5947 -0.0452  0.3486
  516MOL0     C69590   7.715   9.787   1.342  1.3972 -0.0144 -0.1642
  516MOL0     C69591   7.842   9.749   1.383 -1.0706 -0.6788 -0.1924
  516MOL0     C69592   7.885   9.780   1.531 -0.3053 -0.2577  0.7119
  516MOL0     H69593   8.270   9.753   1.575 -2.1137 -1.6470 -2.0246
  516MOL0     H69594   8.509   9.796   1.594 -3.5062  2.0206  1.1148
  516MOL0     H69595   8.742   9.970   1.455 -0.4678 -0.7871 -3.0021
  516MOL0     H69596   8.760   9.825   1.555  2.6178  0.0004 -0.4658
  516MOL0     H69597   8.913   9.884   1.300  0.3984  1.1567  0.0163
  516MOL0     H69598   8.929   9.735   1.390 -0.3092  0.6458 -2.6741
  516MOL0     H69599   9.027   9.854   1.586  0.9129 -0.4336 -0.5416
  516MOL0     H69600   8.975  10.006   1.518 -0.1513  0.3417 -1.4121
  516MOL0     H69601   9.166   9.817   1.383  3.1669 -0.0521  0.8576
  516MOL0     H69602   9.119   9.973   1.317 -6.6467  1.8010  1.4161
  516MOL0     H69603   9.252  10.091   1.503 -0.4236 -0.0973  0.8081
  516MOL0     H69604   9.255   9.946   1.584 -1.8824 -2.2933 -0.6416
  516MOL0     H69605   9.389   9.952   1.307  0.7214 -2.6532 -0.0878
  516MOL0     H69606   9.474  10.028   1.436 -0.8679  0.8880 -0.2769
  516MOL0     H69607   9.355   9.745   1.431 -0.0716 -1.5298  2.9059
  516MOL0     H69608   9.439   9.808   1.574 -1.5167  0.4145  0.2532
  516MOL0     H69609   9.646   9.858   1.449  1.7961 -2.8211  2.8193
  516MOL0     H69610   9.593   9.686   1.450 -0.3635  0.2062  0.9915
  516MOL0     H69611   9.448   9.581   1.222 -0.3539 -0.7242 -2.2452
  516MOL0     H69612   9.449   9.546   0.970  0.6188 -0.4457  4.5699
  516MOL0     H69613   9.530   9.654   0.852  4.3360  1.1187 -0.6408
  516MOL0     H69614   9.754   9.543   0.954 -0.2502 -1.4101  1.5408
  516MOL0     H69615   9.636   9.429   1.017  1.5417  2.5243  2.5564
  516MOL0     H69616   9.705   9.504   0.741 -1.1756  1.3376 -0.4258
  516MOL0     H69617   9.542   9.442   0.760  0.3107  2.2232  0.2595
  516MOL0     H69618   9.802   9.290   0.850  0.4291 -1.4942 -1.8576
  516MOL0     H69619   9.730   9.261   0.697 -2.8329 -3.2250 -0.5251
  516MOL0     H69620   9.847   9.065   0.734 -0.8703  1.8599 -0.4229
  516MOL0     H69621   9.895   8.822   0.768  0.7248  1.2380 -0.7617
  516MOL0     H69622  10.093   8.485   0.828 -0.5832  1.4819  1.0629
  516MOL0     H69623  10.129   8.235   0.783 -0.2559 -0.2154 -0.9647
  516MOL0     H69624   9.783   7.949   0.843  0.7933 -0.3216 -1.8877
  516MOL0     H69625   9.920   7.838   0.837  1.0138 -0.2159  1.5421
  516MOL0     H69626  10.009   7.936   1.035  0.0568 -1.3235 -0.2037
  516MOL0     H69627   9.865   8.044   1.050 -1.5434 -0.2148  1.3066
  516MOL0     H69628   9.826   7.872   1.211  1.0671  1.2584 -1.4238
  516MOL0     H69629   9.711   7.848   1.084 -1.1683  3.2605 -1.6319
  516MOL0     H69630   9.959   7.671   1.099 -0.3704 -2.3904 -1.0710
  516MOL0     H69631   9.859   7.683   0.955 -0.3588  2.4128 -0.5255
  516MOL0     H69632   9.672   7.601   1.088  0.1641  0.8659 -0.2514
  516MOL0     H69633   9.768   7.615   1.233  3.1578 -1.5162  1.4295
  516MOL0     H69634   9.736   7.383   1.114  0.8616 -0.7443  0.1847
  516MOL0     H69635   9.866   7.445   1.006 -1.4797  1.3650 -1.7004
  516MOL0     H69636   9.905   7.454   1.301  0.6272  1.9486  0.9089
  516MOL0     H69637  10.019   7.483   1.187 -0.1599  0.3619  2.1043
  516MOL0     H69638   9.981   7.222   1.110 -1.0845 -3.3139  1.3085
  516MOL0     H69639  10.088   7.273   1.232  1.6690 -2.1629 -3.3863
  516MOL0     H69640   9.730   8.164   0.901 -2.2706  0.5699 -2.3254
  516MOL0     H69641   9.672   8.392   0.886 -0.3880  0.5184 -2.0673
  516MOL0     H69642   9.555   8.791   1.031 -0.4050  1.1924  0.9011
  516MOL0     H69643   9.497   9.019   0.995 -0.1508  0.8773 -2.4884
  516MOL0     H69644   8.543   9.746   1.164  2.4583  3.4940  0.2241
  516MOL0     H69645   8.307   9.688   1.157  1.4837  2.0127 -1.9041
  516MOL0     H69646   7.935   9.633   1.055 -2.2907 -1.7048 -1.1533
  516MOL0     H69647   7.702   9.685   1.019 -0.5149 -0.5287 -0.2539
  516MOL0     H69648   7.548   9.984   1.311  1.3003 -1.9823  0.0506
  516MOL0     H69649   7.395   9.936   1.236 -0.4118 -0.7199 -3.6567
  516MOL0     H69650   7.646  10.018   1.082  0.1285  0.2302 -0.4017
  516MOL0     H69651   7.534  10.148   1.124 -1.2224 -0.9590  1.1348
  516MOL0     H69652   7.475  10.122   0.916 -1.0502 -0.2325 -1.1216
  516MOL0     H69653   7.358  10.023   0.999 -0.1810  0.4438 -0.4427
  516MOL0     H69654   7.494   9.812   0.929  1.8608  0.9005  0.5076
  516MOL0     H69655   7.420   9.915   0.801  0.3892  0.7791 -0.9928
  516MOL0     H69656   7.842   9.858   0.798 -0.8474 -0.7197 -0.7897
  516MOL0     H69657   7.642   9.814   1.418  0.5478  1.8549 -1.5573
  516MOL0     H69658   7.945   9.872   1.536  0.7900 -0.8003 -1.1949
  516MOL0     H69659   7.807   9.803   1.604  0.0427 -2.6185  1.9258
  516MOL0     H69660   7.950   9.695   1.556 -1.4457 -1.4435 -0.2068
  517MOL0     O69661   5.329   6.785  11.389 -0.7421 -0.1078  0.4379
  517MOL0     C69662   5.260   6.742  11.294  0.5805  0.1822  0.1212
  517MOL0     O69663   5.130   6.785  11.264 -0.1873  0.2263 -0.4722
  517MOL0     C69664   5.050   6.863  11.351 -0.8318 -0.1476 -0.3302
  517MOL0     C69665   5.080   6.883  11.483  0.7880 -0.2849  0.0492
  517MOL0     C69666   4.995   6.967  11.565  0.0758  0.7283 -0.6861
  517MOL0     C69667   4.873   7.018  11.520 -0.0370  1.1072  0.3719
  517MOL0     O69668   4.797   7.099  11.595  0.4561 -0.2277 -0.1158
  517MOL0     C69669   4.759   7.223  11.528 -0.3803  0.5417 -0.2431
  517MOL0     C69670   4.643   7.291  11.613  0.5105 -0.6895  0.4233
  517MOL0     C69671   4.676   7.287  11.757 -0.2048 -0.2172 -0.3362
  517MOL0     C69672   4.571   7.347  11.852  0.2415  0.6504  0.1896
  517MOL0     C69673   4.635   7.360  11.986  0.1102 -0.0946 -0.3399
  517MOL0     C69674   4.521   7.412  12.086  0.2416  0.3816 -0.0607
  517MOL0     C69675   4.587   7.494  12.199 -0.2587 -0.5620 -0.2542
  517MOL0     C69676   4.489   7.575  12.286 -0.7815 -0.4390 -0.5467
  517MOL0     N69677   4.564   7.653  12.384 -0.1475 -0.4251  0.4774
  517MOL0     C69678   4.597   7.788  12.382 -0.1516 -0.6174 -0.0857
  517MOL0     C69679   4.662   7.816  12.496  0.2334 -0.5338  0.1737
  517MOL0     C69680   4.707   7.953  12.543  0.8676 -0.7908  1.0357
  517MOL0     C69681   4.633   8.078  12.486 -0.1381 -0.2766 -0.1023
  517MOL0     C69682   4.532   8.138  12.592 -0.0664 -0.4429  0.0263
  517MOL0     C69683   4.457   8.245  12.523 -0.2692 -0.9481 -0.0826
  517MOL0     O69684   4.520   8.377  12.534 -0.3037 -0.1254 -0.3576
  517MOL0     C69685   4.470   8.494  12.474 -0.4624  0.5460  0.1669
  517MOL0     C69686   4.331   8.524  12.479 -0.6742  0.4766  0.7259
  517MOL0     C69687   4.277   8.632  12.424 -0.2526  1.1600  0.1394
  517MOL0     C69688   4.361   8.729  12.361  0.4648 -0.4989  0.0809
  517MOL0     C69689   4.292   8.844  12.305 -0.5673  0.1701 -0.1571
  517MOL0     O69690   4.161   8.871  12.340  0.2851 -0.1277 -0.0652
  517MOL0     C69691   4.084   8.968  12.278  1.6943  1.1322  1.2083
  517MOL0     C69692   4.137   9.082  12.218  0.6685 -0.2544  0.6364
  517MOL0     C69693   4.049   9.173  12.159 -0.2188  0.1055  0.2794
  517MOL0     C69694   3.914   9.169  12.188  0.1633 -0.9206  1.8360
  517MOL0     O69695   3.833   9.278  12.155 -0.0718 -0.6702 -0.2290
  517MOL0     C69696   3.882   9.407  12.113 -0.0210 -0.0617 -0.6543
  517MOL0     C69697   3.770   9.507  12.158 -0.6838  0.4818  0.3424
  517MOL0     C69698   3.624   9.462  12.118 -0.2837  0.2240 -0.6727
  517MOL0     C69699   3.541   9.556  12.199  0.2683  0.6525  0.5092
  517MOL0     C69700   3.397   9.538  12.170  0.7734 -0.2713 -0.0798
  517MOL0     C69701   3.299   9.622  12.259 -0.5428 -1.0213  0.7130
  517MOL0     C69702   3.277   9.552  12.392  0.2811  0.6168  0.7860
  517MOL0     C69703   3.236   9.643  12.503 -0.1404 -0.6938  0.2578
  517MOL0    Cl69704   3.354   9.779  12.525  0.1709 -0.3533  0.2980
  517MOL0     C69705   3.860   9.061  12.257  0.8223 -0.4771  0.2797
  517MOL0     C69706   3.946   8.953  12.302  1.2925 -0.6062 -0.0779
  517MOL0     O69707   4.368   8.901  12.220 -1.5635  1.4629 -0.1504
  517MOL0     C69708   4.502   8.703  12.357  0.7162 -0.0072  0.2253
  517MOL0     C69709   4.553   8.586  12.412 -0.0093  0.0596  0.2697
  517MOL0     N69710   4.688   7.699  12.563  0.6608 -0.3094 -0.0809
  517MOL0     N69711   4.637   7.601  12.489 -0.2091 -0.7251 -0.2812
  517MOL0     C69712   4.842   6.980  11.389  0.3571 -0.2917  0.6664
  517MOL0     C69713   4.929   6.913  11.304  0.2833 -0.3929  0.1177
  517MOL0     C69714   5.325   6.630  11.216  0.0533 -0.7524  0.0034
  517MOL0     C69715   5.438   6.572  11.275  0.4191  0.1970  0.4599
  517MOL0     C69716   5.513   6.472  11.209  0.0749 -0.1897 -0.9145
  517MOL0     C69717   5.464   6.408  11.088  0.2335 -0.2403  0.1088
  517MOL0     O69718   5.517   6.306  11.003 -0.4406 -0.2012 -0.6730
  517MOL0     C69719   5.637   6.244  11.038 -0.4610 -0.2486  0.3352
  517MOL0     C69720   5.746   6.306  10.952  0.7139 -0.7191 -0.4897
  517MOL0     C69721   5.830   6.405  11.038  0.5110  1.2197 -1.0931
  517MOL0     C69722   5.963   6.442  10.962  0.4963  0.7244  0.1706
  517MOL0     C69723   6.063   6.339  10.997 -0.1482 -0.5305 -0.5607
  517MOL0     C69724   6.140   6.247  11.027 -0.0431 -0.0642  0.7490
  517MOL0     C69725   5.339   6.457  11.036  0.7529  0.0162  0.1999
  517MOL0     C69726   5.279   6.568  11.099  0.1567  0.4109  0.9124
  517MOL0     C69727   5.168   6.626  11.015 -0.1702  0.0393 -0.7184
  517MOL0     H69728   5.160   6.839  11.543 -1.0887 -2.5174  1.0613
  517MOL0     H69729   5.034   6.982  11.665  1.4085 -1.9139 -0.7217
  517MOL0     H69730   4.851   7.281  11.533 -0.2955  0.4083 -0.2743
  517MOL0     H69731   4.704   7.213  11.433 -1.0521 -0.5208  0.2343
  517MOL0     H69732   4.558   7.226  11.590  0.5774  0.0019 -2.1724
  517MOL0     H69733   4.614   7.391  11.579  0.6936 -0.6041  0.5159
  517MOL0     H69734   4.770   7.343  11.768  0.8662 -1.7392 -1.3237
  517MOL0     H69735   4.688   7.187  11.800  0.4165  0.6433  1.6112
  517MOL0     H69736   4.538   7.443  11.811  0.9547  0.3430 -1.1699
  517MOL0     H69737   4.487   7.277  11.850  0.7384  0.0392  0.1477
  517MOL0     H69738   4.664   7.259  12.015 -2.0263 -0.6921 -0.0966
  517MOL0     H69739   4.728   7.417  11.990  0.9029 -1.3712 -0.0689
  517MOL0     H69740   4.456   7.486  12.037  0.0844 -0.5953 -1.3535
  517MOL0     H69741   4.462   7.342  12.146 -2.3171  1.0341 -1.6741
  517MOL0     H69742   4.648   7.569  12.148 -2.2113  0.3726 -1.3817
  517MOL0     H69743   4.657   7.438  12.262 -1.4566  1.6161  3.3096
  517MOL0     H69744   4.425   7.637  12.223 -0.7273 -0.9522 -1.1254
  517MOL0     H69745   4.424   7.502  12.335  0.1433 -0.7317  0.2818
  517MOL0     H69746   4.587   7.867  12.309  0.5034  0.5543  1.0426
  517MOL0     H69747   4.709   7.960  12.652  2.3455 -0.6685  1.0202
  517MOL0     H69748   4.814   7.970  12.524  0.1386  3.9442 -0.3155
  517MOL0     H69749   4.700   8.158  12.454 -2.6258  2.7178  1.6302
  517MOL0     H69750   4.572   8.049  12.400  2.7965 -2.0821 -1.7311
  517MOL0     H69751   4.585   8.179  12.678  0.7939  0.8141 -1.0491
  517MOL0     H69752   4.455   8.065  12.618  1.6820 -2.3480  0.0901
  517MOL0     H69753   4.357   8.257  12.565 -0.6711  0.1500 -1.2723
  517MOL0     H69754   4.452   8.224  12.416  1.9767 -0.6802 -0.2957
  517MOL0     H69755   4.258   8.456  12.522 -0.5173 -0.0914  0.1010
  517MOL0     H69756   4.169   8.643  12.419 -0.5350 -0.7829  1.0429
  517MOL0     H69757   4.243   9.105  12.221  0.7777 -0.6695  0.1756
  517MOL0     H69758   4.083   9.259  12.101  0.1525 -0.7630 -0.8285
  517MOL0     H69759   3.974   9.451  12.152  0.5809 -1.0973 -0.8684
  517MOL0     H69760   3.891   9.413  12.005  1.9534  4.3493 -0.4366
  517MOL0     H69761   3.782   9.502  12.266  2.8954 -0.6983  0.0337
  517MOL0     H69762   3.795   9.610  12.132  1.0365  0.7369  2.6934
  517MOL0     H69763   3.611   9.478  12.011 -3.9911  2.8983 -0.0101
  517MOL0     H69764   3.596   9.359  12.143 -0.2957  0.8332  2.2795
  517MOL0     H69765   3.550   9.664  12.180 -1.2152  1.1114  2.1250
  517MOL0     H69766   3.558   9.542  12.306 -0.1962 -0.0128  0.4986
  517MOL0     H69767   3.357   9.437  12.181 -3.0012  0.8345 -2.0131
  517MOL0     H69768   3.394   9.568  12.065  2.2441 -2.6591 -0.8818
  517MOL0     H69769   3.344   9.721  12.275 -0.1610  0.0482 -4.8041
  517MOL0     H69770   3.204   9.631  12.207 -0.5429  1.6331  1.0293
  517MOL0     H69771   3.366   9.497  12.424 -1.1474 -0.4977  3.1135
  517MOL0     H69772   3.192   9.486  12.376 -1.4092  2.5485  1.3695
  517MOL0     H69773   3.137   9.685  12.481  0.4932  1.9758  1.9953
  517MOL0     H69774   3.216   9.579  12.589 -4.6761  0.2962  0.2192
  517MOL0     H69775   3.753   9.052  12.269  0.1387  1.0610 -3.3516
  517MOL0     H69776   3.916   8.858  12.346 -0.5081 -1.6663 -3.2629
  517MOL0     H69777   4.567   8.765  12.297  0.1562  2.6263  2.1372
  517MOL0     H69778   4.660   8.569  12.410  0.2288  1.4274  0.4914
  517MOL0     H69779   4.745   7.006  11.348  0.2251  1.2574  1.8581
  517MOL0     H69780   4.889   6.905  11.203 -0.8067 -0.1674  0.5199
  517MOL0     H69781   5.477   6.611  11.369  1.5969 -1.7130  0.8145
  517MOL0     H69782   5.603   6.432  11.255 -0.8425 -2.1969 -0.7505
  517MOL0     H69783   5.630   6.139  11.008  2.6039 -0.1136 -1.2861
  517MOL0     H69784   5.652   6.247  11.146 -0.5748  0.2953  0.3356
  517MOL0     H69785   5.703   6.374  10.878  1.4043 -0.8212 -1.0017
  517MOL0     H69786   5.810   6.230  10.907 -0.0449 -1.7299  0.1240
  517MOL0     H69787   5.860   6.351  11.128 -0.9294 -1.2372 -2.0135
  517MOL0     H69788   5.773   6.493  11.068 -0.8466 -0.7555  2.6829
  517MOL0     H69789   5.951   6.434  10.854 -2.4130 -0.2950  0.4898
  517MOL0     H69790   5.989   6.544  10.994 -0.9371  1.3594 -0.5744
  517MOL0     H69791   6.202   6.160  11.030 -2.9852 -2.3182  0.6783
  517MOL0     H69792   5.284   6.403  10.960  0.8589 -2.3361  1.6960
  517MOL0     H69793   5.167   6.568  10.922  3.7353 -3.6423  1.1688
  517MOL0     H69794   5.072   6.593  11.057 -1.3878  0.0809 -3.2688
  517MOL0     H69795   5.164   6.735  11.007  3.7976  0.3863 -0.1452
  518MOL0     O69796   0.873   5.728   0.134  0.1553  0.0941  0.0023
  518MOL0     C69797   0.980   5.735   0.073 -0.1042 -0.2548 -0.7281
  518MOL0     O69798   1.095   5.778   0.121  0.0657  0.4563 -1.3269
  518MOL0     C69799   1.101   5.786   0.257  1.0490  0.3309 -0.2709
  518MOL0     C69800   1.144   5.681   0.337 -0.2991 -0.1348  0.3384
  518MOL0     C69801   1.157   5.686   0.468 -0.6493  0.9187  0.8413
  518MOL0     C69802   1.116   5.796   0.546 -0.9949  0.5989 -0.1017
  518MOL0     O69803   1.130   5.808   0.685  0.4325  0.4520  0.5384
  518MOL0     C69804   1.210   5.707   0.752 -0.9440 -1.1401  0.9498
  518MOL0     C69805   1.270   5.770   0.880  0.0362 -1.1948 -0.0428
  518MOL0     C69806   1.156   5.804   0.980 -0.0101  0.0573  0.0199
  518MOL0     C69807   1.215   5.826   1.116 -0.5340 -0.4047  1.2119
  518MOL0     C69808   1.111   5.909   1.203  0.0029 -0.3275  0.0255
  518MOL0     C69809   1.160   6.061   1.211 -0.5346  0.3696 -0.5802
  518MOL0     C69810   1.076   6.140   1.304 -0.2380  0.1672  0.0706
  518MOL0     C69811   1.105   6.295   1.306 -1.2939  0.5144  0.1320
  518MOL0     N69812   1.212   6.331   1.405  0.3875 -0.1589 -0.0556
  518MOL0     C69813   1.176   6.347   1.537  0.3951 -0.0658 -1.0196
  518MOL0     C69814   1.275   6.285   1.606 -0.1661 -0.8526 -0.2972
  518MOL0     C69815   1.281   6.259   1.761  0.4245  0.1134 -0.0007
  518MOL0     C69816   1.305   6.104   1.779 -0.0371 -0.0501 -0.4554
  518MOL0     C69817   1.311   6.058   1.919 -0.3758  0.9680 -0.0010
  518MOL0     C69818   1.206   6.093   2.020 -0.1825 -0.2954  0.1642
  518MOL0     O69819   1.093   6.007   2.011  0.1998 -0.0331 -0.1619
  518MOL0     C69820   1.065   5.915   2.101 -0.0329  0.0650  0.4073
  518MOL0     C69821   1.072   5.780   2.060  0.5304  0.1099 -0.5273
  518MOL0     C69822   1.035   5.675   2.148 -0.6327 -0.7899  0.4594
  518MOL0     C69823   0.992   5.713   2.276 -0.8125  0.1487 -0.4823
  518MOL0     C69824   0.961   5.610   2.378  0.8416 -0.1594 -1.2100
  518MOL0     O69825   0.946   5.641   2.511 -0.7548  0.1770  0.3210
  518MOL0     C69826   0.877   5.554   2.585  0.9537  0.2217 -0.4830
  518MOL0     C69827   0.738   5.576   2.599 -1.1634 -0.1639  0.7275
  518MOL0     C69828   0.668   5.499   2.694 -0.2966 -0.2000 -0.2589
  518MOL0     C69829   0.726   5.395   2.770  0.3967 -0.9797  0.4824
  518MOL0     O69830   0.638   5.335   2.856 -0.1885  0.5779 -0.2685
  518MOL0     C69831   0.694   5.233   2.941 -0.0977  0.3597  0.1441
  518MOL0     C69832   0.585   5.192   3.043 -0.1983  0.0151 -0.0319
  518MOL0     C69833   0.651   5.097   3.142  0.1578 -0.1995 -0.0564
  518MOL0     C69834   0.548   5.050   3.251 -0.2181 -0.0668  0.8003
  518MOL0     C69835   0.489   5.160   3.344 -0.2115  1.2257 -0.6988
  518MOL0     C69836   0.597   5.199   3.446  0.0084 -0.2242 -1.2974
  518MOL0     C69837   0.540   5.280   3.564  0.5867 -0.6544  0.5385
  518MOL0     C69838   0.634   5.386   3.611  0.1560 -0.2117 -0.1282
  518MOL0    Cl69839   0.779   5.310   3.666 -0.2076 -0.0100  0.0440
  518MOL0     C69840   0.865   5.367   2.742  1.4879  0.3196 -0.5015
  518MOL0     C69841   0.936   5.441   2.648 -0.7908  0.2150 -1.3590
  518MOL0     O69842   0.966   5.494   2.338  0.5891  0.4675 -0.0994
  518MOL0     C69843   0.993   5.844   2.320 -0.8167  0.2321 -0.1014
  518MOL0     C69844   1.028   5.944   2.226  0.5988 -0.1583 -0.4342
  518MOL0     N69845   1.378   6.248   1.523  0.3733 -0.1939 -0.2602
  518MOL0     N69846   1.330   6.265   1.407  0.0003  0.2818  0.4227
  518MOL0     C69847   1.055   5.896   0.471 -0.5824  0.3851 -0.0059
  518MOL0     C69848   1.043   5.889   0.336 -0.5274  0.4498 -0.0800
  518MOL0     C69849   0.984   5.675  -0.069 -0.5070  0.4659 -0.2757
  518MOL0     C69850   0.875   5.709  -0.151  0.9048  0.4799 -0.0347
  518MOL0     C69851   0.872   5.669  -0.279  0.1063  0.2270  0.1888
  518MOL0     C69852   0.971   5.597  -0.335 -0.8469  0.5910 -0.3297
  518MOL0     O69853   0.936   5.560  -0.465  0.2314 -0.3051  0.0576
  518MOL0     C69854   1.037   5.513  -0.562  0.6315 -0.6701 -0.1203
  518MOL0     C69855   0.974   5.507  -0.698 -0.2904  0.6275  0.5321
  518MOL0     C69856   1.060   5.439  -0.805 -0.9106  0.4330  0.4445
  518MOL0     C69857   1.000   5.417  -0.946  0.5726 -0.4731  0.6973
  518MOL0     C69858   1.010   5.535  -1.026  0.5304 -0.3682 -0.1428
  518MOL0     C69859   1.024   5.634  -1.098 -0.2810  0.0844 -0.0868
  518MOL0     C69860   1.089   5.566  -0.259  0.1782  0.6962  0.6537
  518MOL0     C69861   1.100   5.607  -0.130 -0.0957  0.3011 -0.1272
  518MOL0     C69862   1.215   5.574  -0.050 -0.5918 -0.3521 -0.2916
  518MOL0     H69863   1.163   5.587   0.286 -1.5790  0.1223 -0.6520
  518MOL0     H69864   1.194   5.594   0.513 -1.1109  1.1371  1.6803
  518MOL0     H69865   1.141   5.624   0.771 -3.4331  1.1151  2.5429
  518MOL0     H69866   1.292   5.677   0.686 -1.1869  0.6260 -0.2412
  518MOL0     H69867   1.330   5.858   0.857  2.8760 -2.7617  0.8707
  518MOL0     H69868   1.338   5.693   0.916 -1.4360 -0.3144  5.5224
  518MOL0     H69869   1.089   5.718   0.991 -1.6834  0.9929 -2.1100
  518MOL0     H69870   1.107   5.895   0.943  0.9028  0.5723  0.0595
  518MOL0     H69871   1.227   5.729   1.166 -0.9630 -0.7289  0.6908
  518MOL0     H69872   1.312   5.876   1.121 -0.6553 -0.2025  1.6478
  518MOL0     H69873   1.011   5.894   1.162  1.1085  1.4130 -3.8395
  518MOL0     H69874   1.104   5.865   1.303 -5.4584 -0.9628 -0.3599
  518MOL0     H69875   1.268   6.071   1.229  0.1029 -3.2180 -1.5512
  518MOL0     H69876   1.142   6.109   1.114 -0.2080  0.4448 -0.6056
  518MOL0     H69877   1.085   6.107   1.408  2.0554  0.1590 -0.0671
  518MOL0     H69878   0.976   6.137   1.262 -0.4812 -1.9881  0.6761
  518MOL0     H69879   1.143   6.325   1.208  0.2933  2.7214  1.3325
  518MOL0     H69880   1.014   6.354   1.321 -1.9252 -0.5964  0.7941
  518MOL0     H69881   1.083   6.383   1.581  0.4421 -0.7791 -0.3064
  518MOL0     H69882   1.362   6.319   1.804 -0.9694  1.5967  0.6762
  518MOL0     H69883   1.188   6.296   1.806 -0.4303  0.4338 -1.9491
  518MOL0     H69884   1.228   6.046   1.726 -1.1900 -0.1949  1.3007
  518MOL0     H69885   1.403   6.071   1.742  1.0110  0.4853  1.6897
  518MOL0     H69886   1.407   6.089   1.961  0.1295 -2.9972  2.1643
  518MOL0     H69887   1.327   5.951   1.912  1.6366  0.9648  3.0089
  518MOL0     H69888   1.175   6.198   2.014 -1.4878 -0.6153  0.9667
  518MOL0     H69889   1.253   6.086   2.118 -0.5024  2.2274  0.5610
  518MOL0     H69890   1.092   5.750   1.957 -1.4297 -1.0870 -0.6300
  518MOL0     H69891   1.030   5.573   2.113 -2.9294 -0.6864  0.3181
  518MOL0     H69892   0.686   5.662   2.559 -0.8590 -1.3689 -2.5678
  518MOL0     H69893   0.567   5.531   2.719  0.8290  1.7886  2.1783
  518MOL0     H69894   0.731   5.150   2.880 -1.7203 -3.0250  3.3775
  518MOL0     H69895   0.786   5.262   2.993  0.4213 -0.7182 -0.1352
  518MOL0     H69896   0.553   5.287   3.088 -1.1075 -1.0105  1.5989
  518MOL0     H69897   0.498   5.154   2.989  0.0731 -1.9061  0.8078
  518MOL0     H69898   0.698   5.012   3.091  1.3910  1.9791 -2.8109
  518MOL0     H69899   0.736   5.150   3.186  0.6255 -0.8918 -0.1112
  518MOL0     H69900   0.592   4.973   3.316 -1.6015 -1.8189 -0.2521
  518MOL0     H69901   0.469   5.019   3.183 -1.0395  3.4009 -0.0221
  518MOL0     H69902   0.399   5.136   3.402 -0.0157  0.4436 -0.7150
  518MOL0     H69903   0.465   5.243   3.277 -0.2421  1.4409 -0.4228
  518MOL0     H69904   0.645   5.111   3.489 -1.9657 -1.0556 -0.6836
  518MOL0     H69905   0.671   5.255   3.388  0.4914 -2.5635 -3.0890
  518MOL0     H69906   0.498   5.218   3.645 -3.1386  1.4663  0.4797
  518MOL0     H69907   0.446   5.324   3.528  0.6135 -1.0691 -0.0423
  518MOL0     H69908   0.672   5.446   3.528  0.3150  0.0602  0.1394
  518MOL0     H69909   0.585   5.453   3.683  1.5866  1.4664 -0.6322
  518MOL0     H69910   0.917   5.297   2.806 -1.1314 -1.3374 -0.0472
  518MOL0     H69911   1.041   5.417   2.632 -1.2425 -2.1207 -1.1556
  518MOL0     H69912   0.979   5.870   2.424 -0.3752  0.4026 -0.0802
  518MOL0     H69913   1.002   6.044   2.257  0.0377  0.1994 -1.9837
  518MOL0     H69914   1.000   5.975   0.522 -0.9160 -0.0143  0.2580
  518MOL0     H69915   0.980   5.968   0.298 -1.7289 -0.0730  0.7541
  518MOL0     H69916   0.781   5.757  -0.123  0.6523  2.0186 -3.1351
  518MOL0     H69917   0.780   5.684  -0.335 -0.0969  0.0373  0.4690
  518MOL0     H69918   1.066   5.415  -0.522  1.1028 -1.0219 -1.2646
  518MOL0     H69919   1.132   5.566  -0.552  0.0692 -0.1572  3.9980
  518MOL0     H69920   0.951   5.607  -0.736 -0.4311  0.7102  0.8353
  518MOL0     H69921   0.872   5.469  -0.689  0.0382 -0.2353  0.6589
  518MOL0     H69922   1.095   5.342  -0.769 -2.6137 -0.2376  0.3861
  518MOL0     H69923   1.152   5.498  -0.818  2.2484 -4.1261 -0.4354
  518MOL0     H69924   1.051   5.340  -1.005  0.5960  1.0859 -1.4208
  518MOL0     H69925   0.899   5.381  -0.925  0.2835 -0.5307 -0.7222
  518MOL0     H69926   1.030   5.721  -1.160 -0.2853  0.1248 -0.0320
  518MOL0     H69927   1.167   5.514  -0.315 -0.2742  4.0060 -3.6068
  518MOL0     H69928   1.271   5.659  -0.011 -1.8391 -0.9252  3.1140
  518MOL0     H69929   1.186   5.525   0.043  3.4085 -1.1040  0.7344
  518MOL0     H69930   1.282   5.499  -0.094 -0.9122 -1.5361  1.1465
  519MOL0     O69931   1.366   4.770   8.399 -0.4556 -0.0989 -0.1066
  519MOL0     C69932   1.261   4.717   8.422  0.0276  0.2698 -0.6964
  519MOL0     O69933   1.146   4.778   8.399  1.0069  0.0990  0.0159
  519MOL0     C69934   1.131   4.912   8.365 -0.0224  0.3979  0.8060
  519MOL0     C69935   1.070   4.998   8.450 -0.1195 -0.5890  0.7152
  519MOL0     C69936   1.073   5.132   8.422  0.6325  0.0795 -0.2483
  519MOL0     C69937   1.113   5.176   8.291 -0.7576  0.0685  0.2240
  519MOL0     O69938   1.085   5.304   8.256  0.3648  0.3170  1.3014
  519MOL0     C69939   1.175   5.373   8.163 -0.3012  0.1917  0.2636
  519MOL0     C69940   1.131   5.519   8.179  0.3345 -0.3950  0.4845
  519MOL0     C69941   0.991   5.543   8.122 -0.3679  0.2099 -1.5474
  519MOL0     C69942   0.994   5.578   7.971  0.1585 -0.4820 -0.6757
  519MOL0     C69943   0.866   5.600   7.903 -0.2866  0.0686  0.1019
  519MOL0     C69944   0.891   5.673   7.778 -0.3131  0.0003  0.4247
  519MOL0     C69945   0.777   5.689   7.682  0.5792 -0.0992 -0.5385
  519MOL0     C69946   0.751   5.572   7.571  1.0471  0.0629  0.3503
  519MOL0     N69947   0.770   5.432   7.611  0.2523  0.2617  0.2082
  519MOL0     C69948   0.868   5.337   7.565  1.0996  0.7812 -0.0117
  519MOL0     C69949   0.852   5.226   7.639 -0.0280  0.1592  0.0014
  519MOL0     C69950   0.940   5.109   7.638 -1.1424  0.6212  0.8161
  519MOL0     C69951   1.070   5.146   7.702 -0.5202  0.1470  0.2743
  519MOL0     C69952   1.056   5.134   7.863 -0.4266  0.1976 -0.0693
  519MOL0     C69953   1.072   4.987   7.914  0.9765  0.3320 -0.0907
  519MOL0     O69954   1.198   4.933   7.889 -0.0437  0.5234  0.5418
  519MOL0     C69955   1.220   4.811   7.943 -0.0945  0.2604 -0.1709
  519MOL0     C69956   1.330   4.747   7.886  0.2549  0.6404 -0.4468
  519MOL0     C69957   1.365   4.615   7.927 -0.0495 -1.1014 -0.1334
  519MOL0     C69958   1.294   4.555   8.027  0.0555 -0.1809 -0.0103
  519MOL0     C69959   1.332   4.417   8.067 -0.2880  0.0854  0.1062
  519MOL0     O69960   1.252   4.352   8.153 -0.3766  0.2755 -0.2501
  519MOL0     C69961   1.283   4.238   8.220 -0.5530 -0.2744 -0.3746
  519MOL0     C69962   1.188   4.194   8.311 -0.0561 -0.2890 -0.5292
  519MOL0     C69963   1.216   4.073   8.391  0.2875  0.2132  0.0681
  519MOL0     C69964   1.339   4.001   8.385 -0.1152  0.0195 -0.4147
  519MOL0     O69965   1.353   3.895   8.467  0.2676 -0.0431  0.1328
  519MOL0     C69966   1.373   3.775   8.398  1.0460  0.0743  0.7408
  519MOL0     C69967   1.330   3.665   8.501  1.1157 -0.5871 -0.6704
  519MOL0     C69968   1.406   3.541   8.474  0.3911  0.8917 -0.8087
  519MOL0     C69969   1.360   3.435   8.575 -0.4189  0.5740  0.5286
  519MOL0     C69970   1.453   3.314   8.540 -0.2966  0.2117 -1.1326
  519MOL0     C69971   1.420   3.202   8.647 -0.2323  0.1220  0.3134
  519MOL0     C69972   1.474   3.060   8.604 -0.1613 -0.4728 -0.0353
  519MOL0     C69973   1.520   2.980   8.720 -0.7436 -1.1626 -0.2877
  519MOL0    Cl69974   1.371   2.917   8.795  0.0739 -0.0646 -0.2301
  519MOL0     C69975   1.429   4.052   8.288 -0.0447  0.0789 -0.3900
  519MOL0     C69976   1.398   4.158   8.203 -0.2654  0.5577 -0.4794
  519MOL0     O69977   1.442   4.385   8.035  0.1059 -0.2325  0.2095
  519MOL0     C69978   1.173   4.618   8.074  0.0615  0.5354  0.6740
  519MOL0     C69979   1.138   4.744   8.033  0.2346 -0.7170  0.1429
  519MOL0     N69980   0.741   5.241   7.709 -0.7668  0.0053  0.0615
  519MOL0     N69981   0.693   5.361   7.702  0.8454  0.1041 -0.6086
  519MOL0     C69982   1.184   5.087   8.215 -0.9612 -0.5557 -0.1826
  519MOL0     C69983   1.197   4.960   8.256 -0.3654  0.8246  0.9046
  519MOL0     C69984   1.259   4.591   8.503 -0.1581 -0.2737  0.1479
  519MOL0     C69985   1.159   4.576   8.593  0.3671 -0.7680 -0.2593
  519MOL0     C69986   1.146   4.471   8.688 -1.3037 -0.0202 -0.0855
  519MOL0     C69987   1.254   4.376   8.687  0.3477 -0.5782  0.2067
  519MOL0     O69988   1.253   4.268   8.774  0.4127  0.8067  0.1503
  519MOL0     C69989   1.153   4.257   8.873 -0.4900 -0.0288  0.4403
  519MOL0     C69990   1.192   4.129   8.949  0.3559 -0.6597  0.1156
  519MOL0     C69991   1.190   3.999   8.860 -0.0456 -0.3879 -0.5937
  519MOL0     C69992   1.055   3.947   8.816 -0.7091 -0.4635  0.2711
  519MOL0     C69993   0.951   3.921   8.924 -0.7751 -0.5953 -0.0265
  519MOL0     C69994   0.888   3.877   9.018  0.1578  0.4621 -0.4608
  519MOL0     C69995   1.362   4.395   8.602  0.0616 -0.1120 -1.3546
  519MOL0     C69996   1.359   4.490   8.508 -0.5144 -1.3488  0.8867
  519MOL0     C69997   1.479   4.493   8.419 -0.3734 -1.3075  0.5232
  519MOL0     H69998   1.014   4.954   8.532  0.7776 -3.1376  0.0581
  519MOL0     H69999   1.022   5.206   8.482 -0.8670  1.1800 -2.6992
  519MOL0     H70000   1.276   5.362   8.204  0.1364 -3.2689 -1.3593
  519MOL0     H70001   1.165   5.348   8.057  1.6930  2.2041 -0.5072
  519MOL0     H70002   1.205   5.577   8.123 -0.3643  2.0920  2.0182
  519MOL0     H70003   1.147   5.541   8.285  0.5303  2.4877 -0.0627
  519MOL0     H70004   0.966   5.632   8.180  0.3616 -1.7851  2.1073
  519MOL0     H70005   0.911   5.470   8.138 -2.6057  2.8848  0.3010
  519MOL0     H70006   1.070   5.656   7.958 -0.2520 -0.2863 -2.0905
  519MOL0     H70007   1.048   5.499   7.918 -0.3005 -4.2366  3.8559
  519MOL0     H70008   0.810   5.507   7.889  1.0345 -0.3525 -3.3487
  519MOL0     H70009   0.799   5.663   7.963 -0.9620 -1.0070  0.4982
  519MOL0     H70010   0.921   5.772   7.812  0.0038  0.3338 -0.7966
  519MOL0     H70011   0.971   5.625   7.720  0.9878 -0.1547  2.2674
  519MOL0     H70012   0.803   5.780   7.627  1.3373  0.8194  1.2601
  519MOL0     H70013   0.679   5.705   7.729 -1.7926 -2.6757 -4.0393
  519MOL0     H70014   0.656   5.595   7.520 -0.5200 -0.4788  2.8731
  519MOL0     H70015   0.823   5.592   7.491 -0.7511  1.7974 -0.9295
  519MOL0     H70016   0.947   5.348   7.491  2.3779 -1.1128  1.0075
  519MOL0     H70017   0.907   5.019   7.690  0.2349 -0.9472 -0.8475
  519MOL0     H70018   0.964   5.079   7.535 -0.0608  1.0491  0.9296
  519MOL0     H70019   1.145   5.079   7.659  0.9657  1.0175  1.4165
  519MOL0     H70020   1.111   5.242   7.669  0.6203 -0.0805  0.9791
  519MOL0     H70021   0.957   5.174   7.888 -0.3476  0.3931 -0.0695
  519MOL0     H70022   1.144   5.188   7.899 -0.2603 -0.5345  0.6503
  519MOL0     H70023   0.996   4.923   7.868  0.3762  0.2287  1.0034
  519MOL0     H70024   1.024   4.975   8.011 -2.3379 -1.9443 -1.8024
  519MOL0     H70025   1.381   4.807   7.812 -0.4194 -0.2872 -1.6977
  519MOL0     H70026   1.467   4.597   7.894  0.7823  0.0220  1.6730
  519MOL0     H70027   1.103   4.258   8.333 -0.9647 -0.3496 -3.4596
  519MOL0     H70028   1.143   4.045   8.466  0.8726  1.2968  1.0793
  519MOL0     H70029   1.316   3.764   8.306 -0.7040  3.9521  1.1812
  519MOL0     H70030   1.479   3.754   8.378  1.6420  3.2676 -0.0757
  519MOL0     H70031   1.327   3.707   8.602  1.2692  0.1386 -0.9579
  519MOL0     H70032   1.226   3.641   8.474  0.0032  0.6069  2.2198
  519MOL0     H70033   1.405   3.508   8.369 -0.5381  0.4592 -0.6760
  519MOL0     H70034   1.510   3.565   8.496  0.9857 -2.5785  0.8215
  519MOL0     H70035   1.260   3.392   8.564  0.4463 -1.5699  0.7286
  519MOL0     H70036   1.373   3.463   8.680  1.4903 -0.9536  0.7565
  519MOL0     H70037   1.560   3.335   8.541 -0.5623  1.7511  0.2779
  519MOL0     H70038   1.421   3.274   8.444 -1.8450 -5.9363  1.4459
  519MOL0     H70039   1.467   3.237   8.739  1.7135 -1.6806  0.0538
  519MOL0     H70040   1.310   3.204   8.651 -0.2546  0.0394 -0.1336
  519MOL0     H70041   1.557   3.073   8.533 -1.0038 -1.2612 -1.1921
  519MOL0     H70042   1.392   3.004   8.560 -0.8416  0.4103  0.0801
  519MOL0     H70043   1.580   2.897   8.681  0.0924 -1.1580  0.9326
  519MOL0     H70044   1.576   3.032   8.799 -3.0355 -0.3097  0.8582
  519MOL0     H70045   1.523   3.998   8.287 -1.1115 -1.8657 -0.3010
  519MOL0     H70046   1.476   4.182   8.132 -0.7928  0.5564 -1.0728
  519MOL0     H70047   1.112   4.554   8.137 -1.5180  0.3494 -0.9593
  519MOL0     H70048   1.050   4.789   8.078  0.9961 -0.0716  1.0164
  519MOL0     H70049   1.233   5.116   8.123  3.2423 -0.4226  1.8762
  519MOL0     H70050   1.262   4.894   8.199 -1.3191  1.1797 -0.6637
  519MOL0     H70051   1.077   4.647   8.581  2.7391  1.8401 -2.3294
  519MOL0     H70052   1.063   4.462   8.758 -0.9362  0.2623  0.3924
  519MOL0     H70053   1.053   4.252   8.830  0.4874  1.7874 -2.3720
  519MOL0     H70054   1.164   4.351   8.928  1.6345  0.8558 -1.3173
  519MOL0     H70055   1.136   4.126   9.044  2.6935  1.3960  1.6779
  519MOL0     H70056   1.296   4.143   8.979  0.8884  1.4841 -2.4147
  519MOL0     H70057   1.240   3.922   8.919 -0.9979 -1.0768 -0.6609
  519MOL0     H70058   1.253   4.017   8.772  1.1585 -1.8930 -0.0837
  519MOL0     H70059   1.007   4.014   8.745 -0.8853 -1.1173 -0.2389
  519MOL0     H70060   1.076   3.857   8.757 -1.2817 -0.6908  0.4128
  519MOL0     H70061   0.822   3.836   9.093  0.9142 -2.6269 -1.3208
  519MOL0     H70062   1.437   4.321   8.624 -0.7424 -0.9542 -1.3753
  519MOL0     H70063   1.443   4.519   8.319 -1.1017 -0.9092  0.8821
  519MOL0     H70064   1.545   4.575   8.450 -0.6465 -0.4183 -1.0991
  519MOL0     H70065   1.540   4.402   8.419  0.0935 -1.0317  2.0551
  520MOL0     O70066   6.113   2.853   8.807 -0.1597 -0.0536 -0.4420
  520MOL0     C70067   6.130   2.794   8.911 -0.7408  0.3740 -0.2745
  520MOL0     O70068   6.138   2.853   9.034 -0.6360 -0.1028  0.3530
  520MOL0     C70069   6.108   2.982   9.046 -0.4144  0.5665  0.5975
  520MOL0     C70070   5.992   3.012   9.105 -0.2527 -0.8409 -0.1796
  520MOL0     C70071   5.958   3.146   9.133  0.3261  0.2667 -0.5566
  520MOL0     C70072   6.045   3.254   9.111 -1.1291  0.3115  0.6149
  520MOL0     O70073   6.018   3.381   9.156  1.1698 -0.5720 -0.7697
  520MOL0     C70074   6.082   3.497   9.113 -0.4654 -0.0073  0.3093
  520MOL0     C70075   6.018   3.615   9.192 -0.5227 -0.0566 -0.2888
  520MOL0     C70076   5.868   3.658   9.177  0.4309  0.8062  0.3132
  520MOL0     C70077   5.785   3.556   9.098 -0.5260  1.0650 -0.5473
  520MOL0     C70078   5.641   3.602   9.082 -0.1285 -0.0688  0.0707
  520MOL0     C70079   5.554   3.490   9.009  0.0900  0.0185  0.0401
  520MOL0     C70080   5.402   3.525   8.993 -0.4564 -0.0828 -0.6708
  520MOL0     C70081   5.370   3.644   8.916 -0.7461  0.1903  0.1791
  520MOL0     N70082   5.227   3.644   8.889  0.5061  0.2393 -0.4199
  520MOL0     C70083   5.125   3.690   8.975  0.1990  1.0475 -0.6042
  520MOL0     C70084   5.009   3.681   8.903 -0.0034  0.0700  0.2550
  520MOL0     C70085   4.866   3.708   8.954 -0.2986  0.6290 -0.9859
  520MOL0     C70086   4.799   3.845   8.920  0.1857  0.5207 -0.2111
  520MOL0     C70087   4.877   3.967   8.967  0.2335 -0.1742 -0.2734
  520MOL0     C70088   4.820   4.095   8.906  0.1234  0.0941  0.7069
  520MOL0     O70089   4.687   4.128   8.939 -0.0012 -0.0120 -0.0075
  520MOL0     C70090   4.665   4.176   9.068 -0.2563  0.5581 -0.1761
  520MOL0     C70091   4.759   4.243   9.148  0.2135 -0.1626 -0.0799
  520MOL0     C70092   4.730   4.282   9.275  0.2982  0.5324 -0.2802
  520MOL0     C70093   4.609   4.250   9.336  1.3878 -0.1537  0.5252
  520MOL0     C70094   4.579   4.291   9.481 -0.8510  0.2554  1.0617
  520MOL0     O70095   4.478   4.234   9.542  0.0525 -0.2339 -0.4091
  520MOL0     C70096   4.462   4.267   9.674  0.7207 -0.7056 -0.3663
  520MOL0     C70097   4.349   4.341   9.710 -0.9161 -0.1501 -0.5191
  520MOL0     C70098   4.320   4.377   9.844 -0.0154  0.4204 -0.0936
  520MOL0     C70099   4.414   4.337   9.941  0.2953  0.2678  0.3809
  520MOL0     O70100   4.402   4.368  10.071 -0.1655 -0.5733  0.1015
  520MOL0     C70101   4.400   4.508  10.109  1.6776  0.4113 -0.1320
  520MOL0     C70102   4.421   4.534  10.259 -0.3944 -0.2950  0.2644
  520MOL0     C70103   4.557   4.489  10.309  0.2739 -1.4469 -0.0190
  520MOL0     C70104   4.654   4.606  10.297  0.0761 -0.5418 -0.0237
  520MOL0     C70105   4.797   4.569  10.344  0.2454 -0.7084  0.3083
  520MOL0     C70106   4.870   4.466  10.253 -0.3176 -0.0032 -0.3848
  520MOL0     C70107   5.014   4.467  10.301  0.2548  0.1699  0.1203
  520MOL0     C70108   5.111   4.386  10.219  0.2303 -0.0826  0.9648
  520MOL0    Cl70109   5.271   4.418  10.299  0.0489 -0.3144  0.1779
  520MOL0     C70110   4.524   4.252   9.916  0.4945  0.0636  0.1482
  520MOL0     C70111   4.543   4.214   9.777 -0.2683  0.7581 -0.5136
  520MOL0     O70112   4.651   4.378   9.527 -0.1724  0.2450 -0.3837
  520MOL0     C70113   4.512   4.196   9.254  0.7924 -0.3798  1.3629
  520MOL0     C70114   4.545   4.157   9.123  0.6341  0.1533 -0.7467
  520MOL0     N70115   5.038   3.617   8.777  0.2424 -0.3605  0.6452
  520MOL0     N70116   5.170   3.592   8.776  0.9032 -0.8546  0.5229
  520MOL0     C70117   6.174   3.221   9.049 -0.2523 -0.3421  0.0052
  520MOL0     C70118   6.201   3.085   9.024 -0.1982 -0.3854  1.0190
  520MOL0     C70119   6.171   2.653   8.896 -0.3740 -0.3706 -0.6105
  520MOL0     C70120   6.125   2.592   8.780  0.2554 -0.4654  0.5634
  520MOL0     C70121   6.158   2.464   8.745  0.0104  0.1630  0.2896
  520MOL0     C70122   6.242   2.393   8.828 -0.0756  0.5201  0.5509
  520MOL0     O70123   6.277   2.267   8.791  0.6551 -0.3171 -0.2642
  520MOL0     C70124   6.179   2.165   8.748 -0.3780  0.3671  0.2507
  520MOL0     C70125   6.197   2.021   8.827  0.7344 -0.1594 -0.3783
  520MOL0     C70126   6.320   1.942   8.782  0.7249  0.3965 -1.0564
  520MOL0     C70127   6.360   1.840   8.886  0.2416  0.1614 -0.2544
  520MOL0     C70128   6.256   1.737   8.906 -0.0701 -0.7181 -0.1668
  520MOL0     C70129   6.168   1.646   8.911 -0.6336  0.9595  0.6267
  520MOL0     C70130   6.280   2.442   8.946 -0.5349 -0.7636  0.1412
  520MOL0     C70131   6.249   2.571   8.984 -0.3657 -0.1655  0.6114
  520MOL0     C70132   6.298   2.621   9.118  0.1071  0.0191 -0.7894
  520MOL0     H70133   5.915   2.944   9.140  0.6829 -1.0276  1.6685
  520MOL0     H70134   5.865   3.156   9.188  1.2569 -1.2971  1.4264
  520MOL0     H70135   6.190   3.492   9.129 -0.1063 -0.0188 -1.8654
  520MOL0     H70136   6.063   3.513   9.006  0.0922  1.7949  0.4348
  520MOL0     H70137   6.082   3.702   9.171  1.2938 -0.7164  2.0126
  520MOL0     H70138   6.029   3.592   9.298  0.3554 -2.5010 -0.8625
  520MOL0     H70139   5.854   3.758   9.135  0.4999  0.2863 -0.9950
  520MOL0     H70140   5.834   3.656   9.281 -0.1945  0.7692  0.1084
  520MOL0     H70141   5.826   3.559   8.997  1.6876 -0.8224  0.2235
  520MOL0     H70142   5.785   3.458   9.145  0.4543  1.0943 -0.4800
  520MOL0     H70143   5.602   3.610   9.183  2.8614  2.2880  1.1851
  520MOL0     H70144   5.629   3.699   9.031 -2.2327 -0.6545 -0.6634
  520MOL0     H70145   5.588   3.467   8.907  1.0002 -3.0469  0.9432
  520MOL0     H70146   5.556   3.404   9.076  0.0114  1.4729  1.9984
  520MOL0     H70147   5.378   3.544   9.098 -1.3712  1.8615 -1.2022
  520MOL0     H70148   5.335   3.448   8.953 -1.2909  1.2810 -1.9979
  520MOL0     H70149   5.378   3.736   8.975 -2.9483  0.5978 -0.0513
  520MOL0     H70150   5.420   3.643   8.818 -0.7208 -1.6565  0.1890
  520MOL0     H70151   5.126   3.731   9.076  2.0643 -0.0735 -0.1149
  520MOL0     H70152   4.793   3.639   8.911  0.4018  0.9761 -2.8681
  520MOL0     H70153   4.860   3.693   9.062  1.4585  2.4501 -0.5747
  520MOL0     H70154   4.770   3.861   8.816  0.4685  1.4319 -0.1546
  520MOL0     H70155   4.703   3.839   8.971 -0.2623 -0.7979 -1.1545
  520MOL0     H70156   4.984   3.955   8.951  0.2879 -1.5674  0.9107
  520MOL0     H70157   4.860   3.982   9.074 -2.1205 -0.6302 -0.5111
  520MOL0     H70158   4.817   4.074   8.799  0.9557  0.0941  0.6746
  520MOL0     H70159   4.888   4.181   8.904  0.5964 -0.2816  0.0245
  520MOL0     H70160   4.857   4.250   9.100 -0.4264  5.4895 -1.2904
  520MOL0     H70161   4.808   4.333   9.332  0.7570 -0.3354 -0.1077
  520MOL0     H70162   4.281   4.393   9.644 -1.1867  3.6145  2.3620
  520MOL0     H70163   4.229   4.436   9.855 -0.8602 -0.3291 -2.4522
  520MOL0     H70164   4.474   4.566  10.052  2.9429 -1.5082 -0.5240
  520MOL0     H70165   4.304   4.554  10.083  0.1997 -0.9159  2.6563
  520MOL0     H70166   4.401   4.639  10.280 -2.6340 -0.6088 -0.0722
  520MOL0     H70167   4.348   4.466  10.303  0.3524 -4.3859 -3.9678
  520MOL0     H70168   4.548   4.463  10.415  1.4749 -1.8701 -0.0036
  520MOL0     H70169   4.593   4.405  10.249 -4.1628 -2.5439 -1.4747
  520MOL0     H70170   4.619   4.689  10.360 -4.1217 -1.0866 -1.3068
  520MOL0     H70171   4.658   4.639  10.193 -0.9654  2.4710  0.7983
  520MOL0     H70172   4.791   4.541  10.449  2.6204  0.3639  0.7783
  520MOL0     H70173   4.853   4.663  10.339 -0.0255 -0.6078 -1.8138
  520MOL0     H70174   4.832   4.365  10.268 -0.8962  0.1974 -0.4527
  520MOL0     H70175   4.875   4.496  10.148  0.0128  0.5310 -0.2210
  520MOL0     H70176   5.024   4.427  10.402  2.0693  0.0539 -0.0604
  520MOL0     H70177   5.048   4.571  10.298 -2.1137  1.2260  3.5127
  520MOL0     H70178   5.079   4.282  10.223 -0.8341  0.2140  0.6550
  520MOL0     H70179   5.120   4.415  10.114  0.7222 -0.8651  0.7862
  520MOL0     H70180   4.598   4.224   9.991  1.2844 -1.1360 -1.0157
  520MOL0     H70181   4.626   4.151   9.749  0.3693  2.5875 -3.1067
  520MOL0     H70182   4.416   4.171   9.298 -1.0598  2.0807 -0.9284
  520MOL0     H70183   4.476   4.093   9.069 -0.2075  0.0988  0.3623
  520MOL0     H70184   6.256   3.289   9.032  1.2507 -1.9369  0.6055
  520MOL0     H70185   6.303   3.061   8.996 -0.5106  0.4172 -0.9763
  520MOL0     H70186   6.050   2.644   8.721 -0.2390  1.2431  2.5600
  520MOL0     H70187   6.122   2.418   8.654  1.4676 -1.5928  0.5189
  520MOL0     H70188   6.190   2.150   8.640 -3.1809 -3.1453  0.2755
  520MOL0     H70189   6.077   2.194   8.775 -1.3343 -2.3526 -0.1182
  520MOL0     H70190   6.115   1.958   8.791  0.4272 -1.3520  2.1909
  520MOL0     H70191   6.190   2.031   8.935 -0.5587  2.8778 -0.6664
  520MOL0     H70192   6.407   2.004   8.759  2.1081 -0.8502  0.5777
  520MOL0     H70193   6.283   1.893   8.691  1.0160  1.7813 -1.9507
  520MOL0     H70194   6.447   1.779   8.862  0.9161  1.3917 -1.0281
  520MOL0     H70195   6.386   1.900   8.974 -1.8852  0.6626  0.0855
  520MOL0     H70196   6.097   1.566   8.921 -0.8570  0.7375 -2.0706
  520MOL0     H70197   6.356   2.381   8.992  1.0174 -1.3539 -2.9345
  520MOL0     H70198   6.220   2.656   9.185  0.6206 -0.1009 -0.1225
  520MOL0     H70199   6.359   2.542   9.163  1.2779  1.5073  0.3471
  520MOL0     H70200   6.360   2.711   9.114 -0.8567  0.7167 -4.6144
  521MOL0     O70201   0.497  10.801   8.526  0.9173  0.6122 -0.8765
  521MOL0     C70202   0.377  10.799   8.483  0.5973  0.1636  0.2642
  521MOL0     O70203   0.306  10.690   8.442  0.2354 -0.0460  0.7635
  521MOL0     C70204   0.364  10.567   8.448  0.7917 -0.2269  0.3791
  521MOL0     C70205   0.385  10.516   8.573  0.1147  0.0525 -0.7213
  521MOL0     C70206   0.429  10.389   8.589  0.3827  0.7079 -0.1541
  521MOL0     C70207   0.451  10.296   8.482 -0.0987 -0.1990 -0.2386
  521MOL0     O70208   0.520  10.181   8.493  0.2571  0.3004  1.2313
  521MOL0     C70209   0.484  10.097   8.609 -0.5519  0.2508  0.8956
  521MOL0     C70210   0.512   9.952   8.585  0.4919 -0.1997  1.2201
  521MOL0     C70211   0.451   9.912   8.448 -0.4667  0.1772 -0.6741
  521MOL0     C70212   0.559   9.935   8.327  1.4972  0.7851 -0.5398
  521MOL0     C70213   0.526   9.888   8.191  0.6723  0.4739  0.6645
  521MOL0     C70214   0.415   9.978   8.122 -0.2535 -0.6756 -0.3550
  521MOL0     C70215   0.382   9.946   7.980  0.1202  0.7492  0.9534
  521MOL0     C70216   0.325   9.810   7.971  0.3835  0.6174  0.0481
  521MOL0     N70217   0.213   9.795   7.879 -0.1062  0.0957  0.0233
  521MOL0     C70218   0.218   9.745   7.750  0.9588 -0.1812  0.4936
  521MOL0     C70219   0.094   9.768   7.710  0.5980 -0.0468  0.0719
  521MOL0     C70220   0.043   9.740   7.575 -0.7180 -0.0684 -0.7378
  521MOL0     C70221   0.032   9.589   7.543 -0.7299  0.2080  0.0561
  521MOL0     C70222   0.028   9.555   7.391  0.4400 -0.7041 -0.2694
  521MOL0     C70223  -0.020   9.410   7.355  0.0111  0.9112 -0.0923
  521MOL0     O70224   0.046   9.314   7.439  0.2058 -0.1856  0.3709
  521MOL0     C70225   0.150   9.239   7.390  0.3937  0.5344 -0.2236
  521MOL0     C70226   0.167   9.125   7.463  0.3352  0.4110  0.1556
  521MOL0     C70227   0.269   9.041   7.423 -1.1953 -0.4433  0.8844
  521MOL0     C70228   0.353   9.076   7.316 -0.4889 -0.2816 -0.4462
  521MOL0     C70229   0.462   8.981   7.283  0.8712  0.5594  0.2341
  521MOL0     O70230   0.473   8.860   7.353 -0.2894  0.2653  0.5053
  521MOL0     C70231   0.566   8.767   7.311 -0.4954 -0.2393  0.2056
  521MOL0     C70232   0.533   8.664   7.229  0.4537 -0.6574  0.2787
  521MOL0     C70233   0.631   8.578   7.169  0.3066  1.1544  0.9251
  521MOL0     C70234   0.764   8.602   7.200 -0.3095  0.9771 -0.0964
  521MOL0     O70235   0.856   8.521   7.135  0.3377  0.1323 -0.5276
  521MOL0     C70236   0.980   8.492   7.200  0.0709  0.7563  0.8642
  521MOL0     C70237   1.015   8.344   7.168 -0.0788  0.6616  0.1806
  521MOL0     C70238   0.935   8.259   7.267 -0.4409  0.0694  0.2001
  521MOL0     C70239   0.962   8.102   7.267 -0.0462  0.4831  0.0966
  521MOL0     C70240   0.945   8.045   7.129  0.5508  0.0799 -0.1644
  521MOL0     C70241   0.895   7.894   7.143  0.6324  0.4974 -0.1825
  521MOL0     C70242   0.897   7.809   7.003  0.3586  0.0946 -0.5161
  521MOL0     C70243   0.849   7.663   7.033  0.4209  0.5075 -0.6712
  521MOL0    Cl70244   0.691   7.640   7.094  0.1320  0.2897 -0.0388
  521MOL0     C70245   0.801   8.713   7.281  0.3862  0.4615 -0.8470
  521MOL0     C70246   0.697   8.789   7.339 -0.7022  0.4040 -0.6765
  521MOL0     O70247   0.539   9.016   7.188  0.2311 -0.1616 -0.6340
  521MOL0     C70248   0.330   9.193   7.236  0.2267 -0.3137  0.3400
  521MOL0     C70249   0.236   9.277   7.285 -0.5920  0.0017 -0.2630
  521MOL0     N70250   0.020   9.823   7.805 -0.1453 -0.2895  0.9746
  521MOL0     N70251   0.092   9.835   7.913 -0.9870  0.0604 -0.6725
  521MOL0     C70252   0.425  10.350   8.350  0.1350  0.7124  0.1188
  521MOL0     C70253   0.391  10.491   8.337  0.4249  0.4287  0.0599
  521MOL0     C70254   0.311  10.930   8.450 -0.8203 -0.5623 -0.6118
  521MOL0     C70255   0.173  10.939   8.444 -0.2289 -0.3312  0.1799
  521MOL0     C70256   0.109  11.060   8.420  0.3336 -0.5997  0.0142
  521MOL0     C70257   0.173  11.176   8.400 -0.1794 -0.6786 -1.5638
  521MOL0     O70258   0.090  11.280   8.377 -0.2555  0.3768  0.4394
  521MOL0     C70259   0.137  11.403   8.329 -0.9546 -0.7452  0.8791
  521MOL0     C70260   0.150  11.401   8.181  0.4537  0.2924  0.4611
  521MOL0     C70261   0.018  11.420   8.109 -0.2681  0.0477  0.4116
  521MOL0     C70262   0.040  11.439   7.963 -0.4103  0.0842 -0.2386
  521MOL0     C70263   0.078  11.324   7.885  0.3496  0.1304  0.0910
  521MOL0     C70264   0.113  11.212   7.837  0.2732 -0.7191  0.3688
  521MOL0     C70265   0.318  11.177   8.413 -0.3180 -0.1803 -0.1057
  521MOL0     C70266   0.385  11.054   8.440  0.4624  0.1957  0.6650
  521MOL0     C70267   0.540  11.075   8.450  0.9200  0.1283  0.8125
  521MOL0     H70268   0.368  10.566   8.667  1.5561  1.2917 -1.0821
  521MOL0     H70269   0.445  10.354   8.690  0.1163 -1.5782 -0.8519
  521MOL0     H70270   0.534  10.136   8.698 -2.3421  3.6937  0.5637
  521MOL0     H70271   0.382  10.115   8.643 -0.3558  3.4467  0.1005
  521MOL0     H70272   0.473   9.884   8.662  1.7329 -2.6416 -0.1935
  521MOL0     H70273   0.621   9.944   8.587  0.5333 -0.1714  4.0348
  521MOL0     H70274   0.364   9.971   8.417  0.3483  0.3989 -2.6802
  521MOL0     H70275   0.427   9.805   8.451  0.6499 -0.1967  4.4141
  521MOL0     H70276   0.606  10.032   8.310  0.1588  1.6065  0.2775
  521MOL0     H70277   0.634   9.866   8.367  0.7739  2.0810  3.5277
  521MOL0     H70278   0.620   9.889   8.136 -1.1186 -0.5812 -2.6922
  521MOL0     H70279   0.494   9.783   8.184  1.0671  0.4664 -1.4115
  521MOL0     H70280   0.322   9.962   8.179 -1.2657 -0.5876 -1.9214
  521MOL0     H70281   0.452  10.080   8.124  1.5239 -1.2898  0.3955
  521MOL0     H70282   0.472   9.944   7.918  0.6361  0.8945  1.6944
  521MOL0     H70283   0.322  10.019   7.925  1.6737  2.0045  0.8864
  521MOL0     H70284   0.392   9.733   7.932 -1.5485 -1.7586  1.1339
  521MOL0     H70285   0.290   9.766   8.065 -1.4188 -2.0277 -1.7079
  521MOL0     H70286   0.297   9.720   7.680  0.4694 -1.7614  0.4825
  521MOL0     H70287  -0.058   9.782   7.574 -1.7556 -2.2691  1.0407
  521MOL0     H70288   0.104   9.795   7.503 -2.2133  1.5540 -0.8536
  521MOL0     H70289   0.118   9.537   7.585 -2.6123 -2.5572  0.7522
  521MOL0     H70290  -0.060   9.550   7.588  0.1452 -0.4306  1.3302
  521MOL0     H70291   0.129   9.574   7.354  1.0336  2.0464  2.3184
  521MOL0     H70292  -0.048   9.620   7.346  0.4034 -0.4285  0.1795
  521MOL0     H70293  -0.012   9.378   7.251  0.3432 -0.7973  0.4092
  521MOL0     H70294  -0.127   9.397   7.370  0.3058 -2.1146  0.0348
  521MOL0     H70295   0.094   9.095   7.537 -1.8333 -0.0558 -2.0453
  521MOL0     H70296   0.287   8.949   7.478  1.2135  0.7693  2.3177
  521MOL0     H70297   0.431   8.645   7.197  0.8480 -1.4641 -0.5278
  521MOL0     H70298   0.599   8.494   7.108  3.0644  1.7130 -1.5632
  521MOL0     H70299   1.056   8.561   7.163 -0.5029  1.7613  1.4855
  521MOL0     H70300   0.965   8.504   7.308 -1.1729 -1.8935  1.0713
  521MOL0     H70301   0.995   8.332   7.061 -1.2242  1.9879  0.2111
  521MOL0     H70302   1.123   8.337   7.188  0.0460  1.2256 -0.2538
  521MOL0     H70303   0.958   8.295   7.367 -0.9039 -1.1677  0.7704
  521MOL0     H70304   0.827   8.265   7.251 -0.4372 -0.4982 -0.0646
  521MOL0     H70305   0.909   8.049   7.347 -1.0856  0.8229 -0.3486
  521MOL0     H70306   1.067   8.079   7.287  0.1692  0.1702 -1.2826
  521MOL0     H70307   1.036   8.056   7.069 -0.1583 -1.2917 -1.6020
  521MOL0     H70308   0.867   8.102   7.078 -0.4949  0.9837  2.2951
  521MOL0     H70309   0.963   7.840   7.209  1.6942  2.3985  0.3625
  521MOL0     H70310   0.795   7.892   7.187  1.2727 -0.6232  1.2884
  521MOL0     H70311   0.998   7.812   6.960  0.4592  1.5312 -0.2208
  521MOL0     H70312   0.830   7.866   6.938 -0.1032  1.3804  1.0382
  521MOL0     H70313   0.850   7.607   6.939  0.4457 -4.2383  1.8756
  521MOL0     H70314   0.915   7.620   7.109 -2.4807 -1.0767  1.1624
  521MOL0     H70315   0.904   8.740   7.302  0.7576 -1.5525  0.1975
  521MOL0     H70316   0.739   8.872   7.395  1.1938 -0.6006 -0.5353
  521MOL0     H70317   0.398   9.224   7.157 -0.8187 -1.0264 -0.8822
  521MOL0     H70318   0.228   9.377   7.244  0.8761 -0.8153 -2.7616
  521MOL0     H70319   0.446  10.290   8.262 -1.7974 -1.2159  0.8665
  521MOL0     H70320   0.382  10.539   8.240  0.3234  1.9033  0.7715
  521MOL0     H70321   0.102  10.857   8.450 -0.1162 -0.3459  2.0246
  521MOL0     H70322   0.001  11.063   8.413 -0.0125  1.6682  3.5378
  521MOL0     H70323   0.236  11.436   8.362 -0.1395  0.6074 -2.5105
  521MOL0     H70324   0.070  11.487   8.346 -1.8720 -1.0499 -1.0507
  521MOL0     H70325   0.197  11.309   8.144 -0.2712 -0.0710  0.4186
  521MOL0     H70326   0.216  11.481   8.148  0.5998  1.1970  2.7779
  521MOL0     H70327  -0.027  11.506   8.161  0.4771  0.0091  1.1428
  521MOL0     H70328  -0.038  11.331   8.138  1.2834 -0.9652  0.3773
  521MOL0     H70329  -0.046  11.478   7.908  0.3615 -0.7154 -2.0905
  521MOL0     H70330   0.125  11.506   7.947 -0.0558 -0.2566  0.1622
  521MOL0     H70331   0.141  11.121   7.787 -2.5002 -2.0579  1.0557
  521MOL0     H70332   0.377  11.265   8.390  0.4225 -0.8081 -0.6446
  521MOL0     H70333   0.569  11.179   8.432  2.2171  0.1309  2.5666
  521MOL0     H70334   0.568  11.056   8.555 -2.3353 -0.8651  1.5932
  521MOL0     H70335   0.594  11.006   8.384  0.2310 -0.1484  0.5400
  522MOL0     O70336   9.884   6.163   9.165  0.7250 -0.4223  0.7074
  522MOL0     C70337   9.944   6.245   9.098 -0.3252  0.2695  0.5539
  522MOL0     O70338   9.904   6.301   8.980 -0.2664  0.1732 -0.3225
  522MOL0     C70339   9.794   6.252   8.917 -0.3130 -0.0559  0.4719
  522MOL0     C70340   9.740   6.330   8.812  0.3450 -0.3965  0.3200
  522MOL0     C70341   9.638   6.292   8.732  0.3308 -0.0855  0.4214
  522MOL0     C70342   9.591   6.162   8.741  0.1175 -0.0858 -0.3883
  522MOL0     O70343   9.495   6.135   8.650  0.4062 -0.2864 -0.1826
  522MOL0     C70344   9.402   6.028   8.674 -0.4774 -0.3583 -0.8640
  522MOL0     C70345   9.319   6.007   8.545  0.4133  0.1714  0.1146
  522MOL0     C70346   9.205   5.909   8.588 -0.2511 -0.0758  0.8690
  522MOL0     C70347   9.112   5.868   8.468 -0.3796  0.3651 -0.0912
  522MOL0     C70348   8.980   5.956   8.441  0.1321  0.2013  0.1724
  522MOL0     C70349   8.906   5.899   8.319  0.3954 -0.5923  0.3945
  522MOL0     C70350   8.834   5.767   8.348  0.3759 -0.0107 -0.7756
  522MOL0     C70351   8.744   5.760   8.476 -0.2109  0.8618  0.0524
  522MOL0     N70352   8.715   5.627   8.509 -0.8083  0.3002  0.5848
  522MOL0     C70353   8.629   5.555   8.443  1.1231  0.9314 -0.8887
  522MOL0     C70354   8.633   5.426   8.486  0.0550 -0.0817 -0.0947
  522MOL0     C70355   8.543   5.322   8.432  0.0164  0.3471  0.6067
  522MOL0     C70356   8.515   5.324   8.278  0.1437 -0.0970 -0.0279
  522MOL0     C70357   8.484   5.184   8.213  0.1062 -0.1502  0.0512
  522MOL0     C70358   8.539   5.169   8.067 -1.1615 -0.5407  0.0185
  522MOL0     O70359   8.502   5.274   7.984 -0.8207 -0.6697 -0.4760
  522MOL0     C70360   8.582   5.289   7.867  1.0077  0.8759  0.7805
  522MOL0     C70361   8.651   5.178   7.809  0.3693  0.5854 -1.5096
  522MOL0     C70362   8.730   5.195   7.695 -0.0342 -0.6966  0.7791
  522MOL0     C70363   8.708   5.305   7.612 -0.1623 -0.4687  0.7341
  522MOL0     C70364   8.783   5.314   7.489  0.6666  0.0878 -0.8772
  522MOL0     O70365   8.871   5.221   7.458  0.1016  0.1626 -0.1582
  522MOL0     C70366   8.923   5.218   7.328 -0.0394 -0.1518  0.7563
  522MOL0     C70367   9.041   5.292   7.299  0.1578  0.2314 -0.6366
  522MOL0     C70368   9.098   5.294   7.168 -0.3060 -0.1305 -0.1427
  522MOL0     C70369   9.035   5.231   7.066 -0.4887  0.3251 -0.5521
  522MOL0     O70370   9.086   5.245   6.942  0.2245  0.6785 -0.7798
  522MOL0     C70371   9.072   5.138   6.852  0.3891 -0.3943 -0.6333
  522MOL0     C70372   9.205   5.052   6.836  0.2120 -0.2368 -0.5096
  522MOL0     C70373   9.177   4.915   6.897 -1.0179  0.1913 -0.2707
  522MOL0     C70374   9.285   4.807   6.862 -0.0772 -0.3218  0.0741
  522MOL0     C70375   9.243   4.673   6.906  0.3383  1.0759 -0.4490
  522MOL0     C70376   9.242   4.653   7.060 -0.5456 -0.1803  0.0412
  522MOL0     C70377   9.209   4.517   7.103 -0.2623  0.0590 -0.6687
  522MOL0     C70378   9.202   4.506   7.259  0.4531 -0.3984 -0.1885
  522MOL0    Cl70379   9.020   4.518   7.304  0.1171  0.2312 -0.1392
  522MOL0     C70380   8.923   5.159   7.090 -0.7470  0.6587 -0.1420
  522MOL0     C70381   8.859   5.165   7.212 -0.1484  0.3445 -0.5534
  522MOL0     O70382   8.758   5.409   7.419 -0.2912  0.2686  0.4744
  522MOL0     C70383   8.637   5.414   7.663 -0.6828 -0.5092 -1.0146
  522MOL0     C70384   8.583   5.405   7.793  0.1413  0.6811 -0.0824
  522MOL0     N70385   8.749   5.423   8.565  0.4001  0.6532  0.2445
  522MOL0     N70386   8.799   5.543   8.570 -0.1149  0.0078  0.1141
  522MOL0     C70387   9.645   6.076   8.845  0.2458  0.1434 -0.4600
  522MOL0     C70388   9.750   6.123   8.931  0.4661 -0.8527  0.6006
  522MOL0     C70389  10.075   6.300   9.149  0.1158  1.2977 -1.0906
  522MOL0     C70390  10.159   6.364   9.054 -0.2099  1.0463 -0.6024
  522MOL0     C70391  10.282   6.419   9.093 -0.3868 -0.0028 -0.0788
  522MOL0     C70392  10.327   6.405   9.219  0.1109 -0.2035 -0.4289
  522MOL0     O70393  10.446   6.455   9.262 -0.6241 -0.4972 -0.8189
  522MOL0     C70394  10.546   6.516   9.176 -0.1234  0.2792 -0.3862
  522MOL0     C70395  10.495   6.660   9.161  0.0085  0.4222  0.8600
  522MOL0     C70396  10.518   6.746   9.282  0.3430  0.5822 -0.1183
  522MOL0     C70397  10.443   6.874   9.278  0.2162 -0.4446  0.6556
  522MOL0     C70398  10.422   6.945   9.406  0.8203  0.8513 -0.0186
  522MOL0     C70399  10.393   6.995   9.517  0.2873 -0.1547 -0.7340
  522MOL0     C70400  10.250   6.338   9.313  0.1688 -0.2976  0.1911
  522MOL0     C70401  10.119   6.292   9.285  0.4824 -0.0915  0.1770
  522MOL0     C70402  10.032   6.228   9.384  0.6824  0.0109 -0.6050
  522MOL0     H70403   9.772   6.432   8.792 -0.2086 -0.6205 -1.8994
  522MOL0     H70404   9.599   6.350   8.648 -3.0332 -1.9313  0.5221
  522MOL0     H70405   9.451   5.935   8.702  2.4984  1.7240  1.4614
  522MOL0     H70406   9.341   6.078   8.751  1.3366  3.3489 -1.5957
  522MOL0     H70407   9.390   5.961   8.477  2.7106  1.4509  1.5121
  522MOL0     H70408   9.274   6.100   8.508 -1.1509 -0.5382  0.1550
  522MOL0     H70409   9.134   5.949   8.661 -0.1694  2.9115 -0.5506
  522MOL0     H70410   9.258   5.829   8.640  2.7009  0.5267 -0.9633
  522MOL0     H70411   9.185   5.865   8.387 -1.3319  0.5097 -0.9786
  522MOL0     H70412   9.083   5.764   8.486  3.0793 -0.6210  0.5230
  522MOL0     H70413   8.933   5.960   8.539  3.2332 -0.5763  1.8308
  522MOL0     H70414   9.016   6.057   8.419 -1.5475  0.5861 -1.0655
  522MOL0     H70415   8.841   5.980   8.286  1.6330 -0.6529 -2.5139
  522MOL0     H70416   8.974   5.888   8.234  2.5596  0.5001  1.9115
  522MOL0     H70417   8.913   5.693   8.365  0.8098  0.2557 -1.5872
  522MOL0     H70418   8.773   5.727   8.267  0.0621  1.2059 -1.1641
  522MOL0     H70419   8.789   5.808   8.564  1.5177  0.9780 -0.8556
  522MOL0     H70420   8.653   5.817   8.456  1.1513  2.8530 -0.8836
  522MOL0     H70421   8.554   5.602   8.380 -2.3438 -0.2107  2.0697
  522MOL0     H70422   8.598   5.230   8.453  0.8176  0.4165 -0.9870
  522MOL0     H70423   8.449   5.327   8.488 -0.1104  0.7245  0.3641
  522MOL0     H70424   8.426   5.384   8.259  0.6497  0.1588 -1.7220
  522MOL0     H70425   8.600   5.374   8.230 -0.5530  1.2296  0.0645
  522MOL0     H70426   8.375   5.171   8.206 -0.1516  1.3344  0.8677
  522MOL0     H70427   8.524   5.101   8.272  1.9575  0.3460 -0.4306
  522MOL0     H70428   8.487   5.085   8.020 -1.4657 -0.7153  0.6522
  522MOL0     H70429   8.645   5.145   8.078 -1.4686 -1.8489  0.3700
  522MOL0     H70430   8.660   5.084   7.862  1.6322  0.8235 -1.2665
  522MOL0     H70431   8.793   5.110   7.671 -1.9552 -1.7466 -0.8290
  522MOL0     H70432   9.096   5.341   7.378  1.2582 -0.5680 -0.8917
  522MOL0     H70433   9.185   5.358   7.156 -2.1873  2.6658  0.0127
  522MOL0     H70434   8.983   5.075   6.866 -0.2002  0.2547 -1.3743
  522MOL0     H70435   9.062   5.179   6.751 -0.7203 -5.3541 -2.8433
  522MOL0     H70436   9.235   5.038   6.732 -0.7315 -1.9914 -0.5890
  522MOL0     H70437   9.282   5.105   6.893 -0.0634 -1.0037  0.6203
  522MOL0     H70438   9.160   4.921   7.005 -0.6336 -1.1838 -0.1133
  522MOL0     H70439   9.087   4.879   6.846  1.6906 -2.3579 -3.7976
  522MOL0     H70440   9.385   4.825   6.903  0.8213 -2.3932 -1.0983
  522MOL0     H70441   9.286   4.799   6.753 -3.1458  2.3400 -0.3230
  522MOL0     H70442   9.307   4.599   6.858 -1.3753 -0.0127 -1.1545
  522MOL0     H70443   9.149   4.644   6.858  0.8241 -0.9038 -0.2506
  522MOL0     H70444   9.345   4.678   7.088 -0.5215  3.5057 -2.6075
  522MOL0     H70445   9.181   4.722   7.119  2.3388  2.8189 -0.1926
  522MOL0     H70446   9.279   4.445   7.060 -1.3178 -0.0537 -2.2746
  522MOL0     H70447   9.111   4.489   7.063 -0.8995 -0.7965  1.3710
  522MOL0     H70448   9.244   4.410   7.291 -2.3557 -1.7164 -0.1844
  522MOL0     H70449   9.258   4.589   7.302  3.0860 -2.4717  0.6424
  522MOL0     H70450   8.866   5.116   7.009 -2.5253  1.7214  0.4974
  522MOL0     H70451   8.757   5.128   7.217  0.4281 -1.1221  2.7404
  522MOL0     H70452   8.636   5.506   7.605  0.6410  1.1161  1.3714
  522MOL0     H70453   8.542   5.498   7.832 -0.6612  0.3132 -0.0437
  522MOL0     H70454   9.599   5.980   8.864 -3.3583  1.5495 -1.0832
  522MOL0     H70455   9.782   6.051   9.005  2.9862 -0.6442 -0.1813
  522MOL0     H70456  10.123   6.385   8.954 -1.2526  2.8537  0.1104
  522MOL0     H70457  10.347   6.462   9.017 -1.1342 -3.0818 -2.6702
  522MOL0     H70458  10.564   6.458   9.085  1.5295 -0.4284  0.3272
  522MOL0     H70459  10.639   6.506   9.233 -0.0506  2.2909 -0.0868
  522MOL0     H70460  10.392   6.659   9.125  0.6377 -3.3747 -1.3991
  522MOL0     H70461  10.557   6.703   9.082 -0.8943 -1.4590 -0.9655
  522MOL0     H70462  10.620   6.783   9.302 -0.4628  3.7989 -1.3523
  522MOL0     H70463  10.470   6.703   9.371  2.7207  1.3548  1.6538
  522MOL0     H70464  10.473   6.952   9.208 -1.0749  0.2648  0.8631
  522MOL0     H70465  10.341   6.852   9.246  0.2050  1.0883 -0.4712
  522MOL0     H70466  10.380   7.038   9.614 -0.6588  1.2479 -1.4359
  522MOL0     H70467  10.282   6.335   9.417  1.7456  2.1278 -0.1509
  522MOL0     H70468  10.093   6.229   9.475  0.6499 -1.0356 -0.5593
  522MOL0     H70469   9.937   6.282   9.387  0.2935 -0.6133 -1.3411
  522MOL0     H70470  10.020   6.124   9.351 -0.8912  0.2641 -0.9149
  523MOL0     O70471   9.068   4.233   4.248  0.5114  0.5559  1.2520
  523MOL0     C70472   8.955   4.192   4.222 -0.0013 -0.0540  0.1516
  523MOL0     O70473   8.911   4.143   4.106 -0.2208  0.2388  0.7386
  523MOL0     C70474   9.005   4.134   4.004  0.0260 -0.1497 -0.4600
  523MOL0     C70475   9.090   4.023   4.010 -1.1320 -0.1357  0.1490
  523MOL0     C70476   9.172   3.997   3.895 -0.0156  0.2075  0.1865
  523MOL0     C70477   9.155   4.075   3.780 -0.5839  0.1024 -0.0455
  523MOL0     O70478   9.241   4.050   3.677  0.2533 -0.1210  0.6518
  523MOL0     C70479   9.231   4.115   3.554 -0.8706 -0.7061  0.1423
  523MOL0     C70480   9.315   4.057   3.440  1.0681 -0.3088  0.2864
  523MOL0     C70481   9.264   4.109   3.305 -0.5646 -0.4951 -0.6992
  523MOL0     C70482   9.157   4.022   3.240 -0.5322  0.1807  0.8813
  523MOL0     C70483   9.112   4.070   3.102 -0.5766 -0.2084  0.1275
  523MOL0     C70484   9.028   3.961   3.030  1.0571 -0.6996 -0.1018
  523MOL0     C70485   8.981   3.997   2.889  0.0782  0.3065  0.2571
  523MOL0     C70486   9.092   4.004   2.787  0.7416  0.3028 -0.4526
  523MOL0     N70487   9.031   4.037   2.660  0.7463 -0.2635 -0.6463
  523MOL0     C70488   9.000   3.947   2.564 -0.9452  0.4163  0.0048
  523MOL0     C70489   8.997   4.019   2.448 -0.0148  0.9655  0.3246
  523MOL0     C70490   8.978   3.970   2.305  0.7725 -0.0881  0.9886
  523MOL0     C70491   8.841   4.008   2.243 -0.3356  0.4697 -0.3951
  523MOL0     C70492   8.731   3.981   2.340 -0.5635  0.0754  0.6387
  523MOL0     C70493   8.595   4.029   2.280 -0.4747 -0.0590 -0.1457
  523MOL0     O70494   8.560   3.949   2.168 -0.5339 -0.1181 -0.1534
  523MOL0     C70495   8.423   3.948   2.126  0.2326  0.3583  0.0871
  523MOL0     C70496   8.309   4.011   2.186 -0.1499 -0.3093 -0.8152
  523MOL0     C70497   8.176   3.964   2.153  1.2541  0.4372  0.6772
  523MOL0     C70498   8.164   3.873   2.043  0.8653 -0.0510 -0.4048
  523MOL0     C70499   8.023   3.826   2.010 -0.8598  0.1296  0.0891
  523MOL0     O70500   7.922   3.911   2.049 -0.2321 -0.3610  0.5449
  523MOL0     C70501   7.790   3.877   2.031  0.1861  0.2192  0.2035
  523MOL0     C70502   7.740   3.747   2.019  0.1662 -1.4168 -0.1740
  523MOL0     C70503   7.597   3.731   2.025 -0.3835 -0.0982 -0.2517
  523MOL0     C70504   7.505   3.834   2.057 -0.6052 -0.3530  0.4615
  523MOL0     O70505   7.372   3.802   2.065  0.1517  0.3458 -0.4161
  523MOL0     C70506   7.272   3.900   2.072  0.8039 -0.0026  0.0875
  523MOL0     C70507   7.161   3.850   2.169  0.0056 -0.1570  0.4388
  523MOL0     C70508   7.102   3.711   2.120 -0.3911 -0.2383  0.9979
  523MOL0     C70509   7.004   3.727   2.004 -0.1510  0.5356 -0.2152
  523MOL0     C70510   6.881   3.818   2.043  0.2995 -0.7368 -0.7432
  523MOL0     C70511   6.769   3.838   1.942 -0.3088  0.4953 -0.4737
  523MOL0     C70512   6.816   3.883   1.798  0.4711 -0.4686  0.9068
  523MOL0     C70513   6.693   3.935   1.715 -0.2555 -0.1614  0.3541
  523MOL0    Cl70514   6.572   3.812   1.662 -0.3033  0.5173 -0.0444
  523MOL0     C70515   7.568   3.957   2.077  1.9225 -0.5076 -1.4583
  523MOL0     C70516   7.704   3.980   2.059  0.2469  0.5028  0.3608
  523MOL0     O70517   8.006   3.739   1.923 -0.5542 -0.3860  0.3176
  523MOL0     C70518   8.278   3.823   1.978 -0.4865 -0.2245 -0.2729
  523MOL0     C70519   8.407   3.861   2.016  0.0251 -0.4730 -0.7274
  523MOL0     N70520   9.010   4.148   2.478 -0.2917 -0.3037 -0.3576
  523MOL0     N70521   9.030   4.157   2.608  0.0104  0.1721 -0.3131
  523MOL0     C70522   9.060   4.176   3.776  1.0514  0.5411 -0.3891
  523MOL0     C70523   8.979   4.201   3.883  0.3212 -0.6220 -0.1037
  523MOL0     C70524   8.843   4.210   4.324 -0.2020 -0.0339 -1.0136
  523MOL0     C70525   8.726   4.282   4.287  0.3816 -0.3189  0.0715
  523MOL0     C70526   8.632   4.331   4.380  0.1248 -0.1549 -0.7803
  523MOL0     C70527   8.643   4.295   4.509  0.0999  0.1363 -0.8062
  523MOL0     O70528   8.553   4.331   4.605 -0.0432 -1.0320 -0.3377
  523MOL0     C70529   8.429   4.386   4.567 -0.1955 -0.3716 -0.3350
  523MOL0     C70530   8.327   4.407   4.683 -0.2464  0.3989  0.4246
  523MOL0     C70531   8.369   4.519   4.775 -0.0691  0.5316  0.1350
  523MOL0     C70532   8.262   4.575   4.852 -0.0672  0.2917  0.1601
  523MOL0     C70533   8.159   4.647   4.770  0.6759  0.6516 -0.3990
  523MOL0     C70534   8.087   4.694   4.683 -0.6138 -0.2129  1.0688
  523MOL0     C70535   8.748   4.210   4.544  0.8706  1.3778 -0.5612
  523MOL0     C70536   8.846   4.170   4.452  0.0374  0.6002 -0.1256
  523MOL0     C70537   8.940   4.053   4.498 -0.0808  0.1783 -0.2759
  523MOL0     H70538   9.098   3.963   4.100  1.3443 -1.5025 -0.8927
  523MOL0     H70539   9.243   3.915   3.899  0.9720  0.8357 -2.5454
  523MOL0     H70540   9.127   4.126   3.523 -0.9067  2.3009  1.0118
  523MOL0     H70541   9.266   4.219   3.564  1.5356 -1.4649  0.2954
  523MOL0     H70542   9.308   3.947   3.444 -0.6141 -0.2471 -0.4228
  523MOL0     H70543   9.418   4.088   3.459  1.1811  0.6407 -1.6592
  523MOL0     H70544   9.356   4.103   3.246  1.3533 -0.7349  2.1043
  523MOL0     H70545   9.230   4.210   3.326  1.4981 -0.3590  2.5593
  523MOL0     H70546   9.206   3.924   3.228 -3.3689 -1.1210 -1.0760
  523MOL0     H70547   9.070   3.998   3.302 -0.1227 -2.8887  0.4578
  523MOL0     H70548   9.070   4.170   3.092 -0.1790 -0.0600 -0.0887
  523MOL0     H70549   9.207   4.064   3.048 -0.0518 -1.9970  1.1792
  523MOL0     H70550   9.082   3.866   3.028  1.7332 -0.2981 -1.7196
  523MOL0     H70551   8.933   3.947   3.084  0.2359  0.2062 -1.2735
  523MOL0     H70552   8.925   4.091   2.886  0.1464  0.4201  1.6812
  523MOL0     H70553   8.920   3.914   2.853 -0.1443  1.1615 -1.4546
  523MOL0     H70554   9.178   4.061   2.823  2.1438 -3.4157  2.8264
  523MOL0     H70555   9.132   3.902   2.791  2.6755  1.0480  1.1860
  523MOL0     H70556   9.006   3.841   2.585 -0.4406  0.3381 -0.5011
  523MOL0     H70557   9.053   4.009   2.236  0.3614 -2.7635 -1.0945
  523MOL0     H70558   8.982   3.861   2.309  0.5469 -0.0834  1.4954
  523MOL0     H70559   8.842   4.116   2.223 -3.0079  0.4143 -1.2751
  523MOL0     H70560   8.829   3.958   2.146 -1.4957  1.2436 -0.6818
  523MOL0     H70561   8.754   4.034   2.433 -1.3395  2.5466 -0.4841
  523MOL0     H70562   8.728   3.872   2.351  0.5311  0.1940  2.5215
  523MOL0     H70563   8.611   4.137   2.266  1.2392  0.0146  1.8254
  523MOL0     H70564   8.521   4.012   2.358 -0.3282 -2.1038 -0.3943
  523MOL0     H70565   8.316   4.083   2.267  0.9619  3.3802 -3.9397
  523MOL0     H70566   8.086   3.988   2.208  0.9428 -3.1280  1.9657
  523MOL0     H70567   7.811   3.667   2.004  1.0084 -1.0496  1.5864
  523MOL0     H70568   7.561   3.628   2.020  1.7005 -0.8769 -0.1351
  523MOL0     H70569   7.314   3.993   2.111 -1.7197  1.0419  0.5061
  523MOL0     H70570   7.233   3.925   1.973  3.2670  3.5243 -0.1870
  523MOL0     H70571   7.212   3.833   2.264  1.1462 -1.4351 -0.3795
  523MOL0     H70572   7.077   3.916   2.196 -1.7062 -2.8598  2.3087
  523MOL0     H70573   7.182   3.639   2.103  0.1693  0.3593  1.0931
  523MOL0     H70574   7.040   3.677   2.204 -0.9199  1.1441  1.1911
  523MOL0     H70575   6.966   3.630   1.972  1.3027 -0.3406  0.6128
  523MOL0     H70576   7.058   3.758   1.913  2.4956 -0.3480  0.9573
  523MOL0     H70577   6.925   3.918   2.059  0.3157 -1.0930  1.8271
  523MOL0     H70578   6.842   3.784   2.139  0.1035 -0.5310 -0.7490
  523MOL0     H70579   6.709   3.746   1.943  1.3495 -0.6352 -0.4428
  523MOL0     H70580   6.705   3.918   1.982 -0.6327  1.6867 -3.1965
  523MOL0     H70581   6.855   3.789   1.756 -1.0800 -1.0565  0.7411
  523MOL0     H70582   6.896   3.958   1.796 -1.6019  1.8600 -0.0221
  523MOL0     H70583   6.636   4.006   1.776  1.1948  4.2452 -2.9207
  523MOL0     H70584   6.735   3.985   1.628  1.6935 -0.8120  0.8694
  523MOL0     H70585   7.512   4.042   2.115 -0.9592 -2.9962  0.3201
  523MOL0     H70586   7.747   4.074   2.092  0.6833  0.8905 -1.2388
  523MOL0     H70587   8.266   3.753   1.896 -0.4297 -0.4633 -0.0778
  523MOL0     H70588   8.479   3.805   1.958  1.0582  0.0502  0.0229
  523MOL0     H70589   9.042   4.236   3.687  0.3011  2.2663  0.8627
  523MOL0     H70590   8.909   4.282   3.864  2.1753  1.5703  1.7885
  523MOL0     H70591   8.718   4.318   4.185 -0.3405 -4.7988 -1.7130
  523MOL0     H70592   8.550   4.394   4.349  1.2734  0.9283 -1.6983
  523MOL0     H70593   8.387   4.314   4.496  2.6430 -2.2511 -0.2717
  523MOL0     H70594   8.442   4.482   4.515 -1.1919 -0.9446 -1.7088
  523MOL0     H70595   8.312   4.319   4.746 -1.1983  0.9207  0.9652
  523MOL0     H70596   8.230   4.428   4.637 -0.8204 -2.0092  0.4069
  523MOL0     H70597   8.429   4.592   4.719 -1.4135  0.8867 -0.8983
  523MOL0     H70598   8.442   4.478   4.846 -1.6933 -2.0242  0.4468
  523MOL0     H70599   8.211   4.495   4.906  1.4853 -0.3283  0.7712
  523MOL0     H70600   8.299   4.637   4.934 -2.3836 -0.1395  1.6266
  523MOL0     H70601   8.036   4.744   4.603 -0.4994  2.2555  2.4663
  523MOL0     H70602   8.749   4.169   4.645 -0.2318  1.4919 -0.4998
  523MOL0     H70603   8.881   3.969   4.537 -0.2587  0.8090  0.8551
  523MOL0     H70604   9.004   4.018   4.417 -4.9488 -4.5385 -2.7605
  523MOL0     H70605   9.003   4.096   4.576  0.0444 -3.5415  1.9166
  524MOL0     O70606   0.229   0.360   5.183 -0.4326  0.2707 -0.7072
  524MOL0     C70607   0.256   0.325   5.075 -0.2435  0.1265  0.3036
  524MOL0     O70608   0.190   0.232   5.007  0.2452  0.0625  0.0918
  524MOL0     C70609   0.084   0.151   5.041 -0.3129 -0.7939 -0.5207
  524MOL0     C70610   0.089   0.018   5.024  0.0151  0.4561 -0.0043
  524MOL0     C70611  -0.027  -0.069   5.049 -1.0213 -0.1603 -0.3361
  524MOL0     C70612  -0.146  -0.018   5.097 -0.2590  0.1388  0.1668
  524MOL0     O70613  -0.255  -0.104   5.107  0.4109 -0.0874  0.5901
  524MOL0     C70614  -0.389  -0.046   5.099  0.3371 -0.1648 -0.0904
  524MOL0     C70615  -0.491  -0.146   5.057 -0.3666 -0.3474 -0.4903
  524MOL0     C70616  -0.629  -0.085   5.051 -0.4181  0.3400  0.5434
  524MOL0     C70617  -0.727  -0.205   5.028 -0.6945  0.0557  0.0942
  524MOL0     C70618  -0.859  -0.197   5.102 -0.1916  0.2809 -0.1679
  524MOL0     C70619  -0.835  -0.218   5.251  0.9225 -0.3631 -0.4004
  524MOL0     C70620  -0.956  -0.220   5.346  0.0116 -0.7533  0.3857
  524MOL0     C70621  -1.058  -0.332   5.314  0.2078  0.1674  0.5011
  524MOL0     N70622  -1.145  -0.371   5.427  0.0577 -0.5789 -0.9260
  524MOL0     C70623  -1.249  -0.301   5.482 -0.1255 -0.2476 -0.0882
  524MOL0     C70624  -1.307  -0.389   5.570 -0.4470  0.2647  0.4536
  524MOL0     C70625  -1.421  -0.372   5.667  0.7980  0.1681  0.3163
  524MOL0     C70626  -1.385  -0.283   5.784  0.0538  0.5765 -0.3548
  524MOL0     C70627  -1.297  -0.367   5.877 -0.4797 -0.6537 -0.0652
  524MOL0     C70628  -1.266  -0.277   6.002  0.2183 -0.9699  0.8265
  524MOL0     O70629  -1.165  -0.180   5.987 -0.1541 -0.0328  0.0968
  524MOL0     C70630  -1.151  -0.083   6.089  1.2174 -0.5024 -0.3056
  524MOL0     C70631  -1.263   0.004   6.113 -0.7310  0.1328  0.3218
  524MOL0     C70632  -1.259   0.078   6.235 -0.4825  0.7306 -0.7977
  524MOL0     C70633  -1.141   0.090   6.313  0.0213 -0.5256  0.0728
  524MOL0     C70634  -1.137   0.171   6.436  0.6149 -0.2369  0.0208
  524MOL0     O70635  -1.023   0.165   6.508 -0.3472  0.5122 -0.6479
  524MOL0     C70636  -1.030   0.214   6.631  0.3034  0.1664 -0.7501
  524MOL0     C70637  -1.125   0.172   6.725  0.5003 -0.1887 -0.2721
  524MOL0     C70638  -1.120   0.226   6.860 -0.6984  0.2205  0.6131
  524MOL0     C70639  -0.996   0.289   6.904  0.2448  0.0949  0.0955
  524MOL0     O70640  -0.987   0.330   7.037 -0.8436 -0.3482  0.5463
  524MOL0     C70641  -0.952   0.465   7.058  0.2661  0.1901  0.4539
  524MOL0     C70642  -1.015   0.499   7.191 -0.3979  0.0321 -0.1427
  524MOL0     C70643  -1.177   0.503   7.178  1.2032 -0.1314  0.2990
  524MOL0     C70644  -1.219   0.632   7.099 -0.1200 -0.0799 -0.0062
  524MOL0     C70645  -1.360   0.671   7.126  0.0653 -0.4554 -0.3310
  524MOL0     C70646  -1.428   0.777   7.040  0.0705  0.3718  0.1714
  524MOL0     C70647  -1.453   0.726   6.898  0.2967 -0.4155  0.0498
  524MOL0     C70648  -1.585   0.794   6.865  0.6527  0.2438 -0.3493
  524MOL0    Cl70649  -1.581   0.977   6.890  0.0227 -0.1106  0.3616
  524MOL0     C70650  -0.896   0.308   6.815 -0.0191  1.1973  0.5050
  524MOL0     C70651  -0.920   0.273   6.681 -0.4611  0.2618 -0.2077
  524MOL0     O70652  -1.239   0.243   6.471 -0.3701  0.0321 -0.4605
  524MOL0     C70653  -1.033   0.017   6.279 -0.4475  0.6004 -0.4309
  524MOL0     C70654  -1.039  -0.079   6.174  0.0473 -0.5740  0.1783
  524MOL0     N70655  -1.216  -0.499   5.579  0.4414  0.2018  1.2688
  524MOL0     N70656  -1.114  -0.482   5.498  0.1349 -0.9510  0.2453
  524MOL0     C70657  -0.146   0.117   5.120  0.7308  0.0222  0.1509
  524MOL0     C70658  -0.036   0.197   5.095 -0.2529  0.1893  0.3395
  524MOL0     C70659   0.350   0.408   4.995 -0.9680  0.9461  0.3893
  524MOL0     C70660   0.375   0.382   4.854  0.0329 -0.5742  0.0754
  524MOL0     C70661   0.458   0.463   4.778  0.8532  1.3913 -0.6918
  524MOL0     C70662   0.536   0.558   4.836 -0.4005  0.9181 -0.2870
  524MOL0     O70663   0.626   0.629   4.755  0.1375 -0.4437  0.6164
  524MOL0     C70664   0.749   0.547   4.738 -0.0311  0.3360  0.3820
  524MOL0     C70665   0.833   0.550   4.868  0.7679  0.2668 -0.2627
  524MOL0     C70666   0.868   0.697   4.914 -0.2594 -0.0197  0.6407
  524MOL0     C70667   0.915   0.708   5.053  0.6040 -0.5114 -0.1509
  524MOL0     C70668   1.046   0.659   5.068 -1.1398 -0.0446 -0.0583
  524MOL0     C70669   1.156   0.635   5.100  0.6923 -0.2155 -0.1935
  524MOL0     C70670   0.519   0.584   4.964  0.0606 -0.5613 -0.6493
  524MOL0     C70671   0.433   0.509   5.053 -0.5481  0.2892 -0.2876
  524MOL0     C70672   0.456   0.538   5.199  0.6769  0.4934 -0.1294
  524MOL0     H70673   0.181  -0.026   4.988 -0.4254 -1.3632  1.0148
  524MOL0     H70674  -0.017  -0.176   5.036  0.1370 -0.0340 -0.6000
  524MOL0     H70675  -0.412   0.002   5.195 -1.9809 -2.2990  0.5183
  524MOL0     H70676  -0.388   0.026   5.016 -3.3023 -0.8389 -0.8899
  524MOL0     H70677  -0.482  -0.229   5.128  0.8246 -1.8397 -2.2931
  524MOL0     H70678  -0.460  -0.190   4.963  1.2573 -0.5567  0.1128
  524MOL0     H70679  -0.633   0.000   4.982  1.5542  1.3625  1.5990
  524MOL0     H70680  -0.641  -0.033   5.147  4.0728  1.0423  0.9558
  524MOL0     H70681  -0.747  -0.207   4.921 -2.0130 -0.2613  0.3217
  524MOL0     H70682  -0.681  -0.299   5.059  2.2813  1.1206 -0.7888
  524MOL0     H70683  -0.896  -0.096   5.087 -0.6316  0.7378  3.2565
  524MOL0     H70684  -0.930  -0.274   5.070 -1.1863  2.0366 -2.4251
  524MOL0     H70685  -0.790  -0.317   5.266  1.2584 -0.1235  0.2217
  524MOL0     H70686  -0.766  -0.144   5.294  1.7075 -1.5779  0.5114
  524MOL0     H70687  -1.014  -0.127   5.340  0.9480  0.0085  2.2857
  524MOL0     H70688  -0.922  -0.248   5.447 -1.2279 -2.4547  0.3716
  524MOL0     H70689  -1.129  -0.297   5.240 -2.4378  0.5427  3.0324
  524MOL0     H70690  -0.999  -0.417   5.278 -0.7591 -0.0919 -0.4985
  524MOL0     H70691  -1.295  -0.208   5.451 -1.6126 -0.4104  1.5161
  524MOL0     H70692  -1.503  -0.320   5.617 -1.2439 -0.3152  2.9431
  524MOL0     H70693  -1.467  -0.468   5.690 -0.8953  0.8678 -0.0281
  524MOL0     H70694  -1.314  -0.203   5.757  0.2249  0.5759  0.0800
  524MOL0     H70695  -1.470  -0.238   5.835 -1.5319 -0.3017 -2.1330
  524MOL0     H70696  -1.200  -0.387   5.830 -0.4725 -3.5030  0.9582
  524MOL0     H70697  -1.332  -0.469   5.898 -3.5994  0.4709  0.6879
  524MOL0     H70698  -1.221  -0.337   6.082  4.5182  0.8341 -0.0098
  524MOL0     H70699  -1.356  -0.224   6.035  0.1744 -1.6258  1.8199
  524MOL0     H70700  -1.354   0.004   6.053  0.7979 -1.2111 -2.1523
  524MOL0     H70701  -1.349   0.132   6.260 -0.6388 -0.2117  0.8171
  524MOL0     H70702  -1.207   0.113   6.687  2.0526 -1.0991 -2.4012
  524MOL0     H70703  -1.208   0.223   6.924 -1.6076  0.7438 -0.5737
  524MOL0     H70704  -0.845   0.472   7.081  0.1332  0.4911  0.9968
  524MOL0     H70705  -0.982   0.532   6.977 -0.0564  2.7852  2.5491
  524MOL0     H70706  -0.995   0.417   7.260 -1.0895 -1.5324 -1.7082
  524MOL0     H70707  -0.973   0.592   7.230 -0.1855 -0.3496  0.5480
  524MOL0     H70708  -1.209   0.409   7.131 -1.5836  0.9255 -0.0823
  524MOL0     H70709  -1.214   0.511   7.281 -1.7321 -0.3786 -0.6423
  524MOL0     H70710  -1.224   0.627   6.990 -3.3480  4.6659 -0.3609
  524MOL0     H70711  -1.154   0.715   7.127  2.2175 -2.0999  0.9018
  524MOL0     H70712  -1.357   0.712   7.227 -2.1776 -3.2568  1.0529
  524MOL0     H70713  -1.429   0.586   7.118  0.1605 -0.4544 -1.2258
  524MOL0     H70714  -1.522   0.797   7.093 -0.7477 -1.4736 -0.4620
  524MOL0     H70715  -1.379   0.872   7.020  2.2229 -1.1714 -2.7170
  524MOL0     H70716  -1.460   0.617   6.894 -0.7717 -0.3275 -0.8142
  524MOL0     H70717  -1.380   0.767   6.828 -0.8623 -0.9768 -1.5405
  524MOL0     H70718  -1.618   0.773   6.763 -0.0459 -0.3722 -0.0082
  524MOL0     H70719  -1.667   0.767   6.933 -0.3227  1.5767 -0.9598
  524MOL0     H70720  -0.802   0.356   6.842  0.8877 -0.0098 -0.4081
  524MOL0     H70721  -0.829   0.289   6.624 -0.0585  0.3130  0.4394
  524MOL0     H70722  -0.944   0.010   6.340 -0.9685  1.5832  0.4709
  524MOL0     H70723  -0.961  -0.155   6.174 -0.8063 -1.4748  0.8509
  524MOL0     H70724  -0.236   0.157   5.166 -1.0757 -0.7279 -2.5270
  524MOL0     H70725  -0.052   0.304   5.109  0.6520  0.5285 -1.0615
  524MOL0     H70726   0.325   0.297   4.809 -0.5096 -0.7282  0.9276
  524MOL0     H70727   0.472   0.453   4.671 -1.6177 -0.8332 -0.8887
  524MOL0     H70728   0.813   0.587   4.658  1.1186  0.3319  1.2710
  524MOL0     H70729   0.722   0.443   4.721  2.0345  0.0554 -1.7078
  524MOL0     H70730   0.922   0.496   4.834  0.6084  0.8124 -1.6140
  524MOL0     H70731   0.779   0.492   4.943  0.3693 -1.2460 -1.6745
  524MOL0     H70732   0.769   0.744   4.917 -0.0246  0.4340  1.8240
  524MOL0     H70733   0.929   0.756   4.845 -1.4166 -0.7579 -1.0811
  524MOL0     H70734   0.929   0.814   5.075 -1.7003 -0.0532 -0.6109
  524MOL0     H70735   0.846   0.662   5.125 -2.2123 -0.5160 -2.6799
  524MOL0     H70736   1.260   0.612   5.111  1.3229  1.3912 -2.0059
  524MOL0     H70737   0.580   0.667   4.998  0.4352 -2.0667  2.7091
  524MOL0     H70738   0.440   0.447   5.258  1.0915  1.2469  1.1972
  524MOL0     H70739   0.556   0.579   5.213 -0.3059  3.3163 -0.6005
  524MOL0     H70740   0.382   0.605   5.245  0.5925 -0.8137  1.7180
  525MOL0     O70741  10.369   8.463   4.301  0.5013  0.6176  0.7572
  525MOL0     C70742  10.450   8.392   4.259 -0.6289  0.5275  0.0464
  525MOL0     O70743  10.479   8.371   4.126  0.6168 -0.2192 -0.1188
  525MOL0     C70744  10.404   8.435   4.032 -0.7226  0.8385 -0.6577
  525MOL0     C70745  10.393   8.577   4.037 -0.9800  0.4428  0.5934
  525MOL0     C70746  10.336   8.644   3.932 -0.1632  0.6974  0.5325
  525MOL0     C70747  10.289   8.576   3.822  0.0889 -0.2997  0.4591
  525MOL0     O70748  10.234   8.650   3.717 -0.1913  0.7088 -0.0023
  525MOL0     C70749  10.152   8.774   3.739 -0.3484  0.8369 -0.8082
  525MOL0     C70750  10.143   8.864   3.613  0.7405 -0.0799  1.0078
  525MOL0     C70751  10.037   8.812   3.510 -1.0415  0.2232  0.1906
  525MOL0     C70752  10.077   8.694   3.407  0.7130 -0.4855 -0.4693
  525MOL0     C70753  10.109   8.738   3.261 -1.1420 -1.1048 -0.4721
  525MOL0     C70754  10.228   8.843   3.250  1.0664 -0.4736  0.1866
  525MOL0     C70755  10.264   8.848   3.100 -1.1798 -0.1466 -0.8474
  525MOL0     C70756  10.159   8.917   3.003 -0.4238 -0.2190  0.4391
  525MOL0     N70757  10.205   8.888   2.871 -0.1463 -0.6047 -0.3296
  525MOL0     C70758  10.335   8.920   2.820  0.4662 -0.4876  0.0936
  525MOL0     C70759  10.319   8.857   2.703 -0.2695 -1.5241  0.5574
  525MOL0     C70760  10.427   8.827   2.600 -0.1518  1.0410 -0.5602
  525MOL0     C70761  10.540   8.937   2.611 -0.0787 -0.6493  0.4644
  525MOL0     C70762  10.653   8.907   2.501  0.1259  0.0282 -1.0271
  525MOL0     C70763  10.738   9.035   2.478  0.0037 -0.0003 -0.0619
  525MOL0     O70764  10.833   9.010   2.377  0.3795  0.4249 -0.1147
  525MOL0     C70765  10.950   8.945   2.413 -0.3048  0.0696  1.0210
  525MOL0     C70766  11.039   8.932   2.308 -0.1355 -0.1911 -0.1046
  525MOL0     C70767  11.156   8.853   2.321 -0.0082 -0.1545  0.0912
  525MOL0     C70768  11.179   8.783   2.443 -0.0096 -0.3897  0.5226
  525MOL0     C70769  11.304   8.694   2.462 -0.1099 -1.3790 -0.4525
  525MOL0     O70770  11.396   8.720   2.369 -0.9551 -0.2701 -0.3453
  525MOL0     C70771  11.521   8.654   2.381  1.2175  0.6398  0.6685
  525MOL0     C70772  11.542   8.519   2.417 -0.0411 -0.0761 -0.0343
  525MOL0     C70773  11.674   8.468   2.416  1.2928 -1.1844 -0.4362
  525MOL0     C70774  11.774   8.560   2.388 -0.8495  0.5408  1.7067
  525MOL0     O70775  11.906   8.522   2.392 -0.0015  0.2365 -0.8880
  525MOL0     C70776  11.927   8.398   2.321 -0.2431 -0.0073 -0.3405
  525MOL0     C70777  12.078   8.412   2.296  0.4148 -0.6183 -0.2033
  525MOL0     C70778  12.132   8.295   2.217 -1.0591  0.0836  0.8708
  525MOL0     C70779  12.069   8.237   2.086 -0.0199  0.1477  0.4400
  525MOL0     C70780  12.124   8.102   2.041  0.1360  0.4990  0.5427
  525MOL0     C70781  12.278   8.116   2.003  0.3432  0.1566 -0.9605
  525MOL0     C70782  12.329   7.986   1.956 -0.0489 -0.0334  0.8964
  525MOL0     C70783  12.484   7.970   1.958  0.2587  0.2968 -0.1171
  525MOL0    Cl70784  12.514   7.935   2.129 -0.0437 -0.2890 -0.0204
  525MOL0     C70785  11.761   8.693   2.350 -0.7903  0.4777  0.3349
  525MOL0     C70786  11.627   8.744   2.349  0.3672  0.8780 -0.1954
  525MOL0     O70787  11.290   8.598   2.536 -0.7318  0.8502 -0.0972
  525MOL0     C70788  11.095   8.814   2.552  1.9301 -0.2724 -0.1152
  525MOL0     C70789  10.978   8.891   2.539 -0.0618  0.8408  0.8142
  525MOL0     N70790  10.201   8.801   2.676 -0.1701 -0.0350 -0.3608
  525MOL0     N70791  10.126   8.822   2.783 -0.1144  0.0146  0.2976
  525MOL0     C70792  10.294   8.440   3.818 -0.4869  0.1291 -0.5631
  525MOL0     C70793  10.361   8.372   3.926 -0.2280 -0.6873  0.5682
  525MOL0     C70794  10.543   8.312   4.352  0.7601  0.1982  0.3527
  525MOL0     C70795  10.632   8.219   4.298 -0.4907  0.2073  0.2408
  525MOL0     C70796  10.720   8.146   4.371  0.6277 -0.5794 -0.0398
  525MOL0     C70797  10.716   8.146   4.511 -0.2672 -0.2691 -0.6975
  525MOL0     O70798  10.793   8.081   4.601 -0.6091  0.2230  0.3482
  525MOL0     C70799  10.935   8.118   4.597  0.4077 -0.7642  0.4012
  525MOL0     C70800  11.031   8.011   4.541  0.6441 -0.0912  0.0812
  525MOL0     C70801  11.069   7.883   4.625  0.2537 -0.2260  0.8323
  525MOL0     C70802  11.113   7.927   4.764  0.1627 -0.8562 -0.0607
  525MOL0     C70803  11.166   7.809   4.826  0.0771  0.5394  0.0216
  525MOL0     C70804  11.209   7.707   4.873  0.5486  0.0513 -0.5376
  525MOL0     C70805  10.616   8.215   4.562  0.6242 -0.3140 -0.5451
  525MOL0     C70806  10.542   8.309   4.494 -0.1190 -0.2523 -0.5327
  525MOL0     C70807  10.446   8.403   4.581 -0.7919  0.9895  0.4159
  525MOL0     H70808  10.452   8.629   4.111 -1.9358  1.2722  0.7812
  525MOL0     H70809  10.342   8.752   3.944 -1.1490  0.7588  0.5678
  525MOL0     H70810  10.056   8.732   3.769 -0.5593 -0.6073 -3.2643
  525MOL0     H70811  10.201   8.840   3.812 -2.0967  2.2918 -0.8941
  525MOL0     H70812  10.242   8.865   3.568  1.1214 -0.6603  1.8164
  525MOL0     H70813  10.123   8.968   3.642 -0.6370 -1.0060  3.7672
  525MOL0     H70814   9.998   8.890   3.445 -1.6151 -0.0560  0.1925
  525MOL0     H70815   9.953   8.786   3.575 -2.5566  0.9162 -1.4284
  525MOL0     H70816  10.165   8.643   3.446  0.1814 -0.9504  0.1602
  525MOL0     H70817   9.992   8.625   3.410 -2.6667  3.2720  2.8727
  525MOL0     H70818  10.138   8.644   3.213 -0.8962 -1.4788  0.3908
  525MOL0     H70819  10.018   8.778   3.214  0.4229  2.4855 -0.7740
  525MOL0     H70820  10.201   8.948   3.265 -1.7891 -0.0304 -5.4706
  525MOL0     H70821  10.311   8.809   3.313  0.3949 -1.7527  0.4133
  525MOL0     H70822  10.296   8.749   3.066  2.9746 -0.0078  1.9098
  525MOL0     H70823  10.366   8.887   3.106 -1.4866  0.3952  2.4840
  525MOL0     H70824  10.058   8.881   3.021 -2.0670  1.7578 -3.6190
  525MOL0     H70825  10.151   9.026   3.013 -0.7428 -0.1513 -0.4640
  525MOL0     H70826  10.417   8.974   2.866 -0.5584  0.4172  0.8982
  525MOL0     H70827  10.462   8.723   2.609 -1.8726  0.5191  0.6512
  525MOL0     H70828  10.373   8.846   2.507 -0.8749 -1.5128 -0.7472
  525MOL0     H70829  10.504   9.036   2.583  0.0368 -1.6007 -3.6425
  525MOL0     H70830  10.582   8.950   2.711  1.3651  0.0225 -0.2099
  525MOL0     H70831  10.598   8.890   2.408 -1.0028  1.3045 -0.6349
  525MOL0     H70832  10.714   8.821   2.531 -1.6299 -0.7751  0.4877
  525MOL0     H70833  10.789   9.071   2.568  1.7670  1.5774 -1.5992
  525MOL0     H70834  10.668   9.112   2.446  0.7292  0.2122 -1.2149
  525MOL0     H70835  11.013   8.968   2.209 -2.3986  2.2955  1.2830
  525MOL0     H70836  11.209   8.814   2.235 -0.7631  1.8938 -1.4022
  525MOL0     H70837  11.460   8.451   2.437  1.9971 -2.1349  1.8843
  525MOL0     H70838  11.681   8.363   2.443 -4.9042 -2.1584 -1.0842
  525MOL0     H70839  11.923   8.310   2.387  1.3124 -0.1786 -0.4350
  525MOL0     H70840  11.868   8.382   2.231  1.1698 -1.1077 -1.1272
  525MOL0     H70841  12.102   8.510   2.254 -1.1611 -0.5071 -0.9436
  525MOL0     H70842  12.119   8.404   2.397 -1.2584 -2.6009  0.3881
  525MOL0     H70843  12.236   8.313   2.191 -0.7833 -2.9680 -0.5487
  525MOL0     H70844  12.136   8.215   2.292  0.8339 -2.8955 -2.1270
  525MOL0     H70845  12.085   8.313   2.008 -4.5297  0.6917 -0.2159
  525MOL0     H70846  11.961   8.224   2.093  0.2010 -0.7012  3.3241
  525MOL0     H70847  12.067   8.071   1.953  1.2312 -2.2760  0.7027
  525MOL0     H70848  12.101   8.030   2.121 -2.5090 -0.0836 -0.6429
  525MOL0     H70849  12.295   8.195   1.929  2.2663 -0.1846 -0.9241
  525MOL0     H70850  12.333   8.148   2.092  2.0943  1.3323 -2.4120
  525MOL0     H70851  12.296   7.971   1.853 -1.4997 -0.6842  1.4321
  525MOL0     H70852  12.285   7.897   2.002  0.7217  0.2854  2.2948
  525MOL0     H70853  12.524   7.892   1.892 -2.1395  1.1495 -2.7790
  525MOL0     H70854  12.533   8.060   1.923  0.4230  0.9505  1.6629
  525MOL0     H70855  11.849   8.754   2.336  0.7759 -1.2389  2.1256
  525MOL0     H70856  11.593   8.842   2.320  1.6861  0.8905 -1.8621
  525MOL0     H70857  11.107   8.777   2.654  1.1397 -1.9076 -0.5761
  525MOL0     H70858  10.918   8.903   2.629  0.6890  0.2524  1.4072
  525MOL0     H70859  10.263   8.382   3.732 -0.1842 -0.6660 -0.1436
  525MOL0     H70860  10.376   8.266   3.908  0.7627 -0.5967  0.7836
  525MOL0     H70861  10.639   8.196   4.192  2.4763 -0.7871  0.5822
  525MOL0     H70862  10.786   8.084   4.311 -2.1441 -1.8992 -1.9109
  525MOL0     H70863  10.967   8.151   4.697 -1.0614 -1.2895  1.0650
  525MOL0     H70864  10.949   8.203   4.530  2.8950 -2.6351 -1.6672
  525MOL0     H70865  11.125   8.065   4.531  0.6200 -0.3280 -1.7569
  525MOL0     H70866  10.997   7.988   4.440 -1.1965  1.1913  0.3509
  525MOL0     H70867  11.157   7.832   4.583 -2.9465 -4.9090 -0.9785
  525MOL0     H70868  10.988   7.813   4.603 -1.3531  1.8961 -0.3444
  525MOL0     H70869  11.194   7.999   4.755 -0.4562 -0.3377 -2.1790
  525MOL0     H70870  11.028   7.966   4.821  3.5879  3.5068  2.6474
  525MOL0     H70871  11.243   7.621   4.927  2.6834  1.2388  0.1498
  525MOL0     H70872  10.596   8.203   4.668  0.2830 -0.0144 -0.5711
  525MOL0     H70873  10.343   8.384   4.549 -0.0121 -1.1241 -1.0942
  525MOL0     H70874  10.451   8.394   4.690  2.3070 -0.0435  0.3076
  525MOL0     H70875  10.475   8.507   4.564 -0.6883  1.1079  1.2962
  526MOL0     O70876   7.027   2.351  10.678  0.3330 -0.4512  0.2535
  526MOL0     C70877   6.987   2.450  10.727  0.5552  0.6514  0.4121
  526MOL0     O70878   7.055   2.570  10.739  0.2073 -0.9926  0.8543
  526MOL0     C70879   7.145   2.603  10.642  0.3903 -0.7731  0.1195
  526MOL0     C70880   7.252   2.678  10.681 -0.0829  0.0640 -0.2710
  526MOL0     C70881   7.332   2.737  10.586  0.3362 -0.0524  0.3991
  526MOL0     C70882   7.308   2.720  10.446 -0.8878  0.3818 -0.9118
  526MOL0     O70883   7.382   2.781  10.344  0.1656  0.3153 -0.1501
  526MOL0     C70884   7.491   2.858  10.379  0.2687 -0.0887 -0.4163
  526MOL0     C70885   7.623   2.777  10.373  0.0888 -0.3978 -1.2527
  526MOL0     C70886   7.754   2.859  10.408 -0.4735  0.0911  0.0520
  526MOL0     C70887   7.839   2.887  10.283  0.5116  0.1407  0.4111
  526MOL0     C70888   7.979   2.953  10.318 -0.8627  0.4812 -0.4186
  526MOL0     C70889   7.972   3.078  10.403 -0.5330 -0.7358  0.0783
  526MOL0     C70890   8.112   3.138  10.411 -0.0150 -0.1215  0.7491
  526MOL0     C70891   8.099   3.279  10.478  0.1555  0.1402 -0.0148
  526MOL0     N70892   8.235   3.325  10.479  0.1995  0.0941 -0.0262
  526MOL0     C70893   8.336   3.294  10.579  0.6157  0.0134  1.0335
  526MOL0     C70894   8.435   3.369  10.541 -0.6883  0.0348 -0.0463
  526MOL0     C70895   8.572   3.378  10.602  0.2300 -0.0651  0.6794
  526MOL0     C70896   8.650   3.510  10.597 -0.0998 -0.3349  0.6169
  526MOL0     C70897   8.563   3.637  10.628 -0.6841  0.1063 -0.0887
  526MOL0     C70898   8.658   3.758  10.608  0.7194 -0.0669 -1.0105
  526MOL0     O70899   8.760   3.775  10.709 -0.8431 -0.6121  0.5751
  526MOL0     C70900   8.841   3.889  10.716  0.1403  0.3284  1.0630
  526MOL0     C70901   8.856   3.986  10.617 -0.1590 -0.3626  0.3913
  526MOL0     C70902   8.933   4.098  10.639  0.7978 -0.3278  0.3534
  526MOL0     C70903   9.015   4.103  10.760  0.0556 -0.0269 -0.1221
  526MOL0     C70904   9.115   4.215  10.757 -0.0684  0.4009 -0.5224
  526MOL0     O70905   9.133   4.269  10.635  0.5905 -0.0823  0.2774
  526MOL0     C70906   9.240   4.356  10.617  0.3962  0.5792  0.4196
  526MOL0     C70907   9.223   4.462  10.530  0.9296  0.3412 -0.0227
  526MOL0     C70908   9.338   4.549  10.496  0.5194  0.1475  0.1332
  526MOL0     C70909   9.468   4.529  10.541  1.0534  0.2734 -0.1297
  526MOL0     O70910   9.561   4.614  10.482  0.3641  0.3014  0.5587
  526MOL0     C70911   9.692   4.610  10.535 -0.0403 -0.2577 -0.2944
  526MOL0     C70912   9.764   4.731  10.497 -0.2263 -0.3968 -0.1766
  526MOL0     C70913   9.863   4.772  10.609 -0.7956  1.2428 -0.7715
  526MOL0     C70914   9.969   4.662  10.612 -0.5049  0.2501 -0.6216
  526MOL0     C70915  10.100   4.716  10.649 -0.5791  0.1864 -0.1401
  526MOL0     C70916  10.204   4.603  10.651 -0.7043  1.3950  0.0341
  526MOL0     C70917  10.345   4.672  10.675  0.1025  1.0979  0.3621
  526MOL0     C70918  10.353   4.746  10.801 -0.5618 -0.1487 -0.3213
  526MOL0    Cl70919  10.312   4.638  10.938  0.5630 -0.3822  0.2429
  526MOL0     C70920   9.481   4.416  10.616  0.1395  0.2773 -0.6165
  526MOL0     C70921   9.373   4.329  10.656  0.3251 -0.8341 -0.3917
  526MOL0     O70922   9.178   4.252  10.856 -0.4315  0.2594  0.5709
  526MOL0     C70923   8.996   4.010  10.864 -0.4767  0.6119 -0.2273
  526MOL0     C70924   8.907   3.903  10.841  0.5057 -0.6302 -0.1059
  526MOL0     N70925   8.394   3.457  10.444  0.9526 -0.8262 -0.0595
  526MOL0     N70926   8.275   3.432  10.402  0.1034  0.1079 -0.5085
  526MOL0     C70927   7.205   2.636  10.406 -1.2226 -0.4297  0.3680
  526MOL0     C70928   7.119   2.580  10.504 -0.3604  0.2310 -0.1456
  526MOL0     C70929   6.857   2.445  10.798  0.2056 -0.1340  0.2120
  526MOL0     C70930   6.832   2.520  10.914 -0.4436  0.9084  1.2002
  526MOL0     C70931   6.716   2.504  10.983  0.0349 -0.9249  0.2128
  526MOL0     C70932   6.620   2.411  10.950  0.1435 -0.1836 -0.1524
  526MOL0     O70933   6.495   2.416  11.010  0.1340  0.5853 -0.3539
  526MOL0     C70934   6.466   2.301  11.096 -0.1456  0.2755  0.0352
  526MOL0     C70935   6.321   2.327  11.159  0.5412 -0.6964  0.6626
  526MOL0     C70936   6.298   2.222  11.269 -0.0142 -0.7050  0.3387
  526MOL0     C70937   6.153   2.169  11.271  0.2321 -0.6815 -0.1053
  526MOL0     C70938   6.046   2.271  11.304  0.1623 -0.0476  0.1716
  526MOL0     C70939   5.992   2.380  11.306 -0.0075 -0.5382 -0.0945
  526MOL0     C70940   6.630   2.347  10.824 -0.3177 -0.3488  0.1344
  526MOL0     C70941   6.746   2.363  10.748 -0.1947  0.1206 -1.0124
  526MOL0     C70942   6.738   2.300  10.603 -0.6417 -0.3720  0.0309
  526MOL0     H70943   7.276   2.708  10.783  2.1294 -2.0366 -0.0812
  526MOL0     H70944   7.404   2.813  10.618 -0.6694  0.4623  1.5436
  526MOL0     H70945   7.507   2.937  10.305  0.9814  0.3642  0.1979
  526MOL0     H70946   7.490   2.913  10.474  0.3751  1.4591 -1.2851
  526MOL0     H70947   7.643   2.716  10.285  2.6159 -1.8473  0.2031
  526MOL0     H70948   7.605   2.701  10.450  3.3769  0.3224  0.3920
  526MOL0     H70949   7.815   2.786  10.461 -0.6889 -1.7376 -2.0537
  526MOL0     H70950   7.732   2.950  10.464 -3.4294 -0.6056  0.1917
  526MOL0     H70951   7.869   2.804  10.219  3.3973  1.0667  0.4103
  526MOL0     H70952   7.772   2.954  10.229 -3.5318 -3.7083  0.0913
  526MOL0     H70953   8.036   2.881  10.378  1.3808  3.4145  1.2650
  526MOL0     H70954   8.025   2.968  10.220 -1.5449 -0.0355 -0.8282
  526MOL0     H70955   7.905   3.146  10.351  0.1522  0.1850  0.3641
  526MOL0     H70956   7.933   3.053  10.502  1.0776  1.2525  1.2918
  526MOL0     H70957   8.165   3.147  10.315  0.7961 -2.6241  0.8874
  526MOL0     H70958   8.162   3.074  10.484 -3.6894 -2.4652  1.4577
  526MOL0     H70959   8.043   3.349  10.415  2.3406  1.1848 -0.8861
  526MOL0     H70960   8.059   3.273  10.580  1.0951 -0.2258  0.3457
  526MOL0     H70961   8.338   3.212  10.650  0.8876 -1.1569 -0.2614
  526MOL0     H70962   8.565   3.352  10.708 -2.9360 -1.1749  0.3022
  526MOL0     H70963   8.622   3.291  10.557 -0.0640  1.2021 -2.3689
  526MOL0     H70964   8.732   3.513  10.669 -0.1079  1.8801  0.6251
  526MOL0     H70965   8.695   3.526  10.499  1.9755 -2.9580  1.0466
  526MOL0     H70966   8.516   3.651  10.725  0.0074  1.7002  0.0531
  526MOL0     H70967   8.491   3.664  10.551  0.0956 -0.5271 -1.0703
  526MOL0     H70968   8.592   3.845  10.607 -0.1799 -0.6618  0.9102
  526MOL0     H70969   8.713   3.753  10.514  1.3413  0.3469 -0.6768
  526MOL0     H70970   8.809   3.979  10.520 -0.3565  3.8414 -0.0390
  526MOL0     H70971   8.943   4.164  10.554 -0.1637 -2.8068 -1.8120
  526MOL0     H70972   9.117   4.473  10.506  0.3375  1.4335  2.7424
  526MOL0     H70973   9.314   4.638  10.439 -2.3706  0.9333  2.3636
  526MOL0     H70974   9.678   4.623  10.643 -2.9031  0.0290 -0.6406
  526MOL0     H70975   9.749   4.520  10.510 -1.6696 -1.3137 -0.3447
  526MOL0     H70976   9.809   4.729  10.398  2.8089 -1.0782  1.1274
  526MOL0     H70977   9.688   4.810  10.484  0.7196  0.2053 -2.3547
  526MOL0     H70978   9.898   4.870  10.576 -2.5621  1.0557 -3.5743
  526MOL0     H70979   9.822   4.778  10.710  0.6378  0.1366 -0.0946
  526MOL0     H70980   9.977   4.614  10.514 -4.3826 -1.1807 -0.3956
  526MOL0     H70981   9.940   4.582  10.681 -1.4375 -0.4937 -1.8487
  526MOL0     H70982  10.088   4.761  10.748 -4.0961  1.6571 -1.0550
  526MOL0     H70983  10.134   4.785  10.571 -2.0914  0.8655 -0.2462
  526MOL0     H70984  10.182   4.536  10.735 -2.2107  1.4132 -0.3171
  526MOL0     H70985  10.212   4.537  10.564 -0.9986 -1.3090  1.9084
  526MOL0     H70986  10.375   4.735  10.592  0.5902 -0.5281 -0.7559
  526MOL0     H70987  10.414   4.587  10.684 -0.4371  0.6626  0.4437
  526MOL0     H70988  10.457   4.771  10.823 -0.4597 -2.9940  3.6804
  526MOL0     H70989  10.295   4.837  10.810 -1.0145 -0.3429 -1.2050
  526MOL0     H70990   9.583   4.401  10.652 -1.2196 -0.8091  3.2594
  526MOL0     H70991   9.397   4.248  10.724 -2.0716 -0.1365  1.4395
  526MOL0     H70992   9.059   4.016  10.952  0.0452 -1.5051 -0.4024
  526MOL0     H70993   8.897   3.821  10.913 -0.3437 -2.9838 -2.7237
  526MOL0     H70994   7.182   2.615  10.302  1.3571  3.1394 -1.1125
  526MOL0     H70995   7.030   2.526  10.473  0.2333 -1.7619  1.4494
  526MOL0     H70996   6.917   2.574  10.956 -0.4982 -0.3386  3.0507
  526MOL0     H70997   6.706   2.554  11.079  0.1195  0.3292 -0.4165
  526MOL0     H70998   6.547   2.297  11.170 -2.7950  0.8902  3.1954
  526MOL0     H70999   6.470   2.207  11.041  0.6876  0.5812 -0.4624
  526MOL0     H71000   6.237   2.331  11.089 -0.8717  2.9380  2.3279
  526MOL0     H71001   6.326   2.430  11.195  0.1469  1.0012 -3.6371
  526MOL0     H71002   6.336   2.265  11.362  2.1316  0.6921 -1.0832
  526MOL0     H71003   6.352   2.128  11.257 -3.8836 -2.9341 -1.3357
  526MOL0     H71004   6.125   2.133  11.172  3.3073  1.8293 -2.0694
  526MOL0     H71005   6.147   2.081  11.335  0.3209 -0.9256 -0.4302
  526MOL0     H71006   5.953   2.479  11.317  0.6585 -0.4824  2.0381
  526MOL0     H71007   6.537   2.314  10.780 -3.9541  5.7238  1.9693
  526MOL0     H71008   6.636   2.269  10.578 -0.6654 -0.3868  0.1479
  526MOL0     H71009   6.775   2.372  10.530  2.3784 -0.3183  1.4769
  526MOL0     H71010   6.798   2.209  10.591 -0.3760  0.0149 -2.0388
  527MOL0     O71011  11.029   0.401   4.444  0.1844 -0.6111 -0.4141
  527MOL0     C71012  10.963   0.305   4.479 -0.8401 -0.2860 -0.2615
  527MOL0     O71013  10.933   0.207   4.397 -0.0419  0.0054 -0.6452
  527MOL0     C71014  10.955   0.223   4.264  0.3766  0.4588  0.1323
  527MOL0     C71015  10.836   0.236   4.184 -0.2424  0.5117 -0.0574
  527MOL0     C71016  10.836   0.256   4.042 -0.3907  0.2791  0.1775
  527MOL0     C71017  10.959   0.261   3.979  0.2528  0.6918 -0.5828
  527MOL0     O71018  10.982   0.294   3.851 -0.9068 -0.1592 -0.7567
  527MOL0     C71019  10.878   0.339   3.764  0.4388 -0.3360  0.6453
  527MOL0     C71020  10.940   0.409   3.646 -0.3437  0.1444 -0.6122
  527MOL0     C71021  10.997   0.303   3.545 -0.6682 -0.1731  0.5839
  527MOL0     C71022  11.099   0.203   3.600  0.1251 -0.3469 -0.2975
  527MOL0     C71023  11.237   0.268   3.660 -0.5988  0.2771  0.0531
  527MOL0     C71024  11.329   0.163   3.719 -0.2714 -0.7616  0.1545
  527MOL0     C71025  11.479   0.166   3.673  0.5355 -0.1112  0.0350
  527MOL0     C71026  11.548   0.300   3.710  0.0033  0.0075  0.2691
  527MOL0     N71027  11.696   0.291   3.680  0.0927 -0.3067 -0.0030
  527MOL0     C71028  11.771   0.188   3.727  0.4803 -1.2616 -0.0622
  527MOL0     C71029  11.901   0.236   3.719 -0.2203  0.3024 -0.4791
  527MOL0     C71030  12.029   0.174   3.769 -0.0605  0.5546  0.4418
  527MOL0     C71031  12.127   0.156   3.650 -0.9060 -0.0892 -0.4093
  527MOL0     C71032  12.082   0.072   3.540  0.1322 -0.4711 -0.4260
  527MOL0     C71033  12.071  -0.080   3.590 -0.7612 -0.3689 -0.2162
  527MOL0     O71034  12.105  -0.180   3.485  0.1555 -0.5265 -0.3441
  527MOL0     C71035  12.227  -0.197   3.432 -0.4898 -0.6380 -0.0040
  527MOL0     C71036  12.244  -0.273   3.316  0.2372  0.6315  0.5600
  527MOL0     C71037  12.372  -0.307   3.268 -0.4057 -0.1539  0.2932
  527MOL0     C71038  12.482  -0.269   3.347  1.0385  0.0029  0.1190
  527MOL0     C71039  12.615  -0.314   3.309 -0.2591  0.7614  0.1222
  527MOL0     O71040  12.630  -0.382   3.192  0.0402 -0.3326  0.1798
  527MOL0     C71041  12.751  -0.428   3.147  0.7553  0.2165 -0.7861
  527MOL0     C71042  12.836  -0.520   3.210  0.3470  0.9633 -1.0786
  527MOL0     C71043  12.951  -0.568   3.157  0.3499  0.1600  0.4556
  527MOL0     C71044  12.992  -0.526   3.030  0.3088  0.3318  0.2272
  527MOL0     O71045  13.116  -0.563   2.974  0.1612  0.0360 -0.3305
  527MOL0     C71046  13.198  -0.667   3.038  0.7237 -0.5142 -0.3530
  527MOL0     C71047  13.308  -0.697   2.939 -0.6817 -0.2832 -0.9199
  527MOL0     C71048  13.256  -0.719   2.799  0.3961  0.0201 -0.0709
  527MOL0     C71049  13.364  -0.782   2.700 -0.3785  1.1471  0.1091
  527MOL0     C71050  13.489  -0.695   2.678 -0.2525 -0.3841 -0.1364
  527MOL0     C71051  13.604  -0.780   2.632 -0.8256 -0.1951 -0.2713
  527MOL0     C71052  13.729  -0.697   2.639 -0.7575  0.7409 -0.9931
  527MOL0     C71053  13.856  -0.774   2.605  0.2515 -0.5968  0.1880
  527MOL0    Cl71054  13.867  -0.848   2.437 -0.2388 -0.1878 -0.7012
  527MOL0     C71055  12.909  -0.432   2.958 -0.8764 -0.1177  0.2730
  527MOL0     C71056  12.782  -0.400   3.015 -0.0485 -0.3441  0.0936
  527MOL0     O71057  12.710  -0.287   3.385  0.2107 -0.0263 -0.3644
  527MOL0     C71058  12.462  -0.191   3.468  0.1950 -0.5063 -0.7522
  527MOL0     C71059  12.338  -0.151   3.511 -0.1135 -0.1713  0.0383
  527MOL0     N71060  11.892   0.366   3.666 -0.1993  0.1383  0.1837
  527MOL0     N71061  11.769   0.388   3.633 -0.1764 -1.0653 -0.8456
  527MOL0     C71062  11.075   0.272   4.054 -0.3621 -0.0901  0.2829
  527MOL0     C71063  11.067   0.247   4.197  0.0347 -0.5325  0.4482
  527MOL0     C71064  10.925   0.305   4.617 -1.4445 -0.7072 -0.5193
  527MOL0     C71065  11.028   0.312   4.716  0.3863  0.2231 -0.0176
  527MOL0     C71066  11.003   0.314   4.854  0.8518 -0.4901 -0.8198
  527MOL0     C71067  10.869   0.328   4.895 -0.0261  0.2638  0.1794
  527MOL0     O71068  10.842   0.348   5.025 -0.2712 -0.2773  0.1685
  527MOL0     C71069  10.709   0.345   5.066 -0.0589  0.0328  0.5675
  527MOL0     C71070  10.697   0.366   5.225 -0.0700  0.2290 -0.1340
  527MOL0     C71071  10.713   0.243   5.316 -1.4673  0.1090 -0.0569
  527MOL0     C71072  10.606   0.139   5.317 -0.3885 -0.0072 -0.7500
  527MOL0     C71073  10.481   0.183   5.376 -0.2572 -0.1145  0.0253
  527MOL0     C71074  10.377   0.230   5.422  1.3368  0.3484 -0.0476
  527MOL0     C71075  10.764   0.316   4.799 -0.5381 -0.1806  0.8136
  527MOL0     C71076  10.792   0.303   4.660  0.2781 -0.3216 -0.5747
  527MOL0     C71077  10.676   0.282   4.558  0.0188 -1.1790 -0.1233
  527MOL0     H71078  10.741   0.223   4.234  0.0095 -0.0160  0.3001
  527MOL0     H71079  10.742   0.270   3.989 -2.2880 -2.7736  2.3928
  527MOL0     H71080  10.815   0.259   3.724  2.4140 -1.0284 -1.2607
  527MOL0     H71081  10.807   0.407   3.812 -2.3563 -3.6608  1.6576
  527MOL0     H71082  11.020   0.471   3.690 -1.6887  1.0973  0.5841
  527MOL0     H71083  10.863   0.479   3.611 -0.3571  2.0679  2.7609
  527MOL0     H71084  11.042   0.353   3.459 -0.7763  1.4039  1.4128
  527MOL0     H71085  10.924   0.235   3.499  1.0639 -2.9698  1.6914
  527MOL0     H71086  11.048   0.153   3.683  0.2009 -1.9374 -1.1744
  527MOL0     H71087  11.140   0.129   3.531 -0.6977 -2.9400  1.8428
  527MOL0     H71088  11.296   0.317   3.582 -0.6740 -0.7200 -0.6549
  527MOL0     H71089  11.215   0.344   3.735 -0.4601  1.2131 -0.8367
  527MOL0     H71090  11.306   0.170   3.826 -1.7149 -0.1020 -0.1675
  527MOL0     H71091  11.288   0.065   3.693  0.5907 -1.0689 -0.0892
  527MOL0     H71092  11.483   0.160   3.564  2.0967 -2.4518  0.1454
  527MOL0     H71093  11.536   0.080   3.709 -0.6096 -1.2090 -0.7027
  527MOL0     H71094  11.498   0.379   3.654 -0.7923 -1.9834 -2.0110
  527MOL0     H71095  11.534   0.319   3.817 -1.6412  3.5572 -0.4310
  527MOL0     H71096  11.724   0.103   3.774 -1.0915 -0.0074  0.7432
  527MOL0     H71097  12.065   0.255   3.833 -2.0624  1.4039  0.5651
  527MOL0     H71098  12.007   0.084   3.827  0.1221  0.6021  0.5832
  527MOL0     H71099  12.158   0.259   3.627  2.5015 -1.2607 -1.6322
  527MOL0     H71100  12.220   0.116   3.691 -0.1369  3.7696  2.2480
  527MOL0     H71101  12.160   0.075   3.463 -1.7471 -0.2306 -2.4120
  527MOL0     H71102  11.985   0.106   3.503  1.6173  1.1676 -3.1130
  527MOL0     H71103  11.969  -0.112   3.610 -1.0951  0.1699 -1.0370
  527MOL0     H71104  12.131  -0.105   3.678 -1.1470  0.3821  0.2632
  527MOL0     H71105  12.154  -0.310   3.268  0.7476 -0.8461  0.6750
  527MOL0     H71106  12.379  -0.345   3.167  1.7552  3.2126 -1.0105
  527MOL0     H71107  12.814  -0.551   3.311  2.5338 -0.8026 -1.0757
  527MOL0     H71108  13.015  -0.631   3.217 -1.4764 -0.7128  1.5937
  527MOL0     H71109  13.221  -0.636   3.140 -0.9695  0.9564 -0.3600
  527MOL0     H71110  13.147  -0.759   3.067 -1.2609  0.8505  0.7861
  527MOL0     H71111  13.374  -0.611   2.952  0.4923 -1.3869  0.9231
  527MOL0     H71112  13.356  -0.793   2.962 -0.5188 -0.5978 -2.4570
  527MOL0     H71113  13.173  -0.789   2.807  0.3933  0.0272 -0.0369
  527MOL0     H71114  13.220  -0.624   2.757  1.2846  1.3061  1.9450
  527MOL0     H71115  13.320  -0.805   2.602  0.7580  1.4182 -0.4829
  527MOL0     H71116  13.388  -0.879   2.744 -0.0001  0.0947 -2.2134
  527MOL0     H71117  13.516  -0.648   2.773 -3.5348 -0.4573  0.9666
  527MOL0     H71118  13.464  -0.620   2.603 -2.2147  0.5036  1.2879
  527MOL0     H71119  13.612  -0.880   2.674 -1.0222 -0.5581 -1.0741
  527MOL0     H71120  13.582  -0.801   2.527 -0.8349 -4.2760  0.3873
  527MOL0     H71121  13.750  -0.662   2.741  3.1680 -1.2680 -0.8970
  527MOL0     H71122  13.726  -0.608   2.576 -2.1809  1.2912 -0.1868
  527MOL0     H71123  13.937  -0.702   2.619  0.9866 -1.5431  0.9486
  527MOL0     H71124  13.852  -0.853   2.681 -1.0137 -3.1575 -2.3621
  527MOL0     H71125  12.954  -0.400   2.865  0.7374 -0.7298  0.8013
  527MOL0     H71126  12.697  -0.353   2.965 -0.6756 -0.2783  1.1912
  527MOL0     H71127  12.548  -0.163   3.528 -1.1233 -0.7133  1.3265
  527MOL0     H71128  12.317  -0.108   3.609  1.1363 -0.1139  0.2932
  527MOL0     H71129  11.172   0.294   4.009 -1.9203 -0.3410 -3.5614
  527MOL0     H71130  11.157   0.249   4.259  1.9624  4.6070 -1.9767
  527MOL0     H71131  11.129   0.304   4.677 -0.6085 -0.0185 -2.7702
  527MOL0     H71132  11.083   0.314   4.927  2.6682 -0.7526 -2.7468
  527MOL0     H71133  10.663   0.249   5.044  0.7757 -0.2053 -0.2096
  527MOL0     H71134  10.653   0.428   5.022  3.9781  2.0184 -1.3615
  527MOL0     H71135  10.598   0.412   5.239 -1.9374 -1.9559 -4.2256
  527MOL0     H71136  10.778   0.435   5.253  0.4083  0.0124 -0.9560
  527MOL0     H71137  10.716   0.294   5.413  0.8942 -0.5029  0.2440
  527MOL0     H71138  10.802   0.186   5.289 -1.3716  1.2736 -2.4751
  527MOL0     H71139  10.592   0.088   5.221 -1.6399  1.9430 -1.6447
  527MOL0     H71140  10.645   0.062   5.385  0.4828  1.8093  0.8946
  527MOL0     H71141  10.288   0.270   5.466  2.7423  1.9568  1.5090
  527MOL0     H71142  10.657   0.325   4.814 -0.8938  0.6314 -1.8458
  527MOL0     H71143  10.688   0.353   4.476 -0.8046 -0.7030  0.1567
  527MOL0     H71144  10.682   0.180   4.521 -0.8445 -1.8933  1.5750
  527MOL0     H71145  10.579   0.296   4.606  1.9700  1.2416  3.6951
  528MOL0     O71146   2.355   3.357   5.027 -0.0662  0.1374 -0.8043
  528MOL0     C71147   2.303   3.406   4.920 -0.4751  0.1089 -0.5067
  528MOL0     O71148   2.280   3.344   4.800  0.1766 -0.1229  0.4173
  528MOL0     C71149   2.310   3.215   4.779  0.4824 -0.1112 -0.0667
  528MOL0     C71150   2.233   3.134   4.690  0.2076  0.2518  0.1537
  528MOL0     C71151   2.259   2.997   4.661  1.1327 -0.3216 -0.4873
  528MOL0     C71152   2.360   2.932   4.731  1.0195 -0.3762 -0.4980
  528MOL0     O71153   2.383   2.800   4.716 -0.6138  0.6535 -0.2877
  528MOL0     C71154   2.363   2.724   4.593  0.8722  0.2049 -0.1867
  528MOL0     C71155   2.424   2.793   4.465 -0.5149  0.2777  0.7016
  528MOL0     C71156   2.569   2.757   4.459  0.1583  0.4137 -1.0728
  528MOL0     C71157   2.653   2.847   4.365  0.2266 -0.3704  0.2188
  528MOL0     C71158   2.799   2.800   4.379  1.2103  0.3973 -0.1918
  528MOL0     C71159   2.896   2.848   4.257  0.2315 -0.2492 -0.9153
  528MOL0     C71160   3.040   2.795   4.276  1.3073 -0.1579  0.0135
  528MOL0     C71161   3.132   2.859   4.164 -0.6342 -0.0179  0.6634
  528MOL0     N71162   3.266   2.799   4.174 -0.6367 -0.3755  0.0453
  528MOL0     C71163   3.301   2.673   4.142 -1.0773  0.8525  0.3650
  528MOL0     C71164   3.435   2.683   4.162 -0.3555 -0.2228 -0.1749
  528MOL0     C71165   3.533   2.569   4.118 -0.8358 -0.2224 -0.2015
  528MOL0     C71166   3.556   2.555   3.969  0.3654 -1.1167  0.2296
  528MOL0     C71167   3.688   2.486   3.947  0.6410 -0.0979  0.7341
  528MOL0     C71168   3.689   2.445   3.800 -0.4952  0.2444 -0.0566
  528MOL0     O71169   3.812   2.376   3.774 -0.7098 -0.4491  0.5834
  528MOL0     C71170   3.840   2.304   3.659  0.3820  0.3507  0.4921
  528MOL0     C71171   3.965   2.246   3.659  0.3614 -0.0286 -0.2176
  528MOL0     C71172   4.006   2.160   3.563  0.3701  0.1675  0.6066
  528MOL0     C71173   3.934   2.148   3.443 -0.5226  0.8021 -0.2425
  528MOL0     C71174   3.976   2.073   3.319 -0.5014  0.9880  0.0623
  528MOL0     O71175   3.915   2.109   3.199  0.3833 -0.0793  0.5091
  528MOL0     C71176   3.909   2.000   3.111  0.7785 -0.8981 -0.9616
  528MOL0     C71177   4.007   1.983   3.020 -0.0758  0.5827  1.2453
  528MOL0     C71178   3.986   1.889   2.911  0.4182  0.5303  0.1905
  528MOL0     C71179   3.861   1.830   2.891 -0.4045  0.6459  0.4113
  528MOL0     O71180   3.845   1.772   2.773 -0.6385 -0.1852 -0.4510
  528MOL0     C71181   3.720   1.746   2.716  0.6576 -0.3328  0.0660
  528MOL0     C71182   3.722   1.738   2.565 -0.3329 -0.3802  0.5393
  528MOL0     C71183   3.594   1.689   2.501  0.4825  0.9734 -0.3639
  528MOL0     C71184   3.611   1.680   2.354  0.1704  0.0539  0.3252
  528MOL0     C71185   3.510   1.584   2.295  0.1540 -0.1965 -0.7291
  528MOL0     C71186   3.535   1.552   2.147 -0.3022 -0.1653 -0.3753
  528MOL0     C71187   3.486   1.416   2.113 -0.8487 -0.6936 -1.0923
  528MOL0     C71188   3.503   1.392   1.965 -0.1432  0.3051  0.9351
  528MOL0    Cl71189   3.385   1.478   1.850 -0.2831 -0.3848  0.1634
  528MOL0     C71190   3.762   1.843   2.993 -0.5064  0.6395  0.3575
  528MOL0     C71191   3.782   1.933   3.101 -0.6895  0.2842 -0.2485
  528MOL0     O71192   4.051   1.974   3.338  0.0156 -0.2006  0.1732
  528MOL0     C71193   3.804   2.213   3.439 -0.5040  0.3594  0.0026
  528MOL0     C71194   3.760   2.281   3.550  0.4198  0.6255 -0.0958
  528MOL0     N71195   3.477   2.802   4.202 -1.3034  0.5632 -0.6272
  528MOL0     N71196   3.369   2.878   4.209 -0.2020  0.2416  0.2143
  528MOL0     C71197   2.440   3.003   4.823 -0.0044  0.4036 -0.0350
  528MOL0     C71198   2.418   3.143   4.843  0.0971  0.0451  0.3146
  528MOL0     C71199   2.247   3.546   4.930  0.5870 -0.5630  0.1111
  528MOL0     C71200   2.149   3.584   4.836 -0.9823  0.0872 -0.4129
  528MOL0     C71201   2.103   3.712   4.815  0.5985  0.0708  0.6457
  528MOL0     C71202   2.150   3.814   4.898  0.5357 -0.2263 -1.5879
  528MOL0     O71203   2.103   3.943   4.902 -0.1393 -0.8391 -0.2795
  528MOL0     C71204   2.008   4.002   4.813 -0.3133 -0.1844  0.0803
  528MOL0     C71205   1.865   3.988   4.845  0.3057 -0.4935  0.4606
  528MOL0     C71206   1.850   4.036   4.994 -0.7954  0.7949  0.8986
  528MOL0     C71207   1.713   4.021   5.056 -0.5478  0.1621  1.0815
  528MOL0     C71208   1.710   4.089   5.187  0.2768  0.8364  0.1915
  528MOL0     C71209   1.705   4.153   5.289  0.8214  0.3451  0.1022
  528MOL0     C71210   2.248   3.782   4.987 -1.2570 -0.9922 -0.7057
  528MOL0     C71211   2.304   3.654   5.003  0.6734  0.6642 -0.1661
  528MOL0     C71212   2.408   3.640   5.101  0.0424  0.8064 -0.5675
  528MOL0     H71213   2.148   3.178   4.639 -0.4809 -0.6307  0.5124
  528MOL0     H71214   2.207   2.956   4.575  0.3335  1.6830 -1.0097
  528MOL0     H71215   2.398   2.622   4.612 -2.1211 -0.6496  1.5091
  528MOL0     H71216   2.256   2.719   4.571  0.7766 -0.1801  0.3541
  528MOL0     H71217   2.405   2.901   4.466  1.0716  0.6227 -1.0139
  528MOL0     H71218   2.378   2.759   4.372  0.7394  0.5327 -0.0435
  528MOL0     H71219   2.569   2.654   4.424 -0.1481  0.0826 -0.1212
  528MOL0     H71220   2.605   2.765   4.562 -2.4020 -0.0251 -0.0743
  528MOL0     H71221   2.616   2.828   4.264  0.2387  0.4641  0.0554
  528MOL0     H71222   2.640   2.949   4.402  2.3850 -0.2444  0.7346
  528MOL0     H71223   2.833   2.834   4.477 -1.3045  1.0067  0.5527
  528MOL0     H71224   2.801   2.691   4.372 -1.0403  0.3466 -0.8292
  528MOL0     H71225   2.857   2.809   4.162  1.2552 -0.7712 -1.1351
  528MOL0     H71226   2.882   2.956   4.250 -2.6229 -0.4194  0.6777
  528MOL0     H71227   3.041   2.686   4.283  1.1366 -0.1722 -0.2012
  528MOL0     H71228   3.084   2.840   4.366  3.4670 -1.0635 -0.5015
  528MOL0     H71229   3.090   2.841   4.065  2.6323 -1.8743 -0.5457
  528MOL0     H71230   3.137   2.968   4.165  0.2009 -0.0006 -1.2332
  528MOL0     H71231   3.236   2.597   4.100 -0.7316 -0.3214  1.8381
  528MOL0     H71232   3.624   2.601   4.169 -0.2034  0.9255 -1.9667
  528MOL0     H71233   3.496   2.479   4.166  1.2101  0.1049  2.1574
  528MOL0     H71234   3.473   2.503   3.919  2.0340 -3.1435 -0.6167
  528MOL0     H71235   3.572   2.655   3.928  4.2248 -0.5487  2.5824
  528MOL0     H71236   3.684   2.393   4.004 -0.7873 -1.1537 -0.9652
  528MOL0     H71237   3.765   2.556   3.982  0.2926  1.9819 -2.1988
  528MOL0     H71238   3.677   2.529   3.731  2.7206  1.4871  0.7204
  528MOL0     H71239   3.600   2.386   3.776 -0.1564  0.2771 -1.5144
  528MOL0     H71240   4.029   2.262   3.745 -0.8462 -0.9209  0.8844
  528MOL0     H71241   4.103   2.119   3.589 -0.1254  0.1220  2.5664
  528MOL0     H71242   4.095   2.038   3.050  0.5354  0.8543 -0.8393
  528MOL0     H71243   4.069   1.888   2.840  1.5220  2.6853  1.3534
  528MOL0     H71244   3.660   1.662   2.751 -3.1569  3.1896  3.0446
  528MOL0     H71245   3.659   1.836   2.732  0.1494  0.7462 -5.6644
  528MOL0     H71246   3.753   1.833   2.522  4.4874 -1.9638 -0.1093
  528MOL0     H71247   3.805   1.676   2.529  0.4463  1.3466 -0.7764
  528MOL0     H71248   3.572   1.590   2.541  0.6906  1.5074  1.1301
  528MOL0     H71249   3.505   1.751   2.514 -0.2013 -0.4158  2.0401
  528MOL0     H71250   3.715   1.649   2.338  0.8822  2.0076  0.7516
  528MOL0     H71251   3.592   1.774   2.301  0.7173  0.1959  0.3761
  528MOL0     H71252   3.414   1.634   2.314  0.0519 -1.1960  1.8822
  528MOL0     H71253   3.505   1.488   2.348  1.7484 -0.9390 -1.8820
  528MOL0     H71254   3.488   1.630   2.085 -1.6185 -0.2919  0.4128
  528MOL0     H71255   3.643   1.561   2.136  0.2417  1.8358  4.3192
  528MOL0     H71256   3.390   1.403   2.162  0.4459  0.4339  1.9717
  528MOL0     H71257   3.558   1.349   2.161 -0.2177  0.4947 -0.3296
  528MOL0     H71258   3.603   1.399   1.921 -0.3017  0.1345  0.5453
  528MOL0     H71259   3.489   1.284   1.950  2.2281  0.2984 -2.4449
  528MOL0     H71260   3.676   1.777   2.990  0.3194 -0.5280  1.1109
  528MOL0     H71261   3.717   1.953   3.185  0.6428  4.1251  0.0667
  528MOL0     H71262   3.744   2.206   3.349 -1.7051  3.1573  0.4902
  528MOL0     H71263   3.660   2.324   3.548 -0.0353 -0.3990 -1.4720
  528MOL0     H71264   2.520   2.954   4.877 -2.1053 -0.8116  2.1482
  528MOL0     H71265   2.482   3.192   4.915 -0.2663  1.9509 -0.5838
  528MOL0     H71266   2.107   3.511   4.768  0.1816 -1.3329  0.3410
  528MOL0     H71267   2.030   3.724   4.735  0.1617  0.7925  1.1472
  528MOL0     H71268   2.010   3.957   4.713 -1.7041 -0.2405  0.0524
  528MOL0     H71269   2.028   4.109   4.807 -0.0497 -0.1563  1.1930
  528MOL0     H71270   1.834   3.883   4.846 -3.0112  0.3620  2.4314
  528MOL0     H71271   1.811   4.044   4.767  0.9709 -2.1774 -1.2789
  528MOL0     H71272   1.874   4.143   4.986 -1.7023  0.8713 -2.9767
  528MOL0     H71273   1.919   3.992   5.066  0.6799  0.5983 -0.5607
  528MOL0     H71274   1.641   4.072   4.992 -1.0618 -1.3863  0.3535
  528MOL0     H71275   1.676   3.919   5.074 -2.9803  1.0871  1.6792
  528MOL0     H71276   1.704   4.218   5.374 -3.5516  0.6434  0.0585
  528MOL0     H71277   2.288   3.860   5.052  1.2103 -2.7535  0.0455
  528MOL0     H71278   2.436   3.733   5.151  1.3354  0.7642 -1.1824
  528MOL0     H71279   2.383   3.575   5.186  1.6977  0.4226 -0.3421
  528MOL0     H71280   2.499   3.605   5.051 -0.8340  1.7572 -2.9459
  529MOL0     O71281   4.895   7.627   4.532 -0.3404 -0.6822 -0.1290
  529MOL0     C71282   4.890   7.506   4.516  0.8418  0.3197  0.4039
  529MOL0     O71283   4.774   7.428   4.546 -0.2716 -0.1547 -0.0794
  529MOL0     C71284   4.656   7.497   4.553 -0.7369 -0.5323  0.1628
  529MOL0     C71285   4.607   7.528   4.671 -0.3529  0.0245 -0.5942
  529MOL0     C71286   4.475   7.569   4.684 -0.0703 -0.1076  0.4470
  529MOL0     C71287   4.393   7.606   4.573 -0.9420 -0.5087  0.0379
  529MOL0     O71288   4.259   7.646   4.589  0.2162 -0.0179 -0.3855
  529MOL0     C71289   4.162   7.585   4.499  0.1960  0.6447 -0.4511
  529MOL0     C71290   4.019   7.635   4.524 -0.8242  0.6456  0.6527
  529MOL0     C71291   4.008   7.787   4.509 -1.0310  0.3151  0.1591
  529MOL0     C71292   3.986   7.833   4.656  0.5979 -0.7458  0.1161
  529MOL0     C71293   3.991   7.990   4.663  0.7451  0.3298  0.1254
  529MOL0     C71294   3.988   8.026   4.812  0.7452 -0.8915  0.6911
  529MOL0     C71295   4.115   7.989   4.907  0.5662 -0.3540  0.2743
  529MOL0     C71296   4.233   8.000   4.819  0.9707 -0.4194  0.0303
  529MOL0     N71297   4.340   7.991   4.912 -0.3317  0.5462  0.0619
  529MOL0     C71298   4.386   7.872   4.977  0.4461  0.4044 -0.1615
  529MOL0     C71299   4.497   7.913   5.052  0.2397  0.5345  0.2618
  529MOL0     C71300   4.586   7.822   5.136 -0.0283 -0.2813  0.2759
  529MOL0     C71301   4.654   7.709   5.051  0.0693  0.4707  0.4381
  529MOL0     C71302   4.767   7.623   5.118 -0.3718  0.2193 -0.6079
  529MOL0     C71303   4.858   7.710   5.196  0.2331  0.1031 -0.4262
  529MOL0     O71304   4.959   7.624   5.230 -0.5036  0.5795  0.4379
  529MOL0     C71305   5.083   7.668   5.275 -0.2105 -0.7897 -0.2620
  529MOL0     C71306   5.120   7.804   5.279 -0.1566  0.0832  0.2052
  529MOL0     C71307   5.249   7.846   5.305 -0.1141 -0.3074 -0.8697
  529MOL0     C71308   5.346   7.749   5.335  1.3221 -0.5888 -0.1530
  529MOL0     C71309   5.474   7.793   5.394  0.3721 -0.2465  0.2037
  529MOL0     O71310   5.509   7.921   5.384  0.1496 -0.0573 -0.4072
  529MOL0     C71311   5.637   7.956   5.411 -0.4849  0.4614 -0.6727
  529MOL0     C71312   5.662   8.060   5.500 -0.6701  0.0380 -0.7773
  529MOL0     C71313   5.787   8.114   5.538 -0.6424  0.3179 -0.8878
  529MOL0     C71314   5.895   8.063   5.465 -0.3200  0.3506  0.6008
  529MOL0     O71315   6.018   8.121   5.485 -0.0258 -0.0524  0.3321
  529MOL0     C71316   6.137   8.046   5.497 -1.2789  0.2109  0.5973
  529MOL0     C71317   6.260   8.127   5.538  0.0167 -0.0927  0.3033
  529MOL0     C71318   6.384   8.050   5.584  0.1373 -0.0055  0.4859
  529MOL0     C71319   6.491   8.145   5.638 -0.3999 -1.2346  0.4148
  529MOL0     C71320   6.610   8.064   5.659 -0.7437 -1.0088 -0.6577
  529MOL0     C71321   6.712   8.153   5.730  0.0859  0.1685 -0.9372
  529MOL0     C71322   6.842   8.077   5.767  0.4826 -0.3312 -0.0103
  529MOL0     C71323   6.929   8.166   5.860 -0.8378 -0.4561  0.7948
  529MOL0    Cl71324   7.053   8.052   5.938  0.0794  0.1616 -0.0693
  529MOL0     C71325   5.875   7.952   5.382 -0.4148  0.3987 -0.4428
  529MOL0     C71326   5.754   7.897   5.352  0.1931 -0.8710  0.5295
  529MOL0     O71327   5.543   7.710   5.459  0.2500 -0.9858  0.2563
  529MOL0     C71328   5.308   7.616   5.340 -0.2732 -0.7660 -0.2843
  529MOL0     C71329   5.178   7.568   5.312  0.6279 -1.1426 -0.8179
  529MOL0     N71330   4.501   8.047   5.047  0.0619 -0.1857 -0.5441
  529MOL0     N71331   4.403   8.096   4.978  0.3195  0.0968  0.1737
  529MOL0     C71332   4.448   7.589   4.446 -0.0092  0.2111 -0.1308
  529MOL0     C71333   4.579   7.531   4.436 -0.1265 -0.4067 -0.2077
  529MOL0     C71334   5.012   7.421   4.515 -0.1520 -1.0298  0.6619
  529MOL0     C71335   5.000   7.283   4.523 -0.0878  0.6115 -0.4729
  529MOL0     C71336   5.113   7.198   4.533 -0.5083  0.0810  0.5015
  529MOL0     C71337   5.243   7.253   4.526 -0.1633  0.1320  0.0955
  529MOL0     O71338   5.358   7.185   4.527 -0.3331  0.7485 -0.1472
  529MOL0     C71339   5.358   7.038   4.531 -0.0881  0.2078 -0.8489
  529MOL0     C71340   5.498   6.972   4.510  0.5363 -0.8293  0.1166
  529MOL0     C71341   5.582   7.055   4.401 -0.1138  0.1228 -0.3395
  529MOL0     C71342   5.699   6.975   4.346 -0.1268 -0.0959 -0.6678
  529MOL0     C71343   5.764   7.051   4.237  0.7290  0.8770 -0.0279
  529MOL0     C71344   5.822   7.086   4.138  0.1273 -0.5338  0.5501
  529MOL0     C71345   5.251   7.391   4.490 -0.9620  0.0457  0.1219
  529MOL0     C71346   5.140   7.475   4.489 -0.1326  0.3693  0.7671
  529MOL0     C71347   5.174   7.621   4.468  0.1142  0.8567 -0.0892
  529MOL0     H71348   4.667   7.510   4.760  1.0126 -0.0820 -1.5135
  529MOL0     H71349   4.433   7.562   4.784 -0.9470  0.9934  0.1802
  529MOL0     H71350   4.191   7.591   4.394 -0.2201 -3.5708 -0.9891
  529MOL0     H71351   4.163   7.476   4.512 -1.3750  0.5991 -0.4289
  529MOL0     H71352   3.988   7.596   4.621 -0.0397 -4.3000 -0.8052
  529MOL0     H71353   3.954   7.581   4.454  0.2048  0.0033  0.1649
  529MOL0     H71354   3.932   7.819   4.438  0.8467  0.5347 -1.8663
  529MOL0     H71355   4.110   7.812   4.479 -0.7897 -1.3689 -0.5243
  529MOL0     H71356   3.883   7.818   4.690  0.2899  2.5192  0.9843
  529MOL0     H71357   4.062   7.791   4.723  0.8780 -0.8823 -0.2819
  529MOL0     H71358   4.075   8.040   4.613 -0.9271  1.1177 -2.0455
  529MOL0     H71359   3.897   8.020   4.616 -0.6659 -3.1761  0.3960
  529MOL0     H71360   3.973   8.135   4.818  2.3270 -0.6294  0.4308
  529MOL0     H71361   3.896   7.980   4.848 -0.2606  0.2542 -0.3186
  529MOL0     H71362   4.111   7.888   4.948  1.8309 -1.9423 -3.0961
  529MOL0     H71363   4.124   8.053   4.995 -0.3077 -0.7999  0.7021
  529MOL0     H71364   4.243   7.933   4.733 -2.1062 -1.5455  0.4141
  529MOL0     H71365   4.241   8.104   4.787 -0.0729  0.8317  3.4061
  529MOL0     H71366   4.358   7.769   4.960 -0.8721  0.7507 -0.1739
  529MOL0     H71367   4.671   7.882   5.166  3.4149 -4.4028 -0.2092
  529MOL0     H71368   4.531   7.784   5.222  1.0829  1.4876  1.8276
  529MOL0     H71369   4.583   7.632   5.017  1.0223 -1.5853  2.7867
  529MOL0     H71370   4.690   7.749   4.956 -2.4919  0.9829 -0.3933
  529MOL0     H71371   4.810   7.572   5.031 -1.0064 -2.1387  0.4054
  529MOL0     H71372   4.720   7.556   5.190  2.9395  0.3665  1.9418
  529MOL0     H71373   4.815   7.756   5.285  0.0882 -0.1451 -0.3686
  529MOL0     H71374   4.890   7.797   5.137 -2.0514 -1.0470 -3.6720
  529MOL0     H71375   5.052   7.888   5.268  2.5301  2.4458  0.3486
  529MOL0     H71376   5.272   7.950   5.323  0.3844 -0.6616  0.7094
  529MOL0     H71377   5.570   8.106   5.534 -0.2440  0.3222  0.0433
  529MOL0     H71378   5.794   8.204   5.598 -0.3758 -0.7876  0.8113
  529MOL0     H71379   6.123   7.967   5.571 -0.8421 -0.7126 -0.2857
  529MOL0     H71380   6.152   7.995   5.402  2.7743  0.6529  0.8169
  529MOL0     H71381   6.281   8.193   5.453  0.2413  0.0796  0.4909
  529MOL0     H71382   6.225   8.189   5.622 -0.4018  1.8922 -1.2513
  529MOL0     H71383   6.364   7.973   5.659  3.9219 -4.8545 -2.8263
  529MOL0     H71384   6.419   7.997   5.495 -2.8588  0.6804 -1.2410
  529MOL0     H71385   6.455   8.184   5.734  1.6916  0.9687  0.3980
  529MOL0     H71386   6.513   8.226   5.568  0.6586 -4.4263 -3.3000
  529MOL0     H71387   6.659   8.038   5.565  0.8635  0.9961 -0.4510
  529MOL0     H71388   6.609   7.975   5.723 -1.3148  0.8073  2.0256
  529MOL0     H71389   6.736   8.242   5.671 -1.6421 -0.1056 -2.1469
  529MOL0     H71390   6.665   8.181   5.825 -0.4699 -0.5036 -1.0092
  529MOL0     H71391   6.897   8.056   5.675 -0.4451  2.9558 -1.5021
  529MOL0     H71392   6.833   7.983   5.821  0.4746  2.0430  4.5956
  529MOL0     H71393   6.976   8.250   5.809 -1.4293 -0.2578  0.5720
  529MOL0     H71394   6.876   8.216   5.941 -0.1976  2.0234 -0.2462
  529MOL0     H71395   5.956   7.888   5.348 -2.2291 -2.5413  0.3389
  529MOL0     H71396   5.766   7.804   5.297  2.5575 -0.1940 -0.2584
  529MOL0     H71397   5.366   7.538   5.389  1.1327 -0.7063 -1.7348
  529MOL0     H71398   5.173   7.460   5.298 -0.0588 -1.5664  1.9689
  529MOL0     H71399   4.393   7.623   4.359 -0.4867 -0.8127 -0.2389
  529MOL0     H71400   4.633   7.500   4.346 -0.7941 -2.2725 -0.0191
  529MOL0     H71401   4.902   7.241   4.543  1.7982 -2.9798  2.2094
  529MOL0     H71402   5.103   7.090   4.525  0.8376  0.0702 -2.2722
  529MOL0     H71403   5.295   6.988   4.458  0.6985 -3.0580  0.5478
  529MOL0     H71404   5.317   7.002   4.626  0.4908  0.8770 -0.3263
  529MOL0     H71405   5.493   6.867   4.479 -0.5317 -0.9581  0.6546
  529MOL0     H71406   5.548   6.984   4.606 -0.9243 -2.0059  1.0685
  529MOL0     H71407   5.617   7.149   4.443 -1.0708  0.4462 -0.2302
  529MOL0     H71408   5.518   7.067   4.313  0.3694 -1.8072 -0.9965
  529MOL0     H71409   5.773   6.978   4.426 -0.0710  0.9387 -0.7411
  529MOL0     H71410   5.670   6.871   4.328  0.1536  0.3313 -4.3068
  529MOL0     H71411   5.873   7.122   4.050  3.0580  1.7238  2.9443
  529MOL0     H71412   5.349   7.437   4.487 -1.2097  0.5197 -1.4975
  529MOL0     H71413   5.283   7.633   4.473  0.5827 -2.6864  1.1910
  529MOL0     H71414   5.125   7.659   4.378 -1.7411 -1.2514 -0.0380
  529MOL0     H71415   5.134   7.674   4.555  2.6340  0.7372  1.2374
  530MOL0     O71416   2.391   4.308   9.787  0.4063  0.1785  0.2161
  530MOL0     C71417   2.376   4.323   9.909 -0.6456  0.4872  0.5769
  530MOL0     O71418   2.284   4.261   9.991  0.6516 -0.1088  0.6070
  530MOL0     C71419   2.177   4.199   9.933  0.6746 -0.4234 -1.0770
  530MOL0     C71420   2.098   4.255   9.839 -0.6861 -0.1053  0.7106
  530MOL0     C71421   1.982   4.190   9.771 -0.3392  0.1040  0.8680
  530MOL0     C71422   1.948   4.062   9.819 -0.3765  0.5903  0.3354
  530MOL0     O71423   1.845   3.989   9.772  0.3604  0.7786 -0.1595
  530MOL0     C71424   1.797   4.014   9.639  0.1959  0.3601 -0.0204
  530MOL0     C71425   1.656   4.079   9.668 -0.1178  0.1821 -0.6494
  530MOL0     C71426   1.568   3.984   9.752 -0.2885  0.1450  0.7738
  530MOL0     C71427   1.430   4.051   9.769  0.6852  0.7133  0.6124
  530MOL0     C71428   1.336   3.929   9.783 -0.4955  0.0613 -0.4191
  530MOL0     C71429   1.350   3.835   9.909  0.1603  0.3596  0.0242
  530MOL0     C71430   1.270   3.701   9.892 -0.7031 -0.5562 -0.1145
  530MOL0     C71431   1.285   3.610  10.013 -0.5349 -0.3840 -0.1050
  530MOL0     N71432   1.255   3.691  10.138  0.5966  0.2145  1.0958
  530MOL0     C71433   1.353   3.754  10.213 -0.3540 -1.0869 -0.4645
  530MOL0     C71434   1.280   3.798  10.319  0.0311 -0.6840 -0.9025
  530MOL0     C71435   1.326   3.898  10.416  0.6729 -0.4971 -0.5457
  530MOL0     C71436   1.287   4.047  10.367  0.0816  0.3509 -0.0405
  530MOL0     C71437   1.388   4.093  10.256 -0.1512  1.0411 -0.5060
  530MOL0     C71438   1.331   4.203  10.171 -0.3620  0.3243  0.0148
  530MOL0     O71439   1.278   4.305  10.249  0.1218 -0.0437 -1.2980
  530MOL0     C71440   1.359   4.390  10.326  0.2132  1.0434 -0.1314
  530MOL0     C71441   1.307   4.457  10.431 -0.1805 -0.7757 -0.9281
  530MOL0     C71442   1.384   4.550  10.500  0.5042 -1.1274 -0.5232
  530MOL0     C71443   1.517   4.582  10.465 -0.1518  0.0908 -0.2393
  530MOL0     C71444   1.578   4.700  10.536  0.4447  1.1692  0.6015
  530MOL0     O71445   1.503   4.754  10.632 -0.5187 -0.4844 -0.6911
  530MOL0     C71446   1.548   4.859  10.716  0.0617 -0.1658  0.4625
  530MOL0     C71447   1.642   4.833  10.818 -0.6593  0.2844 -0.1786
  530MOL0     C71448   1.691   4.937  10.892  0.4476 -0.2448 -0.6117
  530MOL0     C71449   1.638   5.066  10.885  0.0510  1.1159 -0.1840
  530MOL0     O71450   1.677   5.162  10.964  0.1493  0.7741 -0.0837
  530MOL0     C71451   1.748   5.138  11.089 -0.1941  0.5345 -0.1081
  530MOL0     C71452   1.894   5.115  11.069 -0.0804 -0.2146  0.6233
  530MOL0     C71453   1.947   5.241  10.985  0.4785  0.4686 -0.5748
  530MOL0     C71454   1.950   5.217  10.836 -0.8028  0.3261 -0.8833
  530MOL0     C71455   2.008   5.342  10.771 -0.1388  0.3910  0.1385
  530MOL0     C71456   1.974   5.366  10.623  0.5936  0.4304  0.0279
  530MOL0     C71457   2.076   5.443  10.547 -0.8622  0.9804  0.5613
  530MOL0     C71458   2.050   5.410  10.407 -0.7507  0.4061  0.9448
  530MOL0    Cl71459   1.881   5.468  10.358 -0.1831 -0.3396  0.1307
  530MOL0     C71460   1.544   5.095  10.795  0.4380  0.9965  0.0708
  530MOL0     C71461   1.500   4.989  10.702  0.5862  0.1291  0.7135
  530MOL0     O71462   1.685   4.735  10.498 -0.0205  0.4049  0.0805
  530MOL0     C71463   1.578   4.507  10.364 -0.2314 -0.2528  0.5322
  530MOL0     C71464   1.497   4.407  10.301 -0.1233 -0.0866 -0.3812
  530MOL0     N71465   1.149   3.757  10.311 -0.0625  0.1738  0.2367
  530MOL0     N71466   1.128   3.701  10.198 -0.9771  0.0467  0.1814
  530MOL0     C71467   2.022   4.011   9.933  0.3310  0.0252  0.8390
  530MOL0     C71468   2.134   4.081   9.988  0.6320 -0.1568  0.9752
  530MOL0     C71469   2.477   4.418   9.969 -0.2160  0.3712  0.5231
  530MOL0     C71470   2.438   4.483  10.084 -0.2565  0.0633  0.3040
  530MOL0     C71471   2.518   4.575  10.153  0.1172  0.6052 -0.1271
  530MOL0     C71472   2.640   4.599  10.105 -0.0211 -0.5233 -0.7536
  530MOL0     O71473   2.715   4.686  10.183  0.1113 -0.1480  0.3081
  530MOL0     C71474   2.857   4.674  10.167  0.4807  0.0389 -0.8305
  530MOL0     C71475   2.922   4.708  10.307  0.7253 -0.1268 -0.2581
  530MOL0     C71476   2.891   4.844  10.364  0.2286  0.3493  0.4645
  530MOL0     C71477   3.003   4.906  10.450  0.5879  0.3559  0.3437
  530MOL0     C71478   2.966   5.039  10.493 -0.3911  0.1827  0.6934
  530MOL0     C71479   2.941   5.160  10.516 -1.0702  0.2146 -0.6242
  530MOL0     C71480   2.683   4.530   9.988  0.1650  0.1225  0.6908
  530MOL0     C71481   2.607   4.440   9.918 -0.9658  0.7705  0.6864
  530MOL0     C71482   2.667   4.389   9.794 -1.0345  1.1817  0.1625
  530MOL0     H71483   2.120   4.356   9.807  1.0947 -0.4186  0.8126
  530MOL0     H71484   1.932   4.244   9.691  2.4164 -0.4645 -1.3874
  530MOL0     H71485   1.850   4.086   9.577 -1.3238  0.7543 -0.9203
  530MOL0     H71486   1.786   3.925   9.576  0.2864  0.5849 -0.3570
  530MOL0     H71487   1.609   4.094   9.570  1.7416  0.9367 -1.4757
  530MOL0     H71488   1.682   4.172   9.721 -0.8275 -0.4074  0.7915
  530MOL0     H71489   1.617   3.959   9.847 -0.5533 -1.4550  0.5208
  530MOL0     H71490   1.565   3.881   9.716  2.0533  0.1273  0.4721
  530MOL0     H71491   1.421   4.133   9.840 -1.2389  1.0176  0.0836
  530MOL0     H71492   1.399   4.103   9.678 -0.7250  1.8825  1.7273
  530MOL0     H71493   1.234   3.967   9.770  0.6391  2.2476 -5.0624
  530MOL0     H71494   1.348   3.862   9.698  0.8174  0.3212 -0.4571
  530MOL0     H71495   1.454   3.808   9.929  0.5955  1.2090 -1.0402
  530MOL0     H71496   1.304   3.888   9.994  0.8897 -2.2913  2.2188
  530MOL0     H71497   1.291   3.640   9.804 -0.6187 -2.3268  1.0773
  530MOL0     H71498   1.167   3.740   9.887 -0.3522  0.3017 -0.9350
  530MOL0     H71499   1.232   3.514  10.011 -2.4384  0.6367 -0.8462
  530MOL0     H71500   1.390   3.579  10.017  0.2619  1.8344 -1.7601
  530MOL0     H71501   1.454   3.780  10.184 -0.9629 -0.5823 -2.2561
  530MOL0     H71502   1.280   3.880  10.514  2.2133 -0.2566  0.2471
  530MOL0     H71503   1.433   3.895  10.438  0.2587 -1.4300  1.4984
  530MOL0     H71504   1.186   4.045  10.324  1.2755 -1.9218 -3.1012
  530MOL0     H71505   1.296   4.124  10.444  2.3142  0.0932  0.0135
  530MOL0     H71506   1.402   4.013  10.183 -0.1125  0.3739  0.2241
  530MOL0     H71507   1.476   4.128  10.310  0.0688 -1.1304  0.6378
  530MOL0     H71508   1.253   4.155  10.110  2.0714 -1.7655 -1.6834
  530MOL0     H71509   1.401   4.243  10.097  0.3393 -1.2449 -0.2118
  530MOL0     H71510   1.203   4.460  10.460 -1.4664  0.9559 -5.0083
  530MOL0     H71511   1.339   4.607  10.581  1.6440 -2.3391  1.0402
  530MOL0     H71512   1.692   4.737  10.809 -2.7355 -1.0538  1.5882
  530MOL0     H71513   1.766   4.912  10.965 -1.1414 -2.4455  0.3687
  530MOL0     H71514   1.727   5.231  11.144 -1.8251  1.0291 -1.4686
  530MOL0     H71515   1.704   5.059  11.150 -0.4485  0.2561 -0.6460
  530MOL0     H71516   1.939   5.103  11.168 -0.8115  2.0760  1.3106
  530MOL0     H71517   1.922   5.027  11.012  3.6720  2.0070 -1.3161
  530MOL0     H71518   1.878   5.326  10.985  0.2058  0.2598  0.1661
  530MOL0     H71519   2.037   5.276  11.038  0.4289 -0.0119 -0.1625
  530MOL0     H71520   1.850   5.195  10.797 -0.8517  1.1813 -1.2713
  530MOL0     H71521   2.007   5.131  10.800 -0.1502  1.1298 -1.8113
  530MOL0     H71522   2.117   5.340  10.786 -0.0932  1.5402  0.0557
  530MOL0     H71523   1.968   5.430  10.822 -4.1381 -1.9948  1.5810
  530MOL0     H71524   1.950   5.269  10.576 -0.0840  0.5276  0.1600
  530MOL0     H71525   1.880   5.417  10.600 -1.1792 -3.1207 -1.5354
  530MOL0     H71526   2.178   5.409  10.567 -0.8954 -0.5429 -1.6105
  530MOL0     H71527   2.063   5.549  10.573 -3.5153  1.5534 -2.4758
  530MOL0     H71528   2.119   5.466  10.343 -0.5833 -1.2316 -0.3927
  530MOL0     H71529   2.056   5.302  10.398  1.8034  0.4637  1.1651
  530MOL0     H71530   1.505   5.194  10.772 -0.4510 -0.4508 -6.4079
  530MOL0     H71531   1.426   5.003  10.623  1.0591 -1.0400  0.0353
  530MOL0     H71532   1.682   4.525  10.337 -0.4560 -1.5454 -1.3494
  530MOL0     H71533   1.530   4.340  10.222 -0.3777 -2.0304  1.0692
  530MOL0     H71534   1.981   3.922   9.980 -1.7790 -0.4673 -1.6813
  530MOL0     H71535   2.185   4.036  10.073 -2.0616  0.7557  3.2074
  530MOL0     H71536   2.351   4.454  10.141 -0.9927  1.0769 -0.2740
  530MOL0     H71537   2.474   4.610  10.246  1.4020  0.0736  0.7211
  530MOL0     H71538   2.870   4.750  10.088 -0.6819  0.1227 -0.9616
  530MOL0     H71539   2.892   4.575  10.138 -0.3504 -1.0015  1.4566
  530MOL0     H71540   3.028   4.709  10.280  0.5586  1.7292 -1.0254
  530MOL0     H71541   2.896   4.634  10.383  0.3304 -0.4239 -0.6772
  530MOL0     H71542   2.801   4.843  10.426  0.0833  3.3551  0.4610
  530MOL0     H71543   2.881   4.913  10.280  0.9347  2.1358  1.7909
  530MOL0     H71544   3.009   4.834  10.532 -1.2906 -1.2327 -0.8453
  530MOL0     H71545   3.104   4.910  10.408  1.7569  3.2749  2.9936
  530MOL0     H71546   2.928   5.264  10.537 -0.7075 -0.3690  3.3117
  530MOL0     H71547   2.781   4.557   9.950  0.2521  0.6567  1.2886
  530MOL0     H71548   2.674   4.279   9.799 -0.5060  1.1927 -0.2230
  530MOL0     H71549   2.611   4.424   9.707 -0.5999  0.1780 -0.5434
  530MOL0     H71550   2.771   4.421   9.783 -1.1525  0.9894 -1.9871
  531MOL0     O71551  10.870   7.912  10.530  0.3445  0.5919 -0.2939
  531MOL0     C71552  10.855   7.899  10.407 -0.1157  0.3687  0.6235
  531MOL0     O71553  10.937   7.819  10.325 -0.2539 -0.2023  0.0411
  531MOL0     C71554  11.003   7.712  10.371 -1.1081  0.2057 -0.8351
  531MOL0     C71555  10.977   7.653  10.496 -0.9380  0.4724 -0.0197
  531MOL0     C71556  11.045   7.527  10.523  0.6642 -0.9080  0.4656
  531MOL0     C71557  11.153   7.482  10.443 -0.2642 -0.5995  0.1383
  531MOL0     O71558  11.198   7.355  10.456 -0.2607 -0.0135 -0.6689
  531MOL0     C71559  11.298   7.303  10.367  0.0453 -0.3978 -0.4988
  531MOL0     C71560  11.361   7.179  10.436 -0.6528 -0.0327 -0.3689
  531MOL0     C71561  11.450   7.090  10.345  0.5630  0.2632  0.3953
  531MOL0     C71562  11.556   7.167  10.266 -0.2810 -0.8357 -0.6915
  531MOL0     C71563  11.662   7.064  10.238  0.1400 -0.2400 -0.2305
  531MOL0     C71564  11.774   7.113  10.143 -0.1584 -0.6524  0.3314
  531MOL0     C71565  11.874   7.002  10.129 -0.0651  0.8596 -0.6304
  531MOL0     C71566  11.981   7.046  10.027  0.1759 -0.0514 -0.0230
  531MOL0     N71567  12.101   6.963  10.018  0.0045  0.9089  0.0607
  531MOL0     C71568  12.221   7.001  10.078  0.0623  0.1170  0.5505
  531MOL0     C71569  12.301   6.895  10.060 -0.3877 -0.2676  0.2676
  531MOL0     C71570  12.444   6.863  10.099  0.5624 -0.3770 -0.8650
  531MOL0     C71571  12.502   6.944  10.216 -0.0846  0.3815  0.2108
  531MOL0     C71572  12.635   6.886  10.257 -0.2367  0.9860 -1.3576
  531MOL0     C71573  12.698   6.979  10.355 -0.2691 -0.5954 -0.1027
  531MOL0     O71574  12.827   6.909  10.384  0.8626 -1.0427  0.6192
  531MOL0     C71575  12.851   6.924  10.517  0.1696 -0.8054  0.3873
  531MOL0     C71576  12.811   6.828  10.611  0.5051 -0.2921 -0.4467
  531MOL0     C71577  12.830   6.837  10.751 -0.1367  0.3618  0.0281
  531MOL0     C71578  12.901   6.955  10.801 -0.0249  0.4403 -0.2317
  531MOL0     C71579  12.945   6.962  10.947  0.0927  0.1822  0.2218
  531MOL0     O71580  12.959   6.837  11.022 -0.1992  0.4402 -0.9781
  531MOL0     C71581  13.000   6.843  11.156  1.5062  0.1890  0.1390
  531MOL0     C71582  12.942   6.945  11.241  0.2150  0.8046 -0.2861
  531MOL0     C71583  12.983   6.952  11.376  0.1805  0.4208 -0.3920
  531MOL0     C71584  13.090   6.866  11.431  0.3162  0.0916  1.0854
  531MOL0     O71585  13.111   6.869  11.571  0.1096  0.0691  0.4042
  531MOL0     C71586  13.239   6.825  11.628  0.5959 -0.7104  0.2568
  531MOL0     C71587  13.272   6.957  11.715  0.3402  0.3226  0.0372
  531MOL0     C71588  13.301   7.085  11.632 -0.9821  0.1845  0.7328
  531MOL0     C71589  13.293   7.213  11.718 -0.7419 -0.8799  0.2859
  531MOL0     C71590  13.378   7.316  11.653 -0.2243  0.0429 -0.0002
  531MOL0     C71591  13.397   7.442  11.732 -1.2601  0.9054 -0.3930
  531MOL0     C71592  13.473   7.550  11.641  0.4442  0.3402 -0.7852
  531MOL0     C71593  13.595   7.500  11.571  0.2208 -0.1205  1.0422
  531MOL0    Cl71594  13.634   7.627  11.435 -0.2986 -0.7525  0.3347
  531MOL0     C71595  13.131   6.755  11.354  0.4330 -1.2983  0.0195
  531MOL0     C71596  13.087   6.753  11.216  0.0998  0.4912  0.0503
  531MOL0     O71597  12.970   7.074  10.987  0.3181  0.3338 -0.1343
  531MOL0     C71598  12.943   7.057  10.712  0.8338 -0.2560  0.0917
  531MOL0     C71599  12.922   7.039  10.576  0.0771  0.1890 -0.1177
  531MOL0     N71600  12.235   6.798   9.992  0.9707 -0.9144 -0.5711
  531MOL0     N71601  12.106   6.836   9.972 -0.3860  0.4740  0.4602
  531MOL0     C71602  11.197   7.561  10.336 -0.2488 -1.0186 -0.4931
  531MOL0     C71603  11.117   7.674  10.300  0.6763 -0.0289 -0.1415
  531MOL0     C71604  10.781   8.019  10.351 -0.6410  0.1318  0.3244
  531MOL0     C71605  10.844   8.104  10.254  1.0682 -0.1698 -0.1234
  531MOL0     C71606  10.772   8.215  10.195  0.5881 -0.2826  0.4424
  531MOL0     C71607  10.648   8.252  10.233  0.3559  0.1413  0.6911
  531MOL0     O71608  10.581   8.363  10.189  0.1295  0.1768  0.2932
  531MOL0     C71609  10.657   8.486  10.166  1.1157  0.4115  0.5633
  531MOL0     C71610  10.728   8.541  10.293 -0.0242  0.3321 -0.0029
  531MOL0     C71611  10.806   8.671  10.261 -0.0622 -0.9976 -0.0358
  531MOL0     C71612  10.886   8.735  10.383  0.5148  0.0174  0.6005
  531MOL0     C71613  11.007   8.655  10.415  0.0841  0.0810 -0.9930
  531MOL0     C71614  11.102   8.586  10.464  0.5401 -0.9473 -0.3992
  531MOL0     C71615  10.590   8.166  10.327  1.1117 -0.3171  0.6742
  531MOL0     C71616  10.649   8.051  10.392 -0.4888 -0.2124  0.9910
  531MOL0     C71617  10.578   7.969  10.500  0.6547 -0.3321  0.5910
  531MOL0     H71618  10.910   7.685  10.574  0.5995  0.0802  1.5231
  531MOL0     H71619  11.001   7.468  10.602 -3.0027  1.1243  0.1754
  531MOL0     H71620  11.248   7.277  10.274 -0.0768  0.4754 -0.6845
  531MOL0     H71621  11.377   7.377  10.348 -1.1753  1.5433  1.4437
  531MOL0     H71622  11.277   7.119  10.471 -1.6685  2.0730  1.0111
  531MOL0     H71623  11.426   7.205  10.520 -0.4610 -1.0363 -0.1907
  531MOL0     H71624  11.391   7.040  10.267  1.5288 -1.2097  0.5620
  531MOL0     H71625  11.488   7.011  10.409  1.5088  0.0559 -0.3926
  531MOL0     H71626  11.510   7.218  10.181 -0.5494  0.8882  0.4468
  531MOL0     H71627  11.611   7.238  10.328 -1.2296 -0.4002 -0.3297
  531MOL0     H71628  11.720   7.052  10.329  2.1287 -0.8716 -1.5106
  531MOL0     H71629  11.613   6.970  10.210  1.5918 -0.6887 -1.4148
  531MOL0     H71630  11.737   7.135  10.042  0.3613 -3.6513 -0.6129
  531MOL0     H71631  11.821   7.203  10.183  0.4053 -0.1632 -1.3444
  531MOL0     H71632  11.817   6.926  10.075 -0.3975 -0.8975  1.9925
  531MOL0     H71633  11.907   6.958  10.223 -0.8897  0.0275 -0.7096
  531MOL0     H71634  11.939   7.046   9.926  0.7263  0.0225 -0.2523
  531MOL0     H71635  11.998   7.153  10.046  1.6650  0.0503 -1.6858
  531MOL0     H71636  12.246   7.095  10.127 -1.1936  0.7459  0.0324
  531MOL0     H71637  12.428   6.759  10.128 -3.7963 -0.2499 -2.0987
  531MOL0     H71638  12.512   6.876  10.014  1.4991  1.5156  0.0822
  531MOL0     H71639  12.511   7.047  10.181  0.5013 -0.3882 -2.1079
  531MOL0     H71640  12.440   6.949  10.305  2.0504 -0.0354  1.8107
  531MOL0     H71641  12.686   6.860  10.164 -1.9392 -1.9516 -1.5954
  531MOL0     H71642  12.607   6.794  10.310  1.5554  1.0514 -0.2232
  531MOL0     H71643  12.635   6.996  10.443 -3.0100 -4.3889 -1.0762
  531MOL0     H71644  12.715   7.073  10.302 -0.8197  0.3235  1.2872
  531MOL0     H71645  12.776   6.737  10.564  1.9567 -1.6706  1.0335
  531MOL0     H71646  12.790   6.761  10.817  0.1509 -0.5858 -0.8525
  531MOL0     H71647  12.881   7.027  11.205  1.0145  2.3476  1.7100
  531MOL0     H71648  12.925   7.020  11.438 -3.7853  0.3488 -3.5762
  531MOL0     H71649  13.230   6.735  11.689 -4.4568 -1.6062 -1.3621
  531MOL0     H71650  13.320   6.806  11.557  2.5039  0.7531  1.9199
  531MOL0     H71651  13.188   6.972  11.783  1.3194  1.0861  1.1064
  531MOL0     H71652  13.357   6.939  11.781  1.7903  0.6385 -1.6877
  531MOL0     H71653  13.402   7.075  11.591 -1.0417 -0.8458  0.8031
  531MOL0     H71654  13.238   7.088  11.543  3.0882 -1.4996 -2.5856
  531MOL0     H71655  13.341   7.187  11.813  2.0174 -0.6727 -0.9637
  531MOL0     H71656  13.188   7.230  11.744 -0.0258  2.1789  1.6222
  531MOL0     H71657  13.340   7.336  11.553  4.0714 -1.1664 -2.1275
  531MOL0     H71658  13.472   7.269  11.625 -0.4894 -0.2869 -0.3457
  531MOL0     H71659  13.295   7.471  11.760 -0.9374  1.0113  0.7083
  531MOL0     H71660  13.451   7.426  11.825 -3.6179  1.1934  1.1105
  531MOL0     H71661  13.503   7.627  11.713 -1.7591 -0.6596  1.3644
  531MOL0     H71662  13.401   7.598  11.575 -0.3424 -0.2737 -0.3897
  531MOL0     H71663  13.678   7.490  11.641  0.5505 -4.1021  0.3189
  531MOL0     H71664  13.585   7.403  11.522  1.0575 -0.4277  1.4583
  531MOL0     H71665  13.200   6.682  11.394 -0.9753 -0.9637  3.4124
  531MOL0     H71666  13.120   6.675  11.149  1.7457 -0.7557  2.1991
  531MOL0     H71667  13.005   7.139  10.747 -0.7180  1.3192 -0.7016
  531MOL0     H71668  12.979   7.109  10.516  3.1127  1.1096  3.4356
  531MOL0     H71669  11.273   7.540  10.261 -0.1217  0.1112 -0.6928
  531MOL0     H71670  11.146   7.731  10.212  0.5611 -0.0549 -0.1954
  531MOL0     H71671  10.943   8.070  10.226  0.1634 -1.5386 -1.8648
  531MOL0     H71672  10.825   8.276  10.123 -0.0763  0.7795  0.8313
  531MOL0     H71673  10.586   8.556  10.123  0.8782 -0.2628 -0.1660
  531MOL0     H71674  10.732   8.472  10.087 -1.3098  1.6139 -2.1519
  531MOL0     H71675  10.788   8.460  10.335 -2.6629 -2.5473 -1.3551
  531MOL0     H71676  10.649   8.571  10.363  1.9100 -1.6854  3.3358
  531MOL0     H71677  10.737   8.747  10.225 -3.1862 -3.1608  0.9792
  531MOL0     H71678  10.864   8.662  10.169 -0.3884 -1.1650 -0.2252
  531MOL0     H71679  10.916   8.834  10.348 -1.6152 -0.1390 -2.0168
  531MOL0     H71680  10.825   8.748  10.473 -1.3073 -3.5512  0.0887
  531MOL0     H71681  11.178   8.523  10.505 -2.7634 -3.4466  2.4965
  531MOL0     H71682  10.487   8.188  10.351  0.6674  1.0560 -2.0978
  531MOL0     H71683  10.617   8.002  10.597  1.6482 -2.3179  0.9136
  531MOL0     H71684  10.469   7.973  10.500  0.4692 -2.9728  2.7485
  531MOL0     H71685  10.610   7.864  10.500 -2.9680 -1.5594  1.1348
  532MOL0     O71686   3.188   4.723  10.907 -0.1802 -0.6059  0.0329
  532MOL0     C71687   3.145   4.658  11.001 -0.5172 -0.0240  0.7853
  532MOL0     O71688   3.034   4.695  11.071  0.0675 -0.6874 -0.1308
  532MOL0     C71689   2.981   4.820  11.039  0.0593  0.0330  0.1851
  532MOL0     C71690   2.926   4.840  10.912  0.9711 -0.7357 -0.1427
  532MOL0     C71691   2.890   4.963  10.871 -0.0551 -0.1631 -0.2965
  532MOL0     C71692   2.896   5.065  10.962 -0.3134 -0.7486  0.4565
  532MOL0     O71693   2.838   5.180  10.914 -0.1825  0.1955 -0.4197
  532MOL0     C71694   2.861   5.307  10.973  0.8102 -0.1359  0.0381
  532MOL0     C71695   2.817   5.410  10.874 -0.2013  0.2929  0.3194
  532MOL0     C71696   2.880   5.551  10.887  1.3084  0.7397 -0.2341
  532MOL0     C71697   2.871   5.597  11.024 -0.5518 -0.5489  0.1198
  532MOL0     C71698   2.925   5.738  11.036  1.0364  0.2930  0.1322
  532MOL0     C71699   2.886   5.805  11.162 -0.1444 -0.6005 -0.0984
  532MOL0     C71700   2.957   5.947  11.178 -0.1443 -0.0531 -0.9860
  532MOL0     C71701   2.881   6.029  11.287 -0.0903 -0.2244  0.0634
  532MOL0     N71702   2.899   5.980  11.423 -0.7887  0.5641 -0.2375
  532MOL0     C71703   2.815   5.890  11.473 -0.6723  0.1489  0.8351
  532MOL0     C71704   2.857   5.867  11.602 -0.1405 -0.3250 -1.1465
  532MOL0     C71705   2.802   5.775  11.705 -0.2536  0.3208 -0.1558
  532MOL0     C71706   2.749   5.646  11.646  0.2667  0.6024  0.2865
  532MOL0     C71707   2.679   5.558  11.758 -0.0452  0.5770  0.3020
  532MOL0     C71708   2.629   5.416  11.712 -1.0534 -0.7648 -0.2689
  532MOL0     O71709   2.565   5.358  11.825 -0.1122 -0.3144  0.1720
  532MOL0     C71710   2.566   5.218  11.833  0.1239 -0.4997 -1.9441
  532MOL0     C71711   2.471   5.160  11.924  0.5856 -0.5156 -0.4826
  532MOL0     C71712   2.469   5.024  11.951  0.3730  0.1887 -0.6046
  532MOL0     C71713   2.558   4.939  11.889 -0.4009 -0.6325  0.8256
  532MOL0     C71714   2.557   4.797  11.927  0.0684  0.6690 -0.0945
  532MOL0     O71715   2.453   4.751  11.999 -0.2542  0.5122  0.2697
  532MOL0     C71716   2.457   4.622  12.040 -0.7158  0.8635  0.5293
  532MOL0     C71717   2.487   4.592  12.173  0.0296 -0.8890  0.1076
  532MOL0     C71718   2.510   4.460  12.218  0.8946 -0.4933 -0.0119
  532MOL0     C71719   2.478   4.360  12.129  0.3710  0.5179  0.2032
  532MOL0     O71720   2.488   4.231  12.167 -0.8867  0.0854  0.0042
  532MOL0     C71721   2.601   4.188  12.244  0.3493 -0.1540 -0.9969
  532MOL0     C71722   2.581   4.038  12.266  0.0109 -0.0822  0.7614
  532MOL0     C71723   2.459   4.028  12.357  0.4783 -0.0660 -0.1981
  532MOL0     C71724   2.399   3.892  12.349  0.3886  0.5196  0.3721
  532MOL0     C71725   2.327   3.853  12.216 -0.1182 -0.4392  0.2898
  532MOL0     C71726   2.232   3.731  12.236  0.5840  0.5890  0.9264
  532MOL0     C71727   2.153   3.724  12.099  0.3654 -0.1177 -0.1026
  532MOL0     C71728   2.053   3.614  12.079 -0.2871  0.4610 -0.4243
  532MOL0    Cl71729   2.113   3.439  12.102  0.1798  0.1876  0.5456
  532MOL0     C71730   2.438   4.381  11.993 -0.3885  0.0002 -0.3767
  532MOL0     C71731   2.430   4.520  11.947 -0.2229  0.0083  0.0905
  532MOL0     O71732   2.648   4.728  11.881 -0.1776  0.7835  0.2555
  532MOL0     C71733   2.646   4.988  11.797 -0.0751  0.4639 -0.9456
  532MOL0     C71734   2.664   5.130  11.771 -0.3477 -0.3456 -1.2337
  532MOL0     N71735   2.965   5.957  11.627  0.5481  0.2527  0.2131
  532MOL0     N71736   2.987   6.025  11.514  0.7005  0.4880  0.3167
  532MOL0     C71737   2.947   5.051  11.089 -0.1884  0.7911  0.1534
  532MOL0     C71738   2.994   4.925  11.125  0.1105  0.4862  0.6041
  532MOL0     C71739   3.190   4.521  11.021 -0.4843  0.2006 -0.1428
  532MOL0     C71740   3.105   4.419  11.061  0.4379  0.1969 -0.0515
  532MOL0     C71741   3.139   4.284  11.073  0.1540 -0.2307  0.9099
  532MOL0     C71742   3.280   4.243  11.069  0.0133 -1.0465  0.5956
  532MOL0     O71743   3.313   4.115  11.100  0.3021  0.0150  0.6547
  532MOL0     C71744   3.328   4.026  10.978  0.3187 -0.0101 -0.2480
  532MOL0     C71745   3.401   3.892  11.035 -0.0745 -0.6557  0.2312
  532MOL0     C71746   3.561   3.896  11.022 -0.0526  0.2360  0.3583
  532MOL0     C71747   3.625   4.025  11.062 -0.2353 -0.1641 -0.7881
  532MOL0     C71748   3.778   4.020  11.054 -0.3467 -0.5288  0.2845
  532MOL0     C71749   3.901   4.016  11.076 -0.0499  0.1602 -0.1421
  532MOL0     C71750   3.362   4.346  11.032 -1.7512 -0.9753  1.0083
  532MOL0     C71751   3.331   4.486  11.010 -0.6303  0.5666 -0.9908
  532MOL0     C71752   3.434   4.597  10.985  0.3765 -0.4237 -0.6313
  532MOL0     H71753   2.913   4.759  10.841  2.1158 -0.1566 -1.0592
  532MOL0     H71754   2.836   4.994  10.782 -1.5178  0.8099  0.8783
  532MOL0     H71755   2.811   5.319  11.069  1.4758 -1.7210  0.6187
  532MOL0     H71756   2.964   5.328  11.003 -0.0628  3.0786  1.1772
  532MOL0     H71757   2.709   5.410  10.890 -0.1395  1.8048  0.8456
  532MOL0     H71758   2.847   5.383  10.772 -2.1015  2.9701 -1.0544
  532MOL0     H71759   2.805   5.618  10.844  0.2079  0.2741  0.8937
  532MOL0     H71760   2.976   5.553  10.835  1.2975 -0.5234 -0.3514
  532MOL0     H71761   2.769   5.584  11.060  0.1763 -2.2744  1.6837
  532MOL0     H71762   2.935   5.536  11.087 -0.1521 -0.2887 -0.0319
  532MOL0     H71763   3.033   5.732  11.025  0.9752  0.4727 -0.6015
  532MOL0     H71764   2.882   5.807  10.963  2.2730  2.8910  1.7586
  532MOL0     H71765   2.779   5.811  11.183 -0.0606  4.7275  0.1632
  532MOL0     H71766   2.927   5.737  11.238  2.2856  1.1009  0.2587
  532MOL0     H71767   2.964   5.995  11.081  0.1749  0.7740 -0.5639
  532MOL0     H71768   3.061   5.934  11.209 -1.0692 -2.2836  1.6120
  532MOL0     H71769   2.922   6.130  11.286  0.3002 -0.3735  0.5140
  532MOL0     H71770   2.774   6.044  11.270 -0.2300 -1.6741 -0.4720
  532MOL0     H71771   2.750   5.824  11.416  0.5487 -0.0635 -0.3842
  532MOL0     H71772   2.878   5.748  11.779 -0.7222  1.5940  0.8186
  532MOL0     H71773   2.715   5.818  11.753  0.2017  0.5315  0.4855
  532MOL0     H71774   2.679   5.674  11.567  2.3211 -1.9818 -2.7637
  532MOL0     H71775   2.829   5.598  11.587  0.0619 -0.3433  0.7534
  532MOL0     H71776   2.593   5.615  11.796 -2.1015 -2.0509 -0.1299
  532MOL0     H71777   2.739   5.547  11.849 -0.3057 -0.3205  0.3653
  532MOL0     H71778   2.712   5.355  11.676 -1.1894  0.3587 -2.6711
  532MOL0     H71779   2.563   5.424  11.625  0.3177 -0.0903 -1.2977
  532MOL0     H71780   2.388   5.215  11.968 -0.4693 -1.0637 -1.7221
  532MOL0     H71781   2.398   4.996  12.028 -0.6000  2.8142 -0.4416
  532MOL0     H71782   2.494   4.677  12.241  1.6028  0.5971 -1.7908
  532MOL0     H71783   2.529   4.429  12.320 -2.2384 -1.0261  0.5251
  532MOL0     H71784   2.701   4.216  12.208  0.6256 -1.2358 -1.1215
  532MOL0     H71785   2.593   4.230  12.345  2.9617 -3.1698  0.7059
  532MOL0     H71786   2.564   3.978  12.176 -0.3868 -2.3669  2.2817
  532MOL0     H71787   2.669   3.992  12.312 -1.4356 -0.5049  3.2474
  532MOL0     H71788   2.491   4.053  12.459 -0.8741 -0.8398  0.4446
  532MOL0     H71789   2.389   4.108  12.330  1.2219  0.6071 -0.1506
  532MOL0     H71790   2.322   3.882  12.425 -0.1329  0.5003 -0.1468
  532MOL0     H71791   2.472   3.811  12.359  0.0249  0.0607 -0.5633
  532MOL0     H71792   2.407   3.832  12.144 -0.2939  0.4894 -0.1834
  532MOL0     H71793   2.275   3.938  12.170 -0.8676 -1.1593 -0.2326
  532MOL0     H71794   2.285   3.639  12.262 -2.9638 -2.3135 -1.1912
  532MOL0     H71795   2.152   3.749  12.308  0.0258  0.4532  0.3510
  532MOL0     H71796   2.225   3.718  12.017  0.2654  1.7557 -0.3794
  532MOL0     H71797   2.095   3.815  12.080  1.0309 -0.2218 -3.0166
  532MOL0     H71798   1.979   3.628  12.159  2.2245 -0.3363  2.2328
  532MOL0     H71799   2.002   3.627  11.983 -2.3909  1.2683  0.7297
  532MOL0     H71800   2.424   4.297  11.926  1.4829  0.1318 -1.0012
  532MOL0     H71801   2.412   4.547  11.844 -1.9613  1.2573  0.6771
  532MOL0     H71802   2.722   4.924  11.751  1.3141  0.9302  0.6299
  532MOL0     H71803   2.740   5.163  11.701 -1.5415 -0.1496 -2.4756
  532MOL0     H71804   2.969   5.137  11.151  4.5508  0.7718 -1.1226
  532MOL0     H71805   3.038   4.917  11.224 -3.4283 -2.8864  2.1886
  532MOL0     H71806   3.001   4.449  11.068  0.0871  0.1288 -3.5137
  532MOL0     H71807   3.063   4.209  11.094  1.3890 -1.5244  0.8504
  532MOL0     H71808   3.388   4.075  10.901 -0.2739 -1.1747 -1.4906
  532MOL0     H71809   3.228   4.004  10.941 -1.2455  6.0800 -0.7181
  532MOL0     H71810   3.374   3.807  10.971  0.3756  0.9305 -2.2181
  532MOL0     H71811   3.371   3.877  11.139  0.8315 -1.9150  0.3286
  532MOL0     H71812   3.578   3.882  10.915  0.2832 -1.2784  0.5816
  532MOL0     H71813   3.607   3.805  11.062  0.4742  0.7740  1.0142
  532MOL0     H71814   3.597   4.119  11.014  0.4871  0.6761  0.3717
  532MOL0     H71815   3.611   4.050  11.167  2.0485  0.6785 -0.6382
  532MOL0     H71816   4.001   3.995  11.109 -1.0340 -1.1692  2.2173
  532MOL0     H71817   3.461   4.310  11.005 -2.2847 -1.1643 -0.7974
  532MOL0     H71818   3.423   4.694  11.032  0.6400  0.2112 -1.8297
  532MOL0     H71819   3.535   4.569  11.017 -0.0979 -0.7243  0.6655
  532MOL0     H71820   3.441   4.618  10.877  0.5684  1.0403 -0.3522
  533MOL0     O71821   2.188  10.157  11.338 -0.4415  0.5391  0.2720
  533MOL0     C71822   2.267  10.067  11.301 -1.1232 -0.2059 -0.3317
  533MOL0     O71823   2.250   9.982  11.189 -0.2796 -0.5879 -1.2917
  533MOL0     C71824   2.127   9.997  11.127 -0.7222  0.5494  0.3570
  533MOL0     C71825   2.065   9.875  11.103  0.5079 -0.1959  0.3427
  533MOL0     C71826   1.939   9.880  11.049  0.3501  0.0378  0.0417
  533MOL0     C71827   1.884   9.997  11.003 -0.5095  0.8930 -0.0093
  533MOL0     O71828   1.750   9.985  10.972  0.1758  0.1858 -0.7123
  533MOL0     C71829   1.681  10.110  10.949  0.0636  0.4727  0.5016
  533MOL0     C71830   1.632  10.172  11.085  0.9799  0.6467  0.6578
  533MOL0     C71831   1.546  10.296  11.048 -0.5438  0.6565  0.3297
  533MOL0     C71832   1.498  10.372  11.171  0.4574  0.3079 -0.3304
  533MOL0     C71833   1.364  10.455  11.145  0.6291 -0.1411  0.1542
  533MOL0     C71834   1.249  10.354  11.158  0.0246  0.3881 -0.1749
  533MOL0     C71835   1.108  10.430  11.151 -0.1336 -0.5232  0.0394
  533MOL0     C71836   0.988  10.336  11.133 -0.0511 -0.5460 -0.5496
  533MOL0     N71837   0.857  10.398  11.163  0.0455  0.5572  0.6519
  533MOL0     C71838   0.784  10.380  11.276 -0.1749  1.1740 -0.1911
  533MOL0     C71839   0.664  10.439  11.242  0.3281 -0.1383 -0.3783
  533MOL0     C71840   0.547  10.451  11.332 -0.5782 -0.1712  0.5224
  533MOL0     C71841   0.568  10.578  11.419  0.4028  0.0650 -1.0351
  533MOL0     C71842   0.459  10.602  11.524  0.6061  0.4868 -0.4364
  533MOL0     C71843   0.470  10.719  11.621  0.1389  0.2686 -0.2211
  533MOL0     O71844   0.350  10.712  11.692  0.1851  0.5647 -0.0554
  533MOL0     C71845   0.331  10.807  11.791  0.1419  0.1293  0.7711
  533MOL0     C71846   0.210  10.796  11.863  0.3633 -0.0270  0.9369
  533MOL0     C71847   0.167  10.898  11.947 -0.0189 -0.2225 -0.2117
  533MOL0     C71848   0.243  11.008  11.970  0.0955 -0.7844 -0.6790
  533MOL0     C71849   0.203  11.131  12.047  0.0055  0.1604 -0.0308
  533MOL0     O71850   0.266  11.251  12.015  0.5954 -0.1934  0.3379
  533MOL0     C71851   0.223  11.366  12.065  0.4922 -0.0534 -0.1309
  533MOL0     C71852   0.171  11.382  12.201  0.5380  0.0506 -0.2962
  533MOL0     C71853   0.140  11.508  12.253 -0.1879  0.3335 -0.3151
  533MOL0     C71854   0.135  11.624  12.175  0.1684 -0.2452  0.3742
  533MOL0     O71855   0.109  11.742  12.239 -0.4681  0.1158 -0.3071
  533MOL0     C71856   0.053  11.852  12.148  0.3181 -0.4991  0.2685
  533MOL0     C71857   0.045  11.980  12.235 -0.9107  0.8865  0.2975
  533MOL0     C71858  -0.058  12.085  12.184  0.7079 -0.6479  0.2277
  533MOL0     C71859  -0.055  12.105  12.034  0.1306 -0.0002  0.4766
  533MOL0     C71860  -0.154  12.214  11.984 -0.2414 -0.8964  0.4269
  533MOL0     C71861  -0.082  12.356  11.989 -0.5691 -0.8922  0.1846
  533MOL0     C71862   0.008  12.376  11.867 -0.7992 -0.1954  0.8246
  533MOL0     C71863   0.069  12.517  11.859  0.0083 -1.6480  0.7454
  533MOL0    Cl71864   0.201  12.545  11.970  0.0186  0.0229  0.2286
  533MOL0     C71865   0.163  11.604  12.043 -0.1033 -0.7689  0.2837
  533MOL0     C71866   0.199  11.485  11.988 -0.2165  1.0808  0.4674
  533MOL0     O71867   0.094  11.118  12.113 -0.4058  0.4348  0.1653
  533MOL0     C71868   0.366  11.019  11.900  0.2402  0.0821  1.3604
  533MOL0     C71869   0.409  10.923  11.807 -0.1645  0.0840  0.1386
  533MOL0     N71870   0.673  10.494  11.117  0.0416  0.8915  0.7603
  533MOL0     N71871   0.784  10.464  11.065  0.1821  0.4811  0.6292
  533MOL0     C71872   1.960  10.118  11.006 -0.4982  0.3336  0.3151
  533MOL0     C71873   2.078  10.116  11.073 -0.1134 -0.1994  0.8422
  533MOL0     C71874   2.393  10.053  11.392 -0.7162  0.6136  0.1579
  533MOL0     C71875   2.465   9.941  11.370 -0.2523 -0.6864 -0.1795
  533MOL0     C71876   2.569   9.897  11.455  0.4000  0.9012 -0.8958
  533MOL0     C71877   2.614   9.964  11.567  0.1285 -1.1490 -0.8964
  533MOL0     O71878   2.701   9.896  11.646 -0.1254  0.1474  0.3927
  533MOL0     C71879   2.739   9.948  11.778  0.2474  0.9455  0.3070
  533MOL0     C71880   2.882  10.003  11.783  0.9382  0.3422  0.1841
  533MOL0     C71881   2.986   9.919  11.874 -0.0506  0.8821  1.0585
  533MOL0     C71882   3.125   9.984  11.884 -0.6956 -0.2920 -0.1138
  533MOL0     C71883   3.229   9.913  11.956  0.3093  0.4269  0.4843
  533MOL0     C71884   3.323   9.848  11.991 -0.4319 -0.5764 -0.3751
  533MOL0     C71885   2.549  10.087  11.581  0.0621 -0.2965 -0.4059
  533MOL0     C71886   2.435  10.131  11.502  0.3452 -0.3035  0.6528
  533MOL0     C71887   2.361  10.252  11.548  0.2219 -1.0151  0.5162
  533MOL0     H71888   2.105   9.780  11.136  1.6943 -0.8281 -2.6411
  533MOL0     H71889   1.882   9.788  11.038 -1.0681  0.7598  1.0177
  533MOL0     H71890   1.733  10.187  10.891  0.5463  1.1594  1.8118
  533MOL0     H71891   1.593  10.074  10.894 -0.1356 -0.0194  1.1331
  533MOL0     H71892   1.716  10.218  11.139  2.1849  0.8037 -1.2290
  533MOL0     H71893   1.587  10.102  11.156  1.7042 -0.1588  0.3426
  533MOL0     H71894   1.455  10.273  10.992 -0.5667  2.5694 -0.4997
  533MOL0     H71895   1.600  10.370  10.989  0.4303  0.2007  0.6302
  533MOL0     H71896   1.474  10.293  11.243  0.9594 -0.2463 -0.7661
  533MOL0     H71897   1.571  10.438  11.218 -1.4229  0.3911  2.8026
  533MOL0     H71898   1.358  10.531  11.223 -1.5924 -0.7154  0.6161
  533MOL0     H71899   1.356  10.499  11.044  2.4033 -0.3508 -0.1030
  533MOL0     H71900   1.249  10.266  11.093  0.1089 -0.3191  0.7461
  533MOL0     H71901   1.268  10.306  11.255  3.6455  0.4411 -0.7216
  533MOL0     H71902   1.117  10.509  11.077 -0.2160 -0.0233  0.5523
  533MOL0     H71903   1.091  10.487  11.243 -2.5409  1.1304 -1.3555
  533MOL0     H71904   0.987  10.302  11.029 -0.9643 -0.0601 -0.7069
  533MOL0     H71905   0.996  10.261  11.213 -2.3351  1.2722  1.5581
  533MOL0     H71906   0.830  10.337  11.364  3.7332  1.6007 -1.8422
  533MOL0     H71907   0.460  10.454  11.265  1.3152 -1.3276 -2.1538
  533MOL0     H71908   0.545  10.360  11.393  0.8066  0.0265  0.9036
  533MOL0     H71909   0.664  10.564  11.470  0.1571  1.0590 -0.2703
  533MOL0     H71910   0.580  10.675  11.370  0.4429  1.8483  2.1661
  533MOL0     H71911   0.451  10.511  11.584  1.7748  0.8769  0.3473
  533MOL0     H71912   0.366  10.630  11.475  0.0065  0.2598  0.5511
  533MOL0     H71913   0.482  10.816  11.572 -1.7298  1.2438  1.1160
  533MOL0     H71914   0.560  10.704  11.682  0.9487 -0.5229 -1.5595
  533MOL0     H71915   0.137  10.720  11.838 -0.6934  1.2617 -0.0385
  533MOL0     H71916   0.069  10.884  11.993  0.6504 -0.8957  1.0677
  533MOL0     H71917   0.168  11.292  12.261  1.3128 -1.7255 -2.7296
  533MOL0     H71918   0.134  11.509  12.361  1.8634  1.8270 -0.1579
  533MOL0     H71919   0.093  11.871  12.048  2.0166  1.4224  1.2415
  533MOL0     H71920  -0.048  11.814  12.130  0.3199 -1.7099  2.4431
  533MOL0     H71921   0.008  11.955  12.335  1.4117 -0.7100  0.8432
  533MOL0     H71922   0.145  12.022  12.247 -1.5867  2.6233  0.1487
  533MOL0     H71923  -0.156  12.055  12.224  0.9882 -1.3495  0.3845
  533MOL0     H71924  -0.042  12.185  12.226  1.3585 -0.9173  0.6214
  533MOL0     H71925  -0.076  12.013  11.979  2.6851  0.1554 -0.8995
  533MOL0     H71926   0.049  12.124  12.005 -0.3168 -0.3754 -1.5325
  533MOL0     H71927  -0.246  12.210  12.043 -2.7026  0.8570 -2.8947
  533MOL0     H71928  -0.188  12.194  11.881  1.7536  0.6163 -0.5848
  533MOL0     H71929  -0.166  12.425  11.990 -2.0082 -2.5421 -1.0324
  533MOL0     H71930  -0.013  12.362  12.074 -0.4807  1.4516  0.0077
  533MOL0     H71931  -0.041  12.347  11.774  0.2587 -0.6183  0.3799
  533MOL0     H71932   0.089  12.302  11.874 -0.6700 -0.1336  0.0196
  533MOL0     H71933   0.113  12.531  11.759 -3.7204  0.1945 -0.8352
  533MOL0     H71934  -0.004  12.595  11.882  1.0666 -1.2407  3.0151
  533MOL0     H71935   0.151  11.690  11.978  1.6377  0.1019  1.0456
  533MOL0     H71936   0.238  11.493  11.887 -4.3953  1.2602 -1.3372
  533MOL0     H71937   0.431  11.104  11.921 -1.8395  1.8264  1.1088
  533MOL0     H71938   0.496  10.926  11.741 -0.3445  1.3256 -0.0581
  533MOL0     H71939   1.924  10.208  10.956 -2.9485 -1.7662 -2.0283
  533MOL0     H71940   2.124  10.214  11.081 -1.6434  0.5747  0.4741
  533MOL0     H71941   2.460   9.875  11.284  4.0606 -0.3507 -0.9243
  533MOL0     H71942   2.636   9.817  11.425  0.1328  0.6870 -0.9229
  533MOL0     H71943   2.727   9.863  11.845 -0.2786  1.5504  1.0049
  533MOL0     H71944   2.656  10.016  11.801 -1.4618 -0.9731  0.0588
  533MOL0     H71945   2.883  10.106  11.821  1.6741  1.8034 -3.3840
  533MOL0     H71946   2.912  10.009  11.678  1.1977  0.1671  0.2454
  533MOL0     H71947   2.997   9.821  11.826 -3.0522  0.1278  1.7023
  533MOL0     H71948   2.928   9.890  11.962  1.8117 -1.8912  1.4922
  533MOL0     H71949   3.160   9.985  11.780  2.1481  1.4105  0.7379
  533MOL0     H71950   3.126  10.090  11.913 -4.7491  0.6215 -2.4815
  533MOL0     H71951   3.413   9.810  12.035  0.3112 -0.0469 -1.3971
  533MOL0     H71952   2.562  10.145  11.671 -2.3409  0.6061 -0.5687
  533MOL0     H71953   2.278  10.224  11.614  0.1925 -1.4136  0.3104
  533MOL0     H71954   2.430  10.310  11.610  2.2021 -2.7430  0.0409
  533MOL0     H71955   2.333  10.320  11.467 -1.2231 -3.1040 -0.8670
  534MOL0     O71956   9.042   5.332   0.879 -0.1449  0.4596  0.4869
  534MOL0     C71957   9.015   5.430   0.945 -0.4064 -1.0189  0.7580
  534MOL0     O71958   9.112   5.509   0.996 -0.2630 -0.9805 -0.5699
  534MOL0     C71959   9.233   5.519   0.938 -0.2907 -0.5553  0.5070
  534MOL0     C71960   9.314   5.419   0.884  0.3507 -0.4431  0.1625
  534MOL0     C71961   9.434   5.455   0.821 -0.3746 -0.2465 -0.4093
  534MOL0     C71962   9.474   5.591   0.805  0.3230  0.9348 -1.1486
  534MOL0     O71963   9.594   5.637   0.749  0.2131  0.1719  0.4275
  534MOL0     C71964   9.699   5.543   0.707  0.7443  0.1024 -0.5589
  534MOL0     C71965   9.680   5.484   0.558  0.6578  0.6687  0.7313
  534MOL0     C71966   9.801   5.400   0.535  0.4659  0.5917 -0.8923
  534MOL0     C71967   9.802   5.315   0.406 -0.4577 -0.4564 -0.3880
  534MOL0     C71968   9.880   5.188   0.413  0.1091  0.1935 -0.2254
  534MOL0     C71969  10.019   5.222   0.370  0.2729  0.1356 -0.5322
  534MOL0     C71970  10.106   5.091   0.384 -0.3198 -0.0588 -0.2293
  534MOL0     C71971  10.244   5.126   0.322 -0.0068 -0.6384  0.5657
  534MOL0     N71972  10.316   5.238   0.379  0.4640  0.4107  0.1894
  534MOL0     C71973  10.417   5.228   0.468 -0.3210  0.2350 -1.2778
  534MOL0     C71974  10.477   5.343   0.500  0.5382 -1.1154 -0.0142
  534MOL0     C71975  10.587   5.377   0.598 -0.0989  1.1059  0.6996
  534MOL0     C71976  10.563   5.438   0.734 -0.2693 -0.6008  0.4879
  534MOL0     C71977  10.458   5.362   0.823 -0.7236  0.0605  0.1729
  534MOL0     C71978  10.473   5.412   0.969  0.6000 -0.1253  1.2891
  534MOL0     O71979  10.466   5.559   0.968  0.0298  0.0311 -0.6919
  534MOL0     C71980  10.543   5.610   1.072  0.6731 -0.1256  0.3754
  534MOL0     C71981  10.591   5.738   1.037 -0.7319 -0.5788  1.1621
  534MOL0     C71982  10.677   5.801   1.124 -0.6663  1.2477 -0.1823
  534MOL0     C71983  10.728   5.732   1.239  1.3230 -0.4321 -0.3674
  534MOL0     C71984  10.822   5.808   1.330  0.8535  0.9041  0.0426
  534MOL0     O71985  10.850   5.941   1.292 -0.1283  0.0268  0.4846
  534MOL0     C71986  10.941   6.006   1.370 -0.1051 -0.7295 -0.4653
  534MOL0     C71987  11.077   5.956   1.384  0.3920  1.0956  0.6464
  534MOL0     C71988  11.168   6.035   1.457 -0.6812 -0.2386  0.3425
  534MOL0     C71989  11.134   6.155   1.516  0.5584  0.3781  1.5960
  534MOL0     O71990  11.230   6.218   1.589 -0.1752 -0.2189  0.5139
  534MOL0     C71991  11.267   6.350   1.537 -0.3982  0.1339  0.3393
  534MOL0     C71992  11.343   6.324   1.409  0.2496  0.7517 -0.0778
  534MOL0     C71993  11.369   6.462   1.337  0.1216 -0.5855  0.2294
  534MOL0     C71994  11.245   6.531   1.269  0.1930  0.4183  0.1460
  534MOL0     C71995  11.285   6.649   1.189 -0.4312 -0.1772  0.1636
  534MOL0     C71996  11.173   6.737   1.158  0.6124 -0.0596 -0.3611
  534MOL0     C71997  11.221   6.831   1.055 -0.2014 -1.3764  1.3440
  534MOL0     C71998  11.182   6.782   0.912  1.0868  0.1553  0.1007
  534MOL0    Cl71999  11.181   6.934   0.813  0.1161  0.0251  0.0629
  534MOL0     C72000  11.003   6.203   1.498 -0.6904 -0.0201 -0.3502
  534MOL0     C72001  10.909   6.132   1.419 -0.5797 -0.4352 -0.1287
  534MOL0     O72002  10.858   5.749   1.431  0.7649  1.0358  1.0974
  534MOL0     C72003  10.667   5.606   1.279 -0.4449  0.4427 -0.1632
  534MOL0     C72004  10.573   5.545   1.195 -0.2192 -0.4372  0.2229
  534MOL0     N72005  10.387   5.428   0.441 -0.2497  0.5937 -0.5584
  534MOL0     N72006  10.300   5.364   0.371  0.1360 -0.2582  0.4494
  534MOL0     C72007   9.395   5.694   0.867  0.2199  0.6581 -0.2303
  534MOL0     C72008   9.268   5.651   0.920 -1.2569 -0.7654 -0.4588
  534MOL0     C72009   8.878   5.447   1.009  0.3439  0.3290  0.5491
  534MOL0     C72010   8.872   5.534   1.114  0.4175  0.4991 -0.8221
  534MOL0     C72011   8.759   5.542   1.199  0.5472 -0.3593 -0.1957
  534MOL0     C72012   8.638   5.475   1.164 -0.1806 -0.0217 -0.5414
  534MOL0     O72013   8.532   5.499   1.248 -0.4902  0.1540 -0.2792
  534MOL0     C72014   8.423   5.410   1.235 -0.6283 -0.8290  0.2363
  534MOL0     C72015   8.356   5.422   1.368  0.4239 -0.2378  0.0512
  534MOL0     C72016   8.451   5.382   1.481 -0.0251  0.4446  0.4939
  534MOL0     C72017   8.373   5.386   1.617  0.2900  0.4175 -0.1275
  534MOL0     C72018   8.300   5.259   1.629 -0.1193 -0.1352  0.5773
  534MOL0     C72019   8.229   5.165   1.635  1.2074 -0.4858 -1.5400
  534MOL0     C72020   8.639   5.397   1.050 -0.7363 -0.0545  0.6588
  534MOL0     C72021   8.753   5.384   0.966  0.0875 -0.9983 -0.6805
  534MOL0     C72022   8.734   5.324   0.826  0.0636 -0.4016 -0.3085
  534MOL0     H72023   9.291   5.313   0.891 -0.1138 -0.2627  1.7106
  534MOL0     H72024   9.495   5.373   0.786  3.7981  3.3597 -2.6934
  534MOL0     H72025   9.791   5.603   0.709  1.4947 -0.9678 -1.7486
  534MOL0     H72026   9.718   5.463   0.779  0.2364 -0.7160 -1.3178
  534MOL0     H72027   9.671   5.559   0.479  3.5092 -1.7605 -2.2651
  534MOL0     H72028   9.591   5.422   0.544  0.1838  1.6921 -1.0754
  534MOL0     H72029   9.806   5.336   0.624 -0.1939 -0.6380 -1.7135
  534MOL0     H72030   9.889   5.464   0.529  0.6358  0.4039 -0.4604
  534MOL0     H72031   9.702   5.274   0.385 -0.2960 -0.6593 -0.7630
  534MOL0     H72032   9.848   5.363   0.320 -1.5598 -0.1717 -0.8441
  534MOL0     H72033   9.890   5.133   0.506  2.3489 -0.8334 -1.0025
  534MOL0     H72034   9.846   5.112   0.342  3.4133 -2.7068  1.0142
  534MOL0     H72035  10.011   5.239   0.263  3.0543 -2.7101 -1.3509
  534MOL0     H72036  10.065   5.305   0.425  0.3715  0.3549 -0.9468
  534MOL0     H72037  10.059   5.001   0.345 -0.2334 -0.6761  1.0440
  534MOL0     H72038  10.115   5.068   0.490 -2.8463 -0.9113 -0.1251
  534MOL0     H72039  10.301   5.033   0.326  1.5870  0.2964  0.2870
  534MOL0     H72040  10.240   5.161   0.219  2.8639  2.6486  1.4147
  534MOL0     H72041  10.453   5.133   0.507  1.0364  0.8460 -0.9987
  534MOL0     H72042  10.626   5.279   0.626 -4.8471 -1.5903 -0.9309
  534MOL0     H72043  10.654   5.440   0.538 -1.9241  0.1564 -2.6044
  534MOL0     H72044  10.653   5.432   0.797 -1.4091 -0.7172  2.1932
  534MOL0     H72045  10.527   5.540   0.721 -0.9576 -0.6769  1.6163
  534MOL0     H72046  10.474   5.254   0.826 -0.4863  0.0969  0.1793
  534MOL0     H72047  10.356   5.368   0.782 -0.8165  0.2778  0.4320
  534MOL0     H72048  10.568   5.378   1.010  3.1916  3.0754 -1.4139
  534MOL0     H72049  10.393   5.373   1.033 -0.3302 -1.2938 -0.5017
  534MOL0     H72050  10.575   5.776   0.937  2.1603  0.4115  0.9951
  534MOL0     H72051  10.717   5.899   1.100 -1.0456  0.7510 -3.4171
  534MOL0     H72052  11.104   5.862   1.337 -0.7688  1.5244 -0.9417
  534MOL0     H72053  11.266   5.991   1.471 -0.8748 -0.9696 -0.4728
  534MOL0     H72054  11.177   6.411   1.531 -1.0428 -0.7025  1.2011
  534MOL0     H72055  11.334   6.391   1.613 -1.7104  0.4585  1.3561
  534MOL0     H72056  11.439   6.275   1.424  1.4739  2.6625 -1.2810
  534MOL0     H72057  11.284   6.273   1.332  1.0312 -2.6930  1.4373
  534MOL0     H72058  11.422   6.526   1.409  1.2116 -1.4185  0.2007
  534MOL0     H72059  11.435   6.441   1.252 -2.5924 -2.5944 -1.5306
  534MOL0     H72060  11.174   6.564   1.345 -0.1587  2.7860 -1.1290
  534MOL0     H72061  11.206   6.454   1.201 -1.0855  0.6189  0.6380
  534MOL0     H72062  11.326   6.617   1.092  0.3429  2.2009 -0.3728
  534MOL0     H72063  11.367   6.697   1.243  0.3134 -0.8468 -0.3426
  534MOL0     H72064  11.092   6.676   1.116  1.0296 -0.6041 -0.3736
  534MOL0     H72065  11.130   6.780   1.249 -0.8909 -0.3207 -0.9119
  534MOL0     H72066  11.328   6.851   1.064 -0.7235  2.2663  1.1096
  534MOL0     H72067  11.160   6.918   1.082 -2.1987 -1.3762 -2.4969
  534MOL0     H72068  11.246   6.707   0.865 -0.8100 -0.7157 -1.1663
  534MOL0     H72069  11.082   6.740   0.904 -0.5564  3.5898  0.7996
  534MOL0     H72070  10.978   6.298   1.545  1.2317 -0.7474  2.4244
  534MOL0     H72071  10.809   6.165   1.395  0.3565  1.8643 -1.1493
  534MOL0     H72072  10.687   5.568   1.378 -3.1874 -0.5687  0.0808
  534MOL0     H72073  10.532   5.452   1.232  0.8377 -1.0066 -0.0028
  534MOL0     H72074   9.435   5.795   0.876 -0.2417  0.8626 -0.4654
  534MOL0     H72075   9.190   5.707   0.970 -3.1300 -3.3429 -0.2537
  534MOL0     H72076   8.957   5.594   1.147 -1.0547  2.3090 -0.1912
  534MOL0     H72077   8.765   5.600   1.290 -0.2921  0.5550 -0.6998
  534MOL0     H72078   8.447   5.305   1.215  0.3268  0.0662 -4.1159
  534MOL0     H72079   8.370   5.451   1.149  1.3531  0.7277 -0.2925
  534MOL0     H72080   8.273   5.351   1.363  1.3686 -1.3262 -1.1589
  534MOL0     H72081   8.311   5.520   1.385 -1.5384 -1.4753  2.5804
  534MOL0     H72082   8.538   5.449   1.484 -0.4430  1.0428 -0.2005
  534MOL0     H72083   8.495   5.285   1.461 -0.3045 -0.1830  2.6431
  534MOL0     H72084   8.444   5.386   1.700 -2.2037 -0.5673  2.1441
  534MOL0     H72085   8.304   5.469   1.633  1.3143  1.1107  0.9163
  534MOL0     H72086   8.185   5.068   1.638 -0.1474 -0.1200  5.0258
  534MOL0     H72087   8.545   5.356   1.015 -0.8053  1.5475 -1.2521
  534MOL0     H72088   8.787   5.385   0.752  2.4028  0.3362  1.8124
  534MOL0     H72089   8.791   5.231   0.839 -0.7314 -0.5850  2.5920
  534MOL0     H72090   8.630   5.312   0.796  0.5413  1.1427 -2.8970
  535MOL0     O72091   6.029   8.003   2.003  0.0021  0.0032  0.8140
  535MOL0     C72092   5.980   7.968   1.890  0.0844  0.2165 -0.5905
  535MOL0     O72093   6.025   8.007   1.773 -1.0322  0.3241 -0.0034
  535MOL0     C72094   6.148   8.075   1.755  0.5873  0.4796  1.1592
  535MOL0     C72095   6.151   8.172   1.647  0.1434 -0.5852 -1.2444
  535MOL0     C72096   6.263   8.238   1.616 -0.0489 -0.0165  0.3057
  535MOL0     C72097   6.386   8.222   1.689  0.1220  0.3946 -0.5495
  535MOL0     O72098   6.487   8.310   1.671  0.2109  0.8955  0.2341
  535MOL0     C72099   6.611   8.294   1.746  0.2893 -1.1705 -0.8801
  535MOL0     C72100   6.725   8.379   1.683  0.7807  0.1476  0.3950
  535MOL0     C72101   6.685   8.534   1.685  0.5048  0.5541 -0.0829
  535MOL0     C72102   6.792   8.634   1.649  0.6639  0.3406 -0.4480
  535MOL0     C72103   6.726   8.775   1.623 -0.2197  0.4321 -0.7441
  535MOL0     C72104   6.837   8.865   1.594  0.5552  0.0034 -0.7609
  535MOL0     C72105   6.792   8.995   1.535 -0.2616 -0.3046  0.2969
  535MOL0     C72106   6.919   9.073   1.478 -0.4120 -0.3024 -0.2391
  535MOL0     N72107   7.021   9.103   1.580 -0.1154  0.1481  0.8588
  535MOL0     C72108   7.041   9.223   1.643 -0.0155  0.4769 -0.6690
  535MOL0     C72109   7.167   9.217   1.687 -0.7842 -0.7710 -0.9580
  535MOL0     C72110   7.240   9.335   1.742 -0.0158  0.9666 -0.0517
  535MOL0     C72111   7.315   9.280   1.870  0.8748  0.2616 -0.1127
  535MOL0     C72112   7.402   9.383   1.935  0.1942 -0.0658  0.3481
  535MOL0     C72113   7.483   9.322   2.044  0.1722 -0.4007  0.1342
  535MOL0     O72114   7.588   9.413   2.074  0.5747 -0.4576 -0.2578
  535MOL0     C72115   7.699   9.423   1.997  0.7234  0.2731 -0.4711
  535MOL0     C72116   7.789   9.312   1.989 -0.1265 -0.2781 -0.3911
  535MOL0     C72117   7.906   9.328   1.923  0.2811 -0.6391  0.9641
  535MOL0     C72118   7.952   9.453   1.874 -0.2561  0.0230 -0.0958
  535MOL0     C72119   8.076   9.451   1.785  0.2100 -0.0954  0.6609
  535MOL0     O72120   8.142   9.337   1.760  0.7896  0.6849 -0.7934
  535MOL0     C72121   8.257   9.333   1.675 -0.1721 -0.3923 -0.1667
  535MOL0     C72122   8.385   9.270   1.710 -0.1312  0.1555 -0.1724
  535MOL0     C72123   8.483   9.268   1.621 -0.1718 -0.5456  1.0575
  535MOL0     C72124   8.475   9.328   1.494  0.0385 -0.5949 -0.1629
  535MOL0     O72125   8.597   9.331   1.416 -0.1832  0.0732 -0.3884
  535MOL0     C72126   8.594   9.383   1.277  0.0687 -0.6486  0.0201
  535MOL0     C72127   8.734   9.394   1.209  0.1536 -0.1122  0.4480
  535MOL0     C72128   8.832   9.492   1.273 -0.4791 -0.8042 -0.3608
  535MOL0     C72129   8.963   9.493   1.210 -0.5563  0.2848 -1.1606
  535MOL0     C72130   9.055   9.368   1.236 -0.2244 -0.9637  0.5973
  535MOL0     C72131   9.123   9.309   1.117 -0.0858 -0.0310  0.2096
  535MOL0     C72132   9.035   9.227   1.019  0.0635 -0.2148  0.8823
  535MOL0     C72133   9.123   9.124   0.953 -0.0828  0.1847  0.3360
  535MOL0    Cl72134   9.139   8.985   1.064 -0.5601  0.2084  0.0754
  535MOL0     C72135   8.352   9.386   1.458 -0.2513  1.3269  0.5634
  535MOL0     C72136   8.239   9.381   1.543 -0.1948 -0.2250 -0.2141
  535MOL0     O72137   8.111   9.564   1.741 -0.0056  0.3659  0.2208
  535MOL0     C72138   7.869   9.559   1.907 -0.1801  0.0423  0.1256
  535MOL0     C72139   7.749   9.543   1.968  0.3120 -0.7622  0.6364
  535MOL0     N72140   7.219   9.090   1.653 -0.0827 -0.7438 -0.2015
  535MOL0     N72141   7.134   9.026   1.578  0.1154 -0.3408  0.4103
  535MOL0     C72142   6.382   8.123   1.786 -0.7508  0.7170 -0.7651
  535MOL0     C72143   6.271   8.043   1.821  0.6882 -1.2381 -0.6629
  535MOL0     C72144   5.859   7.880   1.892  0.0317 -0.7775  0.2331
  535MOL0     C72145   5.791   7.864   1.767  0.0927  0.0088 -0.4469
  535MOL0     C72146   5.669   7.802   1.750  0.2880  0.4728 -0.1632
  535MOL0     C72147   5.608   7.747   1.855 -0.3646 -0.1414 -0.0965
  535MOL0     O72148   5.484   7.695   1.829 -0.1862 -0.3598 -0.4606
  535MOL0     C72149   5.415   7.628   1.935 -0.5375 -0.0101 -0.6759
  535MOL0     C72150   5.288   7.565   1.878 -0.0251 -0.3222  0.0986
  535MOL0     C72151   5.309   7.455   1.786  0.8774  0.6404  0.4666
  535MOL0     C72152   5.168   7.414   1.720 -0.9791 -0.4973  0.5490
  535MOL0     C72153   5.151   7.479   1.595  0.7748 -0.3245  1.3176
  535MOL0     C72154   5.115   7.534   1.489 -0.1418  0.4719 -0.2477
  535MOL0     C72155   5.674   7.763   1.983 -0.0503 -0.1605 -0.1497
  535MOL0     C72156   5.800   7.817   2.000  0.0772  0.3660  0.1624
  535MOL0     C72157   5.865   7.808   2.136 -0.5195  0.6305  0.2022
  535MOL0     H72158   6.060   8.190   1.589 -0.3506 -0.7556 -0.5357
  535MOL0     H72159   6.262   8.321   1.546  1.0846  0.0851  0.3953
  535MOL0     H72160   6.609   8.320   1.852 -0.4040 -0.2352 -1.1081
  535MOL0     H72161   6.645   8.190   1.750  2.3357 -0.5676 -1.5029
  535MOL0     H72162   6.746   8.335   1.585 -1.2607  2.2504 -1.0790
  535MOL0     H72163   6.817   8.361   1.740  0.8904  0.4362  0.3077
  535MOL0     H72164   6.654   8.563   1.786  0.9372  0.8643 -0.0378
  535MOL0     H72165   6.598   8.537   1.619 -0.5418  0.4029  1.2537
  535MOL0     H72166   6.856   8.625   1.737 -2.4361 -3.4104  1.7352
  535MOL0     H72167   6.851   8.603   1.562  1.1516  1.8172 -0.6704
  535MOL0     H72168   6.660   8.770   1.536 -0.3362 -3.4895 -0.6158
  535MOL0     H72169   6.662   8.804   1.707 -0.5387 -1.4717 -0.2765
  535MOL0     H72170   6.879   8.887   1.693 -2.5078 -1.2180  0.9727
  535MOL0     H72171   6.906   8.809   1.530  0.5919 -1.7550  0.7122
  535MOL0     H72172   6.731   9.054   1.604  1.1491  1.3198  0.2365
  535MOL0     H72173   6.725   8.974   1.451  0.5554 -1.3878 -0.1123
  535MOL0     H72174   6.958   9.013   1.395  0.3908 -2.0642  1.3340
  535MOL0     H72175   6.878   9.165   1.435  3.1886  1.6112  0.0477
  535MOL0     H72176   6.978   9.310   1.657  0.2697  0.7203 -0.8810
  535MOL0     H72177   7.305   9.361   1.657 -1.9938 -2.1866 -2.7687
  535MOL0     H72178   7.173   9.420   1.759 -0.7545  0.6986 -1.4230
  535MOL0     H72179   7.230   9.252   1.932 -1.3476  1.3100 -2.4705
  535MOL0     H72180   7.372   9.190   1.847 -0.6667 -0.5933 -0.6925
  535MOL0     H72181   7.336   9.463   1.970  0.8457  0.0782  1.3058
  535MOL0     H72182   7.467   9.428   1.859 -1.3611 -0.7303 -1.4393
  535MOL0     H72183   7.522   9.220   2.031  3.6943  0.6656  1.2210
  535MOL0     H72184   7.419   9.309   2.132 -0.0932 -3.0211 -0.3355
  535MOL0     H72185   7.757   9.214   2.022  2.9297 -0.6390  2.0539
  535MOL0     H72186   7.962   9.237   1.904  0.7952 -0.1851  0.2708
  535MOL0     H72187   8.397   9.238   1.813  1.0980  0.9673 -0.0467
  535MOL0     H72188   8.573   9.221   1.660  1.0767  0.4601 -0.5210
  535MOL0     H72189   8.535   9.313   1.217 -3.2280  0.2209  2.0324
  535MOL0     H72190   8.536   9.475   1.272  2.7217  1.1156 -0.2245
  535MOL0     H72191   8.779   9.295   1.200  1.1127  0.4264 -1.3111
  535MOL0     H72192   8.723   9.422   1.103 -0.8883 -1.2670  0.2276
  535MOL0     H72193   8.792   9.592   1.257 -2.2221 -1.2987  0.5722
  535MOL0     H72194   8.849   9.482   1.380  2.3905  0.1925 -0.6544
  535MOL0     H72195   9.020   9.581   1.241 -2.0772  0.9467 -0.0832
  535MOL0     H72196   8.948   9.503   1.102 -1.9236 -0.8854 -1.1140
  535MOL0     H72197   8.993   9.289   1.279  1.2739 -1.6622  1.5538
  535MOL0     H72198   9.123   9.393   1.318 -1.6844  0.7995  1.3638
  535MOL0     H72199   9.163   9.394   1.062  2.9474 -1.3152  0.2616
  535MOL0     H72200   9.196   9.234   1.147 -0.8567  0.4676  3.8343
  535MOL0     H72201   8.996   9.293   0.942  1.9829  2.5895  2.1406
  535MOL0     H72202   8.947   9.193   1.074 -0.6303 -0.3967 -0.3045
  535MOL0     H72203   9.083   9.095   0.855 -3.7969  2.7062  0.9121
  535MOL0     H72204   9.222   9.166   0.936  0.7034 -0.6054  2.6580
  535MOL0     H72205   8.342   9.441   1.365 -0.7330  0.3559  0.0283
  535MOL0     H72206   8.145   9.423   1.506 -0.3017 -0.2543  0.0236
  535MOL0     H72207   7.896   9.656   1.865  1.0750 -0.6353 -0.6814
  535MOL0     H72208   7.688   9.632   1.982 -0.2325 -0.7788 -1.2912
  535MOL0     H72209   6.472   8.111   1.846 -1.0429  3.2712  0.3172
  535MOL0     H72210   6.270   7.982   1.911  3.4735 -0.6132 -0.1312
  535MOL0     H72211   5.827   7.908   1.674 -0.3512  1.0093 -0.1595
  535MOL0     H72212   5.635   7.793   1.647  0.3922 -1.2430 -0.0844
  535MOL0     H72213   5.382   7.697   2.013 -0.5056 -2.2706  1.4631
  535MOL0     H72214   5.488   7.560   1.979 -2.0058 -0.1105  1.8487
  535MOL0     H72215   5.227   7.642   1.830  1.7334 -0.6868 -2.9817
  535MOL0     H72216   5.233   7.536   1.968 -0.2469 -0.2952 -0.0278
  535MOL0     H72217   5.349   7.367   1.838  1.3529 -0.0780 -1.0455
  535MOL0     H72218   5.381   7.476   1.706  2.3726  2.7886  2.2640
  535MOL0     H72219   5.181   7.307   1.700  2.0965 -0.0361 -0.3233
  535MOL0     H72220   5.081   7.435   1.783  0.6995 -1.4188  3.3512
  535MOL0     H72221   5.080   7.571   1.395  1.1234  1.1289 -0.4790
  535MOL0     H72222   5.630   7.732   2.078  2.0301  2.7578  1.9615
  535MOL0     H72223   5.880   7.904   2.185  0.0819  1.0756 -0.8149
  535MOL0     H72224   5.804   7.746   2.203 -0.4977  1.0661  0.6324
  535MOL0     H72225   5.958   7.758   2.106 -0.6675 -0.2516  1.1378
  536MOL0     O72226   6.674   6.683   9.306  0.3825 -0.0211 -0.4157
  536MOL0     C72227   6.741   6.789   9.297  0.9697  0.4584  0.8138
  536MOL0     O72228   6.730   6.877   9.192 -0.2212 -0.5407  0.2696
  536MOL0     C72229   6.649   6.858   9.087  0.4154  0.8173  0.0642
  536MOL0     C72230   6.636   6.973   9.014  0.2757  0.2667  0.7903
  536MOL0     C72231   6.572   6.969   8.892  0.6689 -0.3367 -0.2867
  536MOL0     C72232   6.500   6.857   8.846 -0.0895 -0.2196 -0.1363
  536MOL0     O72233   6.439   6.878   8.726  0.4620  0.2769 -0.2239
  536MOL0     C72234   6.357   6.784   8.656  0.0150  1.4893  1.0161
  536MOL0     C72235   6.216   6.776   8.705 -0.1955 -0.1708 -0.3283
  536MOL0     C72236   6.155   6.909   8.674  0.4192 -0.2536 -0.9339
  536MOL0     C72237   6.005   6.898   8.650 -0.0235 -0.6278  0.2151
  536MOL0     C72238   5.917   6.845   8.769 -0.5300  0.1116 -0.6029
  536MOL0     C72239   5.768   6.830   8.742 -0.3890  0.2885 -0.8613
  536MOL0     C72240   5.688   6.958   8.753 -0.2601 -0.4149 -0.6683
  536MOL0     C72241   5.555   6.955   8.676  0.5567 -0.5653 -0.4883
  536MOL0     N72242   5.460   6.855   8.736  0.0249  0.4285 -0.8068
  536MOL0     C72243   5.407   6.754   8.666  0.2068  0.2445  0.2515
  536MOL0     C72244   5.321   6.697   8.752 -0.0412 -0.9124  1.0664
  536MOL0     C72245   5.253   6.561   8.723 -0.0443 -0.0753  0.1174
  536MOL0     C72246   5.103   6.583   8.759  0.3298 -0.5470 -0.8795
  536MOL0     C72247   5.033   6.691   8.671  0.5351  0.0811 -0.3882
  536MOL0     C72248   5.018   6.662   8.527 -0.0356  0.3820 -0.0142
  536MOL0     O72249   4.982   6.523   8.517 -0.0071 -0.7070  0.1167
  536MOL0     C72250   5.030   6.451   8.408  0.0975  0.4909 -0.0327
  536MOL0     C72251   5.008   6.487   8.274 -0.3320 -0.7458 -1.2271
  536MOL0     C72252   5.047   6.414   8.168 -0.2443 -0.0078  0.6558
  536MOL0     C72253   5.116   6.287   8.192 -0.6211 -0.9022 -0.7066
  536MOL0     C72254   5.165   6.216   8.079 -0.7751  0.4516  0.4739
  536MOL0     O72255   5.150   6.279   7.946  0.1644  0.2756 -0.9853
  536MOL0     C72256   5.199   6.216   7.838  0.8485  0.1854  0.2950
  536MOL0     C72257   5.327   6.240   7.792  0.2973 -1.0085  0.0330
  536MOL0     C72258   5.391   6.163   7.693  0.0342  0.2535  0.3082
  536MOL0     C72259   5.324   6.052   7.637  0.5831 -0.6596 -0.0788
  536MOL0     O72260   5.379   5.979   7.536 -0.1147 -0.2585 -1.0713
  536MOL0     C72261   5.337   5.838   7.524  1.1691 -1.3567  0.0491
  536MOL0     C72262   5.346   5.753   7.642 -0.4430  0.6480  0.1683
  536MOL0     C72263   5.306   5.606   7.613 -0.7173  0.3221 -0.3473
  536MOL0     C72264   5.150   5.602   7.598 -0.7373  0.4977 -0.2736
  536MOL0     C72265   5.122   5.456   7.545  0.0570 -1.2639  0.1024
  536MOL0     C72266   4.968   5.425   7.536 -0.1963  0.1313  0.1531
  536MOL0     C72267   4.876   5.507   7.439 -0.0537 -0.0698 -0.3680
  536MOL0     C72268   4.917   5.506   7.296  0.0474 -0.9625 -0.1190
  536MOL0    Cl72269   4.791   5.598   7.209 -0.1179  0.1678  0.2560
  536MOL0     C72270   5.188   6.038   7.664 -0.4531 -0.1889 -0.3933
  536MOL0     C72271   5.130   6.111   7.770  0.6738  0.9873 -1.3247
  536MOL0     O72272   5.210   6.099   8.099  0.0999 -0.0953  0.6764
  536MOL0     C72273   5.130   6.241   8.326 -0.4465  0.3166  0.3018
  536MOL0     C72274   5.087   6.326   8.427 -0.6011  0.0408 -0.9237
  536MOL0     N72275   5.333   6.775   8.872  0.4730  0.4121 -0.5099
  536MOL0     N72276   5.418   6.866   8.859  0.0357 -0.1700  0.1493
  536MOL0     C72277   6.519   6.736   8.921  0.2708 -0.5722  0.3869
  536MOL0     C72278   6.589   6.741   9.046  0.6385  0.7609 -0.3917
  536MOL0     C72279   6.850   6.822   9.395 -0.6230  0.1122  1.0743
  536MOL0     C72280   6.919   6.942   9.371  0.7252  1.3158  1.0994
  536MOL0     C72281   7.007   6.992   9.465  0.0992 -0.2504 -0.3239
  536MOL0     C72282   7.040   6.916   9.582 -0.0226 -0.3414  0.9473
  536MOL0     O72283   7.137   6.969   9.669 -0.3858 -0.6598 -0.0115
  536MOL0     C72284   7.083   7.036   9.784 -0.1990  0.5906 -0.4266
  536MOL0     C72285   7.106   6.955   9.915  0.6660 -0.5315  0.6443
  536MOL0     C72286   7.254   6.914   9.930 -0.0438  0.5570 -0.2278
  536MOL0     C72287   7.339   7.004  10.015  0.4679 -0.9114 -0.4815
  536MOL0     C72288   7.353   7.143   9.954  0.0037 -1.3072  0.6443
  536MOL0     C72289   7.381   7.261   9.921  0.1080 -0.7169  0.3426
  536MOL0     C72290   6.981   6.792   9.597  0.1631 -0.8503  0.1440
  536MOL0     C72291   6.879   6.749   9.514  0.2189 -0.2836  0.1252
  536MOL0     C72292   6.817   6.613   9.551  0.0097  0.1785  0.5868
  536MOL0     H72293   6.690   7.062   9.046  1.8030 -0.4559  0.3014
  536MOL0     H72294   6.571   7.053   8.824  0.7791 -0.2127 -0.1362
  536MOL0     H72295   6.358   6.817   8.551 -0.5134  1.0739  0.8764
  536MOL0     H72296   6.411   6.689   8.654  2.9079  3.0348  0.9819
  536MOL0     H72297   6.221   6.759   8.813  2.8131  1.8476 -0.0374
  536MOL0     H72298   6.173   6.694   8.646  0.2085  0.4675 -1.5386
  536MOL0     H72299   6.187   6.960   8.582 -0.3413  0.9787 -0.5478
  536MOL0     H72300   6.181   6.972   8.760 -2.0901 -0.6202  0.1669
  536MOL0     H72301   5.977   6.999   8.620 -1.1700 -1.7156 -2.6397
  536MOL0     H72302   5.989   6.836   8.562 -0.6259 -1.3249  0.7949
  536MOL0     H72303   5.951   6.743   8.788  1.8572  1.2803  2.2621
  536MOL0     H72304   5.928   6.907   8.858  0.4521 -1.3530  0.3286
  536MOL0     H72305   5.774   6.802   8.637  3.3144  2.1652 -1.3138
  536MOL0     H72306   5.729   6.754   8.811 -0.0405  0.4609 -0.4727
  536MOL0     H72307   5.743   7.040   8.705 -0.1306 -1.1110 -1.7470
  536MOL0     H72308   5.668   6.988   8.856 -2.2897 -1.2242 -0.7989
  536MOL0     H72309   5.506   7.053   8.688 -0.0752 -1.2283  4.5109
  536MOL0     H72310   5.563   6.937   8.568 -1.9855  2.4302 -1.3624
  536MOL0     H72311   5.422   6.732   8.561 -1.1772  0.1857  0.0362
  536MOL0     H72312   5.258   6.533   8.617  0.8707  4.3839 -1.2143
  536MOL0     H72313   5.300   6.474   8.770  0.3211 -0.1889 -0.4414
  536MOL0     H72314   5.048   6.489   8.748 -1.4454  0.4135 -0.5248
  536MOL0     H72315   5.098   6.616   8.863  2.1818 -1.0590 -0.5875
  536MOL0     H72316   5.065   6.793   8.692 -0.2427 -0.0995  2.0469
  536MOL0     H72317   4.932   6.680   8.710  1.1890 -3.8168  0.6512
  536MOL0     H72318   5.102   6.712   8.478 -1.1037  2.6674  0.3490
  536MOL0     H72319   4.931   6.712   8.483  2.1916  2.2483 -2.6754
  536MOL0     H72320   4.961   6.583   8.256 -2.5337 -1.1500  1.5967
  536MOL0     H72321   5.036   6.449   8.066  0.2760  3.1824  1.5847
  536MOL0     H72322   5.378   6.327   7.834 -1.5695 -0.4173  1.2035
  536MOL0     H72323   5.491   6.186   7.655 -0.2652 -0.5131 -1.0254
  536MOL0     H72324   5.235   5.841   7.485  0.8302 -2.1875  0.8344
  536MOL0     H72325   5.400   5.791   7.448  0.2450  0.1209 -1.6907
  536MOL0     H72326   5.448   5.754   7.683 -0.9258 -1.7238  1.6190
  536MOL0     H72327   5.289   5.795   7.726 -0.7082  0.8125 -0.0927
  536MOL0     H72328   5.350   5.571   7.519 -1.0371 -0.2126 -0.3069
  536MOL0     H72329   5.335   5.541   7.696 -2.9710 -0.2105  0.1036
  536MOL0     H72330   5.109   5.679   7.532  2.3873  1.2837 -1.5165
  536MOL0     H72331   5.097   5.625   7.691 -0.0878  4.0104 -0.6329
  536MOL0     H72332   5.179   5.391   7.611 -1.2246 -1.7859  0.7369
  536MOL0     H72333   5.163   5.448   7.444 -2.2637 -0.5864 -0.9797
  536MOL0     H72334   4.957   5.318   7.515 -1.2462  0.1667  0.4903
  536MOL0     H72335   4.918   5.445   7.631 -3.0969  1.8288 -1.6001
  536MOL0     H72336   4.876   5.609   7.480 -0.8539  0.8701 -2.5434
  536MOL0     H72337   4.772   5.482   7.459  0.4931 -0.5226  2.3708
  536MOL0     H72338   5.017   5.550   7.287 -0.7056  0.9456  0.2935
  536MOL0     H72339   4.910   5.403   7.261  0.3819 -0.6622 -1.1046
  536MOL0     H72340   5.121   5.973   7.609 -1.3703  1.6712 -1.5665
  536MOL0     H72341   5.037   6.069   7.807  2.7754 -1.9449  1.0443
  536MOL0     H72342   5.170   6.145   8.356 -4.3161 -1.4405  0.4242
  536MOL0     H72343   5.105   6.312   8.533 -1.6598  0.5048 -0.6738
  536MOL0     H72344   6.493   6.636   8.890 -0.3462 -0.3800  0.2685
  536MOL0     H72345   6.618   6.651   9.098  1.1292 -0.1760 -2.2078
  536MOL0     H72346   6.898   7.008   9.288  4.3252  0.6836 -0.4861
  536MOL0     H72347   7.053   7.090   9.466 -2.3658  0.9687 -0.8251
  536MOL0     H72348   6.976   7.053   9.773 -0.1997  1.2666  0.4887
  536MOL0     H72349   7.123   7.138   9.786 -0.6545  0.7633  0.1574
  536MOL0     H72350   7.052   6.862   9.901  1.5987 -1.1299  0.9035
  536MOL0     H72351   7.073   7.015  10.001  2.0935  2.1343 -0.5336
  536MOL0     H72352   7.304   6.912   9.833 -0.9407 -1.4516 -0.6904
  536MOL0     H72353   7.261   6.812   9.969  0.1193  1.1934  1.5206
  536MOL0     H72354   7.305   7.005  10.119 -1.8789 -2.1568 -1.1538
  536MOL0     H72355   7.435   6.955  10.028  0.8939  0.3153  1.3592
  536MOL0     H72356   7.406   7.356   9.878 -1.2201  1.0666  3.2245
  536MOL0     H72357   7.015   6.735   9.683 -0.3136  1.6736  2.1280
  536MOL0     H72358   6.709   6.600   9.558  0.1545 -0.3078  2.9800
  536MOL0     H72359   6.847   6.534   9.481 -0.6363 -0.8228  1.3928
  536MOL0     H72360   6.849   6.581   9.651  1.7097  0.7664  0.2690
  537MOL0     O72361   4.904   0.129   4.719  0.1606  0.3628 -0.0313
  537MOL0     C72362   4.855   0.228   4.775  1.5000  0.6912 -0.3331
  537MOL0     O72363   4.841   0.357   4.722 -0.4347  0.3781  0.5445
  537MOL0     C72364   4.913   0.381   4.606 -0.2560 -0.0660  0.2908
  537MOL0     C72365   4.838   0.406   4.492  0.0527 -0.1847 -0.2814
  537MOL0     C72366   4.902   0.453   4.379 -0.1226  0.5905 -0.2733
  537MOL0     C72367   5.042   0.473   4.368  0.2243 -0.0962  0.5642
  537MOL0     O72368   5.098   0.504   4.251  0.3546  0.0399 -0.5853
  537MOL0     C72369   5.100   0.646   4.225  0.8354  0.6118  0.4105
  537MOL0     C72370   5.146   0.664   4.085 -0.3458  0.8925 -0.7504
  537MOL0     C72371   5.041   0.587   3.993  0.8361  0.2809  0.2053
  537MOL0     C72372   4.999   0.656   3.867 -0.3190 -0.2007 -0.0071
  537MOL0     C72373   4.925   0.562   3.773  0.2373 -0.4397  0.3987
  537MOL0     C72374   4.888   0.631   3.631 -0.2505 -0.3850  0.0033
  537MOL0     C72375   4.782   0.743   3.651  0.0055 -0.5028 -0.3937
  537MOL0     C72376   4.670   0.713   3.755 -0.9032 -0.1768 -0.4758
  537MOL0     N72377   4.562   0.806   3.726 -0.0769  0.0893 -0.3440
  537MOL0     C72378   4.450   0.781   3.656 -0.3540 -0.4420  0.3238
  537MOL0     C72379   4.399   0.906   3.632  0.0445  0.0312  0.1847
  537MOL0     C72380   4.264   0.939   3.581 -0.6272 -0.0911 -0.4181
  537MOL0     C72381   4.265   0.911   3.428 -0.3017 -0.5999  0.1388
  537MOL0     C72382   4.193   0.781   3.392 -0.0819  0.0778  0.3269
  537MOL0     C72383   4.041   0.781   3.427  0.1157  0.4088  0.3381
  537MOL0     O72384   3.988   0.646   3.384  0.2435 -0.0204 -0.2804
  537MOL0     C72385   3.981   0.547   3.471 -0.2663  0.2605 -0.1288
  537MOL0     C72386   4.003   0.558   3.610 -0.3568 -0.2364  0.6120
  537MOL0     C72387   4.023   0.445   3.686  1.0085 -0.4426 -0.0425
  537MOL0     C72388   3.986   0.318   3.638 -0.6272  0.0941 -0.1670
  537MOL0     C72389   3.993   0.199   3.737 -0.5302  0.1244 -0.8008
  537MOL0     O72390   4.052   0.231   3.861 -0.0101  0.6204 -0.3697
  537MOL0     C72391   4.073   0.130   3.957 -0.0381 -0.3674  0.6348
  537MOL0     C72392   4.195   0.140   4.028  0.5032  0.3277  0.2541
  537MOL0     C72393   4.233   0.047   4.121 -0.5583 -0.8628  0.2966
  537MOL0     C72394   4.150  -0.061   4.156 -0.0389 -0.6582  0.1273
  537MOL0     O72395   4.179  -0.162   4.239 -0.2125 -0.4150 -0.0163
  537MOL0     C72396   4.269  -0.148   4.351  0.2502  0.1820 -0.4536
  537MOL0     C72397   4.209  -0.075   4.466 -0.2187 -0.9407 -1.2000
  537MOL0     C72398   4.076  -0.140   4.510  0.1807  0.1224 -1.1440
  537MOL0     C72399   4.059  -0.196   4.659  0.0145  0.7473  0.0298
  537MOL0     C72400   3.906  -0.227   4.674  0.8957  0.2231 -0.4206
  537MOL0     C72401   3.868  -0.264   4.825  0.8837  0.2564  0.6092
  537MOL0     C72402   3.967  -0.355   4.889  0.5157 -0.6208 -1.0146
  537MOL0     C72403   3.904  -0.412   5.013  0.4410  0.1874 -0.0352
  537MOL0    Cl72404   3.830  -0.304   5.133  0.1882 -0.1837 -0.2640
  537MOL0     C72405   4.030  -0.069   4.085  0.2027  0.4165  0.1269
  537MOL0     C72406   3.986   0.026   3.989 -0.2312 -0.7381 -0.2950
  537MOL0     O72407   3.958   0.090   3.696  0.2461  0.1488  0.2646
  537MOL0     C72408   3.955   0.308   3.499  0.2260  0.2256  0.2827
  537MOL0     C72409   3.946   0.423   3.419 -0.8532  0.7961  0.1276
  537MOL0     N72410   4.488   1.003   3.679  0.1949  1.0205  0.0807
  537MOL0     N72411   4.591   0.940   3.720 -0.4342 -0.6289  0.7583
  537MOL0     C72412   5.117   0.444   4.482 -0.9812  0.6174 -0.1136
  537MOL0     C72413   5.053   0.395   4.598 -0.0086 -0.5538  0.4202
  537MOL0     C72414   4.805   0.215   4.920  0.0924  0.5574 -0.1898
  537MOL0     C72415   4.707   0.302   4.965 -0.3036  0.1355 -0.3139
  537MOL0     C72416   4.661   0.299   5.100 -0.1125 -0.0608 -0.5153
  537MOL0     C72417   4.707   0.192   5.183  0.5151  0.2169  0.9968
  537MOL0     O72418   4.661   0.174   5.307  0.1428  0.4494 -0.1516
  537MOL0     C72419   4.547   0.248   5.345  0.8887 -0.5049 -0.3873
  537MOL0     C72420   4.485   0.186   5.474  0.5567 -0.2880  0.1568
  537MOL0     C72421   4.337   0.223   5.482 -0.9125 -0.1939 -0.4771
  537MOL0     C72422   4.271   0.140   5.595  0.2493 -0.3550  0.1702
  537MOL0     C72423   4.174   0.228   5.665 -0.3207  0.3267 -0.2526
  537MOL0     C72424   4.087   0.307   5.708 -0.6719 -0.4674  0.5636
  537MOL0     C72425   4.794   0.096   5.133 -0.2020  0.1334  0.0594
  537MOL0     C72426   4.838   0.103   5.003 -0.3476  0.5431  0.6053
  537MOL0     C72427   4.945   0.006   4.970 -0.8917  0.2195  0.9442
  537MOL0     H72428   4.730   0.397   4.494  0.0241 -0.7284 -2.2849
  537MOL0     H72429   4.838   0.474   4.294  0.8545  1.0274 -0.9300
  537MOL0     H72430   5.007   0.701   4.241  2.1058  2.5686  1.4928
  537MOL0     H72431   5.171   0.689   4.297  1.6862  1.6170 -0.9794
  537MOL0     H72432   5.244   0.620   4.071 -1.5846 -2.4128 -0.0218
  537MOL0     H72433   5.156   0.767   4.051 -0.7490  0.8433 -1.0295
  537MOL0     H72434   4.943   0.577   4.040  0.8497  0.6067  0.3001
  537MOL0     H72435   5.081   0.487   3.972 -0.4929 -1.3443  4.5004
  537MOL0     H72436   4.945   0.748   3.892  0.7452 -0.3490  3.2841
  537MOL0     H72437   5.096   0.682   3.826  0.4138 -2.2757  0.3064
  537MOL0     H72438   4.992   0.477   3.756 -0.0367 -0.4512 -0.6979
  537MOL0     H72439   4.841   0.524   3.831  1.4879  2.2452  4.3438
  537MOL0     H72440   4.974   0.672   3.577 -0.2419  0.3500  0.5679
  537MOL0     H72441   4.851   0.544   3.576  1.9446 -2.2637  1.2576
  537MOL0     H72442   4.744   0.764   3.550  2.1256 -0.0190 -1.1484
  537MOL0     H72443   4.838   0.834   3.674 -2.9316  1.6675 -1.2071
  537MOL0     H72444   4.627   0.613   3.748  0.2216 -0.5773 -2.4092
  537MOL0     H72445   4.707   0.716   3.858 -2.2337 -0.5575  0.0277
  537MOL0     H72446   4.409   0.688   3.620 -0.9067 -0.2385  0.4172
  537MOL0     H72447   4.195   0.872   3.634  0.8868 -2.3221 -1.1309
  537MOL0     H72448   4.255   1.045   3.606  3.5999  0.6926 -1.4198
  537MOL0     H72449   4.221   0.998   3.378 -0.3870  0.0753  1.3593
  537MOL0     H72450   4.368   0.904   3.392 -1.8934 -1.1399 -5.2074
  537MOL0     H72451   4.235   0.699   3.451 -1.5978  0.6733  2.3545
  537MOL0     H72452   4.193   0.749   3.287  1.3529 -2.1274  0.9385
  537MOL0     H72453   3.988   0.864   3.380 -2.6413  0.4356  3.1431
  537MOL0     H72454   4.022   0.799   3.533 -1.3085  1.0764 -0.0154
  537MOL0     H72455   4.031   0.647   3.666 -0.8190 -0.5909  1.4291
  537MOL0     H72456   4.055   0.454   3.790 -0.2095  1.1857  0.2378
  537MOL0     H72457   4.268   0.217   4.008 -2.2422  3.0992  0.0531
  537MOL0     H72458   4.334   0.053   4.160 -1.1699 -2.9547  2.4292
  537MOL0     H72459   4.297  -0.246   4.392  2.9419  1.0101 -0.1681
  537MOL0     H72460   4.360  -0.098   4.316 -0.5889  1.5571 -0.7395
  537MOL0     H72461   4.288  -0.083   4.541 -0.9030 -1.2301 -0.5099
  537MOL0     H72462   4.199   0.032   4.446 -1.2741 -0.7392  0.3278
  537MOL0     H72463   4.004  -0.062   4.485  0.1662  0.4626 -0.1005
  537MOL0     H72464   4.050  -0.230   4.452 -0.6999 -3.3115  3.9140
  537MOL0     H72465   4.091  -0.131   4.741 -0.4842  0.8636  0.1351
  537MOL0     H72466   4.113  -0.291   4.667  0.6210  1.0298 -0.5869
  537MOL0     H72467   3.877  -0.310   4.608 -0.5844 -0.8437  1.4605
  537MOL0     H72468   3.838  -0.142   4.661 -0.5566 -0.4367  2.1664
  537MOL0     H72469   3.867  -0.174   4.887  1.3746  0.3043  0.5448
  537MOL0     H72470   3.770  -0.314   4.831 -0.2205  2.2788  0.3233
  537MOL0     H72471   4.050  -0.292   4.922  0.9973 -0.6948 -2.0353
  537MOL0     H72472   4.012  -0.421   4.814 -0.3669 -0.0025 -2.1168
  537MOL0     H72473   3.824  -0.482   4.986  0.0494  1.2279 -1.6829
  537MOL0     H72474   3.983  -0.466   5.066  0.6038  1.5166  1.1515
  537MOL0     H72475   3.975  -0.160   4.104  1.1586  0.0493  1.2757
  537MOL0     H72476   3.889   0.020   3.941 -0.4629  1.6008 -0.2679
  537MOL0     H72477   3.933   0.212   3.452 -2.5107  0.8880  0.0751
  537MOL0     H72478   3.925   0.415   3.313 -0.8049  1.4188  0.0648
  537MOL0     H72479   5.225   0.446   4.484 -0.9772  2.3254  1.6227
  537MOL0     H72480   5.112   0.376   4.686  0.4249  0.7160  0.4290
  537MOL0     H72481   4.663   0.376   4.900  0.7038  1.3979  0.4095
  537MOL0     H72482   4.586   0.369   5.134 -0.4619 -0.4815 -0.4033
  537MOL0     H72483   4.472   0.257   5.266 -2.4425  2.7197  2.7879
  537MOL0     H72484   4.565   0.354   5.366 -2.6548  0.5914 -2.2366
  537MOL0     H72485   4.539   0.232   5.557 -0.5167  1.6879 -0.1928
  537MOL0     H72486   4.487   0.077   5.463 -1.7172 -0.7286  2.8451
  537MOL0     H72487   4.302   0.182   5.387  0.0828 -3.7921  0.5437
  537MOL0     H72488   4.319   0.330   5.497 -3.2790 -0.7440  1.0975
  537MOL0     H72489   4.222   0.050   5.555 -2.1455  2.1023 -2.9861
  537MOL0     H72490   4.350   0.114   5.666 -2.3624 -0.0462  3.4137
  537MOL0     H72491   4.021   0.389   5.726 -0.9588 -0.7515  0.8242
  537MOL0     H72492   4.839   0.027   5.204  0.3563  2.1941  1.8427
  537MOL0     H72493   4.896  -0.084   4.933  3.6687 -1.7711 -1.0075
  537MOL0     H72494   5.022   0.027   4.895  0.2373 -0.0467  2.0092
  537MOL0     H72495   4.993  -0.018   5.065 -2.3164 -0.4566  1.5254
  538MOL0     O72496   8.469   0.062   5.492 -0.4938 -0.1976 -0.6287
  538MOL0     C72497   8.397  -0.036   5.494  0.2453 -0.1070  0.3467
  538MOL0     O72498   8.447  -0.154   5.519 -1.0860  0.4890  0.3743
  538MOL0     C72499   8.573  -0.181   5.563 -0.1038 -0.5294 -0.5300
  538MOL0     C72500   8.642  -0.102   5.655  0.0779 -0.0781  0.4984
  538MOL0     C72501   8.763  -0.148   5.709  0.3869 -0.2858  0.3052
  538MOL0     C72502   8.829  -0.262   5.654  0.0389 -0.3981 -0.1575
  538MOL0     O72503   8.949  -0.301   5.696 -0.4231  0.2784  0.4339
  538MOL0     C72504   9.034  -0.384   5.607 -0.0412 -0.0315  0.2646
  538MOL0     C72505   9.174  -0.414   5.677  0.3260 -0.4331  0.7176
  538MOL0     C72506   9.247  -0.285   5.673 -0.4804  0.8264 -0.2310
  538MOL0     C72507   9.366  -0.293   5.772 -0.2384 -0.3265  0.5822
  538MOL0     C72508   9.443  -0.159   5.785 -0.0301 -0.0269 -0.3453
  538MOL0     C72509   9.545  -0.144   5.669 -0.4999 -0.8673  0.3637
  538MOL0     C72510   9.635  -0.021   5.665 -0.6517 -0.1423 -0.9046
  538MOL0     C72511   9.740  -0.012   5.782  0.3546  0.1100 -0.0600
  538MOL0     N72512   9.875   0.046   5.736 -0.1583  0.1349  0.5902
  538MOL0     C72513   9.954   0.140   5.799 -0.4462  0.2833  0.2816
  538MOL0     C72514  10.071   0.152   5.730  0.3168  0.7225  0.8525
  538MOL0     C72515  10.193   0.215   5.787 -0.9209 -0.8917 -0.3323
  538MOL0     C72516  10.320   0.124   5.774 -0.5187  0.1752 -0.8877
  538MOL0     C72517  10.454   0.191   5.803  0.9622 -1.1226 -0.0006
  538MOL0     C72518  10.504   0.196   5.954 -0.4497 -0.4827  0.7236
  538MOL0     O72519  10.620   0.283   5.949  0.4331 -0.0537 -0.7111
  538MOL0     C72520  10.665   0.325   6.062 -1.1324 -0.2440 -0.3351
  538MOL0     C72521  10.764   0.428   6.049 -0.0366  0.0802 -0.1526
  538MOL0     C72522  10.824   0.480   6.161 -0.1678 -0.5916 -0.0661
  538MOL0     C72523  10.795   0.436   6.294 -0.1294  0.0474 -0.9780
  538MOL0     C72524  10.866   0.489   6.417  0.9573  0.0526  0.7856
  538MOL0     O72525  10.835   0.437   6.542  0.6411  0.3027 -0.0762
  538MOL0     C72526  10.883   0.489   6.663  0.3273  0.8054 -0.5835
  538MOL0     C72527  10.910   0.397   6.768 -0.6954 -0.8190 -0.3997
  538MOL0     C72528  10.973   0.429   6.889 -0.2830 -0.3449  0.9536
  538MOL0     C72529  11.021   0.557   6.906  0.1967  0.7100  0.1709
  538MOL0     O72530  11.092   0.585   7.023 -0.1012 -0.4907  0.4553
  538MOL0     C72531  11.214   0.517   7.049 -0.3758 -0.0203 -0.1804
  538MOL0     C72532  11.248   0.525   7.200 -0.4050  0.1598  0.6524
  538MOL0     C72533  11.396   0.514   7.204 -0.1653  0.7270 -1.0141
  538MOL0     C72534  11.465   0.413   7.118 -0.2121  0.4319  0.0685
  538MOL0     C72535  11.620   0.425   7.140 -0.2681  0.2988  0.5818
  538MOL0     C72536  11.697   0.315   7.065 -0.2599 -0.1214 -0.6675
  538MOL0     C72537  11.688   0.328   6.912  0.4806  0.8508  0.4346
  538MOL0     C72538  11.791   0.241   6.841  0.1129 -0.2017 -0.0023
  538MOL0    Cl72539  11.796   0.278   6.664 -0.2148 -0.1348  0.2142
  538MOL0     C72540  10.986   0.655   6.807 -0.2915  1.4295  0.4714
  538MOL0     C72541  10.924   0.620   6.689  0.5248 -0.4321  0.9168
  538MOL0     O72542  10.954   0.567   6.392 -0.1980  0.1664  0.3066
  538MOL0     C72543  10.721   0.322   6.299 -0.1085 -0.1964 -0.8955
  538MOL0     C72544  10.646   0.271   6.187 -1.3801  1.0131 -0.2570
  538MOL0     N72545  10.051   0.081   5.620 -0.0204  0.0610  0.6317
  538MOL0     N72546   9.941   0.020   5.621  0.0139 -0.4268 -0.3959
  538MOL0     C72547   8.766  -0.329   5.550 -0.5159 -0.0495  0.2680
  538MOL0     C72548   8.646  -0.289   5.510  0.3173 -0.5319 -0.2630
  538MOL0     C72549   8.255  -0.025   5.439  0.7993  0.1282 -0.2017
  538MOL0     C72550   8.166  -0.137   5.443 -0.6969 -0.7462 -0.4067
  538MOL0     C72551   8.035  -0.138   5.399 -0.6788 -1.0451 -0.0693
  538MOL0     C72552   7.985  -0.026   5.345 -0.0330 -0.1728 -0.0660
  538MOL0     O72553   7.858  -0.040   5.300  0.2326 -1.0441  0.1007
  538MOL0     C72554   7.787   0.074   5.238  1.3035 -0.0899  0.1199
  538MOL0     C72555   7.646   0.023   5.194  1.0218 -0.1900 -0.1777
  538MOL0     C72556   7.566  -0.046   5.309  0.1116  0.2469  0.5473
  538MOL0     C72557   7.434  -0.113   5.280 -0.3842  0.0367 -1.0146
  538MOL0     C72558   7.436  -0.179   5.148 -0.1410 -0.2822  0.6484
  538MOL0     C72559   7.434  -0.246   5.047 -0.3645 -0.1593  0.4366
  538MOL0     C72560   8.067   0.087   5.320 -0.5745  0.9086  0.7169
  538MOL0     C72561   8.205   0.088   5.372 -0.2081  0.0959 -0.0726
  538MOL0     C72562   8.284   0.207   5.357  0.2195 -0.3159  0.6570
  538MOL0     H72563   8.592  -0.015   5.698 -1.8343 -0.5580 -0.6343
  538MOL0     H72564   8.815  -0.092   5.786 -1.8618  0.2761  1.5198
  538MOL0     H72565   8.986  -0.483   5.602  2.0017 -1.1255  0.9866
  538MOL0     H72566   9.059  -0.340   5.511  0.8673  0.1753  0.5806
  538MOL0     H72567   9.238  -0.490   5.630 -0.9583 -1.4671  0.5936
  538MOL0     H72568   9.172  -0.448   5.781 -3.4334  0.5177  1.0818
  538MOL0     H72569   9.175  -0.213   5.713 -0.5944 -0.1716  1.4658
  538MOL0     H72570   9.284  -0.256   5.574  0.0158 -0.7212 -0.5240
  538MOL0     H72571   9.327  -0.313   5.872  0.0865 -1.6598  0.4634
  538MOL0     H72572   9.425  -0.379   5.739 -0.8405 -0.3286 -0.5494
  538MOL0     H72573   9.382  -0.070   5.795 -1.0215 -0.9121  2.0608
  538MOL0     H72574   9.492  -0.176   5.881 -0.7669 -1.7979 -0.2379
  538MOL0     H72575   9.602  -0.236   5.653  0.1085 -0.0869 -2.4454
  538MOL0     H72576   9.490  -0.142   5.574  0.7211  1.8091 -0.3764
  538MOL0     H72577   9.566   0.064   5.676  0.1353  0.1524  3.2423
  538MOL0     H72578   9.689  -0.009   5.570  0.2135  2.2081 -0.1939
  538MOL0     H72579   9.700   0.051   5.862 -1.1990 -1.3887  0.3785
  538MOL0     H72580   9.761  -0.111   5.823  3.7058  1.2458  1.2862
  538MOL0     H72581   9.928   0.197   5.888  0.7958  1.0676  0.1694
  538MOL0     H72582  10.207   0.309   5.734 -1.8293 -0.8571 -0.5204
  538MOL0     H72583  10.180   0.234   5.894 -1.7689  1.1050 -0.7495
  538MOL0     H72584  10.301   0.034   5.833 -1.6936  0.1493 -1.2925
  538MOL0     H72585  10.341   0.083   5.675  2.6337  1.7830 -1.0241
  538MOL0     H72586  10.438   0.293   5.766 -0.0933 -0.6177  1.7385
  538MOL0     H72587  10.531   0.145   5.740  0.4333 -2.6665  0.4222
  538MOL0     H72588  10.542   0.101   5.992  1.4041 -0.3756 -0.7225
  538MOL0     H72589  10.427   0.244   6.016 -0.2295  3.4516 -1.7213
  538MOL0     H72590  10.788   0.465   5.950 -1.6713 -0.1926 -0.6829
  538MOL0     H72591  10.898   0.558   6.147  1.9170 -2.2845  1.0487
  538MOL0     H72592  10.854   0.304   6.770 -0.9401 -0.8511  4.8171
  538MOL0     H72593  10.992   0.361   6.971 -0.0583 -0.9390  0.4239
  538MOL0     H72594  11.218   0.411   7.022  2.4509 -0.4487  1.4839
  538MOL0     H72595  11.298   0.559   6.993  0.3586 -0.9094  0.2300
  538MOL0     H72596  11.210   0.614   7.250  1.8869  0.6320  1.6736
  538MOL0     H72597  11.207   0.439   7.254  0.7757 -3.1002 -3.1391
  538MOL0     H72598  11.427   0.612   7.168  1.1527  0.9134  0.5309
  538MOL0     H72599  11.428   0.504   7.308  0.4653  0.6075 -1.2118
  538MOL0     H72600  11.448   0.428   7.011 -0.2528  1.7813  0.2511
  538MOL0     H72601  11.422   0.315   7.139 -1.9081  1.8165  3.7836
  538MOL0     H72602  11.650   0.409   7.244  2.7392 -2.6616 -0.5461
  538MOL0     H72603  11.654   0.523   7.105  2.1696 -1.2308 -1.7353
  538MOL0     H72604  11.803   0.314   7.092  0.1974  0.7938 -2.2768
  538MOL0     H72605  11.655   0.221   7.102  0.5511 -0.3630 -0.3437
  538MOL0     H72606  11.704   0.432   6.883  2.0246  0.5220  0.0408
  538MOL0     H72607  11.589   0.297   6.874  0.6823  0.7542 -0.0220
  538MOL0     H72608  11.895   0.246   6.874  0.4836 -2.9300 -0.5543
  538MOL0     H72609  11.759   0.138   6.861 -0.5135 -0.5174 -2.3085
  538MOL0     H72610  10.997   0.763   6.817 -5.0395  2.3396 -1.4093
  538MOL0     H72611  10.915   0.696   6.613  3.7685  1.2161  2.0059
  538MOL0     H72612  10.701   0.267   6.391  1.1926 -0.6679 -0.8719
  538MOL0     H72613  10.593   0.178   6.210  0.6887  0.1543  1.3932
  538MOL0     H72614   8.800  -0.427   5.520  1.0332 -0.2008  2.2780
  538MOL0     H72615   8.587  -0.343   5.437  0.2281  1.0047 -1.3924
  538MOL0     H72616   8.204  -0.234   5.475  3.2710 -0.6383 -3.8493
  538MOL0     H72617   7.969  -0.222   5.414 -2.0603 -0.2527 -1.4410
  538MOL0     H72618   7.841   0.094   5.145  1.6186 -2.0033 -0.1508
  538MOL0     H72619   7.787   0.167   5.296 -0.5686 -0.2176  0.4062
  538MOL0     H72620   7.669  -0.044   5.111 -0.4463 -0.6495 -0.2493
  538MOL0     H72621   7.566   0.090   5.160 -0.2987 -1.9323 -0.6691
  538MOL0     H72622   7.553   0.024   5.392  3.7555 -0.1309  1.6077
  538MOL0     H72623   7.631  -0.121   5.354  0.9827  1.0509  0.6556
  538MOL0     H72624   7.403  -0.193   5.348  0.2095  0.2168 -0.5247
  538MOL0     H72625   7.356  -0.035   5.281  0.2928  0.7275  0.3750
  538MOL0     H72626   7.428  -0.305   4.958 -1.9686  1.3340 -0.4984
  538MOL0     H72627   8.033   0.180   5.275  0.8195  0.7685 -0.6988
  538MOL0     H72628   8.376   0.198   5.299 -0.5799 -1.4996 -0.4912
  538MOL0     H72629   8.225   0.277   5.298 -0.2599  0.5708  2.1259
  538MOL0     H72630   8.301   0.257   5.453 -0.5673  3.2616 -0.9286
  539MOL0     O72631   1.769  11.201   0.577 -0.0683 -1.0359  0.7575
  539MOL0     C72632   1.660  11.157   0.548  0.0611  0.4501 -0.1463
  539MOL0     O72633   1.573  11.197   0.450 -0.0798  0.2649  0.0783
  539MOL0     C72634   1.622  11.273   0.351  0.3814  0.6469 -0.5956
  539MOL0     C72635   1.734  11.226   0.272 -0.7993  0.1486 -1.0439
  539MOL0     C72636   1.791  11.311   0.180 -0.2153 -0.6397  0.6807
  539MOL0     C72637   1.738  11.435   0.166  0.4186 -0.2787  0.9657
  539MOL0     O72638   1.797  11.515   0.066  1.0396  0.0046  0.1739
  539MOL0     C72639   1.913  11.590   0.114 -0.1966 -1.5218 -0.5107
  539MOL0     C72640   1.896  11.742   0.104  0.3446 -0.2836  0.8464
  539MOL0     C72641   1.827  11.784  -0.028  0.1952  1.4266  0.4382
  539MOL0     C72642   1.679  11.824   0.006 -1.6197 -1.2287 -0.1363
  539MOL0     C72643   1.679  11.974   0.044  0.4337  0.7207 -0.1399
  539MOL0     C72644   1.544  12.027  -0.004 -0.2345 -0.7461  0.3065
  539MOL0     C72645   1.549  12.175   0.026  0.4440  0.1722 -0.8565
  539MOL0     C72646   1.433  12.252  -0.042  0.1992  0.4645  0.0236
  539MOL0     N72647   1.462  12.391  -0.009  0.3843  0.0795 -0.2924
  539MOL0     C72648   1.460  12.444   0.124 -0.1258  0.0829  0.4119
  539MOL0     C72649   1.519  12.565   0.109 -0.2468  0.2573  0.4540
  539MOL0     C72650   1.570  12.638   0.230 -0.2508  0.5402 -0.2747
  539MOL0     C72651   1.508  12.778   0.241  0.3833  0.7237 -0.8037
  539MOL0     C72652   1.568  12.859   0.359  0.5150  0.0498  0.0938
  539MOL0     C72653   1.718  12.895   0.328  0.0363  0.0488  0.3341
  539MOL0     O72654   1.779  12.949   0.448 -0.3437 -0.3810 -0.2645
  539MOL0     C72655   1.873  12.888   0.518  1.2778  0.0110  0.2597
  539MOL0     C72656   1.886  12.746   0.530  0.0671  0.6440 -0.3945
  539MOL0     C72657   1.970  12.696   0.633  0.6558 -0.0360 -0.4661
  539MOL0     C72658   2.050  12.780   0.719  0.2677 -0.2180 -0.2552
  539MOL0     C72659   2.142  12.720   0.813 -1.0197 -0.6773 -0.4288
  539MOL0     O72660   2.236  12.795   0.886  0.4085  0.8448 -0.7179
  539MOL0     C72661   2.331  12.754   0.974 -0.5057  0.5854 -0.3404
  539MOL0     C72662   2.370  12.617   0.999 -0.0411 -0.1027 -0.3413
  539MOL0     C72663   2.474  12.581   1.085  0.7395  0.1862  0.2244
  539MOL0     C72664   2.546  12.680   1.149 -0.0440  0.2382 -0.5048
  539MOL0     O72665   2.646  12.654   1.240  0.2368 -0.1925 -0.4051
  539MOL0     C72666   2.613  12.581   1.354 -0.1812  0.0299 -0.1907
  539MOL0     C72667   2.745  12.536   1.416 -0.3032 -0.1710 -0.3607
  539MOL0     C72668   2.806  12.415   1.335 -0.0032 -0.2187 -0.0798
  539MOL0     C72669   2.953  12.413   1.353 -0.7052  0.4373  0.2321
  539MOL0     C72670   3.011  12.282   1.294 -0.3394 -0.2940  0.2826
  539MOL0     C72671   3.054  12.320   1.147  0.2341  0.6029 -0.3224
  539MOL0     C72672   3.059  12.192   1.048 -0.1828 -0.5241 -0.0906
  539MOL0     C72673   2.936  12.122   1.009  0.1705 -0.2796 -0.9341
  539MOL0    Cl72674   2.969  12.029   0.861  0.3189 -0.0057 -0.2479
  539MOL0     C72675   2.512  12.817   1.136  0.0080  0.5376 -0.2004
  539MOL0     C72676   2.408  12.856   1.041  0.9971  0.3406 -1.1885
  539MOL0     O72677   2.129  12.595   0.819  0.3335  0.0537  0.0647
  539MOL0     C72678   2.031  12.917   0.701 -0.3044 -0.0251 -0.2752
  539MOL0     C72679   1.945  12.968   0.605 -0.1146 -0.5012 -0.0997
  539MOL0     N72680   1.561  12.586  -0.023 -0.3158  0.1889  0.4218
  539MOL0     N72681   1.525  12.481  -0.097  0.8002 -0.8189 -0.0794
  539MOL0     C72682   1.642  11.487   0.243  0.6554  0.4324  0.5019
  539MOL0     C72683   1.575  11.399   0.329  0.4263  0.1491  0.3040
  539MOL0     C72684   1.618  11.040   0.637 -1.2340 -0.1242  0.8129
  539MOL0     C72685   1.484  10.998   0.617  0.8309 -0.1893 -0.6442
  539MOL0     C72686   1.441  10.884   0.693 -0.5211  0.3596  1.0182
  539MOL0     C72687   1.526  10.812   0.781 -0.1061 -0.2540 -0.1361
  539MOL0     O72688   1.468  10.692   0.830  0.0777 -0.3407 -0.4969
  539MOL0     C72689   1.474  10.673   0.971  0.4366 -0.1566 -0.2737
  539MOL0     C72690   1.443  10.527   1.005  0.4693  0.2026 -0.2458
  539MOL0     C72691   1.288  10.477   0.991  0.6605 -0.4860  0.7581
  539MOL0     C72692   1.259  10.442   0.853  0.2431  0.1739  0.9108
  539MOL0     C72693   1.112  10.425   0.831  0.0503  0.4948  0.2942
  539MOL0     C72694   0.994  10.414   0.819  0.2438 -0.4157 -0.1115
  539MOL0     C72695   1.653  10.862   0.794 -1.0652 -0.1595  0.1623
  539MOL0     C72696   1.699  10.972   0.722  0.3450 -0.7057  0.4870
  539MOL0     C72697   1.847  11.014   0.753  0.5308  0.5402  0.2328
  539MOL0     H72698   1.773  11.125   0.277 -2.4991 -0.5279 -0.8506
  539MOL0     H72699   1.870  11.274   0.115 -0.3479 -1.0246  0.7368
  539MOL0     H72700   1.922  11.560   0.219  0.2258  3.4685  1.1130
  539MOL0     H72701   1.999  11.550   0.060 -1.8096 -3.9885 -1.4360
  539MOL0     H72702   1.997  11.784   0.098 -0.8298  2.6358 -4.0312
  539MOL0     H72703   1.842  11.777   0.192  1.2015  3.0161  0.1896
  539MOL0     H72704   1.822  11.698  -0.096  0.9846 -0.8253  3.0339
  539MOL0     H72705   1.882  11.855  -0.090 -1.2524  0.8352 -1.6136
  539MOL0     H72706   1.606  11.800  -0.071 -0.4527 -1.2564 -1.2667
  539MOL0     H72707   1.653  11.757   0.089  0.5372 -0.9118  0.8789
  539MOL0     H72708   1.683  11.968   0.153  4.6227 -1.0827 -0.1644
  539MOL0     H72709   1.768  12.033   0.019  0.7895 -0.6080 -2.3200
  539MOL0     H72710   1.532  12.019  -0.113 -1.3631 -1.6431  0.4746
  539MOL0     H72711   1.460  11.974   0.042 -1.0845 -3.3197 -3.7419
  539MOL0     H72712   1.643  12.225   0.000  1.3909 -1.2878 -0.4004
  539MOL0     H72713   1.544  12.189   0.135  1.7127  1.6153 -0.9416
  539MOL0     H72714   1.438  12.245  -0.151 -0.5803 -0.6679  0.0478
  539MOL0     H72715   1.337  12.221  -0.001  0.7396 -0.0542  0.9058
  539MOL0     H72716   1.421  12.397   0.214 -2.7500  1.1862 -0.0459
  539MOL0     H72717   1.556  12.579   0.322  3.4089  2.2005  1.5493
  539MOL0     H72718   1.680  12.635   0.228 -0.1605 -1.3051  2.1826
  539MOL0     H72719   1.524  12.839   0.152 -1.4452  1.9577 -0.3260
  539MOL0     H72720   1.402  12.756   0.253  0.7405 -1.6002 -1.3948
  539MOL0     H72721   1.551  12.807   0.453  0.5668  1.7057  1.0414
  539MOL0     H72722   1.514  12.953   0.371  0.5353  0.2844 -1.4470
  539MOL0     H72723   1.720  12.973   0.251 -1.0141  0.7690  1.0177
  539MOL0     H72724   1.777  12.812   0.288 -0.6156 -1.5089  2.4220
  539MOL0     H72725   1.834  12.680   0.462  2.3335 -0.9109 -0.7511
  539MOL0     H72726   1.990  12.590   0.623  0.6421 -0.0957  0.1330
  539MOL0     H72727   2.314  12.534   0.957  2.0123 -1.8256  0.1337
  539MOL0     H72728   2.493  12.475   1.090  0.0445  0.0198 -0.4918
  539MOL0     H72729   2.573  12.646   1.432  3.2959  1.1325  0.8728
  539MOL0     H72730   2.557  12.489   1.336  0.5428 -0.2697 -0.9912
  539MOL0     H72731   2.815  12.620   1.418 -2.7657  1.9620  0.8589
  539MOL0     H72732   2.727  12.499   1.517 -0.3449 -1.4074 -0.7981
  539MOL0     H72733   2.780  12.319   1.380  0.6125 -1.4440 -2.1952
  539MOL0     H72734   2.789  12.425   1.227  4.0524 -2.1760 -1.1088
  539MOL0     H72735   2.979  12.420   1.459  3.1406  1.3288 -0.6019
  539MOL0     H72736   2.996  12.498   1.300 -2.7992  1.2412 -0.2775
  539MOL0     H72737   2.930  12.209   1.308 -0.1539 -0.9965 -1.9179
  539MOL0     H72738   3.105  12.244   1.334  0.7836  1.9506 -0.0501
  539MOL0     H72739   2.972  12.381   1.108 -0.5363 -1.5779 -2.4053
  539MOL0     H72740   3.147  12.377   1.141  0.8966 -0.4865 -0.7248
  539MOL0     H72741   3.121  12.119   1.100 -0.6581 -1.0029 -0.1905
  539MOL0     H72742   3.105  12.232   0.957 -1.0529 -1.3617 -0.9111
  539MOL0     H72743   2.900  12.055   1.088  1.1923  1.9582  1.5789
  539MOL0     H72744   2.849  12.188   1.001 -0.0820 -0.6131 -1.0032
  539MOL0     H72745   2.573  12.885   1.194 -0.6911 -0.1964  1.4555
  539MOL0     H72746   2.384  12.961   1.028  1.2128  0.6150  0.4159
  539MOL0     H72747   2.079  12.988   0.767 -2.2573  2.7889 -1.6830
  539MOL0     H72748   1.942  13.077   0.609 -0.5505 -0.4984 -0.4243
  539MOL0     H72749   1.611  11.588   0.218  2.4549  0.6350 -1.2344
  539MOL0     H72750   1.489  11.444   0.378  0.8247 -0.1933  1.3361
  539MOL0     H72751   1.419  11.040   0.541 -1.3558 -0.0773  1.1671
  539MOL0     H72752   1.337  10.857   0.677 -0.1570  0.2458 -1.5494
  539MOL0     H72753   1.401  10.739   1.020 -0.1605  0.8964 -2.4415
  539MOL0     H72754   1.571  10.693   1.018 -0.6661 -0.9239  2.5744
  539MOL0     H72755   1.470  10.528   1.111 -3.1143  0.5900  0.7863
  539MOL0     H72756   1.509  10.455   0.954  1.2115 -0.6193  1.7735
  539MOL0     H72757   1.232  10.568   1.015  4.1559  1.9782  0.2881
  539MOL0     H72758   1.255  10.400   1.061 -0.6852  0.5150  1.2883
  539MOL0     H72759   1.293  10.516   0.781  0.7422 -0.4553  0.4923
  539MOL0     H72760   1.308  10.348   0.827 -4.2263 -1.5761 -2.6539
  539MOL0     H72761   0.888  10.408   0.804 -0.0417  3.3776 -0.4772
  539MOL0     H72762   1.728  10.809   0.852 -3.1118 -4.0509 -0.3764
  539MOL0     H72763   1.905  11.031   0.662 -0.4690 -2.3928 -1.0830
  539MOL0     H72764   1.846  11.107   0.811  3.1888 -0.2933  1.7851
  539MOL0     H72765   1.898  10.936   0.809  0.4778  1.8803  2.2275
  540MOL0     O72766  10.329   1.814   7.843 -0.3001 -0.5101  0.0720
  540MOL0     C72767  10.443   1.859   7.836  0.0341  0.4027 -1.0421
  540MOL0     O72768  10.538   1.828   7.930 -0.0994 -0.2153 -0.1823
  540MOL0     C72769  10.516   1.796   8.062 -1.4260  0.6061 -0.6679
  540MOL0     C72770  10.639   1.778   8.147  1.1374  0.4000 -0.4109
  540MOL0     C72771  10.628   1.745   8.283  0.0593  0.1418  1.0356
  540MOL0     C72772  10.505   1.744   8.351 -0.4081 -0.6319  0.0363
  540MOL0     O72773  10.474   1.716   8.489 -0.6059  0.7715 -0.5773
  540MOL0     C72774  10.586   1.697   8.576  0.1596 -0.1301  0.1414
  540MOL0     C72775  10.526   1.669   8.713 -0.1924  0.1269  0.0642
  540MOL0     C72776  10.651   1.620   8.801  0.5269  0.6556  0.1571
  540MOL0     C72777  10.614   1.569   8.940  0.3283 -0.1853 -0.2739
  540MOL0     C72778  10.579   1.423   8.940 -0.4120  0.7064 -0.1237
  540MOL0     C72779  10.511   1.383   9.080  0.0848  1.0952 -0.0128
  540MOL0     C72780  10.427   1.249   9.081  0.1335 -0.4345  0.3781
  540MOL0     C72781  10.508   1.118   9.032  0.6336  0.3961 -0.8778
  540MOL0     N72782  10.598   1.086   9.139  0.1248 -0.0214 -0.6757
  540MOL0     C72783  10.739   1.077   9.130 -0.2446 -0.4435  0.6587
  540MOL0     C72784  10.784   1.037   9.246 -0.8005  1.0287 -0.1139
  540MOL0     C72785  10.934   0.993   9.262  1.0943  0.1583 -1.0565
  540MOL0     C72786  10.961   0.867   9.172  0.2039  0.1281 -0.5169
  540MOL0     C72787  11.103   0.800   9.180  0.1527 -0.9136 -0.7742
  540MOL0     C72788  11.127   0.722   9.309 -0.5247  0.1341 -1.1308
  540MOL0     O72789  11.260   0.670   9.326  0.0002  0.0174  0.6222
  540MOL0     C72790  11.283   0.582   9.432  0.2445 -0.9029  0.7079
  540MOL0     C72791  11.222   0.585   9.555 -0.1149  0.0076 -0.0037
  540MOL0     C72792  11.244   0.492   9.653 -0.1531  0.2799  0.0867
  540MOL0     C72793  11.339   0.382   9.632  0.8935  0.0817  0.5050
  540MOL0     C72794  11.363   0.274   9.725  0.4362 -0.8109  0.6329
  540MOL0     O72795  11.477   0.207   9.715 -0.1830  0.0946 -0.0667
  540MOL0     C72796  11.499   0.099   9.798 -0.3902 -0.1251  0.3885
  540MOL0     C72797  11.527   0.114   9.934 -0.0022 -1.0677  1.2654
  540MOL0     C72798  11.530  -0.001  10.017  0.0865  0.0478 -0.3832
  540MOL0     C72799  11.489  -0.129   9.973  0.7207 -0.6935  0.0210
  540MOL0     O72800  11.483  -0.234  10.059  0.9214  0.0225 -0.6030
  540MOL0     C72801  11.410  -0.349  10.009 -0.2856 -0.4544  0.2516
  540MOL0     C72802  11.419  -0.456  10.113 -0.3345 -0.4252  0.0588
  540MOL0     C72803  11.373  -0.585  10.061 -0.8933  0.6333 -0.8735
  540MOL0     C72804  11.480  -0.656   9.973 -0.7375  0.2044 -0.6127
  540MOL0     C72805  11.445  -0.803   9.956 -0.2638  0.3227  0.1716
  540MOL0     C72806  11.525  -0.870   9.849 -0.1209 -0.1791  0.2784
  540MOL0     C72807  11.523  -1.017   9.877  0.4078  0.9119  0.6225
  540MOL0     C72808  11.586  -1.113   9.779 -0.2940 -0.5694 -0.1494
  540MOL0    Cl72809  11.706  -1.039   9.677  0.5684  0.6395 -0.7812
  540MOL0     C72810  11.465  -0.136   9.835 -0.2129 -0.3546  0.5088
  540MOL0     C72811  11.462  -0.029   9.751 -0.9701 -0.5600  0.0112
  540MOL0     O72812  11.269   0.255   9.809  0.2191  0.1020  0.0442
  540MOL0     C72813  11.396   0.375   9.504  0.6868  0.9166 -0.0110
  540MOL0     C72814  11.364   0.473   9.404 -1.3865 -0.0912 -0.0024
  540MOL0     N72815  10.678   1.003   9.324  0.2871 -0.5334 -0.1271
  540MOL0     N72816  10.564   1.030   9.261  0.2928  0.1845  0.3434
  540MOL0     C72817  10.392   1.767   8.267 -0.5935  0.0568  0.0131
  540MOL0     C72818  10.395   1.803   8.130 -0.6349 -0.2249 -0.4984
  540MOL0     C72819  10.487   1.954   7.725  0.6433 -0.3426 -0.0076
  540MOL0     C72820  10.620   2.000   7.746 -1.1020 -1.5414 -0.0835
  540MOL0     C72821  10.682   2.087   7.658  0.3928  0.0237 -0.4399
  540MOL0     C72822  10.622   2.128   7.547  0.7501  0.1427  0.4908
  540MOL0     O72823  10.687   2.226   7.475  0.4907 -0.2108 -0.1448
  540MOL0     C72824  10.728   2.188   7.343  0.1372 -0.1390 -0.6512
  540MOL0     C72825  10.778   2.318   7.276  0.5239  0.8800  0.3155
  540MOL0     C72826  10.685   2.439   7.291  0.6637  0.2367  0.2744
  540MOL0     C72827  10.722   2.535   7.397  0.0269 -0.4243 -0.0547
  540MOL0     C72828  10.631   2.649   7.383 -0.5572  0.5915  0.0245
  540MOL0     C72829  10.560   2.749   7.379 -0.4500 -0.5211  1.0427
  540MOL0     C72830  10.482   2.090   7.530  0.2364  0.5927 -0.2630
  540MOL0     C72831  10.410   2.011   7.617 -0.0759 -0.4264  0.4723
  540MOL0     C72832  10.263   1.987   7.590 -0.3607  0.1421  0.1359
  540MOL0     H72833  10.737   1.794   8.103  0.8897 -0.8309 -1.4759
  540MOL0     H72834  10.724   1.722   8.328 -0.1819 -1.9643  0.5742
  540MOL0     H72835  10.635   1.603   8.548 -1.6552 -1.3145  0.7978
  540MOL0     H72836  10.652   1.782   8.594 -0.0957 -0.3119  2.2025
  540MOL0     H72837  10.448   1.594   8.695 -1.1047  0.8361  0.8909
  540MOL0     H72838  10.485   1.756   8.767 -2.0021 -0.5810 -0.0959
  540MOL0     H72839  10.717   1.708   8.809  3.3626 -1.1602 -1.4374
  540MOL0     H72840  10.699   1.536   8.750 -2.0112 -0.8019  0.0147
  540MOL0     H72841  10.686   1.574   9.022  0.4694  0.6083 -0.4334
  540MOL0     H72842  10.528   1.632   8.965  0.5188 -1.4083  4.4882
  540MOL0     H72843  10.513   1.407   8.854  1.1350  0.6380 -1.3466
  540MOL0     H72844  10.665   1.358   8.919 -0.2837 -1.1059  4.7546
  540MOL0     H72845  10.584   1.370   9.160 -0.6934 -0.7700  0.4393
  540MOL0     H72846  10.449   1.470   9.102 -0.9705  0.7161 -1.2948
  540MOL0     H72847  10.350   1.239   9.004 -1.1276  1.0900  1.3649
  540MOL0     H72848  10.391   1.223   9.181  0.0791  0.8658  0.7161
  540MOL0     H72849  10.444   1.031   9.017 -1.0718  1.7556 -1.8553
  540MOL0     H72850  10.568   1.135   8.942  4.1014 -1.3431  0.9116
  540MOL0     H72851  10.792   1.105   9.039  1.1003 -1.7430  0.9922
  540MOL0     H72852  11.018   1.061   9.244  2.3293 -1.0957 -0.2464
  540MOL0     H72853  10.939   0.959   9.366 -0.2932 -1.3664 -1.4504
  540MOL0     H72854  10.885   0.789   9.169 -2.0219  2.1426 -0.1682
  540MOL0     H72855  10.949   0.904   9.070 -2.4379  1.5096  0.1968
  540MOL0     H72856  11.180   0.873   9.155  1.2295 -1.2545  1.2826
  540MOL0     H72857  11.113   0.717   9.109  2.5636 -1.4611  0.1087
  540MOL0     H72858  11.056   0.640   9.292  1.3342 -1.6149 -0.7752
  540MOL0     H72859  11.099   0.776   9.400  0.1891 -0.0084 -0.8201
  540MOL0     H72860  11.144   0.658   9.571  0.2623  0.2938  0.5720
  540MOL0     H72861  11.180   0.502   9.740 -0.2903  2.0760 -0.1840
  540MOL0     H72862  11.522   0.212   9.980  1.2522 -0.2286 -0.3297
  540MOL0     H72863  11.552   0.022  10.120 -0.8540  1.0217 -0.3918
  540MOL0     H72864  11.303  -0.337   9.995 -0.1302 -1.9615 -2.9897
  540MOL0     H72865  11.448  -0.379   9.911  0.4910  0.4696  0.2532
  540MOL0     H72866  11.520  -0.458  10.154 -0.3190  0.3248  0.0750
  540MOL0     H72867  11.345  -0.434  10.191 -0.8324  0.4473 -0.6435
  540MOL0     H72868  11.358  -0.656  10.143  1.2009  2.2394  1.0428
  540MOL0     H72869  11.282  -0.581  10.000 -2.0669 -6.1004 -0.3282
  540MOL0     H72870  11.583  -0.642  10.007 -0.6962 -1.3475 -0.0212
  540MOL0     H72871  11.489  -0.613   9.872  4.1514  1.2976  0.0296
  540MOL0     H72872  11.341  -0.821   9.930  0.6261 -3.7152 -1.3475
  540MOL0     H72873  11.459  -0.854  10.052 -1.0604 -4.6944 -2.0217
  540MOL0     H72874  11.474  -0.853   9.754  0.2078 -0.1975  0.0977
  540MOL0     H72875  11.628  -0.832   9.850  0.8489 -2.6031  1.0456
  540MOL0     H72876  11.421  -1.051   9.896  0.8732 -1.0179 -0.0803
  540MOL0     H72877  11.562  -1.039   9.977  0.0970 -3.3864 -0.0029
  540MOL0     H72878  11.620  -1.201   9.835  1.6956  0.1439 -0.1652
  540MOL0     H72879  11.509  -1.161   9.717 -2.5978 -2.0819  3.5050
  540MOL0     H72880  11.435  -0.231   9.792  1.3142 -1.2386  1.2794
  540MOL0     H72881  11.434  -0.035   9.646 -0.5977 -2.2477 -0.0227
  540MOL0     H72882  11.459   0.288   9.492 -2.0686 -1.0467 -1.1808
  540MOL0     H72883  11.421   0.469   9.312 -1.5829  0.9171 -0.1805
  540MOL0     H72884  10.297   1.744   8.314 -0.3736  2.0331  1.5586
  540MOL0     H72885  10.299   1.820   8.083  0.0526  1.9697 -1.2059
  540MOL0     H72886  10.687   1.975   7.828  0.6000 -0.0193 -0.9087
  540MOL0     H72887  10.780   2.131   7.674  0.2564  0.6040 -1.2069
  540MOL0     H72888  10.637   2.147   7.298 -0.7470 -0.8159  1.6322
  540MOL0     H72889  10.800   2.106   7.345  0.3447 -0.0299  3.2472
  540MOL0     H72890  10.797   2.292   7.171  0.3261 -1.3298  0.7595
  540MOL0     H72891  10.878   2.341   7.311  2.0072  1.6425 -3.8901
  540MOL0     H72892  10.583   2.402   7.299  0.9856 -0.7176  0.2276
  540MOL0     H72893  10.697   2.499   7.200 -2.1269  2.3274  1.1467
  540MOL0     H72894  10.704   2.499   7.499  1.2531 -0.7987  0.0461
  540MOL0     H72895  10.826   2.570   7.392 -0.3566  0.8599  0.5831
  540MOL0     H72896  10.510   2.843   7.368 -1.8043 -1.4914 -2.0369
  540MOL0     H72897  10.419   2.127   7.450 -4.5365  2.4379  3.8352
  540MOL0     H72898  10.216   2.082   7.563 -2.4822 -0.6459  0.8278
  540MOL0     H72899  10.238   1.915   7.511  0.6599  2.1595 -2.1494
  540MOL0     H72900  10.215   1.954   7.683  3.0729 -1.4839  1.5086
  541MOL0     O72901   7.156   7.830  10.338  0.2765 -0.2515 -0.2071
  541MOL0     C72902   7.042   7.849  10.290 -0.4680  1.1034  0.1056
  541MOL0     O72903   6.925   7.846  10.365  0.5912  0.2803 -0.0015
  541MOL0     C72904   6.929   7.815  10.497  0.5467  0.4082 -0.2037
  541MOL0     C72905   7.006   7.895  10.593  0.5947  0.7353 -0.1447
  541MOL0     C72906   6.989   7.867  10.725  0.3766 -0.5438 -0.1287
  541MOL0     C72907   6.892   7.782  10.773 -0.3616  0.2253 -0.7692
  541MOL0     O72908   6.873   7.759  10.905  0.5356  0.5812  0.4163
  541MOL0     C72909   6.975   7.788  11.002  0.0532  0.1901  0.1929
  541MOL0     C72910   6.909   7.771  11.138 -0.2589  0.3762  0.6628
  541MOL0     C72911   6.878   7.624  11.162  0.3298  0.4944 -1.0081
  541MOL0     C72912   6.799   7.601  11.288 -0.2042 -0.4295 -1.1004
  541MOL0     C72913   6.650   7.619  11.262 -0.3833  0.5195 -0.6274
  541MOL0     C72914   6.569   7.575  11.383 -0.0403 -0.5727 -0.4722
  541MOL0     C72915   6.419   7.603  11.352  0.8771  0.1420 -0.3127
  541MOL0     C72916   6.376   7.749  11.375  0.1706  0.6785  0.2740
  541MOL0     N72917   6.237   7.766  11.426 -0.1176  0.9809  0.1773
  541MOL0     C72918   6.124   7.699  11.381 -0.5204 -0.9823  0.0658
  541MOL0     C72919   6.031   7.780  11.430  0.1224  0.1331 -0.2880
  541MOL0     C72920   5.891   7.762  11.418  0.4749 -0.0730  0.5754
  541MOL0     C72921   5.830   7.723  11.551  0.0195  0.3535  0.0696
  541MOL0     C72922   5.805   7.851  11.631  1.2101  1.0212 -0.4369
  541MOL0     C72923   5.691   7.845  11.742  0.1575 -0.3129 -0.0508
  541MOL0     O72924   5.667   7.711  11.782  0.4638  0.4680 -0.1784
  541MOL0     C72925   5.580   7.692  11.885 -0.4492 -0.8877  0.1203
  541MOL0     C72926   5.490   7.791  11.929  0.2377 -1.0613  1.1293
  541MOL0     C72927   5.393   7.758  12.022 -0.0487  0.5916  0.9518
  541MOL0     C72928   5.390   7.630  12.082 -0.0827 -0.6125 -0.3135
  541MOL0     C72929   5.292   7.596  12.189  0.2342 -0.5396 -0.8378
  541MOL0     O72930   5.271   7.464  12.214 -0.1291 -0.5207  0.5136
  541MOL0     C72931   5.180   7.425  12.318 -0.6647 -1.5415 -1.0946
  541MOL0     C72932   5.225   7.327  12.413  0.8129  0.6132 -0.3540
  541MOL0     C72933   5.138   7.281  12.515  0.3982 -0.4953 -0.7579
  541MOL0     C72934   5.020   7.352  12.536 -0.9526  1.2570  0.2388
  541MOL0     O72935   4.952   7.312  12.648 -0.2463 -0.4657  0.9554
  541MOL0     C72936   4.852   7.395  12.700 -0.3675 -0.2961  0.2116
  541MOL0     C72937   4.822   7.340  12.840 -0.4921 -0.1080  1.3459
  541MOL0     C72938   4.754   7.210  12.835  0.4598  0.5134  0.1545
  541MOL0     C72939   4.729   7.169  12.985  0.9514  0.1266 -0.8098
  541MOL0     C72940   4.669   7.025  13.004 -0.0140 -0.1288  0.0765
  541MOL0     C72941   4.518   7.022  13.009  0.1166  0.4784  0.3205
  541MOL0     C72942   4.450   7.085  13.135 -0.1792 -0.5254 -0.4987
  541MOL0     C72943   4.310   7.145  13.109  0.1234 -0.3208 -0.3247
  541MOL0    Cl72944   4.338   7.268  12.988 -0.0372  0.0998 -0.0119
  541MOL0     C72945   4.979   7.446  12.444  0.4696 -0.3127  0.3744
  541MOL0     C72946   5.062   7.483  12.337  0.0981 -0.9821 -0.0031
  541MOL0     O72947   5.241   7.691  12.243  0.4179 -0.4143  0.5219
  541MOL0     C72948   5.488   7.535  12.045 -0.0580 -0.2284 -0.0803
  541MOL0     C72949   5.584   7.569  11.949  0.4215 -0.3624  0.7998
  541MOL0     N72950   6.081   7.881  11.506 -0.4780  0.6941  0.1879
  541MOL0     N72951   6.205   7.877  11.506  0.5394  0.6532  0.0980
  541MOL0     C72952   6.800   7.730  10.687  0.5194 -0.0673  0.4726
  541MOL0     C72953   6.816   7.748  10.550  0.2701 -0.2289  0.5098
  541MOL0     C72954   7.040   7.875  10.149  0.2730 -0.2075  0.1286
  541MOL0     C72955   7.142   7.963  10.090 -0.0707  0.0182 -0.5502
  541MOL0     C72956   7.139   7.994   9.953  0.3139  0.4132  0.9859
  541MOL0     C72957   7.043   7.941   9.864  0.6654  1.2212  0.1621
  541MOL0     O72958   7.067   7.943   9.729 -0.0833  0.1029  0.8444
  541MOL0     C72959   6.973   7.901   9.630  0.2997  0.3602  0.5573
  541MOL0     C72960   7.023   7.909   9.491 -0.3296  0.0338 -0.1218
  541MOL0     C72961   6.913   7.858   9.394 -0.2059 -0.7610 -0.1751
  541MOL0     C72962   6.921   7.913   9.249  0.8415  0.2525  0.1554
  541MOL0     C72963   6.921   8.062   9.225  0.5052 -0.4808  0.0725
  541MOL0     C72964   6.952   8.176   9.194 -0.6991 -0.3391 -0.1132
  541MOL0     C72965   6.949   7.846   9.921  0.3512 -0.9384 -0.7907
  541MOL0     C72966   6.943   7.819  10.056 -0.0078  0.2530 -0.2081
  541MOL0     C72967   6.818   7.740  10.108 -0.7700  0.0176  0.2598
  541MOL0     H72968   7.074   7.970  10.555  1.5028 -2.0084 -4.6234
  541MOL0     H72969   7.051   7.936  10.781  0.0707  0.0741 -0.5331
  541MOL0     H72970   7.045   7.704  10.995 -0.7068 -0.3783 -1.0034
  541MOL0     H72971   7.023   7.886  11.000 -0.4174  0.4262  0.3640
  541MOL0     H72972   6.816   7.828  11.140 -1.6548 -1.7656  0.8030
  541MOL0     H72973   6.972   7.814  11.216  4.2329 -1.5297 -1.5796
  541MOL0     H72974   6.972   7.576  11.190  0.8547 -0.9094 -4.6423
  541MOL0     H72975   6.835   7.582  11.071 -3.7580 -2.9327  2.0845
  541MOL0     H72976   6.821   7.504  11.335  0.1647  0.6897  1.1623
  541MOL0     H72977   6.833   7.666  11.369  0.6775 -2.3907  0.1887
  541MOL0     H72978   6.636   7.726  11.241  0.7718  0.5889 -1.1390
  541MOL0     H72979   6.615   7.568  11.172 -0.9157  1.5492 -1.0181
  541MOL0     H72980   6.587   7.468  11.392  0.3417 -0.5973 -1.4317
  541MOL0     H72981   6.596   7.619  11.479 -2.3370 -0.4742  0.1844
  541MOL0     H72982   6.351   7.542  11.411  1.6280 -1.0559 -0.6596
  541MOL0     H72983   6.399   7.569  11.250  1.5093 -1.8247  0.1858
  541MOL0     H72984   6.436   7.790  11.457 -2.0063 -3.0626  4.1726
  541MOL0     H72985   6.389   7.808  11.284 -0.3367  1.0935  0.4704
  541MOL0     H72986   6.133   7.604  11.328 -0.1769 -0.4756 -0.8015
  541MOL0     H72987   5.846   7.853  11.378 -1.3310 -0.5907  1.3249
  541MOL0     H72988   5.872   7.675  11.354  0.9276 -0.9600  1.6077
  541MOL0     H72989   5.738   7.673  11.519  0.6030  0.1801 -1.4468
  541MOL0     H72990   5.874   7.646  11.614 -1.4416 -1.6810 -1.2879
  541MOL0     H72991   5.779   7.935  11.566  0.8345  1.7218  0.5802
  541MOL0     H72992   5.897   7.877  11.684  1.8112 -1.8740  0.1131
  541MOL0     H72993   5.609   7.900  11.695  0.1752  1.5509  1.9720
  541MOL0     H72994   5.719   7.901  11.832 -0.8749  1.7579 -0.9489
  541MOL0     H72995   5.470   7.880  11.870  1.8724 -1.3217  0.1333
  541MOL0     H72996   5.328   7.841  12.047 -0.6390  0.3839  0.1456
  541MOL0     H72997   5.320   7.274  12.408 -0.2597 -1.4903  0.1825
  541MOL0     H72998   5.175   7.200  12.577 -0.5586 -0.4076 -0.0342
  541MOL0     H72999   4.898   7.494  12.709 -0.0693 -0.1871 -1.8476
  541MOL0     H73000   4.756   7.401  12.648  1.2105 -1.2241 -3.1463
  541MOL0     H73001   4.913   7.314  12.895 -1.2778 -5.0214  0.7511
  541MOL0     H73002   4.767   7.420  12.891  0.3321  0.8593  0.7649
  541MOL0     H73003   4.654   7.226  12.793 -1.2733 -3.1814  2.3633
  541MOL0     H73004   4.809   7.131  12.784 -0.1596 -1.1268  1.8879
  541MOL0     H73005   4.663   7.240  13.034  0.8108 -2.0320  2.4493
  541MOL0     H73006   4.825   7.169  13.037  1.3657 -0.3801 -1.5471
  541MOL0     H73007   4.707   6.972  13.092 -0.0218  0.2951  0.3394
  541MOL0     H73008   4.709   6.971  12.918  1.4588  4.2638 -2.3377
  541MOL0     H73009   4.482   7.054  12.911  1.9631 -1.3762 -1.0516
  541MOL0     H73010   4.500   6.914  13.014  1.5202  0.1542 -1.0975
  541MOL0     H73011   4.515   7.158  13.184 -1.6324  0.2223  0.3825
  541MOL0     H73012   4.430   7.003  13.205  1.1385 -0.9377 -0.5886
  541MOL0     H73013   4.236   7.069  13.081  0.0527  0.1907 -1.6194
  541MOL0     H73014   4.283   7.198  13.201  1.7933 -3.0181  1.8581
  541MOL0     H73015   4.887   7.503  12.452  0.4653  0.3508 -2.8261
  541MOL0     H73016   5.031   7.564  12.271 -0.0721 -0.6889  0.4312
  541MOL0     H73017   5.499   7.434  12.083  3.3875 -0.1966 -0.7204
  541MOL0     H73018   5.653   7.492  11.916  0.0046 -1.2526  1.9399
  541MOL0     H73019   6.730   7.660  10.732  1.7996 -1.7677 -0.0488
  541MOL0     H73020   6.735   7.724  10.481 -2.1016  2.6243  2.0643
  541MOL0     H73021   7.208   8.021  10.153  1.1046 -2.5750  0.7421
  541MOL0     H73022   7.200   8.063   9.896 -1.7632 -1.0178 -3.4368
  541MOL0     H73023   6.884   7.963   9.641 -1.9010 -2.4576 -0.0546
  541MOL0     H73024   6.938   7.798   9.646 -1.5700  0.1707 -3.4536
  541MOL0     H73025   7.104   7.836   9.492 -0.6370 -0.3309  1.7181
  541MOL0     H73026   7.072   8.003   9.465 -0.9193  0.4997  0.4118
  541MOL0     H73027   6.813   7.888   9.428  0.1228  1.9280 -1.3130
  541MOL0     H73028   6.924   7.749   9.384  1.4219 -0.4859 -2.1921
  541MOL0     H73029   7.015   7.895   9.196  0.7470 -0.7267  0.3196
  541MOL0     H73030   6.831   7.872   9.203  1.0323 -1.8679  1.5527
  541MOL0     H73031   6.984   8.266   9.144 -2.8624  0.2892 -0.4485
  541MOL0     H73032   6.875   7.798   9.858  0.3178 -1.3784 -0.4174
  541MOL0     H73033   6.738   7.806  10.144 -1.1956  0.8844 -2.0526
  541MOL0     H73034   6.768   7.688  10.025  1.6775 -2.7836  0.3976
  541MOL0     H73035   6.830   7.673  10.193 -0.3338  2.2266  2.0430
  542MOL0     O73036   5.078   1.465   1.284 -0.7318  0.5103  0.1055
  542MOL0     C73037   5.091   1.392   1.188 -0.1517 -0.1594  0.1605
  542MOL0     O73038   5.210   1.365   1.135  0.2369 -0.3129  0.1753
  542MOL0     C73039   5.318   1.446   1.174  0.5360 -0.1310 -0.3097
  542MOL0     C73040   5.404   1.415   1.288 -0.2808 -0.6371 -0.1543
  542MOL0     C73041   5.521   1.485   1.320 -0.6280 -0.0113  0.1054
  542MOL0     C73042   5.562   1.588   1.227 -0.7583 -0.1544  0.8930
  542MOL0     O73043   5.669   1.679   1.251  0.1102 -0.5245 -0.7314
  542MOL0     C73044   5.741   1.662   1.370 -0.4881 -0.0432 -1.0634
  542MOL0     C73045   5.830   1.538   1.359 -0.5118  0.4478 -0.0350
  542MOL0     C73046   5.967   1.551   1.284 -0.9638 -0.1854  1.1162
  542MOL0     C73047   6.033   1.417   1.249  0.5593  0.5637  0.4937
  542MOL0     C73048   6.176   1.433   1.203 -0.8941 -0.0187 -0.3857
  542MOL0     C73049   6.248   1.308   1.149 -0.2265 -0.0304 -0.4538
  542MOL0     C73050   6.396   1.349   1.128  0.0174 -0.0361 -0.6325
  542MOL0     C73051   6.481   1.325   1.250  0.6041  0.2394  0.2600
  542MOL0     N73052   6.619   1.366   1.236 -0.1894  0.5602 -0.5989
  542MOL0     C73053   6.718   1.347   1.327  0.0937  0.2898  0.0692
  542MOL0     C73054   6.828   1.392   1.264 -0.4822 -0.6749  0.5048
  542MOL0     C73055   6.970   1.382   1.337 -0.5420 -0.2448 -0.1046
  542MOL0     C73056   7.070   1.482   1.287 -0.3312  0.4763 -0.0354
  542MOL0     C73057   7.196   1.483   1.377 -0.1476  0.0631  0.5854
  542MOL0     C73058   7.300   1.586   1.322 -0.3783  0.3981  0.4583
  542MOL0     O73059   7.405   1.629   1.415  0.2153 -0.8932  0.3502
  542MOL0     C73060   7.497   1.722   1.378  0.4448  0.2302  0.2031
  542MOL0     C73061   7.611   1.751   1.458  0.3407  0.5666  0.7894
  542MOL0     C73062   7.710   1.844   1.412  0.2779 -0.1783  0.2366
  542MOL0     C73063   7.688   1.921   1.294  0.3377 -0.6757 -0.1601
  542MOL0     C73064   7.788   2.021   1.252 -0.0292 -0.0602  0.1604
  542MOL0     O73065   7.865   2.078   1.351 -0.2231  0.2909 -0.0277
  542MOL0     C73066   7.979   2.149   1.304  0.6148 -0.4935 -0.0191
  542MOL0     C73067   7.970   2.259   1.219  0.4628  0.6418 -0.6994
  542MOL0     C73068   8.086   2.318   1.165  0.5785 -0.0521  0.1187
  542MOL0     C73069   8.213   2.284   1.210  0.1200 -0.0598 -0.3979
  542MOL0     O73070   8.338   2.312   1.151  0.0112  0.0307 -0.8341
  542MOL0     C73071   8.347   2.359   1.019 -0.1057 -0.3414 -0.6471
  542MOL0     C73072   8.378   2.512   1.024  0.5081  0.4114  0.7062
  542MOL0     C73073   8.524   2.538   1.059 -0.1648  0.8962 -0.1376
  542MOL0     C73074   8.560   2.528   1.211 -0.6016 -0.8340 -0.2374
  542MOL0     C73075   8.704   2.542   1.243  0.6590  0.2473  0.7261
  542MOL0     C73076   8.773   2.682   1.222 -0.1679  0.7634  0.1768
  542MOL0     C73077   8.924   2.681   1.221 -0.5610 -1.2031  0.1071
  542MOL0     C73078   8.992   2.815   1.209 -0.5480  0.6310  0.1875
  542MOL0    Cl73079   8.957   2.873   1.046 -0.1481  0.2973  0.2608
  542MOL0     C73080   8.212   2.187   1.304 -0.2886  0.8804  0.8203
  542MOL0     C73081   8.103   2.117   1.349  0.4136  0.3431  1.2142
  542MOL0     O73082   7.795   2.022   1.135 -0.1405 -0.3258  0.7151
  542MOL0     C73083   7.566   1.899   1.216 -0.4581 -0.0255 -0.2308
  542MOL0     C73084   7.484   1.797   1.261 -0.1979 -0.2824 -0.7682
  542MOL0     N73085   6.792   1.426   1.140 -0.2440  0.7586  0.3723
  542MOL0     N73086   6.666   1.402   1.118 -0.3272 -0.4440  0.0265
  542MOL0     C73087   5.485   1.608   1.114  1.0140 -0.4399 -0.0406
  542MOL0     C73088   5.363   1.543   1.089 -0.2788  0.3996  0.0607
  542MOL0     C73089   4.977   1.326   1.114 -0.2209  0.6915 -0.5433
  542MOL0     C73090   5.010   1.225   1.031 -0.0028  0.2142  0.1845
  542MOL0     C73091   4.914   1.178   0.938  0.8396 -0.3682 -0.5323
  542MOL0     C73092   4.781   1.214   0.946  1.2271 -0.5384  0.3811
  542MOL0     O73093   4.683   1.150   0.880  0.1444 -0.2042  0.7312
  542MOL0     C73094   4.710   1.036   0.808  0.3749  0.0257  0.4542
  542MOL0     C73095   4.583   0.956   0.788 -0.3881  0.1791  0.6518
  542MOL0     C73096   4.598   0.816   0.703  0.7283  0.0013 -0.2147
  542MOL0     C73097   4.483   0.780   0.605  0.8674  0.1424  0.3909
  542MOL0     C73098   4.497   0.874   0.494  0.2571  0.0534 -0.2869
  542MOL0     C73099   4.524   0.966   0.416  0.4289  0.4546 -0.6414
  542MOL0     C73100   4.746   1.316   1.033  0.8584  0.2044 -0.2386
  542MOL0     C73101   4.842   1.376   1.107  0.0376 -0.3747 -1.3326
  542MOL0     C73102   4.795   1.492   1.196 -0.4803  0.1594 -0.2909
  542MOL0     H73103   5.362   1.341   1.355  0.6107 -2.6715 -1.7146
  542MOL0     H73104   5.577   1.468   1.412 -1.2727 -0.5830  0.4013
  542MOL0     H73105   5.810   1.745   1.388  1.1581 -1.0896 -2.2836
  542MOL0     H73106   5.676   1.654   1.458  1.2181  1.4271  0.3999
  542MOL0     H73107   5.777   1.465   1.297 -1.7505  0.6916  0.7013
  542MOL0     H73108   5.846   1.501   1.461  0.1874  1.6277  0.3028
  542MOL0     H73109   6.039   1.617   1.332 -1.3050  0.2300  1.0657
  542MOL0     H73110   5.944   1.601   1.189  0.1033  1.3635  1.6326
  542MOL0     H73111   6.038   1.354   1.338  0.7059 -0.8448 -0.4773
  542MOL0     H73112   5.966   1.373   1.175  1.9510  1.5493 -1.4375
  542MOL0     H73113   6.181   1.503   1.120  3.4526  3.7906  2.5944
  542MOL0     H73114   6.236   1.490   1.274 -2.0589  0.6501  0.0924
  542MOL0     H73115   6.239   1.225   1.218 -2.2071  0.2731 -0.2639
  542MOL0     H73116   6.192   1.273   1.061  0.5210  0.0320 -0.9623
  542MOL0     H73117   6.401   1.456   1.106  0.0027  0.6783  2.3850
  542MOL0     H73118   6.442   1.295   1.045  3.2439  1.9253 -0.2598
  542MOL0     H73119   6.444   1.381   1.336  1.3601  1.1166  0.0358
  542MOL0     H73120   6.480   1.220   1.278 -1.8925 -1.1738 -4.1942
  542MOL0     H73121   6.717   1.304   1.426 -1.8021  0.8730  0.3431
  542MOL0     H73122   6.954   1.401   1.443  1.4192  3.3426 -0.3286
  542MOL0     H73123   7.016   1.283   1.327  2.0513  0.8654  0.0710
  542MOL0     H73124   7.093   1.442   1.188 -0.7433  2.7993 -1.1240
  542MOL0     H73125   7.028   1.582   1.274  1.6710  1.0605 -2.9699
  542MOL0     H73126   7.238   1.382   1.377  1.1837  0.5756 -0.9013
  542MOL0     H73127   7.173   1.504   1.482 -1.1229 -0.6916  0.5312
  542MOL0     H73128   7.235   1.673   1.312  0.7247  1.1395 -0.5438
  542MOL0     H73129   7.331   1.550   1.224 -1.7832 -0.8696  0.4411
  542MOL0     H73130   7.612   1.699   1.553 -1.3414 -0.8640  0.0836
  542MOL0     H73131   7.807   1.853   1.460 -0.2644  0.0121  1.3349
  542MOL0     H73132   7.869   2.284   1.188 -0.8550  0.4067  2.9075
  542MOL0     H73133   8.082   2.377   1.074 -2.9719 -2.3073 -1.4003
  542MOL0     H73134   8.422   2.310   0.957  0.1239  0.1270 -0.7485
  542MOL0     H73135   8.250   2.342   0.971 -0.6674  0.3775  0.1925
  542MOL0     H73136   8.359   2.536   0.919  1.7723 -4.2527 -0.8637
  542MOL0     H73137   8.313   2.560   1.097  0.0757 -0.3397  0.8323
  542MOL0     H73138   8.586   2.463   1.009 -0.9531 -1.0212  1.6554
  542MOL0     H73139   8.553   2.640   1.029  0.4658  1.3894  2.0168
  542MOL0     H73140   8.523   2.431   1.246  0.3711 -2.2263 -2.8079
  542MOL0     H73141   8.514   2.603   1.276  0.7319 -1.7432  1.8504
  542MOL0     H73142   8.748   2.474   1.170  0.1058 -0.8025  1.3443
  542MOL0     H73143   8.727   2.516   1.346  1.6509  0.1606  0.4906
  542MOL0     H73144   8.732   2.722   1.129  0.9872  0.8998 -0.2864
  542MOL0     H73145   8.739   2.757   1.293 -2.0192  0.6300 -0.5195
  542MOL0     H73146   8.944   2.620   1.133 -0.9644  0.7817 -1.4460
  542MOL0     H73147   8.959   2.639   1.316  1.3331 -1.0099 -0.4590
  542MOL0     H73148   8.960   2.884   1.289  0.1583 -1.9478  2.8771
  542MOL0     H73149   9.099   2.804   1.229 -0.4828  0.8964 -0.0051
  542MOL0     H73150   8.309   2.168   1.349  0.8349  1.8688 -1.0495
  542MOL0     H73151   8.110   2.041   1.426  2.4491 -1.6596 -0.7879
  542MOL0     H73152   7.544   1.959   1.129 -2.4454 -0.7349 -0.2657
  542MOL0     H73153   7.396   1.783   1.198 -0.7316 -1.8074  0.2491
  542MOL0     H73154   5.520   1.685   1.047 -0.7006  1.2172  0.8865
  542MOL0     H73155   5.314   1.562   0.994  0.0571 -0.0113 -0.1968
  542MOL0     H73156   5.109   1.181   1.024 -0.4859 -1.5076  2.9194
  542MOL0     H73157   4.935   1.106   0.860 -5.3847 -0.1250 -3.0290
  542MOL0     H73158   4.785   0.971   0.853 -2.3115 -2.9691  0.9638
  542MOL0     H73159   4.763   1.069   0.718  0.6122  2.3072  1.3525
  542MOL0     H73160   4.501   1.016   0.748  0.0806  1.3117  1.3516
  542MOL0     H73161   4.559   0.933   0.892  1.1665  0.2495  1.0409
  542MOL0     H73162   4.587   0.733   0.773 -0.9946 -0.4969 -1.0159
  542MOL0     H73163   4.697   0.809   0.656  1.9120  1.5145  1.9001
  542MOL0     H73164   4.508   0.687   0.554  0.7056  0.7983 -0.9372
  542MOL0     H73165   4.379   0.778   0.638  1.1762  0.1464  1.4079
  542MOL0     H73166   4.539   1.051   0.353  0.8920 -0.9517 -2.5078
  542MOL0     H73167   4.642   1.345   1.033 -0.3439 -3.4627 -1.8533
  542MOL0     H73168   4.794   1.455   1.298 -1.2868  3.5553  1.0852
  542MOL0     H73169   4.872   1.570   1.196  0.9344 -1.1854 -0.1050
  542MOL0     H73170   4.693   1.517   1.167 -0.7829 -2.3921 -1.7062
  543MOL0     O73171   7.573   7.244   5.396 -0.7419 -0.0875 -0.1229
  543MOL0     C73172   7.659   7.162   5.426 -0.0772 -0.9295 -0.3500
  543MOL0     O73173   7.684   7.115   5.559 -0.5880  0.2362 -0.1803
  543MOL0     C73174   7.620   7.185   5.661 -0.8478 -0.7140  0.1968
  543MOL0     C73175   7.489   7.220   5.675 -0.9746 -0.0812  0.0584
  543MOL0     C73176   7.445   7.277   5.790  0.2894  0.2247  0.6151
  543MOL0     C73177   7.507   7.292   5.907 -0.4855 -0.8221 -0.0536
  543MOL0     O73178   7.444   7.335   6.014 -0.5339 -0.1837 -0.1226
  543MOL0     C73179   7.496   7.316   6.146 -0.5746  0.2442 -0.0767
  543MOL0     C73180   7.400   7.370   6.249 -0.1523 -0.7865  1.0762
  543MOL0     C73181   7.383   7.524   6.231 -0.4402 -0.3885 -0.0315
  543MOL0     C73182   7.255   7.556   6.302  0.5767  0.4341 -1.0430
  543MOL0     C73183   7.220   7.706   6.298 -0.5016 -0.6965 -0.1247
  543MOL0     C73184   7.316   7.800   6.370 -0.6387 -0.4675 -0.7419
  543MOL0     C73185   7.271   7.942   6.379 -0.5972  0.3691 -0.1262
  543MOL0     C73186   7.223   7.998   6.250 -0.5927 -0.1020 -0.2712
  543MOL0     N73187   7.343   8.013   6.160 -0.4680 -0.3127  0.1413
  543MOL0     C73188   7.434   8.115   6.163 -0.5502 -0.0949  0.7209
  543MOL0     C73189   7.532   8.073   6.083  0.7073 -1.3474 -0.9268
  543MOL0     C73190   7.667   8.139   6.070 -0.2866  0.7783 -0.3779
  543MOL0     C73191   7.757   8.084   6.181 -0.0477  0.1107 -0.5516
  543MOL0     C73192   7.716   8.104   6.322  0.1776  0.6272  1.1570
  543MOL0     C73193   7.710   8.251   6.372  0.3265  0.4665  0.1787
  543MOL0     O73194   7.832   8.319   6.390  0.1267  0.4272 -0.5654
  543MOL0     C73195   7.925   8.263   6.481  0.0203 -0.2278 -0.0825
  543MOL0     C73196   8.029   8.177   6.441 -0.5639 -0.6623  0.2702
  543MOL0     C73197   8.107   8.108   6.528 -0.6292 -0.0673 -0.1451
  543MOL0     C73198   8.082   8.118   6.668 -0.9051  0.7759  0.7516
  543MOL0     C73199   8.169   8.049   6.769 -0.5157 -0.1427  0.5321
  543MOL0     O73200   8.147   8.078   6.894  0.3902 -0.1007  0.9097
  543MOL0     C73201   8.245   8.034   6.976  0.4200 -0.0934 -0.4141
  543MOL0     C73202   8.315   8.137   7.046  0.2206 -0.0013 -0.0186
  543MOL0     C73203   8.427   8.110   7.126  0.3428 -0.3057  0.5709
  543MOL0     C73204   8.474   7.981   7.139 -0.5244 -1.0539  0.9459
  543MOL0     O73205   8.589   7.959   7.210 -0.3031 -0.5859 -0.3402
  543MOL0     C73206   8.668   7.836   7.193 -1.0668  0.7926  0.7761
  543MOL0     C73207   8.652   7.722   7.302 -0.1100 -0.0106 -0.5336
  543MOL0     C73208   8.726   7.585   7.273  0.1419 -0.8796 -0.6380
  543MOL0     C73209   8.651   7.506   7.165 -0.0485  0.0409 -0.6299
  543MOL0     C73210   8.737   7.393   7.105 -0.4192 -0.0595  0.1296
  543MOL0     C73211   8.809   7.307   7.208 -0.1816 -0.6636 -0.5787
  543MOL0     C73212   8.895   7.203   7.152  0.4468  0.3878 -0.4917
  543MOL0     C73213   8.827   7.126   7.046 -0.7004  0.1050 -0.0666
  543MOL0    Cl73214   8.916   6.966   7.016  0.0358 -0.0953 -0.3452
  543MOL0     C73215   8.397   7.876   7.083  0.1359 -0.4854  0.5128
  543MOL0     C73216   8.288   7.906   6.994  0.0290  0.6278 -0.0685
  543MOL0     O73217   8.270   7.996   6.719 -0.6376  0.0537 -0.1351
  543MOL0     C73218   7.986   8.200   6.710  0.1174 -0.6439  0.4069
  543MOL0     C73219   7.907   8.275   6.620 -0.1055 -0.3632 -0.0894
  543MOL0     N73220   7.498   7.951   6.025 -0.4354 -0.5661 -0.4014
  543MOL0     N73221   7.385   7.915   6.069 -0.7695  0.0102 -1.3128
  543MOL0     C73222   7.647   7.267   5.899  0.3478  0.9258  0.3697
  543MOL0     C73223   7.699   7.209   5.776  0.4748 -0.2010 -0.0756
  543MOL0     C73224   7.763   7.133   5.330 -1.0243 -0.1757  0.7343
  543MOL0     C73225   7.897   7.122   5.382  0.2220  0.4171 -0.5141
  543MOL0     C73226   8.002   7.091   5.298  0.1016  0.9906 -0.0217
  543MOL0     C73227   7.986   7.086   5.156  0.2221  1.0357  1.6262
  543MOL0     O73228   8.097   7.086   5.066  0.0022 -0.2062  0.8039
  543MOL0     C73229   8.235   7.068   5.114  0.2807  1.2664 -0.7784
  543MOL0     C73230   8.272   6.942   5.038  0.2907 -0.6140 -0.3028
  543MOL0     C73231   8.425   6.923   5.050 -1.1854 -0.6647 -0.2115
  543MOL0     C73232   8.495   7.011   4.946 -0.8658 -0.0507  0.2392
  543MOL0     C73233   8.630   6.954   4.914  0.0207  0.1565  0.3392
  543MOL0     C73234   8.742   6.899   4.901  0.2380 -1.2510 -0.6031
  543MOL0     C73235   7.845   7.087   5.113 -0.6366 -0.9861  0.1667
  543MOL0     C73236   7.743   7.113   5.192  0.4219 -0.7573  0.2577
  543MOL0     C73237   7.607   7.094   5.132 -0.0444  0.3568 -0.2964
  543MOL0     H73238   7.417   7.189   5.600 -1.3408  0.4121  0.1959
  543MOL0     H73239   7.339   7.301   5.797  0.3281  1.1206 -1.3356
  543MOL0     H73240   7.505   7.208   6.160 -0.4228  0.3027  0.2816
  543MOL0     H73241   7.589   7.369   6.171 -0.2237 -1.3145  2.1974
  543MOL0     H73242   7.429   7.336   6.349  0.9050 -0.4610  0.8892
  543MOL0     H73243   7.300   7.331   6.230 -2.1589  4.3924 -0.6826
  543MOL0     H73244   7.365   7.561   6.130  0.1353  2.6779  0.8662
  543MOL0     H73245   7.463   7.585   6.272  0.9197 -0.9894 -1.6895
  543MOL0     H73246   7.169   7.511   6.251 -1.9587  0.2773  2.8947
  543MOL0     H73247   7.259   7.525   6.407 -0.6077 -0.4398 -1.2404
  543MOL0     H73248   7.214   7.734   6.193 -0.7518  0.3026  0.1491
  543MOL0     H73249   7.123   7.711   6.349 -1.0891  0.7927 -1.3176
  543MOL0     H73250   7.347   7.771   6.472  1.0625  2.5606 -0.2694
  543MOL0     H73251   7.410   7.796   6.314 -0.2157 -4.1316 -0.0167
  543MOL0     H73252   7.350   8.001   6.427  1.2271 -1.5980 -0.5710
  543MOL0     H73253   7.184   7.948   6.444 -0.6067  1.6777 -0.2298
  543MOL0     H73254   7.141   7.936   6.214 -1.2019  0.5345 -0.0022
  543MOL0     H73255   7.178   8.095   6.272 -2.2465 -0.5244 -1.5797
  543MOL0     H73256   7.425   8.210   6.216 -0.4729 -0.5259  1.5279
  543MOL0     H73257   7.708   8.107   5.974  4.0627  1.0696  1.1958
  543MOL0     H73258   7.654   8.247   6.077  2.7210  1.1469  0.9190
  543MOL0     H73259   7.782   7.981   6.154 -0.4405 -0.2899  0.5438
  543MOL0     H73260   7.857   8.127   6.167 -0.9624  1.7134 -2.6075
  543MOL0     H73261   7.778   8.047   6.392  0.5330 -0.6397 -0.1452
  543MOL0     H73262   7.617   8.059   6.329  0.5261 -0.2632  0.5457
  543MOL0     H73263   7.658   8.241   6.467 -2.2445 -1.2934 -1.2951
  543MOL0     H73264   7.646   8.308   6.303 -0.2775 -2.8319 -2.2550
  543MOL0     H73265   8.043   8.155   6.336 -1.6509 -1.0374  0.1856
  543MOL0     H73266   8.174   8.029   6.497 -1.0930 -0.1333 -1.0262
  543MOL0     H73267   8.275   8.238   7.039 -2.6550 -0.9610  1.0096
  543MOL0     H73268   8.482   8.193   7.171 -0.9935  0.3612  1.0275
  543MOL0     H73269   8.654   7.806   7.089  0.2798  3.0193 -0.1136
  543MOL0     H73270   8.775   7.860   7.194 -0.8930  0.0708  0.7552
  543MOL0     H73271   8.677   7.757   7.402 -0.1315 -3.2436  0.7242
  543MOL0     H73272   8.544   7.702   7.308  0.4193 -2.8562  1.7281
  543MOL0     H73273   8.824   7.619   7.240 -1.1186  2.4487 -1.2802
  543MOL0     H73274   8.736   7.527   7.366 -0.0621  2.4174  1.5862
  543MOL0     H73275   8.614   7.564   7.081 -2.3509 -1.6209 -0.8774
  543MOL0     H73276   8.565   7.453   7.208  1.7278 -0.3409  2.7869
  543MOL0     H73277   8.811   7.439   7.038  1.4734 -3.4431 -0.3335
  543MOL0     H73278   8.660   7.339   7.050  0.1597 -1.3265  0.5119
  543MOL0     H73279   8.871   7.371   7.272 -0.8364  0.2898 -0.8734
  543MOL0     H73280   8.729   7.265   7.271 -0.7906 -0.8104 -1.4322
  543MOL0     H73281   8.922   7.135   7.233 -0.1356 -1.9190 -2.1208
  543MOL0     H73282   8.985   7.237   7.101  0.9457 -2.5765 -1.7870
  543MOL0     H73283   8.726   7.108   7.082 -0.8556  0.3822 -0.3619
  543MOL0     H73284   8.848   7.182   6.954  0.5904  0.5885  0.4896
  543MOL0     H73285   8.427   7.772   7.089 -2.5235 -1.3610 -0.1304
  543MOL0     H73286   8.229   7.837   6.935 -0.4216  0.2655  0.7886
  543MOL0     H73287   7.961   8.209   6.815  1.0903  0.5117  0.5658
  543MOL0     H73288   7.822   8.336   6.647  1.2970  3.5894 -3.4228
  543MOL0     H73289   7.712   7.280   5.984  0.4736 -1.3271  0.6993
  543MOL0     H73290   7.800   7.171   5.768 -0.1608 -2.0333  0.0458
  543MOL0     H73291   7.910   7.126   5.490 -0.8957 -0.1427 -0.3402
  543MOL0     H73292   8.092   7.073   5.356 -2.1977  2.1819  4.3814
  543MOL0     H73293   8.251   7.044   5.220  1.9721  0.3928 -1.1985
  543MOL0     H73294   8.294   7.151   5.074  1.5958 -0.3926 -2.4221
  543MOL0     H73295   8.232   6.949   4.936 -0.4066  1.4283  0.0620
  543MOL0     H73296   8.219   6.869   5.100 -3.2929  0.9591 -1.2045
  543MOL0     H73297   8.445   6.818   5.029 -0.7169 -0.3999 -1.1046
  543MOL0     H73298   8.461   6.950   5.150 -0.0148  2.8322 -1.4114
  543MOL0     H73299   8.437   7.027   4.855 -2.2059 -0.6281  0.9617
  543MOL0     H73300   8.511   7.113   4.982  1.7808 -0.2942 -0.0509
  543MOL0     H73301   8.840   6.860   4.879  2.4465  3.2465 -0.0092
  543MOL0     H73302   7.830   7.074   5.006  4.5244 -0.1389 -0.9365
  543MOL0     H73303   7.524   7.143   5.185 -1.4743 -1.9028 -0.3279
  543MOL0     H73304   7.614   7.132   5.030  1.4908  1.6973  0.2680
  543MOL0     H73305   7.587   6.987   5.139  5.9453 -1.2319 -2.0588
  544MOL0     O73306   9.668   5.164   3.402 -0.4830  1.0431  0.1354
  544MOL0     C73307   9.642   5.042   3.402  0.7843  0.7815  0.3284
  544MOL0     O73308   9.728   4.937   3.374 -0.4079 -0.3978 -0.2394
  544MOL0     C73309   9.871   4.954   3.361  0.3544  0.5656 -0.4404
  544MOL0     C73310   9.962   5.002   3.452  0.5203 -0.0627 -0.5073
  544MOL0     C73311  10.097   4.981   3.435 -0.3770  0.0784 -1.1198
  544MOL0     C73312  10.152   4.922   3.314 -1.1527 -0.1961  0.6117
  544MOL0     O73313  10.292   4.906   3.314 -0.3884  1.2621  0.1221
  544MOL0     C73314  10.369   4.889   3.188  0.8194 -0.3165 -0.1074
  544MOL0     C73315  10.406   5.033   3.139 -0.1959  0.5352 -0.3630
  544MOL0     C73316  10.498   5.102   3.243 -0.4053  0.6687 -0.3209
  544MOL0     C73317  10.581   5.213   3.191  0.0295  0.6364 -0.5770
  544MOL0     C73318  10.693   5.234   3.284 -0.0765 -0.1224 -0.0283
  544MOL0     C73319  10.655   5.249   3.428  0.6978 -0.1257  0.0525
  544MOL0     C73320  10.773   5.282   3.518 -0.4429 -0.1812  0.3410
  544MOL0     C73321  10.898   5.188   3.503  0.2442 -0.1526 -0.7575
  544MOL0     N73322  11.006   5.224   3.598 -0.5761 -0.0712  0.2527
  544MOL0     C73323  10.986   5.301   3.710  0.3009 -0.7858 -0.4919
  544MOL0     C73324  11.098   5.379   3.720  0.3954 -0.1795 -0.0025
  544MOL0     C73325  11.126   5.490   3.820 -0.7482 -0.2473 -0.4062
  544MOL0     C73326  11.168   5.611   3.742 -1.4073 -0.1380  0.4806
  544MOL0     C73327  11.142   5.746   3.812 -1.0192 -0.5391  0.3474
  544MOL0     C73328  10.999   5.764   3.871  0.2487  0.1326  0.7008
  544MOL0     O73329  10.910   5.692   3.784  0.9053  0.1936 -0.1981
  544MOL0     C73330  10.777   5.716   3.766 -2.0535  0.0019  0.8521
  544MOL0     C73331  10.712   5.828   3.802 -0.6931 -0.5995 -0.5315
  544MOL0     C73332  10.579   5.847   3.795  0.2770  0.5440  0.1724
  544MOL0     C73333  10.500   5.747   3.732  0.1380 -0.4352 -0.5151
  544MOL0     C73334  10.365   5.759   3.725 -0.4783 -0.4395  0.3109
  544MOL0     O73335  10.297   5.671   3.645 -0.8040  0.1022  0.5861
  544MOL0     C73336  10.161   5.693   3.617 -0.5382  0.0669  0.0192
  544MOL0     C73337  10.058   5.640   3.691  0.9391 -0.4465  0.1376
  544MOL0     C73338   9.920   5.654   3.641  0.2922  0.1928 -0.8067
  544MOL0     C73339   9.895   5.728   3.525 -0.7350  0.3026  0.7846
  544MOL0     O73340   9.761   5.747   3.504  0.2365  0.6179 -0.2722
  544MOL0     C73341   9.712   5.695   3.379 -0.0320  0.0326 -0.2747
  544MOL0     C73342   9.562   5.684   3.395 -0.4504 -0.4802  0.2097
  544MOL0     C73343   9.499   5.818   3.344  0.9277  0.2942 -0.3840
  544MOL0     C73344   9.359   5.798   3.272  0.4338  0.1299 -0.5200
  544MOL0     C73345   9.254   5.837   3.373  0.9308  0.2408 -0.8136
  544MOL0     C73346   9.206   5.716   3.461 -0.0617 -0.4248 -0.9695
  544MOL0     C73347   9.124   5.609   3.389 -0.0363 -0.7614 -0.4576
  544MOL0     C73348   9.056   5.517   3.485 -0.1861 -0.2901 -0.7876
  544MOL0    Cl73349   8.969   5.382   3.410 -0.3645  0.0462 -0.0027
  544MOL0     C73350  10.000   5.784   3.448 -0.0296  0.6495 -0.6086
  544MOL0     C73351  10.128   5.751   3.493 -0.4094  0.1015  0.2485
  544MOL0     O73352  10.314   5.835   3.799 -0.3358  0.5124 -0.4803
  544MOL0     C73353  10.565   5.636   3.686  0.4982 -0.2534  0.6557
  544MOL0     C73354  10.702   5.625   3.698  0.0915  0.2744 -0.1573
  544MOL0     N73355  11.186   5.343   3.619  0.8223  0.6522  0.1496
  544MOL0     N73356  11.135   5.249   3.556  0.2706  0.0430  0.3414
  544MOL0     C73357  10.064   4.887   3.221 -0.3107  0.1851  0.3142
  544MOL0     C73358   9.923   4.899   3.245 -0.2848 -0.2640 -0.8341
  544MOL0     C73359   9.495   5.017   3.437 -0.4782  0.3091  0.0366
  544MOL0     C73360   9.403   5.130   3.444  0.3013  0.3909  0.0696
  544MOL0     C73361   9.274   5.110   3.495  0.2864 -0.1863 -0.6841
  544MOL0     C73362   9.224   4.988   3.530  0.1084  0.3219  0.3100
  544MOL0     O73363   9.090   4.977   3.554 -0.9566 -0.2083  0.5148
  544MOL0     C73364   9.036   4.864   3.622  0.2385 -0.3050 -0.4924
  544MOL0     C73365   8.901   4.912   3.682  0.2495  0.0688 -0.8716
  544MOL0     C73366   8.926   5.007   3.805 -0.0483  0.0187 -0.1205
  544MOL0     C73367   8.988   4.940   3.927 -0.1689 -0.3696 -0.4223
  544MOL0     C73368   8.961   4.986   4.057  0.5232 -0.3141 -1.1645
  544MOL0     C73369   8.943   5.044   4.166 -0.2853  0.5743 -0.6702
  544MOL0     C73370   9.301   4.872   3.501  0.5715  0.2210 -0.7323
  544MOL0     C73371   9.437   4.892   3.472  0.3660  0.6501  0.1352
  544MOL0     C73372   9.509   4.762   3.450  0.8059 -0.7211  0.4482
  544MOL0     H73373   9.926   5.052   3.541  3.9230  0.9707  0.4395
  544MOL0     H73374  10.169   5.023   3.504 -1.6741  1.2032 -0.4114
  544MOL0     H73375  10.460   4.829   3.194  0.9835 -0.2581 -1.7385
  544MOL0     H73376  10.298   4.844   3.117 -2.6994 -2.0265  3.9873
  544MOL0     H73377  10.314   5.092   3.133 -1.3220 -1.2452 -2.7913
  544MOL0     H73378  10.455   5.028   3.041  1.4787  1.8255  0.3813
  544MOL0     H73379  10.555   5.034   3.307 -0.2195 -0.1111 -1.2956
  544MOL0     H73380  10.421   5.146   3.306 -0.9417  1.1621 -1.2871
  544MOL0     H73381  10.611   5.197   3.088  1.6383  0.8715 -0.1685
  544MOL0     H73382  10.517   5.301   3.191 -0.4060  0.3664  0.9939
  544MOL0     H73383  10.752   5.142   3.285  0.3045  0.1146  1.3457
  544MOL0     H73384  10.762   5.310   3.244  1.9250 -2.7945 -2.0175
  544MOL0     H73385  10.596   5.341   3.431 -0.9110 -0.8860 -3.0504
  544MOL0     H73386  10.593   5.166   3.462  0.2217  0.2539  0.1153
  544MOL0     H73387  10.749   5.279   3.624 -0.9034 -0.9689  0.2275
  544MOL0     H73388  10.805   5.383   3.490 -2.8431 -0.0179 -2.3700
  544MOL0     H73389  10.873   5.083   3.525  2.6964 -0.3128  1.6876
  544MOL0     H73390  10.933   5.186   3.399 -2.1378 -1.8303 -1.6295
  544MOL0     H73391  10.902   5.310   3.778  1.5023 -0.9098  1.0735
  544MOL0     H73392  11.046   5.507   3.893  0.3102 -3.5940  1.8134
  544MOL0     H73393  11.217   5.449   3.867 -0.0529  0.3304 -1.2231
  544MOL0     H73394  11.275   5.603   3.719 -1.1104  1.1554  1.3672
  544MOL0     H73395  11.120   5.625   3.645 -0.8541 -0.7354  0.1066
  544MOL0     H73396  11.165   5.829   3.743 -2.8746  0.0881  0.4393
  544MOL0     H73397  11.211   5.753   3.896 -0.1264 -0.6543 -0.3514
  544MOL0     H73398  10.991   5.872   3.885  1.0070  0.2742  0.1541
  544MOL0     H73399  10.987   5.718   3.969  0.6538  3.5242  2.4865
  544MOL0     H73400  10.777   5.910   3.831  0.6625 -2.1291  0.9633
  544MOL0     H73401  10.537   5.936   3.840  3.8129  0.1241  5.3145
  544MOL0     H73402  10.066   5.582   3.783 -1.7359  0.5373  1.0855
  544MOL0     H73403   9.839   5.618   3.704  0.6279 -0.1116 -0.5450
  544MOL0     H73404   9.749   5.748   3.291 -2.0493 -1.0443 -1.8557
  544MOL0     H73405   9.759   5.597   3.371  1.1015  0.5900 -0.7332
  544MOL0     H73406   9.529   5.593   3.345  3.9135 -1.7734 -0.8114
  544MOL0     H73407   9.541   5.672   3.502  0.3350 -1.2079  0.2965
  544MOL0     H73408   9.493   5.890   3.426  0.0444 -0.2256  0.0168
  544MOL0     H73409   9.556   5.862   3.262 -0.4024  0.1685 -1.4140
  544MOL0     H73410   9.343   5.697   3.233  1.8649 -1.0097  1.6535
  544MOL0     H73411   9.346   5.872   3.192 -0.2409  0.3877 -0.1831
  544MOL0     H73412   9.168   5.866   3.310  0.0010  0.0711  0.3443
  544MOL0     H73413   9.271   5.926   3.435 -1.9688  1.1542 -1.1720
  544MOL0     H73414   9.285   5.667   3.518  1.9156 -0.0606 -3.2374
  544MOL0     H73415   9.145   5.776   3.530 -0.1164  0.0632 -1.4384
  544MOL0     H73416   9.197   5.561   3.323  0.4399  1.5536 -1.7253
  544MOL0     H73417   9.047   5.651   3.324  0.2948  2.2227  0.8980
  544MOL0     H73418   9.133   5.472   3.548 -2.1426 -4.2200 -0.8828
  544MOL0     H73419   8.991   5.576   3.550  0.0294 -2.1645  1.2474
  544MOL0     H73420   9.980   5.830   3.352 -3.4527 -2.4224 -1.5735
  544MOL0     H73421  10.210   5.773   3.425  1.2253  0.1872  2.1791
  544MOL0     H73422  10.513   5.559   3.630  2.4494 -0.8698 -0.3813
  544MOL0     H73423  10.753   5.540   3.655 -0.0893 -0.0661  0.2907
  544MOL0     H73424  10.089   4.845   3.124 -0.1756  0.5999  0.1673
  544MOL0     H73425   9.856   4.860   3.169  1.8858 -2.1816 -1.9047
  544MOL0     H73426   9.422   5.232   3.411 -0.6485 -0.3404 -3.0473
  544MOL0     H73427   9.212   5.197   3.512 -0.3052 -0.5382 -0.9967
  544MOL0     H73428   9.095   4.835   3.710 -1.6836  0.1388  0.9897
  544MOL0     H73429   9.016   4.779   3.556 -2.1033  1.0086 -1.5959
  544MOL0     H73430   8.835   4.829   3.709  0.3303  1.1007  3.2477
  544MOL0     H73431   8.853   4.972   3.604 -1.3022 -0.4271 -0.3436
  544MOL0     H73432   8.825   5.041   3.829 -0.2513  0.0484 -0.9796
  544MOL0     H73433   8.982   5.098   3.783 -2.6797  1.2747 -2.1307
  544MOL0     H73434   8.955   4.836   3.921 -3.6492  0.5613 -0.0933
  544MOL0     H73435   9.096   4.929   3.918 -0.0974 -0.1377  0.0988
  544MOL0     H73436   8.902   5.077   4.260 -1.0371  0.1698 -0.8451
  544MOL0     H73437   9.250   4.777   3.506 -2.0997  1.5245 -1.3112
  544MOL0     H73438   9.609   4.774   3.492  0.9978 -1.1673  0.1283
  544MOL0     H73439   9.455   4.677   3.492  1.3105 -1.4600 -0.3612
  544MOL0     H73440   9.513   4.732   3.345 -1.1472 -1.0912  0.4491
  545MOL0     O73441   5.332   3.375   9.589 -0.4933 -0.0238  0.0923
  545MOL0     C73442   5.403   3.279   9.614  0.2288  0.2128  0.3550
  545MOL0     O73443   5.425   3.220   9.740 -0.1385 -0.1615 -0.1422
  545MOL0     C73444   5.386   3.279   9.858 -1.1758 -0.1154  0.5168
  545MOL0     C73445   5.441   3.409   9.893 -1.0027 -0.1106  1.1537
  545MOL0     C73446   5.416   3.452  10.019 -0.0273 -0.2355  0.7670
  545MOL0     C73447   5.331   3.390  10.104 -0.6929  0.6046  0.4589
  545MOL0     O73448   5.295   3.444  10.233  0.7160  0.4262  1.0896
  545MOL0     C73449   5.292   3.587  10.245  1.0387 -0.1932 -0.3100
  545MOL0     C73450   5.407   3.639  10.337 -0.1692 -0.3496 -0.0479
  545MOL0     C73451   5.553   3.617  10.283  0.0651 -0.4372  0.6837
  545MOL0     C73452   5.589   3.721  10.177  0.1030  0.1083 -0.1995
  545MOL0     C73453   5.703   3.665  10.094 -0.1027 -0.7329  0.4374
  545MOL0     C73454   5.826   3.644  10.191  0.0425 -0.8099 -0.1795
  545MOL0     C73455   5.968   3.612  10.126  0.6799  0.0450  0.1034
  545MOL0     C73456   6.064   3.573  10.234 -0.7348  0.0672 -0.6258
  545MOL0     N73457   6.176   3.491  10.172  0.9965  0.1837  0.2285
  545MOL0     C73458   6.243   3.392  10.254  0.1616 -0.0156 -0.0323
  545MOL0     C73459   6.340   3.347  10.169  1.1082 -0.4932  0.6254
  545MOL0     C73460   6.450   3.259  10.193 -0.6920 -0.5361  0.0754
  545MOL0     C73461   6.576   3.327  10.254  0.3905  0.1771  0.0910
  545MOL0     C73462   6.541   3.431  10.356  0.2252  0.5134 -0.0675
  545MOL0     C73463   6.665   3.464  10.438 -0.7811 -0.0789  0.2019
  545MOL0     O73464   6.685   3.379  10.555  1.0193 -0.6400 -0.0201
  545MOL0     C73465   6.798   3.407  10.626 -0.8631 -0.2621 -0.1921
  545MOL0     C73466   6.796   3.504  10.732  0.1800  0.0463  0.3416
  545MOL0     C73467   6.913   3.537  10.804  0.1533  0.3039 -0.0012
  545MOL0     C73468   7.039   3.479  10.772 -0.6626  0.3866  0.9979
  545MOL0     C73469   7.166   3.526  10.837  0.2821  0.0344  0.1673
  545MOL0     O73470   7.151   3.629  10.920  0.9312  0.2422  0.2471
  545MOL0     C73471   7.254   3.695  10.971 -1.1021 -0.0006 -0.1270
  545MOL0     C73472   7.333   3.768  10.875  0.6493  0.2129 -0.0747
  545MOL0     C73473   7.447   3.850  10.904 -0.8681 -0.0674  0.5821
  545MOL0     C73474   7.488   3.847  11.044  0.1119  0.1920 -0.4984
  545MOL0     O73475   7.592   3.927  11.091 -0.3376 -0.4426 -0.9972
  545MOL0     C73476   7.575   4.061  11.044  0.2899  0.1111  0.7604
  545MOL0     C73477   7.627   4.168  11.141  0.3209 -0.7865  0.0361
  545MOL0     C73478   7.783   4.158  11.165  0.2753  0.3699 -0.2434
  545MOL0     C73479   7.819   4.154  11.322 -0.2629  0.3669 -0.0681
  545MOL0     C73480   7.962   4.111  11.342 -0.0359  0.0334  0.2509
  545MOL0     C73481   7.992   4.099  11.492  0.0036 -0.7342  0.6684
  545MOL0     C73482   8.120   4.025  11.529  0.4934 -0.0280 -0.3017
  545MOL0     C73483   8.179   4.068  11.665  0.0003 -0.4053  0.1428
  545MOL0    Cl73484   8.305   3.947  11.700 -0.4996  0.1518 -0.5160
  545MOL0     C73485   7.407   3.778  11.137 -0.6196 -0.9559  0.2606
  545MOL0     C73486   7.295   3.701  11.104  0.1646 -0.6667  0.3106
  545MOL0     O73487   7.272   3.466  10.807 -0.5543  0.0129 -0.4768
  545MOL0     C73488   7.034   3.381  10.671  0.5124 -1.0730 -0.4502
  545MOL0     C73489   6.923   3.344  10.603 -0.4956 -0.6413  0.1093
  545MOL0     N73490   6.323   3.412  10.054 -0.0981  0.6213  0.1804
  545MOL0     N73491   6.226   3.499  10.048  0.3646 -0.3278 -0.6496
  545MOL0     C73492   5.278   3.271  10.065  0.4600 -0.2684  0.2077
  545MOL0     C73493   5.313   3.207   9.944  0.1999 -1.2208 -0.0091
  545MOL0     C73494   5.457   3.208   9.499 -0.8702 -1.0787  0.2403
  545MOL0     C73495   5.412   3.074   9.480  0.0103  0.2846 -0.6300
  545MOL0     C73496   5.457   2.999   9.374  0.5424  0.2953  0.0576
  545MOL0     C73497   5.545   3.052   9.279  0.2625 -0.1036  0.0214
  545MOL0     O73498   5.583   2.957   9.188 -0.2730 -0.4465 -0.4473
  545MOL0     C73499   5.581   3.005   9.049  0.2153  0.7723 -0.5586
  545MOL0     C73500   5.455   3.089   9.003  0.4790  0.7572 -0.9065
  545MOL0     C73501   5.432   3.096   8.844  1.1075  0.0613 -0.1720
  545MOL0     C73502   5.506   3.202   8.776 -0.6780 -0.9832  0.5965
  545MOL0     C73503   5.653   3.197   8.801 -1.1300 -0.3521  0.2878
  545MOL0     C73504   5.773   3.185   8.819 -0.8467 -0.3313  0.3250
  545MOL0     C73505   5.579   3.192   9.289  0.6752 -0.2658  0.0090
  545MOL0     C73506   5.530   3.270   9.397 -0.5287 -0.5065  0.4768
  545MOL0     C73507   5.592   3.407   9.412 -0.4540  0.7243  1.1858
  545MOL0     H73508   5.498   3.462   9.817 -1.5173 -0.9042  0.1843
  545MOL0     H73509   5.452   3.551  10.041  3.8125 -1.5556  1.2377
  545MOL0     H73510   5.286   3.649  10.155 -1.1656  0.0866 -0.0346
  545MOL0     H73511   5.197   3.608  10.296 -0.5027 -1.3752 -2.4821
  545MOL0     H73512   5.397   3.581  10.429  2.3803  2.5862  2.3306
  545MOL0     H73513   5.397   3.745  10.362  2.0178 -0.0454 -0.1985
  545MOL0     H73514   5.551   3.514  10.246 -0.9966 -0.8003  1.7008
  545MOL0     H73515   5.627   3.618  10.364  1.4337 -0.5635 -0.5234
  545MOL0     H73516   5.508   3.739  10.106  0.8538 -0.6754 -1.3191
  545MOL0     H73517   5.621   3.817  10.219 -1.6003  0.9024 -0.6462
  545MOL0     H73518   5.674   3.571  10.046 -4.7651  0.6062  0.2359
  545MOL0     H73519   5.726   3.739  10.017  0.4462 -1.3773 -0.0277
  545MOL0     H73520   5.839   3.734  10.251  1.6220 -1.9185  1.2434
  545MOL0     H73521   5.807   3.568  10.267 -1.8103  0.2173  0.4192
  545MOL0     H73522   5.997   3.708  10.083 -2.1071  1.4241  1.0736
  545MOL0     H73523   5.947   3.526  10.062 -1.1900 -0.2196  1.0206
  545MOL0     H73524   6.090   3.667  10.284 -3.0425  1.4803 -1.8768
  545MOL0     H73525   6.012   3.505  10.302 -1.3080  0.4648 -0.6543
  545MOL0     H73526   6.217   3.357  10.353 -0.3493 -1.0366 -0.5151
  545MOL0     H73527   6.418   3.175  10.256  1.2384  0.8354  3.1360
  545MOL0     H73528   6.472   3.214  10.095 -0.1437  0.4720 -0.2739
  545MOL0     H73529   6.644   3.250  10.292  2.4014  3.1494  3.0949
  545MOL0     H73530   6.618   3.370  10.163 -0.9860 -1.6310 -1.4894
  545MOL0     H73531   6.460   3.397  10.421 -1.2985 -0.8456 -2.5015
  545MOL0     H73532   6.505   3.527  10.317 -0.2052  0.4602  0.1940
  545MOL0     H73533   6.653   3.565  10.477 -2.0837 -0.5751  1.1211
  545MOL0     H73534   6.755   3.464  10.375  1.6843 -1.4503  3.4476
  545MOL0     H73535   6.703   3.557  10.752  2.0486  3.3153  1.0881
  545MOL0     H73536   6.912   3.600  10.892  0.7868  0.4304 -0.0793
  545MOL0     H73537   7.301   3.783  10.772 -3.0995  0.3298  0.9767
  545MOL0     H73538   7.502   3.910  10.833  2.3058 -1.5059  1.6516
  545MOL0     H73539   7.630   4.067  10.950 -0.3351  0.3316  0.4034
  545MOL0     H73540   7.470   4.081  11.019  0.3934 -0.1742  0.0606
  545MOL0     H73541   7.597   4.268  11.111  0.1496 -0.7926  0.1829
  545MOL0     H73542   7.572   4.155  11.235  0.4850 -0.8522  0.1243
  545MOL0     H73543   7.821   4.062  11.130 -1.9486 -0.3359 -0.8738
  545MOL0     H73544   7.839   4.239  11.117 -1.2686  0.3513 -2.1548
  545MOL0     H73545   7.748   4.090  11.376 -2.5629  0.7563 -2.4129
  545MOL0     H73546   7.809   4.256  11.359 -1.6536 -0.0155  0.6687
  545MOL0     H73547   8.029   4.180  11.290  0.8490 -0.4170  0.7605
  545MOL0     H73548   7.982   4.012  11.300 -0.4269  0.2700 -0.5005
  545MOL0     H73549   8.002   4.192  11.548 -0.6136 -1.6983  2.4700
  545MOL0     H73550   7.897   4.057  11.527 -0.9237  0.6935 -0.0583
  545MOL0     H73551   8.180   4.045  11.440  1.3030 -0.7874  0.0602
  545MOL0     H73552   8.102   3.918  11.538 -0.2601  0.0642 -0.6255
  545MOL0     H73553   8.220   4.169  11.670 -4.8826  1.9927 -1.3412
  545MOL0     H73554   8.103   4.056  11.743 -0.5267 -4.6870 -0.7340
  545MOL0     H73555   7.430   3.784  11.243 -2.5354 -0.2139  0.6635
  545MOL0     H73556   7.254   3.637  11.182  2.8428 -2.5077  0.3258
  545MOL0     H73557   7.122   3.322  10.651 -0.3995 -4.7557  4.3513
  545MOL0     H73558   6.944   3.274  10.524  2.8776 -0.5372  0.7628
  545MOL0     H73559   5.203   3.229  10.132  0.9168  3.0754  3.0980
  545MOL0     H73560   5.300   3.101   9.925  3.0523 -1.8757  1.0934
  545MOL0     H73561   5.342   3.034   9.554 -0.4565  2.1942  0.0037
  545MOL0     H73562   5.439   2.893   9.382 -1.7928  0.6866  0.8537
  545MOL0     H73563   5.570   2.914   8.989  1.2173 -0.2256  0.7218
  545MOL0     H73564   5.676   3.059   9.039  1.3427 -1.0995 -0.4968
  545MOL0     H73565   5.459   3.191   9.041 -0.2822  0.2002  0.7676
  545MOL0     H73566   5.372   3.036   9.051  2.0107 -0.5078  0.4227
  545MOL0     H73567   5.326   3.110   8.823  0.5258 -1.4887  1.3674
  545MOL0     H73568   5.458   2.997   8.806 -0.5512 -0.5159  0.1247
  545MOL0     H73569   5.499   3.203   8.666  0.8562 -1.4240  0.4727
  545MOL0     H73570   5.475   3.300   8.812  0.8023 -0.4227  0.4225
  545MOL0     H73571   5.878   3.168   8.830 -0.7618 -0.9775 -1.1651
  545MOL0     H73572   5.636   3.235   9.207 -0.2086  0.3408 -0.2903
  545MOL0     H73573   5.523   3.481   9.371 -4.5259 -2.6517  1.2167
  545MOL0     H73574   5.603   3.424   9.519  0.5609 -0.2736  1.2652
  545MOL0     H73575   5.696   3.408   9.376 -0.8362 -0.1088 -0.0191
  546MOL0     O73576   6.107   8.691   2.544 -0.2298  0.4127  0.3007
  546MOL0     C73577   6.043   8.591   2.511 -0.8452  0.2811 -0.4340
  546MOL0     O73578   5.991   8.570   2.387 -0.1908  0.0671 -0.0528
  546MOL0     C73579   5.999   8.660   2.284 -1.2203  0.1323 -0.0611
  546MOL0     C73580   5.944   8.789   2.297 -0.4847  0.5896 -0.2769
  546MOL0     C73581   5.941   8.877   2.189  0.7270 -0.2157 -0.8132
  546MOL0     C73582   5.966   8.835   2.061 -1.4028  0.4722 -0.2273
  546MOL0     O73583   5.951   8.930   1.962  0.2728 -0.4752  0.4033
  546MOL0     C73584   5.929   8.881   1.828  0.6523 -0.3395  1.1300
  546MOL0     C73585   5.899   8.987   1.724  0.1780  0.2473  1.0698
  546MOL0     C73586   5.770   9.059   1.743 -0.5273 -0.2450  1.0558
  546MOL0     C73587   5.744   9.136   1.618  0.9056 -0.0560  0.3775
  546MOL0     C73588   5.589   9.158   1.592  0.3077 -0.0810  0.3977
  546MOL0     C73589   5.522   9.037   1.547 -0.2648 -0.3644  0.2431
  546MOL0     C73590   5.382   9.066   1.490 -0.3249  0.2873 -0.3603
  546MOL0     C73591   5.279   9.084   1.599  0.5791 -0.2910 -0.5499
  546MOL0     N73592   5.168   9.150   1.538  0.1759  0.5355 -0.1639
  546MOL0     C73593   5.086   9.095   1.430 -0.2354  0.7216  0.2056
  546MOL0     C73594   4.986   9.191   1.424 -0.9014 -0.3265  0.2242
  546MOL0     C73595   4.895   9.167   1.315  0.6741  1.0536 -0.1832
  546MOL0     C73596   4.758   9.244   1.330 -0.8281 -0.2786 -0.4167
  546MOL0     C73597   4.759   9.398   1.278  0.4339  0.0246 -0.7068
  546MOL0     C73598   4.649   9.466   1.349  0.2362  0.5800  1.7292
  546MOL0     O73599   4.594   9.568   1.274  0.2171 -0.7311  0.8051
  546MOL0     C73600   4.489   9.644   1.321 -0.3211 -0.2521  0.2482
  546MOL0     C73601   4.457   9.751   1.239 -0.0434  0.7323  0.1621
  546MOL0     C73602   4.371   9.854   1.273  0.4181  0.3374 -0.3937
  546MOL0     C73603   4.294   9.841   1.398 -0.0916  0.0622  0.1968
  546MOL0     C73604   4.208   9.954   1.450  0.8644  0.0337  0.4446
  546MOL0     O73605   4.188  10.060   1.360  0.4688 -1.0965 -0.0720
  546MOL0     C73606   4.123  10.170   1.387  0.4576 -0.0035 -0.2460
  546MOL0     C73607   4.013  10.203   1.314 -1.2861 -0.1436  0.1968
  546MOL0     C73608   3.953  10.329   1.331 -0.5208  0.6809 -0.0246
  546MOL0     C73609   3.988  10.410   1.440  0.9868  0.8753 -0.1465
  546MOL0     O73610   3.918  10.522   1.468  0.3477 -1.1837 -0.3068
  546MOL0     C73611   3.783  10.519   1.449 -0.6286 -1.3440  0.2704
  546MOL0     C73612   3.714  10.406   1.534  0.3979  0.0269 -0.1795
  546MOL0     C73613   3.558  10.421   1.567 -0.0187  0.5540  0.3194
  546MOL0     C73614   3.496  10.283   1.617  0.2337 -0.2760  0.0313
  546MOL0     C73615   3.347  10.285   1.669 -0.2295  0.2907  0.0965
  546MOL0     C73616   3.280  10.149   1.649  0.5505 -0.1666  0.0178
  546MOL0     C73617   3.134  10.146   1.704 -0.2435 -0.2034  0.4693
  546MOL0     C73618   3.069  10.013   1.677 -0.4648 -0.6694  0.6409
  546MOL0    Cl73619   2.938   9.973   1.785 -0.4600 -0.0996  0.5985
  546MOL0     C73620   4.095  10.374   1.529  0.7736 -0.5127 -0.5164
  546MOL0     C73621   4.169  10.255   1.492 -0.5836 -0.3416 -0.3320
  546MOL0     O73622   4.168   9.954   1.567  0.4956  0.5153  0.0462
  546MOL0     C73623   4.314   9.721   1.473  0.1610 -0.2230  0.1853
  546MOL0     C73624   4.418   9.629   1.442 -0.0165 -0.3931  0.5483
  546MOL0     N73625   5.005   9.299   1.513 -0.6532 -0.2423  0.3721
  546MOL0     N73626   5.112   9.262   1.587 -0.1605 -0.7648 -0.3038
  546MOL0     C73627   6.032   8.705   2.053 -0.0160 -1.2892  0.3478
  546MOL0     C73628   6.046   8.618   2.157  0.7013 -0.1369 -0.0265
  546MOL0     C73629   6.025   8.478   2.608 -0.3854 -0.6073  0.9016
  546MOL0     C73630   5.983   8.357   2.551 -0.2521 -0.5280  0.1447
  546MOL0     C73631   5.977   8.246   2.624 -0.3782  0.3918 -0.7868
  546MOL0     C73632   6.008   8.238   2.759 -0.2392 -0.1631  0.3035
  546MOL0     O73633   5.990   8.116   2.812 -0.5717  0.8666 -0.4158
  546MOL0     C73634   5.974   8.100   2.949 -0.0190  0.8245  0.6759
  546MOL0     C73635   5.906   7.959   2.970 -0.5714 -0.6450 -0.5135
  546MOL0     C73636   6.018   7.855   2.963 -0.1851 -0.1756  0.1835
  546MOL0     C73637   5.980   7.728   3.034 -1.5692 -1.1496  0.2300
  546MOL0     C73638   5.849   7.666   2.988  0.7815 -0.4552 -0.1084
  546MOL0     C73639   5.755   7.602   2.935  0.4872  0.4615 -1.1151
  546MOL0     C73640   6.058   8.354   2.822  0.3900  0.0978  0.8380
  546MOL0     C73641   6.064   8.475   2.746  0.3030  1.1958  0.6727
  546MOL0     C73642   6.111   8.597   2.833  0.4001 -0.4814 -0.5151
  546MOL0     H73643   5.901   8.821   2.391 -0.4621  3.9501 -1.3022
  546MOL0     H73644   5.893   8.973   2.206  0.9788 -0.1919 -0.2028
  546MOL0     H73645   6.013   8.820   1.795 -0.3576 -0.0445 -2.4284
  546MOL0     H73646   5.841   8.816   1.844  1.6065 -1.6632  1.1723
  546MOL0     H73647   5.893   8.926   1.633 -0.9833  0.7446  0.8008
  546MOL0     H73648   5.978   9.062   1.721  0.2583  0.1778 -2.1040
  546MOL0     H73649   5.782   9.132   1.824 -0.2313 -0.0629  0.8507
  546MOL0     H73650   5.694   8.984   1.768 -0.8790 -1.3727 -2.8015
  546MOL0     H73651   5.791   9.234   1.633 -0.3167  0.1045  4.1040
  546MOL0     H73652   5.788   9.089   1.529 -0.0158  0.0422 -0.1349
  546MOL0     H73653   5.536   9.193   1.681 -1.3734  0.1903 -0.6667
  546MOL0     H73654   5.578   9.238   1.518 -0.2053  0.3375  0.9162
  546MOL0     H73655   5.580   8.986   1.470  0.3892  2.1488 -1.0370
  546MOL0     H73656   5.519   8.966   1.630 -2.4028 -1.3154 -0.5670
  546MOL0     H73657   5.350   8.993   1.414  1.2991  0.6079 -1.3984
  546MOL0     H73658   5.389   9.162   1.439  0.0026  0.7120  0.4838
  546MOL0     H73659   5.258   8.984   1.638 -0.9559  1.0688  2.5154
  546MOL0     H73660   5.315   9.140   1.686 -4.3953  0.5589  1.3088
  546MOL0     H73661   5.106   9.007   1.370  2.0088  1.8875 -0.9280
  546MOL0     H73662   4.926   9.206   1.217  1.1604 -3.9379 -2.3217
  546MOL0     H73663   4.870   9.061   1.306  0.4181  1.2397 -2.2976
  546MOL0     H73664   4.673   9.188   1.289  0.0155  0.2158 -3.0172
  546MOL0     H73665   4.739   9.243   1.438 -1.3095 -2.2565 -0.4678
  546MOL0     H73666   4.774   9.406   1.170 -0.5708 -3.1509 -1.1880
  546MOL0     H73667   4.856   9.435   1.312  1.1074 -1.2176 -1.1869
  546MOL0     H73668   4.699   9.492   1.443 -0.7930 -0.4174  2.5800
  546MOL0     H73669   4.569   9.395   1.373 -0.2636  0.4114 -0.2541
  546MOL0     H73670   4.500   9.747   1.140 -2.7105  2.3416 -1.2032
  546MOL0     H73671   4.354   9.939   1.208  0.5661  0.5829 -0.1103
  546MOL0     H73672   3.984  10.132   1.237 -2.6592 -1.8968  2.2131
  546MOL0     H73673   3.863  10.341   1.271 -0.4998 -1.4793 -0.5548
  546MOL0     H73674   3.747  10.614   1.489  0.4861 -0.7400 -0.1067
  546MOL0     H73675   3.748  10.534   1.346  0.5607  1.5568  0.1905
  546MOL0     H73676   3.722  10.309   1.485  2.5243  0.1175 -0.1074
  546MOL0     H73677   3.773  10.390   1.624  0.6060 -0.3535 -0.3813
  546MOL0     H73678   3.542  10.487   1.652 -0.2628  0.2983  0.4782
  546MOL0     H73679   3.504  10.449   1.476  2.3199  0.3439 -1.2229
  546MOL0     H73680   3.560  10.249   1.700 -0.2442  0.5546  0.7564
  546MOL0     H73681   3.506  10.215   1.532 -0.3560 -0.3195 -0.0117
  546MOL0     H73682   3.295  10.354   1.601  1.6937  1.5639 -0.1812
  546MOL0     H73683   3.347  10.330   1.769 -1.8448  0.6538 -0.0434
  546MOL0     H73684   3.271  10.142   1.540  0.4182  0.5033 -0.0189
  546MOL0     H73685   3.334  10.063   1.689 -2.2214 -1.8556  0.3532
  546MOL0     H73686   3.073  10.231   1.674  4.1534  2.4190 -2.0850
  546MOL0     H73687   3.137  10.149   1.814 -2.8455 -0.4406  0.6013
  546MOL0     H73688   3.027   9.995   1.578 -0.5633  0.8028  0.3951
  546MOL0     H73689   3.132   9.925   1.695  0.1027 -0.0373  1.8413
  546MOL0     H73690   4.118  10.407   1.630 -0.7531 -1.6115  0.2377
  546MOL0     H73691   4.248  10.217   1.556 -1.6263 -1.8442  0.1388
  546MOL0     H73692   4.256   9.696   1.561  1.7204  0.9982  1.6181
  546MOL0     H73693   4.437   9.552   1.517 -0.0468  1.9254  3.0975
  546MOL0     H73694   6.065   8.660   1.959  0.9753  0.6539 -0.2969
  546MOL0     H73695   6.077   8.513   2.155  0.5748 -0.2741  2.0868
  546MOL0     H73696   5.969   8.347   2.444 -2.0595 -3.0102  0.5394
  546MOL0     H73697   5.958   8.149   2.580  0.9839 -0.9237  1.3316
  546MOL0     H73698   5.898   8.175   2.975  0.8936  2.7184 -1.7850
  546MOL0     H73699   6.067   8.110   3.005  0.8951 -0.0224 -0.6547
  546MOL0     H73700   5.824   7.942   2.899 -2.5993 -1.9968  1.9570
  546MOL0     H73701   5.852   7.949   3.065  1.2545 -1.1242  0.5139
  546MOL0     H73702   6.110   7.896   3.005 -1.4740  1.5306  1.4767
  546MOL0     H73703   6.029   7.839   2.855  0.6232 -1.0920  0.3843
  546MOL0     H73704   6.066   7.660   3.030  0.4052  1.2009  0.0712
  546MOL0     H73705   5.969   7.750   3.140  1.3110  0.6278  0.2787
  546MOL0     H73706   5.691   7.536   2.880  0.0583 -1.7653  1.8100
  546MOL0     H73707   6.078   8.352   2.928 -0.3692 -4.9263  1.1293
  546MOL0     H73708   6.027   8.661   2.862 -2.3465 -4.2150  0.4256
  546MOL0     H73709   6.174   8.573   2.919  0.3556  2.3161  0.3902
  546MOL0     H73710   6.177   8.660   2.773  0.2442 -0.1661 -0.3605
  547MOL0     O73711   7.411   8.551   6.230  0.0739 -0.2316  0.2538
  547MOL0     C73712   7.315   8.622   6.241  0.2283  0.2210  0.1679
  547MOL0     O73713   7.316   8.762   6.241  0.1300  0.1818  0.7051
  547MOL0     C73714   7.426   8.839   6.208 -0.1102  0.3414 -0.0707
  547MOL0     C73715   7.398   8.966   6.148  1.4050 -0.0439 -0.2980
  547MOL0     C73716   7.500   9.060   6.128 -0.8090  0.7653  0.4795
  547MOL0     C73717   7.635   9.029   6.166  0.4688  0.1898 -0.2829
  547MOL0     O73718   7.734   9.125   6.160  0.5104  1.1376  0.4168
  547MOL0     C73719   7.807   9.128   6.040 -0.2206  0.3712  0.1811
  547MOL0     C73720   7.864   9.266   6.008  0.3474 -0.3241 -0.4530
  547MOL0     C73721   7.963   9.317   6.107  0.3227  0.5186  0.7394
  547MOL0     C73722   8.074   9.384   6.039  0.4796  0.2150 -0.1420
  547MOL0     C73723   8.179   9.451   6.133 -0.8896  0.2777  0.3334
  547MOL0     C73724   8.284   9.531   6.061  0.5854 -0.2751 -0.5658
  547MOL0     C73725   8.384   9.601   6.154 -0.3580  0.5685  0.5227
  547MOL0     C73726   8.485   9.688   6.069 -0.0994 -0.9673 -0.8395
  547MOL0     N73727   8.591   9.748   6.149 -0.1996  0.3400 -0.2291
  547MOL0     C73728   8.571   9.838   6.254 -0.4117 -0.4036  0.2409
  547MOL0     C73729   8.693   9.831   6.323 -0.2464 -0.1668 -0.9962
  547MOL0     C73730   8.729   9.888   6.455  0.7016 -0.5464  0.1346
  547MOL0     C73731   8.691   9.803   6.579  0.3607  0.6840  0.3887
  547MOL0     C73732   8.721   9.865   6.716 -0.7641  0.5255 -0.6861
  547MOL0     C73733   8.640   9.801   6.824  0.8835  1.1663  0.1285
  547MOL0     O73734   8.503   9.857   6.815 -0.1848 -1.5315 -1.2180
  547MOL0     C73735   8.402   9.833   6.914 -0.6937  0.3407 -0.1064
  547MOL0     C73736   8.291   9.919   6.902 -0.3946  0.3380 -0.4231
  547MOL0     C73737   8.196   9.929   7.007 -0.1231  0.7179 -0.0458
  547MOL0     C73738   8.210   9.854   7.130 -0.9079 -1.0091  0.2408
  547MOL0     C73739   8.125   9.877   7.247 -0.0479  0.2339 -0.0151
  547MOL0     O73740   8.028   9.959   7.234  0.6499  0.2717 -0.8892
  547MOL0     C73741   7.938   9.982   7.331 -0.2854 -0.1444  0.3582
  547MOL0     C73742   7.818  10.047   7.299  0.1754 -1.0659 -0.4513
  547MOL0     C73743   7.734  10.098   7.398  0.8601  1.5597  0.0227
  547MOL0     C73744   7.759  10.071   7.533  0.6238  0.4163  1.4034
  547MOL0     O73745   7.675  10.116   7.631  0.3251  0.1258  0.2081
  547MOL0     C73746   7.557  10.188   7.596  0.8317 -0.2726  0.4853
  547MOL0     C73747   7.496  10.233   7.724  0.3826  0.0483  0.3404
  547MOL0     C73748   7.357  10.290   7.705 -0.3689 -0.1445  0.5727
  547MOL0     C73749   7.350  10.401   7.601  0.1371 -0.4851 -0.2566
  547MOL0     C73750   7.217  10.489   7.626 -0.4297 -0.5945  0.6615
  547MOL0     C73751   7.181  10.584   7.502 -0.4797  0.7686 -0.4701
  547MOL0     C73752   7.054  10.668   7.535 -0.2669  0.5715  0.0870
  547MOL0     C73753   7.045  10.797   7.445  0.3216 -0.6209  0.6855
  547MOL0    Cl73754   6.882  10.864   7.468  0.3455  0.3407  0.4284
  547MOL0     C73755   7.872  10.007   7.567 -0.5513  0.8164 -0.1810
  547MOL0     C73756   7.966   9.960   7.470  0.4436 -0.2891 -0.3051
  547MOL0     O73757   8.148   9.797   7.346  0.3101 -0.1405  0.5733
  547MOL0     C73758   8.325   9.767   7.126  0.5951  1.2210  0.2075
  547MOL0     C73759   8.419   9.752   7.021  0.2942  0.0438 -0.0320
  547MOL0     N73760   8.784   9.756   6.250  0.5038  0.0500  0.8346
  547MOL0     N73761   8.725   9.723   6.137  0.1381  0.2720 -0.3187
  547MOL0     C73762   7.667   8.899   6.216  0.8114  0.1432  0.1534
  547MOL0     C73763   7.559   8.813   6.236  0.0918  0.1575 -0.4728
  547MOL0     C73764   7.182   8.571   6.252 -0.4143  0.2796 -0.0597
  547MOL0     C73765   7.168   8.444   6.195  0.0074  0.1157  0.3134
  547MOL0     C73766   7.035   8.385   6.175 -0.5752 -0.3366 -0.7237
  547MOL0     C73767   6.928   8.463   6.211 -0.5663 -0.1617  0.9526
  547MOL0     O73768   6.808   8.399   6.193  0.2581 -0.0541  0.5736
  547MOL0     C73769   6.682   8.471   6.218  1.0962 -0.2338  0.1991
  547MOL0     C73770   6.569   8.381   6.179 -0.6698  0.6834 -0.1233
  547MOL0     C73771   6.441   8.460   6.189  0.4682 -0.9984 -0.0706
  547MOL0     C73772   6.310   8.375   6.162  0.8220 -0.3164  0.4072
  547MOL0     C73773   6.204   8.472   6.112 -0.4317  0.2896  0.3907
  547MOL0     C73774   6.116   8.538   6.065  0.3304 -0.0386 -0.0812
  547MOL0     C73775   6.944   8.584   6.270 -0.2641  0.7760  0.5111
  547MOL0     C73776   7.069   8.646   6.297 -0.0791  0.2024  0.7610
  547MOL0     C73777   7.068   8.781   6.372  0.5552  0.8387  0.4753
  547MOL0     H73778   7.299   9.006   6.129  1.9436  3.3597  3.0008
  547MOL0     H73779   7.477   9.153   6.077 -1.2638  1.3745  1.7626
  547MOL0     H73780   7.896   9.066   6.053 -3.4912 -4.4030  2.3392
  547MOL0     H73781   7.745   9.095   5.956  1.3190  2.7871 -2.0707
  547MOL0     H73782   7.783   9.340   6.002  0.3901  0.2029  3.1872
  547MOL0     H73783   7.913   9.261   5.910  4.2903  0.0195  1.3513
  547MOL0     H73784   8.001   9.228   6.159 -3.9617 -1.9041  0.2311
  547MOL0     H73785   7.911   9.382   6.178  2.0723  2.5034  0.2668
  547MOL0     H73786   8.136   9.320   5.977  1.7791 -0.4813  1.7741
  547MOL0     H73787   8.032   9.457   5.969 -0.3480  0.5260  0.6531
  547MOL0     H73788   8.123   9.515   6.201  1.2708  0.3872  2.1000
  547MOL0     H73789   8.232   9.377   6.193  1.5080  0.6020 -1.2468
  547MOL0     H73790   8.350   9.458   6.012  3.7082  2.2299 -0.3963
  547MOL0     H73791   8.240   9.598   5.987 -1.7497 -0.3510  0.6685
  547MOL0     H73792   8.445   9.530   6.211  1.8481  1.8204 -0.1454
  547MOL0     H73793   8.329   9.665   6.223 -1.9316  0.6141 -0.7241
  547MOL0     H73794   8.534   9.619   5.999  0.2553 -0.0458 -1.5153
  547MOL0     H73795   8.429   9.756   6.005 -1.0002 -0.7106  0.2040
  547MOL0     H73796   8.478   9.888   6.280  0.7807  3.6949 -2.3791
  547MOL0     H73797   8.836   9.912   6.453  1.2194 -2.7262 -1.4986
  547MOL0     H73798   8.680   9.984   6.473  1.3663 -0.2387  0.3557
  547MOL0     H73799   8.587   9.771   6.573  1.0529 -1.8491  0.8725
  547MOL0     H73800   8.749   9.710   6.576  0.4405  0.7633 -2.1130
  547MOL0     H73801   8.715   9.974   6.719  1.6774  0.9033 -3.9452
  547MOL0     H73802   8.825   9.842   6.740 -0.8382 -0.6213 -1.3589
  547MOL0     H73803   8.671   9.819   6.927  0.9673  0.4053  0.2460
  547MOL0     H73804   8.644   9.694   6.802 -2.6829  0.3061  2.7350
  547MOL0     H73805   8.301   9.989   6.820  2.6916 -1.5293 -1.8381
  547MOL0     H73806   8.118  10.003   6.988 -4.7238 -3.7826 -0.7950
  547MOL0     H73807   7.794  10.059   7.193  0.6514 -1.8989 -0.6684
  547MOL0     H73808   7.645  10.143   7.355  1.2897  1.1394 -1.3799
  547MOL0     H73809   7.572  10.275   7.532 -2.4869 -0.3359 -0.5364
  547MOL0     H73810   7.488  10.121   7.544  1.6146  0.6392 -1.8337
  547MOL0     H73811   7.487  10.140   7.780  2.5345 -1.8060 -2.1493
  547MOL0     H73812   7.567  10.302   7.769 -1.3609  0.6218  2.3486
  547MOL0     H73813   7.289  10.210   7.675  0.1538 -1.4785  2.7808
  547MOL0     H73814   7.325  10.334   7.800 -3.5614  1.6087 -1.1135
  547MOL0     H73815   7.349  10.367   7.497 -2.6786  1.8114 -1.1265
  547MOL0     H73816   7.431  10.469   7.628 -0.6925  0.4006  0.0377
  547MOL0     H73817   7.221  10.555   7.713  0.1540 -1.7483  1.5352
  547MOL0     H73818   7.132  10.422   7.642 -2.9683  2.1845 -0.2219
  547MOL0     H73819   7.261  10.655   7.479  1.6669 -0.6920  1.9205
  547MOL0     H73820   7.165  10.518   7.416 -0.1915  2.0031 -1.4998
  547MOL0     H73821   7.042  10.686   7.642  1.3671 -0.0428  0.4111
  547MOL0     H73822   6.966  10.614   7.499 -0.0082  0.5736 -0.5778
  547MOL0     H73823   7.121  10.875   7.462  0.2898  0.3372 -2.8538
  547MOL0     H73824   7.056  10.762   7.342 -1.6943 -1.1839  0.6256
  547MOL0     H73825   7.900   9.997   7.671  1.6938 -2.5042 -0.9492
  547MOL0     H73826   8.060   9.920   7.506  1.4393  2.9775  1.0790
  547MOL0     H73827   8.341   9.699   7.209  2.9455  0.6325 -0.6479
  547MOL0     H73828   8.512   9.697   7.033  0.2528 -0.1226 -0.4427
  547MOL0     H73829   7.771   8.890   6.248  0.5009  0.7317  1.3711
  547MOL0     H73830   7.581   8.715   6.277 -0.4141 -0.8142 -2.4024
  547MOL0     H73831   7.257   8.392   6.160  1.5719  4.2537 -2.7261
  547MOL0     H73832   7.044   8.282   6.143  1.3271  0.0710 -1.6464
  547MOL0     H73833   6.683   8.562   6.157  3.1710  1.0695  1.9937
  547MOL0     H73834   6.679   8.501   6.323  3.1746  2.5537 -0.4119
  547MOL0     H73835   6.574   8.286   6.233  0.1104  1.6353  1.5746
  547MOL0     H73836   6.586   8.353   6.075 -0.1562 -0.5277  0.2689
  547MOL0     H73837   6.454   8.543   6.119  1.2037 -0.5663  0.5642
  547MOL0     H73838   6.424   8.514   6.282 -2.6111  2.0441 -2.1474
  547MOL0     H73839   6.329   8.298   6.087 -1.6534 -1.0864  0.5083
  547MOL0     H73840   6.275   8.323   6.251  2.9667 -3.2534 -0.3017
  547MOL0     H73841   6.031   8.591   6.026  1.9675  3.1782  0.3932
  547MOL0     H73842   6.853   8.635   6.303 -1.9803 -0.9436 -1.3418
  547MOL0     H73843   7.166   8.801   6.416  1.0258  1.1877 -0.6788
  547MOL0     H73844   7.088   8.861   6.300  0.9184 -2.3089 -3.2377
  547MOL0     H73845   6.985   8.794   6.442 -0.9837  1.9027 -1.4349
  548MOL0     O73846   4.855   1.323   6.908  0.0920 -0.1859 -0.4870
  548MOL0     C73847   4.921   1.239   6.972  0.0134  0.5548  0.3426
  548MOL0     O73848   5.033   1.266   7.039  0.1473  0.3697 -0.3507
  548MOL0     C73849   5.088   1.389   7.048 -0.5524 -0.4271  0.2737
  548MOL0     C73850   5.104   1.478   6.939 -0.1380  0.7090  0.4626
  548MOL0     C73851   5.167   1.599   6.960  0.2824 -0.4229 -0.0475
  548MOL0     C73852   5.190   1.649   7.091 -0.0074 -0.3921 -0.0830
  548MOL0     O73853   5.236   1.783   7.115 -0.4049  0.7110 -0.0635
  548MOL0     C73854   5.137   1.867   7.170 -0.4708  0.2397 -0.2108
  548MOL0     C73855   5.166   2.001   7.118 -0.2696 -0.8840  0.7370
  548MOL0     C73856   5.145   2.014   6.968  0.5027  0.1046 -0.0833
  548MOL0     C73857   5.194   2.147   6.919 -0.6644  0.1821  0.1686
  548MOL0     C73858   5.223   2.156   6.767 -0.2300  0.0161 -0.3613
  548MOL0     C73859   5.263   2.298   6.727  0.6144  0.2245 -0.8816
  548MOL0     C73860   5.387   2.351   6.792  0.2212 -0.7950 -1.0135
  548MOL0     C73861   5.434   2.492   6.748  0.2308  0.2419  0.7682
  548MOL0     N73862   5.331   2.591   6.780  0.7730 -0.9281 -0.4067
  548MOL0     C73863   5.329   2.669   6.897  0.9007  0.0496  0.1503
  548MOL0     C73864   5.219   2.748   6.873  0.5552 -0.2734 -0.8657
  548MOL0     C73865   5.165   2.870   6.946 -0.0703  0.2918  0.4547
  548MOL0     C73866   5.054   2.823   7.040  0.0242 -0.1967  0.6740
  548MOL0     C73867   5.008   2.929   7.135  0.0973 -0.0687  0.1090
  548MOL0     C73868   4.868   2.898   7.193  0.0561 -1.0516  0.1951
  548MOL0     O73869   4.863   2.764   7.251  0.2918 -1.2078 -0.4816
  548MOL0     C73870   4.753   2.731   7.329 -0.3915  0.4119 -0.0815
  548MOL0     C73871   4.736   2.597   7.348 -1.1802 -0.7525  0.2588
  548MOL0     C73872   4.620   2.546   7.403 -0.0288  0.5464 -0.0272
  548MOL0     C73873   4.512   2.630   7.443 -0.1886 -0.1578  0.6857
  548MOL0     C73874   4.385   2.576   7.495  0.4996  0.0152  0.2758
  548MOL0     O73875   4.379   2.446   7.523  0.5848 -0.6444 -0.1129
  548MOL0     C73876   4.253   2.391   7.540  0.5194  0.6009  0.0837
  548MOL0     C73877   4.219   2.288   7.463  0.3748 -0.0319 -0.2013
  548MOL0     C73878   4.109   2.213   7.494  1.2674 -0.9560  0.2918
  548MOL0     C73879   4.017   2.249   7.600  0.6504  0.4298 -1.0300
  548MOL0     O73880   3.919   2.162   7.637  0.4309 -0.1341  0.5485
  548MOL0     C73881   3.835   2.142   7.530  0.3141  0.6454  0.6792
  548MOL0     C73882   3.699   2.107   7.581  0.4544  0.1525 -0.2859
  548MOL0     C73883   3.585   2.142   7.486 -0.0576 -0.1960  0.1642
  548MOL0     C73884   3.461   2.060   7.535  0.1945  0.2886 -0.4264
  548MOL0     C73885   3.475   1.907   7.505 -0.2175 -0.2542  1.1659
  548MOL0     C73886   3.361   1.822   7.578 -0.1548 -0.3626 -0.1769
  548MOL0     C73887   3.362   1.676   7.529 -0.2251 -1.1571 -0.1991
  548MOL0     C73888   3.276   1.590   7.624  0.4521 -0.0145 -0.3783
  548MOL0    Cl73889   3.103   1.642   7.593  0.2713 -0.2116  0.2306
  548MOL0     C73890   4.048   2.363   7.668  0.9010 -0.0353  0.3674
  548MOL0     C73891   4.173   2.412   7.656  0.5950  0.0581 -0.6857
  548MOL0     O73892   4.302   2.655   7.513 -0.2172 -0.0015  0.4676
  548MOL0     C73893   4.531   2.769   7.429 -0.1827  0.1058 -0.7603
  548MOL0     C73894   4.648   2.818   7.369 -0.2328  0.0846 -0.0454
  548MOL0     N73895   5.153   2.708   6.754  1.0660 -0.3862 -0.6207
  548MOL0     N73896   5.222   2.613   6.704  0.3344 -0.0199  0.2455
  548MOL0     C73897   5.176   1.566   7.196  0.7794 -0.0395 -0.0986
  548MOL0     C73898   5.121   1.438   7.174 -0.2831  0.9062  0.8862
  548MOL0     C73899   4.864   1.102   6.980 -0.5332  0.7181 -0.7011
  548MOL0     C73900   4.749   1.076   6.908  1.1671  0.3731  0.4425
  548MOL0     C73901   4.682   0.958   6.919 -0.3183 -0.4152  0.6082
  548MOL0     C73902   4.730   0.861   7.003 -0.6714  0.0143  0.3531
  548MOL0     O73903   4.660   0.742   7.020  1.2194 -0.0058  0.1283
  548MOL0     C73904   4.546   0.738   7.106 -0.4795  0.6322 -0.4818
  548MOL0     C73905   4.420   0.731   7.023  0.3646 -0.1485  0.2578
  548MOL0     C73906   4.388   0.615   6.931 -0.5298  0.3398  0.5684
  548MOL0     C73907   4.242   0.626   6.872 -0.5022 -0.2293 -0.3473
  548MOL0     C73908   4.223   0.758   6.803  0.0026  0.0378 -0.7233
  548MOL0     C73909   4.209   0.861   6.739  0.3139 -0.1584  0.2496
  548MOL0     C73910   4.840   0.886   7.082 -0.2759 -0.0319 -0.9824
  548MOL0     C73911   4.909   1.002   7.082  0.6924 -0.9073  0.2845
  548MOL0     C73912   5.023   1.032   7.173 -1.3737  0.2022  0.6501
  548MOL0     H73913   5.080   1.461   6.835  5.1291  0.5439 -1.0095
  548MOL0     H73914   5.193   1.667   6.880 -1.0394 -0.1891 -0.3009
  548MOL0     H73915   5.036   1.833   7.145 -0.0318 -1.5547  0.2939
  548MOL0     H73916   5.138   1.876   7.279 -0.0284  2.4723 -0.3668
  548MOL0     H73917   5.269   2.022   7.149  0.0090  1.0290 -1.2696
  548MOL0     H73918   5.099   2.079   7.156  1.0800  1.9374 -2.1980
  548MOL0     H73919   5.037   2.019   6.948  0.0692 -3.6771  0.5626
  548MOL0     H73920   5.184   1.927   6.915  0.1640 -0.3714  0.4234
  548MOL0     H73921   5.115   2.222   6.930 -0.9331  0.0264 -0.6147
  548MOL0     H73922   5.288   2.164   6.972 -0.4090 -0.8030  0.0456
  548MOL0     H73923   5.303   2.082   6.758 -1.5596 -1.4327 -0.8280
  548MOL0     H73924   5.147   2.112   6.701  0.4717  1.1266 -1.9722
  548MOL0     H73925   5.298   2.306   6.624  0.4305  0.4543 -0.9278
  548MOL0     H73926   5.176   2.363   6.742  0.5611  0.5804 -2.5552
  548MOL0     H73927   5.478   2.296   6.767  0.7516  0.1247 -1.1414
  548MOL0     H73928   5.368   2.353   6.900 -1.8823  1.3121 -1.3268
  548MOL0     H73929   5.523   2.521   6.804 -0.2711 -0.8394  2.2113
  548MOL0     H73930   5.457   2.490   6.642 -0.1772  0.7873  0.6674
  548MOL0     H73931   5.400   2.657   6.978  0.9065  0.0157  0.1406
  548MOL0     H73932   5.235   2.919   7.015 -0.4399 -1.6727  2.3479
  548MOL0     H73933   5.131   2.939   6.869  2.8064  2.1513  0.6904
  548MOL0     H73934   4.967   2.784   6.988  0.1659 -0.9140  0.9638
  548MOL0     H73935   5.104   2.743   7.096 -0.4279 -3.7199 -3.4949
  548MOL0     H73936   5.007   3.024   7.081 -0.3696 -0.3621 -0.4128
  548MOL0     H73937   5.078   2.955   7.215  0.2689 -0.0130 -0.0583
  548MOL0     H73938   4.805   2.904   7.104 -1.2182  1.0672  1.1711
  548MOL0     H73939   4.835   2.976   7.262  1.4088 -0.1416 -0.1455
  548MOL0     H73940   4.809   2.531   7.302 -0.1711 -0.3838  1.2701
  548MOL0     H73941   4.606   2.439   7.419  0.5758  0.4327 -0.2261
  548MOL0     H73942   4.289   2.264   7.383  1.7353 -0.5223  1.0951
  548MOL0     H73943   4.085   2.123   7.438 -2.3637 -0.8380  1.4174
  548MOL0     H73944   3.830   2.236   7.476 -0.5749  0.8972  1.1905
  548MOL0     H73945   3.876   2.067   7.462 -1.6560 -0.4447  0.6307
  548MOL0     H73946   3.708   2.004   7.616  0.3014  0.4227  0.5757
  548MOL0     H73947   3.688   2.165   7.673  3.4290 -0.3589  0.5138
  548MOL0     H73948   3.554   2.247   7.488 -2.3628 -0.7843 -1.1210
  548MOL0     H73949   3.610   2.123   7.382 -2.0512  0.5726 -0.5138
  548MOL0     H73950   3.373   2.098   7.483 -2.2792 -2.8872  1.1255
  548MOL0     H73951   3.448   2.071   7.643 -1.7424  2.0969 -0.7848
  548MOL0     H73952   3.574   1.865   7.527 -0.5681 -4.9634 -4.0950
  548MOL0     H73953   3.476   1.898   7.396 -0.4157 -0.3704  1.1734
  548MOL0     H73954   3.370   1.802   7.685 -2.0561 -1.4879 -0.1871
  548MOL0     H73955   3.268   1.878   7.567  0.4631  1.1838  1.8934
  548MOL0     H73956   3.463   1.635   7.541  1.5590  3.0034  1.2859
  548MOL0     H73957   3.310   1.669   7.433 -0.2745 -0.1580 -0.2607
  548MOL0     H73958   3.282   1.485   7.594  1.7547  0.2332 -1.0560
  548MOL0     H73959   3.308   1.602   7.728  6.5280 -0.6274 -1.7657
  548MOL0     H73960   3.975   2.392   7.743 -2.0928 -2.9827 -1.1542
  548MOL0     H73961   4.198   2.477   7.739  1.0432  0.6814 -1.2933
  548MOL0     H73962   4.449   2.836   7.454 -1.0622 -1.7305  1.7251
  548MOL0     H73963   4.642   2.926   7.354  0.3697 -0.1167 -1.9701
  548MOL0     H73964   5.193   1.609   7.294 -3.4256  2.3884 -0.2002
  548MOL0     H73965   5.094   1.377   7.259 -2.3996  0.3271 -0.1188
  548MOL0     H73966   4.711   1.161   6.852  0.8562  3.3303  4.5969
  548MOL0     H73967   4.596   0.948   6.853 -1.8540  0.7074  2.3224
  548MOL0     H73968   4.547   0.827   7.170 -0.0602  0.9568 -0.9295
  548MOL0     H73969   4.565   0.641   7.152  1.4680  1.1139 -0.1554
  548MOL0     H73970   4.421   0.823   6.963  1.8600 -0.6530 -0.5375
  548MOL0     H73971   4.336   0.737   7.092  1.4473  2.5654  1.5201
  548MOL0     H73972   4.396   0.528   6.996 -0.4138 -1.1798 -1.3626
  548MOL0     H73973   4.466   0.597   6.857 -0.3379  1.7727  0.3981
  548MOL0     H73974   4.222   0.554   6.792  0.4267  0.4416 -1.2050
  548MOL0     H73975   4.165   0.624   6.950  0.2780  3.0900  0.7146
  548MOL0     H73976   4.195   0.951   6.683 -1.3391 -1.2846 -1.2406
  548MOL0     H73977   4.873   0.813   7.155 -1.7784  0.0938 -0.1493
  548MOL0     H73978   5.119   1.026   7.120 -1.4895 -2.0286  0.5990
  548MOL0     H73979   5.007   1.130   7.220 -0.5921  1.1632 -0.9715
  548MOL0     H73980   5.038   0.954   7.248  1.1038 -0.5832 -0.5565
  549MOL0     O73981   4.051   5.664  10.963 -0.2355 -0.2051  0.7923
  549MOL0     C73982   3.934   5.649  10.940 -0.2606  0.0878 -1.5606
  549MOL0     O73983   3.868   5.697  10.834 -0.1182  0.2914  0.4964
  549MOL0     C73984   3.794   5.614  10.758 -0.5859  0.7336 -0.3896
  549MOL0     C73985   3.700   5.677  10.672  0.5228 -0.0066 -0.2525
  549MOL0     C73986   3.613   5.600  10.595 -0.0667 -0.1578  0.2854
  549MOL0     C73987   3.615   5.459  10.597  0.2599 -0.0405  0.3368
  549MOL0     O73988   3.532   5.373  10.525  0.4805 -0.5356 -0.2541
  549MOL0     C73989   3.404   5.424  10.464 -1.0451  0.1074  0.2036
  549MOL0     C73990   3.309   5.311  10.433  0.1418 -0.0073  0.0936
  549MOL0     C73991   3.302   5.194  10.532 -0.1680  0.4425  0.6539
  549MOL0     C73992   3.251   5.247  10.667 -1.1826  0.6844 -0.7594
  549MOL0     C73993   3.249   5.142  10.770  0.2257  0.8333  0.1204
  549MOL0     C73994   3.393   5.103  10.816 -0.8552 -0.1929 -0.4879
  549MOL0     C73995   3.466   5.216  10.894 -0.5198  1.0134 -0.3311
  549MOL0     C73996   3.601   5.158  10.960 -0.0651  0.7330  0.5850
  549MOL0     N73997   3.581   5.073  11.079  0.1836  0.4171  0.7043
  549MOL0     C73998   3.513   5.116  11.182 -0.4099  0.3980 -0.5052
  549MOL0     C73999   3.493   5.002  11.253 -0.3394 -0.0426 -1.3348
  549MOL0     C74000   3.422   4.988  11.389 -0.1875  0.4972  0.1336
  549MOL0     C74001   3.287   5.081  11.388 -0.1393  1.2241  0.1398
  549MOL0     C74002   3.192   5.046  11.503 -0.2269  1.1218 -0.5681
  549MOL0     C74003   3.255   5.076  11.639 -0.5872  0.2646 -0.0968
  549MOL0     O74004   3.270   5.220  11.660 -0.1945 -0.0199 -0.6756
  549MOL0     C74005   3.339   5.259  11.776 -0.3590  0.8439  0.5477
  549MOL0     C74006   3.365   5.166  11.882 -0.1169 -0.4608  0.0761
  549MOL0     C74007   3.435   5.197  11.996 -0.2005 -0.5664 -0.9254
  549MOL0     C74008   3.483   5.326  12.011 -0.3745 -0.3376  0.5785
  549MOL0     C74009   3.567   5.371  12.133  0.6788 -0.4862  0.3422
  549MOL0     O74010   3.577   5.503  12.156 -0.7432  0.1013 -0.0003
  549MOL0     C74011   3.655   5.537  12.265 -0.5960  0.6873  0.8927
  549MOL0     C74012   3.739   5.645  12.240 -0.5449  0.5695  0.4403
  549MOL0     C74013   3.821   5.697  12.342 -0.1276 -0.5427  0.6813
  549MOL0     C74014   3.822   5.636  12.464  0.3240  0.5980 -0.6245
  549MOL0     O74015   3.911   5.692  12.560  0.2869  0.0168  0.2798
  549MOL0     C74016   3.866   5.698  12.692  0.1810 -0.5263 -0.9517
  549MOL0     C74017   3.944   5.806  12.775 -0.4029 -0.3679 -0.6115
  549MOL0     C74018   3.984   5.765  12.921  0.2917 -0.1457  0.2199
  549MOL0     C74019   4.095   5.872  12.978 -0.0166 -0.2879 -0.1375
  549MOL0     C74020   4.143   5.841  13.122 -0.2563  0.1544  0.0437
  549MOL0     C74021   4.231   5.718  13.133  0.9992  0.5031  0.4554
  549MOL0     C74022   4.289   5.691  13.275  0.1012 -0.0192 -0.7631
  549MOL0     C74023   4.338   5.543  13.301 -0.2759 -0.0111 -0.4050
  549MOL0    Cl74024   4.184   5.453  13.341  0.6537 -0.3499 -0.2721
  549MOL0     C74025   3.737   5.525  12.498 -0.8493 -0.0625 -0.7966
  549MOL0     C74026   3.655   5.482  12.399  0.0425 -0.1768  0.0574
  549MOL0     O74027   3.595   5.284  12.212 -0.4115 -0.5705  0.2204
  549MOL0     C74028   3.476   5.427  11.906 -0.2026 -0.3600 -0.1767
  549MOL0     C74029   3.396   5.388  11.793  0.6004 -0.0353 -0.0652
  549MOL0     N74030   3.555   4.898  11.200 -0.7270 -0.6762  0.0659
  549MOL0     N74031   3.610   4.941  11.089  0.2899 -0.4666 -0.2729
  549MOL0     C74032   3.718   5.396  10.666 -1.3203 -0.5147  0.1942
  549MOL0     C74033   3.808   5.475  10.745  0.1913 -0.1018  0.4114
  549MOL0     C74034   3.859   5.574  11.055  0.3425 -0.8341  0.5196
  549MOL0     C74035   3.756   5.632  11.131  0.4703  0.0042 -0.2164
  549MOL0     C74036   3.688   5.564  11.221  1.3793 -0.2423  0.3541
  549MOL0     C74037   3.730   5.431  11.261  0.6203 -0.3998  0.5806
  549MOL0     O74038   3.666   5.368  11.365  0.3942 -0.8664  0.4126
  549MOL0     C74039   3.730   5.265  11.433  0.0591 -0.4117  0.1902
  549MOL0     C74040   3.642   5.243  11.554  0.6521  0.0353 -0.1289
  549MOL0     C74041   3.663   5.114  11.631 -0.2880  0.3227  0.0673
  549MOL0     C74042   3.789   5.101  11.718 -0.4676 -0.1230 -0.2245
  549MOL0     C74043   3.908   5.072  11.624  0.6848  0.0456 -0.3290
  549MOL0     C74044   3.998   5.030  11.553 -0.5727 -0.6644  0.2475
  549MOL0     C74045   3.836   5.368  11.194 -1.2174  0.0877  0.1140
  549MOL0     C74046   3.903   5.445  11.091  0.2630  0.1249  0.8467
  549MOL0     C74047   4.032   5.374  11.044  0.4150 -0.3127  0.5305
  549MOL0     H74048   3.687   5.784  10.666 -2.6560 -0.2284  0.7177
  549MOL0     H74049   3.533   5.638  10.532 -0.2501 -2.0460 -0.6881
  549MOL0     H74050   3.359   5.487  10.541 -2.3862 -0.4903 -0.0663
  549MOL0     H74051   3.429   5.492  10.382  2.2792  0.6012  1.4676
  549MOL0     H74052   3.331   5.261  10.338  0.0406  0.6225 -0.2660
  549MOL0     H74053   3.211   5.357  10.420  0.4234  0.3881 -0.6899
  549MOL0     H74054   3.403   5.153  10.541 -0.4665 -0.5614 -0.3474
  549MOL0     H74055   3.235   5.131  10.473  2.6535 -1.0658 -1.1990
  549MOL0     H74056   3.314   5.330  10.699 -0.3270 -0.8474  1.8692
  549MOL0     H74057   3.149   5.282  10.649 -1.8785 -0.2082  1.1841
  549MOL0     H74058   3.199   5.188  10.856  0.4268  0.7444  0.2861
  549MOL0     H74059   3.206   5.048  10.735  2.6116 -0.4237  0.3574
  549MOL0     H74060   3.389   5.014  10.879  4.3877 -0.6913 -0.4620
  549MOL0     H74061   3.448   5.075  10.726  0.7365  0.6130  0.2001
  549MOL0     H74062   3.396   5.242  10.973  1.1739  0.8367  1.2856
  549MOL0     H74063   3.478   5.310  10.838  2.7445  0.7339 -0.2943
  549MOL0     H74064   3.639   5.083  10.889  0.1403 -0.2100  1.6571
  549MOL0     H74065   3.671   5.239  10.978 -0.7309  1.1673  1.2370
  549MOL0     H74066   3.467   5.204  11.225 -5.2715 -2.8204  1.7424
  549MOL0     H74067   3.411   4.881  11.408  3.3850 -0.3052 -1.5004
  549MOL0     H74068   3.496   5.021  11.463  4.4103 -2.1740 -2.7715
  549MOL0     H74069   3.325   5.184  11.390  0.0030  1.2200 -1.1456
  549MOL0     H74070   3.237   5.079  11.291  1.5686  2.4079 -0.8144
  549MOL0     H74071   3.160   4.941  11.504 -1.4605  1.4743  0.9237
  549MOL0     H74072   3.094   5.095  11.500 -1.6254 -1.3740  0.6236
  549MOL0     H74073   3.347   5.020  11.656 -0.5460  0.2779 -0.2778
  549MOL0     H74074   3.181   5.031  11.706 -0.3857 -1.7077 -1.1534
  549MOL0     H74075   3.327   5.064  11.881  1.7446 -1.2124  0.5587
  549MOL0     H74076   3.463   5.124  12.071 -2.4319  0.3473  0.9063
  549MOL0     H74077   3.732   5.693  12.143  1.1914  0.2374  0.1244
  549MOL0     H74078   3.873   5.792  12.331 -3.5312  1.4729  0.5072
  549MOL0     H74079   3.757   5.711  12.702  0.3583 -0.6306  2.3801
  549MOL0     H74080   3.891   5.602  12.737 -1.2498 -0.8306 -0.7457
  549MOL0     H74081   4.037   5.841  12.731 -1.0391  3.4536  0.6599
  549MOL0     H74082   3.877   5.893  12.781 -0.1737  0.1917 -4.0744
  549MOL0     H74083   3.891   5.766  12.980  1.0967 -1.1414  1.5906
  549MOL0     H74084   4.017   5.662  12.935 -3.4433 -1.4586  0.6328
  549MOL0     H74085   4.082   5.979  12.959  0.2294 -0.9544 -6.0144
  549MOL0     H74086   4.185   5.867  12.915  0.2979  1.7556  0.0798
  549MOL0     H74087   4.062   5.817  13.190  0.2112 -4.9338 -0.8352
  549MOL0     H74088   4.195   5.930  13.160  1.8662  0.4718 -3.1913
  549MOL0     H74089   4.168   5.637  13.095 -0.8728  2.0259  0.1115
  549MOL0     H74090   4.315   5.706  13.064  0.8025  1.8861 -0.0553
  549MOL0     H74091   4.213   5.715  13.349  0.2195 -4.2387  1.0203
  549MOL0     H74092   4.363   5.766  13.302  0.2799  0.2420 -1.9047
  549MOL0     H74093   4.385   5.500  13.213  0.3750 -0.4079  0.1238
  549MOL0     H74094   4.401   5.537  13.390  0.1806 -0.9516 -0.7831
  549MOL0     H74095   3.721   5.496  12.602  1.3948 -0.9031 -0.6216
  549MOL0     H74096   3.577   5.411  12.422  0.6704 -1.0505 -0.4726
  549MOL0     H74097   3.511   5.530  11.913 -0.9917 -0.0775 -0.3452
  549MOL0     H74098   3.375   5.457  11.712 -0.4674  0.3769  0.5392
  549MOL0     H74099   3.725   5.288  10.662 -0.2430 -0.4240 -1.3184
  549MOL0     H74100   3.886   5.415  10.791  2.4474  1.5882 -1.0226
  549MOL0     H74101   3.726   5.735  11.112 -4.8839 -1.4409 -1.2207
  549MOL0     H74102   3.619   5.620  11.282  0.4103 -2.9760  1.9574
  549MOL0     H74103   3.829   5.296  11.465 -0.2528  0.3779  0.4030
  549MOL0     H74104   3.739   5.168  11.382  1.0670 -0.3933  0.3155
  549MOL0     H74105   3.543   5.244  11.508  0.1448 -1.1693  0.9065
  549MOL0     H74106   3.652   5.321  11.630  2.6627 -0.7193  0.4467
  549MOL0     H74107   3.678   5.035  11.557  0.8206  0.6188 -0.0436
  549MOL0     H74108   3.577   5.094  11.696 -0.2420 -2.5109 -0.5898
  549MOL0     H74109   3.807   5.194  11.773  0.7010 -0.7902  0.5385
  549MOL0     H74110   3.771   5.024  11.793  0.6438 -0.0549  0.1203
  549MOL0     H74111   4.079   5.011  11.486  0.3112  2.4813  0.2863
  549MOL0     H74112   3.872   5.269  11.219 -3.0900 -0.5231  0.5663
  549MOL0     H74113   4.048   5.272  11.081  0.9867 -2.4021 -4.6612
  549MOL0     H74114   4.035   5.362  10.936  0.4662  0.4683  0.4382
  549MOL0     H74115   4.118   5.435  11.074  1.5916 -0.8957 -1.5031
  550MOL0     O74116   3.107   4.006   2.860 -0.1053  0.5820  0.0763
  550MOL0     C74117   3.048   4.104   2.820 -0.7605 -0.2170 -0.0071
  550MOL0     O74118   3.113   4.230   2.817  0.0798  0.2804 -0.3601
  550MOL0     C74119   3.239   4.240   2.873 -0.8579 -0.3906  0.1644
  550MOL0     C74120   3.252   4.280   3.006  0.7520  0.2136  0.1002
  550MOL0     C74121   3.377   4.317   3.055 -0.3227  0.1328 -0.3316
  550MOL0     C74122   3.494   4.297   2.982  0.3019 -0.0217 -0.3001
  550MOL0     O74123   3.612   4.301   3.048 -0.4504 -0.3369 -0.4673
  550MOL0     C74124   3.664   4.420   3.106 -0.0405 -0.1655  0.2572
  550MOL0     C74125   3.819   4.422   3.097  0.6207 -0.3926  0.8126
  550MOL0     C74126   3.868   4.423   2.950 -0.1446  0.1120 -0.0409
  550MOL0     C74127   4.020   4.418   2.953 -0.0087 -0.1169 -0.1689
  550MOL0     C74128   4.084   4.560   2.976  0.3136  1.2830  0.6440
  550MOL0     C74129   4.235   4.571   2.978 -0.4997 -1.0956  0.1725
  550MOL0     C74130   4.309   4.511   3.098  0.5308 -1.1017  0.4485
  550MOL0     C74131   4.446   4.560   3.124 -1.0330 -0.9152  0.3200
  550MOL0     N74132   4.544   4.569   3.011  0.8161 -0.3114 -0.6331
  550MOL0     C74133   4.590   4.475   2.924 -1.1146  0.6517  0.5205
  550MOL0     C74134   4.713   4.520   2.877  0.1265  0.7161  0.3099
  550MOL0     C74135   4.806   4.449   2.777 -0.4171  0.8857  0.7714
  550MOL0     C74136   4.747   4.423   2.641 -0.1117 -0.1479  0.1839
  550MOL0     C74137   4.733   4.566   2.560 -0.0086 -0.7474 -0.4231
  550MOL0     C74138   4.587   4.618   2.574  0.2105 -0.5350  0.4069
  550MOL0     O74139   4.492   4.515   2.535  0.7808 -0.6172  0.2483
  550MOL0     C74140   4.364   4.561   2.525 -0.4111  0.6529  1.2506
  550MOL0     C74141   4.335   4.640   2.415  0.5134 -0.2144 -0.0471
  550MOL0     C74142   4.199   4.685   2.400 -0.7568  0.6211  0.1253
  550MOL0     C74143   4.100   4.662   2.494 -0.4238 -0.0143  0.8955
  550MOL0     C74144   3.960   4.700   2.470  0.2449  0.1001  0.1099
  550MOL0     O74145   3.939   4.784   2.358 -0.0516 -0.6409  0.7458
  550MOL0     C74146   3.812   4.821   2.325  0.8948 -0.0070 -0.0164
  550MOL0     C74147   3.701   4.734   2.334  0.3208  0.6734  0.0940
  550MOL0     C74148   3.575   4.775   2.287 -0.0280  0.9959 -0.4021
  550MOL0     C74149   3.563   4.896   2.231 -0.6205 -0.7251 -0.2406
  550MOL0     O74150   3.446   4.939   2.165 -0.4363  0.5909  0.1150
  550MOL0     C74151   3.383   5.069   2.199 -0.3284  0.7092  0.3497
  550MOL0     C74152   3.243   5.080   2.154 -0.0522  0.8135 -0.7735
  550MOL0     C74153   3.229   5.080   2.002  0.4556 -0.7640  0.3796
  550MOL0     C74154   3.079   5.113   1.959  0.3061  0.1157 -0.0450
  550MOL0     C74155   3.081   5.102   1.813 -0.9765 -0.7841  0.7722
  550MOL0     C74156   2.985   5.211   1.756 -0.2740  0.0943  0.5531
  550MOL0     C74157   2.847   5.159   1.791 -0.3052 -1.2877  0.4992
  550MOL0     C74158   2.741   5.209   1.685 -0.1546  0.4204 -0.7526
  550MOL0    Cl74159   2.592   5.269   1.763 -0.1912  0.3795  0.1909
  550MOL0     C74160   3.676   4.985   2.214 -0.1005  0.0575  0.5755
  550MOL0     C74161   3.802   4.948   2.263  0.0037 -0.9707  0.3714
  550MOL0     O74162   3.875   4.659   2.547 -0.1909 -0.6987 -0.1749
  550MOL0     C74163   4.136   4.591   2.611  0.1048 -0.3113  0.5654
  550MOL0     C74164   4.264   4.534   2.622 -0.5569 -0.6154 -0.5617
  550MOL0     N74165   4.735   4.643   2.934  0.2952  0.1407 -0.1115
  550MOL0     N74166   4.627   4.675   3.004 -0.0288  0.0578  0.3236
  550MOL0     C74167   3.479   4.244   2.855  0.0338  0.1276 -0.2281
  550MOL0     C74168   3.358   4.227   2.793 -0.8135  0.8407 -0.1674
  550MOL0     C74169   2.915   4.098   2.748 -0.3138  0.3802  0.6523
  550MOL0     C74170   2.838   4.223   2.727 -0.5991  0.8135 -0.4806
  550MOL0     C74171   2.720   4.218   2.654  0.0934  0.6331 -0.4059
  550MOL0     C74172   2.659   4.096   2.611  0.9770 -0.1552 -0.1766
  550MOL0     O74173   2.538   4.087   2.543  0.0967  0.3396  0.0672
  550MOL0     C74174   2.427   4.174   2.578  0.5939 -0.8768  0.2998
  550MOL0     C74175   2.344   4.137   2.700 -0.1213 -0.1848  0.1995
  550MOL0     C74176   2.245   4.012   2.675 -0.2406 -0.3924 -0.2648
  550MOL0     C74177   2.305   3.871   2.721 -0.0106 -0.8703 -0.4871
  550MOL0     C74178   2.212   3.765   2.692  0.2734  0.1640  0.1146
  550MOL0     C74179   2.131   3.675   2.685  1.1114 -0.3861 -0.5780
  550MOL0     C74180   2.727   3.980   2.644  0.1941  0.2590  0.1144
  550MOL0     C74181   2.851   3.970   2.707 -0.2599 -0.0689  0.0201
  550MOL0     C74182   2.914   3.828   2.710  0.1772 -0.0429 -0.2847
  550MOL0     H74183   3.164   4.285   3.069 -1.2601 -1.2632 -2.4142
  550MOL0     H74184   3.412   4.338   3.155 -0.1805 -0.8776 -0.1555
  550MOL0     H74185   3.626   4.506   3.051  2.3692  0.9825  0.2575
  550MOL0     H74186   3.648   4.421   3.215 -0.7536  0.7967  0.1530
  550MOL0     H74187   3.850   4.330   3.148 -2.3293 -0.8100  2.0474
  550MOL0     H74188   3.852   4.506   3.158 -2.8262  0.0084  2.3706
  550MOL0     H74189   3.834   4.510   2.894  4.0165  2.4267  0.5862
  550MOL0     H74190   3.819   4.334   2.909 -2.0401 -0.0954  2.4414
  550MOL0     H74191   4.064   4.355   3.031  1.4427 -0.7841 -1.4641
  550MOL0     H74192   4.039   4.375   2.854 -1.3179 -0.2450 -0.3766
  550MOL0     H74193   4.053   4.618   2.889  1.3698  0.3533 -0.3850
  550MOL0     H74194   4.046   4.606   3.068 -0.8560  1.3632  0.1323
  550MOL0     H74195   4.272   4.518   2.890 -1.0115 -1.5896  0.2447
  550MOL0     H74196   4.263   4.677   2.974 -1.5661 -0.6259  2.7945
  550MOL0     H74197   4.314   4.402   3.084 -2.3820 -1.1779 -0.8540
  550MOL0     H74198   4.250   4.528   3.189 -0.4680  1.7659 -0.6286
  550MOL0     H74199   4.433   4.661   3.166 -4.1949 -0.2409 -1.9705
  550MOL0     H74200   4.488   4.501   3.206 -3.5096 -1.6758  1.1162
  550MOL0     H74201   4.547   4.381   2.893 -0.0847 -0.1835  1.5504
  550MOL0     H74202   4.895   4.511   2.763  0.0208  0.7304  2.5533
  550MOL0     H74203   4.833   4.352   2.819 -0.4639 -0.1528 -1.4974
  550MOL0     H74204   4.816   4.364   2.580  0.8347  1.0252  0.0676
  550MOL0     H74205   4.654   4.369   2.658 -0.7683  0.7495 -0.4906
  550MOL0     H74206   4.756   4.530   2.459  0.6823 -2.2990  0.2721
  550MOL0     H74207   4.809   4.641   2.582 -0.3806 -0.4304 -0.1982
  550MOL0     H74208   4.569   4.699   2.503 -0.6447 -0.2107  0.9757
  550MOL0     H74209   4.573   4.665   2.672  0.7975 -0.3000  0.3777
  550MOL0     H74210   4.417   4.653   2.345 -0.7982 -0.0114 -1.6040
  550MOL0     H74211   4.175   4.741   2.310 -0.8043  0.8949  0.3077
  550MOL0     H74212   3.700   4.629   2.364 -2.9467  1.3702  3.1201
  550MOL0     H74213   3.491   4.706   2.296  2.1778 -1.9056 -0.3190
  550MOL0     H74214   3.385   5.073   2.308  2.8296  1.8324  0.3339
  550MOL0     H74215   3.448   5.151   2.168  0.5558 -0.2089 -0.2677
  550MOL0     H74216   3.191   4.992   2.194  0.3686  0.7198 -0.4246
  550MOL0     H74217   3.203   5.169   2.205  1.4752  0.1317  1.8394
  550MOL0     H74218   3.293   5.161   1.966 -2.6733  1.9082  0.3440
  550MOL0     H74219   3.250   4.978   1.966  1.9611 -0.2997 -0.1249
  550MOL0     H74220   3.066   5.216   1.994 -1.0777  0.5753 -1.7790
  550MOL0     H74221   3.007   5.048   2.009 -1.0710  0.3409 -1.6496
  550MOL0     H74222   3.070   4.998   1.781  2.2350 -0.8017 -0.6051
  550MOL0     H74223   3.180   5.130   1.777 -2.3164 -0.0850 -2.7906
  550MOL0     H74224   3.002   5.308   1.802 -3.3260  0.3019  1.4429
  550MOL0     H74225   3.011   5.198   1.650  0.3592 -2.6052  0.9447
  550MOL0     H74226   2.826   5.190   1.894 -0.3260 -0.0290  0.1287
  550MOL0     H74227   2.847   5.052   1.769 -1.2975 -1.3394  0.6627
  550MOL0     H74228   2.778   5.301   1.638 -0.2425  0.9175  0.1192
  550MOL0     H74229   2.720   5.133   1.609 -3.4597 -0.3814  0.7946
  550MOL0     H74230   3.670   5.070   2.147 -3.3917 -1.2451 -1.0288
  550MOL0     H74231   3.889   5.012   2.251 -0.8196  0.3939  1.4029
  550MOL0     H74232   4.060   4.569   2.685 -0.6283 -0.0678 -0.0961
  550MOL0     H74233   4.287   4.468   2.705 -2.6008 -2.2061 -1.1713
  550MOL0     H74234   3.569   4.243   2.794  1.3592  2.8199  1.5079
  550MOL0     H74235   3.363   4.217   2.685  0.4111 -1.7134  0.0320
  550MOL0     H74236   2.884   4.320   2.739  0.8603  0.3311 -1.9204
  550MOL0     H74237   2.660   4.306   2.632 -2.5691 -0.3259  2.2657
  550MOL0     H74238   2.364   4.168   2.489  0.5876 -2.7050  0.3876
  550MOL0     H74239   2.458   4.278   2.566 -1.2033 -0.2718  0.5726
  550MOL0     H74240   2.280   4.214   2.742  0.9992  0.2242  1.2024
  550MOL0     H74241   2.409   4.112   2.785 -1.4103 -0.6547  1.0793
  550MOL0     H74242   2.219   4.014   2.569 -0.0777 -0.9881 -0.3229
  550MOL0     H74243   2.159   4.033   2.739 -1.2849 -1.2590 -1.3526
  550MOL0     H74244   2.393   3.866   2.657  0.1286  2.3926 -0.7173
  550MOL0     H74245   2.337   3.877   2.825  3.2473 -0.6155 -1.3777
  550MOL0     H74246   2.072   3.590   2.656  2.7237 -2.1899  1.1534
  550MOL0     H74247   2.685   3.886   2.610  1.6557 -0.9619  1.5487
  550MOL0     H74248   2.977   3.816   2.799  0.5005  1.2877 -0.3257
  550MOL0     H74249   2.842   3.746   2.723 -1.2505  1.4994  2.3922
  550MOL0     H74250   2.989   3.808   2.634 -0.1998  0.0319 -0.6793
  551MOL0     O74251   4.285   3.889   5.568  0.2876 -0.0262  0.3093
  551MOL0     C74252   4.199   3.945   5.632  0.2979 -0.4865  0.1683
  551MOL0     O74253   4.091   3.877   5.682  0.5053 -0.0964 -0.3531
  551MOL0     C74254   4.047   3.749   5.654  0.7629  0.4038  0.6451
  551MOL0     C74255   3.931   3.729   5.728  0.3701  0.3772  0.3434
  551MOL0     C74256   3.889   3.592   5.749  0.2128  0.0166 -0.4534
  551MOL0     C74257   3.950   3.487   5.672  0.9815 -0.0013 -0.3832
  551MOL0     O74258   3.916   3.356   5.704 -0.5202  0.2099  0.5992
  551MOL0     C74259   3.928   3.265   5.588  0.0842 -0.0455 -0.0756
  551MOL0     C74260   3.828   3.150   5.607 -0.4767  0.2497 -0.0940
  551MOL0     C74261   3.687   3.197   5.591  0.1853  0.2429 -0.1748
  551MOL0     C74262   3.590   3.083   5.595 -0.2168 -0.7665  0.3074
  551MOL0     C74263   3.449   3.121   5.584 -0.3303 -0.9036  0.0998
  551MOL0     C74264   3.406   3.209   5.709 -0.9270 -0.0764  0.1240
  551MOL0     C74265   3.259   3.197   5.732  0.2444  0.4969 -1.2245
  551MOL0     C74266   3.224   3.295   5.841  0.7389 -0.2396 -0.2649
  551MOL0     N74267   3.076   3.301   5.848 -0.1413  0.2491  0.9456
  551MOL0     C74268   2.984   3.204   5.880 -0.7124 -0.5710  0.3775
  551MOL0     C74269   2.864   3.249   5.853  0.1954 -0.4768 -0.0039
  551MOL0     C74270   2.726   3.191   5.878 -0.6672  0.4506 -0.0191
  551MOL0     C74271   2.681   3.129   5.741 -0.3940  0.2190 -0.6128
  551MOL0     C74272   2.726   3.197   5.608 -0.7438 -0.8186 -0.0685
  551MOL0     C74273   2.639   3.140   5.492  0.1908  0.4957  1.0274
  551MOL0     O74274   2.618   3.246   5.395 -0.3495 -0.4410  0.7943
  551MOL0     C74275   2.730   3.290   5.320 -0.7982 -0.3344 -0.8696
  551MOL0     C74276   2.856   3.230   5.318 -0.6034  0.2020 -0.1752
  551MOL0     C74277   2.954   3.285   5.237  0.3090 -0.1791  0.4232
  551MOL0     C74278   2.939   3.413   5.168  0.3535  0.0148 -0.0607
  551MOL0     C74279   3.046   3.476   5.089  0.0267  0.3892  0.1658
  551MOL0     O74280   3.172   3.421   5.100  0.1343 -0.7532  0.6881
  551MOL0     C74281   3.277   3.474   5.022  0.6858  0.2692 -0.1443
  551MOL0     C74282   3.308   3.606   5.046 -0.7019 -0.1976 -0.1449
  551MOL0     C74283   3.413   3.665   4.978  0.8224 -0.5000 -0.2706
  551MOL0     C74284   3.476   3.600   4.868 -0.8984  0.2181  0.0858
  551MOL0     O74285   3.575   3.656   4.787  0.2337 -0.0543  0.3148
  551MOL0     C74286   3.664   3.761   4.836 -0.1688 -0.5210  0.7768
  551MOL0     C74287   3.770   3.788   4.733 -0.0933 -0.0125  0.2326
  551MOL0     C74288   3.709   3.860   4.619  0.8467  0.2978 -0.0531
  551MOL0     C74289   3.809   3.870   4.497  0.9593  0.5205 -0.6491
  551MOL0     C74290   3.800   4.010   4.431  0.1761  0.0012 -0.3446
  551MOL0     C74291   3.934   4.042   4.352  1.0119  0.3198 -0.5236
  551MOL0     C74292   3.951   4.189   4.324  0.1811  0.1869 -0.3885
  551MOL0     C74293   4.089   4.209   4.263 -0.4218 -0.1996  0.3746
  551MOL0    Cl74294   4.097   4.150   4.081 -0.0784  0.5257 -0.1486
  551MOL0     C74295   3.445   3.468   4.841  0.9032  0.5365  0.3465
  551MOL0     C74296   3.343   3.407   4.920 -0.2521 -0.4270 -0.5391
  551MOL0     O74297   3.014   3.568   5.012  0.1764  0.0441 -0.3433
  551MOL0     C74298   2.807   3.461   5.158 -0.3001  0.4667 -0.1306
  551MOL0     C74299   2.704   3.402   5.238 -0.7807  0.2613  0.1853
  551MOL0     N74300   2.886   3.372   5.799 -0.0326 -0.3558 -0.1498
  551MOL0     N74301   3.008   3.412   5.808 -0.3258  0.4277 -0.0411
  551MOL0     C74302   4.052   3.523   5.587 -0.0768 -0.2001  0.1367
  551MOL0     C74303   4.108   3.656   5.576  0.1235  0.6474  0.4990
  551MOL0     C74304   4.206   4.090   5.673  0.4417  1.2754  0.0099
  551MOL0     C74305   4.152   4.126   5.801 -0.0810 -0.8533 -0.3196
  551MOL0     C74306   4.157   4.258   5.849 -0.3291  0.3193 -0.0295
  551MOL0     C74307   4.210   4.357   5.768  0.1384 -0.1884  0.0004
  551MOL0     O74308   4.239   4.475   5.818 -0.2633  0.2452 -0.3543
  551MOL0     C74309   4.251   4.487   5.963 -0.3358 -0.4501  0.2549
  551MOL0     C74310   4.293   4.631   6.003  0.2025 -0.4418 -0.0275
  551MOL0     C74311   4.386   4.629   6.117  0.1473 -0.6049 -0.1762
  551MOL0     C74312   4.400   4.772   6.169 -0.1473  0.4840 -0.3796
  551MOL0     C74313   4.493   4.770   6.286 -0.7176 -0.6278  0.1748
  551MOL0     C74314   4.576   4.784   6.374  0.3138 -0.2220  0.2700
  551MOL0     C74315   4.257   4.322   5.644 -0.1979 -0.2153 -1.1012
  551MOL0     C74316   4.262   4.190   5.594  0.0431 -0.0640 -0.3766
  551MOL0     C74317   4.313   4.186   5.450 -0.5461  0.8746 -0.6448
  551MOL0     H74318   3.884   3.811   5.782  0.0835  0.9666 -0.7486
  551MOL0     H74319   3.799   3.564   5.803 -2.2212  0.1294 -4.1074
  551MOL0     H74320   3.903   3.321   5.497  0.0055  1.5453  0.8840
  551MOL0     H74321   4.032   3.231   5.579 -0.2024 -1.7423  2.1588
  551MOL0     H74322   3.845   3.114   5.709  0.3799  4.4464  1.4712
  551MOL0     H74323   3.850   3.070   5.536 -0.0686  0.0387  0.2651
  551MOL0     H74324   3.676   3.246   5.494  1.1796 -1.9067 -1.4479
  551MOL0     H74325   3.656   3.259   5.675 -2.4264 -0.0813 -0.8013
  551MOL0     H74326   3.613   3.009   5.518 -1.7322 -0.7248 -0.2026
  551MOL0     H74327   3.601   3.039   5.695 -4.2725  2.0471  2.2661
  551MOL0     H74328   3.444   3.186   5.496  3.9055  0.3401  0.5702
  551MOL0     H74329   3.382   3.036   5.568  1.3415 -2.1476 -0.5613
  551MOL0     H74330   3.463   3.181   5.798 -1.3967 -0.4487  0.3085
  551MOL0     H74331   3.433   3.312   5.682  4.0317 -0.6136  1.9361
  551MOL0     H74332   3.233   3.093   5.754  1.4121  0.3203 -0.5752
  551MOL0     H74333   3.202   3.205   5.639 -0.0408 -2.7206 -1.4147
  551MOL0     H74334   3.241   3.269   5.946 -2.2913 -1.4873  0.0270
  551MOL0     H74335   3.252   3.397   5.816  1.6381 -0.2993  0.4322
  551MOL0     H74336   3.014   3.110   5.926  2.2817  0.8415  1.6096
  551MOL0     H74337   2.719   3.122   5.962 -0.5498  3.2802  2.4909
  551MOL0     H74338   2.662   3.278   5.891  0.6415  1.5460 -0.5977
  551MOL0     H74339   2.706   3.022   5.734  0.6503  0.4295 -0.2098
  551MOL0     H74340   2.573   3.147   5.733 -0.3687  0.3613 -0.6399
  551MOL0     H74341   2.831   3.178   5.585 -1.2285 -1.6861 -1.6658
  551MOL0     H74342   2.716   3.306   5.615 -3.6016 -1.0983  3.1997
  551MOL0     H74343   2.542   3.100   5.522 -0.1133 -1.9148 -2.5964
  551MOL0     H74344   2.687   3.048   5.456 -1.5445  0.0357 -0.2638
  551MOL0     H74345   2.877   3.142   5.378 -0.9047  1.3740  1.7324
  551MOL0     H74346   3.046   3.232   5.216  0.7009  0.4605  0.5067
  551MOL0     H74347   3.270   3.676   5.119 -0.1325 -0.1482  0.1092
  551MOL0     H74348   3.446   3.765   5.004  0.0926  0.4743 -2.8147
  551MOL0     H74349   3.600   3.847   4.851  0.6352 -0.0527  1.6209
  551MOL0     H74350   3.707   3.736   4.934  2.1724  1.6363  0.3990
  551MOL0     H74351   3.860   3.835   4.774 -0.2149 -1.4672  2.3350
  551MOL0     H74352   3.799   3.697   4.681  1.4032  2.0906 -2.9505
  551MOL0     H74353   3.618   3.810   4.585  1.8284  0.3196 -3.0929
  551MOL0     H74354   3.689   3.961   4.656 -1.9059 -0.6145  1.2076
  551MOL0     H74355   3.773   3.808   4.414  0.5313  2.0255 -1.6345
  551MOL0     H74356   3.911   3.844   4.525 -0.6440 -2.9899  2.7150
  551MOL0     H74357   3.782   4.084   4.510 -1.5216  1.3007 -1.8616
  551MOL0     H74358   3.723   4.013   4.354  0.0640  2.2881 -0.2165
  551MOL0     H74359   4.016   4.022   4.421  1.7281  2.4181 -0.7132
  551MOL0     H74360   3.942   3.984   4.259  0.2599 -3.2952  1.4719
  551MOL0     H74361   3.949   4.244   4.418  0.8244 -2.1586  1.0930
  551MOL0     H74362   3.878   4.226   4.251  0.6101 -1.1359 -1.5405
  551MOL0     H74363   4.120   4.314   4.261 -1.1986  0.0276  0.0963
  551MOL0     H74364   4.168   4.159   4.319 -0.8200 -0.9463  0.2796
  551MOL0     H74365   3.480   3.408   4.757 -0.9648  2.1319 -1.7159
  551MOL0     H74366   3.311   3.308   4.889  2.4729 -1.1303 -1.3964
  551MOL0     H74367   2.791   3.549   5.096  1.2354 -1.1386 -2.9951
  551MOL0     H74368   2.606   3.449   5.238  0.5368  3.3082 -0.9817
  551MOL0     H74369   4.111   3.439   5.553 -1.4142 -1.2820  0.4214
  551MOL0     H74370   4.202   3.673   5.524 -1.7538  0.1869 -3.4016
  551MOL0     H74371   4.106   4.051   5.865  1.3990  0.7359  2.8913
  551MOL0     H74372   4.102   4.295   5.935  1.1336  0.6935  0.7759
  551MOL0     H74373   4.318   4.408   5.998  3.0129  1.8230 -0.5837
  551MOL0     H74374   4.149   4.470   5.999 -1.4010  1.2728 -1.7455
  551MOL0     H74375   4.203   4.689   6.025 -0.2133 -0.8200 -0.6826
  551MOL0     H74376   4.344   4.676   5.917  0.6017 -0.7989  0.0181
  551MOL0     H74377   4.482   4.601   6.073  0.8547  1.5332 -0.0760
  551MOL0     H74378   4.344   4.558   6.189 -1.3599 -2.5681 -2.7778
  551MOL0     H74379   4.447   4.834   6.093  2.9940  0.5955  1.5132
  551MOL0     H74380   4.307   4.820   6.199  1.0982  2.2632  0.7790
  551MOL0     H74381   4.652   4.802   6.448 -0.1273  0.9860  0.4469
  551MOL0     H74382   4.300   4.403   5.588  0.0242  0.4585  0.0217
  551MOL0     H74383   4.291   4.280   5.398 -1.1970  1.2587  0.2916
  551MOL0     H74384   4.419   4.166   5.465 -1.1465 -0.8052  1.9792
  551MOL0     H74385   4.270   4.103   5.393  0.7752  0.5914 -1.2592
  552MOL0     O74386  10.007   9.181   0.979  0.4396 -0.3354  0.6612
  552MOL0     C74387  10.084   9.247   1.042  0.4872  0.4656  0.0757
  552MOL0     O74388  10.053   9.317   1.155 -0.2230 -0.5326  0.5513
  552MOL0     C74389   9.929   9.319   1.202  0.0216  0.2374 -0.1077
  552MOL0     C74390   9.814   9.241   1.168  0.3732  0.5571  0.5673
  552MOL0     C74391   9.692   9.252   1.237 -0.2883 -0.4986  0.2889
  552MOL0     C74392   9.673   9.341   1.345 -0.1999 -0.0820 -0.2014
  552MOL0     O74393   9.548   9.363   1.401 -0.2889  0.5016  0.4430
  552MOL0     C74394   9.539   9.352   1.543  1.2014  0.5094 -0.5445
  552MOL0     C74395   9.397   9.330   1.603  0.3695 -0.0856 -0.4733
  552MOL0     C74396   9.320   9.465   1.619 -0.6337 -0.4447  0.1081
  552MOL0     C74397   9.178   9.427   1.654  0.6260  0.1410 -0.2962
  552MOL0     C74398   9.088   9.549   1.685  0.9324 -0.0911  0.0785
  552MOL0     C74399   8.943   9.488   1.707 -0.1523  0.4457 -0.4673
  552MOL0     C74400   8.845   9.575   1.792 -0.0756  1.0098 -0.2578
  552MOL0     C74401   8.710   9.501   1.778  0.1809  0.1528 -0.5556
  552MOL0     N74402   8.632   9.519   1.899 -0.2676  0.1300 -0.1038
  552MOL0     C74403   8.495   9.532   1.892 -0.2167 -0.6999  0.0446
  552MOL0     C74404   8.436   9.510   2.012  0.9846 -0.8445  0.0349
  552MOL0     C74405   8.288   9.503   2.057 -0.2684  1.1414  0.4916
  552MOL0     C74406   8.252   9.392   2.146  1.1525  0.2221 -0.4496
  552MOL0     C74407   8.232   9.270   2.061 -0.1396 -0.3720  0.3149
  552MOL0     C74408   8.215   9.155   2.166  0.1829  0.0299  0.1904
  552MOL0     O74409   8.079   9.158   2.212 -0.6118  0.5184 -0.0744
  552MOL0     C74410   8.021   9.044   2.262  0.0906  0.5845 -0.4602
  552MOL0     C74411   7.887   9.052   2.278  0.2434  0.3423  0.5184
  552MOL0     C74412   7.809   8.946   2.337  0.6959  0.6283 -0.4246
  552MOL0     C74413   7.888   8.830   2.365  0.2758  0.2443  0.2051
  552MOL0     C74414   7.817   8.715   2.430  0.4462 -0.3405 -0.3074
  552MOL0     O74415   7.705   8.747   2.497  0.1990 -0.6583  0.4277
  552MOL0     C74416   7.660   8.663   2.594  0.8778 -0.2793  1.0771
  552MOL0     C74417   7.636   8.524   2.571  0.4385 -0.2429 -0.1519
  552MOL0     C74418   7.602   8.442   2.680  0.2228 -0.6228  0.4254
  552MOL0     C74419   7.572   8.500   2.807 -0.2126 -0.1369 -0.6049
  552MOL0     O74420   7.530   8.419   2.911  0.1377 -0.0476  0.7594
  552MOL0     C74421   7.545   8.274   2.895 -0.0045  0.7022  0.4107
  552MOL0     C74422   7.549   8.223   3.038  0.8962  1.0204 -0.2363
  552MOL0     C74423   7.407   8.208   3.096 -1.1609  0.7806 -1.0244
  552MOL0     C74424   7.425   8.158   3.239 -0.2946 -0.4493 -0.2583
  552MOL0     C74425   7.284   8.148   3.305 -0.4900 -0.7398 -0.2633
  552MOL0     C74426   7.288   8.126   3.460  1.2166  0.4038 -0.1634
  552MOL0     C74427   7.159   8.161   3.527  0.0480 -0.0417 -0.1759
  552MOL0     C74428   7.188   8.199   3.681  0.2828 -0.3088  0.0603
  552MOL0    Cl74429   7.029   8.225   3.755 -0.0339 -0.1716 -0.0462
  552MOL0     C74430   7.594   8.636   2.827  0.5352  0.5703  0.6489
  552MOL0     C74431   7.633   8.715   2.718 -0.2112  0.0110  0.2129
  552MOL0     O74432   7.878   8.606   2.442  0.3355 -1.1625  0.0324
  552MOL0     C74433   8.027   8.817   2.341 -0.9776  0.0044  0.9549
  552MOL0     C74434   8.096   8.930   2.294 -0.5334 -0.4529  0.9470
  552MOL0     N74435   8.547   9.512   2.095 -0.0927  0.7411  0.0398
  552MOL0     N74436   8.660   9.516   2.032  0.3099  0.1009  0.0816
  552MOL0     C74437   9.779   9.421   1.375 -0.0017 -0.3175  0.6610
  552MOL0     C74438   9.903   9.411   1.307 -0.2627  0.3181  0.6827
  552MOL0     C74439  10.213   9.279   0.986 -0.5155  0.9784 -0.2650
  552MOL0     C74440  10.307   9.335   1.070 -0.7631 -0.4944 -0.6848
  552MOL0     C74441  10.437   9.381   1.024  0.3689  0.4506 -0.4938
  552MOL0     C74442  10.471   9.363   0.888  0.3727  0.4127 -0.2516
  552MOL0     O74443  10.586   9.413   0.849 -0.2179 -0.2042 -0.3973
  552MOL0     C74444  10.608   9.454   0.714  0.2561 -0.0987  0.8880
  552MOL0     C74445  10.518   9.579   0.683  1.4532 -0.0135 -1.3379
  552MOL0     C74446  10.576   9.652   0.573  0.6473  0.8247 -0.1362
  552MOL0     C74447  10.666   9.762   0.609  0.3439 -0.0632 -0.8700
  552MOL0     C74448  10.693   9.852   0.494  0.0458  0.8494 -0.1194
  552MOL0     C74449  10.703   9.913   0.393 -0.2587  0.7892  0.8188
  552MOL0     C74450  10.379   9.292   0.808  0.5058 -0.1377 -0.3487
  552MOL0     C74451  10.244   9.263   0.847 -0.1372  0.5697 -0.2866
  552MOL0     C74452  10.163   9.186   0.755  0.8689  0.1137  0.6654
  552MOL0     H74453   9.808   9.157   1.099  3.0516  2.3198 -2.0215
  552MOL0     H74454   9.601   9.202   1.203 -0.1357 -1.3006  1.0124
  552MOL0     H74455   9.593   9.266   1.584  1.4127  0.8042 -0.2016
  552MOL0     H74456   9.580   9.444   1.585  2.3640 -0.1989 -0.0967
  552MOL0     H74457   9.415   9.288   1.702  0.3598  2.2348  0.5851
  552MOL0     H74458   9.340   9.258   1.543  0.9935  0.8888 -2.3298
  552MOL0     H74459   9.314   9.531   1.532 -1.1226 -0.0745  0.4182
  552MOL0     H74460   9.370   9.519   1.699 -0.0288  0.8509 -1.1071
  552MOL0     H74461   9.129   9.385   1.566 -2.4984  2.5403  0.1166
  552MOL0     H74462   9.172   9.345   1.726 -0.8651  0.7596  0.3268
  552MOL0     H74463   9.126   9.606   1.770 -1.0731 -0.4922  1.3007
  552MOL0     H74464   9.091   9.622   1.604  3.5457 -2.2706 -2.0239
  552MOL0     H74465   8.905   9.482   1.605  0.2130  1.1611 -0.6544
  552MOL0     H74466   8.947   9.393   1.762 -0.2460  2.3975  3.1751
  552MOL0     H74467   8.842   9.681   1.766  1.1555  0.9581 -0.7140
  552MOL0     H74468   8.878   9.581   1.896 -1.4555  1.6336  0.1593
  552MOL0     H74469   8.658   9.542   1.691  1.2365  0.5602 -1.0147
  552MOL0     H74470   8.720   9.393   1.764 -1.4263 -0.6123  3.0137
  552MOL0     H74471   8.437   9.548   1.802 -0.4749  1.0670  0.4800
  552MOL0     H74472   8.259   9.589   2.118  1.7481  0.7674  2.1208
  552MOL0     H74473   8.223   9.503   1.970 -0.9938 -0.1885  0.9913
  552MOL0     H74474   8.330   9.378   2.221 -1.0323  0.6399  2.0561
  552MOL0     H74475   8.161   9.427   2.195  0.4807 -2.7359  0.6146
  552MOL0     H74476   8.330   9.260   2.013  1.3554 -2.7193  3.4635
  552MOL0     H74477   8.148   9.269   1.990  0.5393  0.5438 -0.5271
  552MOL0     H74478   8.284   9.168   2.249 -0.8866  0.4565  1.0308
  552MOL0     H74479   8.239   9.057   2.122  2.6483  0.1929  1.0242
  552MOL0     H74480   7.837   9.143   2.246  0.9188  0.2826 -0.7610
  552MOL0     H74481   7.702   8.950   2.349  0.8057 -0.7900  1.4127
  552MOL0     H74482   7.657   8.481   2.474 -1.9074  2.5430 -2.0828
  552MOL0     H74483   7.596   8.337   2.651 -1.6035 -0.5810  0.5010
  552MOL0     H74484   7.462   8.226   2.842 -0.2257 -0.0538  1.4073
  552MOL0     H74485   7.639   8.249   2.845 -0.1439 -0.5275  0.7437
  552MOL0     H74486   7.602   8.127   3.037  0.2457  0.6619 -0.2730
  552MOL0     H74487   7.610   8.287   3.102  0.8495 -0.1234  0.9880
  552MOL0     H74488   7.354   8.303   3.087 -2.6549  0.0118 -0.6734
  552MOL0     H74489   7.357   8.135   3.033  3.5572 -1.8440 -2.2688
  552MOL0     H74490   7.490   8.217   3.303  0.8210 -0.9805 -0.8760
  552MOL0     H74491   7.472   8.060   3.225  1.8818  0.5476 -0.2694
  552MOL0     H74492   7.227   8.075   3.248 -1.7610  1.1140 -1.4939
  552MOL0     H74493   7.231   8.243   3.292  1.9857  0.9046  0.6803
  552MOL0     H74494   7.316   8.020   3.457  1.2083  0.4201 -1.7607
  552MOL0     H74495   7.364   8.181   3.517  0.7744 -0.3727  1.2122
  552MOL0     H74496   7.091   8.076   3.526 -0.0956  0.0736 -0.2105
  552MOL0     H74497   7.115   8.248   3.476  2.2819 -0.1375 -2.4631
  552MOL0     H74498   7.247   8.120   3.730  2.1003  1.2459  0.5001
  552MOL0     H74499   7.252   8.287   3.687  2.2116 -1.7463  3.2906
  552MOL0     H74500   7.579   8.662   2.932 -0.6802  1.1004  0.3635
  552MOL0     H74501   7.648   8.823   2.723  0.6748 -0.1462  1.2183
  552MOL0     H74502   8.087   8.730   2.367 -0.0459  0.0917 -0.7378
  552MOL0     H74503   8.205   8.933   2.294 -0.5423  1.9290 -0.6260
  552MOL0     H74504   9.769   9.483   1.464 -2.0402  0.3798  0.0173
  552MOL0     H74505   9.979   9.474   1.352 -1.4339  3.9632 -1.9030
  552MOL0     H74506  10.281   9.360   1.173 -0.0837 -1.3385 -0.2941
  552MOL0     H74507  10.501   9.434   1.094  1.6175 -3.1731  1.3909
  552MOL0     H74508  10.588   9.377   0.639 -0.5150  1.6472 -0.7904
  552MOL0     H74509  10.714   9.482   0.712  0.5819 -1.3019  0.2878
  552MOL0     H74510  10.499   9.644   0.770  2.5697 -0.1826 -0.9566
  552MOL0     H74511  10.414   9.554   0.659  0.6085  1.0942  0.8121
  552MOL0     H74512  10.498   9.695   0.510  0.0665 -0.6273 -0.4350
  552MOL0     H74513  10.625   9.584   0.502  2.1389  2.3503 -0.6369
  552MOL0     H74514  10.610   9.811   0.689  2.2048 -1.2320  1.2468
  552MOL0     H74515  10.762   9.722   0.642  0.0625 -0.1280 -0.1112
  552MOL0     H74516  10.727   9.977   0.311  1.4588 -2.5955 -1.5415
  552MOL0     H74517  10.414   9.260   0.710 -1.6500 -0.8238 -0.9411
  552MOL0     H74518  10.225   9.140   0.677 -0.8483  0.9496 -1.3026
  552MOL0     H74519  10.108   9.103   0.798 -1.1250  0.4882 -1.0158
  552MOL0     H74520  10.075   9.236   0.712 -1.7988 -1.4833  3.8759
  553MOL0     O74521   0.124  10.372   0.649 -0.5643 -0.3471 -0.5300
  553MOL0     C74522   0.017  10.351   0.588 -0.2253  0.5471 -0.2428
  553MOL0     O74523  -0.102  10.311   0.656 -0.3993  0.0286 -0.0417
  553MOL0     C74524  -0.119  10.316   0.787  0.2924 -0.1630 -0.3868
  553MOL0     C74525  -0.089  10.436   0.855  0.1194  1.3629 -0.5220
  553MOL0     C74526  -0.102  10.447   0.998  0.0626  0.0519 -0.0028
  553MOL0     C74527  -0.139  10.328   1.073 -0.2163 -0.0138  0.7307
  553MOL0     O74528  -0.153  10.326   1.206  0.9655 -0.0312 -1.0800
  553MOL0     C74529  -0.140  10.447   1.282  0.4969 -0.8522  0.4199
  553MOL0     C74530  -0.223  10.426   1.407 -0.1064 -0.9586  0.0982
  553MOL0     C74531  -0.172  10.325   1.504  0.4886 -0.1106  0.7275
  553MOL0     C74532  -0.243  10.332   1.645  0.0615 -0.1464  0.0224
  553MOL0     C74533  -0.178  10.434   1.743  0.1450 -0.1089  0.6362
  553MOL0     C74534  -0.054  10.385   1.817 -0.8054 -0.8638  0.2718
  553MOL0     C74535   0.003  10.495   1.912  0.5871 -0.4964 -0.5485
  553MOL0     C74536   0.128  10.442   1.983  0.1844  0.5548  0.2473
  553MOL0     N74537   0.107  10.311   2.050 -0.3147  0.1062  0.0927
  553MOL0     C74538   0.053  10.297   2.178  0.3409  0.1028  0.4346
  553MOL0     C74539   0.056  10.162   2.195  0.5551 -1.0887 -0.7892
  553MOL0     C74540   0.023  10.081   2.312  0.1594 -0.9982 -0.1717
  553MOL0     C74541   0.145  10.061   2.397 -0.3197 -0.3746 -0.1874
  553MOL0     C74542   0.142   9.951   2.506  0.8286  0.8100  0.5699
  553MOL0     C74543   0.087   9.819   2.457  0.2931 -0.1213  0.2957
  553MOL0     O74544  -0.060   9.805   2.482  0.3298  0.6077 -0.5056
  553MOL0     C74545  -0.104   9.679   2.514  0.5110 -0.4812 -0.3359
  553MOL0     C74546  -0.206   9.629   2.429  0.7342 -0.3911  0.1578
  553MOL0     C74547  -0.272   9.512   2.458 -0.3565 -0.0866  0.9089
  553MOL0     C74548  -0.226   9.423   2.558 -0.6132 -0.3167 -0.8284
  553MOL0     C74549  -0.285   9.295   2.603 -0.7663 -0.7265 -1.0973
  553MOL0     O74550  -0.265   9.245   2.733 -0.2717  0.8572 -0.5445
  553MOL0     C74551  -0.360   9.158   2.772  0.0425  0.4597 -0.3687
  553MOL0     C74552  -0.494   9.192   2.774  0.1104  0.5469 -0.4766
  553MOL0     C74553  -0.570   9.107   2.849  0.5314  0.1529 -0.7302
  553MOL0     C74554  -0.527   8.992   2.917 -0.3633 -0.5991 -0.0214
  553MOL0     O74555  -0.627   8.913   2.972 -0.5831  0.1665  0.2685
  553MOL0     C74556  -0.592   8.786   3.025 -0.3124 -0.3183  1.4925
  553MOL0     C74557  -0.724   8.716   3.072  0.1940 -0.0499  0.4700
  553MOL0     C74558  -0.819   8.688   2.958  0.3748  0.3778 -0.0818
  553MOL0     C74559  -0.922   8.588   3.013 -0.0243  0.1372 -0.0948
  553MOL0     C74560  -1.014   8.530   2.913  0.3092  0.2855 -0.0292
  553MOL0     C74561  -1.112   8.430   2.982  0.3969 -0.5427 -0.0725
  553MOL0     C74562  -1.199   8.371   2.867  0.6353  0.6282 -0.6180
  553MOL0     C74563  -1.292   8.260   2.912  1.9507  0.8220  0.8578
  553MOL0    Cl74564  -1.210   8.113   2.956  0.0368  0.1281 -0.5447
  553MOL0     C74565  -0.398   8.955   2.896 -0.3202 -0.6549 -0.5447
  553MOL0     C74566  -0.309   9.041   2.833  0.2970 -0.2309 -0.8203
  553MOL0     O74567  -0.358   9.259   2.518 -1.1739  0.3979  0.2816
  553MOL0     C74568  -0.110   9.475   2.632 -0.3117 -0.0628  0.4023
  553MOL0     C74569  -0.054   9.606   2.621  1.0389 -0.7718  0.5738
  553MOL0     N74570   0.124  10.108   2.091 -0.7077  1.1666  0.5729
  553MOL0     N74571   0.159  10.198   2.005  0.4725  0.2323 -0.4325
  553MOL0     C74572  -0.174  10.213   1.001 -0.0881 -0.6254 -0.1419
  553MOL0     C74573  -0.170  10.208   0.865  0.2053 -0.4801 -0.2653
  553MOL0     C74574   0.012  10.350   0.437 -0.0667  0.1274  0.3234
  553MOL0     C74575  -0.116  10.315   0.389  0.2166 -0.5075  0.0081
  553MOL0     C74576  -0.141  10.307   0.255 -0.1172  0.2400 -0.3196
  553MOL0     C74577  -0.051  10.342   0.160 -1.1529 -0.0546  0.2967
  553MOL0     O74578  -0.094  10.327   0.032  0.2852  0.0538 -0.0515
  553MOL0     C74579  -0.005  10.268  -0.063  0.0952  0.1913 -0.0607
  553MOL0     C74580   0.022  10.365  -0.177 -0.6523  0.2175 -0.3700
  553MOL0     C74581   0.076  10.505  -0.130 -0.1911  0.1217 -1.1541
  553MOL0     C74582   0.087  10.604  -0.248 -0.9479  0.1463 -0.3270
  553MOL0     C74583   0.231  10.641  -0.270 -0.2515 -0.1497  0.0260
  553MOL0     C74584   0.350  10.662  -0.281 -0.1823  0.0790 -0.3774
  553MOL0     C74585   0.071  10.387   0.203 -0.1382 -0.5047  0.1414
  553MOL0     C74586   0.107  10.391   0.342  0.0542 -0.3983  0.9012
  553MOL0     C74587   0.253  10.436   0.377  0.7686 -0.6144  0.0094
  553MOL0     H74588  -0.048  10.515   0.793  3.5199 -0.5444 -0.9596
  553MOL0     H74589  -0.070  10.534   1.053  1.8401 -0.3257 -0.3805
  553MOL0     H74590  -0.038  10.477   1.309  1.4969  0.7377 -4.1436
  553MOL0     H74591  -0.174  10.537   1.229  0.5826 -1.4585 -0.7086
  553MOL0     H74592  -0.320  10.402   1.364 -1.6429  4.0200  0.1303
  553MOL0     H74593  -0.237  10.518   1.465  0.4311 -1.3914  0.9322
  553MOL0     H74594  -0.063  10.333   1.512  0.5500  1.3206 -1.0321
  553MOL0     H74595  -0.191  10.225   1.464 -1.0039 -0.3215  1.8859
  553MOL0     H74596  -0.347  10.357   1.619 -1.0001 -2.5820  1.5972
  553MOL0     H74597  -0.233  10.232   1.688  1.1474  0.0751  0.2990
  553MOL0     H74598  -0.155  10.517   1.675  1.8992 -1.7364 -0.8703
  553MOL0     H74599  -0.250  10.467   1.818 -0.1733 -0.6894  0.5865
  553MOL0     H74600  -0.083  10.296   1.873 -0.3312  0.1773  2.2570
  553MOL0     H74601   0.032  10.359   1.754 -0.1199  0.3518  0.6693
  553MOL0     H74602  -0.075  10.539   1.974 -1.4848 -0.4581 -2.9944
  553MOL0     H74603   0.023  10.575   1.840 -0.9366  1.2432  0.8897
  553MOL0     H74604   0.199  10.426   1.901  0.5896 -0.4498  0.7763
  553MOL0     H74605   0.168  10.518   2.050 -1.9543  2.4277 -0.4566
  553MOL0     H74606   0.025  10.381   2.240 -1.7730 -1.6556  2.0444
  553MOL0     H74607  -0.051  10.140   2.366  0.9262  0.6839 -0.8958
  553MOL0     H74608  -0.012   9.982   2.279 -1.2093 -1.3402  2.0723
  553MOL0     H74609   0.236  10.044   2.340  0.3820  2.1920  0.0205
  553MOL0     H74610   0.156  10.160   2.443 -3.4213  0.4726 -1.0262
  553MOL0     H74611   0.075   9.986   2.586 -0.4157  0.9494 -0.4995
  553MOL0     H74612   0.245   9.939   2.540  0.6461  2.2445  1.7539
  553MOL0     H74613   0.145   9.739   2.504 -0.0111  0.8962  2.5382
  553MOL0     H74614   0.109   9.826   2.350 -0.2389  1.5712  0.2685
  553MOL0     H74615  -0.236   9.683   2.340  0.9754 -0.1609  0.2167
  553MOL0     H74616  -0.362   9.497   2.399 -1.4619  0.8205  2.2656
  553MOL0     H74617  -0.531   9.275   2.714  5.1504  2.8820 -0.8790
  553MOL0     H74618  -0.674   9.122   2.878  0.4688 -0.9949 -0.2928
  553MOL0     H74619  -0.543   8.730   2.944 -0.3896  3.2380 -1.2839
  553MOL0     H74620  -0.511   8.799   3.097 -0.4665  3.0017  1.2314
  553MOL0     H74621  -0.689   8.624   3.120  2.5304 -0.3146 -1.5608
  553MOL0     H74622  -0.772   8.779   3.148 -0.4731  1.2129 -0.9614
  553MOL0     H74623  -0.863   8.772   2.903  1.8975  0.4846 -1.1931
  553MOL0     H74624  -0.764   8.642   2.875 -1.8395 -2.4048 -0.1803
  553MOL0     H74625  -0.983   8.633   3.092 -2.6354 -0.1523 -1.8304
  553MOL0     H74626  -0.871   8.509   3.068  0.1686 -0.8637 -1.6393
  553MOL0     H74627  -0.962   8.497   2.823 -0.0068  2.2655 -0.9834
  553MOL0     H74628  -1.075   8.613   2.876  1.9165  0.7712 -1.7223
  553MOL0     H74629  -1.049   8.354   3.029  3.1267  2.5047  1.6602
  553MOL0     H74630  -1.176   8.471   3.060 -2.5978 -2.4754 -1.3533
  553MOL0     H74631  -1.133   8.342   2.785  0.1787 -0.6814 -0.5495
  553MOL0     H74632  -1.261   8.450   2.824  2.3010  0.5216 -3.4536
  553MOL0     H74633  -1.360   8.301   2.987 -1.9599 -3.6118  0.2227
  553MOL0     H74634  -1.365   8.217   2.842  0.5732 -2.3472  3.9231
  553MOL0     H74635  -0.352   8.866   2.938 -1.6238 -0.7670  0.7092
  553MOL0     H74636  -0.208   9.005   2.845 -1.1703 -4.2280  1.7217
  553MOL0     H74637  -0.076   9.418   2.718 -0.0597 -0.4977  0.0199
  553MOL0     H74638   0.040   9.632   2.669  0.4751  0.6605  0.9617
  553MOL0     H74639  -0.212  10.135   1.066 -0.9134  1.3851  1.9478
  553MOL0     H74640  -0.215  10.122   0.817 -1.1373  1.1753 -2.1287
  553MOL0     H74641  -0.209  10.289   0.438 -0.2008 -0.6552 -0.8340
  553MOL0     H74642  -0.239  10.275   0.222 -0.6167  0.3625  1.0001
  553MOL0     H74643  -0.066  10.186  -0.103 -2.0525  1.2520  0.8684
  553MOL0     H74644   0.083  10.219  -0.019 -0.7895  0.0684  1.6840
  553MOL0     H74645  -0.076  10.384  -0.221 -0.3763 -0.6295 -1.3865
  553MOL0     H74646   0.094  10.328  -0.251  0.1936  2.3975 -0.7138
  553MOL0     H74647   0.171  10.488  -0.079 -2.5959 -4.5791  2.5221
  553MOL0     H74648   0.016  10.553  -0.052 -2.0636 -1.4906 -1.5336
  553MOL0     H74649   0.048  10.560  -0.341 -0.5260 -1.7639  0.3610
  553MOL0     H74650   0.034  10.693  -0.211  1.3216  1.2770  0.3921
  553MOL0     H74651   0.456  10.677  -0.291 -0.0229 -1.3266 -1.0369
  553MOL0     H74652   0.145  10.425   0.133  0.1908 -1.6153 -0.1242
  553MOL0     H74653   0.311  10.466   0.289 -0.0485 -0.6214 -0.5384
  553MOL0     H74654   0.252  10.519   0.449  0.3817 -1.3074  0.8182
  553MOL0     H74655   0.306  10.356   0.429 -0.6252 -2.3554 -1.1363
  554MOL0     O74656  10.932   3.445   2.048 -0.1063  0.7522  0.3510
  554MOL0     C74657  10.890   3.458   1.929 -0.0776 -0.1361 -0.6030
  554MOL0     O74658  10.950   3.419   1.817  0.2323  0.4492 -0.1510
  554MOL0     C74659  11.069   3.362   1.831 -0.3809  0.7384 -0.5415
  554MOL0     C74660  11.089   3.230   1.879  0.0512 -0.0119  0.5428
  554MOL0     C74661  11.220   3.179   1.891 -0.1740  0.1862  0.2032
  554MOL0     C74662  11.329   3.251   1.850 -1.1542 -0.1850  0.1760
  554MOL0     O74663  11.460   3.211   1.851 -0.2358 -0.0374  0.1647
  554MOL0     C74664  11.488   3.069   1.841  0.6613  0.3074  0.3143
  554MOL0     C74665  11.641   3.044   1.812 -0.4865 -0.1703  0.7823
  554MOL0     C74666  11.720   3.119   1.700  0.0773 -0.1563 -0.0311
  554MOL0     C74667  11.630   3.113   1.574 -0.2947  0.5925  0.2893
  554MOL0     C74668  11.731   3.118   1.451 -0.6989 -0.7902  0.6055
  554MOL0     C74669  11.648   3.078   1.322 -0.7004  0.5563 -1.1354
  554MOL0     C74670  11.735   3.117   1.194  0.5132  0.2135 -0.1795
  554MOL0     C74671  11.677   3.045   1.079  1.3978 -1.4508  0.4353
  554MOL0     N74672  11.530   3.074   1.071  0.1182  0.6464 -0.5264
  554MOL0     C74673  11.465   3.189   1.027 -0.1923  0.7216  1.0199
  554MOL0     C74674  11.336   3.148   1.026  0.9972 -0.0208  1.0952
  554MOL0     C74675  11.217   3.233   0.983 -0.3251  0.2772 -1.4541
  554MOL0     C74676  11.182   3.186   0.846  0.3092 -0.4754  0.4679
  554MOL0     C74677  11.269   3.258   0.740 -0.6177 -0.3224 -0.1802
  554MOL0     C74678  11.275   3.198   0.594 -0.2087  0.2833  0.7049
  554MOL0     O74679  11.395   3.123   0.580  0.2420 -0.5889  0.6653
  554MOL0     C74680  11.445   3.022   0.661  0.1777 -0.2195  0.8214
  554MOL0     C74681  11.584   3.009   0.664  0.3592 -0.2009  0.6009
  554MOL0     C74682  11.642   2.900   0.737  0.5994  0.1451 -0.6911
  554MOL0     C74683  11.555   2.829   0.814  0.6187  0.7133  0.2129
  554MOL0     C74684  11.613   2.721   0.902 -0.2287  0.1040 -0.3686
  554MOL0     O74685  11.746   2.737   0.919 -0.3187 -0.2880 -0.5545
  554MOL0     C74686  11.815   2.654   1.015 -0.7023  0.5055  0.2353
  554MOL0     C74687  11.931   2.573   0.977 -0.7074  0.6423 -1.0218
  554MOL0     C74688  11.998   2.500   1.072  0.3564  0.3903  0.5071
  554MOL0     C74689  11.959   2.499   1.202  1.0923 -0.4607  0.4323
  554MOL0     O74690  12.041   2.432   1.290  0.2448  0.2340  0.1576
  554MOL0     C74691  12.029   2.289   1.284  0.7368 -0.5610  0.4303
  554MOL0     C74692  12.029   2.240   1.433 -0.6732  0.3174  0.5136
  554MOL0     C74693  12.165   2.231   1.508 -0.1464 -0.4297 -0.0270
  554MOL0     C74694  12.180   2.358   1.594  0.1202  0.3593  1.1360
  554MOL0     C74695  12.284   2.361   1.707 -0.4158 -0.8868  0.3217
  554MOL0     C74696  12.433   2.353   1.662  0.7801  0.0033  0.5706
  554MOL0     C74697  12.512   2.328   1.797 -1.0030  0.0950  0.1173
  554MOL0     C74698  12.658   2.313   1.763  0.5843 -0.1935 -0.4983
  554MOL0    Cl74699  12.746   2.256   1.908 -0.1253 -0.8328 -0.3167
  554MOL0     C74700  11.848   2.571   1.246  0.6295  0.2139  1.3782
  554MOL0     C74701  11.771   2.641   1.147 -0.2265 -0.2252 -0.6636
  554MOL0     O74702  11.540   2.631   0.946  0.7237 -0.5028 -0.5635
  554MOL0     C74703  11.417   2.844   0.802 -0.1219  0.7671  0.2326
  554MOL0     C74704  11.357   2.930   0.717  0.0479 -0.7272 -0.4675
  554MOL0     N74705  11.325   3.022   1.055 -0.2195 -0.0870 -0.2819
  554MOL0     N74706  11.438   2.983   1.100  0.0202  0.4492 -1.0148
  554MOL0     C74707  11.305   3.380   1.812 -1.0861 -0.8601 -0.2502
  554MOL0     C74708  11.187   3.443   1.809  0.6212  0.1858  0.4522
  554MOL0     C74709  10.769   3.549   1.915 -0.1386  0.3656 -0.1171
  554MOL0     C74710  10.723   3.629   2.016  0.1928 -0.0799 -0.4018
  554MOL0     C74711  10.607   3.710   2.008 -0.2941  0.5647  0.5370
  554MOL0     C74712  10.542   3.723   1.890  0.0623 -0.7876 -0.7383
  554MOL0     O74713  10.423   3.792   1.873  0.0746  0.0637  0.2483
  554MOL0     C74714  10.394   3.906   1.952 -0.0321 -1.2074 -0.4339
  554MOL0     C74715  10.363   4.018   1.849 -0.1241  0.5204 -0.8321
  554MOL0     C74716  10.494   4.096   1.822  1.1777 -0.1995 -0.0876
  554MOL0     C74717  10.521   4.121   1.681  0.8771 -0.7586 -0.0347
  554MOL0     C74718  10.516   4.002   1.599 -1.4550  0.5194  0.7878
  554MOL0     C74719  10.505   3.892   1.546  0.3543 -0.0057  0.2568
  554MOL0     C74720  10.593   3.657   1.783  0.0373  0.3653 -0.4984
  554MOL0     C74721  10.696   3.565   1.794 -0.5260 -0.8422  0.0816
  554MOL0     C74722  10.717   3.471   1.675  0.4233 -0.0241 -0.5029
  554MOL0     H74723  11.004   3.168   1.905 -0.7137  0.4465 -0.7500
  554MOL0     H74724  11.246   3.083   1.934  0.1711  0.8292  1.4413
  554MOL0     H74725  11.477   3.022   1.940 -2.0260  0.3537  0.1031
  554MOL0     H74726  11.411   3.030   1.774 -0.3241 -0.4566  1.8222
  554MOL0     H74727  11.650   2.936   1.793  3.9928  0.2318 -0.6510
  554MOL0     H74728  11.707   3.059   1.898 -1.7084 -0.9989  1.8892
  554MOL0     H74729  11.809   3.057   1.683 -1.6808 -2.2322 -2.5249
  554MOL0     H74730  11.740   3.221   1.734  0.8866  0.5467 -2.3547
  554MOL0     H74731  11.569   3.025   1.553 -1.5456  1.5574 -0.2923
  554MOL0     H74732  11.559   3.196   1.586 -0.1128  0.8018 -0.0777
  554MOL0     H74733  11.766   3.222   1.448  1.5342 -1.2214  4.5362
  554MOL0     H74734  11.824   3.062   1.466  0.2046  0.6473  0.5772
  554MOL0     H74735  11.617   2.973   1.328 -1.7365  0.8321 -1.4275
  554MOL0     H74736  11.554   3.133   1.318 -0.9295  0.2202 -0.6132
  554MOL0     H74737  11.839   3.083   1.203  0.4554  0.0077 -0.3105
  554MOL0     H74738  11.723   3.224   1.171 -1.0038 -0.0331 -0.5931
  554MOL0     H74739  11.731   3.062   0.985  0.6549 -0.2617  0.1936
  554MOL0     H74740  11.687   2.938   1.097  0.3015 -1.5292  0.6802
  554MOL0     H74741  11.518   3.282   1.009 -0.3921  0.6951  0.2663
  554MOL0     H74742  11.134   3.215   1.052  2.1229 -0.9757  1.4192
  554MOL0     H74743  11.238   3.339   0.998 -2.0798  0.3158  1.5505
  554MOL0     H74744  11.199   3.078   0.839  0.1155 -0.6637  2.2452
  554MOL0     H74745  11.077   3.211   0.829  0.5771  2.2947  2.1838
  554MOL0     H74746  11.373   3.270   0.774 -0.6128  1.6358 -0.7541
  554MOL0     H74747  11.225   3.355   0.715 -1.9552 -0.8551  0.0571
  554MOL0     H74748  11.262   3.277   0.520  1.0681  1.2835  1.4999
  554MOL0     H74749  11.192   3.126   0.590 -0.4003  0.1631  3.9118
  554MOL0     H74750  11.647   3.078   0.609 -0.7181  1.4192  1.3339
  554MOL0     H74751  11.750   2.890   0.736  0.8123  2.0499 -2.0820
  554MOL0     H74752  11.975   2.569   0.878  0.7051  0.1029 -0.4073
  554MOL0     H74753  12.096   2.469   1.037  0.3499  0.0599  0.7765
  554MOL0     H74754  11.932   2.268   1.238  0.1033 -1.7076  2.2052
  554MOL0     H74755  12.106   2.239   1.225 -0.9296 -1.5260 -1.0272
  554MOL0     H74756  11.953   2.299   1.483 -4.0394 -1.2882 -2.2869
  554MOL0     H74757  11.988   2.139   1.437  0.1293 -0.0977 -0.9634
  554MOL0     H74758  12.158   2.152   1.584 -1.5624  0.3284  0.6566
  554MOL0     H74759  12.244   2.224   1.433 -1.1449 -1.2644 -1.0243
  554MOL0     H74760  12.089   2.369   1.654  0.8230  2.3057  1.9170
  554MOL0     H74761  12.195   2.437   1.520 -3.0061 -0.1836 -0.2808
  554MOL0     H74762  12.258   2.272   1.766 -2.4217  0.9300  2.3925
  554MOL0     H74763  12.265   2.446   1.774 -0.2432 -1.7783  1.5255
  554MOL0     H74764  12.445   2.270   1.592  0.8018 -0.6134  1.2849
  554MOL0     H74765  12.474   2.446   1.623  1.8997  0.9905  3.7444
  554MOL0     H74766  12.465   2.239   1.840 -2.4351 -0.3446 -2.2108
  554MOL0     H74767  12.501   2.414   1.863  0.7171  1.8704 -1.7710
  554MOL0     H74768  12.680   2.250   1.676 -3.3811 -1.7256 -0.6167
  554MOL0     H74769  12.690   2.413   1.732 -1.4308  0.8341  0.5202
  554MOL0     H74770  11.827   2.568   1.352  2.7420  1.5597  1.8975
  554MOL0     H74771  11.680   2.692   1.178 -0.4988 -0.0413 -1.7491
  554MOL0     H74772  11.361   2.773   0.862 -0.4301  1.0389  0.2652
  554MOL0     H74773  11.249   2.926   0.704 -0.0741  0.5470 -0.0434
  554MOL0     H74774  11.395   3.438   1.793 -1.6941 -0.6266 -2.8189
  554MOL0     H74775  11.173   3.551   1.805 -1.6021 -0.0271  1.0180
  554MOL0     H74776  10.763   3.634   2.117 -0.1933 -1.8157 -0.1203
  554MOL0     H74777  10.568   3.770   2.090  0.0889 -1.9187  2.6805
  554MOL0     H74778  10.473   3.940   2.019 -1.6570 -0.1804  1.0782
  554MOL0     H74779  10.303   3.884   2.009 -0.8293  4.0226  0.9077
  554MOL0     H74780  10.288   4.087   1.889 -0.8333 -1.1585  0.9040
  554MOL0     H74781  10.320   3.965   1.763 -0.8817  0.3763 -0.3718
  554MOL0     H74782  10.579   4.046   1.869 -1.2987 -3.1597  1.6099
  554MOL0     H74783  10.491   4.198   1.864 -2.4178  0.1934 -0.9598
  554MOL0     H74784  10.444   4.190   1.643  0.1509 -1.9938 -0.8788
  554MOL0     H74785  10.624   4.159   1.682  0.9696 -1.0130  0.2302
  554MOL0     H74786  10.480   3.802   1.493 -2.8492  1.1183 -0.3631
  554MOL0     H74787  10.532   3.654   1.694 -1.8607 -0.2387  0.7753
  554MOL0     H74788  10.617   3.442   1.641 -0.1260 -2.1153  2.4431
  554MOL0     H74789  10.779   3.527   1.605  0.0697  1.8455  0.6064
  554MOL0     H74790  10.759   3.375   1.706 -1.2385 -1.0338 -1.2054
  555MOL0     O74791  10.638   8.254   5.016 -0.3003 -0.4966 -0.2990
  555MOL0     C74792  10.583   8.153   5.044  0.3426 -0.4880  0.3520
  555MOL0     O74793  10.452   8.120   5.015 -0.4313 -0.5391 -0.0992
  555MOL0     C74794  10.362   8.211   4.973  0.1664  0.4249  0.7014
  555MOL0     C74795  10.365   8.354   4.964  0.8764  0.3475  0.2472
  555MOL0     C74796  10.250   8.427   4.932  0.8703 -0.0803 -0.2546
  555MOL0     C74797  10.133   8.361   4.909  0.6672 -0.9330 -0.3999
  555MOL0     O74798  10.034   8.443   4.859  1.0021  0.8000  0.9484
  555MOL0     C74799   9.918   8.394   4.790 -0.7645  0.1324 -0.4318
  555MOL0     C74800   9.805   8.508   4.779 -0.0463 -0.0673 -0.4920
  555MOL0     C74801   9.828   8.613   4.669 -0.1831  0.6154 -0.0954
  555MOL0     C74802   9.963   8.686   4.662  0.4868  0.5026  0.0417
  555MOL0     C74803   9.970   8.776   4.536  0.4241  0.3778 -0.9359
  555MOL0     C74804  10.100   8.857   4.522  0.0161  0.0623 -1.0391
  555MOL0     C74805  10.201   8.771   4.437 -0.5230  0.6896  0.4346
  555MOL0     C74806  10.168   8.770   4.292 -0.0861 -0.7707 -0.0230
  555MOL0     N74807  10.210   8.890   4.222 -0.5598 -0.4058  0.1479
  555MOL0     C74808  10.146   9.010   4.197 -0.4096 -0.3410  0.3723
  555MOL0     C74809  10.230   9.081   4.113 -0.6299  0.1911 -0.4012
  555MOL0     C74810  10.195   9.218   4.051  0.2418  0.0742 -0.5716
  555MOL0     C74811  10.323   9.299   4.015  0.0860 -1.2043  0.1602
  555MOL0     C74812  10.425   9.316   4.130  0.8913 -0.1100  0.6550
  555MOL0     C74813  10.387   9.429   4.227 -1.0753 -0.6420 -0.2060
  555MOL0     O74814  10.381   9.546   4.145 -0.2662 -0.0229 -0.1806
  555MOL0     C74815  10.476   9.639   4.179  0.1989  0.9812  0.0650
  555MOL0     C74816  10.604   9.630   4.119  0.2452  0.1728  0.3322
  555MOL0     C74817  10.702   9.720   4.155 -0.3239 -1.4986  0.1210
  555MOL0     C74818  10.677   9.821   4.246  0.2676 -0.2092 -0.6827
  555MOL0     C74819  10.771   9.939   4.263 -0.0714  0.5952 -0.2935
  555MOL0     O74820  10.734  10.048   4.346  0.5011  0.1451 -0.1170
  555MOL0     C74821  10.826  10.145   4.373  0.0838  0.1857 -0.0676
  555MOL0     C74822  10.835  10.266   4.304 -0.2431  0.7296  0.1925
  555MOL0     C74823  10.926  10.361   4.354 -0.4489 -0.4916 -0.1789
  555MOL0     C74824  10.996  10.337   4.474 -0.4056  0.5872 -0.2395
  555MOL0     O74825  11.062  10.434   4.543  0.1822 -0.1559 -0.3780
  555MOL0     C74826  10.991  10.563   4.541  0.2363  0.4661  0.0426
  555MOL0     C74827  11.017  10.647   4.667 -0.1531  0.7399 -0.5396
  555MOL0     C74828  11.165  10.657   4.696 -0.1256 -0.0287 -0.6974
  555MOL0     C74829  11.199  10.715   4.837  0.0256 -0.9682 -0.0612
  555MOL0     C74830  11.320  10.798   4.835 -1.1237  0.7910 -0.8188
  555MOL0     C74831  11.342  10.837   4.979 -0.7743  0.9016  0.9410
  555MOL0     C74832  11.487  10.886   4.986  0.3569 -0.3102  0.4200
  555MOL0     C74833  11.530  10.927   5.126  0.9240 -0.5846 -0.4685
  555MOL0    Cl74834  11.540  10.774   5.223  0.0144 -0.4289  0.5382
  555MOL0     C74835  10.991  10.215   4.535 -0.0071 -0.1713  0.7434
  555MOL0     C74836  10.891  10.121   4.493 -1.1445 -0.1157 -0.2995
  555MOL0     O74837  10.882   9.918   4.212  0.5976 -0.2182 -0.1666
  555MOL0     C74838  10.556   9.820   4.313  0.7882  0.0526 -0.4326
  555MOL0     C74839  10.461   9.730   4.276  0.3395  0.4120  0.3114
  555MOL0     N74840  10.344   9.009   4.105 -1.0586 -0.1486  0.4074
  555MOL0     N74841  10.330   8.894   4.161  0.6150  0.4092 -0.5115
  555MOL0     C74842  10.126   8.222   4.913 -0.9844  0.9291 -0.4491
  555MOL0     C74843  10.242   8.147   4.942  0.2542  0.0822  0.2237
  555MOL0     C74844  10.661   8.048   5.110 -0.3930 -0.0812  1.9301
  555MOL0     C74845  10.732   8.079   5.226  0.6801  0.7139 -1.0213
  555MOL0     C74846  10.807   7.982   5.295 -0.3369 -0.2342  0.1708
  555MOL0     C74847  10.821   7.849   5.241 -0.3731  0.5407 -0.6684
  555MOL0     O74848  10.914   7.760   5.305 -1.3043 -0.6940  0.2577
  555MOL0     C74849  10.938   7.621   5.260  0.1998  0.8414  0.6697
  555MOL0     C74850  11.077   7.592   5.317  0.5835  0.4240 -0.0696
  555MOL0     C74851  11.097   7.472   5.415 -1.0895 -1.3760 -0.5862
  555MOL0     C74852  11.246   7.417   5.440 -0.6642  0.4201  0.2869
  555MOL0     C74853  11.232   7.323   5.551 -0.5277 -0.6686  0.5611
  555MOL0     C74854  11.223   7.236   5.640  0.1353 -0.6241 -0.2212
  555MOL0     C74855  10.758   7.816   5.121  0.1525  0.3603 -0.1179
  555MOL0     C74856  10.685   7.918   5.050  0.1085 -0.2142 -1.1597
  555MOL0     C74857  10.634   7.893   4.918  0.1418  0.7149  0.2881
  555MOL0     H74858  10.456   8.408   4.989 -0.3387  1.9527  1.3874
  555MOL0     H74859  10.253   8.535   4.920 -1.4738  0.0018 -0.5843
  555MOL0     H74860   9.948   8.369   4.688  0.5506 -0.3002  0.0293
  555MOL0     H74861   9.865   8.306   4.829  0.5667 -1.6168 -2.3270
  555MOL0     H74862   9.784   8.551   4.877 -1.1057 -0.1688 -0.6608
  555MOL0     H74863   9.708   8.469   4.747 -1.9683  0.7541  3.6303
  555MOL0     H74864   9.757   8.690   4.699 -0.2514  0.9335 -1.0566
  555MOL0     H74865   9.798   8.566   4.575  0.4846  1.6384 -0.8418
  555MOL0     H74866   9.990   8.741   4.753  1.9060  0.4942 -0.3427
  555MOL0     H74867  10.041   8.612   4.641 -0.2305  0.2402 -1.8343
  555MOL0     H74868   9.956   8.715   4.446 -3.2800 -2.7749  1.4326
  555MOL0     H74869   9.881   8.840   4.542  1.2583  1.4825  4.0351
  555MOL0     H74870  10.077   8.952   4.472 -2.6078  0.1063  0.0726
  555MOL0     H74871  10.148   8.876   4.618  0.3286  0.0648 -1.1942
  555MOL0     H74872  10.220   8.667   4.465 -0.6899  0.1779 -1.2515
  555MOL0     H74873  10.299   8.820   4.438 -0.0637 -0.2008  1.4379
  555MOL0     H74874  10.221   8.687   4.245 -1.2344 -1.2249 -0.5586
  555MOL0     H74875  10.062   8.761   4.268  0.0274 -2.5593  0.0444
  555MOL0     H74876  10.055   9.050   4.241 -0.4104  0.0518  0.0149
  555MOL0     H74877  10.123   9.208   3.970 -2.4377 -1.1211  1.7926
  555MOL0     H74878  10.134   9.269   4.127  1.3778  1.2810 -0.4331
  555MOL0     H74879  10.371   9.235   3.940 -2.3130 -1.8350 -0.9475
  555MOL0     H74880  10.315   9.390   3.953  0.5671 -1.1599  0.1582
  555MOL0     H74881  10.521   9.336   4.083 -1.1545  0.0756 -4.0613
  555MOL0     H74882  10.428   9.223   4.189 -1.1041  0.9526  2.5847
  555MOL0     H74883  10.471   9.430   4.297  1.1893  1.2128 -2.7529
  555MOL0     H74884  10.288   9.407   4.268 -0.2061  1.8763  3.8794
  555MOL0     H74885  10.637   9.564   4.039  4.0444  0.5894  1.3854
  555MOL0     H74886  10.801   9.715   4.113  0.6610 -2.5714  2.4025
  555MOL0     H74887  10.792  10.288   4.207 -0.5302 -0.2997  0.0739
  555MOL0     H74888  10.919  10.460   4.309 -1.8355 -0.2979  0.4293
  555MOL0     H74889  11.034  10.618   4.457  0.8437 -1.7498 -1.1710
  555MOL0     H74890  10.882  10.552   4.536  0.0172  2.4387 -0.4141
  555MOL0     H74891  10.993  10.753   4.661 -0.4351  0.9289  2.3617
  555MOL0     H74892  10.974  10.589   4.749  1.7395 -1.5229 -1.0215
  555MOL0     H74893  11.200  10.554   4.695 -3.0837 -1.1345 -0.4027
  555MOL0     H74894  11.218  10.715   4.620  1.2678 -0.6496 -0.2306
  555MOL0     H74895  11.207  10.631   4.905 -1.7124 -0.8802  0.2802
  555MOL0     H74896  11.111  10.773   4.865 -1.3782 -1.6978 -2.5732
  555MOL0     H74897  11.320  10.889   4.773  2.8077  1.9485  0.5664
  555MOL0     H74898  11.399  10.730   4.801 -1.3730  0.3221 -0.4652
  555MOL0     H74899  11.275  10.921   5.000  0.7678  2.4643 -0.1633
  555MOL0     H74900  11.325  10.751   5.044 -2.2412  0.0735 -0.4693
  555MOL0     H74901  11.496  10.969   4.916 -1.4135 -2.5847 -2.7419
  555MOL0     H74902  11.559  10.811   4.952  1.0114  0.6749 -0.4106
  555MOL0     H74903  11.629  10.974   5.132  0.1357  0.9624  1.6124
  555MOL0     H74904  11.464  10.995   5.181  0.9492 -2.0997  1.5532
  555MOL0     H74905  11.039  10.192   4.630 -3.4929 -0.3292  2.6298
  555MOL0     H74906  10.852  10.035   4.546 -1.6141 -0.4095 -1.1080
  555MOL0     H74907  10.529   9.906   4.372  2.3056  1.3808 -1.5797
  555MOL0     H74908  10.361   9.734   4.317  0.3274  0.2303  0.2982
  555MOL0     H74909  10.037   8.163   4.892  0.0833 -0.8728 -0.0697
  555MOL0     H74910  10.233   8.039   4.951  1.4990  0.1426  3.2485
  555MOL0     H74911  10.724   8.173   5.279  0.0826 -0.8259  1.7721
  555MOL0     H74912  10.863   8.004   5.386 -3.0278 -0.7073  2.0593
  555MOL0     H74913  10.942   7.608   5.151  2.7128  0.0127  0.8004
  555MOL0     H74914  10.850   7.566   5.295 -1.6590  1.7713 -2.1791
  555MOL0     H74915  11.110   7.676   5.379  1.6901 -0.1307  0.1296
  555MOL0     H74916  11.152   7.585   5.238  0.6103 -2.1442  0.0974
  555MOL0     H74917  11.037   7.393   5.369 -2.3304 -1.3757  0.9372
  555MOL0     H74918  11.053   7.497   5.513 -0.0474  2.3697 -0.9199
  555MOL0     H74919  11.281   7.360   5.353 -0.4891  0.1903  0.5059
  555MOL0     H74920  11.323   7.490   5.466  0.5923 -1.1378  1.1728
  555MOL0     H74921  11.197   7.174   5.723  0.1045 -2.3918 -1.4787
  555MOL0     H74922  10.771   7.718   5.078  2.8160  1.7002 -2.6889
  555MOL0     H74923  10.529   7.863   4.916  0.7495 -1.6974  0.8059
  555MOL0     H74924  10.653   7.983   4.859 -0.4578  0.9764  0.4840
  555MOL0     H74925  10.701   7.818   4.875  2.0481  0.6131  3.1686
  556MOL0     O74926   5.384   4.085   0.122  0.0684 -0.5889  0.2595
  556MOL0     C74927   5.368   4.092   0.005 -0.6406  0.6198 -0.0531
  556MOL0     O74928   5.468   4.076  -0.084  0.2310  0.0611  0.5698
  556MOL0     C74929   5.594   4.044  -0.039 -0.7208 -0.4143  0.6064
  556MOL0     C74930   5.626   3.931   0.041  0.0642 -0.0206 -0.5338
  556MOL0     C74931   5.750   3.902   0.088 -0.8957  0.5842 -0.8221
  556MOL0     C74932   5.854   3.998   0.053 -0.0075  0.3768  0.2063
  556MOL0     O74933   5.983   3.964   0.078  0.3378 -0.2384 -1.1438
  556MOL0     C74934   6.013   3.986   0.216 -0.3790  0.1415 -0.1096
  556MOL0     C74935   6.149   3.931   0.247 -0.3499  0.3622  0.2403
  556MOL0     C74936   6.140   3.776   0.280  0.2459 -0.0149  0.1084
  556MOL0     C74937   6.081   3.733   0.420 -1.4250  0.5693  0.2468
  556MOL0     C74938   6.174   3.653   0.507 -0.2676  0.5258 -0.3801
  556MOL0     C74939   6.195   3.510   0.450  0.4729 -0.3020 -0.4077
  556MOL0     C74940   6.327   3.449   0.505 -0.1301  0.7273  0.8823
  556MOL0     C74941   6.325   3.297   0.499  0.4027 -0.7224  0.2671
  556MOL0     N74942   6.340   3.255   0.353  0.4739  0.2176 -0.6237
  556MOL0     C74943   6.234   3.198   0.282  0.7746  0.7708  0.6899
  556MOL0     C74944   6.293   3.120   0.186 -0.1687 -0.2407 -0.5392
  556MOL0     C74945   6.245   3.014   0.087  0.4977  0.5304  0.6015
  556MOL0     C74946   6.262   2.877   0.141  0.7201  0.4089 -0.3964
  556MOL0     C74947   6.205   2.762   0.063 -0.0466 -0.1949  0.5017
  556MOL0     C74948   6.241   2.626   0.131  0.4485  0.4783 -0.7794
  556MOL0     O74949   6.124   2.580   0.209 -0.0684 -0.0658  0.0642
  556MOL0     C74950   6.149   2.449   0.256  0.8279 -0.0902  0.7183
  556MOL0     C74951   6.248   2.404   0.339 -0.5203  0.0004 -1.2375
  556MOL0     C74952   6.265   2.273   0.376 -0.6261 -0.3358 -0.5643
  556MOL0     C74953   6.181   2.176   0.326  0.2697  0.2868  0.5341
  556MOL0     C74954   6.191   2.030   0.365  0.0907 -0.0465 -0.4466
  556MOL0     O74955   6.101   1.944   0.316  0.5324 -0.3070  0.2239
  556MOL0     C74956   6.136   1.817   0.304 -0.4121  0.4003 -0.3129
  556MOL0     C74957   6.154   1.740   0.425  0.4486 -0.4983 -0.0843
  556MOL0     C74958   6.197   1.604   0.421  0.0383 -0.6424  0.4289
  556MOL0     C74959   6.230   1.553   0.296 -0.1166  0.4761  0.5447
  556MOL0     O74960   6.270   1.427   0.276  0.0717  0.6372  0.1146
  556MOL0     C74961   6.175   1.336   0.208  0.2852 -0.4729 -0.9838
  556MOL0     C74962   6.043   1.310   0.285 -0.0167  0.3148 -0.2185
  556MOL0     C74963   5.957   1.222   0.200  0.0554  0.1550  0.5270
  556MOL0     C74964   5.900   1.098   0.278 -1.1985 -0.0148  0.3445
  556MOL0     C74965   5.786   1.025   0.201 -0.6167 -0.7312 -0.5529
  556MOL0     C74966   5.736   0.907   0.283 -0.0935  0.2545 -0.6783
  556MOL0     C74967   5.621   0.833   0.217  0.3084  0.0610 -0.2712
  556MOL0     C74968   5.563   0.707   0.290 -0.4135 -1.0063  0.5515
  556MOL0    Cl74969   5.695   0.581   0.320 -0.1507 -0.5358  0.2488
  556MOL0     C74970   6.195   1.626   0.178 -0.0233 -0.3023 -0.3295
  556MOL0     C74971   6.154   1.754   0.176 -0.1746  0.0265  0.3613
  556MOL0     O74972   6.289   2.003   0.428  0.2343 -1.4251 -0.4099
  556MOL0     C74973   6.078   2.215   0.243 -0.3204  0.1171  0.2546
  556MOL0     C74974   6.065   2.354   0.203 -0.1872 -0.6491  0.0646
  556MOL0     N74975   6.431   3.123   0.201 -0.4434 -1.3633 -0.4700
  556MOL0     N74976   6.460   3.194   0.311  0.5030 -0.3095 -0.3191
  556MOL0     C74977   5.820   4.114  -0.014  0.9855  0.0777 -0.5260
  556MOL0     C74978   5.693   4.133  -0.069 -0.0686 -0.6371  0.7364
  556MOL0     C74979   5.225   4.124  -0.051  0.0830 -0.0263 -0.8521
  556MOL0     C74980   5.206   4.086  -0.180  1.4244 -0.8693  0.4618
  556MOL0     C74981   5.085   4.102  -0.243  0.4937 -0.5038 -0.2814
  556MOL0     C74982   4.982   4.167  -0.173  0.0553 -0.5660  0.7554
  556MOL0     O74983   4.866   4.173  -0.249  0.1648  1.2374 -0.5931
  556MOL0     C74984   4.741   4.231  -0.187 -0.6045 -0.5088 -0.1791
  556MOL0     C74985   4.661   4.125  -0.115 -0.8580 -0.5355  0.3573
  556MOL0     C74986   4.595   4.032  -0.223  0.0945 -0.4857  0.5900
  556MOL0     C74987   4.480   4.100  -0.299 -0.6907  0.7082 -0.2812
  556MOL0     C74988   4.431   4.011  -0.405  0.5863  0.3138  0.3992
  556MOL0     C74989   4.394   3.933  -0.492 -0.1936 -0.3746  0.2249
  556MOL0     C74990   5.008   4.210  -0.042 -0.8706  0.4670 -0.2500
  556MOL0     C74991   5.131   4.186   0.032 -0.6584 -0.2911  0.6704
  556MOL0     C74992   5.149   4.245   0.168  0.1406 -0.6474 -0.4724
  556MOL0     H74993   5.547   3.862   0.066 -1.4082  1.7929  0.0437
  556MOL0     H74994   5.780   3.820   0.152 -1.6015  0.8739 -0.1058
  556MOL0     H74995   6.028   4.089   0.248 -0.1340 -0.2998  1.2416
  556MOL0     H74996   5.940   3.940   0.283 -0.9893  4.1039  2.3038
  556MOL0     H74997   6.180   3.971   0.344 -2.1632  0.2516  0.9110
  556MOL0     H74998   6.210   3.954   0.159 -3.0518  1.3432 -1.5038
  556MOL0     H74999   6.241   3.737   0.264 -1.0418 -2.3327 -3.9809
  556MOL0     H75000   6.085   3.721   0.203 -1.0941 -0.1663  1.1379
  556MOL0     H75001   6.067   3.831   0.467 -1.7353  1.3751 -1.4589
  556MOL0     H75002   5.987   3.679   0.410 -1.4419  0.9619 -2.7344
  556MOL0     H75003   6.274   3.697   0.510  0.4277 -0.9085  3.2631
  556MOL0     H75004   6.139   3.646   0.611 -0.3459 -1.1135 -0.4817
  556MOL0     H75005   6.115   3.450   0.495  0.0967 -0.3534 -1.1297
  556MOL0     H75006   6.194   3.516   0.341 -0.7467  1.8557 -0.3421
  556MOL0     H75007   6.350   3.488   0.604  3.2283  1.4501 -0.0390
  556MOL0     H75008   6.415   3.476   0.445  1.0527 -0.7264  1.8811
  556MOL0     H75009   6.409   3.249   0.550  1.9206 -1.3798 -2.6047
  556MOL0     H75010   6.231   3.255   0.535 -0.7413  2.8933  1.9135
  556MOL0     H75011   6.131   3.187   0.315  1.5776 -0.0223  3.1967
  556MOL0     H75012   6.141   3.030   0.056  1.0899 -1.2178 -2.7228
  556MOL0     H75013   6.305   3.016  -0.004  1.9465  2.2077  1.5382
  556MOL0     H75014   6.369   2.860   0.155  0.4283 -0.2448  1.3186
  556MOL0     H75015   6.199   2.868   0.231 -1.9085  1.1535 -2.0560
  556MOL0     H75016   6.251   2.760  -0.037  2.7108 -1.6832  1.6894
  556MOL0     H75017   6.098   2.779   0.050  0.1125  0.3206 -0.2576
  556MOL0     H75018   6.325   2.635   0.200 -0.1909  0.1963  0.0424
  556MOL0     H75019   6.267   2.548   0.058  0.4365 -1.6470  1.3848
  556MOL0     H75020   6.322   2.473   0.379 -1.8633  1.3572 -1.0198
  556MOL0     H75021   6.342   2.258   0.451 -1.0641  0.4853  0.0649
  556MOL0     H75022   6.118   1.788   0.516  1.1310  0.2545 -0.1992
  556MOL0     H75023   6.216   1.551   0.514 -1.1232 -3.4593 -0.8351
  556MOL0     H75024   6.144   1.384   0.114  0.2723  2.0335  0.2001
  556MOL0     H75025   6.230   1.245   0.183  2.2883  0.2606  0.5037
  556MOL0     H75026   6.072   1.261   0.378  0.4645  0.2870 -0.3794
  556MOL0     H75027   5.982   1.395   0.315  0.9116  0.8056  0.3040
  556MOL0     H75028   5.871   1.279   0.163  1.4665  0.7034 -2.2043
  556MOL0     H75029   6.004   1.188   0.107 -1.6219  0.3076 -0.4217
  556MOL0     H75030   5.862   1.132   0.375  1.6575 -1.7816  2.2646
  556MOL0     H75031   5.978   1.023   0.292 -1.0578 -0.1786 -1.1699
  556MOL0     H75032   5.819   0.998   0.100 -1.2723 -0.5194 -0.8306
  556MOL0     H75033   5.700   1.091   0.187 -1.1521 -1.6488 -1.7363
  556MOL0     H75034   5.819   0.837   0.301  1.7604  2.5384  0.1761
  556MOL0     H75035   5.697   0.949   0.377  0.8319  0.8173 -0.5388
  556MOL0     H75036   5.674   0.792   0.130 -1.3524 -3.0504  0.0717
  556MOL0     H75037   5.541   0.899   0.183  1.0339 -0.4366 -3.2256
  556MOL0     H75038   5.519   0.735   0.386  0.4812 -2.7947  1.5182
  556MOL0     H75039   5.481   0.664   0.232 -0.3416  1.0701 -1.2484
  556MOL0     H75040   6.224   1.580   0.084 -0.0990  0.4014 -0.7029
  556MOL0     H75041   6.154   1.819   0.089 -2.0618 -0.9065 -0.4146
  556MOL0     H75042   6.006   2.140   0.212  0.0006  1.3706 -4.1702
  556MOL0     H75043   5.994   2.391   0.130 -0.1541 -2.6454 -1.0452
  556MOL0     H75044   5.887   4.198  -0.029 -1.4664  2.3065  0.0700
  556MOL0     H75045   5.679   4.222  -0.130  2.9884  0.1062  0.9511
  556MOL0     H75046   5.274   4.032  -0.245  1.7225 -0.1602  0.1624
  556MOL0     H75047   5.072   4.071  -0.346  0.1535  1.9042 -1.0229
  556MOL0     H75048   4.676   4.276  -0.263  0.7083  3.5001  0.8095
  556MOL0     H75049   4.785   4.313  -0.130  1.2327 -1.0273 -0.7699
  556MOL0     H75050   4.588   4.166  -0.045  3.0271  1.4063  3.6654
  556MOL0     H75051   4.733   4.062  -0.063  0.3293  0.7471  0.3283
  556MOL0     H75052   4.569   3.942  -0.167  2.2206 -1.0656  0.7547
  556MOL0     H75053   4.670   4.003  -0.297  1.3012 -2.0420  2.3341
  556MOL0     H75054   4.396   4.121  -0.232 -0.1935 -0.3551  0.6913
  556MOL0     H75055   4.520   4.189  -0.348  3.6686 -1.5833 -1.3272
  556MOL0     H75056   4.357   3.873  -0.573  0.7891 -1.2305  0.3894
  556MOL0     H75057   4.922   4.247   0.013 -0.6419 -0.1102  0.4998
  556MOL0     H75058   5.247   4.291   0.181 -0.4133  0.1858  0.8546
  556MOL0     H75059   5.080   4.329   0.179 -0.3070 -0.6735 -2.6753
  556MOL0     H75060   5.128   4.169   0.244 -1.3002 -1.3420 -1.5109
  557MOL0     O75061   3.821   2.082   6.798 -0.0543 -0.5420  0.4830
  557MOL0     C75062   3.775   2.066   6.682  0.3031  0.8695 -0.0045
  557MOL0     O75063   3.661   1.989   6.646  0.4617  0.0328  0.1094
  557MOL0     C75064   3.569   1.934   6.731 -0.4464  0.1322  0.1297
  557MOL0     C75065   3.449   1.881   6.676 -0.7144  0.1832  0.1968
  557MOL0     C75066   3.347   1.836   6.756  0.1966  0.3017 -0.2099
  557MOL0     C75067   3.356   1.827   6.894  0.8581 -1.4203 -0.5449
  557MOL0     O75068   3.237   1.788   6.967 -0.4415  0.0609  0.2964
  557MOL0     C75069   3.255   1.763   7.113 -0.3437 -0.8985 -1.0036
  557MOL0     C75070   3.126   1.700   7.170 -0.8914  0.0100  0.4634
  557MOL0     C75071   3.038   1.616   7.075  0.3063  0.0129 -0.7379
  557MOL0     C75072   3.109   1.501   6.995 -0.0094 -1.0331 -0.1242
  557MOL0     C75073   3.015   1.429   6.891 -0.2233 -1.3440 -0.0369
  557MOL0     C75074   3.097   1.307   6.830 -0.2771 -0.1018 -0.4096
  557MOL0     C75075   3.024   1.227   6.725  0.0742 -0.6808 -0.6803
  557MOL0     C75076   3.127   1.168   6.628  0.2360 -0.2063  0.5181
  557MOL0     N75077   3.102   1.033   6.595 -0.3328 -0.2047 -0.6602
  557MOL0     C75078   3.083   0.923   6.676 -1.2330  0.2322 -0.3231
  557MOL0     C75079   3.080   0.820   6.597  0.4625 -0.3272 -0.8065
  557MOL0     C75080   3.039   0.686   6.638 -0.8287  0.2158  0.0413
  557MOL0     C75081   3.161   0.593   6.663 -0.3117  0.3688 -0.8354
  557MOL0     C75082   3.233   0.546   6.538  0.8974  0.6256 -0.4339
  557MOL0     C75083   3.357   0.470   6.578 -0.3569  0.4358  0.5285
  557MOL0     O75084   3.451   0.553   6.644 -0.0364  0.1629 -0.1028
  557MOL0     C75085   3.549   0.610   6.573 -0.3588  0.7788  0.0751
  557MOL0     C75086   3.556   0.637   6.435  0.3405  0.1092  0.1510
  557MOL0     C75087   3.680   0.678   6.377 -0.2378  0.0030 -0.1591
  557MOL0     C75088   3.795   0.699   6.454  0.8096 -0.0325 -0.0438
  557MOL0     C75089   3.917   0.752   6.391  0.8613 -0.3354 -0.2676
  557MOL0     O75090   3.918   0.799   6.260  0.7805 -0.0874  0.9814
  557MOL0     C75091   4.038   0.841   6.208  0.1542  0.3128 -0.3937
  557MOL0     C75092   4.089   0.954   6.262 -0.2684  0.4838  1.1144
  557MOL0     C75093   4.205   1.012   6.204 -0.1535 -0.3395  0.5386
  557MOL0     C75094   4.263   0.959   6.090  0.2435  0.6303 -0.1279
  557MOL0     O75095   4.380   0.991   6.022  0.3802 -0.2439 -0.8241
  557MOL0     C75096   4.463   1.079   6.096  0.1946 -0.5922  0.3231
  557MOL0     C75097   4.603   1.092   6.018 -0.9170  0.2191  0.2333
  557MOL0     C75098   4.695   1.201   6.077  0.1801 -0.2876 -0.4942
  557MOL0     C75099   4.724   1.199   6.229 -0.3058 -1.0409  0.4126
  557MOL0     C75100   4.736   1.341   6.278 -0.2759  0.6302  0.1882
  557MOL0     C75101   4.880   1.395   6.285  0.1240  0.2561  0.0064
  557MOL0     C75102   4.962   1.370   6.167 -0.0088  0.3871 -0.1278
  557MOL0     C75103   5.075   1.475   6.127  0.2055  0.2718  0.1193
  557MOL0    Cl75104   5.007   1.644   6.127 -0.4618 -0.2907 -0.4459
  557MOL0     C75105   4.194   0.849   6.024 -0.3521 -0.6555 -0.1301
  557MOL0     C75106   4.097   0.785   6.095 -0.5829 -0.3872  0.2578
  557MOL0     O75107   4.013   0.762   6.465  0.4224 -0.8051 -0.1468
  557MOL0     C75108   3.786   0.686   6.594  0.3031 -0.6620 -0.0145
  557MOL0     C75109   3.667   0.642   6.653  1.1290 -0.5906 -0.6650
  557MOL0     N75110   3.107   0.864   6.471 -0.6827  0.4676 -0.5339
  557MOL0     N75111   3.119   0.995   6.473 -0.3718  1.2401  0.2547
  557MOL0     C75112   3.487   1.856   6.952  1.0750 -0.2687 -0.9368
  557MOL0     C75113   3.583   1.924   6.872 -0.7777  0.8859  0.2116
  557MOL0     C75114   3.859   2.133   6.581  0.3917 -0.5383  0.2589
  557MOL0     C75115   3.834   2.081   6.450 -0.4388  0.1804 -0.4054
  557MOL0     C75116   3.916   2.132   6.343 -0.3080  0.1403 -0.0861
  557MOL0     C75117   4.016   2.222   6.361  0.0161 -0.3263 -0.2198
  557MOL0     O75118   4.064   2.272   6.248 -0.1678 -0.5766 -0.5383
  557MOL0     C75119   4.105   2.411   6.229 -0.1796 -0.1181 -0.0259
  557MOL0     C75120   4.264   2.415   6.228 -0.5891 -0.4032 -0.1174
  557MOL0     C75121   4.328   2.550   6.235  0.6128 -0.4936 -0.0224
  557MOL0     C75122   4.287   2.641   6.350  0.4700 -0.9922 -0.8177
  557MOL0     C75123   4.301   2.579   6.476 -0.1677 -0.4988  0.3933
  557MOL0     C75124   4.320   2.532   6.592  0.3918  0.7026  0.0603
  557MOL0     C75125   4.037   2.281   6.486  0.4810 -0.6175 -0.2205
  557MOL0     C75126   3.962   2.230   6.597 -0.5253  0.5098 -0.0932
  557MOL0     C75127   4.003   2.285   6.733 -0.0281 -0.3950  0.3693
  557MOL0     H75128   3.442   1.873   6.568 -1.4707 -0.5287  0.2884
  557MOL0     H75129   3.253   1.810   6.707 -0.7456 -1.2069  2.2237
  557MOL0     H75130   3.337   1.693   7.128  1.3526  1.2800  0.6037
  557MOL0     H75131   3.273   1.850   7.177 -0.4299 -0.6623 -1.2978
  557MOL0     H75132   3.073   1.786   7.210  2.8410  1.9052  1.7360
  557MOL0     H75133   3.147   1.639   7.258 -1.0669 -1.4720 -0.4761
  557MOL0     H75134   2.988   1.681   7.004 -1.8220 -0.1586  0.5074
  557MOL0     H75135   2.962   1.576   7.143  0.5411 -0.5527 -0.7966
  557MOL0     H75136   3.195   1.543   6.943 -0.0463  0.5231  1.0104
  557MOL0     H75137   3.150   1.429   7.066 -0.4247 -5.5623 -3.9880
  557MOL0     H75138   2.928   1.388   6.942 -1.4943 -1.8309 -2.4325
  557MOL0     H75139   2.974   1.490   6.809  0.9961 -3.4617 -2.3540
  557MOL0     H75140   3.192   1.344   6.789 -1.4138  3.5156 -0.1053
  557MOL0     H75141   3.115   1.242   6.917  0.3484  2.4624  1.5192
  557MOL0     H75142   2.956   1.290   6.666 -0.4921 -0.3985  0.2517
  557MOL0     H75143   2.966   1.146   6.771  0.4228 -0.7424 -0.3501
  557MOL0     H75144   3.120   1.232   6.540 -0.8699  0.6361  1.1876
  557MOL0     H75145   3.227   1.175   6.672  1.7541  1.1030 -2.8356
  557MOL0     H75146   3.055   0.921   6.781  1.0652  2.0494  0.3960
  557MOL0     H75147   2.975   0.697   6.727 -0.0752 -0.0006  0.6226
  557MOL0     H75148   2.973   0.654   6.557 -1.9274  2.8151 -0.2011
  557MOL0     H75149   3.228   0.650   6.728 -2.2180  0.2256  1.3504
  557MOL0     H75150   3.134   0.503   6.718  2.7642  0.1887  0.6066
  557MOL0     H75151   3.261   0.631   6.476 -0.7034  1.2189 -0.3852
  557MOL0     H75152   3.165   0.477   6.486  0.7311 -1.2726  2.1041
  557MOL0     H75153   3.394   0.425   6.486 -0.7973  0.0704  0.5287
  557MOL0     H75154   3.344   0.379   6.636  1.6095 -2.4097 -3.0808
  557MOL0     H75155   3.464   0.600   6.390  1.2076 -1.3261 -0.5171
  557MOL0     H75156   3.701   0.671   6.270  0.2168 -4.9367 -0.0187
  557MOL0     H75157   4.032   0.994   6.346 -3.7298  0.1645 -0.9115
  557MOL0     H75158   4.233   1.108   6.245 -0.2197  0.5328 -1.3491
  557MOL0     H75159   4.417   1.175   6.120  2.1458  0.4357  0.1297
  557MOL0     H75160   4.481   1.029   6.192  2.7531  2.0674  1.3423
  557MOL0     H75161   4.652   0.996   6.036 -0.2726  0.5411  0.2252
  557MOL0     H75162   4.578   1.113   5.914 -2.6098  0.6771  0.6897
  557MOL0     H75163   4.792   1.184   6.028  1.3253  1.3030  1.0628
  557MOL0     H75164   4.662   1.299   6.042 -0.9270  1.3427  4.3410
  557MOL0     H75165   4.809   1.138   6.261  1.0386  1.0427  0.9772
  557MOL0     H75166   4.634   1.163   6.281 -1.2657 -0.4594 -0.7880
  557MOL0     H75167   4.710   1.316   6.382 -0.2801 -2.1294 -0.3974
  557MOL0     H75168   4.667   1.409   6.227 -0.5808 -0.6569 -1.1579
  557MOL0     H75169   4.869   1.503   6.301  2.0271  0.5365 -0.2685
  557MOL0     H75170   4.926   1.350   6.374 -1.9795 -2.0155  0.0479
  557MOL0     H75171   4.898   1.376   6.078  0.3588 -1.4197 -0.5530
  557MOL0     H75172   4.987   1.264   6.161 -2.0536 -0.2712  1.7789
  557MOL0     H75173   5.157   1.463   6.198  0.5405  2.9403  0.2954
  557MOL0     H75174   5.111   1.454   6.026 -0.0407  0.2428  0.0364
  557MOL0     H75175   4.244   0.808   5.937  2.6857 -3.3388  2.6369
  557MOL0     H75176   4.062   0.691   6.053  0.3196 -1.1850  1.2366
  557MOL0     H75177   3.864   0.705   6.667  2.8417 -2.8079 -1.9323
  557MOL0     H75178   3.648   0.627   6.759  2.3057  1.3194 -0.1309
  557MOL0     H75179   3.494   1.844   7.060  1.3731  4.5651 -0.2168
  557MOL0     H75180   3.674   1.954   6.922 -2.5025 -0.2139  4.4714
  557MOL0     H75181   3.762   2.001   6.438  1.2723 -1.5519  0.2820
  557MOL0     H75182   3.901   2.076   6.251 -0.0598 -1.3697  0.7523
  557MOL0     H75183   4.073   2.476   6.312 -0.2909  0.5482 -0.5756
  557MOL0     H75184   4.071   2.452   6.133  0.3435  0.5065  0.0479
  557MOL0     H75185   4.309   2.370   6.139 -0.4060 -0.0558 -0.1986
  557MOL0     H75186   4.301   2.357   6.314 -0.1957  0.1977  0.1206
  557MOL0     H75187   4.303   2.597   6.140  1.0299  0.1404  0.1742
  557MOL0     H75188   4.437   2.539   6.236  0.9934  2.4216  1.3115
  557MOL0     H75189   4.349   2.731   6.351 -3.0706  1.6953  0.8995
  557MOL0     H75190   4.182   2.670   6.342  0.2647 -1.5177 -0.1313
  557MOL0     H75191   4.334   2.481   6.684 -2.6251  0.1548  0.3391
  557MOL0     H75192   4.118   2.354   6.493 -0.6185  0.5190  1.2802
  557MOL0     H75193   4.081   2.359   6.715 -0.2387  0.0682  1.3036
  557MOL0     H75194   3.914   2.329   6.779  0.7857 -0.6895  2.3059
  557MOL0     H75195   4.043   2.213   6.805 -0.1618 -1.7451 -0.8519
  558MOL0     O75196  10.814   4.686   6.064 -0.6665 -0.7230  0.3571
  558MOL0     C75197  10.848   4.722   5.953 -0.2166 -0.4262  0.4956
  558MOL0     O75198  10.918   4.835   5.925  0.5484  0.0087 -0.2239
  558MOL0     C75199  10.967   4.917   6.025  0.1279  0.1956 -0.3897
  558MOL0     C75200  11.109   4.911   6.058 -0.1892 -0.2881 -0.7323
  558MOL0     C75201  11.162   5.000   6.150 -0.3691 -0.3399 -1.1327
  558MOL0     C75202  11.086   5.112   6.205  0.6908 -0.6597 -0.0657
  558MOL0     O75203  11.141   5.206   6.293 -0.1425 -0.3315 -0.6382
  558MOL0     C75204  11.288   5.233   6.284  0.9579  0.0435  0.2972
  558MOL0     C75205  11.332   5.383   6.331 -0.3924  0.3936  0.2957
  558MOL0     C75206  11.292   5.470   6.220 -0.1703 -0.6446  0.6308
  558MOL0     C75207  11.381   5.594   6.230 -0.0695  0.4103  0.4137
  558MOL0     C75208  11.381   5.675   6.108  0.5037 -0.4367  0.0519
  558MOL0     C75209  11.248   5.753   6.081 -0.4915  0.0277  0.1079
  558MOL0     C75210  11.221   5.786   5.928  0.2919 -0.3609  0.8360
  558MOL0     C75211  11.085   5.859   5.912  0.0203  0.3219  0.0708
  558MOL0     N75212  11.075   5.981   5.989  0.8798 -0.2058 -0.1014
  558MOL0     C75213  11.127   6.098   5.958 -0.1529 -0.6789  0.7781
  558MOL0     C75214  11.064   6.179   6.044 -0.0760 -0.6009 -0.3146
  558MOL0     C75215  11.079   6.337   6.032  0.6771  0.3752 -0.4633
  558MOL0     C75216  10.961   6.404   5.967  0.8616 -0.5365  0.2381
  558MOL0     C75217  11.016   6.538   5.916  0.4499  0.8526  0.6192
  558MOL0     C75218  10.896   6.622   5.872  0.3015 -0.8633 -0.2315
  558MOL0     O75219  10.824   6.574   5.758  0.7550 -0.1988 -0.2018
  558MOL0     C75220  10.734   6.662   5.694 -0.4147 -1.1939 -0.7133
  558MOL0     C75221  10.698   6.786   5.750  0.0603  0.1123 -0.0523
  558MOL0     C75222  10.603   6.864   5.690 -0.1475  0.7780 -0.0727
  558MOL0     C75223  10.541   6.829   5.571 -0.2741  1.0973  0.2812
  558MOL0     C75224  10.434   6.903   5.508  0.9450  0.5140  0.6727
  558MOL0     O75225  10.385   7.005   5.579  0.4293 -0.3534 -0.0308
  558MOL0     C75226  10.283   7.084   5.537  0.3207 -0.0578 -1.2412
  558MOL0     C75227  10.285   7.172   5.436 -0.0254  0.7202 -0.7164
  558MOL0     C75228  10.169   7.239   5.399 -0.3240 -0.0607 -0.9216
  558MOL0     C75229  10.051   7.245   5.472 -0.2220  0.9394 -0.4506
  558MOL0     O75230   9.955   7.326   5.425 -0.4601  0.1270  0.1102
  558MOL0     C75231   9.861   7.373   5.520 -0.4916 -0.4024 -0.0948
  558MOL0     C75232   9.785   7.502   5.478  0.5519  0.2474  0.5088
  558MOL0     C75233   9.880   7.622   5.433 -0.3452  0.0400 -0.2947
  558MOL0     C75234   9.798   7.727   5.347 -0.9279  0.1913 -1.3617
  558MOL0     C75235   9.873   7.848   5.313  0.1291 -0.2429 -0.4415
  558MOL0     C75236   9.977   7.905   5.415  0.1715 -0.5830 -0.6882
  558MOL0     C75237  10.021   8.050   5.407  0.3869  0.3237  1.3517
  558MOL0     C75238  10.088   8.082   5.281  0.5360  0.6922  0.2528
  558MOL0    Cl75239  10.142   8.252   5.293 -0.2053 -0.1351  0.0420
  558MOL0     C75240  10.053   7.156   5.586  0.3261 -0.0668  0.3842
  558MOL0     C75241  10.172   7.075   5.615  0.5092  0.3552  0.5990
  558MOL0     O75242  10.398   6.870   5.395 -0.5664 -0.6553 -0.2986
  558MOL0     C75243  10.582   6.706   5.514 -0.3810  0.3335  0.7590
  558MOL0     C75244  10.680   6.620   5.573 -0.8013 -0.2158 -0.0702
  558MOL0     N75245  10.959   6.110   6.107 -1.3619  0.8371 -0.3880
  558MOL0     N75246  10.972   5.982   6.080 -0.4187  0.1130 -0.2334
  558MOL0     C75247  10.949   5.120   6.163 -0.0546  0.1040  0.5791
  558MOL0     C75248  10.885   5.017   6.083 -0.0679 -0.0048  0.2908
  558MOL0     C75249  10.825   4.634   5.848 -0.7852  0.8497  0.5128
  558MOL0     C75250  10.859   4.504   5.877  0.1049 -0.6018  0.7566
  558MOL0     C75251  10.858   4.402   5.779 -0.7011 -0.5525 -0.3144
  558MOL0     C75252  10.839   4.434   5.645  1.2989  0.1691  0.7196
  558MOL0     O75253  10.826   4.338   5.538 -0.3616  0.2131  0.2925
  558MOL0     C75254  10.801   4.200   5.571  0.4018  0.6101 -0.7422
  558MOL0     C75255  10.935   4.124   5.561 -0.9816 -0.3715 -0.5391
  558MOL0     C75256  10.989   4.111   5.414 -0.0975 -0.1848  0.1669
  558MOL0     C75257  11.090   3.989   5.402 -0.1898  0.0399  0.6233
  558MOL0     C75258  11.108   3.976   5.254  0.3383  0.2526  1.1358
  558MOL0     C75259  11.120   3.963   5.131 -0.0036 -0.4053  0.5567
  558MOL0     C75260  10.821   4.574   5.614 -0.1388  0.2269  0.7872
  558MOL0     C75261  10.819   4.673   5.710  0.1236  1.1447 -0.2092
  558MOL0     C75262  10.779   4.798   5.653 -0.4241 -0.2533  0.3546
  558MOL0     H75263  11.168   4.836   6.007 -1.0860 -1.2452 -0.3899
  558MOL0     H75264  11.261   4.984   6.191 -0.9051 -2.6717 -0.6219
  558MOL0     H75265  11.343   5.158   6.342  1.4108 -0.2655 -0.5270
  558MOL0     H75266  11.321   5.225   6.181 -1.4700 -1.5710 -0.4309
  558MOL0     H75267  11.440   5.385   6.351 -0.6582  2.7083  1.8984
  558MOL0     H75268  11.293   5.413   6.429 -3.7435 -2.0024 -0.1264
  558MOL0     H75269  11.188   5.503   6.230  0.5853  1.5449  2.3482
  558MOL0     H75270  11.300   5.436   6.117  1.2425  1.6838 -0.1130
  558MOL0     H75271  11.340   5.659   6.308  2.9417  2.2326  0.6450
  558MOL0     H75272  11.486   5.568   6.251 -1.1763 -4.9404  0.8122
  558MOL0     H75273  11.463   5.747   6.116 -1.0839  1.3270  1.6300
  558MOL0     H75274  11.415   5.604   6.033  2.1888  0.5744 -0.1890
  558MOL0     H75275  11.174   5.681   6.117 -0.6700  0.8793  1.4991
  558MOL0     H75276  11.248   5.841   6.146  1.2199 -1.2403  1.9084
  558MOL0     H75277  11.227   5.697   5.865 -0.4629 -1.1595  1.8520
  558MOL0     H75278  11.291   5.863   5.894 -1.0440  0.4588 -0.1604
  558MOL0     H75279  11.068   5.879   5.806 -0.0986 -1.1878 -0.2190
  558MOL0     H75280  11.007   5.785   5.934  0.3039 -1.1338 -3.2160
  558MOL0     H75281  11.200   6.124   5.882 -0.7445 -1.7617 -0.1997
  558MOL0     H75282  11.100   6.382   6.130 -1.5693  0.3848  0.0782
  558MOL0     H75283  11.168   6.358   5.973  1.8141 -1.1253  0.6488
  558MOL0     H75284  10.897   6.352   5.896  0.1808  0.7556 -0.1152
  558MOL0     H75285  10.891   6.429   6.047  0.4920  1.0920 -0.5511
  558MOL0     H75286  11.096   6.524   5.843  0.5742 -1.4825  1.1232
  558MOL0     H75287  11.061   6.594   5.999  0.7871  0.5030  0.6762
  558MOL0     H75288  10.944   6.720   5.876  0.7765 -1.0844 -0.4840
  558MOL0     H75289  10.828   6.623   5.959 -0.4938  2.0807 -0.7887
  558MOL0     H75290  10.737   6.821   5.845  2.7206 -2.7079  0.0315
  558MOL0     H75291  10.565   6.957   5.732 -1.0906 -0.5795  2.3139
  558MOL0     H75292  10.374   7.175   5.374  1.4880 -1.8203  1.1411
  558MOL0     H75293  10.186   7.309   5.318  0.1919  2.1123  0.9785
  558MOL0     H75294   9.788   7.294   5.541 -0.7241 -0.0690  0.3658
  558MOL0     H75295   9.912   7.395   5.614 -0.2959  1.5952 -0.6366
  558MOL0     H75296   9.725   7.475   5.391  0.1404  0.8882  0.5886
  558MOL0     H75297   9.720   7.528   5.562 -0.3284  1.0095 -0.3804
  558MOL0     H75298   9.912   7.678   5.522 -0.9449 -1.4339  0.8944
  558MOL0     H75299   9.966   7.577   5.381 -2.8480 -1.9239 -3.0968
  558MOL0     H75300   9.706   7.747   5.403 -0.8542 -3.7304  0.4860
  558MOL0     H75301   9.767   7.668   5.260  0.5598 -0.8746 -1.1964
  558MOL0     H75302   9.805   7.930   5.287  1.8345  1.2872 -0.3132
  558MOL0     H75303   9.912   7.818   5.215 -1.6329 -1.0492 -0.9440
  558MOL0     H75304   9.915   7.915   5.505 -2.2576  1.9872 -2.4776
  558MOL0     H75305  10.063   7.838   5.425 -0.5029 -1.8198 -2.7372
  558MOL0     H75306  10.103   8.083   5.472 -1.4209  1.4006  3.2206
  558MOL0     H75307   9.932   8.114   5.418 -0.2695 -0.2324 -0.4298
  558MOL0     H75308  10.180   8.026   5.262  1.4331  1.7970  1.1081
  558MOL0     H75309  10.022   8.064   5.195  0.5841  0.2563  0.3068
  558MOL0     H75310   9.966   7.148   5.650 -0.4133 -0.7304 -0.6787
  558MOL0     H75311  10.169   7.009   5.702  3.7392 -1.9409 -0.8199
  558MOL0     H75312  10.532   6.675   5.423  1.1257 -1.9149  0.6222
  558MOL0     H75313  10.691   6.521   5.530 -0.1623  0.0048 -0.4301
  558MOL0     H75314  10.896   5.208   6.198 -0.2154 -0.5012  1.9591
  558MOL0     H75315  10.779   5.018   6.063  0.2815 -0.2047 -1.8681
  558MOL0     H75316  10.887   4.467   5.975 -1.3258  1.4360  2.0299
  558MOL0     H75317  10.882   4.301   5.810  0.1413 -0.2706 -0.0125
  558MOL0     H75318  10.735   4.163   5.492  0.3984  2.2299 -1.5569
  558MOL0     H75319  10.751   4.183   5.666  4.4381 -2.4970  1.1493
  558MOL0     H75320  10.927   4.026   5.607  1.9625 -0.5748 -0.2733
  558MOL0     H75321  11.024   4.170   5.606  0.3993  1.4902 -4.5956
  558MOL0     H75322  11.023   4.203   5.364 -1.9979 -0.2402 -1.3756
  558MOL0     H75323  10.904   4.082   5.351 -0.9044 -0.6301  1.4395
  558MOL0     H75324  11.183   4.001   5.458 -0.2529  1.2091  0.5085
  558MOL0     H75325  11.044   3.898   5.442  0.2603 -0.0147  1.0218
  558MOL0     H75326  11.109   3.937   5.027  1.1081 -1.2981  0.6416
  558MOL0     H75327  10.794   4.600   5.512  1.7596  2.3803  0.7678
  558MOL0     H75328  10.677   4.789   5.614 -0.7262  1.7856  0.5448
  558MOL0     H75329  10.776   4.882   5.723 -3.0348 -0.8215  1.0484
  558MOL0     H75330  10.841   4.832   5.569  0.4714  0.4540  1.2814
  559MOL0     O75331  11.366  10.019   3.329 -0.3529  0.6236  0.7128
  559MOL0     C75332  11.280  10.080   3.382  0.7737 -1.3424 -0.4482
  559MOL0     O75333  11.290  10.212   3.390  0.0331  0.1786  0.6547
  559MOL0     C75334  11.363  10.297   3.309 -0.4677 -0.2045 -0.9461
  559MOL0     C75335  11.431  10.260   3.189 -0.1566 -0.1610 -0.1133
  559MOL0     C75336  11.528  10.343   3.130  1.1171 -0.1643  0.6828
  559MOL0     C75337  11.551  10.469   3.187 -0.8595 -1.2653 -0.3091
  559MOL0     O75338  11.639  10.573   3.155  0.5315  0.4535  0.1822
  559MOL0     C75339  11.743  10.549   3.062 -0.0538  0.5263 -0.7153
  559MOL0     C75340  11.867  10.501   3.151 -0.7696 -0.2350  0.2504
  559MOL0     C75341  11.987  10.475   3.062 -0.1195 -0.7876 -0.1602
  559MOL0     C75342  12.113  10.434   3.140  0.6229  0.4250 -0.7678
  559MOL0     C75343  12.212  10.369   3.045  0.2355  0.8608 -0.2427
  559MOL0     C75344  12.344  10.338   3.116  0.6944  0.0328 -0.5719
  559MOL0     C75345  12.483  10.336   3.037  0.5698  0.5964 -0.7359
  559MOL0     C75346  12.500  10.193   2.978  0.3229 -0.0133  0.1946
  559MOL0     N75347  12.611  10.189   2.883 -0.0013  0.1807 -0.8125
  559MOL0     C75348  12.696  10.290   2.828  0.1569 -0.8160  0.6899
  559MOL0     C75349  12.765  10.232   2.727  0.0059  0.2942 -0.2136
  559MOL0     C75350  12.879  10.288   2.642  0.0012 -0.1434 -0.2831
  559MOL0     C75351  12.933  10.192   2.537 -0.3458 -0.7119 -0.3072
  559MOL0     C75352  13.057  10.261   2.476 -0.9262 -0.4443 -0.5169
  559MOL0     C75353  13.184  10.278   2.565  0.1531 -0.2868 -0.8469
  559MOL0     O75354  13.302  10.315   2.490 -0.1222 -0.3474  0.0181
  559MOL0     C75355  13.429  10.301   2.553  0.7728 -0.3644  0.7240
  559MOL0     C75356  13.437  10.290   2.688 -0.2997  0.2149  0.9454
  559MOL0     C75357  13.564  10.280   2.744  0.1645  0.1990 -1.0342
  559MOL0     C75358  13.681  10.287   2.674  0.5265 -0.1312 -0.6038
  559MOL0     C75359  13.816  10.282   2.736 -0.0237 -0.0294 -0.3048
  559MOL0     O75360  13.912  10.228   2.653  0.0359  0.2991  0.6457
  559MOL0     C75361  14.041  10.250   2.685 -0.9157  0.6452 -0.2665
  559MOL0     C75362  14.098  10.226   2.812 -0.5667  0.1188 -0.4421
  559MOL0     C75363  14.236  10.238   2.840 -0.1899  0.2695  0.9615
  559MOL0     C75364  14.314  10.272   2.730 -0.2054  0.8712  0.6701
  559MOL0     O75365  14.450  10.281   2.751 -0.0514  0.5415 -0.0629
  559MOL0     C75366  14.515  10.158   2.746 -0.3673 -0.5545  0.1647
  559MOL0     C75367  14.651  10.169   2.694 -0.2450  0.1823  0.6558
  559MOL0     C75368  14.664  10.244   2.560  0.4900 -0.2330  0.8804
  559MOL0     C75369  14.640  10.145   2.440 -0.0124 -0.7323  0.0563
  559MOL0     C75370  14.634  10.214   2.300 -1.2486  0.0947 -0.6728
  559MOL0     C75371  14.770  10.273   2.265 -0.7687  0.1212 -0.1378
  559MOL0     C75372  14.784  10.298   2.115  0.4500  0.5725 -0.1163
  559MOL0     C75373  14.911  10.377   2.087  0.4657 -0.0284  0.2208
  559MOL0    Cl75374  14.996  10.302   1.944  0.0903  0.1329  0.4416
  559MOL0     C75375  14.266  10.302   2.605 -0.6425 -0.0996  0.2627
  559MOL0     C75376  14.131  10.289   2.581  0.1092  1.0201  0.4921
  559MOL0     O75377  13.832  10.319   2.859 -0.4155  0.1145 -0.0085
  559MOL0     C75378  13.672  10.294   2.535 -0.1401 -0.6458  0.6265
  559MOL0     C75379  13.542  10.313   2.474  0.0266  0.6656  0.9147
  559MOL0     N75380  12.715  10.103   2.721  0.3354 -0.1320 -0.4183
  559MOL0     N75381  12.632  10.074   2.818 -1.1050 -0.5386  0.2821
  559MOL0     C75382  11.486  10.504   3.306  0.7334 -0.5980  0.3117
  559MOL0     C75383  11.396  10.418   3.367  0.1491  0.0501 -0.1452
  559MOL0     C75384  11.180  10.016   3.477  0.4644  0.0390  0.8298
  559MOL0     C75385  11.139  10.082   3.596  0.1809 -0.6471  0.0588
  559MOL0     C75386  11.046  10.032   3.679  0.6030 -0.8065 -0.2869
  559MOL0     C75387  10.974   9.914   3.652 -0.4590  0.4153 -0.0481
  559MOL0     O75388  10.859   9.872   3.722  0.0505 -0.0632  0.3073
  559MOL0     C75389  10.809   9.977   3.808  0.5361  0.4648 -0.0104
  559MOL0     C75390  10.682   9.929   3.886  0.0237  0.1013 -0.6675
  559MOL0     C75391  10.552   9.950   3.795  0.4246 -0.1416 -0.2015
  559MOL0     C75392  10.439   9.871   3.845 -0.1793  0.2230  0.3927
  559MOL0     C75393  10.315   9.921   3.777  0.0454  0.3685  0.6040
  559MOL0     C75394  10.206   9.954   3.730 -0.5807 -0.2959  0.0812
  559MOL0     C75395  11.016   9.845   3.537 -0.4923 -0.2560  0.3795
  559MOL0     C75396  11.121   9.894   3.449 -0.9485  0.8400 -0.4057
  559MOL0     C75397  11.165   9.801   3.338  0.2427  0.1233 -0.1310
  559MOL0     H75398  11.402  10.164   3.146 -4.7387  1.4113 -1.1480
  559MOL0     H75399  11.584  10.314   3.041 -1.1567 -1.1057 -0.5411
  559MOL0     H75400  11.722  10.477   2.982  3.5167 -1.1901 -0.3229
  559MOL0     H75401  11.763  10.639   3.003 -4.5132  1.8173 -0.6070
  559MOL0     H75402  11.846  10.410   3.208 -1.4127  0.3083  0.8909
  559MOL0     H75403  11.882  10.574   3.231 -0.4653 -1.4692  1.3546
  559MOL0     H75404  12.019  10.560   3.002  2.3927 -1.0017  0.7954
  559MOL0     H75405  11.966  10.390   2.996  2.2256 -0.1163 -1.8925
  559MOL0     H75406  12.155  10.527   3.179  0.4270 -0.0288  0.5471
  559MOL0     H75407  12.094  10.368   3.224  3.4028  1.0907  0.4966
  559MOL0     H75408  12.172  10.281   2.994  1.6831 -0.4332  0.7643
  559MOL0     H75409  12.242  10.441   2.968  5.5140 -1.1755 -0.5196
  559MOL0     H75410  12.366  10.413   3.193  1.4492 -0.9090  0.1646
  559MOL0     H75411  12.325  10.249   3.178 -1.5093  1.9289  1.7021
  559MOL0     H75412  12.558  10.362   3.113  0.3573  1.5754 -0.8466
  559MOL0     H75413  12.491  10.405   2.952  1.3411 -0.8601 -1.8906
  559MOL0     H75414  12.505  10.118   3.057  1.2807  0.2163  0.3749
  559MOL0     H75415  12.417  10.172   2.910  1.7077  1.4646 -2.1214
  559MOL0     H75416  12.703  10.392   2.867  0.5195 -0.3898 -0.4575
  559MOL0     H75417  12.847  10.376   2.587 -4.5331 -0.4170  1.5211
  559MOL0     H75418  12.954  10.337   2.705 -1.1316  2.8120 -1.0613
  559MOL0     H75419  12.965  10.097   2.580 -0.6377 -1.1173 -0.9787
  559MOL0     H75420  12.858  10.176   2.460  0.5928  2.9279 -2.2029
  559MOL0     H75421  13.021  10.360   2.449 -0.9251 -0.9190 -2.4120
  559MOL0     H75422  13.089  10.221   2.379 -0.8003  1.1390 -1.1647
  559MOL0     H75423  13.198  10.179   2.610  0.5649  0.0584 -0.2181
  559MOL0     H75424  13.160  10.358   2.635  2.5111  0.9304 -1.3350
  559MOL0     H75425  13.355  10.288   2.759 -1.9754  5.2153 -0.4353
  559MOL0     H75426  13.577  10.286   2.852 -2.8422  0.2239 -0.5659
  559MOL0     H75427  14.029  10.181   2.882 -0.8266 -2.7057 -2.3497
  559MOL0     H75428  14.283  10.205   2.932  1.2827 -0.2734  0.0539
  559MOL0     H75429  14.510  10.120   2.848 -0.7008  0.3536  0.4973
  559MOL0     H75430  14.468  10.086   2.678 -2.6566 -0.2105  1.2611
  559MOL0     H75431  14.698  10.235   2.768 -1.0476  1.1406  0.3343
  559MOL0     H75432  14.695  10.069   2.692  1.4905  0.9050 -1.4001
  559MOL0     H75433  14.598  10.331   2.563  0.2922 -0.3946  1.4762
  559MOL0     H75434  14.757  10.297   2.542 -0.8314  1.6314 -0.9563
  559MOL0     H75435  14.539  10.105   2.456 -0.5594 -0.6412 -2.6468
  559MOL0     H75436  14.710  10.061   2.439  1.5598  0.5382  0.5156
  559MOL0     H75437  14.559  10.294   2.302  0.4364  1.7181  0.5268
  559MOL0     H75438  14.629  10.146   2.214  0.7880  0.6181 -1.2648
  559MOL0     H75439  14.800  10.363   2.319  1.4403 -2.2218  2.9190
  559MOL0     H75440  14.850  10.200   2.276 -1.2367 -0.1461  1.9690
  559MOL0     H75441  14.691  10.347   2.086 -0.2134  1.0488  2.5713
  559MOL0     H75442  14.781  10.198   2.070  0.1022  0.3333  0.4175
  559MOL0     H75443  14.894  10.485   2.081 -0.5046 -0.0239  2.2298
  559MOL0     H75444  14.973  10.366   2.176  0.8843 -2.2038 -0.2799
  559MOL0     H75445  14.341  10.336   2.534 -0.1279 -0.0588  0.8135
  559MOL0     H75446  14.098  10.301   2.479 -0.9020 -1.0133  0.5224
  559MOL0     H75447  13.758  10.307   2.470 -0.5204  2.9554  0.6472
  559MOL0     H75448  13.531  10.321   2.366  3.4487 -2.4560  0.1259
  559MOL0     H75449  11.486  10.605   3.347 -3.4804 -0.3996  0.2032
  559MOL0     H75450  11.341  10.456   3.453  0.9745  0.3889  0.2494
  559MOL0     H75451  11.186  10.178   3.615  0.4219  0.0976 -3.5081
  559MOL0     H75452  11.020  10.095   3.764  1.9246 -2.4677  1.4411
  559MOL0     H75453  10.779  10.062   3.746  4.3604  3.4108  1.7449
  559MOL0     H75454  10.881  10.002   3.886  2.3036 -0.7054 -1.1952
  559MOL0     H75455  10.664   9.983   3.980 -3.2046 -3.0455  0.7738
  559MOL0     H75456  10.709   9.826   3.913  0.8954  0.0151 -1.8102
  559MOL0     H75457  10.575   9.914   3.694  1.3295  1.2364 -0.5151
  559MOL0     H75458  10.537  10.057   3.778  0.5487 -0.2760 -1.1725
  559MOL0     H75459  10.451   9.763   3.832 -1.1209  0.1280  0.2298
  559MOL0     H75460  10.428   9.891   3.952 -3.9132 -1.9675  0.5892
  559MOL0     H75461  10.110   9.990   3.697  0.2696  0.6219 -1.5711
  559MOL0     H75462  10.967   9.750   3.516  0.0786 -0.7898  1.3633
  559MOL0     H75463  11.262   9.756   3.359 -1.4249 -3.0303  1.4668
  559MOL0     H75464  11.088   9.724   3.326 -0.5276  0.0123  4.0036
  559MOL0     H75465  11.168   9.863   3.248  1.8124  2.5548  1.4761
  560MOL0     O75466   1.860   5.416   4.623  0.0454  0.3923  0.7807
  560MOL0     C75467   1.763   5.418   4.550 -0.2071  0.9249 -0.1798
  560MOL0     O75468   1.762   5.474   4.426 -0.3674  0.0147 -0.2446
  560MOL0     C75469   1.881   5.523   4.377 -0.9815  0.0755  0.1173
  560MOL0     C75470   1.999   5.450   4.358 -0.3213 -0.5641 -0.8999
  560MOL0     C75471   2.118   5.512   4.316  0.9440 -0.7444 -0.4508
  560MOL0     C75472   2.121   5.644   4.290 -0.1675 -0.1729 -0.0394
  560MOL0     O75473   2.234   5.698   4.245  0.6891  0.0580  1.0876
  560MOL0     C75474   2.233   5.750   4.116  0.2612 -0.5489  0.2294
  560MOL0     C75475   2.377   5.759   4.069 -0.3955  0.0070  0.5027
  560MOL0     C75476   2.467   5.846   4.165  0.0800 -0.5457  0.4545
  560MOL0     C75477   2.604   5.866   4.098 -0.4783  0.9557 -0.9230
  560MOL0     C75478   2.690   5.970   4.172  0.2050 -0.5363  0.1177
  560MOL0     C75479   2.840   5.979   4.136  0.0251 -0.0895 -0.0553
  560MOL0     C75480   2.871   6.021   3.989  0.2820  0.0755 -0.1802
  560MOL0     C75481   3.016   6.070   3.964  0.2018 -0.4409 -0.5618
  560MOL0     N75482   3.092   5.941   3.964 -0.6235  0.3272  0.8086
  560MOL0     C75483   3.158   5.897   4.076  0.2054  0.1102 -0.6084
  560MOL0     C75484   3.202   5.770   4.060  0.9975 -0.1140  0.0393
  560MOL0     C75485   3.255   5.680   4.166  0.7754 -0.3504 -0.2968
  560MOL0     C75486   3.403   5.678   4.187 -0.0718 -0.0192 -0.2912
  560MOL0     C75487   3.471   5.779   4.277  0.5947 -0.1265  0.5173
  560MOL0     C75488   3.515   5.730   4.419  0.1863  0.1192  0.2330
  560MOL0     O75489   3.569   5.834   4.499 -1.3160  0.1863 -0.9552
  560MOL0     C75490   3.494   5.944   4.526 -0.2840  0.6342  0.2250
  560MOL0     C75491   3.556   6.067   4.521  0.3902 -0.1796  0.0130
  560MOL0     C75492   3.479   6.182   4.560 -0.2636 -0.7579  0.5829
  560MOL0     C75493   3.343   6.170   4.593 -0.2248 -0.3858 -0.5628
  560MOL0     C75494   3.260   6.284   4.638 -0.4270 -0.7255  0.4776
  560MOL0     O75495   3.314   6.405   4.613  0.5394 -0.5821  1.2774
  560MOL0     C75496   3.227   6.515   4.615 -0.6983 -0.7405  0.0566
  560MOL0     C75497   3.179   6.567   4.738  0.3222 -0.1272 -0.5461
  560MOL0     C75498   3.103   6.685   4.734  1.1766 -0.2356  0.1903
  560MOL0     C75499   3.063   6.749   4.620 -0.3507  0.1209  0.5767
  560MOL0     O75500   3.006   6.875   4.625  0.2756 -0.9168 -0.0751
  560MOL0     C75501   2.912   6.889   4.725  0.0588  0.6198 -1.1620
  560MOL0     C75502   2.818   6.993   4.690 -0.8622  0.0801 -0.8198
  560MOL0     C75503   2.879   7.131   4.652 -0.1783 -0.1182  1.0880
  560MOL0     C75504   2.987   7.179   4.737 -0.1684  0.0236 -0.6544
  560MOL0     C75505   3.062   7.296   4.688  0.7589 -0.8610  0.1381
  560MOL0     C75506   3.187   7.336   4.779 -0.0804  0.9550 -0.0268
  560MOL0     C75507   3.251   7.469   4.732 -0.2395 -0.1390 -0.4186
  560MOL0     C75508   3.181   7.596   4.785 -0.2371 -0.7284 -0.1956
  560MOL0    Cl75509   3.225   7.605   4.962  0.3736  0.2537 -0.3527
  560MOL0     C75510   3.112   6.696   4.500 -0.2783 -0.4824  0.1122
  560MOL0     C75511   3.199   6.585   4.501 -0.4902 -0.7484 -0.7222
  560MOL0     O75512   3.149   6.258   4.679 -0.5543 -0.0380 -0.5598
  560MOL0     C75513   3.294   6.044   4.609  1.0590  0.1403 -0.5099
  560MOL0     C75514   3.358   5.932   4.569 -0.6439  0.6519 -0.5151
  560MOL0     N75515   3.173   5.743   3.926 -0.5325 -0.4774 -0.1294
  560MOL0     N75516   3.111   5.841   3.868  0.2677 -0.8315  0.0833
  560MOL0     C75517   2.004   5.718   4.308 -0.6837 -0.5898  0.6961
  560MOL0     C75518   1.887   5.652   4.339  0.7977 -0.2364  0.1374
  560MOL0     C75519   1.644   5.348   4.598  0.6070  0.7274 -0.2655
  560MOL0     C75520   1.614   5.361   4.733  0.6730  0.5974  0.1606
  560MOL0     C75521   1.498   5.306   4.785  0.0756  0.8088 -0.5680
  560MOL0     C75522   1.408   5.237   4.703 -0.3023 -1.0955 -0.4270
  560MOL0     O75523   1.299   5.187   4.762 -0.6577 -0.0043 -0.2977
  560MOL0     C75524   1.174   5.163   4.701 -0.3811  0.8306  0.0253
  560MOL0     C75525   1.066   5.195   4.802 -0.3414  1.1005 -0.9456
  560MOL0     C75526   0.931   5.165   4.752 -0.7459  0.6481  0.4612
  560MOL0     C75527   0.894   5.016   4.752 -0.5310 -0.2898 -0.0640
  560MOL0     C75528   0.747   5.012   4.721 -0.6060  1.1517  0.8155
  560MOL0     C75529   0.634   5.011   4.687 -0.7640 -0.6109 -0.7957
  560MOL0     C75530   1.438   5.217   4.570 -0.2586  0.3686 -0.1825
  560MOL0     C75531   1.554   5.267   4.513  0.0345 -0.9914  0.3917
  560MOL0     C75532   1.566   5.256   4.361  0.8045 -0.4863  0.9555
  560MOL0     H75533   1.995   5.345   4.383 -1.1338  0.2754  3.0916
  560MOL0     H75534   2.201   5.444   4.302  0.6226 -1.7814  2.1348
  560MOL0     H75535   2.168   5.691   4.051  0.0370  1.1277 -1.1541
  560MOL0     H75536   2.196   5.852   4.126 -0.2802 -0.8566  1.5152
  560MOL0     H75537   2.362   5.808   3.973 -1.2926 -0.8318  0.1979
  560MOL0     H75538   2.428   5.665   4.047 -2.4695 -1.4675  1.6447
  560MOL0     H75539   2.478   5.788   4.258  3.0562 -0.6792  0.1076
  560MOL0     H75540   2.419   5.944   4.170  0.5383  0.0008 -3.1856
  560MOL0     H75541   2.668   5.779   4.116 -0.4575  1.1999  0.2860
  560MOL0     H75542   2.587   5.881   3.991 -1.1882 -0.3022 -1.0023
  560MOL0     H75543   2.646   6.069   4.160 -1.5445 -1.2645  0.2835
  560MOL0     H75544   2.673   5.951   4.279 -2.2433 -1.8866 -0.4436
  560MOL0     H75545   2.880   6.052   4.207 -0.0383 -0.0285 -0.0818
  560MOL0     H75546   2.895   5.887   4.158 -1.6809 -1.4473 -1.1799
  560MOL0     H75547   2.809   6.108   3.961  0.4569  0.0158 -0.7609
  560MOL0     H75548   2.849   5.942   3.917  1.0616 -1.3965  1.1510
  560MOL0     H75549   3.024   6.120   3.867  1.5233  0.9174  0.2129
  560MOL0     H75550   3.049   6.141   4.040 -0.3749 -2.7803  2.0243
  560MOL0     H75551   3.148   5.950   4.170  2.1925 -0.6090  0.0667
  560MOL0     H75552   3.212   5.714   4.261  0.6888 -2.8323  0.6259
  560MOL0     H75553   3.220   5.580   4.140 -3.7601  0.1616  2.7195
  560MOL0     H75554   3.423   5.578   4.227 -0.1370  0.9509  2.4114
  560MOL0     H75555   3.452   5.694   4.091 -3.3199  0.7060 -1.9956
  560MOL0     H75556   3.414   5.873   4.279 -0.3876 -0.6726 -0.6089
  560MOL0     H75557   3.560   5.810   4.222 -1.3193  0.0846 -2.7319
  560MOL0     H75558   3.589   5.653   4.397 -0.3072  0.3132 -2.5113
  560MOL0     H75559   3.441   5.670   4.472 -1.0195 -1.1858 -2.7364
  560MOL0     H75560   3.659   6.063   4.488 -0.6115 -0.0889 -3.5231
  560MOL0     H75561   3.523   6.281   4.558 -0.1014 -0.8166 -1.8145
  560MOL0     H75562   3.200   6.527   4.837  0.9930  1.3443 -0.0497
  560MOL0     H75563   3.086   6.720   4.835  2.0829  3.3373 -0.7640
  560MOL0     H75564   2.848   6.802   4.745  0.3868  0.6025 -0.1480
  560MOL0     H75565   2.967   6.915   4.816  0.3142 -2.1270 -0.4371
  560MOL0     H75566   2.750   6.966   4.608  0.0260 -1.3133 -1.1223
  560MOL0     H75567   2.754   7.027   4.773 -1.3160  1.3171 -1.6398
  560MOL0     H75568   2.925   7.107   4.555  0.8399  1.5671  1.1098
  560MOL0     H75569   2.808   7.213   4.636  0.6467 -0.0051 -2.8916
  560MOL0     H75570   3.070   7.108   4.746 -0.8331 -0.5420  1.4568
  560MOL0     H75571   2.950   7.186   4.839  2.8465 -2.2553  0.7776
  560MOL0     H75572   3.000   7.385   4.677  0.0339 -1.0137  2.4360
  560MOL0     H75573   3.112   7.281   4.592  1.5307  3.7275 -0.4210
  560MOL0     H75574   3.160   7.333   4.885  0.6592  2.1927  0.2202
  560MOL0     H75575   3.256   7.254   4.759 -1.4018 -0.3210  0.5210
  560MOL0     H75576   3.255   7.464   4.623 -0.7020  0.6551 -0.4807
  560MOL0     H75577   3.354   7.475   4.767 -1.0246 -0.6296  2.2400
  560MOL0     H75578   3.206   7.684   4.725 -2.0199  0.8768  1.2817
  560MOL0     H75579   3.074   7.582   4.764 -0.5122 -0.6568  1.0977
  560MOL0     H75580   3.095   6.763   4.416 -2.1257  2.6260  2.7631
  560MOL0     H75581   3.257   6.549   4.417 -0.2108  1.1016 -1.3660
  560MOL0     H75582   3.198   6.029   4.658  1.6608  0.8073  0.9470
  560MOL0     H75583   3.303   5.839   4.577 -1.6799  1.2914  0.1284
  560MOL0     H75584   2.005   5.826   4.294  1.1154 -0.8831 -2.4603
  560MOL0     H75585   1.801   5.715   4.360 -0.5840 -2.7213  2.5055
  560MOL0     H75586   1.670   5.414   4.810 -1.1834 -1.3073  2.9988
  560MOL0     H75587   1.476   5.326   4.889 -1.3144 -0.5452 -0.5764
  560MOL0     H75588   1.181   5.055   4.688  3.6782  0.4056  3.4195
  560MOL0     H75589   1.161   5.218   4.608 -0.8066  1.8050  0.6421
  560MOL0     H75590   1.072   5.298   4.836  1.7718 -0.0715  2.9059
  560MOL0     H75591   1.087   5.137   4.893 -1.3716  0.2253 -1.2393
  560MOL0     H75592   0.927   5.217   4.656  1.3975 -1.2229 -0.7367
  560MOL0     H75593   0.860   5.217   4.817  0.4340  0.4169  1.9882
  560MOL0     H75594   0.962   4.969   4.680 -0.6975 -0.8700  0.1472
  560MOL0     H75595   0.920   4.969   4.847 -0.0596  0.0581 -0.0210
  560MOL0     H75596   0.534   4.994   4.651 -0.6765 -1.3961 -0.6880
  560MOL0     H75597   1.368   5.160   4.510 -0.7618 -0.6358  1.2852
  560MOL0     H75598   1.551   5.352   4.313 -1.9821 -2.2628 -2.1430
  560MOL0     H75599   1.660   5.222   4.316  1.1328 -2.5855  2.9853
  560MOL0     H75600   1.487   5.190   4.325  2.6686 -1.8074 -0.9570
  561MOL0     O75601   8.066   4.590   9.371 -0.9214 -0.0317  0.9256
  561MOL0     C75602   8.025   4.518   9.468 -0.4305 -0.2519  0.4736
  561MOL0     O75603   8.026   4.385   9.462 -0.6720  0.1087  0.1926
  561MOL0     C75604   8.075   4.336   9.345 -0.2829  0.8526  0.7150
  561MOL0     C75605   8.000   4.277   9.243 -0.1849 -1.2567 -0.0631
  561MOL0     C75606   8.058   4.226   9.131  1.0747 -0.1370  0.3277
  561MOL0     C75607   8.200   4.210   9.128  0.9674  0.0043 -0.5459
  561MOL0     O75608   8.275   4.148   9.029 -0.7923  0.1099 -0.3803
  561MOL0     C75609   8.216   4.092   8.915 -0.1179  0.1672 -0.2245
  561MOL0     C75610   8.313   4.035   8.804 -0.1601 -0.8761  0.4859
  561MOL0     C75611   8.344   4.134   8.691  0.4147 -0.0004  0.6824
  561MOL0     C75612   8.420   4.072   8.575 -0.3301 -0.1006  0.4939
  561MOL0     C75613   8.441   4.187   8.476  0.7107 -0.1625  0.2644
  561MOL0     C75614   8.526   4.145   8.360 -0.7104  0.3974  0.6395
  561MOL0     C75615   8.526   4.241   8.238  0.3445 -0.6255  0.6736
  561MOL0     C75616   8.622   4.202   8.123 -0.2825 -0.5957 -0.0904
  561MOL0     N75617   8.758   4.237   8.164  0.5561 -1.0396 -0.3272
  561MOL0     C75618   8.820   4.354   8.129  0.0554 -0.8327 -1.0018
  561MOL0     C75619   8.951   4.337   8.167  0.8087  0.7653 -0.1367
  561MOL0     C75620   9.058   4.434   8.142  0.4032  0.1389  0.4157
  561MOL0     C75621   9.175   4.416   8.227 -0.1216  0.6249  0.2802
  561MOL0     C75622   9.148   4.469   8.370 -0.5938  0.6360  0.0586
  561MOL0     C75623   9.283   4.483   8.447  0.0411  0.2284 -0.0296
  561MOL0     O75624   9.309   4.346   8.465 -0.3155 -0.2601 -0.8618
  561MOL0     C75625   9.436   4.315   8.484  0.3207  0.0979  0.0624
  561MOL0     C75626   9.481   4.199   8.420 -0.3370  0.1108 -0.2987
  561MOL0     C75627   9.612   4.149   8.443 -0.0862  0.4918  0.7121
  561MOL0     C75628   9.703   4.239   8.520 -0.1398  1.2973 -0.8253
  561MOL0     C75629   9.850   4.209   8.528  0.8347 -0.4834 -0.0252
  561MOL0     O75630   9.899   4.117   8.442  0.3671 -0.4630  0.2858
  561MOL0     C75631  10.031   4.090   8.422  0.0322 -0.1970  0.7091
  561MOL0     C75632  10.061   4.034   8.296  0.6468  0.5192  0.0126
  561MOL0     C75633  10.195   3.996   8.274  0.4259  0.0754 -0.1482
  561MOL0     C75634  10.288   4.004   8.370 -0.6453  1.0754  0.4290
  561MOL0     O75635  10.418   3.982   8.352 -0.6431  0.4235  0.3842
  561MOL0     C75636  10.464   3.869   8.267 -0.0577 -0.1583  0.3684
  561MOL0     C75637  10.563   3.919   8.159  0.2741  0.2893  0.0497
  561MOL0     C75638  10.494   3.976   8.044  0.2061  0.0694 -0.0305
  561MOL0     C75639  10.591   4.038   7.937  0.1583 -0.0363  0.7698
  561MOL0     C75640  10.503   4.101   7.822 -0.5341  0.3416  0.2818
  561MOL0     C75641  10.574   4.149   7.687  0.3335  0.4906  0.8692
  561MOL0     C75642  10.466   4.207   7.585  0.3864 -0.4492 -0.4081
  561MOL0     C75643  10.542   4.234   7.456  1.3964 -0.4983 -1.0924
  561MOL0    Cl75644  10.698   4.313   7.480  0.0674  0.0595 -0.1914
  561MOL0     C75645  10.258   4.057   8.492 -0.1412  0.8999  1.1649
  561MOL0     C75646  10.133   4.098   8.521 -0.8056  0.0192  1.1497
  561MOL0     O75647   9.917   4.270   8.612  1.1181  0.0775 -0.2599
  561MOL0     C75648   9.648   4.354   8.581 -1.1366 -0.1311  0.4389
  561MOL0     C75649   9.515   4.388   8.567  0.9543 -0.3787  0.2998
  561MOL0     N75650   8.966   4.218   8.226  0.3880 -0.1973  0.4218
  561MOL0     N75651   8.848   4.157   8.223  0.0049 -0.3436 -0.5996
  561MOL0     C75652   8.284   4.267   9.224  0.2386 -0.0567  0.4781
  561MOL0     C75653   8.214   4.331   9.328 -0.2142  0.1766 -0.3610
  561MOL0     C75654   7.940   4.580   9.579 -0.0597  0.3846 -0.2698
  561MOL0     C75655   7.895   4.503   9.683 -0.1158  0.4329 -0.4249
  561MOL0     C75656   7.830   4.555   9.790  0.2101  0.4814 -0.0092
  561MOL0     C75657   7.777   4.689   9.792 -0.0271  0.5883  0.3320
  561MOL0     O75658   7.699   4.747   9.889 -0.4984 -0.4661 -0.8251
  561MOL0     C75659   7.599   4.665   9.957 -0.8442  1.4824  0.2520
  561MOL0     C75660   7.498   4.747  10.041  0.0943  0.4264  0.5864
  561MOL0     C75661   7.457   4.881   9.968 -1.3557  0.6506 -0.1842
  561MOL0     C75662   7.315   4.933  10.021 -0.2745 -0.0904  0.5791
  561MOL0     C75663   7.190   4.864   9.999 -0.2953  0.6605  0.7009
  561MOL0     C75664   7.074   4.826   9.983 -0.5034  0.1131  0.7607
  561MOL0     C75665   7.828   4.765   9.690 -0.7199 -0.2832  0.0097
  561MOL0     C75666   7.903   4.721   9.583 -0.4263  0.4734  0.4033
  561MOL0     C75667   7.950   4.820   9.480  0.4715 -0.4244 -0.1935
  561MOL0     H75668   7.892   4.276   9.258 -0.0176  0.0870  1.4693
  561MOL0     H75669   8.006   4.184   9.046  1.0403  0.5766 -0.0111
  561MOL0     H75670   8.164   4.001   8.946 -1.4373  0.1052 -2.4171
  561MOL0     H75671   8.138   4.154   8.870  0.9750 -0.6871 -3.5623
  561MOL0     H75672   8.279   3.942   8.756  1.1165  0.4678 -3.3401
  561MOL0     H75673   8.410   4.019   8.852  1.1507  1.9867 -0.9656
  561MOL0     H75674   8.393   4.213   8.749  0.2686  1.1677 -0.7459
  561MOL0     H75675   8.251   4.165   8.645  0.8062  1.2005  0.6703
  561MOL0     H75676   8.514   4.028   8.609 -0.0649 -1.4572 -1.7610
  561MOL0     H75677   8.364   3.993   8.526 -1.7240  1.1783 -0.0547
  561MOL0     H75678   8.343   4.203   8.431  1.8813 -2.5208 -3.7280
  561MOL0     H75679   8.478   4.283   8.513  1.0600  0.6562 -2.0205
  561MOL0     H75680   8.630   4.143   8.395 -0.7536  0.3942  0.7676
  561MOL0     H75681   8.500   4.050   8.313  1.7296  0.8863 -2.0425
  561MOL0     H75682   8.543   4.346   8.263  0.6259 -0.4822 -0.1126
  561MOL0     H75683   8.421   4.227   8.209 -0.1703 -4.2839  3.5019
  561MOL0     H75684   8.616   4.094   8.108 -0.1003 -0.2478 -3.2444
  561MOL0     H75685   8.603   4.260   8.033 -1.3142  2.2897  1.8419
  561MOL0     H75686   8.781   4.441   8.077  1.1314 -0.3200 -0.9765
  561MOL0     H75687   9.082   4.418   8.037  1.5738 -2.4610  0.9758
  561MOL0     H75688   9.008   4.531   8.146 -1.3979 -0.4803 -3.3077
  561MOL0     H75689   9.225   4.318   8.234  0.2372  0.8315  0.6670
  561MOL0     H75690   9.266   4.462   8.187 -0.5178 -0.1335 -1.6275
  561MOL0     H75691   9.078   4.409   8.429 -0.2914  0.7848  0.5769
  561MOL0     H75692   9.087   4.559   8.359 -0.1357  0.7195 -2.3202
  561MOL0     H75693   9.270   4.549   8.534  0.5990  2.7950 -1.7900
  561MOL0     H75694   9.362   4.538   8.394  1.5978 -2.2866 -0.4757
  561MOL0     H75695   9.417   4.132   8.362  0.2425 -1.0636  0.3821
  561MOL0     H75696   9.658   4.063   8.396 -1.2759  1.1545 -1.8127
  561MOL0     H75697   9.991   4.026   8.213  0.6383 -1.0281  0.1312
  561MOL0     H75698  10.220   3.942   8.183 -2.0380 -2.3962  0.4947
  561MOL0     H75699  10.504   3.790   8.331 -3.1547 -0.2804  2.3405
  561MOL0     H75700  10.373   3.830   8.222 -1.1035  0.7000  1.6481
  561MOL0     H75701  10.632   3.991   8.203  1.2396 -0.6335  0.1038
  561MOL0     H75702  10.627   3.836   8.126 -0.5036 -0.3117  0.0235
  561MOL0     H75703  10.427   3.913   7.985 -1.3613  1.8799 -0.3193
  561MOL0     H75704  10.448   4.068   8.082  1.8167 -0.3156  3.1859
  561MOL0     H75705  10.647   3.951   7.901  0.4059  0.3132  0.2982
  561MOL0     H75706  10.665   4.106   7.980  1.4182 -1.4149  0.8684
  561MOL0     H75707  10.457   4.191   7.865 -1.7127  0.1623 -0.5724
  561MOL0     H75708  10.420   4.036   7.794 -1.0419  0.3315  1.7222
  561MOL0     H75709  10.640   4.231   7.717  1.3986 -1.0505  2.9299
  561MOL0     H75710  10.635   4.069   7.644  1.4100  1.3857  0.6874
  561MOL0     H75711  10.426   4.303   7.620 -0.0914 -1.1208  0.9416
  561MOL0     H75712  10.384   4.137   7.566 -2.3908  2.8569 -1.6608
  561MOL0     H75713  10.577   4.141   7.410  2.2202 -0.8854  0.2634
  561MOL0     H75714  10.470   4.286   7.392 -2.1260 -1.5676  1.7257
  561MOL0     H75715  10.339   4.083   8.560  0.9751  4.1060 -1.1093
  561MOL0     H75716  10.119   4.131   8.623 -1.7031 -2.0149  1.7432
  561MOL0     H75717   9.713   4.423   8.634 -1.7245 -0.2259  1.2796
  561MOL0     H75718   9.487   4.483   8.613  0.6930  1.0054 -2.4831
  561MOL0     H75719   8.391   4.253   9.209  0.2133 -0.5204  0.6825
  561MOL0     H75720   8.276   4.376   9.405  1.1300 -0.4404 -1.0405
  561MOL0     H75721   7.917   4.398   9.695  1.1341  0.8856  1.9398
  561MOL0     H75722   7.807   4.487   9.871  1.7801 -2.1714 -1.6481
  561MOL0     H75723   7.653   4.593  10.019  2.7069  1.4751 -2.5475
  561MOL0     H75724   7.540   4.610   9.883 -1.0025  1.8814  0.0777
  561MOL0     H75725   7.542   4.769  10.139 -0.6788 -3.2439  1.8961
  561MOL0     H75726   7.402   4.697  10.053 -0.5507  1.2283 -0.9384
  561MOL0     H75727   7.466   4.872   9.859 -0.6850  0.7013 -0.1379
  561MOL0     H75728   7.537   4.948  10.001 -0.6051 -1.2840  2.1847
  561MOL0     H75729   7.329   4.947  10.128  3.6683 -0.2694  0.2371
  561MOL0     H75730   7.295   5.033   9.981 -1.4943 -0.2310  0.7943
  561MOL0     H75731   6.970   4.801   9.977 -1.1881  2.7827  0.1577
  561MOL0     H75732   7.804   4.870   9.704 -1.2819 -0.0730 -2.2012
  561MOL0     H75733   8.054   4.814   9.447  1.2140 -1.4434  2.0972
  561MOL0     H75734   7.891   4.819   9.388 -0.6250  1.4728  0.4269
  561MOL0     H75735   7.927   4.921   9.516  0.6419  0.6800 -2.9333
  562MOL0     O75736   6.067   2.871   7.770 -0.6383  0.0271  0.5977
  562MOL0     C75737   6.008   2.842   7.872  0.5433  0.1952 -0.0591
  562MOL0     O75738   5.947   2.926   7.963 -0.5497  0.6929  0.8637
  562MOL0     C75739   5.950   3.060   7.950  0.6685  1.0590  0.4154
  562MOL0     C75740   5.823   3.135   7.935  1.1631  0.1848  0.8694
  562MOL0     C75741   5.829   3.272   7.906  0.0579 -0.3528 -0.1477
  562MOL0     C75742   5.956   3.342   7.904 -0.1178  0.4260  0.9240
  562MOL0     O75743   5.976   3.479   7.895  0.2076  0.4407 -0.2464
  562MOL0     C75744   5.877   3.565   7.950 -0.9689 -0.0556 -0.6901
  562MOL0     C75745   5.896   3.701   7.872 -0.6001  0.6392 -0.5817
  562MOL0     C75746   6.039   3.739   7.878 -0.0645 -0.1490  0.1525
  562MOL0     C75747   6.038   3.891   7.865  0.0918 -0.9715  0.7573
  562MOL0     C75748   6.176   3.934   7.902  0.9579  0.2935 -0.1911
  562MOL0     C75749   6.203   4.079   7.871  0.6688 -0.3099  0.2916
  562MOL0     C75750   6.338   4.134   7.936 -0.5362  0.7843  0.8077
  562MOL0     C75751   6.331   4.131   8.095  0.2758 -0.6092  0.5591
  562MOL0     N75752   6.230   4.227   8.144  0.8836  0.3383 -0.3703
  562MOL0     C75753   6.108   4.170   8.171 -0.1977  0.4080 -0.1735
  562MOL0     C75754   6.028   4.279   8.171  0.1674  0.7425 -0.6047
  562MOL0     C75755   5.879   4.271   8.197 -0.5846  0.4197  0.0259
  562MOL0     C75756   5.788   4.327   8.086 -0.2148  0.1267 -0.2588
  562MOL0     C75757   5.777   4.239   7.951  0.5936  0.4600 -0.3453
  562MOL0     C75758   5.649   4.280   7.867  0.3232 -0.9553 -0.0988
  562MOL0     O75759   5.663   4.217   7.739 -0.5124  0.9345 -0.6467
  562MOL0     C75760   5.557   4.224   7.658  0.1225  0.0752 -0.5131
  562MOL0     C75761   5.421   4.259   7.701 -0.2532  0.7372 -0.6179
  562MOL0     C75762   5.321   4.262   7.612  0.4782  0.5313  0.3104
  562MOL0     C75763   5.335   4.223   7.478 -0.5278 -0.9209  0.4266
  562MOL0     C75764   5.225   4.219   7.384 -0.3931  0.3840 -0.8889
  562MOL0     O75765   5.108   4.195   7.452  1.0120 -0.0338  0.0232
  562MOL0     C75766   4.991   4.159   7.384 -0.2754  0.0620  0.2490
  562MOL0     C75767   4.865   4.201   7.437  0.1654  0.0460  0.0776
  562MOL0     C75768   4.747   4.145   7.383  0.1567  0.3507  1.1668
  562MOL0     C75769   4.751   4.043   7.288  0.5880 -0.2184 -0.0838
  562MOL0     O75770   4.652   3.961   7.238 -0.6659  1.4775 -0.2792
  562MOL0     C75771   4.533   4.030   7.195  0.0848  1.4150 -0.3366
  562MOL0     C75772   4.414   3.948   7.250 -1.0244 -0.3139  0.1479
  562MOL0     C75773   4.399   3.818   7.162 -0.4128  0.3714 -0.5994
  562MOL0     C75774   4.314   3.709   7.224  0.3501 -0.7774  0.2707
  562MOL0     C75775   4.165   3.749   7.211 -0.8088  0.4236 -0.1039
  562MOL0     C75776   4.079   3.637   7.276 -0.0894  0.5498  0.0957
  562MOL0     C75777   3.934   3.668   7.262 -0.5141  0.3545  0.2850
  562MOL0     C75778   3.850   3.545   7.293  0.2674  0.2823 -1.1315
  562MOL0    Cl75779   3.678   3.568   7.269 -0.1475  0.2450  0.0683
  562MOL0     C75780   4.873   3.996   7.254 -0.3929  0.3296 -0.6925
  562MOL0     C75781   4.991   4.061   7.288  0.8284 -0.5628 -0.0268
  562MOL0     O75782   5.235   4.233   7.263  0.1484  0.5835  0.5283
  562MOL0     C75783   5.461   4.187   7.441  0.4216  1.1216 -0.0987
  562MOL0     C75784   5.567   4.186   7.527 -1.1701  1.0210  0.2509
  562MOL0     N75785   6.104   4.393   8.173 -0.7473 -0.1443  0.5292
  562MOL0     N75786   6.223   4.365   8.154 -0.1268 -0.2228  0.2337
  562MOL0     C75787   6.076   3.268   7.922  0.7583  0.9700  0.2847
  562MOL0     C75788   6.076   3.128   7.946  1.4724 -0.0843  0.0495
  562MOL0     C75789   6.000   2.690   7.912  0.4223 -1.1284 -0.7748
  562MOL0     C75790   5.870   2.648   7.950  0.3158  0.5137  0.4494
  562MOL0     C75791   5.839   2.517   7.976  0.5758  0.0859 -0.0478
  562MOL0     C75792   5.944   2.424   7.984 -0.8271 -0.5038 -0.1457
  562MOL0     O75793   5.906   2.300   8.030 -0.5437 -0.4518 -0.2674
  562MOL0     C75794   6.000   2.197   8.076  0.3472 -0.3468  0.5859
  562MOL0     C75795   5.930   2.057   8.083  0.5951  0.1739  1.4021
  562MOL0     C75796   5.812   2.059   8.177  0.2504  0.3247 -0.5677
  562MOL0     C75797   5.788   1.918   8.228  0.9150  0.5786 -1.0873
  562MOL0     C75798   5.655   1.908   8.289 -0.0571  0.2673  0.6943
  562MOL0     C75799   5.565   1.882   8.369 -0.7855 -0.2999 -0.6668
  562MOL0     C75800   6.075   2.470   7.956  0.2109  0.0055  0.0586
  562MOL0     C75801   6.105   2.605   7.910 -0.3796 -0.4494 -0.4907
  562MOL0     C75802   6.250   2.643   7.892 -0.5179 -0.0039  0.0656
  562MOL0     H75803   5.729   3.081   7.930  1.9987 -1.2335 -0.2668
  562MOL0     H75804   5.744   3.339   7.896  1.5228  1.3433 -2.0252
  562MOL0     H75805   5.775   3.535   7.924 -1.2251  1.7288 -1.9363
  562MOL0     H75806   5.886   3.569   8.059 -3.3112 -0.2784 -0.4318
  562MOL0     H75807   5.820   3.769   7.912 -0.7101  0.2179 -0.0640
  562MOL0     H75808   5.872   3.677   7.768  0.3016 -0.6434 -0.5162
  562MOL0     H75809   6.090   3.685   7.797 -3.0254 -0.3302 -1.7688
  562MOL0     H75810   6.084   3.707   7.972 -0.0504  1.6446  0.7939
  562MOL0     H75811   6.009   3.926   7.765 -1.6984  0.8547  1.8560
  562MOL0     H75812   5.959   3.936   7.925 -1.2381 -0.1922 -1.4353
  562MOL0     H75813   6.174   3.926   8.011 -2.5357 -1.0162 -0.2404
  562MOL0     H75814   6.255   3.867   7.867  1.5947  0.1519  1.4344
  562MOL0     H75815   6.211   4.092   7.763 -1.2700  0.2487  0.1961
  562MOL0     H75816   6.119   4.133   7.916 -1.4180  0.6881 -4.2822
  562MOL0     H75817   6.347   4.238   7.904 -2.7974  0.2758 -1.9433
  562MOL0     H75818   6.419   4.077   7.891  1.0901  1.9707  2.1020
  562MOL0     H75819   6.320   4.026   8.122 -2.5756 -0.1703  1.3628
  562MOL0     H75820   6.423   4.175   8.135 -1.7325  4.1203  0.6433
  562MOL0     H75821   6.095   4.063   8.165  0.8694  0.2381  0.3476
  562MOL0     H75822   5.841   4.173   8.224 -4.3149  1.3290 -1.3427
  562MOL0     H75823   5.850   4.329   8.285  1.7997  0.9032  0.5817
  562MOL0     H75824   5.688   4.347   8.127  0.0352  4.3387 -1.2757
  562MOL0     H75825   5.824   4.419   8.040  0.2536  0.7194  1.2382
  562MOL0     H75826   5.775   4.131   7.966  2.5368  0.1339 -1.9359
  562MOL0     H75827   5.867   4.256   7.891  3.1714 -1.6420  2.5998
  562MOL0     H75828   5.642   4.388   7.848  3.5052 -1.0387 -2.6467
  562MOL0     H75829   5.570   4.238   7.930  0.0974 -0.1912  0.1440
  562MOL0     H75830   5.409   4.294   7.803  1.7905  3.1485 -1.1140
  562MOL0     H75831   5.223   4.294   7.644 -0.2928 -0.6336 -0.7682
  562MOL0     H75832   4.858   4.280   7.511  0.1727 -1.0526  1.2987
  562MOL0     H75833   4.646   4.173   7.414 -0.1391  1.6287 -0.7457
  562MOL0     H75834   4.522   4.129   7.240 -1.4070  2.2291 -2.3293
  562MOL0     H75835   4.529   4.032   7.086 -0.0238  2.6377 -0.3220
  562MOL0     H75836   4.426   3.911   7.352  1.3985  1.8872  0.7911
  562MOL0     H75837   4.322   4.007   7.253 -0.3430  0.8179 -0.5541
  562MOL0     H75838   4.343   3.855   7.075 -0.7848  1.4939  0.1021
  562MOL0     H75839   4.497   3.776   7.140 -0.0141 -0.0552  1.8094
  562MOL0     H75840   4.331   3.702   7.332 -1.0546  1.3959  0.7112
  562MOL0     H75841   4.331   3.610   7.181 -0.9616 -1.6267  1.6130
  562MOL0     H75842   4.143   3.743   7.104 -0.2531 -4.3897 -0.1683
  562MOL0     H75843   4.148   3.848   7.255  3.5547  0.8946  0.9488
  562MOL0     H75844   4.108   3.548   7.220  3.1613  0.1521  2.1399
  562MOL0     H75845   4.107   3.624   7.381 -0.2004  1.9888  0.3273
  562MOL0     H75846   3.915   3.710   7.163  2.4346  3.3296  0.8010
  562MOL0     H75847   3.899   3.757   7.315 -4.4639 -1.3845  1.0240
  562MOL0     H75848   3.865   3.454   7.235 -3.0000 -0.5031 -0.9608
  562MOL0     H75849   3.858   3.518   7.398 -0.3047 -1.9671 -1.6160
  562MOL0     H75850   4.873   3.903   7.197 -0.1657  0.6312 -1.1990
  562MOL0     H75851   5.081   4.016   7.247  2.8131 -0.1922  3.5366
  562MOL0     H75852   5.473   4.153   7.339  0.0007 -1.8143  0.7451
  562MOL0     H75853   5.670   4.165   7.498 -1.9747  3.2274 -5.6437
  562MOL0     H75854   6.171   3.319   7.910  0.4548  1.5899  0.4703
  562MOL0     H75855   6.175   3.084   7.952  1.3554 -0.1174  4.2566
  562MOL0     H75856   5.779   2.707   7.951 -1.3474 -1.7959 -1.4146
  562MOL0     H75857   5.738   2.490   8.004  0.6141  0.9231  0.9618
  562MOL0     H75858   6.037   2.223   8.176 -0.5185 -0.4665  0.9487
  562MOL0     H75859   6.084   2.189   8.007 -0.3200  0.5673 -0.3639
  562MOL0     H75860   6.008   1.991   8.121 -0.9274 -1.4055  1.8506
  562MOL0     H75861   5.907   2.017   7.984 -1.8916  0.6455  1.7209
  562MOL0     H75862   5.721   2.103   8.136  1.6134  6.8604  2.1209
  562MOL0     H75863   5.825   2.125   8.264 -1.5912 -0.4321  0.3174
  562MOL0     H75864   5.797   1.845   8.148 -2.8802  0.8078 -1.9193
  562MOL0     H75865   5.863   1.892   8.303  1.3326 -2.7412 -2.4744
  562MOL0     H75866   5.475   1.856   8.422 -1.6549  0.7416 -1.5907
  562MOL0     H75867   6.152   2.395   7.968 -0.4309 -0.3252  2.8412
  562MOL0     H75868   6.298   2.565   7.833  0.0572  2.8576 -3.5796
  562MOL0     H75869   6.258   2.731   7.828 -1.6495 -0.6348 -0.9912
  562MOL0     H75870   6.307   2.651   7.985  1.2365  1.0570 -1.0454
  563MOL0     O75871   9.788   5.664   5.414 -0.4811 -0.0412 -0.0701
  563MOL0     C75872   9.808   5.672   5.289 -0.4846 -0.4316  1.4260
  563MOL0     O75873   9.813   5.553   5.214  0.1084  0.4776  0.0866
  563MOL0     C75874   9.827   5.567   5.083  0.3241  0.5226  0.4159
  563MOL0     C75875   9.724   5.623   5.002 -1.8038 -0.0523 -0.2725
  563MOL0     C75876   9.744   5.645   4.868  0.6550 -0.2970  0.2709
  563MOL0     C75877   9.860   5.621   4.803 -0.3340 -0.7546 -0.2095
  563MOL0     O75878   9.859   5.631   4.662 -0.2397 -0.3698  0.3750
  563MOL0     C75879   9.993   5.630   4.601  0.0852  0.8684  0.1910
  563MOL0     C75880  10.095   5.744   4.636  0.1438 -0.0708 -0.4048
  563MOL0     C75881  10.233   5.728   4.567 -0.6677 -0.3571 -0.9184
  563MOL0     C75882  10.347   5.809   4.623 -0.4919 -0.7895  0.2218
  563MOL0     C75883  10.367   5.958   4.558  0.8221 -0.1229 -0.6056
  563MOL0     C75884  10.511   6.004   4.564  0.0622 -0.4106 -0.6033
  563MOL0     C75885  10.540   6.141   4.495  0.5966 -0.1229  0.8484
  563MOL0     C75886  10.487   6.258   4.579 -0.5773 -0.4120  0.4719
  563MOL0     N75887  10.555   6.385   4.540  0.7021  0.2225  0.4013
  563MOL0     C75888  10.536   6.433   4.408 -0.7982 -0.3165  0.4486
  563MOL0     C75889  10.610   6.551   4.412  0.4139 -0.8729 -0.2465
  563MOL0     C75890  10.643   6.632   4.291 -0.7630  0.0077 -0.1664
  563MOL0     C75891  10.517   6.710   4.240 -0.5439  0.4111 -1.0553
  563MOL0     C75892  10.537   6.775   4.108 -0.5015  0.0010  0.3818
  563MOL0     C75893  10.415   6.817   4.028 -0.5904  0.3488 -0.4604
  563MOL0     O75894  10.331   6.880   4.117 -0.5088  0.2028 -0.2397
  563MOL0     C75895  10.232   6.962   4.065  0.1902 -0.8696 -0.1228
  563MOL0     C75896  10.171   7.042   4.157 -0.1613 -0.0448  0.3959
  563MOL0     C75897  10.053   7.110   4.132 -0.3799  0.2022  0.0638
  563MOL0     C75898   9.998   7.113   4.005 -0.2051  0.1504  0.3525
  563MOL0     C75899   9.877   7.201   3.983  0.2397  0.0460  0.5120
  563MOL0     O75900   9.797   7.164   3.871 -0.1818 -0.0814 -0.0805
  563MOL0     C75901   9.672   7.214   3.856 -0.1369  0.2072 -1.0495
  563MOL0     C75902   9.567   7.121   3.844  0.1839  0.6550  0.8059
  563MOL0     C75903   9.440   7.162   3.822 -0.1262 -0.8198 -1.0105
  563MOL0     C75904   9.416   7.306   3.810 -0.0883  1.0465  0.0730
  563MOL0     O75905   9.288   7.341   3.816  0.5201  0.2177  0.7326
  563MOL0     C75906   9.249   7.476   3.850  0.3623 -0.5547  0.0048
  563MOL0     C75907   9.094   7.482   3.890 -0.7021 -0.3310 -0.8664
  563MOL0     C75908   9.001   7.486   3.765  0.5057  0.0222 -0.1029
  563MOL0     C75909   8.864   7.435   3.799 -0.6222 -0.0867 -0.4667
  563MOL0     C75910   8.777   7.416   3.682 -0.6116 -0.6964  0.2604
  563MOL0     C75911   8.635   7.402   3.728  0.1229 -0.4280 -0.0152
  563MOL0     C75912   8.534   7.484   3.642  0.2177  0.6471 -0.0691
  563MOL0     C75913   8.392   7.426   3.656  0.8800  1.0484  0.8847
  563MOL0    Cl75914   8.283   7.514   3.539 -0.3068 -0.4779  0.6376
  563MOL0     C75915   9.521   7.397   3.826 -0.0099 -0.1711  0.9856
  563MOL0     C75916   9.656   7.348   3.846 -0.2839 -0.5695 -0.7333
  563MOL0     O75917   9.851   7.294   4.058  0.1333 -0.1607 -0.6971
  563MOL0     C75918  10.062   7.035   3.906 -0.2567  0.6814 -0.2199
  563MOL0     C75919  10.171   6.960   3.939 -0.5732  0.8467 -0.7887
  563MOL0     N75920  10.657   6.568   4.542 -0.9325 -0.0121 -0.7401
  563MOL0     N75921  10.626   6.468   4.618  0.5973 -0.3908 -0.0304
  563MOL0     C75922   9.956   5.555   4.872  0.1228  0.1115 -0.7362
  563MOL0     C75923   9.941   5.528   5.011 -0.5481  0.2151 -1.0252
  563MOL0     C75924   9.847   5.805   5.246  0.0638 -0.2975  0.3213
  563MOL0     C75925   9.745   5.896   5.206 -0.0951 -0.1718  1.3191
  563MOL0     C75926   9.779   6.030   5.192  0.7549  0.3590 -0.2263
  563MOL0     C75927   9.912   6.078   5.204 -0.6048  0.0288 -0.2377
  563MOL0     O75928   9.948   6.212   5.195  0.2484 -0.0001  0.3379
  563MOL0     C75929   9.868   6.323   5.142 -0.0082  0.2851 -0.8962
  563MOL0     C75930   9.836   6.288   4.994  0.0121 -0.1773 -0.1307
  563MOL0     C75931   9.963   6.291   4.900 -0.5746  0.5637  0.3634
  563MOL0     C75932   9.962   6.198   4.779  0.5765  0.0301  1.3391
  563MOL0     C75933   9.959   6.058   4.816 -0.2449  0.1559  0.2557
  563MOL0     C75934   9.941   5.944   4.860  0.4966  0.2902 -0.4480
  563MOL0     C75935  10.009   5.987   5.242  0.3011  0.4503  0.0166
  563MOL0     C75936   9.980   5.850   5.265  0.2592  0.2964  0.3037
  563MOL0     C75937  10.084   5.748   5.316  0.8305 -0.8370 -0.2365
  563MOL0     H75938   9.628   5.648   5.047 -1.2641 -1.3473  1.6872
  563MOL0     H75939   9.665   5.677   4.800  1.6962 -1.5421 -1.6042
  563MOL0     H75940  10.032   5.529   4.612 -2.3794 -0.1769  0.0335
  563MOL0     H75941   9.975   5.645   4.494 -1.3680  1.6360  0.5174
  563MOL0     H75942  10.117   5.742   4.744 -2.8876 -1.8254  0.2963
  563MOL0     H75943  10.046   5.841   4.624 -0.0501  0.2690  2.4326
  563MOL0     H75944  10.202   5.753   4.465 -2.0219 -1.7411 -0.8711
  563MOL0     H75945  10.255   5.621   4.569 -0.7688 -0.5203 -3.6502
  563MOL0     H75946  10.360   5.808   4.732 -0.8102 -0.2520  0.2702
  563MOL0     H75947  10.436   5.754   4.593 -1.1072 -2.2842  1.0274
  563MOL0     H75948  10.337   5.942   4.454  1.4617 -0.9359 -0.6797
  563MOL0     H75949  10.299   6.021   4.615 -0.2391 -0.9760 -0.8954
  563MOL0     H75950  10.537   6.020   4.669 -0.0646 -0.2770 -0.5919
  563MOL0     H75951  10.572   5.922   4.526 -1.4452 -1.3016 -1.2025
  563MOL0     H75952  10.488   6.135   4.399  0.7912  1.7783  0.5906
  563MOL0     H75953  10.646   6.159   4.472  1.4473 -1.6765  3.1449
  563MOL0     H75954  10.379   6.273   4.588 -0.6634  2.7427 -3.2267
  563MOL0     H75955  10.522   6.230   4.679  1.4688 -1.7134 -0.5434
  563MOL0     H75956  10.487   6.406   4.315 -1.1166  2.0659 -0.1522
  563MOL0     H75957  10.721   6.709   4.305  0.0097 -0.5229 -1.3930
  563MOL0     H75958  10.681   6.562   4.216 -0.4308  1.4238 -1.3646
  563MOL0     H75959  10.432   6.641   4.230 -1.0857  0.9579 -0.3645
  563MOL0     H75960  10.492   6.784   4.317 -0.3399  0.3771 -0.9556
  563MOL0     H75961  10.591   6.696   4.056  2.6592  1.6165  0.9428
  563MOL0     H75962  10.597   6.866   4.121  1.1450 -1.0710  0.5671
  563MOL0     H75963  10.375   6.726   3.982 -0.6033 -0.0478  0.3042
  563MOL0     H75964  10.466   6.874   3.950 -1.6672  0.1814 -1.3104
  563MOL0     H75965  10.200   7.050   4.261  1.1674  1.0826 -0.0366
  563MOL0     H75966  10.007   7.172   4.209 -0.8075  1.5385 -1.2103
  563MOL0     H75967   9.586   7.015   3.858 -0.3760  0.2662 -1.0650
  563MOL0     H75968   9.357   7.093   3.827  0.0860 -0.9967  2.7263
  563MOL0     H75969   9.303   7.501   3.942 -0.2487 -0.6911  0.4047
  563MOL0     H75970   9.270   7.542   3.765 -4.2324 -0.2486 -1.1262
  563MOL0     H75971   9.083   7.392   3.953 -2.1761  0.1292 -0.4131
  563MOL0     H75972   9.073   7.562   3.962  0.4683 -0.6663 -0.1261
  563MOL0     H75973   8.985   7.590   3.735 -0.6370 -0.0506  0.2141
  563MOL0     H75974   9.046   7.431   3.682  1.9373 -0.2253  0.7915
  563MOL0     H75975   8.810   7.504   3.865  1.2209  0.8940  0.0863
  563MOL0     H75976   8.870   7.334   3.841  2.4766 -2.9973 -6.6397
  563MOL0     H75977   8.809   7.327   3.627  4.0806  0.7120  0.2767
  563MOL0     H75978   8.789   7.509   3.625  1.2743 -1.0026  0.0888
  563MOL0     H75979   8.612   7.297   3.712 -1.2131 -0.3994  1.4539
  563MOL0     H75980   8.612   7.427   3.832  0.0814  3.0840 -0.7424
  563MOL0     H75981   8.561   7.463   3.538 -0.4920 -0.8833  0.0377
  563MOL0     H75982   8.530   7.593   3.650  0.0127  0.7070 -0.8790
  563MOL0     H75983   8.387   7.319   3.637  0.0717  1.3348 -0.6242
  563MOL0     H75984   8.351   7.438   3.757 -0.7484 -2.2312  0.7594
  563MOL0     H75985   9.502   7.503   3.822  1.9566  0.3195 -5.4860
  563MOL0     H75986   9.734   7.414   3.884  0.1995 -1.6475  0.1935
  563MOL0     H75987  10.022   7.009   3.809  0.7901  0.5776 -0.6300
  563MOL0     H75988  10.210   6.899   3.858  1.7283 -2.5584  2.5453
  563MOL0     H75989  10.058   5.537   4.841  0.4035 -3.1690  1.5751
  563MOL0     H75990  10.021   5.483   5.069 -0.1283  2.1063 -0.0541
  563MOL0     H75991   9.636   5.891   5.198 -0.5111  3.0856  3.1383
  563MOL0     H75992   9.708   6.111   5.172  4.6345  3.6199 -2.3057
  563MOL0     H75993   9.918   6.420   5.141 -3.6935  2.4161 -0.2470
  563MOL0     H75994   9.776   6.338   5.200  0.1842 -1.8477  0.0111
  563MOL0     H75995   9.765   6.367   4.968  0.2295  0.6105  1.5725
  563MOL0     H75996   9.790   6.191   4.975  3.0162 -1.9022  0.8377
  563MOL0     H75997  10.047   6.253   4.959 -0.9263 -1.0679 -0.1474
  563MOL0     H75998   9.975   6.396   4.871 -0.7941  1.3454  2.8371
  563MOL0     H75999   9.871   6.212   4.719 -0.5858  0.5093  3.1480
  563MOL0     H76000  10.051   6.208   4.715 -0.4525  0.4341 -0.0861
  563MOL0     H76001   9.925   5.845   4.897  1.6283  0.6999  1.2694
  563MOL0     H76002  10.106   6.025   5.276  0.7730 -1.5255  1.0576
  563MOL0     H76003  10.108   5.676   5.237  3.0368  2.5010 -2.9234
  563MOL0     H76004  10.173   5.802   5.351 -1.0186  1.0069  1.9599
  563MOL0     H76005  10.040   5.697   5.402  0.9857 -1.5616 -0.5789
  564MOL0     O76006   0.315   6.205   4.604 -0.1512 -0.6165 -1.0467
  564MOL0     C76007   0.237   6.233   4.509 -0.1430  0.8267 -0.1332
  564MOL0     O76008   0.272   6.197   4.381  0.0235  0.1964  0.2424
  564MOL0     C76009   0.364   6.097   4.352  0.5055 -0.9827 -0.0839
  564MOL0     C76010   0.437   6.112   4.232 -0.7761 -0.5761 -0.6353
  564MOL0     C76011   0.501   6.008   4.181  0.1647 -0.7835 -0.0228
  564MOL0     C76012   0.519   5.890   4.249  0.2501  0.6304 -0.0599
  564MOL0     O76013   0.586   5.777   4.201 -0.4416  0.4215 -0.4272
  564MOL0     C76014   0.659   5.767   4.074  0.1986 -0.3351 -0.0188
  564MOL0     C76015   0.815   5.795   4.084  0.0335 -0.9958  0.1519
  564MOL0     C76016   0.887   5.785   3.949  0.8608  0.1553  0.6445
  564MOL0     C76017   0.919   5.641   3.906 -0.6916  0.2697  0.4424
  564MOL0     C76018   0.967   5.649   3.759  0.2450 -0.6438  0.7610
  564MOL0     C76019   1.084   5.551   3.737 -0.4252 -0.5049 -0.7086
  564MOL0     C76020   1.212   5.615   3.780  0.4269  0.3772 -0.1554
  564MOL0     C76021   1.337   5.527   3.747  0.8352  0.0894  0.5352
  564MOL0     N76022   1.363   5.517   3.601  0.0714 -0.1617 -0.3535
  564MOL0     C76023   1.458   5.597   3.527  0.6771 -0.2758 -0.0248
  564MOL0     C76024   1.449   5.541   3.401  1.2061 -0.1718  0.2549
  564MOL0     C76025   1.512   5.612   3.279  0.3121  1.1087  0.3372
  564MOL0     C76026   1.634   5.690   3.320 -0.0132  0.5282 -0.1282
  564MOL0     C76027   1.714   5.740   3.201 -0.3231  0.3715  0.3030
  564MOL0     C76028   1.830   5.832   3.247 -0.2995  0.4653 -0.4136
  564MOL0     O76029   1.895   5.856   3.125  0.1187  0.0999  1.3695
  564MOL0     C76030   1.923   5.975   3.061 -0.6029  0.4025 -0.2619
  564MOL0     C76031   1.855   6.090   3.091  0.3794 -0.4046  0.1255
  564MOL0     C76032   1.890   6.217   3.044  0.1837 -0.3299 -0.5591
  564MOL0     C76033   1.990   6.230   2.944  0.1688  0.2336 -0.3257
  564MOL0     C76034   2.033   6.356   2.883  0.6621 -0.6213  0.1394
  564MOL0     O76035   2.085   6.348   2.756 -0.1367 -0.1164  1.1368
  564MOL0     C76036   2.137   6.455   2.681 -0.9633  0.5170  0.5902
  564MOL0     C76037   2.208   6.417   2.564 -0.3730  0.1576  0.9809
  564MOL0     C76038   2.269   6.510   2.477  0.1768  0.6231  0.3533
  564MOL0     C76039   2.268   6.648   2.508  0.8389  0.1610 -0.3381
  564MOL0     O76040   2.303   6.753   2.427 -0.3540 -0.0039  0.1287
  564MOL0     C76041   2.424   6.748   2.351  0.4615 -0.4714 -0.4363
  564MOL0     C76042   2.384   6.719   2.203  0.2073 -0.1255 -0.1497
  564MOL0     C76043   2.506   6.706   2.114  0.7405 -0.4832 -1.0295
  564MOL0     C76044   2.479   6.710   1.964  0.7374 -0.1757 -0.7515
  564MOL0     C76045   2.596   6.658   1.870  1.2489  0.0211  0.7411
  564MOL0     C76046   2.697   6.764   1.855  0.4597  0.2753  0.2494
  564MOL0     C76047   2.812   6.720   1.764 -0.8361 -0.5240 -1.0270
  564MOL0     C76048   2.931   6.817   1.783  0.1030 -0.7113 -0.9420
  564MOL0    Cl76049   2.984   6.795   1.954 -0.1106 -0.3298  0.2401
  564MOL0     C76050   2.218   6.678   2.630  0.9027 -0.3935  0.4321
  564MOL0     C76051   2.151   6.589   2.718  0.7343 -0.0452 -0.9281
  564MOL0     O76052   1.999   6.456   2.939 -0.0505  0.0021 -0.0028
  564MOL0     C76053   2.067   6.110   2.924 -0.1407  0.1296  0.4915
  564MOL0     C76054   2.041   5.990   2.989 -0.8460  0.6625 -0.1416
  564MOL0     N76055   1.353   5.443   3.401  0.3603  0.2032  0.9453
  564MOL0     N76056   1.310   5.414   3.521 -0.3361  1.2847  0.1836
  564MOL0     C76057   0.453   5.876   4.373 -0.3992  1.0261 -0.5160
  564MOL0     C76058   0.372   5.978   4.426 -1.1056  1.0005 -0.3232
  564MOL0     C76059   0.112   6.306   4.531  0.2674 -0.0085 -0.1309
  564MOL0     C76060   0.017   6.293   4.424  0.4575  0.1864  0.3183
  564MOL0     C76061  -0.111   6.354   4.441  0.3283 -0.7000 -0.0362
  564MOL0     C76062  -0.151   6.398   4.570 -0.3978 -0.8974  0.8626
  564MOL0     O76063  -0.287   6.417   4.580 -0.3863  0.1769  0.5750
  564MOL0     C76064  -0.338   6.472   4.706  0.3714 -0.4614  1.1360
  564MOL0     C76065  -0.478   6.415   4.731  0.0896 -0.3295 -0.4200
  564MOL0     C76066  -0.473   6.265   4.758 -0.3213  0.1337  0.0455
  564MOL0     C76067  -0.601   6.186   4.743  0.0220  0.0700  0.1657
  564MOL0     C76068  -0.577   6.039   4.733  0.5665 -0.2287  0.1944
  564MOL0     C76069  -0.581   5.920   4.727 -0.5249  0.0242  0.3189
  564MOL0     C76070  -0.049   6.427   4.663 -0.9639 -0.9528  0.0952
  564MOL0     C76071   0.082   6.380   4.651  0.8339 -0.2688  0.3501
  564MOL0     C76072   0.191   6.429   4.752 -0.5258 -0.1145 -0.4273
  564MOL0     H76073   0.419   6.198   4.169 -0.4631 -0.6727 -0.8671
  564MOL0     H76074   0.546   6.023   4.083 -1.4151  0.9927 -0.5255
  564MOL0     H76075   0.635   5.668   4.034 -1.2710  0.3367 -0.9041
  564MOL0     H76076   0.606   5.834   4.005 -0.3614 -0.2105  0.5290
  564MOL0     H76077   0.870   5.733   4.155  2.5646 -1.6396 -2.1833
  564MOL0     H76078   0.824   5.898   4.120 -1.3384 -0.4525 -0.9543
  564MOL0     H76079   0.985   5.835   3.950  1.0325 -0.1326 -0.5406
  564MOL0     H76080   0.826   5.837   3.874  2.1141  0.7800  0.0261
  564MOL0     H76081   1.000   5.595   3.963  1.1089 -1.2197 -3.0292
  564MOL0     H76082   0.834   5.574   3.917 -0.2407 -0.1559  1.4615
  564MOL0     H76083   0.885   5.608   3.699 -1.7033  0.3642  2.6041
  564MOL0     H76084   0.996   5.751   3.734  0.0013 -0.4739  1.1697
  564MOL0     H76085   1.062   5.451   3.777  1.0485 -0.0399  1.4647
  564MOL0     H76086   1.094   5.543   3.629  0.6876  0.8863 -0.7341
  564MOL0     H76087   1.203   5.625   3.888  0.4050  0.1041 -0.1324
  564MOL0     H76088   1.234   5.710   3.730  1.7472 -0.5316 -1.3606
  564MOL0     H76089   1.430   5.568   3.789  0.5401  0.8753  0.4400
  564MOL0     H76090   1.324   5.421   3.769  0.8409 -0.7630 -3.0004
  564MOL0     H76091   1.525   5.679   3.553  0.5086  0.6516 -2.3013
  564MOL0     H76092   1.534   5.539   3.201  0.0489  0.2905  1.0105
  564MOL0     H76093   1.443   5.677   3.223  0.9258  1.9317  0.5132
  564MOL0     H76094   1.597   5.784   3.362  2.3675  1.2003  0.6711
  564MOL0     H76095   1.695   5.647   3.400 -0.8882  0.9492  0.7863
  564MOL0     H76096   1.648   5.799   3.137  0.6846  2.4199  1.0388
  564MOL0     H76097   1.754   5.659   3.139 -0.6841 -0.4013  1.0647
  564MOL0     H76098   1.891   5.776   3.319  1.2174 -0.0421 -1.9847
  564MOL0     H76099   1.807   5.931   3.286 -0.3787 -0.3154  1.6322
  564MOL0     H76100   1.767   6.083   3.154 -0.9747  0.3841 -1.6054
  564MOL0     H76101   1.833   6.298   3.088  1.5200  0.1018  0.4392
  564MOL0     H76102   2.197   6.310   2.546  0.4293  0.4804 -1.9882
  564MOL0     H76103   2.302   6.474   2.380 -0.5008 -0.9254  0.6656
  564MOL0     H76104   2.483   6.838   2.369 -2.2267  0.8375  2.8270
  564MOL0     H76105   2.487   6.664   2.383 -0.0131 -1.3445 -1.6828
  564MOL0     H76106   2.325   6.629   2.187 -0.4646  0.0460  1.1706
  564MOL0     H76107   2.323   6.804   2.170  2.4160  0.9872 -1.5867
  564MOL0     H76108   2.569   6.785   2.157  0.8971 -1.1317 -0.0173
  564MOL0     H76109   2.557   6.610   2.125  0.7860 -0.2903  0.9596
  564MOL0     H76110   2.444   6.807   1.928 -2.7400 -0.4249  1.4277
  564MOL0     H76111   2.398   6.641   1.939 -0.4526  1.4198 -1.4815
  564MOL0     H76112   2.535   6.646   1.780  1.5954  0.1492  0.4900
  564MOL0     H76113   2.631   6.557   1.893  1.4904 -0.3609 -1.1604
  564MOL0     H76114   2.655   6.845   1.793 -1.2271  2.5953  4.0383
  564MOL0     H76115   2.729   6.808   1.950 -0.3165  0.9463  0.2193
  564MOL0     H76116   2.786   6.718   1.658  1.6219  1.3962 -1.7479
  564MOL0     H76117   2.834   6.615   1.787 -2.0626 -0.4455  0.6716
  564MOL0     H76118   3.023   6.787   1.731 -0.3651 -0.1347 -2.1092
  564MOL0     H76119   2.902   6.922   1.772  2.0788  0.4111  2.6391
  564MOL0     H76120   2.215   6.783   2.657  4.7415 -0.1715  0.4994
  564MOL0     H76121   2.121   6.634   2.811  3.7417 -0.8167  0.5423
  564MOL0     H76122   2.150   6.106   2.854 -0.7022 -0.9957 -0.1510
  564MOL0     H76123   2.115   5.913   2.969 -3.1697 -1.7415 -0.1903
  564MOL0     H76124   0.456   5.775   4.413 -3.3098  0.8481 -0.5307
  564MOL0     H76125   0.315   5.963   4.517  0.1076  3.2232  0.8950
  564MOL0     H76126   0.042   6.232   4.338 -0.9964  1.9257 -1.4335
  564MOL0     H76127  -0.179   6.353   4.356  1.8393 -1.6194 -1.3050
  564MOL0     H76128  -0.326   6.581   4.695  1.2364 -0.5295  1.3123
  564MOL0     H76129  -0.277   6.447   4.793 -0.0445  0.6703  1.7833
  564MOL0     H76130  -0.534   6.427   4.638 -1.5703  0.9993  0.6978
  564MOL0     H76131  -0.521   6.473   4.813 -3.9325 -1.1792 -1.6857
  564MOL0     H76132  -0.439   6.248   4.860 -0.5825  1.9314  0.4663
  564MOL0     H76133  -0.403   6.237   4.679 -2.7512 -1.7384 -1.5845
  564MOL0     H76134  -0.663   6.211   4.830  3.1320  1.4005  2.1396
  564MOL0     H76135  -0.663   6.219   4.659  0.1372  1.4284  0.5943
  564MOL0     H76136  -0.559   5.815   4.735  3.1543  0.7450  1.0353
  564MOL0     H76137  -0.070   6.477   4.757 -0.7979  0.2792 -0.5054
  564MOL0     H76138   0.270   6.488   4.703 -1.8924  2.8247  0.6887
  564MOL0     H76139   0.158   6.495   4.832  4.0652  0.4705  1.3198
  564MOL0     H76140   0.239   6.342   4.796 -0.2200 -0.7153 -1.8668
  565MOL0     O76141   1.278  11.108  10.460  0.0747 -0.4957 -0.1470
  565MOL0     C76142   1.328  11.159  10.561 -0.4225  0.2178 -0.3124
  565MOL0     O76143   1.433  11.111  10.634  0.8496 -0.1793  0.1233
  565MOL0     C76144   1.467  10.981  10.611 -0.1394  0.2086  0.4030
  565MOL0     C76145   1.402  10.878  10.685 -0.9152 -0.4299 -0.2262
  565MOL0     C76146   1.418  10.748  10.655 -0.0513 -0.4372  0.5151
  565MOL0     C76147   1.494  10.702  10.549 -0.0051  0.4952  0.0526
  565MOL0     O76148   1.504  10.563  10.528  0.7637 -0.6890 -0.5798
  565MOL0     C76149   1.617  10.489  10.580 -0.5674 -0.4856  1.2721
  565MOL0     C76150   1.642  10.357  10.510 -0.1679 -0.3816  0.0052
  565MOL0     C76151   1.749  10.264  10.571 -0.2309  0.2553  0.4115
  565MOL0     C76152   1.867  10.343  10.610 -0.0106 -1.0869 -0.4760
  565MOL0     C76153   1.999  10.258  10.616  0.3626 -0.6003  0.2669
  565MOL0     C76154   2.117  10.362  10.597  0.7678  0.1928  0.0955
  565MOL0     C76155   2.154  10.424  10.735  0.0218  0.9556  0.3005
  565MOL0     C76156   2.311  10.439  10.759  0.2304 -0.5203  0.3084
  565MOL0     N76157   2.329  10.536  10.866 -0.1073  0.2218  0.3827
  565MOL0     C76158   2.306  10.507  11.001  0.2466 -0.2502 -0.1131
  565MOL0     C76159   2.335  10.616  11.067  0.3415 -0.8729  0.0377
  565MOL0     C76160   2.338  10.637  11.217  0.4423  0.3907 -0.6326
  565MOL0     C76161   2.188  10.609  11.267 -0.1900 -0.0318  0.5325
  565MOL0     C76162   2.175  10.658  11.412  0.5106  0.0280 -0.1829
  565MOL0     C76163   2.222  10.797  11.437  0.8593 -0.7830  0.4079
  565MOL0     O76164   2.145  10.851  11.540  0.6934  0.3996  0.2813
  565MOL0     C76165   2.156  10.976  11.591  0.2058  0.3359  0.2002
  565MOL0     C76166   2.085  11.011  11.704  0.4763  0.4781 -0.8462
  565MOL0     C76167   2.110  11.134  11.766  0.3920  0.5901 -1.6264
  565MOL0     C76168   2.188  11.230  11.702 -0.1682  0.6366  0.2668
  565MOL0     C76169   2.210  11.361  11.771  0.3272  0.1504 -0.3557
  565MOL0     O76170   2.135  11.379  11.883 -0.2085 -0.5513 -0.7091
  565MOL0     C76171   2.124  11.500  11.947  0.5246 -0.6272 -0.4670
  565MOL0     C76172   2.238  11.570  11.990 -0.1099 -0.7697  0.1225
  565MOL0     C76173   2.236  11.705  12.039  0.2234  0.8788  0.3821
  565MOL0     C76174   2.116  11.763  12.061 -0.8986  0.0190 -0.5919
  565MOL0     O76175   2.121  11.887  12.114 -0.8205  0.1170  0.2951
  565MOL0     C76176   2.000  11.957  12.138  0.5974  0.4818 -0.4624
  565MOL0     C76177   2.015  12.094  12.198 -0.2835  0.6156  0.0963
  565MOL0     C76178   2.078  12.080  12.346 -0.2228 -0.6347  0.5666
  565MOL0     C76179   2.115  12.212  12.416  0.1194  0.3714  0.0701
  565MOL0     C76180   2.127  12.196  12.566 -0.6148  0.4642  0.3565
  565MOL0     C76181   2.168  12.333  12.627  0.9378 -0.0285 -0.6952
  565MOL0     C76182   2.150  12.338  12.778 -0.9548 -0.0997 -0.0706
  565MOL0     C76183   2.000  12.338  12.823  0.2985 -0.0012 -0.0288
  565MOL0    Cl76184   1.981  12.356  13.001 -0.2100  0.2255  0.2892
  565MOL0     C76185   2.000  11.697  12.024  0.4078  0.5803  0.2412
  565MOL0     C76186   2.000  11.564  11.971 -0.2479  0.5275 -0.4595
  565MOL0     O76187   2.292  11.444  11.731  0.3504 -0.0248 -0.1918
  565MOL0     C76188   2.245  11.202  11.576 -0.7445  0.1158 -0.0626
  565MOL0     C76189   2.232  11.070  11.529 -1.1664 -0.1409 -0.0371
  565MOL0     N76190   2.384  10.709  10.974 -0.8748 -0.8289 -0.5973
  565MOL0     N76191   2.377  10.663  10.854 -0.3320  0.3290  0.2977
  565MOL0     C76192   1.570  10.798  10.481  0.1690 -0.5015  0.3955
  565MOL0     C76193   1.544  10.943  10.500  0.2152  0.4087  0.0200
  565MOL0     C76194   1.277  11.285  10.610  0.3671 -0.3862 -0.6402
  565MOL0     C76195   1.137  11.309  10.580 -0.0612  0.1982 -0.4273
  565MOL0     C76196   1.079  11.428  10.625 -0.8811  0.2027  0.7247
  565MOL0     C76197   1.154  11.529  10.687 -0.0195 -0.2691 -0.3122
  565MOL0     O76198   1.104  11.654  10.714 -0.5956 -0.1588  0.8754
  565MOL0     C76199   0.964  11.678  10.737  0.7809 -0.0259 -0.1601
  565MOL0     C76200   0.945  11.820  10.787  0.1065 -0.5514  0.9652
  565MOL0     C76201   0.802  11.861  10.802 -0.6684  0.9458  0.5146
  565MOL0     C76202   0.719  11.848  10.678  0.0897 -0.0392  0.8175
  565MOL0     C76203   0.594  11.923  10.675  0.2764 -0.2735  0.2320
  565MOL0     C76204   0.494  11.989  10.687  0.5302 -0.2293 -0.3274
  565MOL0     C76205   1.292  11.510  10.709  0.6156  0.4663  0.5393
  565MOL0     C76206   1.351  11.389  10.680  0.5772  0.4894  0.1842
  565MOL0     C76207   1.491  11.376  10.715  0.0348 -0.4451  0.6044
  565MOL0     H76208   1.340  10.901  10.771  0.8226  1.8144  0.5286
  565MOL0     H76209   1.363  10.676  10.713  2.3030 -2.1075  0.7845
  565MOL0     H76210   1.705  10.554  10.580  1.5539 -3.0733 -1.9043
  565MOL0     H76211   1.608  10.467  10.687 -0.6916  0.4695  1.4738
  565MOL0     H76212   1.653  10.375  10.403 -1.3127  3.5611  0.3891
  565MOL0     H76213   1.549  10.300  10.519 -0.6420  0.6501  2.3656
  565MOL0     H76214   1.772  10.195  10.490  1.3483 -0.3691  1.3442
  565MOL0     H76215   1.702  10.201  10.647 -0.6272 -3.8740 -2.8844
  565MOL0     H76216   1.884  10.421  10.535 -0.7373  2.8178  3.0681
  565MOL0     H76217   1.858  10.387  10.710 -1.5109 -0.6363 -0.7826
  565MOL0     H76218   2.006  10.203  10.710  0.9358 -2.9714 -1.0891
  565MOL0     H76219   1.990  10.185  10.535 -1.1354  2.3210 -2.4470
  565MOL0     H76220   2.208  10.317  10.556  2.0131  1.9146  0.8272
  565MOL0     H76221   2.094  10.447  10.533  2.4145  1.1259  0.6824
  565MOL0     H76222   2.117  10.366  10.820  0.1494  1.3540  0.6338
  565MOL0     H76223   2.119  10.527  10.724  1.2453  1.2507 -1.2631
  565MOL0     H76224   2.352  10.342  10.788 -2.9948 -1.4675  2.2069
  565MOL0     H76225   2.372  10.477  10.676  0.0748  3.0700  1.6406
  565MOL0     H76226   2.265  10.416  11.043 -1.0035  1.7567  3.5070
  565MOL0     H76227   2.417  10.576  11.262 -0.6858 -1.6364 -1.2745
  565MOL0     H76228   2.366  10.742  11.232  2.6816  0.0401 -1.8618
  565MOL0     H76229   2.113  10.661  11.205 -0.0271 -2.4457 -1.8933
  565MOL0     H76230   2.168  10.501  11.266  0.5718 -0.1808 -0.4362
  565MOL0     H76231   2.222  10.586  11.479  1.5191 -1.0982 -2.0037
  565MOL0     H76232   2.069  10.659  11.438  1.0863 -2.6728  2.8385
  565MOL0     H76233   2.203  10.857  11.347  1.9256 -0.5047  0.3454
  565MOL0     H76234   2.327  10.809  11.466  0.8224  3.2797 -0.5098
  565MOL0     H76235   2.002  10.949  11.736  0.9004 -1.1121 -2.6289
  565MOL0     H76236   2.054  11.152  11.857  2.9226 -0.4260  0.2491
  565MOL0     H76237   2.336  11.524  11.980 -0.6469 -1.6306 -1.4702
  565MOL0     H76238   2.327  11.755  12.072 -0.4792  0.0401  4.0411
  565MOL0     H76239   1.940  11.964  12.047 -1.8254 -3.6524  0.5852
  565MOL0     H76240   1.941  11.904  12.213  0.3451  0.2512 -0.8231
  565MOL0     H76241   2.081  12.160  12.141 -0.7617 -0.9001 -2.3586
  565MOL0     H76242   1.917  12.144  12.197 -0.4686  0.2651 -1.1327
  565MOL0     H76243   2.006  12.019  12.400 -2.3785  0.9278 -0.3659
  565MOL0     H76244   2.171  12.022  12.339  0.7459  1.0006 -1.0947
  565MOL0     H76245   2.038  12.289  12.409 -0.1901  0.2715  1.8170
  565MOL0     H76246   2.207  12.261  12.382 -0.9812  2.7672  0.3472
  565MOL0     H76247   2.210  12.126  12.578  0.3656  1.8233  2.0194
  565MOL0     H76248   2.037  12.159  12.614 -0.0329  0.8374  1.7978
  565MOL0     H76249   2.274  12.352  12.606  1.3207  0.9601  1.7835
  565MOL0     H76250   2.112  12.411  12.575 -1.1780 -1.3917 -0.5492
  565MOL0     H76251   2.203  12.430  12.806  2.7347 -1.6680 -1.2323
  565MOL0     H76252   2.200  12.250  12.818  1.4344  1.0952 -0.2354
  565MOL0     H76253   1.957  12.428  12.777  0.2950 -0.1119 -0.2410
  565MOL0     H76254   1.941  12.252  12.790  2.1030 -1.0170 -0.7146
  565MOL0     H76255   1.905  11.736  12.058 -0.1216 -0.8257  0.4293
  565MOL0     H76256   1.904  11.516  11.953 -0.9122  2.4019 -2.4607
  565MOL0     H76257   2.317  11.267  11.527  0.8308 -1.7191 -0.3093
  565MOL0     H76258   2.274  11.054  11.430  1.8924 -0.1397  1.1452
  565MOL0     H76259   1.640  10.766  10.404 -1.8222 -3.7414 -0.2761
  565MOL0     H76260   1.588  11.027  10.447  0.0636 -0.7364 -2.0289
  565MOL0     H76261   1.068  11.237  10.537 -0.6368 -0.6681  1.8127
  565MOL0     H76262   0.974  11.422  10.595  0.3541 -3.2873 -4.3030
  565MOL0     H76263   0.927  11.617  10.820  0.1245  0.1873 -0.2939
  565MOL0     H76264   0.900  11.654  10.652  3.2717 -2.2560 -1.5705
  565MOL0     H76265   0.994  11.888  10.717 -0.3643  0.7817  1.8969
  565MOL0     H76266   0.988  11.829  10.887  1.4027  2.9213  0.2135
  565MOL0     H76267   0.784  11.965  10.828  1.7328  2.7575 -4.0292
  565MOL0     H76268   0.757  11.801  10.882  1.6793 -3.2100 -0.9374
  565MOL0     H76269   0.774  11.894  10.596 -0.7381  1.6141  1.1438
  565MOL0     H76270   0.705  11.741  10.657 -3.1739  0.1065  1.7334
  565MOL0     H76271   0.407  12.051  10.705  0.8211 -0.2479  1.3129
  565MOL0     H76272   1.339  11.597  10.754 -1.4292  0.5179  2.7928
  565MOL0     H76273   1.500  11.302  10.795  1.6702 -0.5815  0.3434
  565MOL0     H76274   1.549  11.338  10.630 -1.2369 -2.6897  0.6719
  565MOL0     H76275   1.521  11.474  10.752 -1.6290  1.0674 -1.7625
  566MOL0     O76276   8.751   8.464   6.066  0.1580 -0.2208  0.4609
  566MOL0     C76277   8.814   8.377   5.992  0.7294 -0.0089 -0.3252
  566MOL0     O76278   8.773   8.338   5.862  0.1207  0.2495  0.0338
  566MOL0     C76279   8.649   8.381   5.817 -0.0305  0.0045  0.2598
  566MOL0     C76280   8.539   8.300   5.826 -0.4575 -0.0936  0.4953
  566MOL0     C76281   8.416   8.361   5.792 -1.2140  0.4897  0.1300
  566MOL0     C76282   8.410   8.484   5.725  0.5207 -0.2239  0.2420
  566MOL0     O76283   8.281   8.535   5.692  0.6289 -0.0417  0.3236
  566MOL0     C76284   8.276   8.654   5.624  0.5558 -0.6425 -0.3151
  566MOL0     C76285   8.129   8.689   5.590  0.2599  0.4464 -0.5140
  566MOL0     C76286   8.068   8.604   5.473 -0.4733  0.7269 -0.2816
  566MOL0     C76287   7.939   8.673   5.433  0.3575  0.0720  0.2165
  566MOL0     C76288   7.824   8.665   5.540 -0.9264 -0.7598  0.4723
  566MOL0     C76289   7.692   8.672   5.473 -0.2085 -0.3774 -0.2145
  566MOL0     C76290   7.583   8.633   5.575 -0.5268 -0.0672 -0.2018
  566MOL0     C76291   7.462   8.668   5.491  0.1405  0.1221 -0.1036
  566MOL0     N76292   7.336   8.650   5.568 -0.0698  0.1207 -0.2412
  566MOL0     C76293   7.301   8.707   5.687  0.6796 -0.3139  0.4484
  566MOL0     C76294   7.192   8.640   5.730  0.3894 -0.4415 -1.2283
  566MOL0     C76295   7.106   8.637   5.852  0.1822 -0.5204 -0.1458
  566MOL0     C76296   6.983   8.731   5.861  0.5615 -0.3676  0.3714
  566MOL0     C76297   6.873   8.717   5.753 -0.3085 -0.2660  0.4087
  566MOL0     C76298   6.769   8.621   5.793 -0.1842  0.2018 -0.1083
  566MOL0     O76299   6.707   8.553   5.679 -0.6616  0.0361 -0.7286
  566MOL0     C76300   6.579   8.537   5.679 -0.5502  0.1083  0.2849
  566MOL0     C76301   6.505   8.576   5.567 -0.9632 -0.0597  0.1657
  566MOL0     C76302   6.367   8.553   5.558 -0.3633 -0.0775 -0.0197
  566MOL0     C76303   6.300   8.490   5.665 -0.1095 -0.3709  0.9509
  566MOL0     C76304   6.157   8.455   5.667 -0.1620  0.6343  0.5750
  566MOL0     O76305   6.089   8.515   5.562 -0.2740  0.0356  0.5636
  566MOL0     C76306   5.950   8.502   5.556 -0.5072 -0.2971  0.0097
  566MOL0     C76307   5.904   8.460   5.427 -0.1348  0.6234 -0.4845
  566MOL0     C76308   5.766   8.450   5.408 -0.3364 -0.5566  0.4256
  566MOL0     C76309   5.669   8.472   5.507 -1.7093 -0.0205 -0.0656
  566MOL0     O76310   5.536   8.478   5.475 -0.2754  0.7283 -0.9590
  566MOL0     C76311   5.450   8.395   5.552 -0.4747  0.0926  0.2589
  566MOL0     C76312   5.313   8.374   5.487 -0.4759 -0.7130  0.7352
  566MOL0     C76313   5.201   8.313   5.574  0.1374 -0.2226  0.7490
  566MOL0     C76314   5.066   8.369   5.547 -1.0448 -0.1491  0.6752
  566MOL0     C76315   5.035   8.350   5.396 -0.8064 -0.9933  0.5111
  566MOL0     C76316   4.885   8.375   5.363  0.6907 -0.4325 -0.0672
  566MOL0     C76317   4.851   8.330   5.214  0.1668  0.1394 -0.3008
  566MOL0     C76318   4.905   8.421   5.107 -1.0049 -0.6739 -0.9218
  566MOL0    Cl76319   4.885   8.357   4.940 -0.0510  0.1076  0.3934
  566MOL0     C76320   5.721   8.521   5.628 -0.8243 -0.1410 -0.4558
  566MOL0     C76321   5.857   8.545   5.651  0.4250 -0.1034  0.7430
  566MOL0     O76322   6.106   8.394   5.761 -0.2447 -0.4846  0.0116
  566MOL0     C76323   6.381   8.448   5.776 -0.2939  0.4642 -0.5598
  566MOL0     C76324   6.521   8.472   5.782  0.1452  1.0220 -0.3994
  566MOL0     N76325   7.176   8.546   5.637 -0.7849 -0.7123  0.5472
  566MOL0     N76326   7.258   8.544   5.542 -0.8215 -0.0635  0.2702
  566MOL0     C76327   8.526   8.565   5.724 -0.0487 -0.4728 -0.1993
  566MOL0     C76328   8.648   8.516   5.772 -1.0831  0.2714 -0.6996
  566MOL0     C76329   8.935   8.319   6.045  0.4776 -0.6799  0.3576
  566MOL0     C76330   9.036   8.413   6.065  0.6996  0.2180  0.4380
  566MOL0     C76331   9.148   8.380   6.133 -0.5698  0.2891  0.6519
  566MOL0     C76332   9.176   8.247   6.167 -0.9901 -0.4719 -0.6081
  566MOL0     O76333   9.305   8.227   6.221  0.7720  0.5039  0.4445
  566MOL0     C76334   9.337   8.098   6.269  0.1263  0.1857 -0.0003
  566MOL0     C76335   9.485   8.099   6.327  0.3207  1.0162  0.2691
  566MOL0     C76336   9.533   7.951   6.349 -0.5928  0.1626  0.3243
  566MOL0     C76337   9.663   7.963   6.430 -0.3347  0.0144  0.8495
  566MOL0     C76338   9.784   8.014   6.374 -0.6723 -0.1897 -0.3711
  566MOL0     C76339   9.879   8.081   6.323  0.4149  0.1040 -0.9582
  566MOL0     C76340   9.080   8.153   6.142  0.5563  0.1922  0.4550
  566MOL0     C76341   8.957   8.183   6.084 -0.4075 -0.6651 -0.1665
  566MOL0     C76342   8.855   8.077   6.062 -0.4342 -0.8459  0.4798
  566MOL0     H76343   8.552   8.201   5.870 -0.0055  1.3571  3.9317
  566MOL0     H76344   8.328   8.298   5.799  0.5957 -2.2708 -0.3837
  566MOL0     H76345   8.326   8.725   5.691 -0.3092 -1.4324  1.2480
  566MOL0     H76346   8.335   8.651   5.532  1.8971 -2.2052  0.5267
  566MOL0     H76347   8.124   8.794   5.558  1.7694 -0.1953 -3.1893
  566MOL0     H76348   8.063   8.672   5.676  0.9337  0.7918  0.0828
  566MOL0     H76349   8.061   8.499   5.502  1.0926  0.0773 -2.0367
  566MOL0     H76350   8.131   8.604   5.384 -2.0005  0.8893 -1.4141
  566MOL0     H76351   7.948   8.781   5.418  0.2090 -0.1431 -1.6205
  566MOL0     H76352   7.907   8.641   5.334 -2.3092  1.4416  0.5402
  566MOL0     H76353   7.840   8.575   5.601  0.6490 -0.1315  1.0454
  566MOL0     H76354   7.826   8.745   5.615  1.5066  0.3084 -0.6109
  566MOL0     H76355   7.671   8.778   5.455  2.2071  0.6780  2.3811
  566MOL0     H76356   7.696   8.614   5.380 -0.4305 -1.6721  0.5618
  566MOL0     H76357   7.586   8.693   5.666  1.6202  1.3197 -1.1308
  566MOL0     H76358   7.583   8.528   5.607 -1.7750 -0.4914 -1.4644
  566MOL0     H76359   7.466   8.776   5.473  3.7192  0.4156  1.7061
  566MOL0     H76360   7.474   8.626   5.391  0.8677 -0.0767  0.0629
  566MOL0     H76361   7.349   8.788   5.741 -0.7584  2.5155 -2.1403
  566MOL0     H76362   7.068   8.534   5.852 -0.0969 -0.4208 -0.4894
  566MOL0     H76363   7.175   8.659   5.935  1.9517 -1.9696 -1.1610
  566MOL0     H76364   6.938   8.710   5.958 -0.1295 -1.1183 -0.0960
  566MOL0     H76365   7.011   8.837   5.859 -0.9972  0.0622  0.0637
  566MOL0     H76366   6.919   8.707   5.654 -0.1361  2.8077  0.0861
  566MOL0     H76367   6.808   8.803   5.735 -0.1858 -0.1809  0.3680
  566MOL0     H76368   6.690   8.687   5.831  0.9544  3.9452 -3.5529
  566MOL0     H76369   6.808   8.562   5.876 -0.4194 -0.0469 -0.1732
  566MOL0     H76370   6.550   8.635   5.489 -0.5290  1.1190  1.2774
  566MOL0     H76371   6.303   8.589   5.479  1.0863  0.7756 -0.8602
  566MOL0     H76372   5.972   8.439   5.345 -2.9064 -2.2065 -2.3097
  566MOL0     H76373   5.736   8.442   5.304  2.4383  0.0490 -0.5114
  566MOL0     H76374   5.498   8.298   5.565  1.3743  0.9562  0.1585
  566MOL0     H76375   5.442   8.453   5.645  2.6799 -0.6568  1.1240
  566MOL0     H76376   5.285   8.469   5.439 -4.4465 -2.8336 -1.6611
  566MOL0     H76377   5.334   8.309   5.402  2.3892  1.6175 -0.5279
  566MOL0     H76378   5.194   8.208   5.545 -0.0603  0.9088 -4.1091
  566MOL0     H76379   5.217   8.330   5.681 -0.6130 -2.5057  1.2755
  566MOL0     H76380   5.065   8.474   5.579  0.5163  0.8354 -2.1447
  566MOL0     H76381   4.987   8.311   5.595 -3.1761  1.4390 -0.7161
  566MOL0     H76382   5.057   8.246   5.373 -1.1908 -1.3411  1.6594
  566MOL0     H76383   5.101   8.412   5.334 -1.7438  1.0284  1.4432
  566MOL0     H76384   4.825   8.323   5.438  1.0356  1.9577  1.9483
  566MOL0     H76385   4.858   8.480   5.373  0.4042 -0.5079 -0.0348
  566MOL0     H76386   4.743   8.329   5.198  0.4719 -1.5928 -2.8668
  566MOL0     H76387   4.892   8.232   5.191  0.3759 -0.5551  2.6359
  566MOL0     H76388   4.863   8.522   5.112  0.7918  0.3679 -4.0846
  566MOL0     H76389   5.011   8.445   5.126 -1.1267 -1.9401  1.8366
  566MOL0     H76390   5.646   8.543   5.703  0.7370  1.2212  0.7715
  566MOL0     H76391   5.862   8.591   5.749 -2.1984  1.2592  0.3423
  566MOL0     H76392   6.341   8.381   5.851 -0.2981  0.5173 -0.5150
  566MOL0     H76393   6.580   8.436   5.866 -1.6678 -0.1939  0.4134
  566MOL0     H76394   8.527   8.670   5.695  0.4332  0.1059  1.7806
  566MOL0     H76395   8.746   8.562   5.770 -0.1097 -1.5549  1.4497
  566MOL0     H76396   9.014   8.515   6.036 -1.1629 -0.6173 -1.3702
  566MOL0     H76397   9.227   8.454   6.142 -0.6843  0.7296 -1.3629
  566MOL0     H76398   9.337   8.027   6.186  2.1857  2.0026 -1.6979
  566MOL0     H76399   9.263   8.074   6.346  1.4596 -1.8930  0.7089
  566MOL0     H76400   9.491   8.138   6.429  1.8547 -0.6593  0.8638
  566MOL0     H76401   9.547   8.156   6.257  1.2828  0.0847  0.3368
  566MOL0     H76402   9.548   7.897   6.255 -1.0515  0.2924  0.1762
  566MOL0     H76403   9.457   7.893   6.401  0.4114 -2.7549 -1.2460
  566MOL0     H76404   9.647   8.025   6.519 -0.3220  2.4838 -0.7707
  566MOL0     H76405   9.691   7.864   6.467  0.0949 -0.4478 -0.6180
  566MOL0     H76406   9.963   8.138   6.289  1.8515 -0.6963  1.1030
  566MOL0     H76407   9.104   8.047   6.147 -1.6494 -0.3695  0.0301
  566MOL0     H76408   8.759   8.121   6.035 -0.4248 -0.5327  0.9456
  566MOL0     H76409   8.900   8.014   5.985 -2.1035 -2.2270  0.5807
  566MOL0     H76410   8.852   8.025   6.159  2.0127 -0.7212  0.6913
  567MOL0     O76411   2.239   0.550   6.684  0.2121  0.3129  0.1085
  567MOL0     C76412   2.143   0.537   6.607 -0.0377  1.4642  0.1954
  567MOL0     O76413   2.066   0.639   6.539 -0.4981  0.2446  0.2290
  567MOL0     C76414   2.069   0.779   6.561 -0.1239  0.2393  0.6688
  567MOL0     C76415   2.157   0.847   6.646 -1.0303 -0.0281  0.6990
  567MOL0     C76416   2.157   0.986   6.648  0.3721 -0.3917  0.3127
  567MOL0     C76417   2.065   1.057   6.571 -0.8570  0.3128  0.2665
  567MOL0     O76418   2.045   1.194   6.570  0.0494  0.3166  0.2477
  567MOL0     C76419   2.159   1.272   6.594 -0.4320  0.1832  0.2407
  567MOL0     C76420   2.113   1.409   6.588  0.1335  0.1951 -1.3027
  567MOL0     C76421   2.082   1.460   6.446  0.4884  0.2704 -0.3980
  567MOL0     C76422   2.039   1.605   6.445 -0.5368 -0.0442 -0.1730
  567MOL0     C76423   2.031   1.651   6.290 -0.8324 -1.0628  0.6892
  567MOL0     C76424   2.166   1.668   6.212  0.5524 -0.3206 -0.0122
  567MOL0     C76425   2.157   1.710   6.059 -0.0307 -0.5765 -0.9873
  567MOL0     C76426   2.295   1.708   6.009 -0.2381  1.2796  0.4595
  567MOL0     N76427   2.327   1.765   5.879  0.3020  0.4938  0.0118
  567MOL0     C76428   2.231   1.761   5.774  0.2646 -0.8932  0.3506
  567MOL0     C76429   2.295   1.830   5.675  0.6233  0.5667  0.4323
  567MOL0     C76430   2.228   1.872   5.552 -0.7298 -0.1425  0.4209
  567MOL0     C76431   2.088   1.928   5.564 -0.3165 -0.5008 -0.0822
  567MOL0     C76432   2.026   1.974   5.432  0.7169  0.1450  0.0631
  567MOL0     C76433   1.885   2.046   5.482 -0.8908  0.3298 -0.0749
  567MOL0     O76434   1.800   2.031   5.372  0.4704 -0.3448  0.6613
  567MOL0     C76435   1.669   2.049   5.391 -0.3186 -0.5785 -0.5963
  567MOL0     C76436   1.616   2.144   5.483 -0.4893 -0.0750 -0.3749
  567MOL0     C76437   1.486   2.150   5.512 -0.0367  0.2879 -0.3744
  567MOL0     C76438   1.395   2.082   5.427  0.2268  0.5247  0.0155
  567MOL0     C76439   1.244   2.108   5.425  0.1607 -0.4624  0.0782
  567MOL0     O76440   1.196   2.201   5.514 -0.5584 -0.8886 -0.5580
  567MOL0     C76441   1.066   2.240   5.500  0.2930 -0.2951 -0.1843
  567MOL0     C76442   1.045   2.377   5.489  0.0787  0.3737  0.5771
  567MOL0     C76443   0.913   2.427   5.492  0.1400  0.0456  0.4815
  567MOL0     C76444   0.801   2.349   5.475 -0.0686 -0.1884  0.3943
  567MOL0     O76445   0.676   2.403   5.487 -0.4195 -1.0456  0.0664
  567MOL0     C76446   0.587   2.395   5.376  0.4044 -0.3487 -0.8070
  567MOL0     C76447   0.498   2.517   5.397 -0.4502 -0.7314  0.5215
  567MOL0     C76448   0.412   2.551   5.272  0.0920  0.2857 -0.7298
  567MOL0     C76449   0.364   2.696   5.253 -0.5495 -0.6490 -0.3240
  567MOL0     C76450   0.291   2.729   5.120  0.1436  0.3454 -0.0654
  567MOL0     C76451   0.149   2.671   5.104 -0.6899  0.3200 -0.2507
  567MOL0     C76452   0.070   2.697   5.227 -0.4587 -0.2324 -0.1757
  567MOL0     C76453  -0.072   2.652   5.215 -0.4793 -0.5846 -0.3280
  567MOL0    Cl76454  -0.083   2.473   5.227 -0.0523  0.9942  0.2106
  567MOL0     C76455   0.823   2.210   5.488  1.2705 -0.4138  0.5198
  567MOL0     C76456   0.950   2.155   5.486 -0.2987 -0.3736 -1.1210
  567MOL0     O76457   1.174   2.041   5.348 -0.3202 -0.0969  0.4901
  567MOL0     C76458   1.442   1.993   5.327 -0.3378 -0.5692  0.4815
  567MOL0     C76459   1.577   1.976   5.317 -0.1387  0.2051 -0.1767
  567MOL0     N76460   2.418   1.881   5.717 -0.1961  0.2085 -0.4756
  567MOL0     N76461   2.434   1.835   5.840 -0.1805  0.2398 -0.3742
  567MOL0     C76462   1.975   0.982   6.491 -0.4832 -0.3169  0.3248
  567MOL0     C76463   1.979   0.848   6.475 -0.2961  1.1457 -0.7862
  567MOL0     C76464   2.125   0.395   6.551  0.0178  0.5973 -0.3368
  567MOL0     C76465   2.217   0.294   6.589  0.0937 -0.2405 -1.2125
  567MOL0     C76466   2.220   0.161   6.540 -0.6217 -1.1416 -0.1413
  567MOL0     C76467   2.122   0.126   6.445 -0.0220  1.2754 -0.4353
  567MOL0     O76468   2.107  -0.000   6.382 -0.3823 -0.2510  0.2966
  567MOL0     C76469   2.179  -0.110   6.439 -0.2562 -0.6342 -0.4858
  567MOL0     C76470   2.331  -0.096   6.383 -0.1753  1.3847 -0.5448
  567MOL0     C76471   2.404  -0.219   6.421  0.3504 -0.0267  0.6102
  567MOL0     C76472   2.427  -0.235   6.582  0.6269  0.1447  0.2674
  567MOL0     C76473   2.574  -0.223   6.604 -0.1337  0.0862 -0.0423
  567MOL0     C76474   2.695  -0.226   6.623 -0.3855 -0.5720  0.4608
  567MOL0     C76475   2.020   0.213   6.419 -0.5665 -0.7311 -0.0073
  567MOL0     C76476   2.024   0.344   6.465 -0.0940  0.0642 -0.3815
  567MOL0     C76477   1.915   0.417   6.412  0.2143 -0.4178 -0.1666
  567MOL0     H76478   2.224   0.794   6.713  3.0077  1.5902 -1.7337
  567MOL0     H76479   2.215   1.037   6.725  1.2914 -0.9928  0.0315
  567MOL0     H76480   2.225   1.243   6.676  0.6093 -0.4362 -0.7811
  567MOL0     H76481   2.210   1.257   6.498  0.3493  1.5188  0.4162
  567MOL0     H76482   2.195   1.469   6.629 -0.3840  1.5900 -2.2486
  567MOL0     H76483   2.021   1.425   6.645 -1.0451 -1.9433 -2.4864
  567MOL0     H76484   1.995   1.418   6.394  1.3308 -0.7014 -1.0550
  567MOL0     H76485   2.167   1.439   6.380 -1.0783 -1.2893 -2.0494
  567MOL0     H76486   1.940   1.612   6.491  0.5107  1.0745  2.0549
  567MOL0     H76487   2.099   1.670   6.510 -1.4898  0.6298  0.0607
  567MOL0     H76488   1.968   1.584   6.231 -0.3679  0.4064 -1.6007
  567MOL0     H76489   1.998   1.755   6.299  0.6796 -0.5929  1.2030
  567MOL0     H76490   2.210   1.757   6.258 -3.1089  1.5429  0.2108
  567MOL0     H76491   2.223   1.578   6.235 -0.6320 -1.1371 -0.1738
  567MOL0     H76492   2.125   1.814   6.050 -1.3588 -0.9146 -0.4589
  567MOL0     H76493   2.096   1.641   6.000 -1.1680 -0.8523  0.4552
  567MOL0     H76494   2.368   1.758   6.073 -0.3727  4.2784 -1.5497
  567MOL0     H76495   2.323   1.602   6.011  3.0409  2.0519  1.5138
  567MOL0     H76496   2.126   1.735   5.786 -0.0296 -0.3439 -0.9100
  567MOL0     H76497   2.293   1.947   5.505 -0.8603  0.2506  0.8584
  567MOL0     H76498   2.211   1.785   5.488  1.9097 -0.7282  0.4079
  567MOL0     H76499   2.027   1.843   5.596  2.7419 -2.1589  1.8277
  567MOL0     H76500   2.092   2.023   5.617 -0.2219 -2.2713  3.3330
  567MOL0     H76501   2.003   1.903   5.353 -2.5470 -0.4473  1.3792
  567MOL0     H76502   2.099   2.041   5.386 -0.5851  2.8731  1.7176
  567MOL0     H76503   1.916   2.149   5.500  1.2095 -0.6125  2.4465
  567MOL0     H76504   1.837   2.009   5.573 -3.7095 -0.1703 -1.6641
  567MOL0     H76505   1.684   2.197   5.548 -2.2016  0.7180  0.8394
  567MOL0     H76506   1.450   2.232   5.573  0.7948  2.4082 -2.5423
  567MOL0     H76507   1.128   2.447   5.489  0.6326 -0.2690 -0.1921
  567MOL0     H76508   0.894   2.534   5.491  0.6528  0.1475 -1.7290
  567MOL0     H76509   0.644   2.403   5.283  2.1072  0.2689  0.2427
  567MOL0     H76510   0.532   2.301   5.370 -0.7721  0.1686  1.0196
  567MOL0     H76511   0.438   2.511   5.488  0.5244 -0.3674  1.2074
  567MOL0     H76512   0.557   2.605   5.425  2.3091 -3.4347  4.0838
  567MOL0     H76513   0.465   2.542   5.177  0.5200 -1.1634 -0.3695
  567MOL0     H76514   0.333   2.476   5.282  3.0620 -3.2472 -1.8569
  567MOL0     H76515   0.448   2.765   5.256 -1.2261  0.1742  2.4794
  567MOL0     H76516   0.312   2.727   5.344  1.0360  0.8786  0.0995
  567MOL0     H76517   0.350   2.719   5.029  0.7502  1.7175  0.1543
  567MOL0     H76518   0.293   2.839   5.120  0.8215  0.3423 -1.1794
  567MOL0     H76519   0.097   2.718   5.019  0.3205  1.7378 -0.1153
  567MOL0     H76520   0.155   2.563   5.087 -3.4701  0.0372  0.1194
  567MOL0     H76521   0.084   2.798   5.265  2.8041  0.3629 -2.5609
  567MOL0     H76522   0.105   2.636   5.311  1.8774  2.8839  1.2723
  567MOL0     H76523  -0.140   2.692   5.290  0.1061  0.2567 -0.2354
  567MOL0     H76524  -0.114   2.677   5.117  2.3240 -0.7305 -1.6636
  567MOL0     H76525   0.737   2.144   5.491  1.4177 -0.5843  1.0892
  567MOL0     H76526   0.953   2.047   5.481 -1.1909 -0.8267  3.4134
  567MOL0     H76527   1.370   1.950   5.258 -0.5785  0.4674  0.0698
  567MOL0     H76528   1.618   1.899   5.252  1.5375 -0.6712  1.8191
  567MOL0     H76529   1.904   1.039   6.431  1.5708  0.5305 -1.4434
  567MOL0     H76530   1.913   0.799   6.403  0.5557  0.2647 -0.9939
  567MOL0     H76531   2.285   0.316   6.670  0.0788 -1.8453 -0.7321
  567MOL0     H76532   2.309   0.106   6.569 -0.3701 -0.9545 -0.5476
  567MOL0     H76533   2.141  -0.199   6.389 -0.0792  0.6907 -3.1419
  567MOL0     H76534   2.170  -0.115   6.548 -1.5916 -2.6339 -0.6530
  567MOL0     H76535   2.386  -0.014   6.431  0.4046  0.7544 -0.1171
  567MOL0     H76536   2.317  -0.075   6.276 -3.2408 -1.6996 -0.9137
  567MOL0     H76537   2.499  -0.201   6.369 -1.1102  1.4412 -1.7697
  567MOL0     H76538   2.356  -0.310   6.382  1.8233 -1.2660  1.5413
  567MOL0     H76539   2.367  -0.163   6.637  1.8547  2.1807 -0.9432
  567MOL0     H76540   2.392  -0.338   6.593  2.6662 -0.8226 -1.3379
  567MOL0     H76541   2.794  -0.215   6.662 -1.1661 -1.7873  3.0745
  567MOL0     H76542   1.945   0.184   6.346 -1.1740  1.8479 -0.5174
  567MOL0     H76543   1.832   0.357   6.372  1.5110 -2.5357  0.1587
  567MOL0     H76544   1.867   0.463   6.499 -1.6722  1.0316 -1.8462
  567MOL0     H76545   1.942   0.506   6.354 -2.0651  1.7856  1.9402
  568MOL0     O76546  10.237   3.465   0.967 -0.2057  0.3357  0.4553
  568MOL0     C76547  10.272   3.412   1.072 -0.8839 -0.6924  0.4294
  568MOL0     O76548  10.234   3.289   1.114 -0.8709  0.1730  0.3309
  568MOL0     C76549  10.156   3.213   1.035  0.5735 -0.0111  0.3563
  568MOL0     C76550  10.009   3.241   1.026 -0.6601 -0.6285  0.1670
  568MOL0     C76551   9.937   3.166   0.924  0.5117  0.0754 -0.1208
  568MOL0     C76552   9.995   3.064   0.847 -0.3997 -0.1849  0.2476
  568MOL0     O76553   9.944   2.990   0.746  0.8626 -0.0904 -0.1279
  568MOL0     C76554   9.806   2.949   0.719 -0.0914 -0.0229 -0.8081
  568MOL0     C76555   9.779   2.806   0.765 -0.2075  0.0637 -0.0402
  568MOL0     C76556   9.889   2.712   0.714  0.4143 -0.6954 -0.1706
  568MOL0     C76557  10.010   2.695   0.807  0.5204  0.3506 -0.5486
  568MOL0     C76558  10.084   2.570   0.792  0.2903 -0.1901  0.1838
  568MOL0     C76559  10.217   2.557   0.865  0.1783 -0.4521  0.1571
  568MOL0     C76560  10.209   2.593   1.010 -0.6364  0.0611 -0.1478
  568MOL0     C76561  10.256   2.733   1.034 -0.5568 -0.4597  0.7092
  568MOL0     N76562  10.206   2.778   1.166 -0.4083  0.9576  0.4549
  568MOL0     C76563  10.149   2.893   1.204 -0.2971 -0.1947 -0.3497
  568MOL0     C76564  10.167   2.904   1.338  0.2689 -0.4040  0.5991
  568MOL0     C76565  10.141   3.020   1.415  0.4683  0.6724 -0.5438
  568MOL0     C76566   9.994   3.061   1.426  0.7041  0.9278 -0.3570
  568MOL0     C76567   9.967   3.144   1.559 -0.2621  0.2042 -0.6634
  568MOL0     C76568   9.822   3.180   1.571  0.3052  0.4324 -0.1011
  568MOL0     O76569   9.735   3.060   1.573  0.3192 -0.1380 -0.1080
  568MOL0     C76570   9.663   3.019   1.680  0.1169 -0.8880  0.2711
  568MOL0     C76571   9.580   2.918   1.661 -0.4800  0.4243 -0.0861
  568MOL0     C76572   9.494   2.873   1.766 -0.7784  0.0574 -0.6730
  568MOL0     C76573   9.502   2.930   1.896 -0.4402 -0.1283 -0.4297
  568MOL0     C76574   9.425   2.869   2.006  0.0674 -0.0527  0.0108
  568MOL0     O76575   9.326   2.784   1.971 -0.3229 -0.3003 -0.5535
  568MOL0     C76576   9.248   2.744   2.076 -0.7982 -0.7552 -0.2965
  568MOL0     C76577   9.305   2.663   2.178  0.5211  0.7840 -0.2787
  568MOL0     C76578   9.215   2.627   2.288 -0.0880  0.5715  0.5562
  568MOL0     C76579   9.083   2.659   2.295 -0.2744 -0.6629  0.5365
  568MOL0     O76580   8.999   2.629   2.399  0.3522 -0.3270  0.2679
  568MOL0     C76581   9.035   2.546   2.505  0.1260  0.9827  0.3859
  568MOL0     C76582   8.927   2.544   2.612  1.1971 -0.4270 -0.2986
  568MOL0     C76583   8.951   2.451   2.731 -0.3740 -0.0970  0.5553
  568MOL0     C76584   9.083   2.480   2.798 -0.8934  0.4194 -0.2363
  568MOL0     C76585   9.088   2.429   2.946 -0.0186  0.4228 -0.6837
  568MOL0     C76586   9.222   2.485   3.001  0.3481  0.1155 -0.2212
  568MOL0     C76587   9.263   2.431   3.141  0.3272 -0.4668 -0.4310
  568MOL0     C76588   9.405   2.466   3.183 -0.1375 -0.4531 -0.3234
  568MOL0    Cl76589   9.521   2.346   3.103  0.0999  0.3500 -0.0766
  568MOL0     C76590   9.039   2.738   2.183  0.4324 -0.0363 -1.2013
  568MOL0     C76591   9.116   2.773   2.078  0.0417  0.4498  1.1110
  568MOL0     O76592   9.450   2.911   2.118 -0.3379 -0.4048  0.2666
  568MOL0     C76593   9.588   3.027   1.910  0.6034  0.3966 -0.4771
  568MOL0     C76594   9.666   3.081   1.810  0.0942  0.3986  0.0699
  568MOL0     N76595  10.237   2.794   1.384  0.2368  1.0563 -0.0260
  568MOL0     N76596  10.257   2.725   1.282 -0.4474  0.4166  0.0043
  568MOL0     C76597  10.131   3.052   0.861  0.0051  1.0953 -0.1303
  568MOL0     C76598  10.213   3.115   0.955  0.6089 -0.1800  0.2102
  568MOL0     C76599  10.388   3.448   1.147 -0.5029 -0.7468 -0.4192
  568MOL0     C76600  10.475   3.343   1.187  0.2537  0.4668  1.0595
  568MOL0     C76601  10.602   3.377   1.233 -0.2433  0.1452  0.7228
  568MOL0     C76602  10.640   3.510   1.262 -0.4159  0.0857 -0.1698
  568MOL0     O76603  10.758   3.548   1.323 -0.8832 -0.5371 -0.2962
  568MOL0     C76604  10.855   3.439   1.350 -0.0864  0.2084 -0.6139
  568MOL0     C76605  10.990   3.488   1.395 -0.3308 -0.2669  0.4514
  568MOL0     C76606  11.096   3.391   1.367 -0.3966 -0.2050  0.5412
  568MOL0     C76607  11.162   3.328   1.484  0.0408 -0.6806 -0.0864
  568MOL0     C76608  11.235   3.210   1.444 -1.3062  0.4036  0.2884
  568MOL0     C76609  11.291   3.110   1.392 -0.6441 -0.0591  0.1920
  568MOL0     C76610  10.562   3.615   1.215  0.8695 -0.1128 -0.5896
  568MOL0     C76611  10.436   3.584   1.153  0.5550 -0.3873 -0.2322
  568MOL0     C76612  10.357   3.707   1.094  0.3453  0.8518  1.1824
  568MOL0     H76613   9.956   3.319   1.080  0.1313 -1.5912  2.5015
  568MOL0     H76614   9.830   3.171   0.905  0.5161 -1.3460 -0.6783
  568MOL0     H76615   9.745   3.024   0.771  0.2560  0.0711 -0.5338
  568MOL0     H76616   9.788   2.953   0.611 -1.4042 -3.9504 -0.8772
  568MOL0     H76617   9.681   2.771   0.731 -0.2758  0.7445 -0.5629
  568MOL0     H76618   9.784   2.808   0.874  0.6513 -1.3023 -0.0283
  568MOL0     H76619   9.933   2.750   0.621  3.2607 -0.1127  1.3070
  568MOL0     H76620   9.831   2.623   0.690 -2.3651  1.0766 -0.5422
  568MOL0     H76621  10.069   2.787   0.794  0.7856  0.3784  0.6638
  568MOL0     H76622   9.969   2.694   0.908 -1.1277 -3.4277 -1.1017
  568MOL0     H76623  10.022   2.481   0.807  0.2942 -0.6272 -2.0190
  568MOL0     H76624  10.115   2.546   0.689 -1.4927 -2.3443  0.0968
  568MOL0     H76625  10.253   2.454   0.857 -1.9459 -1.2753  0.7447
  568MOL0     H76626  10.288   2.618   0.808  1.4026 -1.9549 -0.0138
  568MOL0     H76627  10.275   2.530   1.070 -0.9544  0.3473  0.5126
  568MOL0     H76628  10.114   2.581   1.061 -0.2468  1.4780  0.9686
  568MOL0     H76629  10.365   2.742   1.027 -0.7712  0.8127 -2.4818
  568MOL0     H76630  10.220   2.807   0.963  1.9486  1.4645  1.3033
  568MOL0     H76631  10.096   2.966   1.144 -2.3050 -0.0385  1.4707
  568MOL0     H76632  10.174   2.997   1.517  3.4225 -0.3114 -1.6392
  568MOL0     H76633  10.199   3.104   1.376 -1.5048  2.2855 -0.1744
  568MOL0     H76634   9.964   3.118   1.337 -0.9212  0.9700  0.1918
  568MOL0     H76635   9.937   2.970   1.443  0.8731  0.8900  0.0194
  568MOL0     H76636  10.032   3.231   1.552 -0.3760  0.3904  0.4690
  568MOL0     H76637   9.998   3.085   1.645 -1.9661 -0.1562 -0.2519
  568MOL0     H76638   9.799   3.243   1.484 -1.9066 -0.5089 -0.2741
  568MOL0     H76639   9.796   3.250   1.651 -1.1421  2.2251 -2.0045
  568MOL0     H76640   9.561   2.886   1.559 -3.1166  1.9850 -0.1845
  568MOL0     H76641   9.429   2.786   1.756  2.4261 -2.4910 -0.9581
  568MOL0     H76642   9.405   2.622   2.181  1.0188  1.7277  4.8539
  568MOL0     H76643   9.271   2.570   2.362 -0.8853 -0.6258  0.2736
  568MOL0     H76644   9.062   2.444   2.475  1.8484  1.5330 -0.0361
  568MOL0     H76645   9.125   2.586   2.552 -0.8799  1.3941  2.0246
  568MOL0     H76646   8.918   2.647   2.650  2.5450  0.3515 -1.9501
  568MOL0     H76647   8.831   2.518   2.566  0.5513 -0.2146  0.8655
  568MOL0     H76648   8.865   2.472   2.795  0.2278  2.0903  0.7444
  568MOL0     H76649   8.938   2.348   2.698  1.3436 -0.5187  1.1139
  568MOL0     H76650   9.087   2.589   2.806 -0.5438  0.3051  1.7466
  568MOL0     H76651   9.171   2.449   2.740 -0.6487 -0.7850  0.7185
  568MOL0     H76652   9.087   2.319   2.950  0.4984  0.4268 -0.3396
  568MOL0     H76653   9.011   2.461   3.016 -3.2465 -1.9965 -2.8335
  568MOL0     H76654   9.308   2.462   2.937  2.4810  3.0182  1.3680
  568MOL0     H76655   9.211   2.594   3.007 -0.7994 -0.0626  3.5278
  568MOL0     H76656   9.258   2.322   3.144 -2.4886 -0.4407 -1.0884
  568MOL0     H76657   9.204   2.475   3.221  1.0364 -1.1690  0.4970
  568MOL0     H76658   9.435   2.568   3.159  0.5929 -0.0911  1.8586
  568MOL0     H76659   9.404   2.452   3.292 -2.0951  0.4381 -0.1808
  568MOL0     H76660   8.934   2.760   2.196  0.2676 -2.3160  3.8306
  568MOL0     H76661   9.068   2.830   1.999 -1.7436  2.5759  3.5361
  568MOL0     H76662   9.592   3.074   2.008  2.7343 -1.4429  0.4191
  568MOL0     H76663   9.733   3.165   1.826 -1.2979  2.2559 -2.9496
  568MOL0     H76664  10.176   2.991   0.783 -0.5813  2.2163 -1.3843
  568MOL0     H76665  10.319   3.092   0.948  0.2312 -2.3495  0.8882
  568MOL0     H76666  10.450   3.238   1.176 -0.8081  0.6178  1.8998
  568MOL0     H76667  10.667   3.293   1.255  1.4739  1.0747 -0.5241
  568MOL0     H76668  10.858   3.378   1.260  0.3384 -0.9718  0.1790
  568MOL0     H76669  10.829   3.380   1.438  1.2666 -1.3153 -1.1852
  568MOL0     H76670  10.982   3.515   1.501  0.2819 -1.6315  0.8562
  568MOL0     H76671  11.009   3.581   1.339 -0.8026 -0.6657 -0.3819
  568MOL0     H76672  11.180   3.433   1.310 -0.0051  0.5248  1.6218
  568MOL0     H76673  11.065   3.304   1.309  0.7805 -0.9614  1.0096
  568MOL0     H76674  11.230   3.396   1.536 -0.6682 -1.0245  1.3386
  568MOL0     H76675  11.088   3.293   1.557  0.3259  1.0505  1.0754
  568MOL0     H76676  11.329   3.014   1.363 -1.1437 -0.5597  1.1565
  568MOL0     H76677  10.596   3.716   1.233  0.7924 -0.2656  0.5188
  568MOL0     H76678  10.259   3.698   1.142  0.7683 -1.3968  1.7694
  568MOL0     H76679  10.406   3.804   1.102 -0.6569  1.3216  1.8489
  568MOL0     H76680  10.343   3.687   0.988  3.3546  2.2825  0.4099
  569MOL0     O76681   3.420   8.719  10.794 -0.2522  0.1000  0.2747
  569MOL0     C76682   3.343   8.772  10.715 -0.3082  0.2356 -0.5597
  569MOL0     O76683   3.213   8.784  10.739  0.6676  0.1257 -0.3488
  569MOL0     C76684   3.164   8.727  10.849  0.9549 -0.4570 -0.0398
  569MOL0     C76685   3.044   8.656  10.831 -0.2435  0.2413  0.1231
  569MOL0     C76686   2.966   8.612  10.937 -0.1512  1.0653  0.3000
  569MOL0     C76687   3.015   8.635  11.069 -0.2702  0.2261  0.4240
  569MOL0     O76688   2.953   8.581  11.174 -0.3804 -0.2208  0.1763
  569MOL0     C76689   2.835   8.643  11.213 -0.6023  0.3691 -0.4894
  569MOL0     C76690   2.749   8.548  11.306  1.0212  0.1213  0.2595
  569MOL0     C76691   2.670   8.444  11.226  0.1911 -0.7970  0.5385
  569MOL0     C76692   2.598   8.364  11.340 -0.4212  0.4277  0.6142
  569MOL0     C76693   2.495   8.258  11.284 -0.1646 -0.0542 -0.3747
  569MOL0     C76694   2.463   8.159  11.389  0.1869 -0.9250  0.7781
  569MOL0     C76695   2.343   8.066  11.373 -0.3975 -0.2637 -0.4376
  569MOL0     C76696   2.286   8.003  11.506 -0.3936  1.0718  0.1621
  569MOL0     N76697   2.378   7.920  11.587 -0.4875  0.1168  0.6469
  569MOL0     C76698   2.457   7.822  11.530 -0.4252  0.8663 -0.2509
  569MOL0     C76699   2.548   7.792  11.625 -0.5456 -0.6417 -0.2654
  569MOL0     C76700   2.659   7.684  11.627  0.2878 -0.0702  1.0624
  569MOL0     C76701   2.775   7.708  11.536  0.3252  0.2484 -0.0695
  569MOL0     C76702   2.856   7.576  11.517 -1.4458  0.6583  0.7369
  569MOL0     C76703   3.004   7.601  11.469 -0.3362  0.5071 -0.2854
  569MOL0     O76704   3.057   7.692  11.564 -0.3355 -0.3041 -0.4009
  569MOL0     C76705   3.179   7.747  11.534 -0.4313  0.3423 -0.0894
  569MOL0     C76706   3.290   7.681  11.474  0.0349  0.4663  0.1394
  569MOL0     C76707   3.413   7.744  11.450 -0.0970 -0.1121  0.7039
  569MOL0     C76708   3.427   7.879  11.493 -0.5219 -0.7124  0.1925
  569MOL0     C76709   3.558   7.940  11.504 -0.1806  0.1121 -0.6153
  569MOL0     O76710   3.565   8.065  11.563 -0.6700  0.3242  0.0705
  569MOL0     C76711   3.681   8.123  11.538  0.2747 -0.2059  0.8831
  569MOL0     C76712   3.813   8.080  11.578  0.7668  0.7897 -0.1432
  569MOL0     C76713   3.931   8.155  11.542  0.6513  0.2429 -0.6744
  569MOL0     C76714   3.921   8.276  11.478  0.2354 -0.2295 -0.6348
  569MOL0     O76715   4.039   8.348  11.467  0.4477  0.2158  0.0740
  569MOL0     C76716   4.058   8.407  11.339  0.1134 -0.4402  1.1299
  569MOL0     C76717   4.046   8.308  11.218  0.0763  0.3436 -0.8182
  569MOL0     C76718   4.029   8.382  11.081  0.7330 -0.1162 -0.1790
  569MOL0     C76719   4.039   8.278  10.970 -0.5973 -0.5147 -0.8632
  569MOL0     C76720   4.001   8.348  10.840  0.6016  0.8052 -0.1035
  569MOL0     C76721   3.866   8.416  10.839  0.1703 -0.1158 -0.2658
  569MOL0     C76722   3.743   8.331  10.895  0.1016  0.1928 -0.3840
  569MOL0     C76723   3.723   8.204  10.807 -0.5237  0.2119 -0.3828
  569MOL0    Cl76724   3.560   8.141  10.856  0.6593  0.0610 -0.0215
  569MOL0     C76725   3.789   8.315  11.445 -0.6449 -0.5870 -0.9268
  569MOL0     C76726   3.672   8.246  11.475 -0.4480 -0.3019  0.8323
  569MOL0     O76727   3.651   7.875  11.459  0.1696 -0.6372  0.2660
  569MOL0     C76728   3.315   7.943  11.545  0.5196  0.7721  1.1298
  569MOL0     C76729   3.196   7.875  11.562 -0.4128  0.1061 -0.2896
  569MOL0     N76730   2.536   7.881  11.735 -0.1953  0.3753  0.3921
  569MOL0     N76731   2.426   7.949  11.716 -0.6161 -0.1704  1.1211
  569MOL0     C76732   3.144   8.692  11.086  0.7731  0.0897 -0.2129
  569MOL0     C76733   3.221   8.739  10.976 -0.1298  0.3927 -0.1919
  569MOL0     C76734   3.387   8.801  10.573  0.0500  0.1035  0.7549
  569MOL0     C76735   3.291   8.833  10.469  0.5985 -0.2067 -0.0021
  569MOL0     C76736   3.339   8.870  10.343 -0.2957 -0.6034 -0.3177
  569MOL0     C76737   3.474   8.888  10.316  0.2044  1.1279  0.8889
  569MOL0     O76738   3.531   8.930  10.198  0.3074  0.3130 -0.1542
  569MOL0     C76739   3.453   8.958  10.081  0.2652  0.6097  0.5825
  569MOL0     C76740   3.546   8.954   9.959  0.4711 -0.3883  0.5490
  569MOL0     C76741   3.477   8.928   9.824 -0.5047 -0.0525 -0.0375
  569MOL0     C76742   3.367   9.035   9.790  0.4335  0.1693 -0.6722
  569MOL0     C76743   3.261   9.013   9.684 -0.5958  0.3481 -0.6566
  569MOL0     C76744   3.177   8.993   9.597  0.0600 -0.0674  0.2731
  569MOL0     C76745   3.566   8.861  10.425 -0.1346 -0.1968 -0.2010
  569MOL0     C76746   3.525   8.830  10.556  0.2172 -0.2496 -0.2938
  569MOL0     C76747   3.636   8.837  10.657  0.3162  0.9324  0.4224
  569MOL0     H76748   2.999   8.648  10.733  2.6390  1.9490 -1.5041
  569MOL0     H76749   2.869   8.566  10.925  0.1046  0.6477 -0.2022
  569MOL0     H76750   2.858   8.737  11.265 -2.7184  0.5885  0.1710
  569MOL0     H76751   2.764   8.668  11.134 -1.6224  1.2894  0.6568
  569MOL0     H76752   2.696   8.632  11.352  1.9739  0.0608  1.5101
  569MOL0     H76753   2.808   8.495  11.381 -1.6495 -3.2894  0.1588
  569MOL0     H76754   2.735   8.377  11.168  1.2266 -0.9983  1.8817
  569MOL0     H76755   2.593   8.482  11.158  0.3396 -3.0735 -1.0501
  569MOL0     H76756   2.676   8.312  11.397 -2.4057  0.2665  3.3839
  569MOL0     H76757   2.556   8.430  11.416  0.6600  0.4349  1.2307
  569MOL0     H76758   2.404   8.307  11.248  0.8498  0.6731 -2.0912
  569MOL0     H76759   2.531   8.209  11.193  0.2397  1.3081 -0.9742
  569MOL0     H76760   2.558   8.105  11.395  2.5216  1.9890 -3.9675
  569MOL0     H76761   2.443   8.214  11.482 -1.8561 -2.0521  1.0719
  569MOL0     H76762   2.350   7.985  11.300 -2.1524 -3.0579  2.2325
  569MOL0     H76763   2.266   8.136  11.340 -1.9196 -1.5748  0.2204
  569MOL0     H76764   2.239   8.083  11.563  0.2999  3.0739 -1.9217
  569MOL0     H76765   2.210   7.932  11.474 -1.3525  1.7691  0.8567
  569MOL0     H76766   2.462   7.782  11.429  0.4244  1.2023 -0.3523
  569MOL0     H76767   2.701   7.674  11.727 -2.1092  1.2629  2.3060
  569MOL0     H76768   2.612   7.587  11.607  0.0383  0.5215 -1.6441
  569MOL0     H76769   2.757   7.754  11.438  0.7694  2.3974  0.8112
  569MOL0     H76770   2.827   7.789  11.587  0.6994 -0.2548  0.3519
  569MOL0     H76771   2.806   7.513  11.443  0.7711 -1.9054  1.2757
  569MOL0     H76772   2.867   7.520  11.610 -0.0507 -0.2155  0.0724
  569MOL0     H76773   3.012   7.636  11.366 -1.8188  0.1035 -0.5634
  569MOL0     H76774   3.058   7.507  11.475 -0.6367  0.3469 -0.0414
  569MOL0     H76775   3.273   7.575  11.457  0.8310  0.4540 -0.6451
  569MOL0     H76776   3.501   7.687  11.421 -0.4662 -0.4861  0.3171
  569MOL0     H76777   3.812   7.980  11.621 -0.6363  1.9006  2.5669
  569MOL0     H76778   4.023   8.113  11.579 -1.0742 -1.7949  1.6564
  569MOL0     H76779   3.984   8.480  11.306  0.9105  0.4133  1.1856
  569MOL0     H76780   4.148   8.469  11.337  0.3363 -0.7134 -1.6631
  569MOL0     H76781   4.134   8.243  11.215 -0.1874 -0.0993  0.4577
  569MOL0     H76782   3.959   8.245  11.238 -0.8153  1.8208  0.1673
  569MOL0     H76783   3.931   8.432  11.080 -0.5245 -2.3984 -2.1506
  569MOL0     H76784   4.097   8.467  11.070  1.5755 -0.5675  1.3393
  569MOL0     H76785   3.968   8.198  10.994 -0.9790  0.0024 -0.2417
  569MOL0     H76786   4.141   8.243  10.954  0.7666  2.0368  1.5666
  569MOL0     H76787   4.002   8.256  10.781 -3.2427  0.9232 -0.6235
  569MOL0     H76788   4.082   8.416  10.812  1.1734 -0.1033 -0.7212
  569MOL0     H76789   3.872   8.503  10.905  1.3534 -2.1000  2.3834
  569MOL0     H76790   3.831   8.450  10.741  0.1765  0.0607 -0.2086
  569MOL0     H76791   3.662   8.402  10.875  2.0488  1.7384 -3.5660
  569MOL0     H76792   3.763   8.309  11.000  0.7343 -1.4355 -0.8125
  569MOL0     H76793   3.710   8.226  10.701 -2.1831 -1.3315 -0.5539
  569MOL0     H76794   3.796   8.125  10.827  1.6686  1.8921 -1.3369
  569MOL0     H76795   3.768   8.411  11.398  2.2116  0.5978  0.0051
  569MOL0     H76796   3.568   8.260  11.446  0.2323 -0.8250 -2.1713
  569MOL0     H76797   3.326   8.046  11.579 -5.0775  1.7722  0.8701
  569MOL0     H76798   3.110   7.939  11.578  0.4101  0.7624  1.8930
  569MOL0     H76799   3.167   8.705  11.192  0.6198  0.6614 -0.2468
  569MOL0     H76800   3.317   8.780  11.006 -1.4034  2.8470  0.7906
  569MOL0     H76801   3.184   8.833  10.484 -0.0112 -2.1570 -3.4821
  569MOL0     H76802   3.273   8.911  10.267 -0.3417  0.6006  0.3443
  569MOL0     H76803   3.426   9.063  10.091  1.4534  0.9376  0.4128
  569MOL0     H76804   3.365   8.892  10.082  1.9304 -1.9120 -1.9603
  569MOL0     H76805   3.617   8.872   9.976 -1.0426 -1.3091  2.9874
  569MOL0     H76806   3.607   9.045   9.956  1.6165 -1.1483 -2.3682
  569MOL0     H76807   3.432   8.829   9.834  0.4121 -0.5574 -0.8452
  569MOL0     H76808   3.545   8.935   9.738  0.3940 -0.9436  0.5902
  569MOL0     H76809   3.321   9.056   9.887  2.9568  1.4673  0.3373
  569MOL0     H76810   3.425   9.120   9.753  3.7912 -1.3787  0.6145
  569MOL0     H76811   3.107   8.967   9.521  0.8989 -1.4104 -0.0547
  569MOL0     H76812   3.670   8.886  10.405 -0.0184  0.5017  1.1507
  569MOL0     H76813   3.684   8.739  10.662  5.1930  2.9728  5.4807
  569MOL0     H76814   3.713   8.904  10.620 -0.5187  2.1299  0.7855
  569MOL0     H76815   3.600   8.874  10.754 -0.4184 -0.7064  0.8149
  570MOL0     O76816   0.933   1.026   9.565 -0.2632 -0.2585  0.1323
  570MOL0     C76817   0.909   0.961   9.669  0.0848 -0.7605 -0.8060
  570MOL0     O76818   0.801   0.988   9.755  0.3011  0.6044 -0.3808
  570MOL0     C76819   0.708   1.087   9.719 -0.0693  0.0847 -0.8087
  570MOL0     C76820   0.576   1.050   9.699  0.4827  0.3666 -0.1840
  570MOL0     C76821   0.471   1.145   9.692  0.8090  0.1200 -1.8397
  570MOL0     C76822   0.506   1.283   9.704 -0.7915  0.2570 -0.1484
  570MOL0     O76823   0.404   1.374   9.680  0.1193 -0.2975 -0.3394
  570MOL0     C76824   0.435   1.513   9.692 -1.2601 -0.3314 -0.1223
  570MOL0     C76825   0.303   1.583   9.667  0.0561 -0.9565 -0.1501
  570MOL0     C76826   0.234   1.613   9.802 -0.0845 -0.0700  0.6983
  570MOL0     C76827   0.083   1.657   9.767  0.3413  0.4748 -0.4593
  570MOL0     C76828  -0.010   1.683   9.892 -0.8279  0.4271 -0.9313
  570MOL0     C76829  -0.007   1.820   9.949  0.1556 -0.2257 -0.6642
  570MOL0     C76830   0.124   1.863  10.013 -0.4658 -0.5586  0.3294
  570MOL0     C76831   0.088   1.981  10.114 -0.0179  0.0778 -0.1180
  570MOL0     N76832   0.205   2.031  10.179 -0.9991 -0.5696  0.3118
  570MOL0     C76833   0.287   1.939  10.242  0.2731 -0.4270 -0.0220
  570MOL0     C76834   0.377   2.015  10.318 -0.4971  0.2997 -0.0966
  570MOL0     C76835   0.472   1.980  10.430  1.0385 -0.0863 -0.4432
  570MOL0     C76836   0.438   2.032  10.569  0.2264  0.0837 -0.6931
  570MOL0     C76837   0.338   1.951  10.645 -0.5386  0.8908  0.0258
  570MOL0     C76838   0.193   1.995  10.604  0.2060 -1.3553 -0.0139
  570MOL0     O76839   0.101   1.983  10.714  0.5674  0.6633 -1.0701
  570MOL0     C76840  -0.031   2.008  10.696 -0.5063 -0.0091  0.0521
  570MOL0     C76841  -0.091   2.068  10.581  0.0239 -0.9693 -0.4559
  570MOL0     C76842  -0.233   2.084  10.584 -0.4277  0.0925  0.0923
  570MOL0     C76843  -0.319   2.057  10.693 -0.3160  0.0873 -0.8490
  570MOL0     C76844  -0.465   2.084  10.696  0.3477  0.7411 -0.2968
  570MOL0     O76845  -0.523   2.102  10.818  0.5653 -1.1681 -0.1356
  570MOL0     C76846  -0.646   2.173  10.833  0.0739  0.5794 -1.0182
  570MOL0     C76847  -0.695   2.268  10.744 -0.2130  0.2603  0.7694
  570MOL0     C76848  -0.802   2.350  10.774 -0.2864  0.0665  0.3519
  570MOL0     C76849  -0.866   2.348  10.897 -1.1303  0.6239 -0.5803
  570MOL0     O76850  -0.964   2.430  10.942  0.0701  1.3640  0.4783
  570MOL0     C76851  -1.000   2.545  10.857 -0.7379  0.0839 -1.3400
  570MOL0     C76852  -1.123   2.613  10.914  0.0801  0.2338  0.5743
  570MOL0     C76853  -1.092   2.692  11.041 -1.9809  0.2351  0.4141
  570MOL0     C76854  -1.217   2.768  11.088  0.7846 -0.0357 -0.0631
  570MOL0     C76855  -1.203   2.845  11.213 -0.0988 -0.3243  0.8378
  570MOL0     C76856  -1.344   2.896  11.248 -0.4159 -0.0575 -0.0611
  570MOL0     C76857  -1.352   2.948  11.391 -0.1670 -0.3494 -0.8268
  570MOL0     C76858  -1.391   3.095  11.380  0.0543  0.4135  0.1084
  570MOL0    Cl76859  -1.248   3.163  11.274 -0.1622  0.2054  0.3911
  570MOL0     C76860  -0.812   2.255  10.987  0.3522 -0.6481 -0.4361
  570MOL0     C76861  -0.703   2.167  10.961 -0.1660 -0.1528 -0.4845
  570MOL0     O76862  -0.521   2.088  10.585 -0.1700  0.0035 -0.1951
  570MOL0     C76863  -0.252   1.998  10.801  0.0161 -1.7075 -0.7120
  570MOL0     C76864  -0.116   1.970  10.797 -0.7320  0.1769  0.5464
  570MOL0     N76865   0.341   2.146  10.298  0.4253  0.6346  0.4630
  570MOL0     N76866   0.237   2.153  10.221  0.2893 -0.4068 -0.8444
  570MOL0     C76867   0.636   1.316   9.734 -0.0081  0.1580  0.1099
  570MOL0     C76868   0.730   1.225   9.743 -0.0161  0.5420  0.0578
  570MOL0     C76869   0.995   0.842   9.692 -1.2186  0.1264 -0.2900
  570MOL0     C76870   1.123   0.837   9.624  0.2835 -0.0054  0.0098
  570MOL0     C76871   1.197   0.715   9.627  0.5617  0.3288 -0.5309
  570MOL0     C76872   1.150   0.601   9.682 -0.1971  0.4376  0.1887
  570MOL0     O76873   1.230   0.482   9.686  0.5819 -0.4665  0.5445
  570MOL0     C76874   1.199   0.371   9.780 -0.1835 -0.1535  0.8227
  570MOL0     C76875   1.309   0.266   9.760 -0.5629 -0.2243  0.1897
  570MOL0     C76876   1.346   0.187   9.889  0.8600  0.0819 -0.0467
  570MOL0     C76877   1.410   0.062   9.850  0.4897 -0.2572 -1.0296
  570MOL0     C76878   1.543   0.097   9.789  0.2035 -0.4650  0.6455
  570MOL0     C76879   1.640   0.154   9.743 -0.9384  0.9948 -1.0230
  570MOL0     C76880   1.023   0.610   9.741  0.0640 -1.1817 -0.1892
  570MOL0     C76881   0.948   0.721   9.736  0.2858 -0.7266  0.1313
  570MOL0     C76882   0.807   0.701   9.776  0.2809 -0.3101  0.8132
  570MOL0     H76883   0.551   0.945   9.694  0.6755  0.2055  1.5938
  570MOL0     H76884   0.371   1.117   9.661 -0.3314  2.6673 -0.7920
  570MOL0     H76885   0.471   1.549   9.788 -4.0966  0.1812  0.8376
  570MOL0     H76886   0.510   1.540   9.617 -1.2648 -0.2821 -0.1095
  570MOL0     H76887   0.234   1.527   9.603  1.7034 -1.2638 -1.7529
  570MOL0     H76888   0.327   1.677   9.615 -0.0037  0.5677  2.3985
  570MOL0     H76889   0.283   1.688   9.864  1.5327 -0.7795  0.3261
  570MOL0     H76890   0.232   1.524   9.866 -0.8820  0.3397  1.2655
  570MOL0     H76891   0.073   1.744   9.701  2.1456  0.6816 -0.5058
  570MOL0     H76892   0.049   1.561   9.726 -1.3230 -0.2338  2.3408
  570MOL0     H76893  -0.115   1.657   9.873 -0.7065 -0.0806 -0.9110
  570MOL0     H76894   0.022   1.612   9.969  1.0293 -0.0974 -2.1345
  570MOL0     H76895  -0.039   1.890   9.872 -0.9692  0.3031  0.2582
  570MOL0     H76896  -0.079   1.823  10.031  0.6089  1.7875 -0.3003
  570MOL0     H76897   0.203   1.884   9.941  0.0886 -1.3917  0.6799
  570MOL0     H76898   0.165   1.782  10.075  0.6285  0.6228  1.2024
  570MOL0     H76899   0.038   2.062  10.061 -0.9632  0.1919  0.9103
  570MOL0     H76900   0.009   1.954  10.185 -1.1881  1.9206 -0.6601
  570MOL0     H76901   0.272   1.831  10.234 -1.7997 -0.1716 -0.1516
  570MOL0     H76902   0.484   1.871  10.428 -0.7310 -0.2901 -1.9851
  570MOL0     H76903   0.568   2.024  10.400  1.4652  1.9392  3.3219
  570MOL0     H76904   0.519   2.038  10.642 -1.3406 -0.2200  1.1217
  570MOL0     H76905   0.403   2.135  10.558  0.3661  0.0826 -1.2084
  570MOL0     H76906   0.353   1.957  10.753 -2.4741 -0.9406  0.4568
  570MOL0     H76907   0.344   1.846  10.614  1.0195 -0.2712  3.7246
  570MOL0     H76908   0.149   1.946  10.516 -1.3265 -1.0992  0.5716
  570MOL0     H76909   0.201   2.097  10.567 -1.6358 -0.7267  1.1643
  570MOL0     H76910  -0.030   2.108  10.500 -3.2075  1.2293 -2.0081
  570MOL0     H76911  -0.283   2.110  10.491 -1.9442 -4.3440 -0.5825
  570MOL0     H76912  -0.649   2.275  10.645 -0.3075 -0.1614  0.6918
  570MOL0     H76913  -0.832   2.415  10.693 -1.3224 -1.8558 -0.9048
  570MOL0     H76914  -0.915   2.614  10.856  1.5119 -2.4974 -1.7649
  570MOL0     H76915  -1.016   2.523  10.751 -0.7981  3.7477 -2.2190
  570MOL0     H76916  -1.158   2.688  10.842  0.9788  0.8961  0.8120
  570MOL0     H76917  -1.202   2.540  10.937 -1.2406  1.6306  0.6527
  570MOL0     H76918  -1.072   2.626  11.127 -1.5047  3.4405  2.9847
  570MOL0     H76919  -1.012   2.758  11.006 -1.8539 -0.3399 -0.4019
  570MOL0     H76920  -1.298   2.697  11.109 -1.1239  2.2293  0.6008
  570MOL0     H76921  -1.253   2.836  11.011  0.6417  2.6268  2.2161
  570MOL0     H76922  -1.138   2.931  11.192 -3.1580  2.6119  2.2995
  570MOL0     H76923  -1.165   2.771  11.284  0.1726 -2.2540 -1.1960
  570MOL0     H76924  -1.369   2.975  11.177 -4.4729 -0.5392  0.5659
  570MOL0     H76925  -1.424   2.821  11.243 -1.1362  0.5321  1.6415
  570MOL0     H76926  -1.255   2.933  11.440  1.7175  2.0504 -3.4500
  570MOL0     H76927  -1.435   2.899  11.443 -1.5433  0.0196 -2.5822
  570MOL0     H76928  -1.489   3.096  11.331  0.7885 -1.1795 -1.5240
  570MOL0     H76929  -1.400   3.154  11.472 -3.6805  1.8500 -0.9779
  570MOL0     H76930  -0.860   2.259  11.084  0.8831  1.4722 -0.2274
  570MOL0     H76931  -0.674   2.088  11.029 -0.1729  0.0661 -0.2288
  570MOL0     H76932  -0.312   1.973  10.888 -1.3871 -1.0534 -1.4635
  570MOL0     H76933  -0.061   1.924  10.878  2.9539 -1.9089 -2.8027
  570MOL0     H76934   0.679   1.416   9.733  0.8888 -0.2196 -0.3586
  570MOL0     H76935   0.833   1.258   9.753  0.3226 -0.7386  0.9932
  570MOL0     H76936   1.172   0.924   9.582 -1.3634 -0.3796 -2.9474
  570MOL0     H76937   1.294   0.713   9.578  0.7154  0.7179 -0.2389
  570MOL0     H76938   1.101   0.329   9.755 -0.5399  1.1241 -0.0073
  570MOL0     H76939   1.204   0.409   9.882  0.3668 -0.5671  0.9550
  570MOL0     H76940   1.402   0.318   9.734 -1.8967  2.5462  0.5640
  570MOL0     H76941   1.291   0.201   9.674 -1.0548  0.5823 -0.3319
  570MOL0     H76942   1.262   0.174   9.958 -0.0443 -0.4774 -1.2205
  570MOL0     H76943   1.427   0.232   9.947  0.1568 -0.4869  1.4215
  570MOL0     H76944   1.434  -0.011   9.928  2.5462 -0.0640 -1.4315
  570MOL0     H76945   1.350   0.009   9.775 -1.6401  1.2570 -0.4986
  570MOL0     H76946   1.717   0.215   9.700 -0.0546  2.2678  2.0531
  570MOL0     H76947   0.973   0.528   9.791 -3.2823  1.3572  1.0025
  570MOL0     H76948   0.744   0.746   9.699 -1.6304 -2.9684  0.6545
  570MOL0     H76949   0.777   0.596   9.788 -4.6300  1.1532  4.5070
  570MOL0     H76950   0.798   0.755   9.871 -0.6619  0.2349  0.4239
  571MOL0     O76951   7.605  10.338  11.283  0.1913  0.1082 -0.0535
  571MOL0     C76952   7.510  10.329  11.363 -0.1450  0.8048  0.9300
  571MOL0     O76953   7.524  10.347  11.496  0.2228  0.4162 -0.6639
  571MOL0     C76954   7.636  10.414  11.539  0.0522 -0.0200 -0.7962
  571MOL0     C76955   7.636  10.554  11.548  0.1204 -0.0496 -0.1180
  571MOL0     C76956   7.744  10.626  11.605 -0.5229 -0.0839 -0.4016
  571MOL0     C76957   7.863  10.553  11.648  0.5972  0.4643 -0.5201
  571MOL0     O76958   7.967  10.612  11.715  0.7409  0.8993 -0.0627
  571MOL0     C76959   8.025  10.731  11.664  0.2134 -0.5285  0.0643
  571MOL0     C76960   8.070  10.734  11.519 -0.2326 -0.0725  0.4685
  571MOL0     C76961   8.161  10.608  11.488 -0.7017 -0.0484  0.8354
  571MOL0     C76962   8.240  10.633  11.353  0.3111  0.2168 -0.5525
  571MOL0     C76963   8.304  10.506  11.298 -0.2965  0.1640 -0.1409
  571MOL0     C76964   8.365  10.529  11.159  0.4268 -0.2505  0.2393
  571MOL0     C76965   8.420  10.401  11.084  0.6487 -0.1820 -0.0782
  571MOL0     C76966   8.561  10.361  11.128  0.6278 -0.6356 -0.0860
  571MOL0     N76967   8.667  10.463  11.095 -0.0539  0.4059  0.0724
  571MOL0     C76968   8.765  10.503  11.179 -0.0159 -0.4295 -0.7031
  571MOL0     C76969   8.868  10.547  11.098  0.0418  1.1174  0.0662
  571MOL0     C76970   9.008  10.565  11.148 -0.1901 -0.3662  0.7817
  571MOL0     C76971   9.104  10.483  11.071 -0.2032 -0.0267  0.7656
  571MOL0     C76972   9.208  10.430  11.167 -0.0265 -0.1862  0.1106
  571MOL0     C76973   9.310  10.353  11.079  0.1412  0.5499 -0.4227
  571MOL0     O76974   9.386  10.264  11.161  0.2335 -0.0700 -0.4481
  571MOL0     C76975   9.481  10.188  11.098 -0.7224 -0.0195  0.3791
  571MOL0     C76976   9.608  10.201  11.144  0.2147  0.3650  0.4689
  571MOL0     C76977   9.715  10.135  11.095 -0.3733  0.4520  0.0464
  571MOL0     C76978   9.691  10.043  10.997  0.6494  0.4874 -0.3085
  571MOL0     C76979   9.804   9.966  10.942  0.4719  1.0661 -0.1254
  571MOL0     O76980   9.775   9.831  10.921 -1.0160 -0.2368 -0.3480
  571MOL0     C76981   9.873   9.758  10.867  0.0976 -0.4948  0.0740
  571MOL0     C76982   9.876   9.743  10.725  0.9279 -0.0636 -0.2312
  571MOL0     C76983   9.989   9.690  10.669 -0.0163  0.6749 -0.2835
  571MOL0     C76984  10.098   9.655  10.757  0.6303 -0.2879  0.7773
  571MOL0     O76985  10.204   9.595  10.707  0.0887  0.4506 -0.4671
  571MOL0     C76986  10.205   9.512  10.587  0.0289 -0.7783 -0.3105
  571MOL0     C76987  10.329   9.431  10.581 -0.0304  0.2914 -0.4701
  571MOL0     C76988  10.348   9.335  10.704  0.1721  0.1686 -0.4091
  571MOL0     C76989  10.475   9.253  10.680  0.6506 -0.0035 -1.2554
  571MOL0     C76990  10.487   9.144  10.794  0.4376 -0.0366  1.0993
  571MOL0     C76991  10.590   9.045  10.741  0.8547  0.3920 -0.2085
  571MOL0     C76992  10.628   8.944  10.857  0.1976  0.1860 -0.7986
  571MOL0     C76993  10.748   8.857  10.833  0.7354 -0.4539  0.3780
  571MOL0    Cl76994  10.898   8.961  10.841 -0.0961 -0.0518 -0.0049
  571MOL0     C76995  10.101   9.673  10.896  0.5559 -0.6443  0.6553
  571MOL0     C76996   9.988   9.736  10.948 -0.9659  0.2574 -1.0203
  571MOL0     O76997   9.908  10.020  10.910  0.0588 -0.7437 -0.1036
  571MOL0     C76998   9.558  10.019  10.953  0.8373 -0.1661  0.3003
  571MOL0     C76999   9.457  10.099  10.994  0.0332 -0.1363 -0.8467
  571MOL0     N77000   8.821  10.550  10.972 -0.1705 -0.3908  0.5603
  571MOL0     N77001   8.703  10.504  10.972 -0.5507  0.9918 -0.1458
  571MOL0     C77002   7.859  10.410  11.627  0.5154 -0.2947 -1.0572
  571MOL0     C77003   7.751  10.337  11.577  0.6558  0.3476  0.5165
  571MOL0     C77004   7.390  10.275  11.303  0.3913 -0.2797  0.2691
  571MOL0     C77005   7.399  10.149  11.241  0.1390  0.4008  0.5091
  571MOL0     C77006   7.290  10.078  11.194  0.3252 -0.2489 -0.4112
  571MOL0     C77007   7.168  10.116  11.235 -0.5409 -0.1931  0.6389
  571MOL0     O77008   7.053  10.056  11.212  1.3701 -0.0577  0.0823
  571MOL0     C77009   7.049   9.933  11.135 -0.7534 -0.1382  0.0651
  571MOL0     C77010   6.904   9.882  11.132 -0.7736 -0.2597 -0.5626
  571MOL0     C77011   6.814   9.918  11.013  0.1118  0.7495 -0.5522
  571MOL0     C77012   6.674   9.839  11.016 -0.4211  0.0047  0.1762
  571MOL0     C77013   6.561   9.889  10.931 -1.1121 -0.4262  0.1722
  571MOL0     C77014   6.491   9.944  10.850 -0.2945 -1.3047 -0.2786
  571MOL0     C77015   7.153  10.232  11.301  0.4427 -0.7282 -0.1021
  571MOL0     C77016   7.258  10.317  11.326  0.0533  0.0962  0.8506
  571MOL0     C77017   7.236  10.455  11.381 -0.3043 -0.0915 -0.3780
  571MOL0     H77018   7.559  10.621  11.512  0.3203  1.5863  2.2891
  571MOL0     H77019   7.743  10.733  11.619  0.0214 -0.2144  0.7265
  571MOL0     H77020   7.945  10.804  11.678  0.6760 -0.2950  1.6411
  571MOL0     H77021   8.111  10.752  11.728 -0.4174 -1.3040  1.2105
  571MOL0     H77022   8.121  10.830  11.510  1.8123 -1.1270  0.0660
  571MOL0     H77023   7.986  10.734  11.449 -0.1273 -0.2738  0.3401
  571MOL0     H77024   8.092  10.524  11.483 -1.5651  0.4654  2.8536
  571MOL0     H77025   8.227  10.591  11.573 -0.2265 -0.4451  0.3879
  571MOL0     H77026   8.174  10.680  11.279  2.6691  2.5120 -1.3514
  571MOL0     H77027   8.308  10.715  11.376 -0.5788  0.8824 -0.2004
  571MOL0     H77028   8.371  10.454  11.368 -2.3671  0.3851  2.1561
  571MOL0     H77029   8.218  10.439  11.283 -1.2569  0.9573  1.4773
  571MOL0     H77030   8.277  10.555  11.099 -0.1492 -2.6642 -0.0710
  571MOL0     H77031   8.434  10.613  11.151  0.7518 -0.3551  1.7385
  571MOL0     H77032   8.423  10.440  10.982  2.7258  0.9596  0.3675
  571MOL0     H77033   8.343  10.323  11.095 -1.0474  1.7130  3.1145
  571MOL0     H77034   8.568  10.336  11.234 -0.3991 -1.4155 -0.1934
  571MOL0     H77035   8.592  10.270  11.075  0.8400 -0.8078  0.3301
  571MOL0     H77036   8.771  10.485  11.286 -0.9695  3.1014  0.0881
  571MOL0     H77037   9.028  10.671  11.131 -4.1364  0.7996  2.1970
  571MOL0     H77038   9.023  10.550  11.256 -0.0024  1.6378  1.0806
  571MOL0     H77039   9.056  10.397  11.025  0.7398 -0.2824  0.2304
  571MOL0     H77040   9.142  10.541  10.986  0.6532 -0.8099  0.5999
  571MOL0     H77041   9.160  10.371  11.246 -0.9704  1.8088  1.1118
  571MOL0     H77042   9.250  10.515  11.221 -1.4402 -0.2857  1.4472
  571MOL0     H77043   9.374  10.431  11.038 -1.5059  1.1611 -1.9569
  571MOL0     H77044   9.256  10.304  10.998  0.3463 -1.0423  0.3576
  571MOL0     H77045   9.624  10.277  11.220 -2.7588 -0.2913  1.9110
  571MOL0     H77046   9.814  10.158  11.132 -0.3776  0.0947  0.2868
  571MOL0     H77047   9.794   9.755  10.655 -0.1702 -0.9196  0.8462
  571MOL0     H77048   9.998   9.685  10.561 -1.0176  1.3975 -0.4188
  571MOL0     H77049  10.118   9.446  10.582 -1.1009  0.6232  0.2262
  571MOL0     H77050  10.193   9.590  10.511 -0.4977  2.5051  2.8275
  571MOL0     H77051  10.325   9.365  10.493  2.9031  0.2576 -0.6781
  571MOL0     H77052  10.416   9.497  10.575 -0.4586  1.1076  1.4182
  571MOL0     H77053  10.361   9.404  10.789 -1.6339 -2.0892  1.8629
  571MOL0     H77054  10.260   9.273  10.722  0.4814 -1.2509 -3.2586
  571MOL0     H77055  10.569   9.309  10.693  1.5970 -1.3948 -1.8634
  571MOL0     H77056  10.466   9.207  10.581  2.4525 -0.7132 -1.1279
  571MOL0     H77057  10.387   9.101  10.796 -0.2464  0.8125 -3.6444
  571MOL0     H77058  10.513   9.196  10.887 -2.6612 -0.1865  2.1469
  571MOL0     H77059  10.543   8.991  10.658  0.1780 -2.7645  2.0550
  571MOL0     H77060  10.680   9.097  10.707  0.5632 -0.0877 -1.7953
  571MOL0     H77061  10.547   8.875  10.883 -0.8611  1.7797  0.2988
  571MOL0     H77062  10.654   9.004  10.945  1.3909  0.2341 -1.1641
  571MOL0     H77063  10.746   8.764  10.891 -3.6134  0.5582  2.2394
  571MOL0     H77064  10.734   8.823  10.730 -0.3005 -1.9818  0.9763
  571MOL0     H77065  10.188   9.661  10.960  0.9782  0.5814  0.3396
  571MOL0     H77066   9.980   9.752  11.055  0.5926 -0.9136 -0.6980
  571MOL0     H77067   9.536   9.949  10.872  1.6135  0.6559 -0.6490
  571MOL0     H77068   9.353  10.076  10.972  0.7370 -5.3246 -0.1749
  571MOL0     H77069   7.951  10.362  11.659 -0.4920 -1.2174  0.6210
  571MOL0     H77070   7.757  10.233  11.549  1.3024  0.3360  0.6839
  571MOL0     H77071   7.498  10.105  11.231  0.1477  0.3542  0.7958
  571MOL0     H77072   7.299   9.978  11.153 -2.5311 -0.9588  0.3990
  571MOL0     H77073   7.116   9.853  11.166  0.7026 -0.3971 -3.3145
  571MOL0     H77074   7.085   9.969  11.038 -0.8028 -1.7788 -0.5946
  571MOL0     H77075   6.854   9.912  11.224  1.2717  1.7275 -0.0160
  571MOL0     H77076   6.920   9.773  11.132 -0.8287 -0.2782 -1.3115
  571MOL0     H77077   6.853   9.885  10.916 -3.2034 -0.6712 -1.5352
  571MOL0     H77078   6.789  10.024  11.016 -1.3192  0.6990 -4.7501
  571MOL0     H77079   6.692   9.733  10.996 -1.9311 -0.2004 -0.2828
  571MOL0     H77080   6.634   9.837  11.118  2.7922 -8.4558  2.1106
  571MOL0     H77081   6.445   9.984  10.761  1.8324  0.5255 -0.6134
  571MOL0     H77082   7.054  10.264  11.332  1.9935  5.9861 -0.6089
  571MOL0     H77083   7.295  10.525  11.321 -0.2166 -0.7022 -1.0231
  571MOL0     H77084   7.129  10.472  11.369  0.2635  6.4339  0.1121
  571MOL0     H77085   7.244  10.463  11.490  1.7454  5.1937 -0.6119
  572MOL0     O77086   6.572   2.799   3.298  0.0370 -0.3325  0.2036
  572MOL0     C77087   6.548   2.893   3.377  0.9200 -0.2263  0.1584
  572MOL0     O77088   6.460   2.989   3.351  0.3545  0.7440 -1.1331
  572MOL0     C77089   6.380   2.988   3.244  0.2378 -0.7563  0.5125
  572MOL0     C77090   6.268   2.905   3.219 -0.9445 -0.3007 -0.3053
  572MOL0     C77091   6.181   2.918   3.108  0.3674 -0.8414  0.2135
  572MOL0     C77092   6.205   3.018   3.010 -0.2368 -0.1130  0.3039
  572MOL0     O77093   6.123   3.034   2.906 -0.1946  0.1944  1.0762
  572MOL0     C77094   6.173   3.063   2.773 -0.2838  0.3436  0.5206
  572MOL0     C77095   6.245   2.936   2.726  0.2531  0.4671  0.4206
  572MOL0     C77096   6.301   2.958   2.588  0.5943 -0.4663 -0.1506
  572MOL0     C77097   6.457   2.976   2.592  0.0460  0.3603 -0.2864
  572MOL0     C77098   6.524   3.038   2.468  0.8307  0.7930  0.0978
  572MOL0     C77099   6.667   2.989   2.437  0.8063  0.8175  0.4685
  572MOL0     C77100   6.731   3.051   2.308  0.8264 -0.0601 -0.2066
  572MOL0     C77101   6.796   3.187   2.343 -0.6082 -0.6853  0.0952
  572MOL0     N77102   6.858   3.244   2.221 -0.1252 -0.1487 -0.5193
  572MOL0     C77103   6.857   3.189   2.096 -0.5761 -0.6046 -0.0819
  572MOL0     C77104   6.927   3.284   2.023 -0.4305 -1.1846 -0.0989
  572MOL0     C77105   6.932   3.268   1.872  0.0012 -0.1718 -0.1033
  572MOL0     C77106   6.799   3.270   1.807 -0.0754  0.0451 -0.1779
  572MOL0     C77107   6.725   3.397   1.826  0.3016  1.0872  0.3538
  572MOL0     C77108   6.575   3.378   1.794  0.2684 -0.6847  0.0857
  572MOL0     O77109   6.559   3.366   1.658  1.0168  0.4716  0.7049
  572MOL0     C77110   6.430   3.360   1.612  0.9366 -0.2909  0.4759
  572MOL0     C77111   6.411   3.348   1.473 -0.2876  0.3682 -1.0298
  572MOL0     C77112   6.280   3.346   1.419  0.8301  0.0375 -0.7995
  572MOL0     C77113   6.168   3.355   1.502 -0.0595  0.1638  0.3557
  572MOL0     C77114   6.028   3.353   1.433 -0.7156  0.5762  0.0023
  572MOL0     O77115   6.021   3.278   1.319 -0.1113 -0.3864 -0.0618
  572MOL0     C77116   5.914   3.292   1.237 -0.0424  0.4679  0.2894
  572MOL0     C77117   5.873   3.183   1.153 -0.3450 -0.2986 -0.6430
  572MOL0     C77118   5.759   3.201   1.074 -0.1525  0.2113  0.3372
  572MOL0     C77119   5.688   3.318   1.064 -0.2785 -0.2362 -0.3394
  572MOL0     O77120   5.583   3.336   0.979  0.3066  0.8265 -0.2489
  572MOL0     C77121   5.535   3.237   0.896  0.2157 -0.4454  0.4203
  572MOL0     C77122   5.409   3.258   0.824  0.8395 -0.2801 -0.5204
  572MOL0     C77123   5.386   3.400   0.771 -0.3558  0.5124  0.1786
  572MOL0     C77124   5.346   3.502   0.875  0.0049  0.5852 -0.8142
  572MOL0     C77125   5.333   3.646   0.817 -0.3645 -0.1700  0.7391
  572MOL0     C77126   5.201   3.674   0.744 -0.0993 -0.6405  0.0796
  572MOL0     C77127   5.219   3.795   0.653  0.3494  1.3659  0.4453
  572MOL0     C77128   5.104   3.810   0.548  0.5928  0.3980  0.4034
  572MOL0    Cl77129   5.133   3.968   0.480  0.3967  0.3959  0.2340
  572MOL0     C77130   5.727   3.431   1.149 -0.0841  0.8593  0.5142
  572MOL0     C77131   5.836   3.414   1.235 -0.8313 -0.0402 -0.2709
  572MOL0     O77132   5.939   3.391   1.502  0.2063 -0.4724  0.3369
  572MOL0     C77133   6.185   3.370   1.643 -0.2638 -0.2356  0.4878
  572MOL0     C77134   6.312   3.365   1.695 -0.3603  0.0364 -0.3294
  572MOL0     N77135   6.959   3.395   2.096 -1.2359  0.2038  0.4340
  572MOL0     N77136   6.917   3.370   2.223  0.0850  0.8299 -0.1464
  572MOL0     C77137   6.328   3.090   3.027 -0.1231 -0.6236  0.6879
  572MOL0     C77138   6.407   3.077   3.145  0.5955  0.7916 -0.9665
  572MOL0     C77139   6.611   2.893   3.511  0.9865 -1.5860 -0.1180
  572MOL0     C77140   6.674   2.772   3.563 -0.3152 -0.4694  1.2890
  572MOL0     C77141   6.739   2.767   3.687 -0.4626  1.5110  0.9676
  572MOL0     C77142   6.752   2.880   3.758 -0.6764 -1.0294  0.4248
  572MOL0     O77143   6.823   2.868   3.874 -0.2734  0.1124  0.0010
  572MOL0     C77144   6.899   2.984   3.914 -0.4026  0.2777  0.4214
  572MOL0     C77145   7.013   2.929   4.004  0.2863 -0.9138 -0.5825
  572MOL0     C77146   7.085   3.056   4.058  0.2242 -0.6270 -0.5256
  572MOL0     C77147   7.211   3.017   4.126 -0.3959 -0.0421 -0.1053
  572MOL0     C77148   7.210   2.888   4.197  0.4893 -0.7982  0.5766
  572MOL0     C77149   7.214   2.776   4.243 -1.0281 -0.6373  0.1488
  572MOL0     C77150   6.703   3.002   3.699 -0.6349 -0.5471  0.4680
  572MOL0     C77151   6.626   3.013   3.584  0.4699  0.2476  0.0253
  572MOL0     C77152   6.614   3.160   3.533 -0.4666 -0.2939  0.0922
  572MOL0     H77153   6.266   2.829   3.296 -3.1471  0.5183  0.5359
  572MOL0     H77154   6.094   2.855   3.092  1.1669 -1.2814 -3.0406
  572MOL0     H77155   6.086   3.089   2.711 -0.3698 -0.7916  0.1428
  572MOL0     H77156   6.243   3.145   2.758  1.1341 -0.9355 -0.1992
  572MOL0     H77157   6.175   2.852   2.718  1.8498 -0.7456 -2.0318
  572MOL0     H77158   6.331   2.907   2.787  2.6034  3.5392 -1.1815
  572MOL0     H77159   6.251   3.045   2.545 -1.3549  0.0150  2.8109
  572MOL0     H77160   6.288   2.865   2.530 -3.8086 -0.1677  0.0005
  572MOL0     H77161   6.472   3.049   2.672  0.9146  0.7678 -0.8164
  572MOL0     H77162   6.514   2.888   2.624  0.6051 -0.7435 -3.9339
  572MOL0     H77163   6.466   3.009   2.381 -0.7570  2.2989  0.6033
  572MOL0     H77164   6.529   3.147   2.473  0.6107  0.9963 -2.7315
  572MOL0     H77165   6.735   3.017   2.518 -2.2363  1.7731  2.8946
  572MOL0     H77166   6.657   2.880   2.439  0.0997  0.8803  2.0313
  572MOL0     H77167   6.660   3.057   2.225 -2.0028  2.4543  2.1803
  572MOL0     H77168   6.797   2.969   2.278 -0.2759  0.0148 -3.1712
  572MOL0     H77169   6.719   3.255   2.381  0.0067  0.8098 -1.2213
  572MOL0     H77170   6.868   3.183   2.425  0.1447  0.0613 -0.5058
  572MOL0     H77171   6.810   3.097   2.063  0.0478 -0.3312 -1.8938
  572MOL0     H77172   6.991   3.349   1.830 -1.4381  1.9948  1.8185
  572MOL0     H77173   6.992   3.180   1.846  3.3204  2.5928 -2.6788
  572MOL0     H77174   6.817   3.266   1.699  2.9687 -0.2068  0.2586
  572MOL0     H77175   6.746   3.180   1.840 -0.4565  0.9204  1.7244
  572MOL0     H77176   6.773   3.467   1.758 -0.2383  1.4409  0.3272
  572MOL0     H77177   6.749   3.433   1.926  0.1470 -2.4642  1.8367
  572MOL0     H77178   6.529   3.465   1.842  2.0821  0.7404 -0.6517
  572MOL0     H77179   6.528   3.295   1.847 -1.8679 -0.2671 -0.9960
  572MOL0     H77180   6.489   3.353   1.398  0.1585  2.3357 -0.5033
  572MOL0     H77181   6.266   3.335   1.312  1.5512  1.7214 -1.1031
  572MOL0     H77182   5.939   3.096   1.158  1.0771  0.4934 -3.4421
  572MOL0     H77183   5.733   3.118   1.010 -0.4140  1.4433 -1.2319
  572MOL0     H77184   5.616   3.224   0.824 -0.4767  0.5657 -0.5772
  572MOL0     H77185   5.517   3.150   0.960 -0.4645  0.0940  0.9826
  572MOL0     H77186   5.395   3.183   0.746 -1.2672  0.8332 -1.2674
  572MOL0     H77187   5.332   3.234   0.897  0.9521  0.9166  0.0030
  572MOL0     H77188   5.484   3.420   0.727  1.6451 -0.5277  3.8181
  572MOL0     H77189   5.304   3.396   0.698 -2.3668  0.5514  2.3207
  572MOL0     H77190   5.417   3.508   0.958 -0.0121  1.8476 -0.8627
  572MOL0     H77191   5.253   3.464   0.917  1.4235 -4.4670 -1.6279
  572MOL0     H77192   5.420   3.662   0.754  2.4773 -1.2785  4.0920
  572MOL0     H77193   5.343   3.721   0.896 -1.3246 -0.0497  0.7649
  572MOL0     H77194   5.179   3.590   0.678 -1.1102 -1.4230  1.3724
  572MOL0     H77195   5.118   3.688   0.815 -1.8388  1.1184 -2.1355
  572MOL0     H77196   5.302   3.781   0.583 -1.6010  3.3366 -2.5227
  572MOL0     H77197   5.229   3.889   0.709 -1.4976  1.1191  1.2626
  572MOL0     H77198   5.108   3.730   0.473  2.1823 -2.5211  3.3138
  572MOL0     H77199   5.004   3.804   0.592  0.4285 -1.6128 -0.1509
  572MOL0     H77200   5.673   3.523   1.130  3.8962  2.6905 -3.6541
  572MOL0     H77201   5.861   3.501   1.296 -1.6366  0.5140 -0.6983
  572MOL0     H77202   6.107   3.380   1.718 -0.1093  1.2108  0.4893
  572MOL0     H77203   6.324   3.383   1.801  0.6205  0.5826 -0.5180
  572MOL0     H77204   6.361   3.159   2.949  3.0134  0.5262  2.7944
  572MOL0     H77205   6.497   3.135   3.165  0.9956  0.0619 -0.5845
  572MOL0     H77206   6.664   2.679   3.507  2.4263 -2.5178  3.8730
  572MOL0     H77207   6.784   2.676   3.726  3.8541  3.1168  0.2329
  572MOL0     H77208   6.838   3.057   3.968  0.9945  2.1343 -0.3972
  572MOL0     H77209   6.930   3.032   3.820 -0.4465 -1.0098 -0.2815
  572MOL0     H77210   7.081   2.870   3.942  0.6857  0.7582 -1.7935
  572MOL0     H77211   6.978   2.869   4.089  2.4941  0.5272  1.4902
  572MOL0     H77212   7.021   3.114   4.125 -0.7512 -0.2824 -1.7024
  572MOL0     H77213   7.098   3.122   3.971 -0.7262 -0.3450 -0.4619
  572MOL0     H77214   7.294   3.005   4.055  0.9912 -2.1038  1.7014
  572MOL0     H77215   7.243   3.101   4.189 -0.2996  0.0658 -0.2948
  572MOL0     H77216   7.225   2.680   4.288 -1.3901 -0.3213  0.9474
  572MOL0     H77217   6.725   3.094   3.751  1.3684 -0.0906 -1.0590
  572MOL0     H77218   6.604   3.229   3.617  4.2246  1.6442 -0.6677
  572MOL0     H77219   6.705   3.188   3.481 -0.2237 -0.8342  0.2159
  572MOL0     H77220   6.534   3.177   3.460 -1.8013 -1.0714  1.3167
  573MOL0     O77221   8.822   4.481  10.514  0.8039  0.2621 -0.1861
  573MOL0     C77222   8.737   4.389  10.491 -0.2066 -0.1849  0.1670
  573MOL0     O77223   8.741   4.304  10.387  0.1209 -0.6102  0.4950
  573MOL0     C77224   8.833   4.306  10.289  0.0504 -0.0303 -0.1839
  573MOL0     C77225   8.973   4.303  10.309  0.8525  0.1063  0.1459
  573MOL0     C77226   9.051   4.349  10.201 -0.3192 -0.4555 -0.7816
  573MOL0     C77227   8.997   4.382  10.072  0.0166  0.3568  0.0300
  573MOL0     O77228   9.080   4.425   9.966 -0.4514  0.9424 -0.0420
  573MOL0     C77229   9.026   4.440   9.832  0.3304  0.8392  0.9309
  573MOL0     C77230   9.145   4.481   9.742  0.3524  0.6917  0.7460
  573MOL0     C77231   9.234   4.357   9.716  1.3396 -0.9097 -0.6068
  573MOL0     C77232   9.327   4.376   9.592 -0.0448  0.2259  0.4574
  573MOL0     C77233   9.465   4.296   9.608  0.4913  0.1907 -0.0315
  573MOL0     C77234   9.551   4.305   9.479  0.6618  1.1263 -0.6733
  573MOL0     C77235   9.647   4.181   9.476  0.1119 -0.6019  0.1493
  573MOL0     C77236   9.603   4.033   9.470  0.2936 -0.4967 -1.5735
  573MOL0     N77237   9.564   4.000   9.337 -0.1226  0.0629 -0.0733
  573MOL0     C77238   9.651   4.013   9.231  0.8217 -0.0067  0.2363
  573MOL0     C77239   9.573   4.019   9.116 -0.8864 -0.0740  0.3197
  573MOL0     C77240   9.610   4.034   8.971 -0.1774 -0.8326 -0.1949
  573MOL0     C77241   9.705   3.930   8.919  0.0371  0.1986  0.3213
  573MOL0     C77242   9.751   3.970   8.776  0.9490  0.5162  0.0197
  573MOL0     C77243   9.842   3.884   8.694 -0.1438  0.1939  0.2235
  573MOL0     O77244   9.958   3.850   8.772  0.0655 -0.1647 -0.2855
  573MOL0     C77245   9.957   3.736   8.850  0.4543  0.7458  0.6036
  573MOL0     C77246  10.088   3.717   8.903 -0.0044  0.0027 -0.0433
  573MOL0     C77247  10.093   3.621   9.002  0.1191  0.1258  0.1521
  573MOL0     C77248   9.980   3.536   9.039 -1.2085 -0.1372 -0.9401
  573MOL0     C77249  10.001   3.444   9.155 -0.0092 -0.1059 -0.3055
  573MOL0     O77250   9.887   3.361   9.195  0.2603  0.4169  0.6077
  573MOL0     C77251   9.903   3.267   9.302  1.0574 -0.3077  0.0437
  573MOL0     C77252   9.993   3.276   9.403 -0.3313 -0.2771 -0.2705
  573MOL0     C77253  10.025   3.165   9.492 -0.0730 -0.3432 -0.6449
  573MOL0     C77254   9.941   3.051   9.491  0.4617  0.9507 -0.4259
  573MOL0     O77255   9.945   2.948   9.583 -0.6815 -0.1048 -0.4047
  573MOL0     C77256   9.912   2.996   9.716 -0.4327  0.3776  0.0942
  573MOL0     C77257   9.872   2.885   9.809 -0.3774  0.1945  0.7727
  573MOL0     C77258   9.969   2.777   9.835  1.1171  0.4668 -0.7732
  573MOL0     C77259   9.891   2.659   9.896 -0.4733  0.5879 -0.2907
  573MOL0     C77260   9.987   2.547   9.931  0.0725 -0.6363 -0.1261
  573MOL0     C77261   9.912   2.427   9.997  0.1687  0.6649 -0.9882
  573MOL0     C77262  10.012   2.340  10.079  0.3436 -0.8878 -0.3996
  573MOL0     C77263   9.949   2.241  10.191  0.1680  0.0660  0.2346
  573MOL0    Cl77264  10.061   2.196  10.322 -0.0083  0.2354 -0.3195
  573MOL0     C77265   9.852   3.040   9.384  0.5763  0.2102  0.7218
  573MOL0     C77266   9.837   3.151   9.288 -0.1224 -0.0641  0.0211
  573MOL0     O77267  10.107   3.453   9.213  0.4898  0.7337  0.3907
  573MOL0     C77268   9.867   3.549   8.979  0.1403  0.2479  0.0869
  573MOL0     C77269   9.839   3.654   8.890  0.8347  0.8837  0.2073
  573MOL0     N77270   9.444   4.008   9.164 -0.4838  0.1427  0.2397
  573MOL0     N77271   9.436   4.001   9.290 -0.1647 -0.7273 -0.5469
  573MOL0     C77272   8.865   4.390  10.061 -0.3679 -0.4537 -0.4363
  573MOL0     C77273   8.775   4.355  10.169 -0.8173 -0.3794 -0.7457
  573MOL0     C77274   8.619   4.377  10.580  0.3906 -0.0217 -0.3804
  573MOL0     C77275   8.630   4.282  10.684 -0.5373 -0.6549 -0.1106
  573MOL0     C77276   8.516   4.250  10.762  0.6498  0.6814  1.2048
  573MOL0     C77277   8.389   4.300  10.738 -0.8565  0.0367  0.9019
  573MOL0     O77278   8.284   4.296  10.825 -0.3471  0.2957 -0.2166
  573MOL0     C77279   8.304   4.220  10.940  0.0562  0.4737  0.4075
  573MOL0     C77280   8.341   4.309  11.056 -1.3499 -0.0193 -0.4898
  573MOL0     C77281   8.337   4.223  11.194 -0.7124  0.4927  1.1132
  573MOL0     C77282   8.346   4.309  11.316 -0.5474  0.2903  0.0828
  573MOL0     C77283   8.226   4.390  11.319 -0.4777  0.2272 -0.6884
  573MOL0     C77284   8.135   4.469  11.335  0.2922  0.5261 -0.1685
  573MOL0     C77285   8.376   4.389  10.622 -0.4416  0.6428 -0.8695
  573MOL0     C77286   8.492   4.421  10.539  0.4352 -0.1611 -0.8025
  573MOL0     C77287   8.472   4.519  10.424  0.1071 -0.1878  0.2541
  573MOL0     H77288   9.006   4.281  10.410 -0.2101 -2.1674  0.0520
  573MOL0     H77289   9.155   4.379  10.212 -0.2363 -0.9417 -0.1325
  573MOL0     H77290   8.982   4.345   9.802 -2.2770  1.4625  2.4943
  573MOL0     H77291   8.948   4.516   9.825  1.0859  1.5719  0.2657
  573MOL0     H77292   9.208   4.561   9.783 -0.3585  2.2266 -1.0078
  573MOL0     H77293   9.096   4.516   9.651  1.2872 -0.9695 -0.4587
  573MOL0     H77294   9.173   4.266   9.711  1.5411 -1.0690 -0.1840
  573MOL0     H77295   9.299   4.345   9.803 -0.0641 -0.3058  0.5652
  573MOL0     H77296   9.270   4.324   9.515  1.4752 -1.5449  0.4311
  573MOL0     H77297   9.331   4.479   9.558  2.0614  1.1956  3.2160
  573MOL0     H77298   9.503   4.327   9.706 -0.9998 -1.0040  0.9730
  573MOL0     H77299   9.447   4.188   9.615  0.2482  0.1031 -1.6925
  573MOL0     H77300   9.493   4.292   9.388 -1.1740  2.5562  0.2245
  573MOL0     H77301   9.597   4.403   9.495  0.6215  0.9797  0.4210
  573MOL0     H77302   9.696   4.174   9.573  1.3128 -1.0058 -0.4604
  573MOL0     H77303   9.729   4.200   9.406 -1.1030  0.4054 -1.0452
  573MOL0     H77304   9.686   3.969   9.500 -1.6654 -1.2698  2.9927
  573MOL0     H77305   9.526   4.019   9.547 -0.9104  0.5108 -2.5386
  573MOL0     H77306   9.759   4.011   9.239  0.8361 -1.8577  0.1011
  573MOL0     H77307   9.521   4.035   8.908  0.4428  0.2293 -1.1069
  573MOL0     H77308   9.666   4.128   8.970  1.8828 -1.9417  1.7354
  573MOL0     H77309   9.794   3.926   8.982 -0.9319 -1.8230  1.6654
  573MOL0     H77310   9.639   3.843   8.915 -0.3481  0.5226 -0.5494
  573MOL0     H77311   9.800   4.067   8.782 -1.1555  1.8667 -2.6007
  573MOL0     H77312   9.660   3.985   8.717 -0.6677 -1.2039  1.9086
  573MOL0     H77313   9.875   3.932   8.601  0.1080  1.9510  1.1804
  573MOL0     H77314   9.787   3.793   8.668 -1.4798 -0.0176  3.3376
  573MOL0     H77315  10.174   3.770   8.864 -1.2611  0.2802 -2.6055
  573MOL0     H77316  10.186   3.616   9.057  0.9193  0.2483 -1.1377
  573MOL0     H77317  10.056   3.363   9.419 -1.5533  0.3422  1.5113
  573MOL0     H77318  10.102   3.187   9.565  0.3433  2.5429 -1.8206
  573MOL0     H77319   9.998   3.044   9.763  1.1223  0.2189 -2.4142
  573MOL0     H77320   9.830   3.068   9.721 -0.9961 -0.3054  1.0213
  573MOL0     H77321   9.838   2.937   9.900  1.5172  1.7414  0.6777
  573MOL0     H77322   9.784   2.845   9.758  0.8914  0.2088 -1.5640
  573MOL0     H77323  10.017   2.748   9.741  2.5566  0.0772  0.0532
  573MOL0     H77324  10.056   2.798   9.898 -0.5050 -2.1321  2.6474
  573MOL0     H77325   9.811   2.618   9.833  0.8221  0.5710 -2.0086
  573MOL0     H77326   9.846   2.681   9.993 -1.2865 -1.0909 -0.2636
  573MOL0     H77327  10.059   2.587  10.004  1.9591  0.2435 -2.3517
  573MOL0     H77328  10.049   2.524   9.844 -1.8328  1.7563 -2.2832
  573MOL0     H77329   9.846   2.458  10.078  0.4885 -1.2543  0.0647
  573MOL0     H77330   9.869   2.367   9.916  1.2243 -2.0643  0.3295
  573MOL0     H77331  10.068   2.413  10.138  0.0876 -0.9066 -0.1304
  573MOL0     H77332  10.086   2.293  10.014  1.0815  1.9835 -1.7517
  573MOL0     H77333   9.861   2.287  10.236  1.9847  1.4920  2.4975
  573MOL0     H77334   9.930   2.145  10.140 -0.8211  0.1537  0.4175
  573MOL0     H77335   9.787   2.954   9.370  1.9129 -0.6303 -0.5715
  573MOL0     H77336   9.771   3.152   9.202  1.3593 -2.3385 -1.2508
  573MOL0     H77337   9.789   3.484   9.016  1.8524 -1.4672  0.8867
  573MOL0     H77338   9.740   3.668   8.849  0.3875  1.8967  1.5787
  573MOL0     H77339   8.803   4.434   9.984 -2.5631  0.1535  1.5497
  573MOL0     H77340   8.669   4.373  10.158 -0.7234  0.2298 -0.7092
  573MOL0     H77341   8.724   4.231  10.701  0.4431  0.0458 -2.8755
  573MOL0     H77342   8.544   4.185  10.844  0.1050 -2.0053 -0.6160
  573MOL0     H77343   8.374   4.136  10.926  1.1169  1.0661  1.8902
  573MOL0     H77344   8.210   4.167  10.960 -1.3443  3.9332  4.3555
  573MOL0     H77345   8.261   4.384  11.062 -1.8077 -0.4590 -0.9740
  573MOL0     H77346   8.437   4.356  11.035 -0.2452 -2.1401 -0.3619
  573MOL0     H77347   8.421   4.154  11.197 -0.8625  0.3341  2.2561
  573MOL0     H77348   8.244   4.165  11.190 -0.4414  0.0897  0.4965
  573MOL0     H77349   8.349   4.242  11.402 -0.4786 -0.4483 -0.4823
  573MOL0     H77350   8.435   4.372  11.308 -1.3298  1.5854  1.2493
  573MOL0     H77351   8.038   4.510  11.356  1.2419  1.7719  2.0849
  573MOL0     H77352   8.281   4.439  10.615  0.8126  3.8855  2.1742
  573MOL0     H77353   8.567   4.533  10.372 -0.3828 -1.6347 -1.1224
  573MOL0     H77354   8.397   4.478  10.355 -0.8378 -1.2826  1.8674
  573MOL0     H77355   8.440   4.621  10.450  3.6030  1.8081 -2.2716
  574MOL0     O77356   3.902   0.082   5.796  0.3432  0.0966 -0.5802
  574MOL0     C77357   3.827   0.005   5.841  0.3221  1.0959 -0.2045
  574MOL0     O77358   3.682   0.010   5.847  0.1899  0.5767  0.0977
  574MOL0     C77359   3.618   0.110   5.792 -0.0472  0.3124 -0.3189
  574MOL0     C77360   3.498   0.157   5.857 -0.2991 -0.1854 -0.3878
  574MOL0     C77361   3.422   0.261   5.815  0.6018 -0.3857  0.6415
  574MOL0     C77362   3.447   0.317   5.686  0.2628  0.5339 -0.3428
  574MOL0     O77363   3.357   0.410   5.640  0.1027  0.5420  0.9737
  574MOL0     C77364   3.370   0.447   5.500  1.5028 -0.8990  0.1455
  574MOL0     C77365   3.238   0.521   5.459  0.0147 -0.6514  0.5302
  574MOL0     C77366   3.117   0.436   5.488  0.4840 -0.1869  0.7612
  574MOL0     C77367   2.993   0.527   5.513  0.2406 -0.0318  0.5064
  574MOL0     C77368   2.962   0.597   5.384 -0.3292 -0.1039 -0.0145
  574MOL0     C77369   2.835   0.676   5.400 -0.2542 -0.8697 -0.2224
  574MOL0     C77370   2.800   0.751   5.273  0.8190 -0.1114  0.6086
  574MOL0     C77371   2.682   0.842   5.266  0.0188 -0.6323  0.3721
  574MOL0     N77372   2.715   0.968   5.336 -1.2010 -0.1010  0.0005
  574MOL0     C77373   2.693   0.991   5.467  0.1814  0.6523 -0.8865
  574MOL0     C77374   2.729   1.119   5.491  0.8367  0.5498  0.4487
  574MOL0     C77375   2.749   1.177   5.627 -0.5853 -0.5005 -0.7137
  574MOL0     C77376   2.618   1.185   5.704  0.1253  0.1518 -0.4544
  574MOL0     C77377   2.651   1.220   5.852  0.2488  0.4969 -0.7244
  574MOL0     C77378   2.525   1.256   5.939 -0.6861  0.8041 -0.4762
  574MOL0     O77379   2.439   1.366   5.898 -0.5864  0.6517 -0.2840
  574MOL0     C77380   2.305   1.366   5.928  0.9473 -0.3133 -0.8887
  574MOL0     C77381   2.257   1.319   6.045 -0.7205  0.0726  0.3872
  574MOL0     C77382   2.123   1.315   6.073 -0.0447 -0.6596  0.4344
  574MOL0     C77383   2.025   1.359   5.981  0.5887 -0.2249  0.0101
  574MOL0     C77384   1.893   1.359   6.023  1.4891 -1.1251 -0.0874
  574MOL0     O77385   1.804   1.377   5.922 -0.5260 -0.2656  0.4142
  574MOL0     C77386   1.672   1.380   5.937  0.5921 -0.2696  0.2162
  574MOL0     C77387   1.611   1.476   6.029  0.7050 -0.5509  0.3636
  574MOL0     C77388   1.465   1.498   6.025 -0.2774 -0.3575  0.3171
  574MOL0     C77389   1.394   1.408   5.944 -1.3552  0.1644 -0.0230
  574MOL0     O77390   1.260   1.414   5.936  0.0514 -0.0387  0.4227
  574MOL0     C77391   1.196   1.543   5.931 -0.8546 -0.2414  0.1106
  574MOL0     C77392   1.078   1.512   5.843  0.3300  0.3295 -0.2914
  574MOL0     C77393   0.975   1.421   5.918 -0.2449 -0.7538 -0.6420
  574MOL0     C77394   0.836   1.444   5.861  0.3756  0.2330 -0.1580
  574MOL0     C77395   0.733   1.350   5.922 -0.4442 -0.7930 -0.3227
  574MOL0     C77396   0.588   1.375   5.879  0.3381 -0.8755 -0.0590
  574MOL0     C77397   0.560   1.337   5.728 -0.7411  0.1115 -0.3643
  574MOL0     C77398   0.416   1.346   5.682  1.3601  0.1078 -0.4782
  574MOL0    Cl77399   0.331   1.187   5.751  0.2753  0.6435 -0.3497
  574MOL0     C77400   1.453   1.307   5.863 -0.2924  0.5222 -0.3657
  574MOL0     C77401   1.591   1.305   5.850 -0.5696 -0.4835 -0.3671
  574MOL0     O77402   1.860   1.347   6.139  0.3621 -0.0758  0.2530
  574MOL0     C77403   2.067   1.410   5.859 -0.0500 -0.4934 -0.2369
  574MOL0     C77404   2.210   1.409   5.831  0.6360  0.3953  0.4682
  574MOL0     N77405   2.771   1.170   5.361 -0.2960 -1.3090  0.3045
  574MOL0     N77406   2.764   1.082   5.269  0.0072  0.5525  0.4122
  574MOL0     C77407   3.563   0.269   5.615  0.0518  0.5261 -0.8699
  574MOL0     C77408   3.644   0.175   5.670  0.2152  0.0825  1.1090
  574MOL0     C77409   3.885  -0.124   5.890  0.3227  0.0106  0.1791
  574MOL0     C77410   3.796  -0.195   5.978  0.2431  0.2707 -0.5915
  574MOL0     C77411   3.832  -0.319   6.031 -0.5633 -0.0247 -0.1265
  574MOL0     C77412   3.952  -0.373   5.996  0.1308 -0.4251 -0.3042
  574MOL0     O77413   3.979  -0.489   6.059 -0.1823  0.7256 -0.4752
  574MOL0     C77414   4.115  -0.536   6.070  0.9026  0.6267  0.1838
  574MOL0     C77415   4.099  -0.650   6.177  0.9024  0.1674  0.4312
  574MOL0     C77416   4.233  -0.673   6.256  0.1456  0.2208  0.6806
  574MOL0     C77417   4.242  -0.802   6.335  0.9792 -0.7220  0.8758
  574MOL0     C77418   4.112  -0.836   6.399  0.3525  0.2728 -0.6018
  574MOL0     C77419   4.006  -0.862   6.459 -0.1846 -0.9154 -0.8934
  574MOL0     C77420   4.043  -0.303   5.918 -0.0952  0.9866  0.1825
  574MOL0     C77421   4.011  -0.177   5.862  0.2743  0.2168 -0.2079
  574MOL0     C77422   4.111  -0.133   5.755 -0.4051  0.0261 -0.4266
  574MOL0     H77423   3.485   0.117   5.957  0.2120 -0.8257 -0.5656
  574MOL0     H77424   3.341   0.308   5.870 -2.8784  0.8461 -4.7249
  574MOL0     H77425   3.458   0.504   5.469  0.6253 -0.9350 -2.7339
  574MOL0     H77426   3.375   0.354   5.441 -2.0079 -1.7570  0.9865
  574MOL0     H77427   3.227   0.545   5.353 -2.2603  0.4218  0.9409
  574MOL0     H77428   3.219   0.618   5.506 -0.7967 -0.5707  0.0642
  574MOL0     H77429   3.127   0.385   5.585 -0.7588 -0.8199  0.5747
  574MOL0     H77430   3.099   0.353   5.420 -2.6893  1.2366 -0.3580
  574MOL0     H77431   2.909   0.469   5.553 -0.2641  1.2787  1.4053
  574MOL0     H77432   2.999   0.603   5.591 -0.5161  0.7323 -0.1602
  574MOL0     H77433   3.043   0.668   5.367  0.1846 -0.3046  1.4774
  574MOL0     H77434   2.950   0.524   5.303 -1.9005 -0.1886  0.2766
  574MOL0     H77435   2.750   0.619   5.439 -1.9862  1.9179  0.4081
  574MOL0     H77436   2.860   0.755   5.472 -2.6213 -2.0673  2.1045
  574MOL0     H77437   2.787   0.682   5.189  0.4660 -1.1879  1.5160
  574MOL0     H77438   2.885   0.811   5.239 -0.6207  1.3112 -0.5912
  574MOL0     H77439   2.656   0.864   5.162  1.0142 -0.2827  0.1864
  574MOL0     H77440   2.588   0.802   5.307 -1.0772  2.3233  0.9732
  574MOL0     H77441   2.670   0.919   5.544  1.0644  0.9973 -0.2880
  574MOL0     H77442   2.813   1.108   5.683  0.2073  0.0652 -0.9013
  574MOL0     H77443   2.780   1.282   5.626 -0.6022 -0.4990 -1.8325
  574MOL0     H77444   2.560   1.273   5.675  0.5393  1.6418  2.7445
  574MOL0     H77445   2.553   1.098   5.699 -0.0749  0.0473  2.1849
  574MOL0     H77446   2.717   1.305   5.870 -1.8966  2.0416  0.2622
  574MOL0     H77447   2.694   1.130   5.898  1.1488  1.8211  1.1669
  574MOL0     H77448   2.566   1.290   6.035 -1.8052  1.1379 -0.1004
  574MOL0     H77449   2.480   1.158   5.957  0.7000 -0.1143 -1.7436
  574MOL0     H77450   2.321   1.285   6.127  2.3087  0.7173 -1.5440
  574MOL0     H77451   2.101   1.285   6.175  3.3660  0.6815  1.7133
  574MOL0     H77452   1.676   1.542   6.086  1.2542 -2.9895  2.7616
  574MOL0     H77453   1.415   1.576   6.082  2.6414 -1.2243  4.5774
  574MOL0     H77454   1.162   1.586   6.026  2.4462 -0.5557  1.5888
  574MOL0     H77455   1.270   1.608   5.883 -1.0746 -1.5386 -2.0798
  574MOL0     H77456   1.030   1.604   5.809 -2.8093 -1.1465 -0.1445
  574MOL0     H77457   1.114   1.456   5.756  0.2151 -4.7417  2.5162
  574MOL0     H77458   1.013   1.319   5.908 -0.4019 -1.0362  1.2340
  574MOL0     H77459   0.972   1.442   6.025 -3.1778  0.0760 -0.7763
  574MOL0     H77460   0.836   1.415   5.756 -2.2414 -0.4569 -0.0258
  574MOL0     H77461   0.801   1.546   5.873 -1.6238 -0.3642 -0.5451
  574MOL0     H77462   0.746   1.348   6.031  1.8880 -1.4428 -0.5512
  574MOL0     H77463   0.767   1.249   5.896 -0.1741 -0.7640 -0.0836
  574MOL0     H77464   0.523   1.317   5.944  0.8910 -0.5455  0.7950
  574MOL0     H77465   0.564   1.481   5.888  0.2699 -0.8784 -0.1910
  574MOL0     H77466   0.598   1.235   5.714 -1.1899 -0.0158 -0.6973
  574MOL0     H77467   0.621   1.404   5.665  0.6715 -3.3715 -3.0788
  574MOL0     H77468   0.373   1.439   5.721  0.6049  1.0193 -3.2990
  574MOL0     H77469   0.405   1.351   5.574  2.6006 -2.7904 -0.8185
  574MOL0     H77470   1.374   1.260   5.805 -0.9752  1.6568 -0.3949
  574MOL0     H77471   1.630   1.253   5.763 -0.4841  0.1498 -0.7118
  574MOL0     H77472   1.995   1.444   5.786  0.2387  1.5321  0.3576
  574MOL0     H77473   2.229   1.446   5.731  4.6381 -0.7018  0.6451
  574MOL0     H77474   3.574   0.296   5.510  1.6368 -1.3595 -1.2443
  574MOL0     H77475   3.731   0.134   5.619 -1.3024 -0.6048 -1.0719
  574MOL0     H77476   3.707  -0.151   6.021 -0.1402 -1.2611  0.2600
  574MOL0     H77477   3.779  -0.370   6.111 -0.8794  1.7427  0.8421
  574MOL0     H77478   4.178  -0.453   6.102  2.3623 -0.7079  0.9022
  574MOL0     H77479   4.150  -0.583   5.978  4.5299  1.9685  0.7280
  574MOL0     H77480   4.060  -0.744   6.136  4.2941 -0.3184 -2.0489
  574MOL0     H77481   4.016  -0.631   6.247  1.2874  1.5679  0.5233
  574MOL0     H77482   4.254  -0.581   6.310 -0.4749  1.2576 -0.7661
  574MOL0     H77483   4.306  -0.683   6.175 -0.8626  1.0142 -0.3755
  574MOL0     H77484   4.263  -0.888   6.272 -1.3062  0.6855 -1.9940
  574MOL0     H77485   4.319  -0.790   6.413 -0.1295 -2.5815  2.3330
  574MOL0     H77486   3.920  -0.883   6.518 -1.4488  0.5008 -2.1579
  574MOL0     H77487   4.139  -0.351   5.905 -0.3341 -0.3808  2.7789
  574MOL0     H77488   4.073  -0.155   5.655 -0.6599  3.1736 -1.1237
  574MOL0     H77489   4.117  -0.024   5.760 -0.1195  0.0326 -0.8339
  574MOL0     H77490   4.212  -0.174   5.770  0.9460  3.3302  0.4893
  575MOL0     O77491   9.121   1.408   6.884 -0.1890 -0.4991  0.4148
  575MOL0     C77492   9.026   1.450   6.819 -0.6084  0.0646  0.2451
  575MOL0     O77493   8.895   1.458   6.862  0.6567  0.2685  0.1941
  575MOL0     C77494   8.861   1.398   6.974 -0.1547  0.5845  0.4009
  575MOL0     C77495   8.786   1.280   6.972  0.1139 -0.2460 -0.8256
  575MOL0     C77496   8.748   1.216   7.091 -0.0943  0.0124  1.0420
  575MOL0     C77497   8.799   1.250   7.214  0.0762  0.3564 -0.2590
  575MOL0     O77498   8.789   1.178   7.329 -0.5016 -0.5559 -0.3102
  575MOL0     C77499   8.778   1.241   7.457  0.5296 -0.2047 -1.2029
  575MOL0     C77500   8.916   1.235   7.528 -0.0215  1.3185 -0.0643
  575MOL0     C77501   8.922   1.292   7.672  0.4982  0.2839  1.0237
  575MOL0     C77502   8.854   1.200   7.780  0.1889  0.7049 -0.0293
  575MOL0     C77503   8.866   1.248   7.919  0.4136  0.0081  0.7576
  575MOL0     C77504   9.011   1.263   7.973  0.3462 -0.6795  0.4415
  575MOL0     C77505   9.022   1.252   8.121  0.2116  0.0586 -0.2590
  575MOL0     C77506   8.966   1.372   8.194  0.5123  0.2495  0.7485
  575MOL0     N77507   9.003   1.379   8.331  0.4907 -1.0358  0.6811
  575MOL0     C77508   9.094   1.452   8.397  0.1743 -0.0741  0.0400
  575MOL0     C77509   9.088   1.410   8.525  0.8180  0.7278  0.6925
  575MOL0     C77510   9.162   1.477   8.637  0.6508  0.7823  0.3112
  575MOL0     C77511   9.313   1.454   8.637  0.6365  0.5952 -1.0428
  575MOL0     C77512   9.371   1.532   8.760  0.5042  0.5667  0.2839
  575MOL0     C77513   9.311   1.459   8.890  0.2384  0.7053 -0.5462
  575MOL0     O77514   9.384   1.468   9.011  0.4126  1.2371 -0.5036
  575MOL0     C77515   9.503   1.400   9.026 -0.4348 -1.1205  1.2766
  575MOL0     C77516   9.521   1.266   8.982  0.1983 -0.5117 -0.5673
  575MOL0     C77517   9.645   1.204   9.001  0.4144  1.2498  0.4566
  575MOL0     C77518   9.761   1.274   9.046 -0.0707  0.6583 -0.2943
  575MOL0     C77519   9.881   1.199   9.047 -0.5909  0.0841  1.0697
  575MOL0     O77520   9.878   1.071   9.002  0.6273 -0.2086  0.4960
  575MOL0     C77521   9.979   0.976   9.013  0.1978  0.6452  0.7958
  575MOL0     C77522   9.939   0.842   9.013 -0.9943 -0.1206  0.0733
  575MOL0     C77523  10.016   0.729   9.039 -0.9415  0.2493 -0.4009
  575MOL0     C77524  10.155   0.751   9.057  0.6625 -0.0333 -0.1617
  575MOL0     O77525  10.230   0.637   9.063 -0.0131  0.0930 -0.0122
  575MOL0     C77526  10.368   0.663   9.105  0.3203  0.5459  0.0401
  575MOL0     C77527  10.431   0.526   9.121  0.6472  0.0725  0.6597
  575MOL0     C77528  10.399   0.473   9.266  0.2563 -0.1910  0.1276
  575MOL0     C77529  10.497   0.357   9.299 -0.1015 -0.1839  0.7483
  575MOL0     C77530  10.487   0.303   9.446 -0.3951  0.6052 -0.4668
  575MOL0     C77531  10.361   0.245   9.491  0.2093 -0.7689 -0.4069
  575MOL0     C77532  10.329   0.111   9.417 -0.4944  0.5769  0.3124
  575MOL0     C77533  10.201   0.046   9.474  0.1277 -0.0493  0.1777
  575MOL0    Cl77534  10.234  -0.016   9.636  0.2016 -0.1829  0.2257
  575MOL0     C77535  10.202   0.879   9.061  0.2639  0.5326  0.2937
  575MOL0     C77536  10.118   0.996   9.047  1.0471  0.0830  1.0433
  575MOL0     O77537   9.977   1.256   9.097  0.0565  0.0340 -0.0991
  575MOL0     C77538   9.744   1.408   9.088  1.3540 -1.2684 -0.1707
  575MOL0     C77539   9.612   1.466   9.084 -0.7938 -0.2059  0.6834
  575MOL0     N77540   8.995   1.310   8.536  0.0409  0.3003 -0.3037
  575MOL0     N77541   8.941   1.297   8.419 -0.4556 -0.8265  0.6638
  575MOL0     C77542   8.868   1.374   7.213 -0.8436  0.0380  0.1759
  575MOL0     C77543   8.902   1.439   7.094 -0.4809 -0.2297  0.2660
  575MOL0     C77544   9.038   1.514   6.687 -0.4453 -0.7773  0.4812
  575MOL0     C77545   9.123   1.625   6.682  0.0606  0.0861 -0.4968
  575MOL0     C77546   9.140   1.687   6.559  0.0597  0.1019 -0.7960
  575MOL0     C77547   9.086   1.637   6.437 -0.1603  0.3713  0.3595
  575MOL0     O77548   9.116   1.714   6.320  0.2875  0.1856 -0.5129
  575MOL0     C77549   9.068   1.652   6.200 -0.2246  0.4825  0.2651
  575MOL0     C77550   9.110   1.735   6.078 -0.6466  0.2840  0.5390
  575MOL0     C77551   9.257   1.731   6.032  0.7597  0.0549 -0.1329
  575MOL0     C77552   9.283   1.589   5.965  0.4763  0.2410 -0.3341
  575MOL0     C77553   9.430   1.574   5.945  0.5606 -0.7620  0.4323
  575MOL0     C77554   9.549   1.568   5.944 -0.5038 -0.2930  0.9647
  575MOL0     C77555   9.003   1.525   6.450  0.3276  0.1526 -0.0239
  575MOL0     C77556   8.980   1.458   6.576  0.7133  0.8324  0.2426
  575MOL0     C77557   8.886   1.339   6.573 -0.1442  0.1254 -0.6498
  575MOL0     H77558   8.760   1.248   6.871 -1.5320 -0.3601 -0.3882
  575MOL0     H77559   8.700   1.118   7.090 -1.0149  0.4416 -0.2125
  575MOL0     H77560   8.742   1.345   7.455 -4.4162 -1.6520 -0.9899
  575MOL0     H77561   8.703   1.182   7.510 -3.4418  2.4339 -3.3691
  575MOL0     H77562   8.987   1.299   7.474  1.7713 -1.0923 -0.7483
  575MOL0     H77563   8.968   1.139   7.527 -1.0658  0.6991  1.6759
  575MOL0     H77564   8.884   1.394   7.681  0.1605  0.1195  1.4702
  575MOL0     H77565   9.029   1.297   7.694  1.1211 -2.2230 -1.0072
  575MOL0     H77566   8.748   1.204   7.750  0.1893  0.8455 -0.0133
  575MOL0     H77567   8.893   1.098   7.775 -0.0958  0.6550 -2.1940
  575MOL0     H77568   8.826   1.350   7.931  2.6513  0.9223  0.8698
  575MOL0     H77569   8.801   1.182   7.978 -1.1644 -1.6227 -2.5425
  575MOL0     H77570   9.067   1.177   7.937  1.5142 -0.2423  1.1552
  575MOL0     H77571   9.044   1.352   7.918 -2.9767 -0.4988 -1.5196
  575MOL0     H77572   9.130   1.242   8.139 -0.3895 -0.2890  4.5500
  575MOL0     H77573   8.976   1.160   8.158  1.9492 -0.4944  0.6705
  575MOL0     H77574   8.990   1.461   8.135 -1.9161 -0.6123 -1.7638
  575MOL0     H77575   8.858   1.358   8.206  0.8664 -0.3680  4.1579
  575MOL0     H77576   9.155   1.534   8.360 -1.9218  0.9139 -1.4185
  575MOL0     H77577   9.148   1.585   8.634  1.4075  0.9074  0.9962
  575MOL0     H77578   9.123   1.438   8.731  2.2829 -1.6344  0.0868
  575MOL0     H77579   9.339   1.348   8.627 -0.2565  0.4300 -1.7424
  575MOL0     H77580   9.338   1.507   8.544 -0.2199  1.7774 -0.6206
  575MOL0     H77581   9.347   1.638   8.755 -0.5885  0.2755 -2.0521
  575MOL0     H77582   9.480   1.528   8.772  0.2866  0.4787  2.8532
  575MOL0     H77583   9.295   1.353   8.873  4.1153 -0.4899  1.9592
  575MOL0     H77584   9.213   1.507   8.903 -0.1055 -0.3670  0.9717
  575MOL0     H77585   9.443   1.208   8.935 -1.8983  0.8444  1.0322
  575MOL0     H77586   9.643   1.099   8.974 -4.2792  1.6302 -1.5524
  575MOL0     H77587   9.838   0.812   8.985 -0.8860 -1.4762  1.0436
  575MOL0     H77588   9.972   0.630   9.044 -0.5809  0.1137  3.6666
  575MOL0     H77589  10.427   0.716   9.030 -0.8742  0.1255 -1.2711
  575MOL0     H77590  10.362   0.720   9.197 -1.2627  2.0631 -0.9374
  575MOL0     H77591  10.401   0.459   9.040 -0.4062  2.3390 -0.9238
  575MOL0     H77592  10.539   0.520   9.111  0.7019  1.2796  0.3336
  575MOL0     H77593  10.419   0.547   9.345  1.7540 -0.3601 -0.0600
  575MOL0     H77594  10.298   0.432   9.266  0.6667 -1.3459 -2.1292
  575MOL0     H77595  10.598   0.397   9.287 -0.9829  1.4788 -1.8868
  575MOL0     H77596  10.474   0.276   9.229 -1.2260 -0.5692  1.5342
  575MOL0     H77597  10.502   0.381   9.522 -0.5645 -1.3657  1.7057
  575MOL0     H77598  10.565   0.226   9.458 -2.1898 -1.8164 -3.1287
  575MOL0     H77599  10.374   0.225   9.597 -4.1814 -0.0183  0.4672
  575MOL0     H77600  10.278   0.316   9.480 -1.8451 -2.8710  0.7349
  575MOL0     H77601  10.412   0.042   9.432  0.3270  1.2045 -1.1247
  575MOL0     H77602  10.318   0.131   9.310 -3.8737 -0.3343  0.3497
  575MOL0     H77603  10.115   0.113   9.481 -1.7758 -2.4670  2.0194
  575MOL0     H77604  10.167  -0.039   9.413  0.6938 -0.0913 -0.0860
  575MOL0     H77605  10.308   0.899   9.069  0.5228 -1.2749  2.2761
  575MOL0     H77606  10.154   1.098   9.055 -2.7269  1.6452  0.4078
  575MOL0     H77607   9.825   1.454   9.142 -0.1669  1.1415  0.2016
  575MOL0     H77608   9.588   1.562   9.131  1.4080  2.1692 -2.6229
  575MOL0     H77609   8.910   1.422   7.301 -2.7782 -0.0502  1.2110
  575MOL0     H77610   8.970   1.523   7.088 -1.1060  0.3613  1.3206
  575MOL0     H77611   9.169   1.676   6.766 -1.1848 -1.0885  0.9564
  575MOL0     H77612   9.203   1.775   6.557  0.4768 -0.2036 -1.3645
  575MOL0     H77613   8.959   1.656   6.200 -0.2248  0.6187  1.0019
  575MOL0     H77614   9.096   1.546   6.202 -2.7346 -0.3036  4.0588
  575MOL0     H77615   9.091   1.840   6.102  2.3350  0.6617  1.7794
  575MOL0     H77616   9.055   1.699   5.991  0.0894 -1.2991  0.6937
  575MOL0     H77617   9.316   1.741   6.124 -2.4050  1.0647  1.9549
  575MOL0     H77618   9.273   1.808   5.956 -1.5124  0.2055 -0.5298
  575MOL0     H77619   9.250   1.506   6.028  0.6820 -1.1723 -2.0131
  575MOL0     H77620   9.221   1.586   5.875 -1.7877 -0.9298  1.1744
  575MOL0     H77621   9.654   1.553   5.959 -0.9233 -2.0159  2.5900
  575MOL0     H77622   8.953   1.495   6.358  1.9601  0.1484 -0.9400
  575MOL0     H77623   8.811   1.342   6.653 -0.7728 -2.4363 -1.0682
  575MOL0     H77624   8.841   1.339   6.474 -0.1925  1.9812 -0.6653
  575MOL0     H77625   8.940   1.247   6.596 -0.0000  0.5108  0.7009
  576MOL0     O77626   1.470   5.479   8.260  0.2906 -0.0043 -0.6373
  576MOL0     C77627   1.591   5.501   8.245 -0.4883  0.0338 -0.6745
  576MOL0     O77628   1.694   5.422   8.293  0.0233 -0.8272 -0.0656
  576MOL0     C77629   1.688   5.305   8.365  0.3381 -0.0034  0.6267
  576MOL0     C77630   1.819   5.261   8.396  0.2985 -0.7845 -1.5259
  576MOL0     C77631   1.835   5.134   8.434  0.3640  0.7649 -1.4370
  576MOL0     C77632   1.720   5.051   8.457 -0.0468 -0.0787  0.5456
  576MOL0     O77633   1.734   4.910   8.480  0.3855  0.1449 -0.5590
  576MOL0     C77634   1.760   4.864   8.618 -0.1454 -0.1301  0.6731
  576MOL0     C77635   1.840   4.733   8.617 -0.5202 -1.0867  0.6594
  576MOL0     C77636   1.922   4.729   8.740 -1.0743 -0.4899 -0.5070
  576MOL0     C77637   1.847   4.712   8.874  0.0905 -0.3985  1.0245
  576MOL0     C77638   1.950   4.730   8.984 -0.4742  0.2769 -0.9720
  576MOL0     C77639   1.906   4.655   9.115 -0.2839  0.2106 -0.0251
  576MOL0     C77640   2.019   4.633   9.221  0.5009  0.1455  0.2110
  576MOL0     C77641   1.977   4.578   9.354  0.0587 -0.2569  0.3250
  576MOL0     N77642   1.950   4.430   9.331 -0.5698  0.6334 -0.1231
  576MOL0     C77643   2.040   4.333   9.290  0.1412 -0.2378  0.0895
  576MOL0     C77644   1.969   4.218   9.283 -0.7811 -1.1153  0.9458
  576MOL0     C77645   2.019   4.091   9.225 -0.4458  0.3885 -0.2072
  576MOL0     C77646   1.981   3.967   9.310 -0.6171 -0.5120  0.1228
  576MOL0     C77647   2.091   3.863   9.310 -0.7718  0.4879 -0.0868
  576MOL0     C77648   2.128   3.820   9.161  0.1123 -0.2611  0.2582
  576MOL0     O77649   2.216   3.703   9.164  0.5539  0.5579  0.5905
  576MOL0     C77650   2.164   3.574   9.160 -0.8449  0.2180 -0.4260
  576MOL0     C77651   2.038   3.544   9.186 -0.2810 -0.1542 -0.2608
  576MOL0     C77652   1.990   3.416   9.174 -0.7954  0.4129  0.3575
  576MOL0     C77653   2.072   3.309   9.136  0.9841  0.3075 -0.2145
  576MOL0     C77654   2.014   3.171   9.116  1.1072  0.2077  0.6910
  576MOL0     O77655   1.879   3.148   9.136  0.2451  0.4182 -0.8830
  576MOL0     C77656   1.823   3.037   9.074 -0.4805 -0.6156 -0.9312
  576MOL0     C77657   1.860   2.974   8.957  0.1212 -0.2218  0.6076
  576MOL0     C77658   1.784   2.860   8.910  0.4098 -0.2108 -0.2596
  576MOL0     C77659   1.677   2.813   8.988 -0.2324 -0.0951 -0.1092
  576MOL0     O77660   1.598   2.715   8.936 -0.0841 -0.5897  0.3569
  576MOL0     C77661   1.517   2.647   9.026  0.2139 -0.5166 -0.1240
  576MOL0     C77662   1.451   2.533   8.950  0.3672  0.4293  0.6898
  576MOL0     C77663   1.546   2.419   8.910 -0.8819  0.2214 -0.9165
  576MOL0     C77664   1.605   2.344   9.033 -1.1244 -0.4887  0.6468
  576MOL0     C77665   1.687   2.220   8.990  0.2928  0.7719 -0.7533
  576MOL0     C77666   1.807   2.246   8.910 -0.4635 -0.3353 -0.1173
  576MOL0     C77667   1.918   2.140   8.917 -0.4302  0.0777  0.1491
  576MOL0     C77668   2.028   2.157   8.810  0.2256 -0.1075  0.1910
  576MOL0    Cl77669   2.119   2.307   8.816 -0.0569  0.1758  0.4962
  576MOL0     C77670   1.646   2.873   9.111 -0.0411 -0.2454 -0.2105
  576MOL0     C77671   1.724   2.987   9.157  0.3786  0.1819 -0.7238
  576MOL0     O77672   2.090   3.088   9.084 -0.0019  0.5892  0.6156
  576MOL0     C77673   2.208   3.335   9.103  1.0697  0.1803  0.2266
  576MOL0     C77674   2.251   3.466   9.121  0.4184 -0.1770  0.5563
  576MOL0     N77675   1.846   4.250   9.331  0.0430  0.3948 -0.2195
  576MOL0     N77676   1.832   4.373   9.356 -0.2259 -0.1360 -0.2564
  576MOL0     C77677   1.594   5.108   8.460 -0.4929 -0.7716  0.2974
  576MOL0     C77678   1.568   5.232   8.397  0.1699 -0.7255 -0.6789
  576MOL0     C77679   1.613   5.625   8.173  0.2124 -0.2333  0.3258
  576MOL0     C77680   1.547   5.644   8.044 -0.0205 -0.1219  0.2008
  576MOL0     C77681   1.576   5.748   7.956 -0.5391 -0.6330  0.3910
  576MOL0     C77682   1.687   5.828   7.992  0.4914 -0.2213  0.5527
  576MOL0     O77683   1.733   5.913   7.899  0.6525 -0.0776  0.2180
  576MOL0     C77684   1.875   5.899   7.870  0.1312 -0.3427  0.1225
  576MOL0     C77685   1.910   5.986   7.744  0.9515  0.7505 -0.6598
  576MOL0     C77686   1.877   6.129   7.756 -0.7693  0.3401 -0.2672
  576MOL0     C77687   1.934   6.206   7.639  0.2637 -0.1188  0.1200
  576MOL0     C77688   2.078   6.213   7.653  0.6886  0.1584 -0.1442
  576MOL0     C77689   2.205   6.202   7.667 -0.1594  0.6461 -0.0716
  576MOL0     C77690   1.742   5.818   8.118 -0.7364 -0.6104 -0.0782
  576MOL0     C77691   1.704   5.723   8.216 -0.6337  0.0019 -0.6607
  576MOL0     C77692   1.778   5.718   8.351 -0.3713  0.9669 -0.1462
  576MOL0     H77693   1.900   5.325   8.364 -0.8193  2.5790  1.6733
  576MOL0     H77694   1.933   5.089   8.449  0.4777  0.6521 -2.4509
  576MOL0     H77695   1.815   4.942   8.671  1.7584 -0.6770 -0.4335
  576MOL0     H77696   1.667   4.852   8.675  1.7100  0.1777  4.0227
  576MOL0     H77697   1.912   4.745   8.535 -2.4597 -0.7377 -1.0710
  576MOL0     H77698   1.779   4.645   8.596 -1.8036  0.8234 -5.5401
  576MOL0     H77699   1.991   4.814   8.742 -1.2573 -0.3374  1.0754
  576MOL0     H77700   1.985   4.640   8.729  2.4192  1.3580  2.3329
  576MOL0     H77701   1.766   4.784   8.892  0.6134  0.0210  1.7927
  576MOL0     H77702   1.801   4.613   8.872 -1.4395  0.1299 -3.9151
  576MOL0     H77703   2.045   4.688   8.950  1.4062  2.3006  1.4238
  576MOL0     H77704   1.962   4.838   8.993 -2.6216  0.5152 -0.4391
  576MOL0     H77705   1.830   4.721   9.158 -1.5460 -1.3805  0.2971
  576MOL0     H77706   1.854   4.565   9.082 -0.0217 -0.1506  0.5426
  576MOL0     H77707   2.070   4.729   9.235  5.2299 -2.1993  1.4883
  576MOL0     H77708   2.095   4.573   9.171 -1.1762  0.7335 -3.3174
  576MOL0     H77709   2.064   4.597   9.417  1.9477 -1.0100 -1.9197
  576MOL0     H77710   1.893   4.642   9.384  1.1175  0.2450  2.4670
  576MOL0     H77711   2.140   4.339   9.249 -0.2929  1.5410 -0.8147
  576MOL0     H77712   1.994   4.093   9.118 -0.0374  2.0399 -0.2941
  576MOL0     H77713   2.128   4.082   9.224 -0.5268 -0.7955  0.0292
  576MOL0     H77714   1.975   3.997   9.415 -2.4040 -1.7070  0.3903
  576MOL0     H77715   1.891   3.916   9.276  1.9959 -4.9697 -0.9599
  576MOL0     H77716   2.071   3.776   9.374  1.3252  0.1936  0.2665
  576MOL0     H77717   2.180   3.908   9.356 -1.0333  1.7233 -0.7442
  576MOL0     H77718   2.187   3.901   9.117 -2.4627  1.3200 -0.5056
  576MOL0     H77719   2.034   3.813   9.105  0.5952 -0.0383 -0.5835
  576MOL0     H77720   1.956   3.611   9.211 -1.2695 -1.0649 -0.9977
  576MOL0     H77721   1.886   3.399   9.200  0.0281  0.4151  4.3278
  576MOL0     H77722   1.939   3.001   8.887 -1.1441 -0.8554 -1.1479
  576MOL0     H77723   1.802   2.796   8.825 -0.1805  0.0525 -0.5928
  576MOL0     H77724   1.573   2.611   9.113  2.1149  3.7626  0.6880
  576MOL0     H77725   1.442   2.717   9.065  0.3573 -0.3661 -0.1225
  576MOL0     H77726   1.375   2.494   9.018 -0.4285 -0.7966 -0.8290
  576MOL0     H77727   1.405   2.570   8.858  1.4633 -0.9868 -0.4801
  576MOL0     H77728   1.497   2.339   8.854  2.8395 -3.0540  0.0749
  576MOL0     H77729   1.627   2.455   8.846 -0.2214  1.3448  0.4879
  576MOL0     H77730   1.528   2.320   9.106 -1.8836  2.1364  0.8044
  576MOL0     H77731   1.662   2.423   9.082  0.4502 -0.6484 -0.8299
  576MOL0     H77732   1.620   2.153   8.936 -0.3132  4.4550 -5.1212
  576MOL0     H77733   1.719   2.168   9.081 -0.3506 -3.1518 -2.5515
  576MOL0     H77734   1.772   2.271   8.809  0.5133 -0.7050 -0.5592
  576MOL0     H77735   1.845   2.340   8.951  0.2227 -0.1490 -1.1483
  576MOL0     H77736   1.867   2.045   8.897  1.3786 -0.7415 -0.7020
  576MOL0     H77737   1.964   2.130   9.016 -1.4218 -1.4629  0.5000
  576MOL0     H77738   2.098   2.073   8.823  1.5454  1.1779  1.8692
  576MOL0     H77739   1.978   2.155   8.713 -1.7146  0.8747  1.1107
  576MOL0     H77740   1.559   2.842   9.169  0.0298 -0.7038 -0.3511
  576MOL0     H77741   1.713   3.049   9.245  1.8114  4.3116 -3.1543
  576MOL0     H77742   2.273   3.264   9.052  0.6671  1.8586 -2.8725
  576MOL0     H77743   2.340   3.513   9.080  0.6462 -2.0494 -1.2558
  576MOL0     H77744   1.522   5.030   8.482  0.1511 -0.7475  2.8485
  576MOL0     H77745   1.475   5.278   8.367  0.8764  1.4986  0.3021
  576MOL0     H77746   1.481   5.570   8.000  2.9596 -1.5382 -2.3130
  576MOL0     H77747   1.516   5.745   7.866 -1.6747  1.1846  1.0202
  576MOL0     H77748   1.896   5.793   7.855 -0.0249 -0.1713 -1.4219
  576MOL0     H77749   1.927   5.945   7.955  0.8865  0.7048 -0.8826
  576MOL0     H77750   1.843   5.937   7.672 -0.4041 -4.8212  3.6814
  576MOL0     H77751   2.010   5.963   7.707 -0.3436 -1.7915 -2.8929
  576MOL0     H77752   1.923   6.157   7.852 -2.5710 -3.2265  1.8351
  576MOL0     H77753   1.768   6.135   7.765 -0.8147 -1.2821  0.5573
  576MOL0     H77754   1.906   6.163   7.543 -2.1129 -1.0658  1.1413
  576MOL0     H77755   1.896   6.308   7.635  0.8176  0.0545 -1.0340
  576MOL0     H77756   2.311   6.198   7.674  0.1389 -0.2527 -3.5480
  576MOL0     H77757   1.813   5.896   8.144 -2.0379  1.1777 -1.5451
  576MOL0     H77758   1.714   5.708   8.439  1.6442 -4.3588  1.0624
  576MOL0     H77759   1.847   5.633   8.351 -0.0936  1.1628  1.7628
  576MOL0     H77760   1.836   5.808   8.374  0.2434  0.1455  1.6984
  577MOL0     O77761   8.197  10.913  10.583 -0.5369  0.4828  0.1605
  577MOL0     C77762   8.118  10.823  10.592  0.2730 -0.4473 -0.2201
  577MOL0     O77763   8.137  10.694  10.564 -0.6986  0.1540 -0.1568
  577MOL0     C77764   8.258  10.653  10.501 -0.7135  0.2118 -0.5799
  577MOL0     C77765   8.336  10.557  10.554 -0.3643  0.4458 -0.3907
  577MOL0     C77766   8.458  10.507  10.501  0.5736  0.6549 -0.5079
  577MOL0     C77767   8.516  10.564  10.389  1.5568 -0.8710  1.8967
  577MOL0     O77768   8.631  10.512  10.347 -0.3026  0.0094  0.2411
  577MOL0     C77769   8.697  10.545  10.230  1.0079 -0.0598 -0.3807
  577MOL0     C77770   8.811  10.445  10.212  0.1180  0.1994  0.4570
  577MOL0     C77771   8.915  10.439  10.323  0.2314 -0.4841 -0.2079
  577MOL0     C77772   8.999  10.314  10.319 -0.3762 -0.3985 -0.6647
  577MOL0     C77773   9.119  10.328  10.414  0.8549  0.4463  0.2298
  577MOL0     C77774   9.215  10.221  10.385 -0.3153  0.2503  0.5625
  577MOL0     C77775   9.341  10.227  10.471 -0.0901  0.9596  1.1960
  577MOL0     C77776   9.426  10.097  10.504  1.2593  0.2171 -0.4459
  577MOL0     N77777   9.568  10.119  10.493 -0.2951 -0.1944  0.7286
  577MOL0     C77778   9.653  10.123  10.597 -0.2732 -0.0287  0.1203
  577MOL0     C77779   9.780  10.131  10.543  0.7458  0.7353  0.2518
  577MOL0     C77780   9.908  10.150  10.615  0.7835 -0.2998 -0.3455
  577MOL0     C77781  10.017  10.044  10.593 -0.2416  0.3979  0.3316
  577MOL0     C77782  10.150  10.081  10.669 -0.2536  0.0430  0.5950
  577MOL0     C77783  10.264   9.997  10.608 -0.7102 -0.6559 -0.3204
  577MOL0     O77784  10.371   9.977  10.694 -1.3252  0.6744  0.4602
  577MOL0     C77785  10.442  10.089  10.740 -0.5444  0.9674  0.2873
  577MOL0     C77786  10.471  10.188  10.644 -0.0139 -0.0600  0.6524
  577MOL0     C77787  10.554  10.294  10.672 -1.0501 -0.2605  0.1326
  577MOL0     C77788  10.615  10.297  10.803 -0.3020 -0.3996  1.0189
  577MOL0     C77789  10.736  10.383  10.820  0.4016  0.7320 -0.1125
  577MOL0     O77790  10.809  10.418  10.707 -0.0401 -0.0363 -0.3177
  577MOL0     C77791  10.937  10.459  10.711 -0.8680 -0.1103 -0.4442
  577MOL0     C77792  11.035  10.399  10.788 -0.4803 -0.6751 -0.5093
  577MOL0     C77793  11.175  10.436  10.784  0.0869  0.5952 -0.6829
  577MOL0     C77794  11.217  10.536  10.699 -0.4653  0.7055 -1.1138
  577MOL0     O77795  11.353  10.561  10.684  0.4101  0.0772  0.2000
  577MOL0     C77796  11.448  10.486  10.766  0.9800  0.0893  0.4273
  577MOL0     C77797  11.592  10.510  10.715 -0.9235  0.1314 -0.4089
  577MOL0     C77798  11.647  10.636  10.778  0.7693 -0.7208 -0.1581
  577MOL0     C77799  11.764  10.692  10.696 -0.0336  0.2717 -0.0682
  577MOL0     C77800  11.860  10.767  10.777  0.1361 -0.1624 -1.4201
  577MOL0     C77801  11.792  10.898  10.847 -0.2222 -0.3471  0.5545
  577MOL0     C77802  11.896  10.965  10.934 -0.4801  0.2413 -0.0455
  577MOL0     C77803  12.001  11.043  10.860  0.5935 -0.6297  0.6213
  577MOL0    Cl77804  12.115  11.127  10.978 -0.0531  0.1603 -0.6560
  577MOL0     C77805  11.121  10.595  10.619 -0.3977  1.0134 -0.6884
  577MOL0     C77806  10.982  10.566  10.631 -0.0452 -0.0132 -0.4036
  577MOL0     O77807  10.756  10.414  10.937 -0.1769  0.5752  0.2471
  577MOL0     C77808  10.584  10.198  10.894  0.3125 -0.8157 -0.5408
  577MOL0     C77809  10.490  10.102  10.868  0.1336 -0.4386  0.7345
  577MOL0     N77810   9.765  10.129  10.405 -0.3790  0.2857 -1.1249
  577MOL0     N77811   9.639  10.117  10.375  0.5331 -0.6376 -1.0616
  577MOL0     C77812   8.437  10.663  10.326  0.8339  0.2926  0.4533
  577MOL0     C77813   8.314  10.704  10.384  0.0772 -0.8342  0.0415
  577MOL0     C77814   7.985  10.871  10.635 -0.8715  0.2787 -0.3186
  577MOL0     C77815   7.875  10.794  10.601  0.6878 -0.4736  0.1346
  577MOL0     C77816   7.740  10.818  10.639 -0.0575  0.8476 -0.0955
  577MOL0     C77817   7.720  10.932  10.723 -0.4337  0.8843 -0.5234
  577MOL0     O77818   7.589  10.953  10.753  0.4313 -0.4790 -0.2936
  577MOL0     C77819   7.558  11.057  10.851  0.8608  0.8526  0.0350
  577MOL0     C77820   7.410  11.089  10.825  0.4700 -0.6125 -0.9243
  577MOL0     C77821   7.316  10.984  10.883  0.2066  0.0800  0.2440
  577MOL0     C77822   7.181  11.020  10.826  0.2657  0.6574  0.6922
  577MOL0     C77823   7.070  10.975  10.906  0.6663 -0.7934 -0.1846
  577MOL0     C77824   6.962  10.944  10.965 -0.9406  0.2181  0.2744
  577MOL0     C77825   7.832  11.012  10.758  0.1951  0.2240 -0.6712
  577MOL0     C77826   7.960  10.986  10.717  0.7083 -0.8001  0.0345
  577MOL0     C77827   8.068  11.084  10.757  0.1243 -0.2254  0.4961
  577MOL0     H77828   8.294  10.500  10.636  0.5364 -5.1187 -3.2913
  577MOL0     H77829   8.500  10.433  10.568 -2.4776  1.4467  2.5873
  577MOL0     H77830   8.622  10.531  10.152  2.1695  0.7835 -1.6860
  577MOL0     H77831   8.727  10.650  10.228  1.3293 -0.1625 -1.3022
  577MOL0     H77832   8.868  10.457  10.120 -0.7078 -1.6778 -0.3406
  577MOL0     H77833   8.779  10.344  10.185  1.3172  0.5985 -2.9696
  577MOL0     H77834   8.857  10.445  10.416  0.3646  1.7433 -0.2084
  577MOL0     H77835   8.975  10.530  10.319 -4.2877  2.8962  1.0361
  577MOL0     H77836   8.937  10.227  10.340 -1.9323  0.5927 -0.9761
  577MOL0     H77837   9.040  10.299  10.219 -0.5716  0.5425 -0.9035
  577MOL0     H77838   9.167  10.425  10.400 -0.2235  0.9731  0.0359
  577MOL0     H77839   9.078  10.326  10.516  0.1904 -0.3179 -0.0417
  577MOL0     H77840   9.166  10.123  10.389 -1.2705  0.7726  2.6198
  577MOL0     H77841   9.241  10.230  10.279  2.4403  1.4716  1.2372
  577MOL0     H77842   9.310  10.254  10.572  0.8601  1.7595  1.2862
  577MOL0     H77843   9.408  10.297  10.419  0.9330 -1.0152 -0.2759
  577MOL0     H77844   9.402  10.064  10.605  2.8812 -2.0566 -0.7436
  577MOL0     H77845   9.401  10.019  10.431 -0.9741 -0.2705  0.7380
  577MOL0     H77846   9.611  10.132  10.697 -0.9954  2.9777 -0.3419
  577MOL0     H77847   9.947  10.245  10.575 -1.7941  0.4131 -1.3489
  577MOL0     H77848   9.886  10.171  10.720 -1.6049 -0.1819 -0.8227
  577MOL0     H77849   9.995   9.941  10.623  0.3770  0.5030  1.2038
  577MOL0     H77850  10.031  10.044  10.485  1.8794  0.5035  0.5494
  577MOL0     H77851  10.142  10.037  10.769  0.5574  1.3393  1.2488
  577MOL0     H77852  10.184  10.184  10.660 -1.8256  0.5660  0.2411
  577MOL0     H77853  10.280  10.048  10.512  0.9299 -1.4813 -0.5178
  577MOL0     H77854  10.224   9.899  10.582  0.3103 -0.3077 -3.8037
  577MOL0     H77855  10.439  10.174  10.542 -0.8964 -0.4512  0.9695
  577MOL0     H77856  10.588  10.359  10.593  2.0647 -1.6736  0.1265
  577MOL0     H77857  10.997  10.324  10.857 -1.6278  0.5426  0.2282
  577MOL0     H77858  11.241  10.398  10.861 -2.1029 -2.7458 -0.2432
  577MOL0     H77859  11.451  10.514  10.872 -1.5184 -2.8534  1.4303
  577MOL0     H77860  11.420  10.380  10.760 -3.0050  0.9611  1.3324
  577MOL0     H77861  11.651  10.425  10.750  0.6579 -0.1956 -3.4692
  577MOL0     H77862  11.597  10.521  10.606 -0.2913  0.7438 -0.3262
  577MOL0     H77863  11.565  10.709  10.773  1.1885 -0.2882 -1.3247
  577MOL0     H77864  11.679  10.620  10.881  0.9846  3.0384  0.5226
  577MOL0     H77865  11.737  10.758  10.612  1.1088  0.7159 -0.1060
  577MOL0     H77866  11.814  10.604  10.654  2.1968  0.3211  2.2408
  577MOL0     H77867  11.943  10.817  10.726  0.3734  1.5638  0.5239
  577MOL0     H77868  11.910  10.700  10.846 -0.6720  1.0211  0.3918
  577MOL0     H77869  11.744  10.972  10.781 -0.2143 -0.1727  0.7443
  577MOL0     H77870  11.713  10.854  10.908  1.4892 -1.9870  1.6814
  577MOL0     H77871  11.940  10.887  10.997  1.8022  0.4202 -1.2941
  577MOL0     H77872  11.849  11.038  11.000 -1.0384 -0.1238 -0.0368
  577MOL0     H77873  12.063  10.983  10.793  1.9134  3.5932 -2.3538
  577MOL0     H77874  11.954  11.126  10.806  2.3113  0.5188  0.8194
  577MOL0     H77875  11.155  10.664  10.543  1.7698  2.3279  1.3437
  577MOL0     H77876  10.899  10.610  10.577  0.2252  1.1226  0.0791
  577MOL0     H77877  10.638  10.200  10.988 -2.6803 -0.3506  1.3131
  577MOL0     H77878  10.456  10.037  10.948  1.7889 -1.7649  0.4070
  577MOL0     H77879   8.455  10.712  10.231  0.8394 -2.5298 -1.1293
  577MOL0     H77880   8.254  10.777  10.331  1.4756 -0.1774 -0.7128
  577MOL0     H77881   7.891  10.709  10.535 -0.3823 -0.4391 -0.1822
  577MOL0     H77882   7.648  10.767  10.609 -0.7082  0.5567  2.2295
  577MOL0     H77883   7.615  11.149  10.834  0.7522  0.9022 -0.0589
  577MOL0     H77884   7.567  11.024  10.955  0.4843 -2.3900 -0.8627
  577MOL0     H77885   7.393  11.107  10.718  0.4371  2.7244 -0.4345
  577MOL0     H77886   7.394  11.177  10.888 -0.3389  1.1463 -3.4289
  577MOL0     H77887   7.319  10.985  10.992 -1.4043 -1.9334  0.3688
  577MOL0     H77888   7.349  10.887  10.843 -0.8172 -0.2125  0.0761
  577MOL0     H77889   7.184  11.128  10.808  1.9215  0.7577  1.3386
  577MOL0     H77890   7.181  10.978  10.726 -3.4296  0.7921  0.5231
  577MOL0     H77891   6.874  10.902  11.009 -0.0038 -0.2649  1.7764
  577MOL0     H77892   7.820  11.101  10.820  3.2658  0.2364  0.0741
  577MOL0     H77893   8.121  11.128  10.672  0.0547  3.6108  2.2258
  577MOL0     H77894   8.036  11.149  10.839  2.4991 -1.8335  2.8772
  577MOL0     H77895   8.134  11.022  10.819 -0.5090  0.5086  1.9438
  578MOL0     O77896   6.724  10.032   5.880  0.2065  0.1334  0.1428
  578MOL0     C77897   6.674  10.116   5.953  0.0253 -0.1025 -0.5677
  578MOL0     O77898   6.540  10.133   5.983  0.5953  1.3984  0.5630
  578MOL0     C77899   6.447  10.055   5.917  0.1639 -0.8591  0.4852
  578MOL0     C77900   6.414  10.078   5.784  1.0918 -0.0587 -0.3367
  578MOL0     C77901   6.328   9.988   5.724 -0.3551 -0.0399  0.6672
  578MOL0     C77902   6.261   9.889   5.796 -0.9887  0.1637  0.5517
  578MOL0     O77903   6.181   9.805   5.732  0.4435  0.9623 -0.0389
  578MOL0     C77904   6.074   9.731   5.815 -1.3453 -0.8302 -0.0003
  578MOL0     C77905   5.964   9.670   5.739 -0.0639  0.3219  0.1301
  578MOL0     C77906   5.849   9.631   5.840  0.8054 -0.0489 -0.2493
  578MOL0     C77907   5.899   9.512   5.917  0.8687  0.6976  0.1164
  578MOL0     C77908   5.794   9.427   5.981 -0.0147 -0.5116 -0.3329
  578MOL0     C77909   5.849   9.289   6.026 -0.0511 -0.2701  0.7059
  578MOL0     C77910   5.746   9.195   6.091 -0.6234 -1.2674  0.0774
  578MOL0     C77911   5.605   9.205   6.044  0.5908 -0.3514  0.2783
  578MOL0     N77912   5.519   9.115   6.116  0.0344 -0.4881  0.2278
  578MOL0     C77913   5.434   9.015   6.063  0.5737  0.1845 -0.5251
  578MOL0     C77914   5.383   8.964   6.176 -1.0029  0.1912  0.3572
  578MOL0     C77915   5.289   8.845   6.184  0.7499  0.4668 -0.4357
  578MOL0     C77916   5.320   8.748   6.302 -0.5375  0.0462 -0.1012
  578MOL0     C77917   5.445   8.659   6.281  0.0609  0.5101 -0.2473
  578MOL0     C77918   5.578   8.715   6.331 -0.5825 -0.1429 -0.6562
  578MOL0     O77919   5.684   8.632   6.265  0.3939  0.1005  0.7060
  578MOL0     C77920   5.803   8.620   6.335  0.4630  0.3179 -0.5211
  578MOL0     C77921   5.848   8.693   6.453  0.4689  0.6668  1.4090
  578MOL0     C77922   5.970   8.660   6.513  0.4966 -0.4344  0.3930
  578MOL0     C77923   6.046   8.544   6.480  0.7235  0.3286 -0.2640
  578MOL0     C77924   6.165   8.505   6.556 -0.7375  0.0379 -0.4110
  578MOL0     O77925   6.238   8.410   6.501 -0.2837  0.0702 -0.0796
  578MOL0     C77926   6.367   8.378   6.532  0.3542  0.1871  0.0047
  578MOL0     C77927   6.403   8.251   6.488 -0.3269 -0.5995  0.7726
  578MOL0     C77928   6.528   8.195   6.509  0.1390 -0.3525 -0.0467
  578MOL0     C77929   6.629   8.266   6.578  0.6239  0.8856 -0.1545
  578MOL0     O77930   6.758   8.221   6.591  0.4033 -0.2500 -0.5614
  578MOL0     C77931   6.855   8.304   6.535 -0.2781 -0.6368  0.1270
  578MOL0     C77932   6.976   8.275   6.618  0.7662  0.1866 -0.1099
  578MOL0     C77933   7.102   8.293   6.529 -0.0474 -0.0789 -0.1205
  578MOL0     C77934   7.224   8.286   6.609 -0.4915 -0.1296 -0.1370
  578MOL0     C77935   7.357   8.370   6.551  1.3896  1.3403 -0.0209
  578MOL0     C77936   7.368   8.502   6.620 -0.6254 -0.3201 -0.7086
  578MOL0     C77937   7.480   8.606   6.585 -0.1396 -0.0832 -0.8232
  578MOL0     C77938   7.601   8.542   6.531  0.0682 -1.0861 -0.5520
  578MOL0    Cl77939   7.734   8.660   6.510 -0.0408 -0.3311  0.3116
  578MOL0     C77940   6.588   8.384   6.643 -0.3427  0.2815 -0.2298
  578MOL0     C77941   6.461   8.448   6.615  0.0537  0.4797 -0.0653
  578MOL0     O77942   6.189   8.564   6.660  0.5752  0.6603  0.1591
  578MOL0     C77943   5.992   8.471   6.380  0.8322  0.4574  1.2926
  578MOL0     C77944   5.875   8.505   6.309  0.4494  0.2745  0.4922
  578MOL0     N77945   5.431   9.026   6.288 -0.6606 -0.4697  0.0352
  578MOL0     N77946   5.521   9.114   6.247  0.5464  0.0678  0.6032
  578MOL0     C77947   6.290   9.870   5.935 -0.4489  0.4182 -0.2598
  578MOL0     C77948   6.380   9.961   5.995 -0.2289  0.1940  0.7867
  578MOL0     C77949   6.761  10.217   6.008 -0.0382  0.4475 -0.4935
  578MOL0     C77950   6.825  10.307   5.924 -0.5057  0.2780 -0.7630
  578MOL0     C77951   6.919  10.396   5.984 -0.2085 -0.9084  0.4936
  578MOL0     C77952   6.939  10.404   6.119  1.2867  0.5216  0.4527
  578MOL0     O77953   7.007  10.497   6.181 -0.7575 -0.2478 -0.0910
  578MOL0     C77954   7.073  10.589   6.106  0.8960 -0.8561 -0.7633
  578MOL0     C77955   7.139  10.694   6.190 -0.6758 -0.2263 -0.6439
  578MOL0     C77956   7.285  10.655   6.235 -0.8898 -0.9566  0.0027
  578MOL0     C77957   7.337  10.771   6.313  0.7900  0.6335 -0.6356
  578MOL0     C77958   7.350  10.888   6.229 -0.6842  0.5745 -0.0593
  578MOL0     C77959   7.357  10.989   6.163 -0.2529  0.0410 -0.3606
  578MOL0     C77960   6.859  10.326   6.205 -0.2583 -0.2070 -0.0069
  578MOL0     C77961   6.778  10.226   6.152 -0.6636  0.6667 -0.1780
  578MOL0     C77962   6.703  10.130   6.249  0.2519  0.2622  0.1765
  578MOL0     H77963   6.466  10.148   5.720  1.4291 -2.3178 -2.7236
  578MOL0     H77964   6.306  10.001   5.619 -0.5165  1.7290  0.8830
  578MOL0     H77965   6.123   9.652   5.874 -0.0669 -1.1520 -1.4201
  578MOL0     H77966   6.038   9.822   5.863  0.4464  1.3272 -2.4588
  578MOL0     H77967   6.005   9.581   5.690 -1.7998 -1.3428  1.5358
  578MOL0     H77968   5.942   9.745   5.663  3.0788  2.2476  0.9286
  578MOL0     H77969   5.753   9.609   5.792 -0.2117 -0.5523  1.8967
  578MOL0     H77970   5.825   9.714   5.908 -0.8445 -1.0358  0.4088
  578MOL0     H77971   5.952   9.447   5.847 -0.2858 -0.3066  0.1549
  578MOL0     H77972   5.969   9.551   5.991  3.8144  0.4344 -2.3331
  578MOL0     H77973   5.751   9.486   6.063 -0.0410  0.4790 -1.0330
  578MOL0     H77974   5.718   9.409   5.905 -1.4984 -0.7215  1.1393
  578MOL0     H77975   5.904   9.238   5.947  0.2755  0.7675  0.2515
  578MOL0     H77976   5.921   9.312   6.105 -0.1607 -0.8475  0.9836
  578MOL0     H77977   5.759   9.203   6.199  0.2801 -0.6694 -0.0714
  578MOL0     H77978   5.772   9.094   6.058  0.4493 -0.6995 -0.8724
  578MOL0     H77979   5.580   9.310   6.067  1.6333  0.5232 -2.2421
  578MOL0     H77980   5.592   9.185   5.938 -1.3330 -1.1190  0.6214
  578MOL0     H77981   5.394   8.995   5.964 -2.1130  1.1512  0.2697
  578MOL0     H77982   5.196   8.891   6.219  2.0514  1.9334  1.2856
  578MOL0     H77983   5.251   8.784   6.101 -0.0792 -0.1260  0.3677
  578MOL0     H77984   5.341   8.806   6.393 -1.3221  0.7673 -0.3686
  578MOL0     H77985   5.234   8.684   6.322  0.8881 -2.7608 -2.2486
  578MOL0     H77986   5.455   8.649   6.173 -3.0732  0.4024 -0.6364
  578MOL0     H77987   5.427   8.560   6.325 -1.4184 -0.1813 -2.2650
  578MOL0     H77988   5.576   8.719   6.440 -2.8189 -2.0233 -0.5539
  578MOL0     H77989   5.594   8.818   6.297 -0.0550 -0.5164 -1.5940
  578MOL0     H77990   5.803   8.789   6.474  0.1551  0.7581  0.3969
  578MOL0     H77991   6.013   8.718   6.593  2.9805 -0.0043 -1.1523
  578MOL0     H77992   6.331   8.194   6.431  1.3018 -2.2210  0.2595
  578MOL0     H77993   6.551   8.097   6.470 -0.0551 -0.1190 -0.7536
  578MOL0     H77994   6.861   8.287   6.427  0.0347 -0.0657  0.0496
  578MOL0     H77995   6.838   8.410   6.555  1.1228 -0.6416  1.4668
  578MOL0     H77996   6.982   8.327   6.715 -0.1316 -3.8555  2.3268
  578MOL0     H77997   6.978   8.170   6.647  1.2674  0.5407  1.2579
  578MOL0     H77998   7.095   8.220   6.448 -4.1992  1.5444 -1.4721
  578MOL0     H77999   7.106   8.394   6.487 -0.9377  0.0730  0.1516
  578MOL0     H78000   7.264   8.185   6.595  3.7089  1.3359 -0.2530
  578MOL0     H78001   7.211   8.315   6.714 -1.6201  2.3870 -0.9067
  578MOL0     H78002   7.353   8.384   6.442 -0.6677  2.0505  0.1009
  578MOL0     H78003   7.443   8.307   6.574 -0.3408 -0.8550  0.7798
  578MOL0     H78004   7.280   8.557   6.584 -2.1213 -1.9815  0.2493
  578MOL0     H78005   7.360   8.485   6.727 -1.3330 -2.4591 -1.0454
  578MOL0     H78006   7.504   8.670   6.670  0.4446  0.8206 -1.6497
  578MOL0     H78007   7.441   8.668   6.504 -0.6477  0.1255 -0.4211
  578MOL0     H78008   7.631   8.456   6.593 -0.2443 -0.7236  0.1160
  578MOL0     H78009   7.576   8.505   6.431  0.6252 -0.1050 -1.0673
  578MOL0     H78010   6.654   8.440   6.710 -1.6286 -1.1729  2.4017
  578MOL0     H78011   6.447   8.551   6.645  0.5282  0.0738  1.6198
  578MOL0     H78012   6.041   8.381   6.344 -0.2653  1.4578 -3.3150
  578MOL0     H78013   5.835   8.443   6.229  1.4747 -1.0516  0.9667
  578MOL0     H78014   6.235   9.804   6.002 -0.3008  0.8507  0.3029
  578MOL0     H78015   6.395   9.949   6.101 -0.1060 -2.2286  0.5527
  578MOL0     H78016   6.819  10.302   5.816 -3.7688 -2.5094 -0.6283
  578MOL0     H78017   6.982  10.457   5.919 -0.0743  1.4682  2.6928
  578MOL0     H78018   7.001  10.637   6.039  1.1050  1.0537  0.3224
  578MOL0     H78019   7.148  10.544   6.039  0.6269 -0.7556 -1.1347
  578MOL0     H78020   7.080  10.720   6.279  0.7546  1.6008 -0.1621
  578MOL0     H78021   7.150  10.780   6.124  1.6389  0.5928  0.6841
  578MOL0     H78022   7.350  10.636   6.149 -0.7579 -0.7534  0.0580
  578MOL0     H78023   7.291  10.562   6.292 -1.3121  0.5554  2.6900
  578MOL0     H78024   7.262  10.786   6.391  1.7789 -0.5487  0.6068
  578MOL0     H78025   7.431  10.759   6.367  0.9350  2.5280 -0.4077
  578MOL0     H78026   7.353  11.071   6.094 -1.4332 -0.2773 -0.6809
  578MOL0     H78027   6.864  10.349   6.311 -2.7236 -1.3906  0.4219
  578MOL0     H78028   6.689  10.036   6.195 -2.2602 -0.1914  1.4603
  578MOL0     H78029   6.732  10.111   6.353  0.9395  1.9572  0.3267
  578MOL0     H78030   6.599  10.165   6.255 -2.6377 -6.7528  0.4285
  579MOL0     O78031   5.155  11.180  11.250 -0.5318 -0.1657 -0.2718
  579MOL0     C78032   5.115  11.274  11.307  0.4621 -0.2951 -0.1906
  579MOL0     O78033   4.988  11.292  11.340 -0.0607  0.0724 -0.1784
  579MOL0     C78034   4.904  11.185  11.343  0.1187  0.6143  0.3295
  579MOL0     C78035   4.803  11.174  11.252 -0.0776 -0.1296  0.5641
  579MOL0     C78036   4.696  11.082  11.284 -0.6232  0.0335  1.0062
  579MOL0     C78037   4.696  11.005  11.397  0.0602  0.0694 -0.6744
  579MOL0     O78038   4.586  10.926  11.414  0.4336  0.1830  0.3202
  579MOL0     C78039   4.595  10.791  11.478  0.1548 -0.2805 -0.3170
  579MOL0     C78040   4.479  10.699  11.426 -0.0593 -0.2043  0.2209
  579MOL0     C78041   4.480  10.672  11.278  0.0720 -0.0218  0.9770
  579MOL0     C78042   4.353  10.729  11.210  0.2556  0.0171  0.4468
  579MOL0     C78043   4.346  10.880  11.190 -0.0452  0.3884  1.3909
  579MOL0     C78044   4.263  10.928  11.065 -0.4200  0.9119 -0.1131
  579MOL0     C78045   4.289  11.075  11.032  0.0638  0.3897  0.1811
  579MOL0     C78046   4.411  11.104  10.961 -0.3724  0.2425 -0.2473
  579MOL0     N78047   4.466  11.234  10.994  0.9202  0.5681 -0.8880
  579MOL0     C78048   4.527  11.313  10.901  0.5405  0.5274 -0.2392
  579MOL0     C78049   4.571  11.418  10.973  0.7299  0.7785 -0.6407
  579MOL0     C78050   4.626  11.555  10.926 -0.2979  0.0753  0.3110
  579MOL0     C78051   4.773  11.560  10.964 -0.5820  1.4568 -0.4895
  579MOL0     C78052   4.827  11.699  10.940  0.0783 -0.6310  0.1936
  579MOL0     C78053   4.966  11.713  10.996 -0.2839  0.6598 -0.2127
  579MOL0     O78054   5.031  11.836  10.951  0.0196  0.5973  0.3872
  579MOL0     C78055   5.141  11.882  11.022 -0.7865 -0.1928 -0.7076
  579MOL0     C78056   5.217  11.789  11.105  0.4889 -1.1682 -0.7079
  579MOL0     C78057   5.319  11.842  11.175 -0.0003  0.2597  0.7521
  579MOL0     C78058   5.348  11.982  11.175 -0.0716  0.1271  0.2427
  579MOL0     C78059   5.454  12.040  11.255 -0.2241 -0.7929  0.8048
  579MOL0     O78060   5.493  12.171  11.226 -0.4949 -0.4735 -0.1110
  579MOL0     C78061   5.617  12.219  11.262  0.0959 -0.3901  0.6691
  579MOL0     C78062   5.636  12.360  11.253 -0.4028  0.7369  0.1384
  579MOL0     C78063   5.763  12.413  11.275 -0.2532 -1.1010 -0.1771
  579MOL0     C78064   5.871  12.334  11.306  0.2283 -0.3473  0.5350
  579MOL0     O78065   5.992  12.393  11.325 -0.0197  0.1186 -0.2033
  579MOL0     C78066   6.106  12.300  11.346  0.1840 -0.4939  0.2274
  579MOL0     C78067   6.233  12.369  11.362  0.1636 -0.2471  0.0848
  579MOL0     C78068   6.256  12.493  11.283 -0.6056  1.0196  0.1952
  579MOL0     C78069   6.399  12.530  11.286 -0.5231 -0.3318 -0.2204
  579MOL0     C78070   6.428  12.648  11.182  0.8762  0.1830 -0.0241
  579MOL0     C78071   6.326  12.772  11.179 -0.2867 -1.0274 -0.2991
  579MOL0     C78072   6.318  12.864  11.304  0.2688  0.1947  0.6183
  579MOL0     C78073   6.440  12.924  11.350 -0.4522  0.1904  1.3433
  579MOL0    Cl78074   6.551  12.819  11.436 -0.2173 -0.0541 -0.1856
  579MOL0     C78075   5.853  12.188  11.305 -0.2183 -1.0528  0.3376
  579MOL0     C78076   5.730  12.136  11.291 -0.1444  0.6113  0.0355
  579MOL0     O78077   5.485  11.977  11.355 -0.1290 -0.3070 -0.1724
  579MOL0     C78078   5.282  12.066  11.084  0.6897 -0.2506  0.1114
  579MOL0     C78079   5.180  12.013  11.007 -1.3205 -0.2916 -0.9162
  579MOL0     N78080   4.535  11.393  11.105  0.1353 -0.7542  0.1219
  579MOL0     N78081   4.496  11.276  11.119 -0.6696  0.2887  0.2589
  579MOL0     C78082   4.804  11.015  11.486  1.0678  0.8238  0.1572
  579MOL0     C78083   4.908  11.106  11.458  0.9666 -0.3942 -0.3547
  579MOL0     C78084   5.228  11.367  11.347  0.8432  0.4001 -0.2588
  579MOL0     C78085   5.360  11.329  11.332 -0.3199 -1.0543  0.9481
  579MOL0     C78086   5.470  11.398  11.363 -0.1060 -1.1246  0.2620
  579MOL0     C78087   5.450  11.527  11.430  0.1634  0.0482  0.0069
  579MOL0     O78088   5.545  11.610  11.474 -0.2155 -0.0418  0.3633
  579MOL0     C78089   5.564  11.624  11.615  0.0660 -0.2686  0.3512
  579MOL0     C78090   5.642  11.498  11.667  0.7024 -0.0080  0.3308
  579MOL0     C78091   5.782  11.499  11.605  0.0779 -0.2646 -0.2624
  579MOL0     C78092   5.893  11.454  11.689 -1.0339  0.0877 -0.1318
  579MOL0     C78093   5.885  11.303  11.713  0.5759 -0.4015 -0.3689
  579MOL0     C78094   5.884  11.186  11.731 -0.9505 -0.0180 -0.1203
  579MOL0     C78095   5.321  11.572  11.447  0.0414  0.6833  0.2394
  579MOL0     C78096   5.210  11.488  11.411  1.0445  0.0823  0.6383
  579MOL0     C78097   5.074  11.527  11.463  0.5781 -0.7818 -0.4546
  579MOL0     H78098   4.815  11.234  11.162  0.7815 -0.4605  0.4386
  579MOL0     H78099   4.617  11.077  11.210 -0.6127  0.1950  0.9823
  579MOL0     H78100   4.688  10.736  11.458 -1.4089 -2.9481 -0.7794
  579MOL0     H78101   4.590  10.808  11.586 -1.9911  0.2361 -0.4593
  579MOL0     H78102   4.384  10.737  11.464 -0.5803  1.5408 -2.5211
  579MOL0     H78103   4.496  10.603  11.477  1.2580  0.9074  1.9681
  579MOL0     H78104   4.485  10.564  11.265  2.3825  0.0728  0.6410
  579MOL0     H78105   4.563  10.730  11.235 -0.4819  0.4775  0.5612
  579MOL0     H78106   4.331  10.676  11.117  0.1473  2.0509 -0.7522
  579MOL0     H78107   4.267  10.719  11.278 -0.5020  0.6482 -0.3885
  579MOL0     H78108   4.305  10.929  11.279 -0.8503  1.5878  0.3909
  579MOL0     H78109   4.450  10.909  11.176 -0.2690 -0.1784 -2.9494
  579MOL0     H78110   4.290  10.859  10.984 -2.7766 -1.0371  0.6392
  579MOL0     H78111   4.158  10.916  11.093  0.1950 -1.4453  1.5212
  579MOL0     H78112   4.262  11.136  11.119 -1.3565  1.0699 -0.6888
  579MOL0     H78113   4.218  11.124  10.965  1.7001  1.0953 -1.0963
  579MOL0     H78114   4.494  11.033  10.965  0.5511  1.0774 -2.6297
  579MOL0     H78115   4.382  11.096  10.855 -0.7973 -2.2924 -0.0157
  579MOL0     H78116   4.514  11.301  10.794 -1.5643 -0.2792  0.0557
  579MOL0     H78117   4.626  11.566  10.817 -0.4522  0.1931  0.3222
  579MOL0     H78118   4.571  11.638  10.973  0.1361  2.0483 -2.4475
  579MOL0     H78119   4.783  11.537  11.070  0.6335 -2.5513 -1.3311
  579MOL0     H78120   4.820  11.486  10.899  1.3886  1.6106  0.6897
  579MOL0     H78121   4.761  11.777  10.978 -1.6048 -2.3746  1.0246
  579MOL0     H78122   4.824  11.738  10.837  0.5997  0.5064  0.5867
  579MOL0     H78123   5.025  11.634  10.948 -2.2114 -0.4590 -0.8345
  579MOL0     H78124   4.961  11.704  11.105  1.4990 -2.4680 -0.2609
  579MOL0     H78125   5.198  11.686  11.133  3.3977 -0.8751  3.2929
  579MOL0     H78126   5.374  11.767  11.230  1.0640 -2.3119 -3.3554
  579MOL0     H78127   5.552  12.429  11.252 -2.7491 -1.9572  0.3333
  579MOL0     H78128   5.767  12.518  11.299 -0.4298 -0.6717 -1.8941
  579MOL0     H78129   6.099  12.228  11.428 -0.1416 -4.6051 -3.0562
  579MOL0     H78130   6.114  12.237  11.257 -2.8958  2.3403 -2.3272
  579MOL0     H78131   6.251  12.402  11.464  1.8002 -0.6271 -0.0516
  579MOL0     H78132   6.314  12.301  11.332 -1.2149 -1.4820 -1.0401
  579MOL0     H78133   6.215  12.491  11.181 -2.4112  2.0320  0.8524
  579MOL0     H78134   6.197  12.568  11.335 -2.5883 -1.3883  1.6847
  579MOL0     H78135   6.457  12.444  11.253  0.4989 -0.8592  2.7075
  579MOL0     H78136   6.423  12.566  11.386 -0.8566  0.4815 -0.4204
  579MOL0     H78137   6.422  12.603  11.083  0.9098 -0.8919  0.4503
  579MOL0     H78138   6.528  12.682  11.211  0.3336 -1.1582  4.1076
  579MOL0     H78139   6.351  12.839  11.097  0.2677  0.5218  1.0883
  579MOL0     H78140   6.224  12.733  11.168 -0.7951 -0.0374  0.6812
  579MOL0     H78141   6.265  12.808  11.381  0.0261  0.1119  0.3929
  579MOL0     H78142   6.249  12.946  11.282  1.1743  1.6011  2.7197
  579MOL0     H78143   6.489  12.961  11.260 -3.8143  0.8948 -0.3222
  579MOL0     H78144   6.416  13.013  11.408  1.8178  0.9895  1.1499
  579MOL0     H78145   5.928  12.109  11.308  1.7452  0.7192  3.1408
  579MOL0     H78146   5.706  12.030  11.282 -0.6958  0.7897 -0.7411
  579MOL0     H78147   5.297  12.172  11.068 -1.5996  0.1743  0.2989
  579MOL0     H78148   5.132  12.071  10.929  2.0632  5.5626  0.8020
  579MOL0     H78149   4.807  10.954  11.576  0.0474 -0.5410 -0.7076
  579MOL0     H78150   4.985  11.101  11.534  0.8249 -1.6139 -0.2675
  579MOL0     H78151   5.391  11.233  11.293  1.3652 -0.7714  1.5221
  579MOL0     H78152   5.570  11.369  11.332  1.1778  0.5201  2.5110
  579MOL0     H78153   5.472  11.642  11.671  0.7603 -0.3988  1.5844
  579MOL0     H78154   5.627  11.712  11.633  2.4879 -2.1852  1.8043
  579MOL0     H78155   5.589  11.404  11.653  0.1117  0.4829 -0.8460
  579MOL0     H78156   5.661  11.527  11.771  0.6023  2.9448 -0.3694
  579MOL0     H78157   5.799  11.605  11.579  2.2330 -0.3796  0.4663
  579MOL0     H78158   5.778  11.454  11.505 -3.3433  2.3126 -1.5215
  579MOL0     H78159   5.989  11.465  11.637 -1.2204 -0.1682 -0.5369
  579MOL0     H78160   5.901  11.524  11.773  2.7596  0.1653 -0.4118
  579MOL0     H78161   5.884  11.088  11.774  3.6012  0.1947  0.8650
  579MOL0     H78162   5.296  11.661  11.504 -0.6925  0.4344  0.3188
  579MOL0     H78163   5.004  11.546  11.382  1.7053  1.8740 -0.9101
  579MOL0     H78164   5.031  11.441  11.515 -0.8917  0.4966  0.5395
  579MOL0     H78165   5.067  11.609  11.535  1.3498  0.0927 -1.3363
  580MOL0     O78166   8.304   9.369  10.605  0.4840 -0.3330  0.5147
  580MOL0     C78167   8.219   9.282  10.623  0.1651  0.2819  0.0103
  580MOL0     O78168   8.172   9.203  10.526  0.7377  0.5255  0.2656
  580MOL0     C78169   8.238   9.182  10.411 -0.4523  0.8928  0.6140
  580MOL0     C78170   8.314   9.277  10.332  0.6924 -0.1338  0.0642
  580MOL0     C78171   8.350   9.232  10.203 -0.9278 -0.1232 -0.1022
  580MOL0     C78172   8.339   9.096  10.169  0.1342  1.3828 -0.4871
  580MOL0     O78173   8.383   9.044  10.047  0.5476 -0.8389 -0.1041
  580MOL0     C78174   8.456   9.125   9.953 -0.5419  0.2256 -0.1539
  580MOL0     C78175   8.534   9.034   9.850 -0.1343 -0.4399 -0.1634
  580MOL0     C78176   8.684   9.005   9.871  0.1003 -0.7848 -0.3391
  580MOL0     C78177   8.777   9.120   9.834  0.4959 -0.2213  0.1530
  580MOL0     C78178   8.921   9.072   9.822 -0.8037  0.0668 -0.5597
  580MOL0     C78179   8.985   9.020   9.955  0.0247 -0.1986 -0.8232
  580MOL0     C78180   9.138   9.000   9.932 -0.8070 -0.2007 -0.1388
  580MOL0     C78181   9.212   8.944  10.060 -0.3214 -0.2279  0.2935
  580MOL0     N78182   9.349   8.889  10.024  0.5158 -0.5698  0.0989
  580MOL0     C78183   9.413   8.868   9.903 -0.7550 -0.5411 -0.0891
  580MOL0     C78184   9.538   8.838   9.939 -0.7277  0.8729 -0.2376
  580MOL0     C78185   9.647   8.811   9.844  0.1990  0.5079 -0.8350
  580MOL0     C78186   9.687   8.927   9.753 -0.0494 -0.4135  0.1794
  580MOL0     C78187   9.685   8.900   9.594  0.0646  0.1278 -0.7333
  580MOL0     C78188   9.620   9.020   9.514  0.5714 -0.2362 -0.4248
  580MOL0     O78189   9.478   9.005   9.553 -0.3497  0.3260  0.5464
  580MOL0     C78190   9.383   9.090   9.507 -0.4422  0.8172 -0.0334
  580MOL0     C78191   9.258   9.043   9.535 -0.5174  0.4308  0.1674
  580MOL0     C78192   9.145   9.113   9.494 -0.2674  0.4709 -0.8024
  580MOL0     C78193   9.155   9.241   9.435  0.7616 -0.7764 -0.2130
  580MOL0     C78194   9.037   9.326   9.397 -0.0143 -0.0811 -0.2750
  580MOL0     O78195   8.916   9.255   9.410 -0.0046  0.0582  0.1798
  580MOL0     C78196   8.803   9.278   9.351 -0.6503  0.5228 -0.0113
  580MOL0     C78197   8.676   9.256   9.409  0.3307 -0.7292  0.0341
  580MOL0     C78198   8.562   9.270   9.338  0.2493  0.6080  0.8663
  580MOL0     C78199   8.563   9.309   9.203  1.3255 -0.0161 -0.2515
  580MOL0     O78200   8.446   9.329   9.126 -0.6981 -0.1147  0.1592
  580MOL0     C78201   8.337   9.358   9.205  0.6062 -0.4647 -0.2857
  580MOL0     C78202   8.226   9.370   9.100 -0.2323 -0.5123  0.9388
  580MOL0     C78203   8.102   9.415   9.164 -0.5554  0.5997  0.1245
  580MOL0     C78204   7.983   9.432   9.071  0.1077 -0.2697 -0.1406
  580MOL0     C78205   8.024   9.549   8.983  0.4642 -1.2103 -0.6843
  580MOL0     C78206   8.041   9.684   9.049 -0.8808  0.2890 -0.0824
  580MOL0     C78207   7.938   9.723   9.141  0.5633  0.3308 -0.2721
  580MOL0     C78208   7.941   9.875   9.170  0.2574  0.5200 -0.6331
  580MOL0    Cl78209   7.788   9.894   9.265  0.0910  0.1439  0.0449
  580MOL0     C78210   8.685   9.327   9.137  0.4222  0.4347 -0.3658
  580MOL0     C78211   8.803   9.322   9.211 -0.0544 -1.1890  0.0639
  580MOL0     O78212   9.052   9.443   9.359 -0.0099  0.2651  0.7876
  580MOL0     C78213   9.283   9.281   9.400 -1.4661  0.1532  0.3562
  580MOL0     C78214   9.398   9.204   9.431  0.5944 -0.8113 -0.4829
  580MOL0     N78215   9.551   8.829  10.076 -0.5293  0.1770  0.1549
  580MOL0     N78216   9.432   8.852  10.121  0.0492  0.6658  0.3368
  580MOL0     C78217   8.275   9.004  10.249 -0.3674 -0.2831  0.6283
  580MOL0     C78218   8.217   9.050  10.368 -0.0841 -0.2298  0.3557
  580MOL0     C78219   8.150   9.272  10.759 -0.0397  0.4588 -0.3256
  580MOL0     C78220   8.156   9.386  10.837 -0.3623  0.6972 -0.6146
  580MOL0     C78221   8.082   9.409  10.949  0.4546  0.0067 -0.2161
  580MOL0     C78222   7.983   9.314  10.989  0.8625  0.2575 -0.1493
  580MOL0     O78223   7.918   9.327  11.101  0.5757 -0.0735  0.3432
  580MOL0     C78224   7.799   9.412  11.076 -0.1493 -0.2809 -0.0446
  580MOL0     C78225   7.686   9.338  10.996  0.0261 -0.6697 -0.0891
  580MOL0     C78226   7.619   9.233  11.084 -0.5842  0.7249  0.2215
  580MOL0     C78227   7.517   9.293  11.177 -0.3191  0.3073  0.1556
  580MOL0     C78228   7.483   9.197  11.278 -0.5035  0.3234 -0.3743
  580MOL0     C78229   7.445   9.137  11.379 -0.6682 -0.0984 -0.4773
  580MOL0     C78230   7.990   9.191  10.922  1.2647 -0.5056 -0.1145
  580MOL0     C78231   8.073   9.166  10.806  0.3562 -0.2773 -0.5902
  580MOL0     C78232   8.064   9.023  10.729 -0.1273 -0.6176  0.2408
  580MOL0     H78233   8.334   9.378  10.366  0.4467 -0.7129  2.0539
  580MOL0     H78234   8.374   9.298  10.120 -0.2565  1.5788  1.3682
  580MOL0     H78235   8.385   9.200   9.917 -0.4003  0.7509  0.6448
  580MOL0     H78236   8.530   9.187  10.004  1.0772 -0.6775 -1.2985
  580MOL0     H78237   8.526   9.083   9.753  1.8277 -0.8481 -0.5654
  580MOL0     H78238   8.474   8.942   9.841  2.8743 -2.9798  2.9777
  580MOL0     H78239   8.710   8.919   9.808 -0.6592  0.2195 -2.0812
  580MOL0     H78240   8.695   8.975   9.976 -0.0707  0.2150 -0.0281
  580MOL0     H78241   8.756   9.170   9.739  2.3799 -1.8730 -1.2117
  580MOL0     H78242   8.776   9.196   9.913  2.9844 -1.8645  1.9267
  580MOL0     H78243   8.927   8.998   9.742 -0.4457 -0.6152  0.0875
  580MOL0     H78244   8.968   9.168   9.797 -0.9082  0.5841  1.0540
  580MOL0     H78245   8.964   9.091  10.035 -1.7086 -0.0160 -1.4086
  580MOL0     H78246   8.938   8.923   9.974 -0.6763 -0.3949 -3.2488
  580MOL0     H78247   9.184   9.095   9.904 -2.1736 -0.2282 -2.7825
  580MOL0     H78248   9.161   8.931   9.850  1.2573  2.3690 -1.8790
  580MOL0     H78249   9.235   9.026  10.129  2.1396  1.2997 -2.1059
  580MOL0     H78250   9.148   8.871  10.110  2.2958  0.2303  4.8914
  580MOL0     H78251   9.373   8.880   9.803  0.6078  0.7184 -0.5025
  580MOL0     H78252   9.741   8.784   9.893  0.4503  1.4456 -0.7890
  580MOL0     H78253   9.608   8.735   9.775 -2.5055 -1.4475  2.5521
  580MOL0     H78254   9.619   9.010   9.774  1.1489  0.4335  0.8599
  580MOL0     H78255   9.791   8.954   9.777 -0.3219  3.6816 -2.2172
  580MOL0     H78256   9.631   8.806   9.579  2.6994 -1.4674 -0.9137
  580MOL0     H78257   9.788   8.888   9.558  1.1259  1.6649  1.5335
  580MOL0     H78258   9.623   9.020   9.404 -0.4101 -0.1630 -0.4635
  580MOL0     H78259   9.652   9.120   9.544 -2.7150  0.3451  1.6040
  580MOL0     H78260   9.245   8.957   9.600 -2.6481  1.0067  0.5957
  580MOL0     H78261   9.045   9.072   9.509 -0.4443  1.4998  1.1245
  580MOL0     H78262   8.682   9.221   9.512 -1.4299  0.5281  0.6129
  580MOL0     H78263   8.466   9.252   9.386 -0.8310  0.5068 -1.2433
  580MOL0     H78264   8.306   9.282   9.278  0.8223 -0.3470 -0.0671
  580MOL0     H78265   8.338   9.453   9.259 -2.0402 -1.4774  1.7622
  580MOL0     H78266   8.274   9.448   9.039  0.4873  0.4381  2.6379
  580MOL0     H78267   8.213   9.277   9.044 -0.3223  0.1296 -0.1310
  580MOL0     H78268   8.077   9.343   9.243  1.8914 -2.4596 -1.6581
  580MOL0     H78269   8.111   9.508   9.220  0.5867  1.1587 -0.9351
  580MOL0     H78270   7.893   9.444   9.132  0.3348  0.4345  0.0664
  580MOL0     H78271   7.962   9.339   9.018 -0.4254 -2.3273  3.3649
  580MOL0     H78272   7.945   9.557   8.908 -3.7623  0.2082  3.4694
  580MOL0     H78273   8.112   9.522   8.923  0.5923  1.5206 -1.8450
  580MOL0     H78274   8.131   9.696   9.110 -2.0397  2.5609  1.3244
  580MOL0     H78275   8.048   9.756   8.967 -0.4544 -0.8791 -1.0996
  580MOL0     H78276   7.929   9.660   9.230  1.0855 -1.6051 -1.5314
  580MOL0     H78277   7.839   9.712   9.097 -1.5508 -0.1234  4.0909
  580MOL0     H78278   8.031   9.903   9.226 -1.9750  2.4109  2.3224
  580MOL0     H78279   7.933   9.936   9.079  1.0843  2.5280  0.5644
  580MOL0     H78280   8.694   9.366   9.036  1.9834 -0.5229 -0.6318
  580MOL0     H78281   8.896   9.341   9.160 -0.4878 -0.7374 -0.5710
  580MOL0     H78282   9.299   9.370   9.340 -0.2627  0.3374  0.9227
  580MOL0     H78283   9.501   9.234   9.415  0.7653 -1.7721 -1.2389
  580MOL0     H78284   8.263   8.905  10.205  2.0380 -0.3383 -0.0551
  580MOL0     H78285   8.176   8.973  10.432 -3.0212 -2.1698 -3.4275
  580MOL0     H78286   8.214   9.475  10.817  0.0430 -0.0853 -3.3250
  580MOL0     H78287   8.086   9.510  10.989 -2.1931  1.5925 -3.4936
  580MOL0     H78288   7.831   9.509  11.037  4.8381 -0.3157  3.0837
  580MOL0     H78289   7.774   9.439  11.179  1.9657  1.7712  0.0148
  580MOL0     H78290   7.743   9.287  10.917 -0.0474 -0.0579 -0.5470
  580MOL0     H78291   7.622   9.419  10.961  2.8290  0.8582 -2.2089
  580MOL0     H78292   7.698   9.181  11.138  2.3375  4.1681 -0.3459
  580MOL0     H78293   7.580   9.162  11.010  2.9318 -1.4849  0.2654
  580MOL0     H78294   7.562   9.382  11.222  0.0009  1.0218 -1.4844
  580MOL0     H78295   7.432   9.325  11.116  0.3517  1.8080 -0.0242
  580MOL0     H78296   7.415   9.094  11.473 -1.2395  1.4167  0.0580
  580MOL0     H78297   7.925   9.109  10.951  0.6891  0.2794  0.8587
  580MOL0     H78298   8.010   8.946  10.786 -0.9024  0.8587  1.5951
  580MOL0     H78299   8.028   9.033  10.627  3.0355 -1.8486 -1.1048
  580MOL0     H78300   8.165   8.982  10.721 -1.1838 -3.1759 -0.9146
  581MOL0     O78301   8.278   9.592  10.230  1.1810 -0.4609 -0.3760
  581MOL0     C78302   8.328   9.650  10.326 -0.0105  0.9096  0.4694
  581MOL0     O78303   8.464   9.677  10.339 -0.5738 -0.3646  0.1249
  581MOL0     C78304   8.563   9.651  10.242  0.1128  0.5775  0.3303
  581MOL0     C78305   8.544   9.569  10.127 -0.0289 -0.5901  0.6620
  581MOL0     C78306   8.650   9.551  10.032 -0.2457 -0.4881 -0.0779
  581MOL0     C78307   8.783   9.589  10.067 -0.4869 -0.0661  0.9168
  581MOL0     O78308   8.897   9.563   9.994  0.3053 -0.1087  0.3006
  581MOL0     C78309   8.886   9.517   9.857 -1.1440 -0.2685 -0.2461
  581MOL0     C78310   9.025   9.483   9.799  0.7574  0.3958 -0.6242
  581MOL0     C78311   9.128   9.601   9.799  0.3797  0.7823 -0.3242
  581MOL0     C78312   9.258   9.533   9.767  0.2804 -0.0547 -0.3967
  581MOL0     C78313   9.380   9.636   9.758 -0.4024  1.0078 -0.1804
  581MOL0     C78314   9.497   9.556   9.687  0.6460 -0.1752  0.1027
  581MOL0     C78315   9.626   9.620   9.732 -0.0342 -0.0354 -0.8815
  581MOL0     C78316   9.725   9.506   9.760 -0.1695  0.0046  0.2808
  581MOL0     N78317   9.782   9.442   9.640  0.4203  1.0545  0.3909
  581MOL0     C78318   9.904   9.377   9.652  0.5443  0.4916  0.3559
  581MOL0     C78319   9.937   9.333   9.529  0.4087  0.8508  0.3001
  581MOL0     C78320  10.044   9.237   9.512 -0.3224 -0.6040 -0.0744
  581MOL0     C78321   9.985   9.099   9.537 -0.0514  0.3740  0.3006
  581MOL0     C78322  10.071   8.988   9.475 -0.0241  0.6882 -0.0870
  581MOL0     C78323  10.147   8.905   9.579 -0.1340 -0.1830 -0.5401
  581MOL0     O78324  10.242   8.998   9.630  0.2507  0.1118 -0.3596
  581MOL0     C78325  10.357   8.951   9.689 -0.6270  1.0234  0.2967
  581MOL0     C78326  10.452   9.051   9.722  0.1807  0.0396  0.0494
  581MOL0     C78327  10.577   9.031   9.775 -0.0913  0.1815  0.6600
  581MOL0     C78328  10.605   8.906   9.817  0.2780  0.6123 -0.2123
  581MOL0     C78329  10.723   8.883   9.893  0.0696 -0.8517  0.1743
  581MOL0     O78330  10.831   8.968   9.861  0.4417  0.4711 -0.3508
  581MOL0     C78331  10.956   8.913   9.878  0.1994  0.0424 -0.2970
  581MOL0     C78332  11.032   8.880   9.764  0.2855  0.4996  0.0520
  581MOL0     C78333  11.169   8.846   9.777  0.7924  0.1092  0.5083
  581MOL0     C78334  11.225   8.835   9.901 -0.9372 -0.8384 -0.6043
  581MOL0     O78335  11.357   8.803   9.906  0.7769 -0.1430 -0.3196
  581MOL0     C78336  11.425   8.904   9.984  0.6900 -0.7017  0.2956
  581MOL0     C78337  11.568   8.914   9.933  0.5566 -0.0492 -0.7960
  581MOL0     C78338  11.627   9.039  10.003  0.0711 -0.2411  0.3845
  581MOL0     C78339  11.777   9.067   9.980 -0.3141 -1.0467 -0.2199
  581MOL0     C78340  11.814   9.203  10.041 -0.6581  1.1071  0.4895
  581MOL0     C78341  11.964   9.215  10.046 -0.8483  0.7154 -0.7896
  581MOL0     C78342  11.996   9.358  10.088  0.1571  0.3344  0.9633
  581MOL0     C78343  12.036   9.383  10.230  0.3111  0.2626  0.1347
  581MOL0    Cl78344  12.202   9.323  10.271  0.2215  0.3846  0.1594
  581MOL0     C78345  11.154   8.872  10.014 -0.5653 -1.0306  0.3053
  581MOL0     C78346  11.026   8.917  10.001 -0.3454 -0.5697 -0.4679
  581MOL0     O78347  10.733   8.782   9.972  0.2461 -0.2672  0.8629
  581MOL0     C78348  10.513   8.807   9.798  0.7570  0.6345 -0.3345
  581MOL0     C78349  10.392   8.822   9.732 -0.1971  0.3509 -0.0588
  581MOL0     N78350   9.838   9.373   9.442 -0.1278  0.6727 -0.3430
  581MOL0     N78351   9.753   9.448   9.503  0.2068  0.4796 -0.3061
  581MOL0     C78352   8.802   9.657  10.192  0.0184 -0.6886  0.0913
  581MOL0     C78353   8.696   9.691  10.280 -0.6209  0.6125  1.0016
  581MOL0     C78354   8.242   9.684  10.436  0.5912 -0.0418  0.5774
  581MOL0     C78355   8.099   9.702  10.424 -0.2711  0.4474  0.2924
  581MOL0     C78356   8.018   9.754  10.518 -0.3399 -0.2530 -0.7554
  581MOL0     C78357   8.067   9.784  10.645  1.2473 -0.0843 -0.2704
  581MOL0     O78358   7.984   9.834  10.751  0.0821 -0.4306 -0.4170
  581MOL0     C78359   7.841   9.837  10.739  0.5429  0.3022  0.2216
  581MOL0     C78360   7.781   9.979  10.731  0.4611  0.2878  0.0775
  581MOL0     C78361   7.627   9.986  10.731  0.2001  1.0723  0.0784
  581MOL0     C78362   7.575  10.102  10.810  0.4497 -0.0471 -0.0595
  581MOL0     C78363   7.610  10.231  10.736 -0.1039  0.3573 -1.2247
  581MOL0     C78364   7.641  10.335  10.681  0.3576  0.8467  1.0772
  581MOL0     C78365   8.209   9.761  10.668  0.3264  0.2777 -0.3268
  581MOL0     C78366   8.294   9.712  10.568 -0.2760  0.3691  0.6840
  581MOL0     C78367   8.437   9.713  10.619 -0.3307  1.1233 -0.5117
  581MOL0     H78368   8.448   9.538  10.089 -0.5029  1.8517 -0.3207
  581MOL0     H78369   8.633   9.509   9.933  1.1969 -4.2768  1.1051
  581MOL0     H78370   8.821   9.429   9.852 -2.2000  0.4153  0.7934
  581MOL0     H78371   8.843   9.593   9.791 -1.6767 -0.6464 -0.3444
  581MOL0     H78372   9.013   9.462   9.693  0.5117  1.5245 -0.8359
  581MOL0     H78373   9.057   9.398   9.859  1.1249  0.0439 -1.3169
  581MOL0     H78374   9.139   9.663   9.889 -2.0960  0.7710  0.0368
  581MOL0     H78375   9.096   9.679   9.729  0.2355 -0.8620 -2.1744
  581MOL0     H78376   9.279   9.454   9.839 -2.9232 -0.1336  0.6054
  581MOL0     H78377   9.245   9.477   9.674 -1.8119 -1.5678  0.7244
  581MOL0     H78378   9.359   9.715   9.684  2.3233 -0.2714 -2.5131
  581MOL0     H78379   9.402   9.685   9.854 -1.1726 -0.9357  1.0448
  581MOL0     H78380   9.498   9.455   9.730 -0.9716 -0.7692 -1.1775
  581MOL0     H78381   9.481   9.556   9.579 -0.6376  1.1367  0.2649
  581MOL0     H78382   9.613   9.664   9.831  1.7905 -2.4600  0.5374
  581MOL0     H78383   9.662   9.698   9.664  3.7001 -2.0514 -1.4609
  581MOL0     H78384   9.806   9.547   9.821  0.4348  3.1690 -2.3250
  581MOL0     H78385   9.676   9.435   9.827  1.2980 -2.5319 -1.1873
  581MOL0     H78386   9.965   9.366   9.741  1.7189 -3.2567 -0.7224
  581MOL0     H78387  10.068   9.252   9.407  1.1320 -3.4300 -0.2562
  581MOL0     H78388  10.119   9.250   9.590  0.3483 -1.4194 -0.5723
  581MOL0     H78389   9.959   9.081   9.642 -3.6825  0.6528 -0.4486
  581MOL0     H78390   9.890   9.108   9.484 -0.4416 -1.5270  0.5817
  581MOL0     H78391  10.140   9.021   9.397 -0.7689  0.5541 -0.8171
  581MOL0     H78392  10.003   8.916   9.427  0.3552  1.2594 -1.5232
  581MOL0     H78393  10.187   8.817   9.526 -1.2323 -0.4871 -0.8822
  581MOL0     H78394  10.087   8.879   9.666 -1.1941  2.1954 -0.5027
  581MOL0     H78395  10.434   9.151   9.684  1.1973  0.9181  1.7262
  581MOL0     H78396  10.640   9.119   9.781 -0.1168  0.0957  2.8565
  581MOL0     H78397  10.989   8.888   9.665 -0.6215  0.6592  0.4501
  581MOL0     H78398  11.240   8.818   9.700  1.7831 -2.1684  2.1162
  581MOL0     H78399  11.383   9.003   9.966 -0.6756 -0.5036  3.7027
  581MOL0     H78400  11.431   8.890  10.093 -4.1272 -1.6829  0.6406
  581MOL0     H78401  11.601   8.820   9.978 -1.6674 -0.0516  1.0489
  581MOL0     H78402  11.577   8.929   9.825 -1.5913  0.2622 -0.9803
  581MOL0     H78403  11.575   9.128   9.966 -1.4673  0.2333  3.3320
  581MOL0     H78404  11.599   9.035  10.109 -0.6097  0.3692  0.2305
  581MOL0     H78405  11.809   9.059   9.875 -0.8825 -0.8299 -0.4130
  581MOL0     H78406  11.836   8.985  10.023  1.2321 -0.2946 -0.8177
  581MOL0     H78407  11.783   9.196  10.146  2.6435 -1.7387  1.4772
  581MOL0     H78408  11.775   9.283   9.978  1.0377  0.5292 -1.3990
  581MOL0     H78409  12.013   9.145  10.115  0.5085  0.5259 -1.8911
  581MOL0     H78410  12.005   9.206   9.945  0.1408  0.6688 -0.3968
  581MOL0     H78411  11.915   9.420  10.049 -1.0710 -1.0895  1.1335
  581MOL0     H78412  12.083   9.389  10.029 -1.9751  1.6377 -1.7354
  581MOL0     H78413  12.015   9.488  10.252  2.2144  0.9271 -0.9637
  581MOL0     H78414  11.971   9.320  10.292  2.3906 -2.4445 -0.2269
  581MOL0     H78415  11.208   8.874  10.107 -1.1613 -2.0051  0.6844
  581MOL0     H78416  10.986   8.943  10.098  0.1348 -0.6879 -0.2374
  581MOL0     H78417  10.540   8.711   9.840 -1.1274  1.2313  2.5776
  581MOL0     H78418  10.315   8.746   9.719 -0.4771  0.3145  1.5704
  581MOL0     H78419   8.907   9.678  10.211 -0.2743 -0.8878  2.1414
  581MOL0     H78420   8.706   9.762  10.362 -2.2007  0.9819  0.9073
  581MOL0     H78421   8.056   9.677  10.327 -2.5882  0.1798  1.3197
  581MOL0     H78422   7.914   9.763  10.486 -0.2184  0.1723 -1.0291
  581MOL0     H78423   7.801   9.791  10.830 -0.1527  1.7826  0.7004
  581MOL0     H78424   7.798   9.765  10.669 -0.9383  2.8687 -1.6585
  581MOL0     H78425   7.828  10.030  10.646 -1.1644  0.2415 -0.8796
  581MOL0     H78426   7.810  10.031  10.823  0.0343 -0.9039  0.9121
  581MOL0     H78427   7.593   9.904  10.795  1.8225 -0.0576 -0.4451
  581MOL0     H78428   7.573   9.994  10.636 -0.8672 -0.8740  0.4741
  581MOL0     H78429   7.466  10.104  10.801  0.5073  0.7411 -0.7606
  581MOL0     H78430   7.591  10.096  10.918 -1.2087  0.9725  0.2821
  581MOL0     H78431   7.685  10.413  10.624  0.6421 -0.5271 -0.6789
  581MOL0     H78432   8.250   9.794  10.764 -0.4957 -1.0005  0.4919
  581MOL0     H78433   8.470   9.610  10.605 -1.9085  0.6736 -1.1790
  581MOL0     H78434   8.489   9.787  10.557 -2.6477  0.2247 -3.8225
  581MOL0     H78435   8.446   9.739  10.724  0.9482 -0.0850 -0.2976
  582MOL0     O78436   8.880   0.799   5.620  0.1315  0.4834  0.2831
  582MOL0     C78437   8.853   0.908   5.666  0.3139 -1.3199  0.1293
  582MOL0     O78438   8.897   1.030   5.624 -0.1252  0.2359  0.4381
  582MOL0     C78439   9.013   1.017   5.550 -0.2305 -0.8732 -0.3169
  582MOL0     C78440   9.004   0.993   5.412  0.0348 -1.2073  0.3856
  582MOL0     C78441   9.128   0.997   5.332 -0.0579  0.2235  0.5239
  582MOL0     C78442   9.248   1.027   5.392 -0.6963 -0.3543  0.2866
  582MOL0     O78443   9.360   1.023   5.315  0.4774  0.8210  0.3735
  582MOL0     C78444   9.475   0.961   5.365 -0.0682  0.2010 -0.3865
  582MOL0     C78445   9.586   0.916   5.268 -0.5328  0.2706 -1.4068
  582MOL0     C78446   9.537   0.817   5.171  0.5280 -0.2297  0.0755
  582MOL0     C78447   9.518   0.673   5.223  0.3554  0.4255 -1.0128
  582MOL0     C78448   9.459   0.567   5.128  0.0611  0.0151 -0.0565
  582MOL0     C78449   9.557   0.553   5.016 -0.5801  0.2396  0.7090
  582MOL0     C78450   9.505   0.448   4.914  0.5309  0.6589  0.1769
  582MOL0     C78451   9.375   0.492   4.838 -0.0493 -0.7416 -0.7755
  582MOL0     N78452   9.416   0.590   4.737  0.2030  0.1561  0.6110
  582MOL0     C78453   9.405   0.722   4.742  0.0081 -0.5736  0.4862
  582MOL0     C78454   9.460   0.764   4.631 -0.2560  0.0640 -0.4887
  582MOL0     C78455   9.477   0.912   4.591 -1.0060 -0.3499 -1.0327
  582MOL0     C78456   9.431   0.938   4.447  0.0762 -0.0891 -0.1824
  582MOL0     C78457   9.399   1.087   4.421 -0.7091  0.3334  0.4931
  582MOL0     C78458   9.524   1.172   4.412  0.5754  0.0880 -0.1347
  582MOL0     O78459   9.591   1.197   4.540  0.2260  0.6087 -0.2816
  582MOL0     C78460   9.722   1.236   4.550 -0.4432 -0.3238  0.1928
  582MOL0     C78461   9.799   1.287   4.445  0.1463 -0.6533  0.6556
  582MOL0     C78462   9.942   1.289   4.458  0.1638  0.2666 -0.2321
  582MOL0     C78463  10.007   1.260   4.581  0.2260 -0.0903  0.5768
  582MOL0     C78464  10.150   1.244   4.599 -0.9234  0.0425  0.2055
  582MOL0     O78465  10.192   1.228   4.724  0.1203  0.2760  0.5474
  582MOL0     C78466  10.329   1.225   4.740 -0.1817 -0.0765 -0.3806
  582MOL0     C78467  10.407   1.339   4.720  0.2394  0.7222 -1.1267
  582MOL0     C78468  10.547   1.329   4.738 -0.3784 -0.7652 -0.1572
  582MOL0     C78469  10.612   1.214   4.774  0.2840 -0.7537  0.2990
  582MOL0     O78470  10.755   1.218   4.772  0.1031  0.0490  0.7366
  582MOL0     C78471  10.814   1.172   4.891  0.1658 -0.0171 -0.4926
  582MOL0     C78472  10.897   1.060   4.858 -0.2773 -0.1345 -0.7572
  582MOL0     C78473  11.023   1.114   4.774 -0.2024  0.0158 -1.2738
  582MOL0     C78474  11.137   1.183   4.860  0.5071  0.7667 -0.0881
  582MOL0     C78475  11.261   1.227   4.775  1.1713  0.0241 -0.1757
  582MOL0     C78476  11.341   1.322   4.860 -0.1198 -0.9713 -0.1372
  582MOL0     C78477  11.423   1.253   4.966  1.3233 -0.6904  0.0895
  582MOL0     C78478  11.529   1.325   5.061 -0.3367 -0.2616  0.1871
  582MOL0    Cl78479  11.668   1.376   4.970 -0.1973  0.0519  0.7037
  582MOL0     C78480  10.537   1.105   4.793  0.5247  0.1410  0.5689
  582MOL0     C78481  10.397   1.107   4.777  0.4873  1.3997 -0.0517
  582MOL0     O78482  10.228   1.253   4.496  0.1696 -0.2703  0.5322
  582MOL0     C78483   9.925   1.222   4.684 -0.0470  0.8751 -0.7253
  582MOL0     C78484   9.788   1.220   4.673  0.7454  0.1884 -0.6953
  582MOL0     N78485   9.510   0.653   4.560  0.2101  0.7946 -0.3570
  582MOL0     N78486   9.472   0.548   4.621 -0.3947  0.7665  0.0488
  582MOL0     C78487   9.253   1.057   5.532 -0.5727  0.5643 -1.1014
  582MOL0     C78488   9.132   1.050   5.613  0.1668 -0.2033  0.7107
  582MOL0     C78489   8.769   0.919   5.783  0.6181 -0.4476  0.0607
  582MOL0     C78490   8.778   1.020   5.874 -0.2515 -0.0890 -0.8351
  582MOL0     C78491   8.709   1.022   6.001  0.3203 -0.2495  0.4852
  582MOL0     C78492   8.623   0.916   6.032 -0.9171  0.0585 -0.2068
  582MOL0     O78493   8.543   0.907   6.148  0.1110 -0.8348 -0.7839
  582MOL0     C78494   8.528   1.029   6.216 -0.7085  0.5024  0.4075
  582MOL0     C78495   8.408   1.020   6.311  0.0575  0.1895 -0.0333
  582MOL0     C78496   8.404   1.135   6.403 -0.4613 -0.2660  0.4156
  582MOL0     C78497   8.502   1.110   6.521  0.7364  0.5210 -0.1612
  582MOL0     C78498   8.520   1.233   6.598 -0.5038 -0.3663  0.3503
  582MOL0     C78499   8.541   1.338   6.649  0.4271 -0.0710 -0.2446
  582MOL0     C78500   8.606   0.821   5.931 -0.8352  0.3558 -0.9358
  582MOL0     C78501   8.664   0.821   5.804  0.0027  0.2538  0.1890
  582MOL0     C78502   8.627   0.709   5.710  1.1932 -0.0577  0.8146
  582MOL0     H78503   8.914   0.967   5.357 -2.6623  1.5448  3.1185
  582MOL0     H78504   9.114   0.971   5.227  0.9425  0.5591  0.3057
  582MOL0     H78505   9.529   1.033   5.427  1.3283 -1.3501  0.3101
  582MOL0     H78506   9.442   0.874   5.424 -0.8570  1.3433  0.9120
  582MOL0     H78507   9.667   0.875   5.330  0.3203  2.6359 -0.8275
  582MOL0     H78508   9.626   1.006   5.219  2.2826 -0.1312 -0.0742
  582MOL0     H78509   9.595   0.822   5.078 -1.5762 -2.2412 -1.4613
  582MOL0     H78510   9.437   0.851   5.141  0.8899 -0.3292 -1.3192
  582MOL0     H78511   9.615   0.637   5.258  0.4111  1.2018 -0.3423
  582MOL0     H78512   9.453   0.678   5.310 -0.7824  0.9720 -1.8578
  582MOL0     H78513   9.446   0.476   5.188  5.3256 -0.0013  1.6231
  582MOL0     H78514   9.361   0.600   5.093 -0.0229 -2.3591 -2.3029
  582MOL0     H78515   9.571   0.645   4.959  0.9087 -1.5685 -2.0663
  582MOL0     H78516   9.650   0.519   5.062 -1.2916 -0.7198  1.4787
  582MOL0     H78517   9.467   0.359   4.966 -1.0222  0.3800 -1.3290
  582MOL0     H78518   9.577   0.417   4.839 -0.0890 -1.7197  0.4736
  582MOL0     H78519   9.336   0.396   4.806  1.8497 -1.8692  0.0937
  582MOL0     H78520   9.298   0.537   4.901 -0.4107 -0.5658 -1.3337
  582MOL0     H78521   9.369   0.781   4.827  2.1809  0.7239  0.5713
  582MOL0     H78522   9.411   0.968   4.658 -1.9199  0.0779 -2.2591
  582MOL0     H78523   9.581   0.945   4.602 -0.4503  0.1151 -5.6131
  582MOL0     H78524   9.511   0.909   4.378  0.7869  0.0920  0.5499
  582MOL0     H78525   9.339   0.879   4.448  0.3796 -0.5760  0.9984
  582MOL0     H78526   9.320   1.121   4.488  0.6491 -0.2824  2.4873
  582MOL0     H78527   9.348   1.090   4.324  0.1375  1.2310  0.0632
  582MOL0     H78528   9.492   1.269   4.372  2.2113  2.0396  2.9150
  582MOL0     H78529   9.596   1.131   4.341  0.8074  0.5796 -0.1923
  582MOL0     H78530   9.754   1.307   4.348 -4.3118 -1.8068  2.2549
  582MOL0     H78531   9.994   1.331   4.372 -1.1036 -0.4615 -1.4026
  582MOL0     H78532  10.369   1.429   4.673  0.0459  0.3529 -1.6916
  582MOL0     H78533  10.623   1.402   4.711 -1.1006 -0.2283 -0.7603
  582MOL0     H78534  10.873   1.251   4.939 -0.3433 -2.1962  4.3108
  582MOL0     H78535  10.739   1.147   4.966 -0.2829 -0.8874 -1.2129
  582MOL0     H78536  10.926   1.019   4.955  2.2569  2.1383 -0.3905
  582MOL0     H78537  10.850   0.992   4.787 -0.2540  0.2868 -1.1914
  582MOL0     H78538  11.073   1.027   4.730  2.1144 -0.0137  1.1865
  582MOL0     H78539  10.995   1.174   4.687  1.5864  0.3027 -1.6906
  582MOL0     H78540  11.174   1.110   4.932 -0.6167 -0.9080 -1.1167
  582MOL0     H78541  11.095   1.259   4.926 -2.1072 -1.4746  1.0062
  582MOL0     H78542  11.239   1.277   4.680  0.7400 -5.1593 -3.2320
  582MOL0     H78543  11.328   1.143   4.754  1.6371  0.2794  0.2892
  582MOL0     H78544  11.418   1.373   4.801 -0.6361  2.5701  1.9476
  582MOL0     H78545  11.273   1.398   4.898  2.7732  0.6871  2.1240
  582MOL0     H78546  11.484   1.181   4.911 -2.3715 -1.6658 -3.2283
  582MOL0     H78547  11.353   1.199   5.031 -0.7695  3.0383  1.2959
  582MOL0     H78548  11.479   1.409   5.109 -2.6051 -1.7861  0.6701
  582MOL0     H78549  11.546   1.250   5.140  1.0585 -1.6200 -1.3130
  582MOL0     H78550  10.597   1.022   4.830  1.7255  1.2669  1.1877
  582MOL0     H78551  10.348   1.022   4.825 -0.5922  2.5093  0.8901
  582MOL0     H78552   9.964   1.179   4.776  0.4634 -2.9973 -2.5321
  582MOL0     H78553   9.729   1.193   4.760  1.6495  0.6870  0.0929
  582MOL0     H78554   9.347   1.092   5.573 -0.3169 -3.6534  2.5983
  582MOL0     H78555   9.141   1.079   5.717 -1.3914 -0.2789  0.8961
  582MOL0     H78556   8.837   1.111   5.869 -0.7832  0.3801  0.6398
  582MOL0     H78557   8.727   1.094   6.080 -1.1439  0.4698  0.1944
  582MOL0     H78558   8.514   1.103   6.137  1.6702 -1.1965 -1.7342
  582MOL0     H78559   8.623   1.042   6.268  0.9294 -2.3259 -1.6411
  582MOL0     H78560   8.402   0.926   6.367  1.8838 -0.9578 -1.6609
  582MOL0     H78561   8.317   1.035   6.252  0.5846 -0.4409 -1.0343
  582MOL0     H78562   8.301   1.142   6.438 -1.6610  0.7781 -2.8755
  582MOL0     H78563   8.412   1.235   6.359  1.0478 -1.2056 -1.6163
  582MOL0     H78564   8.458   1.042   6.595  2.5334 -0.6400 -0.1191
  582MOL0     H78565   8.600   1.074   6.491  1.3775 -0.1967  2.6052
  582MOL0     H78566   8.546   1.437   6.690 -1.7963 -0.5917  1.4052
  582MOL0     H78567   8.549   0.735   5.965  0.3803 -0.3372 -0.5834
  582MOL0     H78568   8.717   0.647   5.709  1.7474  0.6491 -2.1471
  582MOL0     H78569   8.534   0.652   5.722  1.2119 -0.1244  0.6502
  582MOL0     H78570   8.609   0.751   5.611  1.1292  4.2401  2.4465
  583MOL0     O78571   1.305   8.378   3.233 -0.2429  0.8011 -0.9155
  583MOL0     C78572   1.298   8.338   3.350  0.2038 -0.2031 -0.5673
  583MOL0     O78573   1.177   8.312   3.419 -0.9039  0.2262 -0.5147
  583MOL0     C78574   1.072   8.303   3.329 -0.6866 -0.1383 -0.3013
  583MOL0     C78575   1.007   8.184   3.311 -0.2948  0.0050 -0.0978
  583MOL0     C78576   0.898   8.178   3.228 -0.3391  0.1631 -0.3446
  583MOL0     C78577   0.843   8.286   3.163  0.4508  0.4328  0.1639
  583MOL0     O78578   0.745   8.269   3.069  0.3828 -0.2715  0.3151
  583MOL0     C78579   0.758   8.352   2.953  0.3387  0.1904 -0.2108
  583MOL0     C78580   0.640   8.448   2.950 -0.2409  0.1548  0.0776
  583MOL0     C78581   0.497   8.395   2.921 -0.3203 -0.0025  0.2987
  583MOL0     C78582   0.445   8.436   2.782  0.3130  0.5988 -0.6708
  583MOL0     C78583   0.324   8.354   2.743  0.4231  0.7918  0.9461
  583MOL0     C78584   0.185   8.400   2.801 -0.4130 -0.0209 -0.1883
  583MOL0     C78585   0.072   8.334   2.731 -0.5067  0.2350  0.1154
  583MOL0     C78586  -0.041   8.298   2.837 -0.7141  0.2474 -0.1893
  583MOL0     N78587  -0.005   8.192   2.938 -0.0640  0.8022  0.3710
  583MOL0     C78588   0.063   8.074   2.902 -0.3382 -0.9029 -0.7786
  583MOL0     C78589   0.040   7.990   3.007  0.8722  0.2926  0.7141
  583MOL0     C78590   0.084   7.847   2.995 -0.0148  0.2617 -0.3841
  583MOL0     C78591  -0.033   7.760   2.936 -0.4106 -0.7342  0.5527
  583MOL0     C78592  -0.059   7.633   3.018 -0.5228  0.9238 -0.2393
  583MOL0     C78593   0.061   7.530   3.046  0.2856 -0.8109  0.2563
  583MOL0     O78594   0.135   7.525   2.928 -0.0855  0.7659 -0.3230
  583MOL0     C78595   0.225   7.413   2.933 -0.2855 -0.3204  0.2544
  583MOL0     C78596   0.360   7.435   2.986  0.1592 -0.0474  0.0938
  583MOL0     C78597   0.450   7.327   2.982  0.7069  0.0012 -0.4220
  583MOL0     C78598   0.402   7.205   2.924  0.5222  0.9200  0.9458
  583MOL0     C78599   0.490   7.084   2.920 -0.2756  0.7386 -0.0868
  583MOL0     O78600   0.437   6.957   2.891 -0.7965 -0.3509  0.1927
  583MOL0     C78601   0.500   6.838   2.905  0.3745 -0.1666  1.1265
  583MOL0     C78602   0.637   6.807   2.881 -0.0516 -0.1297 -0.0403
  583MOL0     C78603   0.685   6.675   2.897 -0.1368  0.2510  0.3460
  583MOL0     C78604   0.611   6.577   2.958  0.1708  0.3439 -0.0785
  583MOL0     O78605   0.667   6.452   2.973  0.3787  0.4486 -0.3137
  583MOL0     C78606   0.769   6.443   3.073 -0.4707 -0.4800  0.3694
  583MOL0     C78607   0.833   6.303   3.084 -0.0248  0.2636 -0.3279
  583MOL0     C78608   0.742   6.196   3.128  0.4076 -0.0767  0.1607
  583MOL0     C78609   0.816   6.067   3.158  0.2204 -0.2617 -0.1734
  583MOL0     C78610   0.712   5.968   3.215  0.1114 -0.3231  0.1471
  583MOL0     C78611   0.595   5.931   3.127 -0.1997 -0.3672  0.7412
  583MOL0     C78612   0.479   5.857   3.186  0.5682  1.0899  0.6912
  583MOL0     C78613   0.492   5.705   3.202  0.6435 -0.4108  0.2169
  583MOL0    Cl78614   0.343   5.644   3.271  0.8872  0.3660 -0.0261
  583MOL0     C78615   0.473   6.602   2.979  0.5276 -0.2526  0.4512
  583MOL0     C78616   0.420   6.733   2.953 -0.2014  0.9756 -1.0942
  583MOL0     O78617   0.604   7.101   2.958  0.1264  0.0892 -1.3998
  583MOL0     C78618   0.271   7.188   2.880 -0.7565 -0.7615 -0.0225
  583MOL0     C78619   0.181   7.290   2.895 -0.2282  0.2744 -0.0584
  583MOL0     N78620  -0.043   8.054   3.108  0.5293  0.3104  0.6341
  583MOL0     N78621  -0.062   8.169   3.058 -0.0285  0.2713  0.4338
  583MOL0     C78622   0.899   8.412   3.187 -0.8470 -0.3834  0.1656
  583MOL0     C78623   1.008   8.419   3.276  0.0955  0.3695 -1.4764
  583MOL0     C78624   1.418   8.294   3.414 -0.6596 -1.0337  0.0111
  583MOL0     C78625   1.501   8.220   3.333 -0.0246  0.5260  0.0633
  583MOL0     C78626   1.604   8.146   3.395 -0.0976 -0.9670  0.7121
  583MOL0     C78627   1.636   8.158   3.530  0.1194  0.7584 -0.0613
  583MOL0     O78628   1.758   8.108   3.564  0.4024 -0.5952 -0.2562
  583MOL0     C78629   1.799   8.109   3.696  0.1687  0.0479  0.1869
  583MOL0     C78630   1.902   8.015   3.735  0.2866 -0.4135 -0.0896
  583MOL0     C78631   1.859   7.872   3.726 -0.5974 -0.6196 -1.4718
  583MOL0     C78632   1.949   7.774   3.795  0.6726  0.2519  0.7616
  583MOL0     C78633   1.895   7.636   3.760  0.6012  0.7983  0.6363
  583MOL0     C78634   1.863   7.530   3.717  0.2633  0.2636 -0.6055
  583MOL0     C78635   1.551   8.236   3.610 -0.7474 -0.3471 -1.1766
  583MOL0     C78636   1.444   8.304   3.550  0.6850  0.1937 -0.0882
  583MOL0     C78637   1.339   8.356   3.654  0.1585 -0.1421 -0.4306
  583MOL0     H78638   1.033   8.091   3.362 -1.3584  0.2306  0.8930
  583MOL0     H78639   0.838   8.088   3.217 -1.2354  0.8975 -1.7231
  583MOL0     H78640   0.852   8.407   2.942  1.0923 -0.9908  0.1578
  583MOL0     H78641   0.765   8.282   2.870  5.8636 -0.8088  0.7347
  583MOL0     H78642   0.650   8.534   2.884 -0.4522 -1.4008 -2.0903
  583MOL0     H78643   0.649   8.493   3.049 -0.7161 -1.2425  0.7880
  583MOL0     H78644   0.430   8.438   2.997  0.4851  0.8909  0.5256
  583MOL0     H78645   0.510   8.287   2.933  5.5890  0.3586 -0.0229
  583MOL0     H78646   0.416   8.541   2.796  0.3179  0.7451 -1.7015
  583MOL0     H78647   0.513   8.410   2.701  0.2242  0.0569 -0.5710
  583MOL0     H78648   0.313   8.358   2.634 -2.2176  1.6890  1.1548
  583MOL0     H78649   0.347   8.249   2.764  1.7386  0.8464 -0.1277
  583MOL0     H78650   0.191   8.358   2.902  2.0855  1.5442  0.4069
  583MOL0     H78651   0.168   8.508   2.807  1.8559  0.4533 -1.1602
  583MOL0     H78652   0.120   8.246   2.687  0.4597  0.2477  1.0917
  583MOL0     H78653   0.033   8.384   2.643 -0.7960 -0.8400 -0.3796
  583MOL0     H78654  -0.075   8.388   2.890  2.1483  1.9977 -1.1146
  583MOL0     H78655  -0.132   8.255   2.792  0.5483 -3.4177  0.4491
  583MOL0     H78656   0.122   8.053   2.814  1.8157  2.3980 -0.3136
  583MOL0     H78657   0.171   7.821   2.933  1.8634 -0.2273  2.2615
  583MOL0     H78658   0.125   7.817   3.092  0.1524 -1.1851 -0.8735
  583MOL0     H78659  -0.119   7.827   2.923  1.3599  1.3823 -1.2769
  583MOL0     H78660  -0.009   7.726   2.835 -0.9144 -1.2806  0.6153
  583MOL0     H78661  -0.130   7.571   2.962  1.0506 -2.7298  1.5034
  583MOL0     H78662  -0.115   7.649   3.111 -1.4536  1.3070 -0.8461
  583MOL0     H78663   0.025   7.427   3.059  4.1458 -2.3897 -0.0581
  583MOL0     H78664   0.112   7.563   3.137 -0.3951 -2.8382  1.4468
  583MOL0     H78665   0.389   7.533   3.022 -0.4590 -1.6135  5.9011
  583MOL0     H78666   0.557   7.345   2.979  0.6856  0.0511 -1.0861
  583MOL0     H78667   0.699   6.890   2.851 -2.1299  1.5999  0.1723
  583MOL0     H78668   0.789   6.665   2.867  0.1522  0.6250  1.1739
  583MOL0     H78669   0.846   6.520   3.061  0.3519 -1.3563 -0.0106
  583MOL0     H78670   0.726   6.475   3.168 -1.3811  4.0956 -1.2797
  583MOL0     H78671   0.878   6.287   2.985 -0.0610 -2.1865 -0.0143
  583MOL0     H78672   0.912   6.308   3.159 -0.8888  0.3383  0.6066
  583MOL0     H78673   0.688   6.228   3.217 -0.1174 -2.6856  0.8713
  583MOL0     H78674   0.674   6.179   3.045  0.1236 -3.1405  0.9040
  583MOL0     H78675   0.886   6.096   3.237 -2.2012 -0.2501  2.1568
  583MOL0     H78676   0.867   6.019   3.075  0.0990 -1.3110  0.3410
  583MOL0     H78677   0.670   6.016   3.304  1.3887  0.4041  0.3754
  583MOL0     H78678   0.749   5.874   3.257 -3.8639 -1.2102  2.2337
  583MOL0     H78679   0.546   6.022   3.091  0.8615 -0.4983 -1.1807
  583MOL0     H78680   0.632   5.886   3.034 -0.8162 -1.4027  0.9770
  583MOL0     H78681   0.395   5.867   3.117  1.0104 -2.6404 -0.6141
  583MOL0     H78682   0.451   5.908   3.279  1.8479  2.8515  0.1455
  583MOL0     H78683   0.519   5.651   3.110  0.7399 -2.2921  1.2958
  583MOL0     H78684   0.578   5.688   3.268  1.3326 -0.6858 -0.7171
  583MOL0     H78685   0.400   6.532   3.019  0.6714 -1.6313 -1.5583
  583MOL0     H78686   0.318   6.761   2.978  0.5984  1.6190  1.8655
  583MOL0     H78687   0.231   7.097   2.837 -0.6235 -0.4077 -0.9101
  583MOL0     H78688   0.083   7.287   2.848  0.3404  1.6188 -1.4109
  583MOL0     H78689   0.868   8.505   3.142 -1.5341 -0.2042  0.9936
  583MOL0     H78690   1.058   8.510   3.306  1.4739 -0.2852 -1.7145
  583MOL0     H78691   1.484   8.213   3.226  1.3810 -0.3281 -0.1410
  583MOL0     H78692   1.675   8.085   3.339  0.7382 -0.2377  0.9641
  583MOL0     H78693   1.713   8.089   3.760 -0.2946  1.5373  0.0606
  583MOL0     H78694   1.841   8.207   3.721  1.4872 -0.1120 -1.3048
  583MOL0     H78695   1.915   8.046   3.839 -2.1352 -0.4626  0.3014
  583MOL0     H78696   2.003   8.025   3.695  1.5194 -1.2413  2.5526
  583MOL0     H78697   1.855   7.847   3.620 -0.6851  0.2178 -1.6655
  583MOL0     H78698   1.764   7.871   3.780  2.2503  1.2433  4.4285
  583MOL0     H78699   2.052   7.791   3.763  0.4355  1.0986  0.4045
  583MOL0     H78700   1.954   7.792   3.903  0.4711  1.3280  0.6082
  583MOL0     H78701   1.826   7.437   3.677 -0.8401 -0.6321  2.2540
  583MOL0     H78702   1.578   8.256   3.713 -0.6361 -0.8576 -1.1035
  583MOL0     H78703   1.390   8.393   3.744 -3.1638  0.8722  1.1902
  583MOL0     H78704   1.279   8.445   3.631 -2.0222 -0.8927  1.8649
  583MOL0     H78705   1.257   8.287   3.673 -1.2552  1.3964 -0.6766
  584MOL0     O78706   6.750   3.362   4.008 -0.0238  0.2126 -0.9403
  584MOL0     C78707   6.728   3.358   4.127  0.7001 -0.6021  0.9732
  584MOL0     O78708   6.826   3.366   4.222 -0.0203 -0.0209 -0.5159
  584MOL0     C78709   6.961   3.395   4.199  0.1127 -0.1843 -0.5060
  584MOL0     C78710   7.004   3.482   4.103  0.0889  0.0542 -0.3007
  584MOL0     C78711   7.133   3.512   4.081 -0.4012 -0.5352 -1.4225
  584MOL0     C78712   7.227   3.487   4.180 -0.4179 -0.7856  0.5038
  584MOL0     O78713   7.363   3.539   4.176  0.4798 -0.0596 -0.2966
  584MOL0     C78714   7.421   3.585   4.295 -0.6311 -0.4497  0.3979
  584MOL0     C78715   7.549   3.669   4.283  0.1425 -0.1704  1.1191
  584MOL0     C78716   7.543   3.795   4.193 -0.4276  0.9204 -0.3540
  584MOL0     C78717   7.682   3.877   4.212  0.6147  0.0398  0.3723
  584MOL0     C78718   7.763   3.850   4.087  1.1444 -0.2424 -1.1824
  584MOL0     C78719   7.901   3.909   4.113 -0.3331  0.9728 -0.2282
  584MOL0     C78720   7.991   3.882   3.987  0.0305 -0.5661  0.6143
  584MOL0     C78721   8.140   3.917   4.030 -0.2641  0.4646  0.4124
  584MOL0     N78722   8.229   3.798   4.019 -0.5830  0.0441 -0.2823
  584MOL0     C78723   8.256   3.729   3.902  0.0263 -0.4431 -0.3703
  584MOL0     C78724   8.342   3.625   3.933 -0.1570 -0.5180 -1.0178
  584MOL0     C78725   8.413   3.536   3.842 -0.5108  0.1419 -0.1539
  584MOL0     C78726   8.316   3.431   3.779  0.1368 -0.0838  0.1014
  584MOL0     C78727   8.392   3.334   3.687  0.0107  0.2475 -1.0641
  584MOL0     C78728   8.518   3.383   3.615  0.3742  0.5471  0.9011
  584MOL0     O78729   8.486   3.510   3.546  0.1003 -0.5516  0.5504
  584MOL0     C78730   8.567   3.550   3.432  0.0345 -1.1541 -0.9176
  584MOL0     C78731   8.528   3.658   3.344 -1.5523  0.3218 -0.8014
  584MOL0     C78732   8.590   3.686   3.218  0.3317 -0.4712 -1.7148
  584MOL0     C78733   8.702   3.617   3.182  0.6758  0.3584 -0.6364
  584MOL0     C78734   8.754   3.632   3.047 -0.5444 -0.1775 -0.0264
  584MOL0     O78735   8.850   3.548   3.016 -0.1464 -0.2145 -0.4931
  584MOL0     C78736   8.925   3.569   2.895  0.3192 -0.4449 -0.0311
  584MOL0     C78737   9.067   3.582   2.898 -0.4498 -0.2326  0.6321
  584MOL0     C78738   9.134   3.598   2.774 -0.0080  0.4502 -0.0676
  584MOL0     C78739   9.060   3.594   2.657  1.2260 -0.6734  0.8042
  584MOL0     O78740   9.143   3.621   2.549 -0.1520 -0.0087 -0.1887
  584MOL0     C78741   9.103   3.591   2.413 -0.7531  1.0740  1.2450
  584MOL0     C78742   9.220   3.629   2.312 -0.1279 -0.3118 -0.8441
  584MOL0     C78743   9.262   3.777   2.326  0.9246 -0.0658 -0.0838
  584MOL0     C78744   9.416   3.795   2.317  0.4102 -0.3753 -0.2430
  584MOL0     C78745   9.467   3.937   2.359  0.5523 -0.2326  0.3490
  584MOL0     C78746   9.413   3.963   2.502  0.3426 -0.6652  0.6337
  584MOL0     C78747   9.499   4.066   2.583  0.0329  0.0770 -0.0408
  584MOL0     C78748   9.456   4.084   2.726  0.1376  0.9103 -0.2083
  584MOL0    Cl78749   9.466   3.939   2.839  0.0674 -0.3197 -0.3680
  584MOL0     C78750   8.923   3.580   2.655  0.1185 -0.6248  0.6848
  584MOL0     C78751   8.858   3.571   2.777  0.3010  0.4592  0.0541
  584MOL0     O78752   8.718   3.729   2.975  0.0703 -0.2879 -0.0442
  584MOL0     C78753   8.762   3.516   3.273  0.2948  0.1505 -1.1169
  584MOL0     C78754   8.678   3.480   3.392 -0.3403  0.0497  0.8425
  584MOL0     N78755   8.356   3.637   4.069  0.1936  0.2604 -0.9022
  584MOL0     N78756   8.302   3.740   4.113  1.0395  0.0007  0.4773
  584MOL0     C78757   7.188   3.392   4.286  0.3613 -0.5434  0.0537
  584MOL0     C78758   7.055   3.354   4.296 -0.4810  0.5856  0.3567
  584MOL0     C78759   6.585   3.351   4.180 -1.2829  0.3801 -1.1465
  584MOL0     C78760   6.561   3.364   4.321  0.1313  0.3781 -0.7846
  584MOL0     C78761   6.434   3.361   4.368  0.1193  0.2170 -0.4607
  584MOL0     C78762   6.325   3.339   4.289  0.1713 -0.2247 -0.2838
  584MOL0     O78763   6.198   3.327   4.332  0.0717  1.0614 -0.1620
  584MOL0     C78764   6.188   3.287   4.471 -0.7229 -1.0737  0.3998
  584MOL0     C78765   6.047   3.246   4.494  0.5187  0.9151  0.1682
  584MOL0     C78766   6.005   3.264   4.644 -0.3805 -0.4505 -0.1767
  584MOL0     C78767   6.037   3.149   4.734 -0.8145 -0.2736  0.1882
  584MOL0     C78768   6.183   3.166   4.770  0.4381  1.1484  0.9949
  584MOL0     C78769   6.293   3.189   4.809 -1.3091  0.4503 -0.2281
  584MOL0     C78770   6.346   3.330   4.152 -0.2396 -0.5873  0.9983
  584MOL0     C78771   6.470   3.338   4.103 -0.3538 -0.0036  1.0183
  584MOL0     C78772   6.472   3.323   3.952  1.0172 -0.5421 -0.3962
  584MOL0     H78773   6.940   3.534   4.032  0.5968 -0.6058 -1.2587
  584MOL0     H78774   7.172   3.577   4.003  2.6786 -0.8520 -0.2958
  584MOL0     H78775   7.357   3.647   4.359  1.7348 -1.8108  4.4667
  584MOL0     H78776   7.445   3.507   4.368 -0.8422  0.0940  1.0609
  584MOL0     H78777   7.626   3.596   4.261 -0.1654 -0.5491  1.2893
  584MOL0     H78778   7.577   3.700   4.384  0.4189  1.4844  0.5635
  584MOL0     H78779   7.453   3.850   4.222 -1.2453 -1.1793  1.2917
  584MOL0     H78780   7.531   3.774   4.086 -0.1194  3.5769 -0.9741
  584MOL0     H78781   7.662   3.984   4.220 -0.5057 -0.2948  3.4343
  584MOL0     H78782   7.733   3.849   4.304 -2.7640 -2.4254  1.6942
  584MOL0     H78783   7.768   3.741   4.084 -0.4999 -0.8292  4.7418
  584MOL0     H78784   7.718   3.886   3.995  0.5238 -3.6226 -2.3582
  584MOL0     H78785   7.907   4.018   4.119  3.2313  1.0909 -2.5781
  584MOL0     H78786   7.941   3.855   4.200  1.2644  2.1972 -0.1509
  584MOL0     H78787   7.963   3.936   3.896  1.0633 -0.6236  0.2555
  584MOL0     H78788   7.981   3.777   3.961  0.1993  0.3500 -4.0116
  584MOL0     H78789   8.175   3.993   3.959  0.2787 -0.8346 -0.7572
  584MOL0     H78790   8.156   3.958   4.130 -2.3374  2.8586 -0.1528
  584MOL0     H78791   8.223   3.756   3.803  2.7018 -0.8199 -1.4592
  584MOL0     H78792   8.455   3.594   3.759 -0.8218  0.9418  0.2416
  584MOL0     H78793   8.483   3.481   3.905 -0.7032 -0.7064 -0.6557
  584MOL0     H78794   8.266   3.378   3.860  0.0796 -0.0177  0.1088
  584MOL0     H78795   8.249   3.494   3.721  1.2636  0.5079 -0.6070
  584MOL0     H78796   8.322   3.284   3.618  0.4081 -0.2947 -1.0818
  584MOL0     H78797   8.420   3.252   3.753  1.4669  1.0447 -0.6555
  584MOL0     H78798   8.547   3.306   3.543 -1.0332 -0.0312  0.9185
  584MOL0     H78799   8.595   3.390   3.692 -0.5785 -2.8655  2.3303
  584MOL0     H78800   8.440   3.720   3.358 -1.8369 -0.1374 -0.5205
  584MOL0     H78801   8.551   3.758   3.146 -0.6065  3.2350  2.0833
  584MOL0     H78802   9.122   3.575   2.992  3.3315  1.5294 -1.2063
  584MOL0     H78803   9.242   3.611   2.774  0.4267 -2.4596  1.1095
  584MOL0     H78804   9.094   3.483   2.405  0.9376  1.0254 -1.0127
  584MOL0     H78805   9.017   3.651   2.382  0.4027  3.1033  1.7182
  584MOL0     H78806   9.297   3.556   2.338 -0.1114 -0.1064 -0.2917
  584MOL0     H78807   9.189   3.615   2.208 -2.6694 -1.3159 -0.0573
  584MOL0     H78808   9.216   3.841   2.250  0.3735 -0.4015 -0.0354
  584MOL0     H78809   9.223   3.806   2.424 -2.5510  0.1100 -1.3924
  584MOL0     H78810   9.453   3.781   2.215  2.0683  4.4195 -0.5232
  584MOL0     H78811   9.464   3.712   2.370 -1.6660 -2.5960 -1.5955
  584MOL0     H78812   9.418   4.010   2.294  1.3723 -0.1185 -0.1534
  584MOL0     H78813   9.576   3.943   2.360  0.7806 -2.9859  1.5974
  584MOL0     H78814   9.307   3.991   2.504  0.8467  1.8518  5.0556
  584MOL0     H78815   9.414   3.871   2.562 -1.4463 -0.2605  1.3425
  584MOL0     H78816   9.496   4.166   2.540  1.9987  1.7265  3.3315
  584MOL0     H78817   9.605   4.044   2.571 -0.1731  0.2929 -3.4058
  584MOL0     H78818   9.505   4.168   2.776 -0.4961  0.1295  1.8127
  584MOL0     H78819   9.350   4.109   2.720 -0.6975 -2.2650 -0.4423
  584MOL0     H78820   8.867   3.575   2.562 -0.0239  0.2932  0.7062
  584MOL0     H78821   8.749   3.577   2.772  0.3254  3.6308  1.0832
  584MOL0     H78822   8.849   3.458   3.248 -0.3315 -2.0769  1.4060
  584MOL0     H78823   8.721   3.406   3.458 -1.8414 -1.2655  0.4019
  584MOL0     H78824   7.259   3.359   4.361 -2.0725 -1.0116  2.2763
  584MOL0     H78825   7.028   3.291   4.381 -1.1426 -0.8264 -0.8567
  584MOL0     H78826   6.645   3.376   4.388 -1.1124 -1.6064  1.2963
  584MOL0     H78827   6.430   3.347   4.476 -2.1909  3.6853  0.0733
  584MOL0     H78828   6.204   3.375   4.534 -1.1870 -0.9441  0.3394
  584MOL0     H78829   6.266   3.222   4.513 -0.8813  0.9104  4.2392
  584MOL0     H78830   6.029   3.143   4.463 -2.1465  1.5431 -0.6953
  584MOL0     H78831   5.970   3.304   4.441 -0.3919 -1.7847 -1.6463
  584MOL0     H78832   5.896   3.278   4.648 -0.1254  1.6335  0.9778
  584MOL0     H78833   6.040   3.362   4.678 -0.1995  0.0559 -1.7623
  584MOL0     H78834   5.981   3.139   4.827  0.7927  2.0345  1.5269
  584MOL0     H78835   6.045   3.053   4.682  0.2827 -0.7688  1.2244
  584MOL0     H78836   6.395   3.213   4.827 -1.8482  2.0415  0.9704
  584MOL0     H78837   6.271   3.327   4.073  2.1071  1.7083 -1.5326
  584MOL0     H78838   6.549   3.258   3.911 -1.3407 -2.8895 -1.3630
  584MOL0     H78839   6.382   3.267   3.927  1.2737 -0.4487 -1.5519
  584MOL0     H78840   6.469   3.418   3.898  0.8065 -0.0580  0.4463
  585MOL0     O78841   3.794   7.198  10.438  0.2017 -0.9669 -0.1740
  585MOL0     C78842   3.805   7.105  10.514 -0.1561  0.0332  0.0536
  585MOL0     O78843   3.700   7.039  10.572 -0.0789  0.4699  0.0119
  585MOL0     C78844   3.567   7.084  10.561  0.7875  0.0793  0.7482
  585MOL0     C78845   3.470   7.032  10.650 -0.6470 -0.0798 -0.7896
  585MOL0     C78846   3.333   7.042  10.643 -0.6160 -0.4516  1.0218
  585MOL0     C78847   3.280   7.118  10.540  0.5821  0.2646  0.8834
  585MOL0     O78848   3.147   7.146  10.525  0.2224 -0.0620  0.3682
  585MOL0     C78849   3.078   7.098  10.408 -0.4029 -0.0202 -0.7156
  585MOL0     C78850   2.953   7.030  10.457  0.0904 -0.3149 -0.1248
  585MOL0     C78851   2.980   6.918  10.560  0.0541 -0.0609 -0.6837
  585MOL0     C78852   3.060   6.801  10.493  0.1596 -0.3051  0.7670
  585MOL0     C78853   3.082   6.683  10.589  0.1495  0.0429  0.0648
  585MOL0     C78854   3.081   6.553  10.523  0.1646 -0.4135  0.0230
  585MOL0     C78855   3.207   6.551  10.416 -0.6643  0.3689  0.3297
  585MOL0     C78856   3.247   6.417  10.348 -0.2230 -0.5984  0.3259
  585MOL0     N78857   3.142   6.314  10.329  0.0398  0.3584  0.2155
  585MOL0     C78858   3.059   6.296  10.223 -1.0331 -0.1558  0.5096
  585MOL0     C78859   2.978   6.197  10.261 -0.9606 -0.4665 -0.3123
  585MOL0     C78860   2.869   6.138  10.175 -0.5003 -0.1732 -0.5056
  585MOL0     C78861   2.910   6.018  10.090 -0.5298 -0.2568  0.1255
  585MOL0     C78862   3.043   6.032  10.010 -0.8490 -0.0834 -0.8760
  585MOL0     C78863   3.078   5.911   9.923 -0.0929  0.2319 -0.2721
  585MOL0     O78864   3.206   5.927   9.848  0.0086 -0.4600  0.1071
  585MOL0     C78865   3.327   5.917   9.913 -0.6226 -0.5149 -0.0049
  585MOL0     C78866   3.450   5.962   9.847 -0.8377 -0.1809  0.3110
  585MOL0     C78867   3.577   5.947   9.901  0.3527 -0.3999  0.5001
  585MOL0     C78868   3.597   5.879  10.020 -0.0564 -0.0490  0.2083
  585MOL0     C78869   3.733   5.865  10.071  0.3937  0.8240 -0.0431
  585MOL0     O78870   3.831   5.915   9.993  0.0108  0.0199 -0.1662
  585MOL0     C78871   3.963   5.903  10.029 -0.5858  0.2385  0.7648
  585MOL0     C78872   4.036   6.006  10.090 -0.2228  0.1873  0.0602
  585MOL0     C78873   4.170   5.980  10.126 -0.1918  0.9762 -0.3535
  585MOL0     C78874   4.226   5.845  10.108  0.3695 -0.4663 -0.7050
  585MOL0     O78875   4.344   5.833  10.170  0.3050  0.4289  0.2451
  585MOL0     C78876   4.425   5.723  10.122 -0.4827 -0.2085 -0.6384
  585MOL0     C78877   4.547   5.718  10.213  0.1997  0.1581 -0.2343
  585MOL0     C78878   4.638   5.605  10.166  0.3259  0.2192 -0.3487
  585MOL0     C78879   4.751   5.588  10.267 -0.2536 -0.0789  0.1045
  585MOL0     C78880   4.860   5.483  10.231  0.6268  0.3933 -0.6068
  585MOL0     C78881   4.964   5.468  10.339  0.1097 -0.0125  0.1902
  585MOL0     C78882   5.075   5.373  10.300  0.0113 -0.6493 -0.0182
  585MOL0     C78883   5.166   5.431  10.188 -0.5580 -1.3310 -0.0815
  585MOL0    Cl78884   5.194   5.610  10.183 -0.5681  0.0831 -0.2544
  585MOL0     C78885   4.159   5.751  10.036 -0.0846 -0.7481  0.3083
  585MOL0     C78886   4.033   5.779  10.001  0.7991  0.7450  0.4675
  585MOL0     O78887   3.756   5.816  10.186 -0.1322 -0.0334  0.0848
  585MOL0     C78888   3.482   5.826  10.076 -0.2726  0.1067  0.0912
  585MOL0     C78889   3.350   5.845  10.029  0.2202  0.2015 -0.7471
  585MOL0     N78890   3.015   6.141  10.379 -0.2298 -0.7192 -0.3687
  585MOL0     N78891   3.121   6.206  10.415 -0.5056  0.0311 -0.6911
  585MOL0     C78892   3.371   7.172  10.450  0.8449  0.6920  0.3229
  585MOL0     C78893   3.501   7.155  10.455 -1.1024 -0.4472 -1.0215
  585MOL0     C78894   3.949   7.054  10.532  0.4229 -0.2360 -1.0741
  585MOL0     C78895   4.060   7.127  10.478  0.4914 -0.0971  0.1467
  585MOL0     C78896   4.191   7.088  10.488  0.2217 -0.1442 -0.5659
  585MOL0     C78897   4.228   6.973  10.560  0.5341 -0.0356  0.2153
  585MOL0     O78898   4.356   6.940  10.561 -0.2193  0.2861  0.2753
  585MOL0     C78899   4.411   6.875  10.668 -0.2904  0.1101 -0.3783
  585MOL0     C78900   4.568   6.880  10.665  0.2708  0.2221 -0.3480
  585MOL0     C78901   4.618   6.784  10.769  0.1843  0.5728 -0.0421
  585MOL0     C78902   4.733   6.836  10.850 -0.4677  0.4921 -0.1120
  585MOL0     C78903   4.860   6.845  10.771 -0.3640 -0.0605 -0.4611
  585MOL0     C78904   4.968   6.859  10.715 -0.3484  0.9960 -0.0758
  585MOL0     C78905   4.119   6.900  10.624 -0.6357 -0.3477 -0.4641
  585MOL0     C78906   3.982   6.934  10.610 -0.2725 -0.0407  0.5066
  585MOL0     C78907   3.882   6.848  10.688 -0.5964  0.5778 -0.1962
  585MOL0     H78908   3.503   6.974  10.735  2.0955 -0.1060 -1.7586
  585MOL0     H78909   3.282   6.987  10.722 -0.0397 -0.3198  1.4936
  585MOL0     H78910   3.047   7.179  10.342 -0.9897 -0.6409 -1.2192
  585MOL0     H78911   3.148   7.031  10.358  0.6144  0.3896  0.1231
  585MOL0     H78912   2.905   6.988  10.368  1.8890 -1.2116 -0.7326
  585MOL0     H78913   2.896   7.107  10.509 -1.6886 -0.5396 -1.6401
  585MOL0     H78914   2.889   6.880  10.606 -0.6420  0.5482 -1.5305
  585MOL0     H78915   3.035   6.956  10.647 -0.1457  0.2707 -0.7007
  585MOL0     H78916   3.021   6.776  10.393 -0.4869  1.1344  0.6330
  585MOL0     H78917   3.157   6.849  10.472 -1.0689  1.0768 -2.3985
  585MOL0     H78918   3.181   6.706  10.631  0.8682  0.5640 -1.8474
  585MOL0     H78919   3.013   6.680  10.674 -0.3077  0.2616 -0.2988
  585MOL0     H78920   3.090   6.465  10.587 -0.3214 -4.1938 -4.5572
  585MOL0     H78921   2.985   6.549  10.469  1.5881 -4.1882 -2.6889
  585MOL0     H78922   3.305   6.567  10.464 -0.6388  1.4099 -0.0486
  585MOL0     H78923   3.191   6.622  10.334 -0.0748  0.4921  0.3114
  585MOL0     H78924   3.281   6.456  10.251 -2.6361  0.7865 -0.0328
  585MOL0     H78925   3.329   6.376  10.408  0.4575 -0.2532 -0.3363
  585MOL0     H78926   3.072   6.361  10.137  2.6054  1.6196  2.1999
  585MOL0     H78927   2.789   6.112  10.244  1.1482 -0.4132  1.3841
  585MOL0     H78928   2.834   6.220  10.110 -1.6652  3.6544  4.3714
  585MOL0     H78929   2.902   5.916  10.130  0.2802 -0.0189  0.9188
  585MOL0     H78930   2.838   6.016  10.008  0.5088  1.0943 -0.8575
  585MOL0     H78931   3.123   6.051  10.082  1.2956  1.1066 -3.4121
  585MOL0     H78932   3.032   6.119   9.945 -2.2925 -0.8714 -1.7399
  585MOL0     H78933   3.009   5.899   9.839  2.1303  1.4290 -2.4239
  585MOL0     H78934   3.088   5.820   9.983  0.4287  0.4164 -0.0718
  585MOL0     H78935   3.431   6.014   9.753 -1.8424  2.6059  1.9312
  585MOL0     H78936   3.661   5.986   9.844  1.3295 -0.5563  1.7808
  585MOL0     H78937   4.001   6.108  10.098  0.7297  0.5930 -0.6875
  585MOL0     H78938   4.224   6.058  10.180 -1.5004  5.7290 -5.0941
  585MOL0     H78939   4.373   5.628  10.140 -2.8279  1.3420  1.5032
  585MOL0     H78940   4.453   5.728  10.016  4.1704 -2.4748  0.2147
  585MOL0     H78941   4.597   5.815  10.224 -0.2007  0.1952  1.7018
  585MOL0     H78942   4.516   5.695  10.316  2.1206 -2.9983 -0.2372
  585MOL0     H78943   4.582   5.512  10.159 -3.1543  1.8986  2.2680
  585MOL0     H78944   4.686   5.622  10.069 -1.3559 -0.6839 -1.3819
  585MOL0     H78945   4.713   5.556  10.365  1.4362  3.1437  1.9515
  585MOL0     H78946   4.802   5.681  10.291 -2.3080  1.2304 -0.4051
  585MOL0     H78947   4.906   5.516  10.138  4.1388  1.5139  1.3345
  585MOL0     H78948   4.810   5.390  10.204 -0.0377  1.1675 -2.1266
  585MOL0     H78949   4.996   5.569  10.364  0.8144  0.2829 -1.7194
  585MOL0     H78950   4.914   5.432  10.430 -0.6857 -2.8869 -1.2555
  585MOL0     H78951   5.038   5.283  10.251 -1.9166 -0.3241  0.7747
  585MOL0     H78952   5.136   5.340  10.385  1.1518 -3.8697 -1.8941
  585MOL0     H78953   5.265   5.385  10.186 -0.3374 -0.8639 -2.2096
  585MOL0     H78954   5.117   5.390  10.099 -2.8096 -0.5744  0.7430
  585MOL0     H78955   4.208   5.658  10.011  1.5793 -1.0943  4.1296
  585MOL0     H78956   3.987   5.700   9.942  1.3697  0.9241 -0.2438
  585MOL0     H78957   3.490   5.764  10.165  1.9895  0.2773  0.0786
  585MOL0     H78958   3.262   5.802  10.076  0.9438  1.7241  2.2941
  585MOL0     H78959   3.339   7.235  10.367 -1.4384 -1.7802 -0.8323
  585MOL0     H78960   3.562   7.177  10.368  2.8958 -0.9947  1.4020
  585MOL0     H78961   4.036   7.221  10.428 -1.4990 -0.4464  0.3584
  585MOL0     H78962   4.275   7.144  10.446 -0.4060  0.1437 -1.4676
  585MOL0     H78963   4.393   6.767  10.661  1.6773 -0.3884  1.2510
  585MOL0     H78964   4.369   6.907  10.764 -3.0286 -2.7914 -0.4393
  585MOL0     H78965   4.598   6.982  10.692 -1.1712  0.4518  0.4710
  585MOL0     H78966   4.609   6.862  10.565 -2.1677 -1.4620 -1.1256
  585MOL0     H78967   4.648   6.691  10.720 -0.6854  0.7787 -1.0137
  585MOL0     H78968   4.535   6.759  10.835 -1.2147 -0.0097 -1.9260
  585MOL0     H78969   4.709   6.931  10.899 -0.2019  0.2166  0.5627
  585MOL0     H78970   4.745   6.764  10.932  0.3502 -0.4792 -1.0547
  585MOL0     H78971   5.063   6.873  10.669  0.7998 -0.4214  1.7043
  585MOL0     H78972   4.136   6.817  10.692 -0.7980  0.5649  0.7308
  585MOL0     H78973   3.934   6.802  10.773 -3.2825  0.5650  1.5710
  585MOL0     H78974   3.794   6.899  10.730 -2.6855 -1.9719 -1.1492
  585MOL0     H78975   3.833   6.782  10.615  1.2630 -0.8028 -0.2455
  586MOL0     O78976   7.223   8.585  10.854 -0.7517  0.0434 -0.4234
  586MOL0     C78977   7.206   8.633  10.749  1.4380 -0.2624  0.4597
  586MOL0     O78978   7.306   8.648  10.657  0.9588 -0.4382  0.5192
  586MOL0     C78979   7.435   8.618  10.677  0.0252  0.7174 -0.0953
  586MOL0     C78980   7.505   8.632  10.800  0.5109  0.4270  1.0175
  586MOL0     C78981   7.637   8.583  10.800 -0.1640 -1.2488  0.4030
  586MOL0     C78982   7.698   8.534  10.686 -0.1746 -0.6987  0.3001
  586MOL0     O78983   7.831   8.494  10.707 -0.6065  0.1418  0.1304
  586MOL0     C78984   7.898   8.420  10.600  0.4389  0.5943  0.3247
  586MOL0     C78985   7.998   8.516  10.532 -0.4820  0.5774 -0.2380
  586MOL0     C78986   8.058   8.431  10.410  0.4265 -0.3640  0.3560
  586MOL0     C78987   8.159   8.524  10.332  0.9188 -0.4907 -0.3023
  586MOL0     C78988   8.193   8.466  10.191 -0.3882  0.4924  0.2575
  586MOL0     C78989   8.282   8.573  10.131  0.4367 -0.8335 -0.3248
  586MOL0     C78990   8.334   8.535   9.996  0.6657  0.7036 -0.1685
  586MOL0     C78991   8.405   8.656   9.923  0.7337 -0.3258  1.1495
  586MOL0     N78992   8.497   8.590   9.828  0.0907 -0.3033  0.0558
  586MOL0     C78993   8.468   8.562   9.696  0.0456 -0.3125 -0.6838
  586MOL0     C78994   8.569   8.474   9.660 -0.8525  0.3777  0.2502
  586MOL0     C78995   8.579   8.375   9.550  0.5049  0.6172 -0.1980
  586MOL0     C78996   8.714   8.371   9.483 -0.4394 -0.2976  0.0343
  586MOL0     C78997   8.741   8.494   9.395 -0.3161 -0.0115  0.5789
  586MOL0     C78998   8.885   8.492   9.335  0.0871  0.7782 -0.0316
  586MOL0     O78999   8.900   8.444   9.199 -0.5297  0.4734  0.1183
  586MOL0     C79000   9.003   8.364   9.177  0.9071  0.5621 -1.3120
  586MOL0     C79001   9.130   8.393   9.230  0.4699 -0.5694  0.5632
  586MOL0     C79002   9.241   8.319   9.184 -0.4272 -0.3124 -0.3567
  586MOL0     C79003   9.226   8.213   9.098 -0.1154 -0.5602  0.2548
  586MOL0     C79004   9.349   8.132   9.066 -0.6193  0.1179 -0.1650
  586MOL0     O79005   9.341   8.064   8.951 -0.1081 -0.1602  0.2709
  586MOL0     C79006   9.452   7.994   8.917 -0.6518  0.4401 -0.3729
  586MOL0     C79007   9.465   7.859   8.960  0.1491  0.2440 -0.5642
  586MOL0     C79008   9.578   7.780   8.914  0.2328 -1.0340  0.2536
  586MOL0     C79009   9.669   7.837   8.822  0.1840 -0.0228  1.2212
  586MOL0     O79010   9.791   7.777   8.793  0.0852  0.0181 -0.8278
  586MOL0     C79011   9.806   7.635   8.822 -0.0766 -0.2263 -0.3427
  586MOL0     C79012   9.931   7.586   8.746 -0.0031 -0.1593 -0.3058
  586MOL0     C79013  10.065   7.635   8.795  1.4269  1.3528 -0.3727
  586MOL0     C79014  10.125   7.544   8.905  0.5681 -0.1769 -0.9435
  586MOL0     C79015  10.234   7.614   8.998  0.5508  0.0032  0.1409
  586MOL0     C79016  10.362   7.660   8.934  1.0714  0.1634  0.9795
  586MOL0     C79017  10.462   7.703   9.047  0.1416 -0.7324  0.2827
  586MOL0     C79018  10.580   7.780   8.992 -0.5184 -0.4424 -0.1788
  586MOL0    Cl79019  10.702   7.820   9.119 -0.0296 -0.2687  0.3846
  586MOL0     C79020   9.663   7.973   8.794  0.1389  0.9561  1.1798
  586MOL0     C79021   9.555   8.056   8.842 -0.1487  0.2699 -0.2465
  586MOL0     O79022   9.454   8.140   9.135 -0.5614 -0.9185 -0.6151
  586MOL0     C79023   9.093   8.191   9.041  0.3146 -0.0288  0.5228
  586MOL0     C79024   8.985   8.273   9.075 -0.0617 -0.0763  0.3920
  586MOL0     N79025   8.653   8.455   9.773  0.1580  0.3578 -0.4905
  586MOL0     N79026   8.614   8.528   9.866  0.0450  0.1883  0.4576
  586MOL0     C79027   7.626   8.531  10.558  0.4816  0.3276  1.0339
  586MOL0     C79028   7.494   8.578  10.559  0.7113  0.0293 -0.3393
  586MOL0     C79029   7.078   8.713  10.719  0.7252  0.2296 -0.1915
  586MOL0     C79030   7.069   8.792  10.606  0.0331  0.9484  0.1719
  586MOL0     C79031   6.959   8.860  10.583 -0.3874 -0.2606 -0.3401
  586MOL0     C79032   6.842   8.853  10.662 -0.2558  0.1353 -0.0413
  586MOL0     O79033   6.734   8.923  10.618  0.5582 -0.6186 -0.5817
  586MOL0     C79034   6.621   8.933  10.709 -0.5803 -0.2784  0.1628
  586MOL0     C79035   6.542   9.050  10.656  0.8657  0.7021 -0.7608
  586MOL0     C79036   6.422   9.067  10.764 -1.0893  0.4096 -0.3307
  586MOL0     C79037   6.333   9.184  10.706 -0.1602 -0.3188  0.3752
  586MOL0     C79038   6.219   9.212  10.803  0.6564 -0.0817 -0.2525
  586MOL0     C79039   6.120   9.232  10.866  0.3706  0.4741  0.5828
  586MOL0     C79040   6.851   8.765  10.773 -0.0326  0.2416  0.8619
  586MOL0     C79041   6.968   8.707  10.811 -0.3586  0.9352 -0.8254
  586MOL0     C79042   6.955   8.611  10.925 -0.2327 -0.1047  0.8016
  586MOL0     H79043   7.453   8.658  10.891  0.7986  2.6515  0.6005
  586MOL0     H79044   7.684   8.556  10.894 -0.7167 -0.5881  0.8799
  586MOL0     H79045   7.970   8.353  10.649  0.5537 -0.4725 -1.2252
  586MOL0     H79046   7.834   8.358  10.537  2.0902  0.3722 -1.1863
  586MOL0     H79047   8.069   8.558  10.603  1.0030 -0.2503 -1.1775
  586MOL0     H79048   7.938   8.600  10.498 -1.5450 -1.0376 -2.6720
  586MOL0     H79049   7.972   8.410  10.347 -0.0081 -0.4911  0.9774
  586MOL0     H79050   8.119   8.347  10.443  2.4521  1.0314  0.3458
  586MOL0     H79051   8.104   8.617  10.317  1.9955 -0.0710 -2.0124
  586MOL0     H79052   8.243   8.535  10.401 -0.8770 -2.0481  2.3106
  586MOL0     H79053   8.239   8.367  10.200 -3.9839 -1.3116  0.6904
  586MOL0     H79054   8.104   8.453  10.129  0.7456 -0.7262 -1.1978
  586MOL0     H79055   8.209   8.649  10.103 -1.3490 -3.2616 -2.8149
  586MOL0     H79056   8.364   8.594  10.200 -0.8431  0.7565  0.7850
  586MOL0     H79057   8.248   8.512   9.932  0.8364  2.1165 -0.9622
  586MOL0     H79058   8.391   8.443  10.003 -1.5192 -0.9054 -1.9026
  586MOL0     H79059   8.327   8.714   9.873  1.4475  1.7983  2.4014
  586MOL0     H79060   8.467   8.725   9.980 -0.6465  0.0888  2.2073
  586MOL0     H79061   8.375   8.586   9.645 -0.3817  0.9934  0.6267
  586MOL0     H79062   8.551   8.277   9.590  2.1983 -0.5047 -1.5947
  586MOL0     H79063   8.503   8.401   9.477 -0.4920  1.2611  1.0280
  586MOL0     H79064   8.785   8.359   9.565 -1.8203 -1.1643  1.1439
  586MOL0     H79065   8.730   8.275   9.433  0.0013  0.9332 -2.3269
  586MOL0     H79066   8.764   8.585   9.453  3.8507 -0.0606 -0.6887
  586MOL0     H79067   8.658   8.516   9.328 -0.2914  1.4201  0.9736
  586MOL0     H79068   8.944   8.419   9.392 -0.3172 -1.5024 -2.3341
  586MOL0     H79069   8.947   8.582   9.345  0.8370  0.3990 -1.1274
  586MOL0     H79070   9.152   8.479   9.292 -0.1075  1.6910 -2.1541
  586MOL0     H79071   9.330   8.345   9.241 -0.7266  4.4474 -1.6190
  586MOL0     H79072   9.391   7.818   9.028 -1.4006  2.1382 -0.9973
  586MOL0     H79073   9.589   7.682   8.958  0.1178  0.1561  3.1334
  586MOL0     H79074   9.812   7.618   8.930  0.3374  2.8519  0.2283
  586MOL0     H79075   9.718   7.585   8.781 -0.1287 -0.1037 -0.3839
  586MOL0     H79076   9.929   7.476   8.744  0.1232 -0.2133  1.2569
  586MOL0     H79077   9.924   7.616   8.641  0.1043 -1.4247 -0.6987
  586MOL0     H79078  10.136   7.643   8.712 -0.1256 -2.7910 -2.3647
  586MOL0     H79079  10.048   7.736   8.835  0.0311  0.5548  1.1783
  586MOL0     H79080  10.178   7.461   8.857  2.2975 -0.5700  1.4277
  586MOL0     H79081  10.050   7.499   8.970 -0.5934  0.2649 -1.9458
  586MOL0     H79082  10.261   7.534   9.066 -1.6586 -4.1911 -3.3957
  586MOL0     H79083  10.193   7.701   9.051  0.2393  0.8553 -1.4357
  586MOL0     H79084  10.410   7.586   8.870 -1.7203 -2.5382  1.8059
  586MOL0     H79085  10.340   7.748   8.873  1.0096  0.5825  1.5904
  586MOL0     H79086  10.504   7.618   9.102 -0.1240 -0.9880  0.0909
  586MOL0     H79087  10.406   7.758   9.123 -0.8583 -0.3713 -0.6920
  586MOL0     H79088  10.619   7.737   8.899 -0.5643  0.6676 -0.7322
  586MOL0     H79089  10.545   7.879   8.961 -4.7372 -1.9269 -0.8997
  586MOL0     H79090   9.743   8.013   8.732  0.9469  0.4304  1.8703
  586MOL0     H79091   9.556   8.161   8.815  1.0063  0.0091 -1.3260
  586MOL0     H79092   9.072   8.118   8.964 -2.8908  3.1658 -2.0053
  586MOL0     H79093   8.888   8.254   9.030  1.8148 -2.2686 -3.2857
  586MOL0     H79094   7.664   8.514  10.457 -1.7997 -2.0138  0.4583
  586MOL0     H79095   7.431   8.573  10.471 -1.2380  1.2268  0.9096
  586MOL0     H79096   7.149   8.792  10.532 -0.2457  1.0968 -0.1364
  586MOL0     H79097   6.958   8.933  10.502  0.0761  2.7520  2.1761
  586MOL0     H79098   6.654   8.953  10.811 -0.0397 -3.4672  0.7181
  586MOL0     H79099   6.558   8.844  10.698 -1.1503 -0.0896  1.6412
  586MOL0     H79100   6.501   9.013  10.562 -0.0317  0.1905 -0.1880
  586MOL0     H79101   6.596   9.139  10.622 -2.1268  2.9984 -0.0001
  586MOL0     H79102   6.466   9.090  10.861 -1.4031  3.2762 -0.7803
  586MOL0     H79103   6.363   8.977  10.781  1.1141 -0.7132  2.0029
  586MOL0     H79104   6.391   9.271  10.674 -1.7470 -0.1100 -2.1788
  586MOL0     H79105   6.286   9.146  10.615  0.8950 -0.4859 -0.1149
  586MOL0     H79106   6.043   9.226  10.941 -1.5693  0.2091 -1.3412
  586MOL0     H79107   6.757   8.758  10.828  0.0428  1.2618  1.1397
  586MOL0     H79108   6.861   8.624  10.981 -0.7363 -0.2486  0.0081
  586MOL0     H79109   6.954   8.511  10.883  3.2610 -0.3924  1.1648
  586MOL0     H79110   7.038   8.628  10.994  2.9035  1.5817 -3.0157
  587MOL0     O79111   3.410   2.547   9.187 -0.0754 -0.4604 -0.6303
  587MOL0     C79112   3.321   2.624   9.217 -0.2045  0.7686 -0.5234
  587MOL0     O79113   3.241   2.690   9.127  0.0249  0.7263  0.4525
  587MOL0     C79114   3.254   2.667   8.992 -0.2639  0.6268  1.2757
  587MOL0     C79115   3.145   2.620   8.913 -0.5872  1.4615  0.5710
  587MOL0     C79116   3.161   2.591   8.781  0.6904  0.2993  0.4021
  587MOL0     C79117   3.282   2.611   8.717  0.4344  0.1493  0.7415
  587MOL0     O79118   3.288   2.565   8.582  0.5213 -0.3490  0.7667
  587MOL0     C79119   3.415   2.557   8.513  0.3971 -0.1069 -0.0013
  587MOL0     C79120   3.412   2.470   8.381 -1.3395  0.4977 -0.0746
  587MOL0     C79121   3.348   2.545   8.262  0.1690 -0.1464 -0.0714
  587MOL0     C79122   3.428   2.650   8.185 -0.2718 -0.4977  0.5355
  587MOL0     C79123   3.355   2.732   8.078  0.2934 -1.0330  0.6746
  587MOL0     C79124   3.416   2.871   8.043 -0.0718  0.3003  0.3844
  587MOL0     C79125   3.337   2.946   7.929 -1.1225 -0.2091 -0.4486
  587MOL0     C79126   3.193   3.000   7.956  0.1323 -0.8661  1.1991
  587MOL0     N79127   3.182   3.146   7.971  0.0632 -0.0405 -0.3028
  587MOL0     C79128   3.167   3.243   7.871 -0.0131  0.4654 -0.7224
  587MOL0     C79129   3.157   3.360   7.947 -0.2684 -0.3057 -0.5179
  587MOL0     C79130   3.161   3.488   7.874 -0.2413 -0.5743  0.2536
  587MOL0     C79131   3.128   3.608   7.962 -0.1427 -0.3472  0.5629
  587MOL0     C79132   3.126   3.736   7.879 -0.9971  0.4380  0.5852
  587MOL0     C79133   3.263   3.797   7.849 -0.2306 -0.8367  0.7778
  587MOL0     O79134   3.247   3.907   7.755  0.1669  0.0856 -0.8378
  587MOL0     C79135   3.280   4.039   7.788 -0.0974 -0.6434  0.0597
  587MOL0     C79136   3.230   4.096   7.897  0.5176 -0.5245 -0.1126
  587MOL0     C79137   3.278   4.220   7.938  0.5072  0.0306  0.6156
  587MOL0     C79138   3.377   4.290   7.868 -0.6142  0.2825 -0.5348
  587MOL0     C79139   3.432   4.420   7.908  0.4314  0.2372  0.2342
  587MOL0     O79140   3.548   4.454   7.839  0.4184 -0.0580 -0.9907
  587MOL0     C79141   3.607   4.565   7.885  0.3009 -0.8517 -0.3798
  587MOL0     C79142   3.581   4.687   7.830  0.1484  1.0814 -0.1914
  587MOL0     C79143   3.630   4.808   7.876  0.0315  0.5089 -0.5162
  587MOL0     C79144   3.724   4.810   7.973 -0.1957  0.8860  0.5288
  587MOL0     O79145   3.772   4.933   8.010  0.5044  0.2767  0.2947
  587MOL0     C79146   3.916   4.947   7.991 -0.1405 -0.0135  0.6142
  587MOL0     C79147   3.995   5.006   8.108  0.1551 -0.2752 -0.8401
  587MOL0     C79148   4.109   5.102   8.078  1.1117 -0.0505 -0.0948
  587MOL0     C79149   4.171   5.158   8.215  1.1640  1.1300 -0.0819
  587MOL0     C79150   4.291   5.252   8.196  0.0670  0.5354  0.3555
  587MOL0     C79151   4.426   5.174   8.176 -0.0252 -0.4170 -0.6172
  587MOL0     C79152   4.466   5.106   8.307 -0.1115  0.2742  0.4748
  587MOL0     C79153   4.573   5.000   8.286 -0.4195  0.6190  0.0013
  587MOL0    Cl79154   4.718   5.071   8.203 -0.0021  0.1383  0.2959
  587MOL0     C79155   3.761   4.683   8.035  0.9507 -0.1928 -0.0587
  587MOL0     C79156   3.697   4.568   7.991 -0.1454  0.4497  0.0620
  587MOL0     O79157   3.382   4.476   7.995  0.8091  0.5363 -0.6209
  587MOL0     C79158   3.427   4.222   7.751 -0.4353 -1.1624  0.7429
  587MOL0     C79159   3.382   4.101   7.713 -0.1061  0.4163  0.5332
  587MOL0     N79160   3.170   3.333   8.085  0.4130  0.0734 -0.3355
  587MOL0     N79161   3.169   3.204   8.093 -0.5433 -0.0245  0.1644
  587MOL0     C79162   3.386   2.671   8.786  0.6459  0.2702  0.1907
  587MOL0     C79163   3.374   2.694   8.921  0.6875 -1.1269  0.6032
  587MOL0     C79164   3.284   2.648   9.357 -0.2483 -0.4975 -0.1977
  587MOL0     C79165   3.174   2.730   9.381  0.8221 -0.6794 -0.0752
  587MOL0     C79166   3.138   2.770   9.513 -0.4940 -1.2438 -0.0251
  587MOL0     C79167   3.199   2.702   9.621 -0.4905 -0.5113 -0.8115
  587MOL0     O79168   3.136   2.731   9.755 -0.7138  0.8779  0.9212
  587MOL0     C79169   3.162   2.635   9.866  0.0188 -0.0564  0.0545
  587MOL0     C79170   3.040   2.530   9.871  0.4788 -0.6608  0.2166
  587MOL0     C79171   3.025   2.428   9.762 -0.1525 -0.7506  1.4570
  587MOL0     C79172   3.112   2.301   9.777  0.0480  0.1193  0.9327
  587MOL0     C79173   3.072   2.218   9.888 -0.7307  0.9037 -1.0746
  587MOL0     C79174   3.046   2.164   9.999  0.5161 -0.6249  1.1287
  587MOL0     C79175   3.300   2.607   9.598 -0.5150 -0.3143 -0.1027
  587MOL0     C79176   3.353   2.592   9.470 -0.0689 -0.8792 -0.1595
  587MOL0     C79177   3.470   2.492   9.455  0.5816  0.2397  0.9441
  587MOL0     H79178   3.054   2.594   8.965 -0.9012 -0.0381 -0.6365
  587MOL0     H79179   3.078   2.550   8.725 -0.7807  1.8112  1.3763
  587MOL0     H79180   3.462   2.654   8.496 -1.1066  0.4679 -1.0757
  587MOL0     H79181   3.477   2.494   8.577 -0.5318 -0.8453  0.1944
  587MOL0     H79182   3.359   2.377   8.401  1.8754 -1.9952 -2.0035
  587MOL0     H79183   3.518   2.447   8.363 -1.2544  1.6301 -1.1161
  587MOL0     H79184   3.262   2.596   8.306 -1.3420 -1.5926 -1.2002
  587MOL0     H79185   3.320   2.476   8.182  0.3791 -1.1900  0.7258
  587MOL0     H79186   3.450   2.722   8.265  0.9958  0.6786 -0.8135
  587MOL0     H79187   3.521   2.605   8.148  0.5893 -0.4923  2.5504
  587MOL0     H79188   3.360   2.661   7.995 -0.0392 -0.2964  0.0086
  587MOL0     H79189   3.250   2.745   8.107  0.4530 -0.4654  1.0246
  587MOL0     H79190   3.412   2.924   8.138  0.8460  0.2592  0.4571
  587MOL0     H79191   3.523   2.865   8.019 -0.8643 -2.4405 -3.2915
  587MOL0     H79192   3.332   2.872   7.848 -0.0416 -0.7962  0.0022
  587MOL0     H79193   3.404   3.031   7.914 -1.2871  0.0377  0.1774
  587MOL0     H79194   3.130   2.970   7.872  0.3979  1.1556  0.2174
  587MOL0     H79195   3.150   2.938   8.036  0.9757 -2.4600  0.4510
  587MOL0     H79196   3.164   3.237   7.763 -0.6912  0.6292 -0.7141
  587MOL0     H79197   3.267   3.494   7.849 -0.1542 -1.2264  0.4342
  587MOL0     H79198   3.110   3.492   7.778  0.5532 -0.4381 -0.1686
  587MOL0     H79199   3.032   3.609   8.013 -0.2526 -2.0413  0.4707
  587MOL0     H79200   3.210   3.615   8.034  0.4064  0.5531 -0.1285
  587MOL0     H79201   3.066   3.809   7.935 -1.1203  0.5769  0.2754
  587MOL0     H79202   3.076   3.719   7.784 -1.2286 -1.2342  0.9746
  587MOL0     H79203   3.330   3.724   7.802  2.1682  1.5492  0.1753
  587MOL0     H79204   3.315   3.835   7.938  0.4425 -0.9415  0.4375
  587MOL0     H79205   3.150   4.054   7.958 -1.1282  0.5806 -1.4180
  587MOL0     H79206   3.238   4.254   8.033  0.8979  0.2955  0.6879
  587MOL0     H79207   3.514   4.696   7.745  0.4916 -0.5893 -0.6917
  587MOL0     H79208   3.610   4.902   7.826 -1.4589  0.6081  0.2023
  587MOL0     H79209   3.964   4.853   7.965 -1.3613 -0.0649 -1.6741
  587MOL0     H79210   3.933   5.002   7.899  1.5765 -0.1488  0.8240
  587MOL0     H79211   3.916   5.069   8.150  0.5768  0.8826 -1.7590
  587MOL0     H79212   4.024   4.935   8.187  1.8188 -0.9490 -1.9985
  587MOL0     H79213   4.185   5.054   8.017 -0.2766 -3.8995  0.9209
  587MOL0     H79214   4.077   5.182   8.011  0.2667 -1.0280 -0.8971
  587MOL0     H79215   4.192   5.089   8.297 -0.5789  3.7857  2.8560
  587MOL0     H79216   4.091   5.216   8.262 -0.0035 -1.0492  0.7475
  587MOL0     H79217   4.291   5.308   8.290  2.3184 -1.6156  1.7526
  587MOL0     H79218   4.269   5.316   8.109  2.2514  3.1256  1.5625
  587MOL0     H79219   4.416   5.089   8.107 -0.8462 -0.9725  0.1687
  587MOL0     H79220   4.510   5.228   8.131  2.0084 -2.4558  0.4703
  587MOL0     H79221   4.383   5.045   8.345  0.3154 -0.5508  0.0971
  587MOL0     H79222   4.498   5.178   8.382  0.3188  1.1266 -0.5064
  587MOL0     H79223   4.607   4.973   8.386  1.8005 -1.3688 -1.1696
  587MOL0     H79224   4.532   4.914   8.231  2.2682 -0.3989 -0.5415
  587MOL0     H79225   3.817   4.690   8.128 -0.3396  0.0361  0.7188
  587MOL0     H79226   3.718   4.472   8.038 -0.2376 -0.3370 -1.4422
  587MOL0     H79227   3.510   4.271   7.701 -0.7470  0.2561  1.5622
  587MOL0     H79228   3.404   4.039   7.627 -0.5592 -1.4256  1.6859
  587MOL0     H79229   3.486   2.686   8.745  0.4478  2.5521  0.4486
  587MOL0     H79230   3.454   2.743   8.976 -1.2174  0.9063  1.7090
  587MOL0     H79231   3.116   2.782   9.306 -0.3672 -2.0312 -0.1363
  587MOL0     H79232   3.063   2.845   9.537  1.7185  0.8387  0.7705
  587MOL0     H79233   3.154   2.700   9.953  0.2961  1.0740 -0.7504
  587MOL0     H79234   3.256   2.582   9.845  0.1959  0.5698 -0.7673
  587MOL0     H79235   2.952   2.592   9.886  1.2794  1.5460 -3.0588
  587MOL0     H79236   3.047   2.480   9.968 -1.5454 -0.5818  0.4371
  587MOL0     H79237   3.057   2.473   9.668  4.0023  2.1720  3.9119
  587MOL0     H79238   2.922   2.391   9.759  0.0624 -1.4650 -2.9998
  587MOL0     H79239   3.124   2.261   9.676 -0.2424 -0.7889  1.2509
  587MOL0     H79240   3.206   2.345   9.812  0.7182  1.5419 -2.2618
  587MOL0     H79241   3.015   2.108  10.085 -1.1563 -1.6197 -0.0549
  587MOL0     H79242   3.345   2.550   9.680 -0.0442 -0.4259 -0.4373
  587MOL0     H79243   3.545   2.525   9.383 -0.5123  0.4164 -0.1447
  587MOL0     H79244   3.530   2.489   9.547  1.0429 -0.4912  0.6285
  587MOL0     H79245   3.427   2.393   9.436 -0.8599  0.5628  2.3041
  588MOL0     O79246  11.010   2.889   0.622  0.2413  0.3634 -0.9606
  588MOL0     C79247  10.910   2.931   0.571 -0.7934  0.5882 -0.1041
  588MOL0     O79248  10.793   2.854   0.555  0.7912  0.1245  0.6930
  588MOL0     C79249  10.684   2.928   0.511  0.5987  0.3040 -0.9579
  588MOL0     C79250  10.572   2.907   0.585 -0.9774 -1.1738 -0.4285
  588MOL0     C79251  10.462   2.979   0.550 -0.4383 -0.9106 -0.5788
  588MOL0     C79252  10.446   3.072   0.445 -0.2638  0.2196  1.2375
  588MOL0     O79253  10.342   3.150   0.402  0.0789 -0.1953 -0.4529
  588MOL0     C79254  10.245   3.194   0.498 -0.2834  0.4826  0.0103
  588MOL0     C79255  10.138   3.273   0.432  0.2511  0.1229 -0.1495
  588MOL0     C79256  10.023   3.173   0.425  0.2943 -0.0894 -0.5803
  588MOL0     C79257   9.929   3.206   0.305 -0.3759  0.3612  0.3294
  588MOL0     C79258   9.832   3.089   0.286  1.6254 -0.5679  0.7719
  588MOL0     C79259   9.742   3.106   0.165  0.1972  0.0063  0.3133
  588MOL0     C79260   9.635   2.989   0.153 -0.6401 -1.1376  0.5521
  588MOL0     C79261   9.570   2.963   0.016  0.3330 -0.4607 -1.5722
  588MOL0     N79262   9.647   2.876  -0.077  1.6402 -0.3990 -0.4485
  588MOL0     C79263   9.651   2.741  -0.054  0.5954 -0.5934 -0.0274
  588MOL0     C79264   9.729   2.684  -0.153  0.4478 -0.5063  0.3402
  588MOL0     C79265   9.773   2.544  -0.165  0.0716 -1.3568  0.0464
  588MOL0     C79266   9.796   2.513  -0.319  0.2243  0.3857  0.6598
  588MOL0     C79267   9.653   2.497  -0.380 -0.5328 -0.7075 -0.1250
  588MOL0     C79268   9.667   2.441  -0.526 -0.5554 -0.3212 -1.0428
  588MOL0     O79269   9.548   2.405  -0.593  0.2274  0.2437  0.1690
  588MOL0     C79270   9.551   2.382  -0.726 -0.3284  0.0649 -0.5468
  588MOL0     C79271   9.428   2.386  -0.791  0.4307  0.5828  0.5221
  588MOL0     C79272   9.419   2.388  -0.932 -0.1164  0.0581  0.6408
  588MOL0     C79273   9.536   2.379  -1.010  0.7779  0.2064 -0.4987
  588MOL0     C79274   9.525   2.377  -1.159 -1.0692  0.3281 -0.1524
  588MOL0     O79275   9.419   2.326  -1.209  0.4031  0.0311  0.3007
  588MOL0     C79276   9.378   2.312  -1.336  0.3447 -0.3439  0.3186
  588MOL0     C79277   9.250   2.249  -1.344  0.6778 -0.0148  0.2957
  588MOL0     C79278   9.205   2.201  -1.470 -0.4410 -0.4306 -0.8842
  588MOL0     C79279   9.273   2.233  -1.591 -0.3413  0.1234 -0.7708
  588MOL0     O79280   9.232   2.203  -1.714 -0.0563 -0.2537  0.7107
  588MOL0     C79281   9.115   2.120  -1.737 -0.1398  0.2635 -1.0999
  588MOL0     C79282   9.110   2.093  -1.887  0.5531 -0.1711  0.0305
  588MOL0     C79283   8.974   2.019  -1.905  1.3991 -1.4027  0.3410
  588MOL0     C79284   8.948   1.982  -2.053 -0.2443  0.3835 -0.4078
  588MOL0     C79285   8.827   1.868  -2.065  0.2227  0.2054  0.3332
  588MOL0     C79286   8.788   1.824  -2.203  0.3417  0.1894  0.2038
  588MOL0     C79287   8.762   1.674  -2.210  0.2125  0.3792 -1.0944
  588MOL0     C79288   8.894   1.589  -2.223 -0.5885 -0.6362  0.4264
  588MOL0    Cl79289   8.946   1.591  -2.398  0.1084  0.3074  0.1351
  588MOL0     C79290   9.404   2.289  -1.580 -0.1105  0.1829  0.2716
  588MOL0     C79291   9.456   2.319  -1.449  0.3949  0.1874 -0.0568
  588MOL0     O79292   9.629   2.398  -1.218  0.6689  0.0152 -0.2987
  588MOL0     C79293   9.662   2.362  -0.941  0.1108  0.2352  0.7969
  588MOL0     C79294   9.666   2.370  -0.803 -0.5654 -0.3363  0.2771
  588MOL0     N79295   9.749   2.790  -0.241 -0.4596  0.4563 -0.0712
  588MOL0     N79296   9.706   2.907  -0.194  0.3655 -0.3075  0.2443
  588MOL0     C79297  10.558   3.093   0.372  0.4858  0.7256 -0.5862
  588MOL0     C79298  10.675   3.019   0.410 -0.4542 -0.3272  0.5799
  588MOL0     C79299  10.932   3.073   0.531  0.0631 -0.2258 -0.9728
  588MOL0     C79300  10.862   3.163   0.604 -0.0638 -0.0575 -0.6588
  588MOL0     C79301  10.863   3.299   0.566 -0.5256  0.7817  0.3257
  588MOL0     C79302  10.949   3.343   0.461  0.1602  0.1216 -0.3282
  588MOL0     O79303  10.947   3.475   0.431 -0.1034 -0.4476 -0.5331
  588MOL0     C79304  11.032   3.542   0.525 -0.2975  0.6967 -0.1267
  588MOL0     C79305  11.055   3.676   0.471 -0.2637  0.0857  0.0829
  588MOL0     C79306  11.169   3.746   0.552  0.0015 -0.0936 -0.0855
  588MOL0     C79307  11.198   3.880   0.499 -0.2889  0.1191  0.8612
  588MOL0     C79308  11.263   3.871   0.366 -0.4027 -0.0038 -0.3641
  588MOL0     C79309  11.328   3.877   0.265 -0.1950 -0.3748  0.0688
  588MOL0     C79310  11.028   3.251   0.382  1.1042  0.2491 -0.7871
  588MOL0     C79311  11.009   3.114   0.415  0.7553  0.4187 -0.0932
  588MOL0     C79312  11.097   3.014   0.343 -0.7054  0.3455 -0.8408
  588MOL0     H79313  10.575   2.854   0.680 -0.6649 -1.0476 -0.3707
  588MOL0     H79314  10.374   2.958   0.611  0.5624 -0.1479  1.2160
  588MOL0     H79315  10.204   3.114   0.561 -0.9711  2.0016  1.5885
  588MOL0     H79316  10.300   3.246   0.577 -4.1050  1.2954  2.3869
  588MOL0     H79317  10.176   3.310   0.337  2.4840  1.9076  1.3374
  588MOL0     H79318  10.089   3.356   0.484 -1.6792  1.0357 -3.1437
  588MOL0     H79319   9.965   3.181   0.517 -0.0753  1.1804 -0.9097
  588MOL0     H79320  10.056   3.069   0.411 -2.0357 -0.8854 -0.5724
  588MOL0     H79321   9.871   3.296   0.326 -1.9138 -0.4052 -0.4669
  588MOL0     H79322   9.982   3.214   0.210 -1.6596  1.6382 -0.3103
  588MOL0     H79323   9.890   2.997   0.280 -0.4665 -2.1592  3.0231
  588MOL0     H79324   9.774   3.083   0.378  0.7729  1.0261  0.3792
  588MOL0     H79325   9.686   3.198   0.177 -0.0297  0.0043 -0.6221
  588MOL0     H79326   9.796   3.120   0.071 -0.3436 -4.4320 -0.9219
  588MOL0     H79327   9.559   3.000   0.231  0.3100  1.5692  1.2251
  588MOL0     H79328   9.688   2.898   0.182 -0.1459 -0.7554  0.8883
  588MOL0     H79329   9.477   2.918   0.050  0.2441  0.0099 -1.1754
  588MOL0     H79330   9.546   3.061  -0.028  3.8776 -0.0378 -2.9263
  588MOL0     H79331   9.621   2.693   0.038 -2.8000  0.2772 -0.5606
  588MOL0     H79332   9.869   2.533  -0.114  0.1134  1.3830  0.7222
  588MOL0     H79333   9.712   2.467  -0.117  2.2757 -1.7611  2.4400
  588MOL0     H79334   9.851   2.592  -0.370  0.2402  0.2778  0.5099
  588MOL0     H79335   9.853   2.420  -0.321  1.9749  1.3871  1.5329
  588MOL0     H79336   9.599   2.592  -0.377 -0.4142 -0.5193 -2.2607
  588MOL0     H79337   9.581   2.439  -0.320 -3.1980 -0.3614 -2.7196
  588MOL0     H79338   9.729   2.352  -0.510  1.1499  0.8603 -0.8626
  588MOL0     H79339   9.731   2.509  -0.583  1.3316 -2.0220 -1.0763
  588MOL0     H79340   9.346   2.388  -0.720  1.4264 -0.2543  1.7533
  588MOL0     H79341   9.323   2.385  -0.982  1.1561 -1.6123 -1.9962
  588MOL0     H79342   9.186   2.231  -1.258 -4.2979  2.7610 -2.3179
  588MOL0     H79343   9.109   2.153  -1.484 -1.4249  2.0125 -3.2975
  588MOL0     H79344   9.122   2.020  -1.693 -2.8256 -0.1589 -1.4455
  588MOL0     H79345   9.021   2.163  -1.702 -0.6805  0.6814 -2.9815
  588MOL0     H79346   9.094   2.189  -1.936  0.8624 -0.2304 -0.1889
  588MOL0     H79347   9.197   2.033  -1.916  1.0304  0.3282  0.4278
  588MOL0     H79348   8.974   1.929  -1.842  2.7112 -1.4680  0.2933
  588MOL0     H79349   8.895   2.084  -1.867  0.8309 -2.2010  0.5347
  588MOL0     H79350   9.036   1.949  -2.108  0.3838 -0.4286  1.0115
  588MOL0     H79351   8.921   2.075  -2.104  4.0109  2.2758  0.3533
  588MOL0     H79352   8.740   1.916  -2.020  0.9514  1.5277  0.3762
  588MOL0     H79353   8.861   1.782  -2.006 -1.5527 -0.6823  0.1428
  588MOL0     H79354   8.692   1.869  -2.231 -0.8341 -2.1635  0.1990
  588MOL0     H79355   8.855   1.860  -2.281 -0.1718  0.0622 -0.3085
  588MOL0     H79356   8.693   1.637  -2.286 -0.4084  0.6351 -0.6666
  588MOL0     H79357   8.710   1.649  -2.116  0.3182  1.2874 -0.7825
  588MOL0     H79358   8.971   1.633  -2.159 -0.6478  1.2094 -0.7016
  588MOL0     H79359   8.867   1.486  -2.195 -1.6088 -1.8715 -4.1923
  588MOL0     H79360   9.465   2.290  -1.670 -1.1024 -1.1002 -0.4530
  588MOL0     H79361   9.546   2.379  -1.457  0.2746  0.5216  0.9668
  588MOL0     H79362   9.756   2.353  -0.995 -0.4517  1.9259 -0.5813
  588MOL0     H79363   9.754   2.365  -0.740  0.3916  1.1692 -0.8730
  588MOL0     H79364  10.564   3.154   0.283  2.0175  2.5016  0.6599
  588MOL0     H79365  10.761   3.020   0.343 -2.5828 -0.0702 -2.3562
  588MOL0     H79366  10.808   3.146   0.697 -2.1146  1.0624 -1.5550
  588MOL0     H79367  10.792   3.363   0.618 -1.1539  0.4092 -0.0665
  588MOL0     H79368  11.126   3.489   0.546  0.3245  0.9947 -1.9025
  588MOL0     H79369  10.977   3.548   0.619  0.1655 -1.7197  0.3639
  588MOL0     H79370  10.962   3.734   0.479  0.5278  1.4639 -0.2577
  588MOL0     H79371  11.090   3.659   0.369 -0.3720 -0.2683  0.1022
  588MOL0     H79372  11.264   3.693   0.557  0.5496  0.6120 -2.1096
  588MOL0     H79373  11.134   3.754   0.656  0.9271 -0.0781  0.2268
  588MOL0     H79374  11.105   3.936   0.492 -1.4956 -1.9098 -0.0119
  588MOL0     H79375  11.266   3.934   0.566  1.8134  0.0358 -1.0709
  588MOL0     H79376  11.383   3.892   0.175 -1.8611 -1.1657 -1.1333
  588MOL0     H79377  11.100   3.280   0.306  2.8942 -0.3297  0.6137
  588MOL0     H79378  11.172   3.064   0.281  1.4147 -3.5783 -1.7752
  588MOL0     H79379  11.155   2.951   0.412  0.2613  1.7476 -0.3177
  588MOL0     H79380  11.034   2.939   0.295 -2.5721 -0.0897  2.0669
  589MOL0     O79381   7.929   2.117   8.954  0.5814  0.3796 -0.2047
  589MOL0     C79382   7.942   2.158   8.840 -0.2163  0.1319  0.1096
  589MOL0     O79383   8.020   2.259   8.797  0.2661  0.5085  0.5050
  589MOL0     C79384   8.136   2.271   8.872 -0.8505  0.1094  0.0064
  589MOL0     C79385   8.164   2.374   8.941  0.0590 -0.2333 -0.2214
  589MOL0     C79386   8.285   2.380   9.012 -0.6615 -0.3605 -0.1891
  589MOL0     C79387   8.387   2.287   8.992 -0.9392  0.7125 -0.0427
  589MOL0     O79388   8.501   2.309   9.064 -0.5706 -0.3375 -0.4159
  589MOL0     C79389   8.572   2.192   9.094 -0.7356  0.5617  0.0083
  589MOL0     C79390   8.670   2.219   9.203 -1.4068 -0.0119 -0.5834
  589MOL0     C79391   8.765   2.342   9.161 -0.3153  0.2036  0.1741
  589MOL0     C79392   8.863   2.378   9.271 -0.3764  0.4051 -0.6523
  589MOL0     C79393   8.934   2.511   9.263  0.0997 -0.5563  0.4703
  589MOL0     C79394   9.034   2.535   9.375 -0.0178  0.2907 -0.4841
  589MOL0     C79395   9.097   2.673   9.365 -1.1721 -0.0461  0.6593
  589MOL0     C79396   9.006   2.797   9.383  0.3220 -0.4696 -0.0010
  589MOL0     N79397   8.968   2.857   9.251  0.6289  0.9486  0.4489
  589MOL0     C79398   8.845   2.899   9.230  0.4988  0.0812  0.3125
  589MOL0     C79399   8.846   2.923   9.098 -0.4147  0.2346 -0.5347
  589MOL0     C79400   8.736   2.976   9.013  0.8909 -0.1925  0.2512
  589MOL0     C79401   8.647   2.855   8.986  1.0019 -0.0344  1.2587
  589MOL0     C79402   8.570   2.807   9.112 -0.0866  0.6003 -0.2808
  589MOL0     C79403   8.486   2.687   9.069  1.0421 -0.4000  0.3813
  589MOL0     O79404   8.388   2.714   8.960 -0.9449  0.0705 -0.9619
  589MOL0     C79405   8.390   2.649   8.843  0.0701  0.2004  0.3602
  589MOL0     C79406   8.479   2.552   8.797 -0.1194 -0.4093  0.1970
  589MOL0     C79407   8.457   2.476   8.682 -0.3211  0.0168  0.1816
  589MOL0     C79408   8.347   2.498   8.611  0.5927  0.4286 -0.0816
  589MOL0     C79409   8.300   2.391   8.514  0.3745  0.6428  0.3276
  589MOL0     O79410   8.163   2.399   8.478 -0.1357  0.2967  0.7892
  589MOL0     C79411   8.116   2.313   8.378  0.3874  0.1611  0.5139
  589MOL0     C79412   8.170   2.306   8.247 -0.8786 -1.0251 -0.4791
  589MOL0     C79413   8.116   2.217   8.158  1.4690  0.3587 -0.4203
  589MOL0     C79414   8.005   2.143   8.181  0.0125  0.5477  0.5597
  589MOL0     O79415   7.968   2.076   8.071 -0.0045  0.0309 -0.7852
  589MOL0     C79416   7.844   2.002   8.083  0.3520  0.4276 -0.0935
  589MOL0     C79417   7.823   1.950   7.940  0.8985  0.4502  0.6614
  589MOL0     C79418   7.705   1.857   7.934 -0.1461 -1.1875 -0.4876
  589MOL0     C79419   7.654   1.809   7.795  0.7370 -0.6589 -0.3541
  589MOL0     C79420   7.759   1.732   7.707 -0.3874 -0.5359 -0.3813
  589MOL0     C79421   7.689   1.662   7.588 -1.0593 -0.4541  0.8404
  589MOL0     C79422   7.607   1.536   7.619  0.5632  0.2973 -0.1477
  589MOL0     C79423   7.508   1.511   7.506 -1.0660  0.0696  0.1298
  589MOL0    Cl79424   7.581   1.512   7.341  0.1722  0.3497  0.6568
  589MOL0     C79425   7.940   2.159   8.304 -0.1483 -0.3245  0.0833
  589MOL0     C79426   8.000   2.238   8.405 -0.0022  0.1371 -1.0298
  589MOL0     O79427   8.380   2.306   8.472 -0.7383  0.2179 -0.4259
  589MOL0     C79428   8.255   2.600   8.651  0.0969  0.0291 -0.2707
  589MOL0     C79429   8.278   2.680   8.765 -0.4583  0.4275  0.8473
  589MOL0     N79430   8.969   2.895   9.037  0.1973 -0.1930 -1.1379
  589MOL0     N79431   9.045   2.861   9.141  0.7554  0.5202  0.6684
  589MOL0     C79432   8.358   2.184   8.911 -0.9561 -0.7920 -0.1998
  589MOL0     C79433   8.238   2.176   8.847 -0.0944 -0.4290 -0.6055
  589MOL0     C79434   7.865   2.090   8.740 -0.2894  0.4993 -0.1341
  589MOL0     C79435   7.899   1.963   8.710  0.3690 -0.3669 -0.0637
  589MOL0     C79436   7.828   1.888   8.607 -0.4451  0.4787 -0.3425
  589MOL0     C79437   7.717   1.950   8.540 -0.0468  0.3966  0.8528
  589MOL0     O79438   7.632   1.878   8.446  0.5385  0.4859 -0.1164
  589MOL0     C79439   7.683   1.759   8.383  0.5780 -0.1103 -0.8052
  589MOL0     C79440   7.630   1.754   8.240 -0.3203  0.2155 -0.7181
  589MOL0     C79441   7.486   1.687   8.245  0.6337 -0.4895  0.2938
  589MOL0     C79442   7.429   1.653   8.103  0.0329 -0.1140  0.2310
  589MOL0     C79443   7.508   1.543   8.047  0.2784  0.0605 -0.3685
  589MOL0     C79444   7.579   1.463   7.989  0.5257 -0.5482  0.5457
  589MOL0     C79445   7.689   2.077   8.569  0.1673 -0.8632 -0.2445
  589MOL0     C79446   7.756   2.152   8.670 -0.0687  0.4776 -0.2594
  589MOL0     C79447   7.695   2.285   8.701 -0.2755 -1.0058  0.3251
  589MOL0     H79448   8.091   2.453   8.930  2.3137  1.7651 -2.3705
  589MOL0     H79449   8.295   2.459   9.085 -1.5482  1.6411 -2.1299
  589MOL0     H79450   8.505   2.108   9.117 -0.6720 -0.4601 -2.9977
  589MOL0     H79451   8.624   2.162   9.002 -0.9122 -0.9358  0.3716
  589MOL0     H79452   8.723   2.128   9.230 -0.7843  1.1747  2.5736
  589MOL0     H79453   8.614   2.263   9.286  0.9317  2.5025 -0.1870
  589MOL0     H79454   8.705   2.431   9.139 -0.7648 -0.5881 -1.9539
  589MOL0     H79455   8.819   2.312   9.071  0.7220  3.6547 -0.5272
  589MOL0     H79456   8.811   2.365   9.367  2.2742  2.0201  1.1200
  589MOL0     H79457   8.944   2.305   9.273  2.6953  3.5981 -0.1359
  589MOL0     H79458   8.987   2.511   9.167  0.2838 -0.7230  0.5698
  589MOL0     H79459   8.876   2.603   9.255  1.2096  0.0735 -0.7435
  589MOL0     H79460   8.975   2.511   9.464  1.3400  0.0711  0.3806
  589MOL0     H79461   9.111   2.459   9.361 -0.6955 -1.0053  2.2100
  589MOL0     H79462   9.157   2.682   9.274 -4.6807  0.8694 -1.7820
  589MOL0     H79463   9.174   2.674   9.444 -0.1628 -1.2208 -0.2664
  589MOL0     H79464   8.927   2.792   9.458  0.9620 -2.2150  0.6015
  589MOL0     H79465   9.072   2.875   9.423 -1.5077  2.1655 -1.7228
  589MOL0     H79466   8.768   2.918   9.303 -0.5291  0.8806 -0.9344
  589MOL0     H79467   8.681   3.056   9.064 -0.3182 -0.9367  0.1548
  589MOL0     H79468   8.782   3.012   8.921  0.0207 -0.4162 -0.2794
  589MOL0     H79469   8.583   2.887   8.903  2.4916  0.6584  0.3480
  589MOL0     H79470   8.709   2.771   8.955  3.2987  1.8578  0.4450
  589MOL0     H79471   8.506   2.888   9.150 -0.1886  0.5488 -0.3418
  589MOL0     H79472   8.630   2.764   9.193 -0.4515 -0.1844 -0.4284
  589MOL0     H79473   8.427   2.659   9.157  0.8709 -3.6018 -0.5999
  589MOL0     H79474   8.553   2.604   9.045  0.1659 -0.7995 -0.8009
  589MOL0     H79475   8.565   2.537   8.862  0.0901  0.1496  0.0554
  589MOL0     H79476   8.527   2.397   8.656 -0.4014  0.0549 -0.1602
  589MOL0     H79477   8.252   2.370   8.217  1.1968 -1.6369  3.3205
  589MOL0     H79478   8.159   2.206   8.059  0.1738 -1.4334 -0.8349
  589MOL0     H79479   7.871   1.918   8.148  1.8910 -0.3588 -1.6607
  589MOL0     H79480   7.761   2.066   8.114  1.6276  2.3670 -0.5026
  589MOL0     H79481   7.802   2.045   7.890  1.2869  1.6442  2.6628
  589MOL0     H79482   7.910   1.908   7.889  1.1186 -1.7159  2.6353
  589MOL0     H79483   7.723   1.771   7.999 -0.7509 -1.9577 -1.3121
  589MOL0     H79484   7.618   1.905   7.978 -1.2676 -3.3729 -0.1919
  589MOL0     H79485   7.624   1.898   7.739  0.6403 -0.5235 -0.0856
  589MOL0     H79486   7.566   1.747   7.815 -1.2165  2.2619  0.8751
  589MOL0     H79487   7.814   1.662   7.771  0.8236 -0.7407 -1.5931
  589MOL0     H79488   7.836   1.799   7.668  1.6274 -3.9962 -2.8804
  589MOL0     H79489   7.635   1.736   7.528 -1.7917 -1.9913 -0.4648
  589MOL0     H79490   7.767   1.629   7.518  2.0627  1.0804  3.3361
  589MOL0     H79491   7.558   1.537   7.717  2.0508 -2.3965  0.7357
  589MOL0     H79492   7.675   1.451   7.632 -1.6198 -1.5597 -0.2849
  589MOL0     H79493   7.472   1.409   7.524  4.7679 -2.3629  0.2085
  589MOL0     H79494   7.425   1.580   7.525 -1.3429  0.4147 -2.1114
  589MOL0     H79495   7.842   2.115   8.315 -0.7770 -0.1288 -3.4781
  589MOL0     H79496   7.956   2.255   8.503 -0.5102  0.2956 -1.2833
  589MOL0     H79497   8.169   2.624   8.588  0.4223  1.6718 -0.1536
  589MOL0     H79498   8.207   2.760   8.782 -0.2416  0.3216  2.3497
  589MOL0     H79499   8.433   2.109   8.887  3.0881  2.5141  0.8935
  589MOL0     H79500   8.229   2.095   8.776  1.3627 -0.4094 -0.8471
  589MOL0     H79501   7.989   1.918   8.750 -0.2054 -1.6177 -0.1161
  589MOL0     H79502   7.866   1.789   8.581  2.4279  0.8471  1.9176
  589MOL0     H79503   7.656   1.678   8.452  1.3627  1.1138  1.0176
  589MOL0     H79504   7.790   1.755   8.361  0.5333  1.2737 -1.4214
  589MOL0     H79505   7.696   1.680   8.195  1.4968 -0.6164  2.9360
  589MOL0     H79506   7.638   1.853   8.195 -2.6928  0.3751 -0.9304
  589MOL0     H79507   7.426   1.760   8.300  1.5149 -0.3549  1.0915
  589MOL0     H79508   7.498   1.598   8.308 -0.5636 -0.8813  0.0058
  589MOL0     H79509   7.320   1.639   8.103  0.2093 -2.4096 -1.8192
  589MOL0     H79510   7.445   1.743   8.043 -1.7296  1.8485  2.5621
  589MOL0     H79511   7.629   1.382   7.939  1.8164  0.8669 -0.5568
  589MOL0     H79512   7.604   2.125   8.523 -0.1986 -2.8281 -1.7815
  589MOL0     H79513   7.702   2.328   8.801  2.6161  3.4223 -1.4811
  589MOL0     H79514   7.742   2.349   8.625  1.7605 -2.4874  0.2519
  589MOL0     H79515   7.589   2.283   8.673 -0.3365 -1.8489  0.6016
  590MOL0     O79516   6.554   3.090   8.517 -0.3613 -1.0369 -0.7576
  590MOL0     C79517   6.489   3.015   8.589  0.2202 -1.0258  0.1580
  590MOL0     O79518   6.379   3.060   8.665 -0.1286  0.0965 -0.3123
  590MOL0     C79519   6.343   3.195   8.691  0.4937  0.3138  0.3710
  590MOL0     C79520   6.207   3.220   8.716 -0.5872  0.3837  0.3758
  590MOL0     C79521   6.166   3.345   8.757  0.5279  0.6277  0.1626
  590MOL0     C79522   6.257   3.453   8.768  0.7888  0.2693  0.6185
  590MOL0     O79523   6.223   3.568   8.836  0.2075 -0.0320  0.2838
  590MOL0     C79524   6.295   3.691   8.843 -0.2759  0.5404  0.1241
  590MOL0     C79525   6.294   3.768   8.706  0.5203 -0.2574 -0.3552
  590MOL0     C79526   6.157   3.831   8.657  0.0707 -0.0251 -0.1163
  590MOL0     C79527   6.161   3.879   8.504 -0.2985 -0.1198  0.4953
  590MOL0     C79528   6.133   3.764   8.402  1.2077  0.2812  1.2304
  590MOL0     C79529   5.988   3.726   8.383  0.1516  1.5673 -0.8758
  590MOL0     C79530   5.889   3.837   8.342  0.4576  0.4749  0.7401
  590MOL0     C79531   5.747   3.790   8.338 -0.9962  0.6063  0.1110
  590MOL0     N79532   5.666   3.876   8.252 -0.1197 -0.0463  0.0325
  590MOL0     C79533   5.580   3.958   8.310 -0.7271  0.0155 -1.7129
  590MOL0     C79534   5.538   4.041   8.214 -0.1212 -0.4036  0.1420
  590MOL0     C79535   5.440   4.156   8.236  0.1625  0.7662  0.4062
  590MOL0     C79536   5.301   4.119   8.222 -0.0420  0.1131  0.7458
  590MOL0     C79537   5.254   4.112   8.076 -0.3114  0.5523  0.1851
  590MOL0     C79538   5.111   4.081   8.069  0.3478 -0.2958 -0.0541
  590MOL0     O79539   5.064   4.029   7.947  0.6809  0.2604  0.6841
  590MOL0     C79540   4.923   4.032   7.925 -0.4801 -0.0258 -0.5108
  590MOL0     C79541   4.836   4.019   8.038 -0.7466 -0.3854  0.2454
  590MOL0     C79542   4.696   4.031   8.013 -0.6516 -0.5672  0.0235
  590MOL0     C79543   4.647   4.031   7.879  0.7233  0.3084 -0.1909
  590MOL0     C79544   4.500   4.028   7.849  0.4487  0.5284  0.1558
  590MOL0     O79545   4.436   4.023   7.730 -0.5054  0.5566  0.6706
  590MOL0     C79546   4.304   3.970   7.721 -0.2258 -0.1354  0.2015
  590MOL0     C79547   4.237   4.011   7.604 -0.3544 -0.0943  0.5496
  590MOL0     C79548   4.101   3.979   7.575  0.7424 -0.6975  0.6224
  590MOL0     C79549   4.041   3.887   7.659 -0.1599 -1.0371  0.5516
  590MOL0     O79550   3.913   3.843   7.625 -0.4553  0.5374 -0.1176
  590MOL0     C79551   3.846   3.733   7.676 -0.0886  0.1274 -0.5334
  590MOL0     C79552   3.703   3.700   7.644  0.7472  0.3625  0.2760
  590MOL0     C79553   3.629   3.799   7.561 -0.5808 -0.4101 -0.0222
  590MOL0     C79554   3.501   3.740   7.511  0.4679  0.1152  0.0443
  590MOL0     C79555   3.446   3.815   7.386  0.4769 -0.8528 -0.1201
  590MOL0     C79556   3.307   3.754   7.354 -0.5681  0.5127 -0.0295
  590MOL0     C79557   3.330   3.621   7.283  0.4047 -1.1000  0.1390
  590MOL0     C79558   3.197   3.557   7.262  0.2979  0.2894 -0.1324
  590MOL0    Cl79559   3.133   3.465   7.403  0.2282  0.1313 -0.3090
  590MOL0     C79560   4.104   3.847   7.775 -0.7815 -0.1385  0.2557
  590MOL0     C79561   4.231   3.889   7.812 -1.0815  0.1506 -0.9055
  590MOL0     O79562   4.439   4.039   7.954  0.3069  0.0015 -0.1256
  590MOL0     C79563   4.735   4.019   7.779  0.1272  0.3018 -0.7787
  590MOL0     C79564   4.871   4.026   7.794  0.2517  0.6355 -0.2874
  590MOL0     N79565   5.609   4.021   8.102 -0.1185  0.2526 -0.5908
  590MOL0     N79566   5.689   3.923   8.128 -0.4362 -0.4227 -0.0045
  590MOL0     C79567   6.394   3.426   8.738  0.3565 -0.7269  0.2730
  590MOL0     C79568   6.431   3.302   8.694  0.1911  0.1113  0.7786
  590MOL0     C79569   6.517   2.869   8.572  0.6454  0.7095  0.4027
  590MOL0     C79570   6.488   2.784   8.678 -1.0898  0.0646 -0.3897
  590MOL0     C79571   6.523   2.644   8.669  0.7702  0.0863  0.2263
  590MOL0     C79572   6.603   2.600   8.566  0.8609  0.5573 -0.0913
  590MOL0     O79573   6.639   2.462   8.561 -0.0138 -0.1119  0.0321
  590MOL0     C79574   6.610   2.368   8.672 -0.0716  0.9514 -0.4967
  590MOL0     C79575   6.684   2.236   8.659  0.0344 -0.1155 -0.0989
  590MOL0     C79576   6.636   2.137   8.554 -0.0700  0.4287  0.0810
  590MOL0     C79577   6.725   2.017   8.542  0.0079  0.6761  0.0050
  590MOL0     C79578   6.656   1.909   8.457  0.3312 -0.7196 -0.8249
  590MOL0     C79579   6.608   1.825   8.381 -0.0630 -0.4329  1.4204
  590MOL0     C79580   6.634   2.687   8.461  0.0556  0.5168 -0.0961
  590MOL0     C79581   6.587   2.817   8.456  0.4557 -0.0073  0.1780
  590MOL0     C79582   6.609   2.894   8.334 -0.1857 -0.6758  0.9998
  590MOL0     H79583   6.151   3.128   8.724  1.4676 -0.9581  0.0875
  590MOL0     H79584   6.067   3.340   8.800  0.2497 -3.6757 -0.5347
  590MOL0     H79585   6.246   3.753   8.918 -3.7853  1.8127 -2.8892
  590MOL0     H79586   6.400   3.668   8.863  0.0317 -1.1828 -2.8975
  590MOL0     H79587   6.336   3.714   8.621  1.1884  1.0138 -0.8570
  590MOL0     H79588   6.360   3.855   8.714 -0.2734  0.3207  0.0598
  590MOL0     H79589   6.139   3.921   8.716  1.3888  0.2704 -0.1300
  590MOL0     H79590   6.084   3.749   8.662  0.0996 -0.1744 -1.6658
  590MOL0     H79591   6.081   3.953   8.491 -1.2221 -0.9700  1.1286
  590MOL0     H79592   6.255   3.930   8.480  0.5501 -2.2372 -0.9664
  590MOL0     H79593   6.168   3.793   8.303 -2.0236 -0.5878 -0.3094
  590MOL0     H79594   6.176   3.671   8.439  0.2448 -0.7468 -0.1538
  590MOL0     H79595   5.991   3.634   8.323  0.9556  0.1024  1.3007
  590MOL0     H79596   5.950   3.686   8.478  1.3582  1.0971 -0.5788
  590MOL0     H79597   5.911   3.865   8.239  1.2475  1.5214  1.1769
  590MOL0     H79598   5.900   3.933   8.394  0.5727  0.8362  0.0559
  590MOL0     H79599   5.738   3.693   8.289  2.6924  1.2430 -2.1342
  590MOL0     H79600   5.700   3.789   8.437 -1.2738  4.1272  0.1596
  590MOL0     H79601   5.548   3.967   8.413  1.3753 -1.3841 -0.8528
  590MOL0     H79602   5.444   4.187   8.341 -1.2006  2.1336  0.0890
  590MOL0     H79603   5.469   4.248   8.184 -0.2883  1.5026  1.4189
  590MOL0     H79604   5.273   4.034   8.284 -0.9773  0.8214  1.3205
  590MOL0     H79605   5.238   4.192   8.274  2.1180  1.0436  2.2165
  590MOL0     H79606   5.307   4.026   8.034 -1.4893 -0.2047  0.1992
  590MOL0     H79607   5.288   4.205   8.030 -2.3235  0.7346 -1.0397
  590MOL0     H79608   5.047   4.167   8.092 -1.3988 -0.7907 -2.6729
  590MOL0     H79609   5.083   4.008   8.145 -1.1332  0.4127  0.1097
  590MOL0     H79610   4.862   4.040   8.141 -2.1011  2.2351  0.1409
  590MOL0     H79611   4.627   4.045   8.096 -2.0715  1.1661 -1.3734
  590MOL0     H79612   4.283   4.069   7.525 -3.8233 -1.8544 -3.1617
  590MOL0     H79613   4.068   4.023   7.482 -0.5752 -0.4838  1.1702
  590MOL0     H79614   3.911   3.648   7.653 -1.8609 -0.9732 -1.6600
  590MOL0     H79615   3.844   3.748   7.785  0.4392  0.0935 -0.5137
  590MOL0     H79616   3.693   3.604   7.591 -1.1165  1.7782 -2.1611
  590MOL0     H79617   3.645   3.682   7.735  0.4596 -2.8952 -0.4024
  590MOL0     H79618   3.620   3.895   7.613  0.9122  0.0726 -0.5958
  590MOL0     H79619   3.690   3.819   7.473 -0.6503 -2.6698 -0.6451
  590MOL0     H79620   3.430   3.743   7.595  0.5828  1.3242  0.1126
  590MOL0     H79621   3.518   3.633   7.491  2.0851  0.4826 -0.6876
  590MOL0     H79622   3.527   3.814   7.313  0.3172 -2.5216 -0.3138
  590MOL0     H79623   3.431   3.918   7.421 -0.1438 -0.3784 -1.7267
  590MOL0     H79624   3.251   3.742   7.447 -0.7143 -2.6187 -0.4369
  590MOL0     H79625   3.254   3.817   7.283  1.1960 -1.4880 -3.3524
  590MOL0     H79626   3.399   3.563   7.345  1.0352  1.4768  2.0354
  590MOL0     H79627   3.375   3.645   7.187 -0.1417  0.9374  0.3325
  590MOL0     H79628   3.124   3.628   7.222  1.7421  1.2053 -1.2772
  590MOL0     H79629   3.218   3.481   7.185  1.5685  0.2071  0.2656
  590MOL0     H79630   4.048   3.779   7.838 -4.0131  1.9403 -0.1460
  590MOL0     H79631   4.274   3.864   7.909 -0.8955  0.9633 -0.7723
  590MOL0     H79632   4.697   4.013   7.677  0.4727 -1.1501 -0.8444
  590MOL0     H79633   4.930   4.008   7.705 -1.7004  1.0303 -1.7406
  590MOL0     H79634   6.465   3.506   8.753 -0.6557  0.2254  0.0842
  590MOL0     H79635   6.536   3.279   8.679  0.1860  1.7040 -2.6429
  590MOL0     H79636   6.446   2.813   8.773 -1.7426 -1.6258 -0.1362
  590MOL0     H79637   6.512   2.575   8.753  3.0425  1.8268  2.1116
  590MOL0     H79638   6.503   2.353   8.687  0.1120 -3.9633 -2.1131
  590MOL0     H79639   6.639   2.408   8.769  1.4126  0.1184 -0.5662
  590MOL0     H79640   6.678   2.182   8.754  2.7711  1.8515  1.3002
  590MOL0     H79641   6.790   2.252   8.637 -0.1417 -2.4121 -3.5191
  590MOL0     H79642   6.629   2.196   8.462 -2.5840  0.7275  0.4059
  590MOL0     H79643   6.534   2.100   8.568 -1.1536  3.2068  0.1930
  590MOL0     H79644   6.818   2.049   8.494 -0.4897  0.1537 -1.3409
  590MOL0     H79645   6.742   1.967   8.638 -1.4859 -1.1360 -0.6239
  590MOL0     H79646   6.544   1.756   8.331  0.9233  1.1523 -2.3856
  590MOL0     H79647   6.698   2.652   8.381 -0.3686  0.8185 -0.5699
  590MOL0     H79648   6.628   2.828   8.249  0.9634 -0.9079  1.4279
  590MOL0     H79649   6.513   2.937   8.306 -0.8500 -2.0802  1.0088
  590MOL0     H79650   6.696   2.959   8.340  3.4075 -4.8123 -0.5747
  591MOL0     O79651  10.130   8.291   2.355  0.1998  0.3414  0.5142
  591MOL0     C79652  10.019   8.252   2.390 -0.0411  1.3385 -0.1009
  591MOL0     O79653   9.902   8.318   2.377 -0.5137 -0.8442  0.0153
  591MOL0     C79654   9.915   8.451   2.345  0.2630 -0.0488 -0.2445
  591MOL0     C79655   9.996   8.541   2.422  0.5099  0.2293  0.0702
  591MOL0     C79656  10.008   8.677   2.385 -0.4707 -0.1307  0.7992
  591MOL0     C79657   9.952   8.726   2.264 -0.5976  0.3051  0.2738
  591MOL0     O79658   9.971   8.852   2.207  0.2272  0.5627 -0.2865
  591MOL0     C79659  10.099   8.908   2.207  0.4137  0.8345  0.0391
  591MOL0     C79660  10.095   9.031   2.298 -1.1638  0.0440 -0.1816
  591MOL0     C79661  10.193   9.137   2.258  0.3718 -0.4302  0.2393
  591MOL0     C79662  10.336   9.092   2.247  0.2089 -0.3904 -0.2033
  591MOL0     C79663  10.435   9.199   2.189 -0.2995  0.1211 -0.8654
  591MOL0     C79664  10.465   9.184   2.036  0.1447  0.9073 -0.2332
  591MOL0     C79665  10.531   9.305   1.973  0.3465  0.3095 -0.5920
  591MOL0     C79666  10.557   9.320   1.827  0.4827  1.3954  0.7087
  591MOL0     N79667  10.427   9.340   1.748 -0.2441 -0.6211 -0.6393
  591MOL0     C79668  10.328   9.243   1.722 -0.2678 -0.2006 -0.6317
  591MOL0     C79669  10.240   9.303   1.642 -0.8591  0.4483  0.3032
  591MOL0     C79670  10.123   9.227   1.585  0.4341 -0.1358  0.5009
  591MOL0     C79671  10.142   9.180   1.445  0.4450  0.1497  0.3394
  591MOL0     C79672  10.237   9.059   1.423 -0.3086 -0.3030 -0.0379
  591MOL0     C79673  10.255   9.035   1.275 -0.5744 -0.2975  0.4963
  591MOL0     O79674  10.144   8.982   1.198  0.5464 -0.1036  0.2402
  591MOL0     C79675  10.108   8.845   1.217 -0.2604  0.7859 -0.9165
  591MOL0     C79676  10.182   8.750   1.288  0.2147  0.1790  0.3382
  591MOL0     C79677  10.144   8.629   1.305 -0.5494 -0.3594  0.0725
  591MOL0     C79678  10.020   8.579   1.264  0.0232 -1.2664  0.5102
  591MOL0     C79679   9.955   8.459   1.317 -0.0882  0.4108  0.2816
  591MOL0     O79680   9.817   8.460   1.323 -0.1982 -0.8411 -0.1182
  591MOL0     C79681   9.749   8.341   1.315 -0.1593 -0.3566 -0.8483
  591MOL0     C79682   9.749   8.244   1.425 -0.8216 -0.4269  0.5573
  591MOL0     C79683   9.668   8.127   1.421 -0.6080 -0.5440  0.4928
  591MOL0     C79684   9.595   8.104   1.305  0.3153  0.9908  0.2649
  591MOL0     O79685   9.506   8.003   1.290 -0.7288  0.0111 -0.4036
  591MOL0     C79686   9.382   8.032   1.355  0.3261 -0.4607 -0.0005
  591MOL0     C79687   9.269   7.950   1.285 -0.2900  0.0534 -0.8271
  591MOL0     C79688   9.223   7.829   1.360  0.7815 -0.5980  1.1265
  591MOL0     C79689   9.322   7.708   1.321 -0.4517 -0.2203  0.6772
  591MOL0     C79690   9.278   7.593   1.408  0.1449  0.0953  0.3452
  591MOL0     C79691   9.358   7.466   1.391  0.7085 -0.2055 -0.6361
  591MOL0     C79692   9.325   7.404   1.251 -0.5099  0.6529  0.3380
  591MOL0     C79693   9.344   7.250   1.254  0.1234  0.1822  0.2836
  591MOL0    Cl79694   9.517   7.205   1.265  0.3524 -0.2660  0.1080
  591MOL0     C79695   9.601   8.196   1.200  0.9909  0.1189 -0.1059
  591MOL0     C79696   9.660   8.320   1.203 -1.0533  0.4314 -0.0471
  591MOL0     O79697  10.024   8.364   1.345 -0.0312  0.1704 -0.1338
  591MOL0     C79698   9.938   8.670   1.190  0.8932  0.5047  0.1542
  591MOL0     C79699   9.980   8.803   1.170  0.1320 -0.1798  0.2208
  591MOL0     N79700  10.287   9.426   1.598 -0.2163 -0.2606 -0.1549
  591MOL0     N79701  10.397   9.451   1.670  0.3651  0.9869 -0.3906
  591MOL0     C79702   9.867   8.640   2.194 -0.6895 -0.6722 -1.3119
  591MOL0     C79703   9.846   8.504   2.234  0.4762  0.0405  0.3922
  591MOL0     C79704  10.016   8.127   2.471  0.0198  0.3273 -0.7763
  591MOL0     C79705  10.130   8.096   2.549 -0.1553 -0.0627  0.7427
  591MOL0     C79706  10.142   7.977   2.628 -0.6683 -0.7017 -0.8202
  591MOL0     C79707  10.029   7.888   2.645 -0.4716  0.2379  0.2140
  591MOL0     O79708  10.033   7.770   2.723  0.4133 -0.3571 -0.2680
  591MOL0     C79709  10.130   7.767   2.824 -0.7371  0.1226 -0.5227
  591MOL0     C79710  10.255   7.678   2.801 -0.2110 -0.6536 -0.7511
  591MOL0     C79711  10.367   7.695   2.911 -0.0794  0.1205 -0.0303
  591MOL0     C79712  10.461   7.567   2.915 -0.7653 -0.2033  0.6225
  591MOL0     C79713  10.399   7.455   2.991 -0.2145 -0.2756  0.0333
  591MOL0     C79714  10.356   7.355   3.045  0.2869 -0.1215 -0.4855
  591MOL0     C79715   9.916   7.924   2.573  0.0053 -0.6195 -0.5419
  591MOL0     C79716   9.909   8.035   2.478 -0.2095  0.3202 -0.7455
  591MOL0     C79717   9.774   8.063   2.416 -0.3873  0.1308  0.2995
  591MOL0     H79718  10.061   8.516   2.505  0.1843  1.8710  0.8532
  591MOL0     H79719  10.069   8.740   2.448 -0.9136 -1.5491  2.7306
  591MOL0     H79720  10.187   8.848   2.234 -0.2047 -0.2192 -0.2245
  591MOL0     H79721  10.120   8.928   2.102 -3.8076  3.7324 -0.5002
  591MOL0     H79722  10.125   9.001   2.398 -3.2399  0.2103  0.5303
  591MOL0     H79723   9.987   9.047   2.297 -1.2002  0.1608 -2.7593
  591MOL0     H79724  10.176   9.214   2.334  1.5038  3.1010 -2.7553
  591MOL0     H79725  10.153   9.187   2.170 -2.0157  2.2352  2.6242
  591MOL0     H79726  10.371   9.060   2.345 -0.4010  0.0112  0.1549
  591MOL0     H79727  10.336   9.008   2.177  0.8764  1.7153 -2.9181
  591MOL0     H79728  10.394   9.295   2.221  1.7722  0.8776 -0.3349
  591MOL0     H79729  10.526   9.176   2.246 -0.6105  1.3047  0.1648
  591MOL0     H79730  10.538   9.103   2.026  0.3806  1.0769  0.0833
  591MOL0     H79731  10.371   9.168   1.983  0.4438  1.3074 -0.9053
  591MOL0     H79732  10.619   9.336   2.031 -0.0200  2.0466 -0.9010
  591MOL0     H79733  10.462   9.389   1.985 -0.4515 -0.0219 -2.4149
  591MOL0     H79734  10.608   9.416   1.821 -3.5014  3.5924 -1.6386
  591MOL0     H79735  10.617   9.238   1.785 -0.5153  1.1623 -0.3141
  591MOL0     H79736  10.310   9.142   1.758 -1.6911  0.6256  1.1280
  591MOL0     H79737  10.107   9.141   1.650  2.5880  0.2664  1.6713
  591MOL0     H79738  10.037   9.294   1.597 -0.4433 -1.1776  0.2345
  591MOL0     H79739  10.050   9.142   1.401  0.0280 -0.9619  2.0789
  591MOL0     H79740  10.180   9.265   1.387 -0.1266 -0.5915 -1.1627
  591MOL0     H79741  10.203   8.967   1.472 -1.7925 -0.9967 -2.2234
  591MOL0     H79742  10.335   9.081   1.465 -0.2748  1.7878 -1.0626
  591MOL0     H79743  10.346   8.974   1.270  2.2796  3.6372 -0.0631
  591MOL0     H79744  10.299   9.123   1.227 -0.7796  0.6522  1.9715
  591MOL0     H79745  10.278   8.784   1.326 -0.3271 -0.8905  2.8567
  591MOL0     H79746  10.198   8.564   1.373 -0.7146  0.1260  0.6752
  591MOL0     H79747   9.810   8.262   1.513  2.1024  0.1890 -1.4644
  591MOL0     H79748   9.675   8.041   1.488  0.0672 -0.6708  0.2690
  591MOL0     H79749   9.392   8.008   1.461  0.7825 -0.6770 -0.0934
  591MOL0     H79750   9.348   8.137   1.353 -0.6806 -0.6078 -5.2827
  591MOL0     H79751   9.173   8.004   1.283 -1.4872 -1.6620  2.3969
  591MOL0     H79752   9.299   7.924   1.183  0.2132 -2.7950 -0.0378
  591MOL0     H79753   9.212   7.859   1.465 -3.5567  1.8808  0.2349
  591MOL0     H79754   9.119   7.809   1.333 -0.1987  2.5024  2.1338
  591MOL0     H79755   9.422   7.735   1.355 -0.5435 -0.2265  0.9575
  591MOL0     H79756   9.318   7.684   1.215 -0.8894  0.4025  0.5484
  591MOL0     H79757   9.172   7.569   1.393  0.2602 -0.8783  1.0084
  591MOL0     H79758   9.275   7.631   1.511 -2.4619  2.0348 -0.3267
  591MOL0     H79759   9.465   7.488   1.400  0.4102  3.4831 -3.7113
  591MOL0     H79760   9.332   7.397   1.472  0.7307  1.5551  0.9637
  591MOL0     H79761   9.395   7.454   1.183  1.2727  2.1441  3.1036
  591MOL0     H79762   9.225   7.433   1.219 -0.2049  2.0170  0.5773
  591MOL0     H79763   9.285   7.216   1.340  0.7057 -0.4274  0.4438
  591MOL0     H79764   9.297   7.216   1.161  3.1384 -0.8472 -0.9705
  591MOL0     H79765   9.535   8.173   1.116  0.5038  2.7511 -0.5339
  591MOL0     H79766   9.649   8.388   1.119 -1.8051 -0.2836 -0.5428
  591MOL0     H79767   9.832   8.649   1.184  0.6274  1.1971  1.7772
  591MOL0     H79768   9.912   8.875   1.126  0.2987  0.4184  0.9251
  591MOL0     H79769   9.824   8.676   2.102  2.9404  1.1324 -2.4824
  591MOL0     H79770   9.795   8.433   2.170 -2.3835 -0.5982  3.0995
  591MOL0     H79771  10.216   8.161   2.546  0.2057 -0.5653 -2.1310
  591MOL0     H79772  10.228   7.966   2.694 -2.6292  0.7206  2.2265
  591MOL0     H79773  10.066   7.716   2.897 -3.8698  2.2898 -1.5732
  591MOL0     H79774  10.165   7.862   2.866 -1.2600 -1.4737  4.1622
  591MOL0     H79775  10.293   7.705   2.702 -2.5343 -1.5659 -1.9501
  591MOL0     H79776  10.222   7.574   2.798 -2.6728  0.0638 -0.3932
  591MOL0     H79777  10.321   7.725   3.006  0.3942  0.6171  0.0500
  591MOL0     H79778  10.423   7.782   2.874  0.2062 -0.3570 -0.7388
  591MOL0     H79779  10.488   7.542   2.813 -1.1712 -2.8623  1.1039
  591MOL0     H79780  10.550   7.601   2.969  0.0312 -0.5192 -0.4806
  591MOL0     H79781  10.331   7.256   3.077  0.3846 -0.9302 -2.6867
  591MOL0     H79782   9.826   7.867   2.592  0.9244 -1.0526  3.3537
  591MOL0     H79783   9.724   8.137   2.478  3.0261  0.6701  2.7498
  591MOL0     H79784   9.798   8.088   2.313  0.1076 -3.0704 -0.4821
  591MOL0     H79785   9.713   7.973   2.405  1.0150 -0.8449  0.1716
  592MOL0     O79786   9.512   0.452   7.570 -0.4057 -0.3978 -0.3313
  592MOL0     C79787   9.460   0.418   7.673  0.4565  0.4550  0.3531
  592MOL0     O79788   9.367   0.496   7.735 -0.5283 -0.6382  0.0003
  592MOL0     C79789   9.334   0.480   7.866 -1.3065  0.4022  0.4420
  592MOL0     C79790   9.243   0.383   7.912  0.3856  0.3678  0.0220
  592MOL0     C79791   9.211   0.380   8.044  0.8986  0.4786 -0.2137
  592MOL0     C79792   9.263   0.462   8.140  0.0799 -0.3159 -0.4533
  592MOL0     O79793   9.224   0.462   8.276  0.8529 -0.3294  0.7902
  592MOL0     C79794   9.256   0.336   8.339 -0.0379  0.5156 -0.7507
  592MOL0     C79795   9.207   0.336   8.491 -0.0657 -0.5450 -0.3642
  592MOL0     C79796   9.306   0.420   8.576  1.2221  1.1065 -1.2125
  592MOL0     C79797   9.265   0.423   8.723 -0.1506 -1.7284 -0.2223
  592MOL0     C79798   9.334   0.537   8.798  0.6244 -0.9524  0.8988
  592MOL0     C79799   9.488   0.539   8.793 -0.3308  0.3899  0.4157
  592MOL0     C79800   9.530   0.441   8.901 -1.1501  0.0678  0.4612
  592MOL0     C79801   9.666   0.468   8.954 -0.9376 -0.0827 -0.4170
  592MOL0     N79802   9.774   0.466   8.854 -0.2899 -0.4535 -0.1259
  592MOL0     C79803   9.880   0.376   8.853  0.3887  0.5279  0.6158
  592MOL0     C79804   9.955   0.417   8.738 -0.6338  0.0928  0.0334
  592MOL0     C79805  10.092   0.365   8.697  0.1414 -0.8736 -1.1541
  592MOL0     C79806  10.177   0.337   8.823  0.5200  0.1871 -0.5845
  592MOL0     C79807  10.318   0.290   8.801 -0.1778  0.4296  0.4917
  592MOL0     C79808  10.339   0.169   8.706 -0.0414 -0.3056 -0.3113
  592MOL0     O79809  10.468   0.120   8.740  0.1399  0.1261  0.3961
  592MOL0     C79810  10.518   0.017   8.676 -0.6391  0.4066  0.5342
  592MOL0     C79811  10.605  -0.059   8.752 -0.6946  0.2126  0.2266
  592MOL0     C79812  10.678  -0.156   8.685  0.1216  0.0356  0.2013
  592MOL0     C79813  10.648  -0.209   8.561  0.6662  0.8035  0.0919
  592MOL0     C79814  10.715  -0.329   8.504  0.2508  0.6077 -0.2018
  592MOL0     O79815  10.768  -0.428   8.589  0.2670  0.4038 -0.5506
  592MOL0     C79816  10.876  -0.502   8.556  0.6799 -0.4760 -0.5291
  592MOL0     C79817  11.003  -0.464   8.604  0.1893  0.4815 -0.9374
  592MOL0     C79818  11.107  -0.558   8.592 -0.6164  0.1500 -0.5820
  592MOL0     C79819  11.094  -0.675   8.522  0.5446 -0.6814 -0.8407
  592MOL0     O79820  11.213  -0.743   8.523 -0.1091  0.4985 -0.5400
  592MOL0     C79821  11.216  -0.858   8.436 -1.0600 -0.3413 -0.0564
  592MOL0     C79822  11.366  -0.914   8.454  0.0895  0.9027 -1.0782
  592MOL0     C79823  11.384  -1.068   8.428  1.2525  0.1167 -0.4027
  592MOL0     C79824  11.524  -1.106   8.454 -0.7065 -0.3524  0.5150
  592MOL0     C79825  11.545  -1.269   8.450 -0.8328 -0.2219 -0.1715
  592MOL0     C79826  11.459  -1.347   8.545 -0.6182  0.4185 -0.5626
  592MOL0     C79827  11.476  -1.489   8.524 -0.0139 -0.0500  0.1764
  592MOL0     C79828  11.412  -1.565   8.640  0.4972  0.3557  0.3754
  592MOL0    Cl79829  11.519  -1.537   8.790 -0.5766  0.3212  0.0220
  592MOL0     C79830  10.971  -0.705   8.462 -0.8253  0.6282 -0.6566
  592MOL0     C79831  10.865  -0.617   8.480 -0.2855  0.1167 -0.2975
  592MOL0     O79832  10.722  -0.327   8.382 -1.0745 -0.0030  0.0991
  592MOL0     C79833  10.563  -0.130   8.484  0.0442 -0.1840  0.2300
  592MOL0     C79834  10.494  -0.025   8.540 -0.3721 -0.0632  0.5402
  592MOL0     N79835   9.895   0.530   8.678 -0.5440  0.2125 -0.1148
  592MOL0     N79836   9.788   0.551   8.747  1.2545  0.8910 -0.1825
  592MOL0     C79837   9.359   0.563   8.091  0.4949 -0.2927  0.3794
  592MOL0     C79838   9.381   0.576   7.955 -0.0402  0.1395  1.4597
  592MOL0     C79839   9.527   0.294   7.730  0.7344  0.2996  0.4937
  592MOL0     C79840   9.456   0.170   7.717  0.0881 -0.0307 -0.0719
  592MOL0     C79841   9.506   0.047   7.761 -0.2803  0.8099 -1.1008
  592MOL0     C79842   9.616   0.052   7.846 -0.6694  0.1578 -0.4769
  592MOL0     O79843   9.653  -0.077   7.882  0.1277  0.0791  0.2690
  592MOL0     C79844   9.698  -0.098   8.012  0.4033  0.8043 -0.5034
  592MOL0     C79845   9.816  -0.194   7.999 -0.1721  0.0968 -0.2238
  592MOL0     C79846   9.842  -0.280   8.126  0.3477  0.1040  0.1113
  592MOL0     C79847   9.950  -0.380   8.105  0.2650  0.0612  0.3052
  592MOL0     C79848  10.083  -0.313   8.093 -0.2970  0.7501 -0.3824
  592MOL0     C79849  10.183  -0.257   8.069  0.2030 -1.0171 -0.2581
  592MOL0     C79850   9.681   0.173   7.872  0.0003 -0.1206 -0.1977
  592MOL0     C79851   9.635   0.295   7.819 -0.0005  0.0356 -0.5926
  592MOL0     C79852   9.719   0.418   7.833  0.0800  0.0141 -0.1314
  592MOL0     H79853   9.200   0.317   7.838  0.4416  1.8923 -1.4477
  592MOL0     H79854   9.134   0.310   8.074 -0.3080  1.3821 -1.1173
  592MOL0     H79855   9.205   0.250   8.295 -0.8071  1.0862 -0.9968
  592MOL0     H79856   9.364   0.317   8.346 -0.5368 -2.6691 -0.2967
  592MOL0     H79857   9.206   0.232   8.525  0.4986 -0.6136 -0.5581
  592MOL0     H79858   9.104   0.370   8.506  0.1908  0.4595 -0.8206
  592MOL0     H79859   9.317   0.522   8.540 -0.3577  2.5108  1.8778
  592MOL0     H79860   9.406   0.377   8.567 -0.3384 -3.0347 -1.3767
  592MOL0     H79861   9.158   0.444   8.727  0.7357  5.1491  0.7225
  592MOL0     H79862   9.287   0.327   8.770 -0.4564 -1.7679 -0.1577
  592MOL0     H79863   9.312   0.631   8.746  2.3467 -2.0861 -2.1127
  592MOL0     H79864   9.302   0.546   8.902 -0.2756  1.6915  0.4702
  592MOL0     H79865   9.531   0.510   8.697 -1.3100 -1.1418  0.3990
  592MOL0     H79866   9.531   0.636   8.815  0.9768  0.2895 -1.4725
  592MOL0     H79867   9.541   0.345   8.850  1.7017  0.6741 -0.2120
  592MOL0     H79868   9.461   0.449   8.985 -2.2823 -3.1410 -0.0281
  592MOL0     H79869   9.683   0.557   9.016  0.3686 -0.4936 -0.1558
  592MOL0     H79870   9.681   0.388   9.027 -2.5015  1.1860  1.4002
  592MOL0     H79871   9.893   0.303   8.932 -0.8354 -1.4780 -0.9444
  592MOL0     H79872  10.091   0.276   8.634  0.9085 -0.5464 -1.6500
  592MOL0     H79873  10.137   0.445   8.637 -0.0137  1.5726  1.7532
  592MOL0     H79874  10.186   0.429   8.882  1.3786 -0.4513  0.3215
  592MOL0     H79875  10.123   0.262   8.881  2.1652  1.2857  2.6009
  592MOL0     H79876  10.356   0.266   8.901 -1.1304 -2.0952  0.3241
  592MOL0     H79877  10.379   0.374   8.768 -2.4360  1.7978 -0.3277
  592MOL0     H79878  10.313   0.208   8.607 -3.4716 -2.6838 -0.5486
  592MOL0     H79879  10.260   0.098   8.735 -1.2508  1.7679  1.8087
  592MOL0     H79880  10.621  -0.047   8.858 -1.1475  0.4708  0.2688
  592MOL0     H79881  10.748  -0.209   8.749 -0.9000  1.3239  2.5002
  592MOL0     H79882  11.011  -0.370   8.658 -0.5329  0.4700 -0.7937
  592MOL0     H79883  11.199  -0.515   8.629 -0.4641  0.2629 -1.0824
  592MOL0     H79884  11.154  -0.943   8.467 -1.1543  0.2247  1.3607
  592MOL0     H79885  11.203  -0.839   8.329 -2.4335  0.7289  0.2889
  592MOL0     H79886  11.435  -0.860   8.389 -1.6065  0.9990 -2.8930
  592MOL0     H79887  11.394  -0.901   8.559 -0.0895 -1.0889 -0.7391
  592MOL0     H79888  11.331  -1.121   8.507  1.5686  2.3535  1.4062
  592MOL0     H79889  11.356  -1.091   8.325  1.3145  1.4046 -0.7227
  592MOL0     H79890  11.564  -1.066   8.548 -1.1559  0.5629  0.3331
  592MOL0     H79891  11.577  -1.075   8.364 -1.6400 -4.0882 -1.5486
  592MOL0     H79892  11.648  -1.300   8.470 -1.4664 -0.1793  4.1692
  592MOL0     H79893  11.509  -1.303   8.353 -0.7803  3.2661 -1.5494
  592MOL0     H79894  11.483  -1.317   8.648 -1.7401 -0.1650 -0.1179
  592MOL0     H79895  11.354  -1.328   8.523 -1.3182  0.5494  2.4238
  592MOL0     H79896  11.581  -1.520   8.510 -0.3737 -0.6045 -1.6216
  592MOL0     H79897  11.428  -1.523   8.432  0.6352 -4.9020  1.3614
  592MOL0     H79898  11.310  -1.530   8.658 -0.3030 -1.0841 -1.1109
  592MOL0     H79899  11.387  -1.669   8.615 -0.4124  0.5057  0.6379
  592MOL0     H79900  10.960  -0.793   8.399  0.0785 -1.6974  2.1976
  592MOL0     H79901  10.777  -0.665   8.438  1.0163 -2.0775 -0.6788
  592MOL0     H79902  10.541  -0.165   8.383  1.9465 -2.4888  0.5303
  592MOL0     H79903  10.422   0.015   8.468  0.0235  2.9456  1.6477
  592MOL0     H79904   9.398   0.629   8.168 -1.6038  2.4331 -0.7022
  592MOL0     H79905   9.455   0.647   7.920  0.3081 -0.2731  1.3560
  592MOL0     H79906   9.374   0.169   7.646  0.1227  2.5278 -0.2190
  592MOL0     H79907   9.460  -0.048   7.736  1.3834 -0.6243  1.0167
  592MOL0     H79908   9.621  -0.146   8.074  1.0110 -1.6533 -1.5532
  592MOL0     H79909   9.736  -0.012   8.068 -0.6420  2.6031 -2.4272
  592MOL0     H79910   9.899  -0.130   7.966  0.4177 -0.9193 -0.7436
  592MOL0     H79911   9.791  -0.270   7.924  1.7741 -1.1178  0.3001
  592MOL0     H79912   9.753  -0.336   8.154  1.9092 -2.0847  0.9833
  592MOL0     H79913   9.864  -0.209   8.207  0.3998  1.9320 -1.4408
  592MOL0     H79914   9.953  -0.450   8.189 -0.3272  1.1092  1.2167
  592MOL0     H79915   9.930  -0.445   8.019  2.4186 -1.8967  1.1633
  592MOL0     H79916  10.280  -0.216   8.049  0.1057  0.3608  1.7379
  592MOL0     H79917   9.777   0.181   7.922  0.2647  1.7450 -0.9202
  592MOL0     H79918   9.786   0.420   7.747 -0.9758 -4.3631 -1.3139
  592MOL0     H79919   9.640   0.494   7.841 -1.6564 -1.8116  0.8945
  592MOL0     H79920   9.791   0.430   7.914  1.6001 -0.6276 -1.3380
  593MOL0     O79921   2.149   2.495   6.391  0.4914  0.4974 -0.6193
  593MOL0     C79922   2.115   2.519   6.273  0.6094  0.1007 -0.7133
  593MOL0     O79923   2.211   2.556   6.180  0.0184 -0.5703  0.0013
  593MOL0     C79924   2.332   2.584   6.226 -0.2536 -0.1584 -0.9691
  593MOL0     C79925   2.429   2.526   6.147  0.0334 -0.4091 -0.0374
  593MOL0     C79926   2.563   2.547   6.190 -0.3114  0.1416 -0.3889
  593MOL0     C79927   2.590   2.635   6.291  0.4603  0.4118 -0.2802
  593MOL0     O79928   2.719   2.634   6.350  0.1683 -0.1856 -0.4439
  593MOL0     C79929   2.763   2.519   6.418  0.0551  0.1172 -0.4417
  593MOL0     C79930   2.887   2.557   6.498 -0.2751 -0.5130  0.0884
  593MOL0     C79931   2.861   2.650   6.619  0.7502  0.1388  0.9676
  593MOL0     C79932   2.996   2.697   6.669  0.7173  0.1874 -0.6887
  593MOL0     C79933   3.005   2.709   6.826  0.4838  0.5414  0.5218
  593MOL0     C79934   3.051   2.832   6.878  0.0705 -0.8133  0.4952
  593MOL0     C79935   3.010   2.837   7.030  0.5343  1.1754 -0.8090
  593MOL0     C79936   3.051   2.967   7.089  0.4288 -0.4820 -0.7693
  593MOL0     N79937   2.954   3.068   7.033 -0.5311  0.2739 -0.8513
  593MOL0     C79938   3.009   3.172   6.956  0.1384 -0.6162  0.0820
  593MOL0     C79939   2.891   3.238   6.910 -0.5299 -0.6137 -0.3766
  593MOL0     C79940   2.896   3.353   6.816 -0.3746  0.4953 -0.7489
  593MOL0     C79941   2.775   3.446   6.823  0.6916 -0.5286  0.3783
  593MOL0     C79942   2.742   3.525   6.945  0.2530  0.2759 -0.7537
  593MOL0     C79943   2.861   3.608   6.991 -0.0601  0.0219 -0.5841
  593MOL0     O79944   2.904   3.685   6.875 -0.2282  0.2597  0.6459
  593MOL0     C79945   2.914   3.822   6.879  0.1817 -0.7016  0.8147
  593MOL0     C79946   2.870   3.893   6.988  0.0544 -0.7827 -1.3910
  593MOL0     C79947   2.881   4.033   6.975 -0.5374  0.0716 -0.1040
  593MOL0     C79948   2.929   4.107   6.858 -0.4252 -0.3976  0.8773
  593MOL0     C79949   2.907   4.251   6.846 -0.0489  0.4309 -0.4127
  593MOL0     O79950   2.799   4.309   6.903  0.2421  0.4402  0.4036
  593MOL0     C79951   2.784   4.441   6.890 -0.7750 -0.7053 -0.1887
  593MOL0     C79952   2.873   4.527   6.950  0.3192 -0.8758  0.6828
  593MOL0     C79953   2.849   4.669   6.937  0.4313  0.5342 -1.2785
  593MOL0     C79954   2.737   4.715   6.869 -0.4835  0.4249 -0.1847
  593MOL0     O79955   2.707   4.845   6.847  0.0101 -0.9940  0.1032
  593MOL0     C79956   2.803   4.950   6.881  0.6406  0.5296 -0.7772
  593MOL0     C79957   2.768   5.093   6.806  0.4944 -0.3053  0.3019
  593MOL0     C79958   2.648   5.176   6.859 -0.5102 -0.8416  0.2161
  593MOL0     C79959   2.700   5.316   6.879  0.1896  0.1897  0.0141
  593MOL0     C79960   2.602   5.418   6.944 -0.7046  0.0978  0.0888
  593MOL0     C79961   2.471   5.420   6.863  0.2808 -0.0924  0.6266
  593MOL0     C79962   2.384   5.548   6.894 -0.4201  0.5216 -0.7761
  593MOL0     C79963   2.240   5.553   6.854 -0.0778 -0.0153  0.3571
  593MOL0    Cl79964   2.167   5.687   6.936 -0.0478  0.3227  0.2599
  593MOL0     C79965   2.652   4.622   6.812 -0.2398 -0.6836  0.4903
  593MOL0     C79966   2.678   4.488   6.821  0.6176  0.4069 -0.1746
  593MOL0     O79967   2.971   4.305   6.753 -0.5912  0.3909  0.5892
  593MOL0     C79968   2.980   4.025   6.751  0.1123 -0.8513  0.2716
  593MOL0     C79969   2.972   3.879   6.765  0.3586 -0.5618  0.0656
  593MOL0     N79970   2.781   3.163   6.944  0.3453  0.8189 -1.1571
  593MOL0     N79971   2.818   3.068   7.025 -0.2183  0.7230  0.6093
  593MOL0     C79972   2.498   2.723   6.341  0.3260  0.5780  0.1065
  593MOL0     C79973   2.359   2.691   6.310  0.3289  0.1476  0.1646
  593MOL0     C79974   1.962   2.525   6.234 -0.3298 -0.2781 -0.3377
  593MOL0     C79975   1.863   2.510   6.335 -0.3644 -0.0601  0.1445
  593MOL0     C79976   1.731   2.505   6.307  1.2234  0.3287  0.9040
  593MOL0     C79977   1.680   2.509   6.174  0.4346 -0.0956  0.4949
  593MOL0     O79978   1.546   2.505   6.154  0.0004  0.0481  0.3028
  593MOL0     C79979   1.476   2.403   6.225 -0.6317 -1.0730  0.2120
  593MOL0     C79980   1.335   2.428   6.176 -0.1111  0.0086 -0.3879
  593MOL0     C79981   1.250   2.311   6.217  0.6174  0.1942  0.2436
  593MOL0     C79982   1.105   2.321   6.174  0.5645  0.9131  0.7542
  593MOL0     C79983   1.079   2.269   6.039 -0.3091  1.4999  0.0085
  593MOL0     C79984   1.054   2.231   5.927  0.5943  0.0697 -0.0077
  593MOL0     C79985   1.770   2.532   6.073  0.4179  0.6987 -0.0987
  593MOL0     C79986   1.907   2.542   6.099  0.7830 -0.7820 -0.3365
  593MOL0     C79987   1.999   2.589   5.985 -0.2929  0.3305  0.0191
  593MOL0     H79988   2.402   2.453   6.071 -2.1080  2.5787 -2.3412
  593MOL0     H79989   2.637   2.477   6.153 -2.8835 -3.1320  0.1514
  593MOL0     H79990   2.681   2.470   6.472 -2.2052  0.8177 -2.9911
  593MOL0     H79991   2.793   2.451   6.337 -0.4133 -0.4004 -0.1860
  593MOL0     H79992   2.967   2.611   6.445  1.6590 -0.2203  3.0559
  593MOL0     H79993   2.942   2.470   6.533  1.3036  0.4284  0.0463
  593MOL0     H79994   2.816   2.598   6.704 -1.6743  1.6061  0.6625
  593MOL0     H79995   2.788   2.727   6.592 -1.5573 -1.1959  2.9922
  593MOL0     H79996   3.082   2.637   6.639 -1.2301 -1.2054 -4.1181
  593MOL0     H79997   3.017   2.795   6.624 -1.4948  0.6561 -0.7934
  593MOL0     H79998   2.907   2.691   6.873  0.6741 -0.0823  0.6920
  593MOL0     H79999   3.071   2.626   6.852  0.2822 -0.7109 -2.5157
  593MOL0     H80000   3.159   2.826   6.859 -0.4464 -2.9549 -2.6392
  593MOL0     H80001   3.017   2.916   6.816  1.8615  0.0505  0.6213
  593MOL0     H80002   3.037   2.744   7.080 -0.9126  1.0086 -0.2973
  593MOL0     H80003   2.901   2.838   7.032  0.4627  1.3423  3.2701
  593MOL0     H80004   3.040   2.973   7.198 -1.2527  4.0655 -0.9542
  593MOL0     H80005   3.154   2.998   7.069  1.0164  0.7377  3.2272
  593MOL0     H80006   3.113   3.201   6.944  0.0040  1.7620  3.2232
  593MOL0     H80007   2.987   3.407   6.841  0.2140 -0.1924 -1.3612
  593MOL0     H80008   2.917   3.306   6.719 -0.4469 -2.6111  0.6276
  593MOL0     H80009   2.781   3.526   6.748 -0.5200  0.6921  1.5378
  593MOL0     H80010   2.694   3.377   6.795  0.4112 -1.1062  2.4588
  593MOL0     H80011   2.719   3.468   7.035  0.0418 -2.1116 -2.2371
  593MOL0     H80012   2.659   3.593   6.923  0.1864  0.8866  1.2043
  593MOL0     H80013   2.945   3.543   7.019 -0.7402  0.1870  2.1036
  593MOL0     H80014   2.831   3.653   7.086 -0.2647 -0.7668 -0.2679
  593MOL0     H80015   2.836   3.857   7.085  1.3476 -2.5138 -1.5253
  593MOL0     H80016   2.833   4.093   7.052  0.6836  1.1414 -0.1422
  593MOL0     H80017   2.953   4.494   7.015 -1.1340 -0.0620  2.9966
  593MOL0     H80018   2.916   4.743   6.979 -0.9914  2.4395 -2.2052
  593MOL0     H80019   2.816   4.953   6.990 -1.3921  2.9096 -0.4934
  593MOL0     H80020   2.899   4.910   6.848  0.2214 -1.9298  0.7330
  593MOL0     H80021   2.859   5.151   6.789  2.1507 -3.4199 -2.7569
  593MOL0     H80022   2.742   5.065   6.703 -0.1140 -0.8901  0.6025
  593MOL0     H80023   2.568   5.175   6.785 -2.0402 -1.4578  1.7995
  593MOL0     H80024   2.608   5.128   6.949 -0.5292 -2.8106 -0.7993
  593MOL0     H80025   2.728   5.337   6.775  2.6224  2.3145  0.9836
  593MOL0     H80026   2.798   5.328   6.927 -0.1235  4.1846 -0.0161
  593MOL0     H80027   2.652   5.515   6.952  0.6177 -0.3719 -1.7549
  593MOL0     H80028   2.573   5.385   7.044 -0.1491 -1.1726 -0.1504
  593MOL0     H80029   2.489   5.419   6.755 -0.9103 -2.6252  0.3622
  593MOL0     H80030   2.400   5.341   6.890  0.1571 -0.9221 -1.8666
  593MOL0     H80031   2.423   5.639   6.849  1.4465 -0.2790 -0.8819
  593MOL0     H80032   2.394   5.553   7.003 -0.2917 -3.1632 -0.4824
  593MOL0     H80033   2.238   5.552   6.744  0.9413 -1.6748  0.3230
  593MOL0     H80034   2.195   5.458   6.884  1.7679 -1.6629 -1.6354
  593MOL0     H80035   2.562   4.658   6.764  0.6829  2.6248  1.0108
  593MOL0     H80036   2.606   4.414   6.787  2.4958 -1.2209 -0.8138
  593MOL0     H80037   3.013   4.059   6.653 -0.9380  0.3851  0.3274
  593MOL0     H80038   3.015   3.815   6.689 -2.5850 -0.9761 -1.3989
  593MOL0     H80039   2.520   2.795   6.420  0.5437  0.1413  0.4466
  593MOL0     H80040   2.282   2.745   6.363  1.1173 -0.4012  1.9322
  593MOL0     H80041   1.889   2.511   6.441 -1.3065 -2.5120  0.4565
  593MOL0     H80042   1.664   2.501   6.392  1.4641  2.2870  1.2561
  593MOL0     H80043   1.475   2.419   6.334  0.7065 -1.8465  0.3617
  593MOL0     H80044   1.505   2.305   6.188  2.5107  0.2341 -1.0989
  593MOL0     H80045   1.328   2.438   6.068 -0.4528  1.8560 -0.2311
  593MOL0     H80046   1.308   2.528   6.212  1.6639  0.9376 -1.4988
  593MOL0     H80047   1.251   2.319   6.326  3.9901  1.0187  0.2401
  593MOL0     H80048   1.292   2.219   6.175  3.0362  1.2278  0.2834
  593MOL0     H80049   1.045   2.254   6.237 -0.3428 -1.0387 -2.0000
  593MOL0     H80050   1.066   2.423   6.177 -3.2438 -0.3655  0.2250
  593MOL0     H80051   1.054   2.198   5.825 -1.3487  1.9521 -0.6757
  593MOL0     H80052   1.735   2.557   5.973  1.6037  1.4609 -0.3472
  593MOL0     H80053   2.060   2.678   6.002 -0.9700  0.3118  3.1303
  593MOL0     H80054   2.070   2.507   5.971 -1.2553 -1.0499  2.5411
  593MOL0     H80055   1.950   2.600   5.887  0.2602 -1.8889 -0.5525
  594MOL0     O80056   2.880   3.827   7.377  0.2418  0.0742  0.4053
  594MOL0     C80057   2.889   3.858   7.494 -0.2461 -0.4723 -0.0374
  594MOL0     O80058   2.956   3.968   7.543 -0.2402 -0.4345  0.2009
  594MOL0     C80059   3.016   4.044   7.448  0.1281 -0.7754 -0.2133
  594MOL0     C80060   2.939   4.127   7.359 -0.3806  1.1096  1.3114
  594MOL0     C80061   2.996   4.216   7.264  0.4913  0.4542 -0.0279
  594MOL0     C80062   3.132   4.212   7.240  0.2270 -0.1239 -0.5238
  594MOL0     O80063   3.187   4.279   7.138  0.2528 -0.6730 -0.0195
  594MOL0     C80064   3.309   4.246   7.069 -0.2377  0.3191 -0.0336
  594MOL0     C80065   3.302   4.313   6.928 -0.9006  0.4330  0.2579
  594MOL0     C80066   3.300   4.463   6.935 -0.0212  0.0617  0.2601
  594MOL0     C80067   3.208   4.509   6.823  0.2013 -0.7361 -0.4567
  594MOL0     C80068   3.217   4.663   6.795 -0.4219 -0.4930  0.5311
  594MOL0     C80069   3.124   4.696   6.671  0.7638  0.2438 -0.6322
  594MOL0     C80070   3.126   4.846   6.645 -0.2785 -0.1091 -0.5515
  594MOL0     C80071   3.026   4.891   6.540  0.0456  0.4040  0.4778
  594MOL0     N80072   3.041   4.832   6.408 -0.1419  0.1940  0.2464
  594MOL0     C80073   2.934   4.808   6.325  0.4788 -1.0317 -0.7118
  594MOL0     C80074   2.990   4.795   6.197 -0.2863 -0.3484 -0.0664
  594MOL0     C80075   2.917   4.772   6.074  0.0411  0.5403  0.5928
  594MOL0     C80076   2.894   4.899   5.981  0.2250 -0.3524 -0.3944
  594MOL0     C80077   2.759   4.983   6.000  0.2865 -0.7349 -0.3392
  594MOL0     C80078   2.718   5.027   5.859  0.4649  0.2244 -0.1151
  594MOL0     O80079   2.812   5.129   5.818 -0.3638  0.4391 -0.0476
  594MOL0     C80080   2.766   5.235   5.748  0.6301  0.4732  0.3566
  594MOL0     C80081   2.657   5.235   5.666 -0.1635 -0.2626  0.7842
  594MOL0     C80082   2.613   5.357   5.602 -1.1662 -1.0196 -0.5712
  594MOL0     C80083   2.677   5.479   5.634 -0.2749 -0.0898  0.9709
  594MOL0     C80084   2.624   5.595   5.558 -0.0788  0.5554  0.4033
  594MOL0     O80085   2.614   5.573   5.422 -0.1122  0.5146 -0.1840
  594MOL0     C80086   2.558   5.673   5.344 -0.1836 -0.7569 -0.6665
  594MOL0     C80087   2.618   5.803   5.325 -0.0730  0.6537  0.6201
  594MOL0     C80088   2.557   5.886   5.233 -0.5338 -0.5407  0.0664
  594MOL0     C80089   2.443   5.858   5.166 -0.1801 -0.5357  0.1508
  594MOL0     O80090   2.398   5.965   5.098  0.6669  0.4482  0.2388
  594MOL0     C80091   2.268   5.957   5.051  0.8204 -0.1920 -0.6252
  594MOL0     C80092   2.225   6.095   4.985 -0.8181  0.2786 -0.5589
  594MOL0     C80093   2.103   6.105   4.896  0.2207 -0.0962  1.2602
  594MOL0     C80094   2.067   6.244   4.859 -0.8008  0.2483 -0.0005
  594MOL0     C80095   1.914   6.252   4.827 -0.8565  0.1973  0.0561
  594MOL0     C80096   1.874   6.395   4.797 -1.2928  0.4472  0.2509
  594MOL0     C80097   1.733   6.392   4.744 -0.2762  0.4120 -0.0089
  594MOL0     C80098   1.708   6.532   4.684 -0.0188  0.3906  0.0551
  594MOL0    Cl80099   1.545   6.524   4.620 -0.0671  0.2706 -0.6757
  594MOL0     C80100   2.381   5.735   5.187  0.2865  0.7452 -0.6414
  594MOL0     C80101   2.440   5.639   5.280 -0.7492  0.4825  0.7884
  594MOL0     O80102   2.593   5.699   5.614 -0.9010 -0.6615 -0.3379
  594MOL0     C80103   2.785   5.484   5.720  0.6360 -0.1937 -0.0741
  594MOL0     C80104   2.833   5.358   5.763 -0.8081 -0.7751  0.5393
  594MOL0     N80105   3.131   4.793   6.211  0.5533 -0.4744 -0.4017
  594MOL0     N80106   3.152   4.808   6.333 -0.8974  0.4510  0.1079
  594MOL0     C80107   3.210   4.136   7.332  0.6882  0.1767 -0.9145
  594MOL0     C80108   3.157   4.047   7.424  0.2481 -0.0319 -0.6508
  594MOL0     C80109   2.826   3.775   7.599 -0.1329 -0.8483  0.1277
  594MOL0     C80110   2.830   3.823   7.729  0.4509 -0.6118 -0.7269
  594MOL0     C80111   2.787   3.746   7.838  0.4213  0.1582  0.3620
  594MOL0     C80112   2.744   3.614   7.830 -0.6259 -0.7346 -0.2201
  594MOL0     O80113   2.704   3.542   7.937 -0.3666  0.1195  0.3081
  594MOL0     C80114   2.696   3.393   7.917  0.9527 -1.0254 -0.4712
  594MOL0     C80115   2.675   3.321   8.054 -0.6051 -0.3037 -0.1816
  594MOL0     C80116   2.784   3.370   8.153  0.1872  0.1206 -0.3639
  594MOL0     C80117   2.848   3.244   8.219  0.2875 -0.1222 -0.4896
  594MOL0     C80118   2.743   3.194   8.314 -0.1353 -0.6031 -0.7354
  594MOL0     C80119   2.664   3.157   8.399  0.2747 -0.6264  0.4761
  594MOL0     C80120   2.736   3.568   7.695 -0.1284  0.5778  0.3267
  594MOL0     C80121   2.780   3.642   7.582  0.2455 -0.9444  0.0463
  594MOL0     C80122   2.774   3.560   7.453 -0.4167 -0.5209  0.0561
  594MOL0     H80123   2.833   4.105   7.350 -0.0104  0.1245 -1.2948
  594MOL0     H80124   2.937   4.272   7.193  0.1356  0.3587  0.1919
  594MOL0     H80125   3.405   4.269   7.115 -0.7786 -2.1891  2.6463
  594MOL0     H80126   3.312   4.138   7.053 -2.0924  0.2121  0.1247
  594MOL0     H80127   3.213   4.271   6.881 -1.4138 -0.1273  1.6626
  594MOL0     H80128   3.387   4.281   6.867 -2.1211 -0.2463 -1.1562
  594MOL0     H80129   3.399   4.511   6.928 -0.4187  0.8279 -0.2422
  594MOL0     H80130   3.267   4.493   7.035 -0.3350 -2.1509  0.8568
  594MOL0     H80131   3.240   4.458   6.732  2.1677 -1.2782  0.4685
  594MOL0     H80132   3.107   4.479   6.851 -0.1596  2.1391  1.8810
  594MOL0     H80133   3.183   4.729   6.875  0.4654  1.3192 -0.5466
  594MOL0     H80134   3.321   4.687   6.772 -1.4815  1.2372 -3.0295
  594MOL0     H80135   3.157   4.636   6.585 -0.5873 -2.1190  0.3946
  594MOL0     H80136   3.022   4.664   6.690  0.9596 -1.6471 -2.3843
  594MOL0     H80137   3.226   4.884   6.620  0.6745 -2.7123 -0.9534
  594MOL0     H80138   3.099   4.895   6.739 -3.3085 -1.3731 -0.6566
  594MOL0     H80139   2.924   4.878   6.578 -0.4417  1.3733 -0.4395
  594MOL0     H80140   3.040   4.998   6.522 -0.6446  0.5857  1.0034
  594MOL0     H80141   2.833   4.819   6.363  0.8770 -0.0271  0.1227
  594MOL0     H80142   2.964   4.690   6.019  2.7669  3.4934 -1.9100
  594MOL0     H80143   2.815   4.747   6.104 -0.4757  0.1821 -1.3417
  594MOL0     H80144   2.974   4.973   5.993 -0.4671  0.4553 -0.6851
  594MOL0     H80145   2.905   4.865   5.878 -1.3695 -1.6874 -0.1653
  594MOL0     H80146   2.784   5.068   6.064 -0.6697 -0.9235  0.2950
  594MOL0     H80147   2.675   4.931   6.046 -0.6138  0.7884 -0.2000
  594MOL0     H80148   2.611   5.049   5.859 -0.4330 -3.4240  0.3220
  594MOL0     H80149   2.723   4.949   5.783  2.3968  2.3040 -2.2823
  594MOL0     H80150   2.608   5.148   5.624 -1.5378  1.3057 -1.0191
  594MOL0     H80151   2.524   5.354   5.540 -3.2765 -3.2928  2.3067
  594MOL0     H80152   2.700   5.827   5.392  1.1650  0.8834 -0.9365
  594MOL0     H80153   2.607   5.982   5.222 -1.1800  0.0167  1.7153
  594MOL0     H80154   2.275   5.879   4.974  4.7010 -0.5870 -0.0757
  594MOL0     H80155   2.197   5.928   5.129 -0.4243  1.3848 -1.1318
  594MOL0     H80156   2.231   6.170   5.064 -1.5399  0.6148 -0.8093
  594MOL0     H80157   2.315   6.107   4.924 -1.1764 -5.4528 -2.8460
  594MOL0     H80158   2.119   6.045   4.806 -0.1967  0.5770  0.7272
  594MOL0     H80159   2.023   6.048   4.944 -1.4289  1.4810  0.5191
  594MOL0     H80160   2.138   6.270   4.779 -0.4767  1.9225  0.7735
  594MOL0     H80161   2.080   6.323   4.934 -2.8139  1.1312 -0.5044
  594MOL0     H80162   1.859   6.204   4.908 -0.8664  1.8160  1.0547
  594MOL0     H80163   1.905   6.195   4.734  1.2307 -1.3429  0.7267
  594MOL0     H80164   1.890   6.468   4.876  0.2852 -0.8431  1.2014
  594MOL0     H80165   1.944   6.434   4.722 -0.5593  1.3490  1.3615
  594MOL0     H80166   1.662   6.364   4.822 -2.2660 -3.4078 -2.8666
  594MOL0     H80167   1.720   6.318   4.665  1.0343 -1.6711  1.6389
  594MOL0     H80168   1.702   6.589   4.777 -2.7228 -2.5875  1.9357
  594MOL0     H80169   1.786   6.564   4.614  0.3468  1.3411  0.8798
  594MOL0     H80170   2.293   5.710   5.130 -0.7303  0.9263  0.7846
  594MOL0     H80171   2.401   5.538   5.291 -0.2207  0.4415  2.7113
  594MOL0     H80172   2.825   5.583   5.736  1.6780 -0.5658 -0.3080
  594MOL0     H80173   2.929   5.365   5.814 -0.6554  1.6974  0.0533
  594MOL0     H80174   3.316   4.156   7.317  1.0998 -1.5915 -0.5976
  594MOL0     H80175   3.204   3.968   7.481 -0.6524  1.2273  2.0243
  594MOL0     H80176   2.862   3.923   7.758 -0.6916 -0.0787 -1.2474
  594MOL0     H80177   2.812   3.797   7.930  1.0513  1.2239 -0.3745
  594MOL0     H80178   2.776   3.352   7.854 -0.0289 -2.1821 -1.0122
  594MOL0     H80179   2.603   3.386   7.861  0.6396  0.7471 -0.2175
  594MOL0     H80180   2.673   3.214   8.032  0.2747 -0.2370 -0.5960
  594MOL0     H80181   2.572   3.338   8.089 -0.9320  0.4093 -1.4379
  594MOL0     H80182   2.734   3.428   8.231  2.2216  0.6521  0.6167
  594MOL0     H80183   2.861   3.435   8.110  0.8292 -0.1317  0.3596
  594MOL0     H80184   2.884   3.171   8.145 -0.0196  2.2118 -3.1396
  594MOL0     H80185   2.937   3.282   8.269  1.0915 -0.5139 -1.5615
  594MOL0     H80186   2.586   3.155   8.472  0.2751  2.9622  0.7062
  594MOL0     H80187   2.699   3.470   7.664  0.3872  0.5708 -0.2991
  594MOL0     H80188   2.734   3.619   7.370 -2.3077  0.5167  1.6267
  594MOL0     H80189   2.874   3.529   7.420 -0.8995 -3.5159  1.1218
  594MOL0     H80190   2.726   3.461   7.454  0.3240 -0.9574 -1.9061
  595MOL0     O80191   4.568   9.355   5.900 -0.5654  0.2425  0.7130
  595MOL0     C80192   4.592   9.436   5.814  0.1792 -0.2659 -0.4535
  595MOL0     O80193   4.510   9.547   5.782 -0.4469 -0.1560 -0.1494
  595MOL0     C80194   4.383   9.557   5.825 -0.0553  0.1019  0.6013
  595MOL0     C80195   4.290   9.460   5.792  0.1300  0.0698  1.0873
  595MOL0     C80196   4.156   9.473   5.830  0.3936  0.6701 -0.2828
  595MOL0     C80197   4.113   9.592   5.889  0.0072  0.4491  0.2956
  595MOL0     O80198   3.981   9.610   5.927 -1.7632 -0.8252 -0.0245
  595MOL0     C80199   3.967   9.569   6.060  0.3254 -0.2770 -0.2039
  595MOL0     C80200   3.853   9.665   6.119 -0.6366  0.3973  0.4561
  595MOL0     C80201   3.907   9.809   6.109  0.3595 -0.3542 -0.1165
  595MOL0     C80202   3.814   9.914   6.176 -1.3284  1.1731  0.2890
  595MOL0     C80203   3.848  10.060   6.145  0.1955 -0.1763  0.3880
  595MOL0     C80204   3.993  10.088   6.177 -1.0821  0.2664  0.5067
  595MOL0     C80205   4.008  10.241   6.149  0.6609  0.9296 -0.4878
  595MOL0     C80206   4.137  10.307   6.197  0.6171 -0.2028  0.5564
  595MOL0     N80207   4.253  10.227   6.159  0.8453  0.4425 -0.4542
  595MOL0     C80208   4.302  10.202   6.035  0.0421 -0.2641 -0.1141
  595MOL0     C80209   4.417  10.127   6.051 -0.2502  0.7568  1.1061
  595MOL0     C80210   4.506  10.094   5.935 -0.0343  0.0285  1.2444
  595MOL0     C80211   4.580  10.232   5.916 -0.2910 -0.1819 -0.6445
  595MOL0     C80212   4.700  10.210   5.824  0.7322  0.6515  0.1726
  595MOL0     C80213   4.655  10.206   5.677 -0.0363 -0.6578 -1.1993
  595MOL0     O80214   4.601  10.339   5.651  0.0562  0.1681  0.2188
  595MOL0     C80215   4.575  10.359   5.525 -0.9260  0.3924  0.4093
  595MOL0     C80216   4.535  10.265   5.424  0.2759  0.4999 -0.1922
  595MOL0     C80217   4.502  10.299   5.294 -0.3443 -0.3147  0.0545
  595MOL0     C80218   4.503  10.435   5.259  0.1529  1.1581  0.0097
  595MOL0     C80219   4.463  10.484   5.117 -0.4957  0.4876  0.6787
  595MOL0     O80220   4.447  10.616   5.100  0.3343  0.2098  0.5795
  595MOL0     C80221   4.406  10.667   4.978  0.5355  0.8513 -0.3021
  595MOL0     C80222   4.321  10.777   4.976  0.7546 -0.1660  0.0662
  595MOL0     C80223   4.281  10.833   4.854  0.3803 -0.9321 -0.2538
  595MOL0     C80224   4.320  10.779   4.732 -0.8723  0.4475 -0.0737
  595MOL0     O80225   4.283  10.851   4.617 -0.0066  0.1178  0.1358
  595MOL0     C80226   4.387  10.901   4.534 -0.0038  0.3472 -0.1846
  595MOL0     C80227   4.320  10.926   4.397 -0.1874 -0.3286  1.0396
  595MOL0     C80228   4.267  10.789   4.345 -0.2184  0.2836 -0.0233
  595MOL0     C80229   4.241  10.812   4.194 -0.8693  0.1824  0.0721
  595MOL0     C80230   4.192  10.691   4.117 -0.7142  0.6763 -0.0519
  595MOL0     C80231   4.038  10.680   4.123  0.0871 -1.3334  0.0719
  595MOL0     C80232   3.998  10.559   4.038  0.6407  0.7404  0.0868
  595MOL0     C80233   3.846  10.557   4.044 -0.3341 -0.3954  0.5753
  595MOL0    Cl80234   3.800  10.437   3.926 -0.0067  0.2558 -0.4983
  595MOL0     C80235   4.411  10.678   4.743  0.2026  0.1660  0.7668
  595MOL0     C80236   4.449  10.616   4.861 -0.4723  0.8582  0.9426
  595MOL0     O80237   4.417  10.395   5.032  0.0409 -0.1690 -0.5296
  595MOL0     C80238   4.532  10.531   5.353 -0.0298  0.2344  0.7692
  595MOL0     C80239   4.561  10.493   5.481  0.2095 -0.1373 -0.5145
  595MOL0     N80240   4.437  10.100   6.186  0.5712  0.0697 -0.5101
  595MOL0     N80241   4.337  10.162   6.247 -0.3258 -0.2248 -0.0811
  595MOL0     C80242   4.203   9.695   5.902  0.7671  0.3861 -0.2749
  595MOL0     C80243   4.340   9.676   5.873 -0.6059  0.1990  0.0547
  595MOL0     C80244   4.709   9.425   5.727 -0.8859 -1.1453 -0.4104
  595MOL0     C80245   4.829   9.426   5.797  0.7860  0.1840 -0.0119
  595MOL0     C80246   4.944   9.459   5.730  0.7379 -0.1984 -0.6252
  595MOL0     C80247   4.952   9.480   5.595 -0.7790  0.0829  1.2980
  595MOL0     O80248   5.077   9.509   5.539  0.1662 -0.6266  0.4643
  595MOL0     C80249   5.082   9.575   5.411  0.5752  0.4730  0.2850
  595MOL0     C80250   5.203   9.656   5.388 -0.4996 -0.9296 -0.2326
  595MOL0     C80251   5.190   9.758   5.272 -0.2585  0.3544 -0.0269
  595MOL0     C80252   5.324   9.774   5.206 -0.7740 -0.2938  0.4059
  595MOL0     C80253   5.406   9.863   5.289  0.4353 -0.1612  0.0433
  595MOL0     C80254   5.494   9.943   5.325  0.7224 -0.1593 -1.2673
  595MOL0     C80255   4.834   9.464   5.524  0.1615  0.7146  0.2265
  595MOL0     C80256   4.715   9.459   5.587  1.3594  1.1201  0.3108
  595MOL0     C80257   4.587   9.463   5.511 -0.4994 -0.0574  0.4607
  595MOL0     H80258   4.321   9.366   5.749 -1.7987  0.2685 -0.9446
  595MOL0     H80259   4.099   9.380   5.830  3.9359 -1.7428  1.5664
  595MOL0     H80260   3.930   9.466   6.058 -1.2681  0.2688 -0.2801
  595MOL0     H80261   4.052   9.583   6.127  2.0163  1.6069 -2.5698
  595MOL0     H80262   3.830   9.638   6.222 -0.7563  0.3230  0.4104
  595MOL0     H80263   3.767   9.653   6.052  0.2818 -0.6765 -0.5516
  595MOL0     H80264   3.911   9.839   6.004 -0.7003  0.0147 -0.0679
  595MOL0     H80265   4.005   9.813   6.158 -0.0636 -3.3675  1.1882
  595MOL0     H80266   3.711   9.896   6.144 -0.2888 -1.8684 -1.7346
  595MOL0     H80267   3.831   9.902   6.284  1.7335 -0.9349 -0.3132
  595MOL0     H80268   3.826  10.086   6.041 -0.0143  1.3335  0.7851
  595MOL0     H80269   3.786  10.127   6.204 -1.1234  3.7336 -4.7001
  595MOL0     H80270   4.021  10.064   6.280 -2.2437 -0.1737  0.7385
  595MOL0     H80271   4.060  10.028   6.115 -2.0595 -1.2870  0.8895
  595MOL0     H80272   3.916  10.296   6.171 -1.4731 -1.7040 -2.2309
  595MOL0     H80273   4.022  10.246   6.040  0.4593 -0.8017 -0.6237
  595MOL0     H80274   4.145  10.410   6.159  0.5253 -1.2987 -2.7267
  595MOL0     H80275   4.122  10.307   6.306 -1.6411 -4.3515  0.4355
  595MOL0     H80276   4.261  10.248   5.946  4.3817  1.7359 -1.3824
  595MOL0     H80277   4.575  10.012   5.955 -2.1725 -2.3046 -0.3371
  595MOL0     H80278   4.438  10.074   5.851 -0.7902  2.1472  1.2840
  595MOL0     H80279   4.514  10.312   5.881  1.5454  0.9138 -1.7846
  595MOL0     H80280   4.622  10.260   6.013  0.6568 -0.1810 -1.0473
  595MOL0     H80281   4.751  10.114   5.841 -0.7544 -1.0601 -3.9100
  595MOL0     H80282   4.780  10.285   5.828  0.7480  0.5966  1.9640
  595MOL0     H80283   4.580  10.127   5.661 -0.6513  0.1379 -2.4446
  595MOL0     H80284   4.743  10.185   5.616  0.8555  2.0508 -0.9568
  595MOL0     H80285   4.530  10.158   5.443 -3.0688 -0.2506 -3.9094
  595MOL0     H80286   4.468  10.216   5.233 -2.9848 -0.9376  2.1589
  595MOL0     H80287   4.282  10.835   5.059 -4.4307 -1.3372 -1.1684
  595MOL0     H80288   4.221  10.924   4.856  0.8447 -0.6207 -0.2308
  595MOL0     H80289   4.417  10.999   4.573  2.9091  0.0805 -1.4663
  595MOL0     H80290   4.470  10.832   4.517 -1.7698 -1.2256 -3.1697
  595MOL0     H80291   4.246  11.007   4.396 -0.2501 -0.3307  2.7873
  595MOL0     H80292   4.396  10.973   4.334 -0.7226 -1.7947 -0.7974
  595MOL0     H80293   4.336  10.705   4.357  0.0737  0.1182 -2.3102
  595MOL0     H80294   4.172  10.753   4.385 -2.4536 -4.1994 -7.4196
  595MOL0     H80295   4.335  10.840   4.147  0.1414  0.6027  2.2011
  595MOL0     H80296   4.161  10.887   4.187 -1.2396 -0.3546 -4.2140
  595MOL0     H80297   4.225  10.600   4.167  0.6477  1.8115  1.2008
  595MOL0     H80298   4.211  10.700   4.010 -4.5187  2.4392 -0.7355
  595MOL0     H80299   4.004  10.657   4.225  3.2395 -5.8427  0.3858
  595MOL0     H80300   3.997  10.768   4.072  1.0963 -1.1893 -0.5145
  595MOL0     H80301   4.048  10.468   4.073 -1.6705 -0.1355  1.3038
  595MOL0     H80302   4.029  10.570   3.934  2.1478 -2.5040  0.0649
  595MOL0     H80303   3.803  10.549   4.145  0.3117 -1.1575  0.8035
  595MOL0     H80304   3.807  10.654   4.012  3.0409  0.5016 -1.2451
  595MOL0     H80305   4.452  10.631   4.655 -3.9183 -0.0294 -1.3063
  595MOL0     H80306   4.521  10.535   4.852 -0.1178  0.6009  4.5313
  595MOL0     H80307   4.518  10.636   5.332 -2.4209 -0.4858 -1.9101
  595MOL0     H80308   4.573  10.573   5.554 -3.1131 -1.1406  1.3139
  595MOL0     H80309   4.166   9.791   5.937 -2.9300 -0.4376 -1.3860
  595MOL0     H80310   4.412   9.750   5.905 -0.5443 -0.7894  2.3924
  595MOL0     H80311   4.845   9.405   5.902  4.2493 -2.3352 -0.8589
  595MOL0     H80312   5.039   9.465   5.782 -0.2661  0.3386  1.2428
  595MOL0     H80313   4.995   9.640   5.396 -0.1374  0.1755  2.8108
  595MOL0     H80314   5.060   9.502   5.332 -0.3029  1.4853 -0.4487
  595MOL0     H80315   5.282   9.593   5.348  1.5717  2.8967 -2.8168
  595MOL0     H80316   5.227   9.711   5.480  2.4495  0.2386 -1.5740
  595MOL0     H80317   5.143   9.852   5.306 -0.9126  0.1108 -0.2351
  595MOL0     H80318   5.133   9.714   5.190  1.7752  0.9926 -1.8571
  595MOL0     H80319   5.367   9.677   5.180 -0.0389 -0.3234  1.6605
  595MOL0     H80320   5.304   9.829   5.113  1.0843 -3.0847 -1.8189
  595MOL0     H80321   5.560  10.015   5.368  2.6161 -2.2126 -0.5504
  595MOL0     H80322   4.834   9.481   5.417  1.1798  0.6228  0.1948
  595MOL0     H80323   4.622   9.486   5.409 -3.4853  0.4015 -0.5490
  595MOL0     H80324   4.536   9.367   5.518  1.6889 -1.7893 -3.6766
  595MOL0     H80325   4.523   9.548   5.537  0.3821 -0.0606  2.8447
  596MOL0     O80326   5.333   7.471   3.737 -0.4381  0.0694  0.1028
  596MOL0     C80327   5.208   7.465   3.725 -0.1035 -0.4979 -0.1905
  596MOL0     O80328   5.125   7.546   3.798  0.4267 -0.0986  0.2518
  596MOL0     C80329   5.171   7.643   3.889  0.3981 -0.9208 -0.5645
  596MOL0     C80330   5.094   7.757   3.898  0.0897 -0.6507  0.0410
  596MOL0     C80331   5.104   7.841   4.013  0.6673 -0.0191 -0.0511
  596MOL0     C80332   5.199   7.832   4.117 -0.5995  0.0581  0.0311
  596MOL0     O80333   5.197   7.910   4.232 -0.0106  0.0478 -0.2185
  596MOL0     C80334   5.094   8.008   4.245  0.4923  0.0638 -0.1878
  596MOL0     C80335   5.096   8.046   4.395  0.5883 -0.3492 -0.2719
  596MOL0     C80336   5.041   8.185   4.423 -0.3211 -0.1931  0.0577
  596MOL0     C80337   4.902   8.212   4.369 -0.6155  0.0507  0.1006
  596MOL0     C80338   4.856   8.350   4.410  0.4302  0.2770 -0.1680
  596MOL0     C80339   4.950   8.466   4.387 -0.0492 -1.2453  0.1313
  596MOL0     C80340   4.873   8.600   4.403 -0.2549 -0.0800 -0.5068
  596MOL0     C80341   4.901   8.656   4.540 -0.5349  0.1667 -0.2930
  596MOL0     N80342   4.849   8.793   4.550  0.6103 -0.0471 -0.9287
  596MOL0     C80343   4.710   8.807   4.564  0.5573  0.0522 -0.7970
  596MOL0     C80344   4.702   8.942   4.549 -0.2626 -1.3501 -0.2436
  596MOL0     C80345   4.580   9.033   4.566 -1.1745  0.3780 -0.1776
  596MOL0     C80346   4.543   9.086   4.708  0.5138  0.4821  0.3650
  596MOL0     C80347   4.484   8.980   4.802 -0.7760  0.1530 -0.0707
  596MOL0     C80348   4.339   8.942   4.761  1.5977 -0.2664  0.0721
  596MOL0     O80349   4.335   8.813   4.688 -1.0533 -0.3322  0.2150
  596MOL0     C80350   4.218   8.753   4.693 -0.2177  0.1777 -0.2912
  596MOL0     C80351   4.105   8.819   4.657 -1.1033 -0.4402 -0.1214
  596MOL0     C80352   3.986   8.759   4.634  0.6001  1.1306 -0.6293
  596MOL0     C80353   3.974   8.620   4.668  0.9571  0.4070 -0.2383
  596MOL0     C80354   3.844   8.536   4.650 -1.0696 -0.4568  0.1730
  596MOL0     O80355   3.865   8.404   4.657 -0.5470 -0.1660  1.0257
  596MOL0     C80356   3.766   8.323   4.600 -0.6237 -0.1351 -0.2272
  596MOL0     C80357   3.772   8.298   4.469 -0.2137  0.4046  0.1677
  596MOL0     C80358   3.673   8.226   4.410 -0.6350 -0.3200 -0.2168
  596MOL0     C80359   3.564   8.175   4.482 -0.6906  0.3834  0.2529
  596MOL0     O80360   3.469   8.108   4.413  0.6777 -0.1946  0.5623
  596MOL0     C80361   3.359   8.053   4.484  0.4780  0.7684 -0.2890
  596MOL0     C80362   3.266   7.968   4.402 -0.1671 -0.4829 -0.4316
  596MOL0     C80363   3.157   7.933   4.503 -0.0991  0.7702 -0.2937
  596MOL0     C80364   3.058   7.826   4.442 -0.4768 -0.0506  0.5490
  596MOL0     C80365   2.921   7.818   4.515  0.8791  0.0058  0.2267
  596MOL0     C80366   2.808   7.735   4.451 -0.2254  0.5609  0.7125
  596MOL0     C80367   2.673   7.744   4.527  0.2821 -0.5169  0.0006
  596MOL0     C80368   2.667   7.631   4.629  0.3409 -1.1533 -0.1369
  596MOL0    Cl80369   2.503   7.627   4.694 -0.2226  0.2406  0.4166
  596MOL0     C80370   3.556   8.207   4.623 -0.2256 -0.1379  0.0458
  596MOL0     C80371   3.663   8.279   4.683 -0.9656 -0.4484 -0.2122
  596MOL0     O80372   3.738   8.593   4.624 -0.2067  0.1991 -0.0456
  596MOL0     C80373   4.085   8.558   4.722 -0.5316  0.2460  0.4135
  596MOL0     C80374   4.208   8.623   4.736  0.0636  0.2008  1.1555
  596MOL0     N80375   4.825   9.003   4.525 -0.2548  0.6459  0.2533
  596MOL0     N80376   4.915   8.907   4.526  0.3455  0.0510 -1.0030
  596MOL0     C80377   5.290   7.724   4.099 -0.1140  1.5531  0.2518
  596MOL0     C80378   5.279   7.633   3.984 -0.7248 -0.0039  0.1754
  596MOL0     C80379   5.146   7.356   3.645  1.2475 -0.6155  0.2477
  596MOL0     C80380   5.013   7.319   3.673  0.3185  0.1747 -0.7589
  596MOL0     C80381   4.951   7.212   3.608  0.5364  0.0146  0.6274
  596MOL0     C80382   5.020   7.145   3.511 -0.0753 -0.0229 -0.2864
  596MOL0     O80383   4.955   7.050   3.436 -0.0500 -0.2712 -0.0146
  596MOL0     C80384   4.897   7.113   3.322  0.9118 -0.3824 -0.6759
  596MOL0     C80385   4.752   7.055   3.297 -0.6271 -0.1187 -1.2257
  596MOL0     C80386   4.678   7.133   3.196  0.5557 -0.4364 -0.7721
  596MOL0     C80387   4.755   7.146   3.065  0.0950 -0.6740 -0.2464
  596MOL0     C80388   4.762   7.027   2.986  0.2530 -0.3488  0.3303
  596MOL0     C80389   4.759   6.915   2.939 -0.4006 -0.0852  0.1996
  596MOL0     C80390   5.155   7.180   3.492 -0.3230 -0.4153  0.1858
  596MOL0     C80391   5.221   7.286   3.554  0.6664 -0.1294 -0.5779
  596MOL0     C80392   5.368   7.299   3.520 -0.4149 -0.3390 -0.7413
  596MOL0     H80393   5.005   7.761   3.836 -0.2654  0.3487  0.5903
  596MOL0     H80394   5.023   7.913   4.022  0.0012 -0.7254 -0.1740
  596MOL0     H80395   5.112   8.093   4.178 -2.8534  0.7477 -0.3947
  596MOL0     H80396   4.994   7.967   4.229 -0.6987  2.3983  0.6894
  596MOL0     H80397   5.197   8.054   4.436 -0.5215 -3.1541  3.5921
  596MOL0     H80398   5.053   7.982   4.472 -1.9355  3.3903  1.7122
  596MOL0     H80399   5.108   8.249   4.365 -0.6055 -0.6453 -0.7894
  596MOL0     H80400   5.048   8.210   4.529 -3.4737 -0.7665  0.5177
  596MOL0     H80401   4.896   8.200   4.261 -3.1523 -0.3115  0.2260
  596MOL0     H80402   4.830   8.140   4.410  0.7255 -1.1819  0.3904
  596MOL0     H80403   4.763   8.367   4.355 -0.5546 -1.2437  0.9867
  596MOL0     H80404   4.833   8.351   4.517 -0.3786  0.4990 -0.3366
  596MOL0     H80405   5.033   8.463   4.457 -1.0502 -0.6675  1.3830
  596MOL0     H80406   4.996   8.463   4.288 -1.3257  2.2916 -0.6900
  596MOL0     H80407   4.767   8.610   4.381 -0.3650  3.2951  0.9509
  596MOL0     H80408   4.932   8.666   4.339  0.4506 -0.6051 -0.4116
  596MOL0     H80409   4.847   8.590   4.609  2.6931 -2.8155 -0.2997
  596MOL0     H80410   5.006   8.660   4.569 -1.1958  0.3907  2.3263
  596MOL0     H80411   4.626   8.739   4.574  1.4296 -0.7869  1.5999
  596MOL0     H80412   4.590   9.118   4.498  1.3772 -0.0291 -0.4110
  596MOL0     H80413   4.501   8.971   4.524  0.6103 -2.2644  0.1663
  596MOL0     H80414   4.639   9.120   4.747  1.1447  0.4327 -1.0695
  596MOL0     H80415   4.472   9.168   4.698 -3.2817 -2.7571 -3.0674
  596MOL0     H80416   4.469   9.022   4.902 -2.8247 -0.0396 -0.2482
  596MOL0     H80417   4.543   8.888   4.795 -2.9796 -1.4630  1.2603
  596MOL0     H80418   4.297   9.022   4.700  1.6663  0.0738  0.4682
  596MOL0     H80419   4.278   8.935   4.851  1.7043  3.8349  0.6545
  596MOL0     H80420   4.109   8.926   4.639  1.4522 -0.3189  0.8085
  596MOL0     H80421   3.898   8.814   4.601 -1.9236 -1.7790  0.7121
  596MOL0     H80422   3.848   8.323   4.396 -0.8567 -1.5399 -1.2551
  596MOL0     H80423   3.679   8.220   4.301  1.9096  3.3922 -0.4441
  596MOL0     H80424   3.381   7.995   4.574 -0.7527 -0.8913 -1.0206
  596MOL0     H80425   3.296   8.132   4.527 -0.2016 -1.0428  2.2663
  596MOL0     H80426   3.235   8.024   4.314  1.0926  2.8281  1.0662
  596MOL0     H80427   3.315   7.878   4.363 -0.5926 -0.4670 -1.0087
  596MOL0     H80428   3.197   7.886   4.593 -0.1761  0.3743 -0.4652
  596MOL0     H80429   3.098   8.023   4.522  0.6999  0.8600  2.0616
  596MOL0     H80430   3.114   7.732   4.443  1.6655  1.1761  0.1501
  596MOL0     H80431   3.056   7.838   4.334 -0.1160 -2.7901  0.1545
  596MOL0     H80432   2.877   7.916   4.536  0.5925 -0.2747  0.9606
  596MOL0     H80433   2.939   7.777   4.614 -0.7407 -0.9909  0.1359
  596MOL0     H80434   2.804   7.768   4.347  3.0693  1.7888  0.8715
  596MOL0     H80435   2.843   7.632   4.438 -1.3021  0.3223 -0.5740
  596MOL0     H80436   2.588   7.740   4.458 -0.1364  2.6360  0.2008
  596MOL0     H80437   2.669   7.843   4.573 -1.0100  0.3994 -1.9150
  596MOL0     H80438   2.697   7.531   4.596  2.8615 -1.0936  1.6505
  596MOL0     H80439   2.728   7.656   4.716  0.6140  0.5069 -0.7670
  596MOL0     H80440   3.478   8.169   4.688  0.4648 -1.0407  0.3672
  596MOL0     H80441   3.660   8.313   4.786 -0.2966 -2.6570  0.6049
  596MOL0     H80442   4.071   8.457   4.759  1.1877 -0.5747 -1.0340
  596MOL0     H80443   4.297   8.586   4.787  0.6860  0.1248  0.0472
  596MOL0     H80444   5.364   7.705   4.176  0.4017  2.1506 -0.0825
  596MOL0     H80445   5.346   7.547   3.981 -1.4710 -0.6076  0.4835
  596MOL0     H80446   4.965   7.380   3.749  4.3412  2.0442  0.5717
  596MOL0     H80447   4.848   7.181   3.624 -0.2986  2.0299 -0.4466
  596MOL0     H80448   4.979   7.107   3.250  3.2856  2.3057  1.5576
  596MOL0     H80449   4.875   7.219   3.334 -3.7211 -1.3450  1.9179
  596MOL0     H80450   4.706   7.061   3.396  1.8383 -4.9188  0.5362
  596MOL0     H80451   4.773   6.951   3.271  3.5056  0.0506  0.5657
  596MOL0     H80452   4.658   7.230   3.243 -1.5148 -0.9072 -0.5928
  596MOL0     H80453   4.578   7.092   3.177  1.5206 -3.2057 -0.4025
  596MOL0     H80454   4.704   7.221   3.005 -2.0488 -1.8507  0.0173
  596MOL0     H80455   4.858   7.180   3.084  0.4456  0.3010 -3.3014
  596MOL0     H80456   4.774   6.811   2.917  2.0712  0.2997 -0.2834
  596MOL0     H80457   5.218   7.127   3.421 -0.4447 -0.3098 -0.0010
  596MOL0     H80458   5.379   7.287   3.412  2.1813 -2.2294 -0.3462
  596MOL0     H80459   5.408   7.401   3.523  2.9464 -1.4502  3.4890
  596MOL0     H80460   5.434   7.238   3.583  0.3515  2.5967  1.5093
  597MOL0     O80461   1.725   4.223   1.701  0.3257  0.4844 -0.0689
  597MOL0     C80462   1.658   4.223   1.600  0.1974 -0.3056  0.6691
  597MOL0     O80463   1.541   4.280   1.600  0.1112 -0.1227  0.0302
  597MOL0     C80464   1.476   4.320   1.711 -0.5315  0.1874  0.3163
  597MOL0     C80465   1.418   4.217   1.802  0.5885 -0.2258  1.2290
  597MOL0     C80466   1.353   4.264   1.911 -0.4741 -0.4598  0.1801
  597MOL0     C80467   1.331   4.400   1.944 -0.4138  0.4586  0.6935
  597MOL0     O80468   1.272   4.423   2.062  0.1450  0.0441 -0.6649
  597MOL0     C80469   1.290   4.556   2.106 -0.0504 -0.6880  0.7765
  597MOL0     C80470   1.227   4.579   2.243  0.0297  0.5350  0.0308
  597MOL0     C80471   1.103   4.507   2.270 -0.0325  0.6295 -0.6481
  597MOL0     C80472   1.011   4.578   2.370 -0.0955  0.5537 -0.7658
  597MOL0     C80473   0.886   4.497   2.395 -0.1072  0.0345  0.7033
  597MOL0     C80474   0.823   4.522   2.530 -0.5004 -0.9284  0.7722
  597MOL0     C80475   0.709   4.438   2.572 -0.0171  1.7398  0.3085
  597MOL0     C80476   0.632   4.494   2.695  0.1543  0.4974 -0.5849
  597MOL0     N80477   0.530   4.409   2.750 -0.1420  0.3313  0.1183
  597MOL0     C80478   0.392   4.420   2.744  0.4821 -0.0325 -0.0654
  597MOL0     C80479   0.342   4.311   2.801  1.0806  1.0159 -0.7387
  597MOL0     C80480   0.192   4.286   2.823 -0.1198  0.2556 -0.0942
  597MOL0     C80481   0.090   4.331   2.723  0.6007 -0.2689 -0.1412
  597MOL0     C80482   0.095   4.234   2.606 -0.3241 -0.4631 -0.7203
  597MOL0     C80483   0.209   4.257   2.509  0.6032 -0.0197 -0.5778
  597MOL0     O80484   0.198   4.170   2.400 -0.4281 -0.3283  0.0150
  597MOL0     C80485   0.116   4.193   2.298  0.3076 -0.0329  0.4915
  597MOL0     C80486   0.112   4.083   2.209  1.0342 -0.2748  0.1580
  597MOL0     C80487   0.029   4.085   2.101  0.0497 -0.2050  1.6189
  597MOL0     C80488  -0.050   4.198   2.063 -0.6822  0.5979  0.2223
  597MOL0     C80489  -0.126   4.202   1.936 -0.6987  0.4692  0.1130
  597MOL0     O80490  -0.212   4.316   1.920 -0.7110  0.4388  1.0346
  597MOL0     C80491  -0.307   4.313   1.825 -0.0422  0.5173  0.0172
  597MOL0     C80492  -0.294   4.276   1.692  0.2597  0.6155 -0.2552
  597MOL0     C80493  -0.395   4.297   1.600  0.2988 -0.4876  0.2984
  597MOL0     C80494  -0.519   4.343   1.644  0.1781  0.7682  1.0435
  597MOL0     O80495  -0.634   4.332   1.563 -0.1311 -0.9693 -0.3104
  597MOL0     C80496  -0.638   4.245   1.446  0.3784  0.6748 -0.1002
  597MOL0     C80497  -0.719   4.307   1.335 -0.9723 -0.1099  0.1405
  597MOL0     C80498  -0.845   4.229   1.299 -0.0811 -0.5660  0.0908
  597MOL0     C80499  -0.912   4.296   1.176  0.1976 -0.1967  0.0884
  597MOL0     C80500  -1.001   4.202   1.097 -1.0861  0.2863 -0.1910
  597MOL0     C80501  -1.092   4.100   1.178  0.5007 -0.3521  0.0746
  597MOL0     C80502  -1.202   4.156   1.269  0.4969 -0.2558 -0.9152
  597MOL0     C80503  -1.285   4.041   1.330 -0.4775 -0.7513  0.3383
  597MOL0    Cl80504  -1.379   3.952   1.209 -0.2361 -0.1136 -0.4742
  597MOL0     C80505  -0.536   4.362   1.780 -0.4421 -0.1252  0.1479
  597MOL0     C80506  -0.430   4.359   1.869  0.2455 -0.3200  0.1304
  597MOL0     O80507  -0.131   4.096   1.875  0.2139 -0.4558  0.1013
  597MOL0     C80508  -0.055   4.309   2.150 -0.4343  0.7818  0.3034
  597MOL0     C80509   0.038   4.312   2.265  0.0427  0.6824 -0.0940
  597MOL0     N80510   0.445   4.228   2.821  0.7236  0.1974 -0.1930
  597MOL0     N80511   0.554   4.292   2.807  0.4633 -0.1356  0.2403
  597MOL0     C80512   1.373   4.498   1.851  0.4729  0.5326 -0.1309
  597MOL0     C80513   1.448   4.453   1.737  0.4402 -0.1891  0.1092
  597MOL0     C80514   1.706   4.164   1.474 -0.0785  0.0173  0.3956
  597MOL0     C80515   1.615   4.157   1.370 -0.0715 -0.6177  1.0692
  597MOL0     C80516   1.647   4.116   1.239  0.5324  0.7607  0.2095
  597MOL0     C80517   1.774   4.063   1.218 -0.4628  0.5999  0.0853
  597MOL0     O80518   1.831   4.017   1.097 -0.0467  0.1499  0.0077
  597MOL0     C80519   1.728   3.988   1.005 -0.5545  0.8708 -0.2753
  597MOL0     C80520   1.787   3.925   0.873  0.3913 -0.6042  0.1907
  597MOL0     C80521   1.684   3.937   0.753  0.0447  0.0790  0.7079
  597MOL0     C80522   1.757   3.881   0.627  0.2733  0.2218 -0.3908
  597MOL0     C80523   1.831   3.988   0.576 -0.5830  0.1684 -0.0330
  597MOL0     C80524   1.884   4.080   0.520  0.1861 -0.2980  0.5980
  597MOL0     C80525   1.870   4.076   1.325  0.2388 -0.9443 -1.2043
  597MOL0     C80526   1.836   4.130   1.455 -0.5998  0.4767  0.3634
  597MOL0     C80527   1.948   4.143   1.554  0.1593  0.1631  0.0457
  597MOL0     H80528   1.441   4.112   1.788  1.7748  0.0440  1.0175
  597MOL0     H80529   1.315   4.193   1.984  2.0327 -1.2624  0.8107
  597MOL0     H80530   1.397   4.582   2.103 -0.1534 -0.0058 -3.7502
  597MOL0     H80531   1.240   4.629   2.041  0.0279  1.0828  2.5876
  597MOL0     H80532   1.215   4.687   2.255  1.1749  0.8932 -1.6709
  597MOL0     H80533   1.309   4.558   2.313 -1.0557  1.2300  1.5864
  597MOL0     H80534   1.136   4.414   2.317 -0.9895  1.3268  1.5506
  597MOL0     H80535   1.062   4.503   2.169 -0.7558 -1.1618 -0.3211
  597MOL0     H80536   1.071   4.589   2.461 -3.5860  1.7690  1.5867
  597MOL0     H80537   0.988   4.679   2.336 -1.5569  0.9099  1.1319
  597MOL0     H80538   0.811   4.501   2.315 -0.7936  1.3171  1.3667
  597MOL0     H80539   0.908   4.390   2.401 -1.2222 -0.2527  0.0691
  597MOL0     H80540   0.903   4.516   2.603  2.2247 -1.6490 -2.0440
  597MOL0     H80541   0.778   4.622   2.539 -0.4060 -1.0951  5.3273
  597MOL0     H80542   0.737   4.337   2.603  0.8495  1.7833 -0.3157
  597MOL0     H80543   0.638   4.427   2.490 -2.0306 -0.4724  2.1739
  597MOL0     H80544   0.700   4.522   2.777 -1.5210  3.7622 -0.1482
  597MOL0     H80545   0.575   4.584   2.669 -1.8489 -0.6498 -0.2940
  597MOL0     H80546   0.325   4.495   2.703 -2.7673 -2.3932  0.5626
  597MOL0     H80547   0.177   4.181   2.851  4.8897 -1.2181 -1.7884
  597MOL0     H80548   0.154   4.338   2.911  0.5900 -0.2253  0.5125
  597MOL0     H80549  -0.007   4.327   2.772  1.1154  4.0665  1.6186
  597MOL0     H80550   0.098   4.432   2.681  0.1051 -0.9534 -2.0016
  597MOL0     H80551   0.008   4.248   2.542 -2.5742  1.9493  2.5154
  597MOL0     H80552   0.100   4.134   2.649 -0.6055  0.9655  3.1346
  597MOL0     H80553   0.302   4.234   2.562 -0.5758  0.1283  1.6387
  597MOL0     H80554   0.221   4.361   2.475 -0.0175 -0.0564 -0.9169
  597MOL0     H80555   0.180   4.003   2.236 -0.0280  0.4649  6.7277
  597MOL0     H80556   0.035   3.994   2.041 -0.3423  1.5067 -1.2064
  597MOL0     H80557  -0.200   4.245   1.649  0.3099 -0.4760  0.5941
  597MOL0     H80558  -0.375   4.274   1.496 -1.1119 -3.0426  0.5028
  597MOL0     H80559  -0.540   4.236   1.399  1.6974  0.4076  2.4705
  597MOL0     H80560  -0.661   4.144   1.481  2.2051  0.3571  0.3110
  597MOL0     H80561  -0.746   4.412   1.350 -0.6993 -0.3148  2.2910
  597MOL0     H80562  -0.664   4.297   1.240 -1.8631 -3.3391 -0.1368
  597MOL0     H80563  -0.822   4.126   1.273  1.7180 -0.3083  0.5746
  597MOL0     H80564  -0.919   4.233   1.380  0.0848  1.2883  0.2084
  597MOL0     H80565  -0.829   4.334   1.116  0.1316  0.4271  0.3845
  597MOL0     H80566  -0.980   4.378   1.202 -0.8458  0.6470 -4.3569
  597MOL0     H80567  -0.933   4.144   1.034  1.3709  3.1069 -0.3814
  597MOL0     H80568  -1.059   4.262   1.027 -3.0210 -0.9293  0.3073
  597MOL0     H80569  -1.130   4.027   1.105 -0.5999 -0.1641  0.4517
  597MOL0     H80570  -1.023   4.043   1.241 -0.8926  0.8867  2.8608
  597MOL0     H80571  -1.273   4.216   1.211  0.2814 -1.0763 -1.5424
  597MOL0     H80572  -1.171   4.217   1.353  0.1148 -1.8623  0.4535
  597MOL0     H80573  -1.219   3.972   1.384 -0.2242 -1.5330 -0.9172
  597MOL0     H80574  -1.358   4.088   1.396  1.1960  1.7587  0.5440
  597MOL0     H80575  -0.623   4.416   1.817  1.1838  2.9872 -0.1815
  597MOL0     H80576  -0.452   4.389   1.971 -1.2932  4.7345 -1.3622
  597MOL0     H80577  -0.126   4.390   2.135 -1.3832  0.1399  1.1748
  597MOL0     H80578   0.043   4.401   2.326  2.3668 -0.2964  1.2466
  597MOL0     H80579   1.357   4.604   1.869 -1.9811  0.3588 -0.9675
  597MOL0     H80580   1.486   4.529   1.670  1.8121  0.2349  1.3124
  597MOL0     H80581   1.512   4.189   1.381 -0.9251 -2.5796 -0.5245
  597MOL0     H80582   1.575   4.128   1.159  1.3805  0.2711 -0.6348
  597MOL0     H80583   1.672   4.075   0.971 -1.2411  0.2510 -0.7727
  597MOL0     H80584   1.651   3.921   1.045  1.3217 -2.1296 -1.3296
  597MOL0     H80585   1.805   3.821   0.899 -1.6674 -1.0419  0.0344
  597MOL0     H80586   1.878   3.978   0.841 -1.8634  2.8445 -1.0562
  597MOL0     H80587   1.653   4.042   0.748 -0.9613 -0.2648 -0.9630
  597MOL0     H80588   1.602   3.867   0.771 -0.2993 -0.1809 -1.5213
  597MOL0     H80589   1.814   3.796   0.664 -0.1773  0.8192  1.8237
  597MOL0     H80590   1.685   3.844   0.553 -0.3111 -0.6459  0.5871
  597MOL0     H80591   1.905   4.180   0.488  1.6040 -0.4348  1.0392
  597MOL0     H80592   1.971   4.042   1.301  0.6130 -1.0288  0.4038
  597MOL0     H80593   1.948   4.250   1.576  0.6016  0.5234 -1.5619
  597MOL0     H80594   1.937   4.083   1.645  2.0184  0.5388  0.5469
  597MOL0     H80595   2.044   4.107   1.517  1.6621 -0.6693  4.2112
  598MOL0     O80596  10.426   5.966  10.804  0.3400 -0.2269  0.0788
  598MOL0     C80597  10.499   5.918  10.890 -0.2248  0.3731 -0.1179
  598MOL0     O80598  10.577   5.998  10.968  0.1237 -0.2159 -0.5309
  598MOL0     C80599  10.599   6.128  10.950 -0.8001 -0.9749  0.3912
  598MOL0     C80600  10.554   6.221  11.043  0.0469  0.2373 -0.6057
  598MOL0     C80601  10.583   6.361  11.025 -1.5494 -0.5743 -0.4672
  598MOL0     C80602  10.672   6.402  10.922  0.4634  0.3314 -0.5234
  598MOL0     O80603  10.717   6.529  10.912  0.5246 -0.0939 -0.0290
  598MOL0     C80604  10.736   6.610  11.025 -0.2422  0.8758 -0.2278
  598MOL0     C80605  10.822   6.727  10.979  0.3076  0.3168  1.1120
  598MOL0     C80606  10.898   6.799  11.090 -0.1262 -0.4452  1.2751
  598MOL0     C80607  11.020   6.714  11.122  0.0846 -0.0912  0.8937
  598MOL0     C80608  11.122   6.687  11.019 -0.4673  1.5141  0.3602
  598MOL0     C80609  11.234   6.598  11.077  1.1496 -0.4164  0.4427
  598MOL0     C80610  11.337   6.583  10.970 -1.2735  0.6290  0.3582
  598MOL0     C80611  11.471   6.537  11.048 -0.2359 -0.5509 -0.4781
  598MOL0     N80612  11.548   6.647  11.119  0.1586 -0.6743  0.1107
  598MOL0     C80613  11.601   6.749  11.053  0.3671 -0.4517  0.0613
  598MOL0     C80614  11.637   6.847  11.139 -0.0722 -0.0199 -0.3364
  598MOL0     C80615  11.700   6.978  11.112  0.2380  1.1676  0.5589
  598MOL0     C80616  11.605   7.092  11.137 -0.5071  0.1576 -0.2553
  598MOL0     C80617  11.647   7.234  11.099  0.1990 -0.3434 -0.0564
  598MOL0     C80618  11.543   7.342  11.129 -0.9893  0.1893 -1.2574
  598MOL0     O80619  11.562   7.451  11.051 -0.3973  0.4108 -1.1725
  598MOL0     C80620  11.436   7.511  11.036  1.0403  0.1161  0.3524
  598MOL0     C80621  11.387   7.535  10.908 -0.4657 -0.2453 -0.3344
  598MOL0     C80622  11.257   7.586  10.888 -0.2182 -0.4147 -0.4744
  598MOL0     C80623  11.190   7.637  10.997  0.5912  0.2255 -0.8360
  598MOL0     C80624  11.063   7.703  10.973  0.6793 -0.4181  0.2272
  598MOL0     O80625  10.998   7.695  10.847  0.0201 -0.6116 -0.7666
  598MOL0     C80626  10.875   7.763  10.844 -0.7187 -0.2217 -0.0837
  598MOL0     C80627  10.763   7.691  10.841  0.7451  0.9270  0.7267
  598MOL0     C80628  10.641   7.749  10.828 -0.7061  0.0332  0.0191
  598MOL0     C80629  10.626   7.889  10.844 -0.2867 -0.7981 -0.3644
  598MOL0     O80630  10.504   7.946  10.841  0.0087 -0.2316  0.4416
  598MOL0     C80631  10.465   7.968  10.984  0.1212 -0.1243  1.0002
  598MOL0     C80632  10.322   8.017  10.991 -0.7569  0.1165 -0.5975
  598MOL0     C80633  10.322   8.162  10.940 -0.1235  0.2936  0.4283
  598MOL0     C80634  10.196   8.178  10.852  0.1538 -0.0531 -0.2196
  598MOL0     C80635  10.071   8.191  10.943 -0.4346 -0.2842 -0.5632
  598MOL0     C80636   9.943   8.154  10.855  0.0841  0.2760  0.1694
  598MOL0     C80637   9.825   8.175  10.950 -0.0665  0.1784 -0.7053
  598MOL0     C80638   9.692   8.165  10.876  0.8330 -0.1846  0.2049
  598MOL0    Cl80639   9.679   8.001  10.807  0.0836 -0.0118  0.0728
  598MOL0     C80640  10.741   7.965  10.835  1.1961 -0.6464 -0.4220
  598MOL0     C80641  10.865   7.902  10.834  0.5997 -0.4209 -0.3981
  598MOL0     O80642  11.024   7.756  11.075  1.0871  1.0806 -0.3510
  598MOL0     C80643  11.240   7.617  11.126  0.0803  0.3223  0.4173
  598MOL0     C80644  11.355   7.548  11.145  0.0347 -0.3072  0.7886
  598MOL0     N80645  11.608   6.784  11.265  0.7831 -0.6377  0.0016
  598MOL0     N80646  11.548   6.674  11.250  0.3304 -0.0238 -0.5715
  598MOL0     C80647  10.734   6.302  10.842 -0.0490  0.6579  0.1935
  598MOL0     C80648  10.693   6.165  10.844 -1.4447 -0.2723 -0.5637
  598MOL0     C80649  10.497   5.769  10.939 -0.6607 -0.3789  0.1470
  598MOL0     C80650  10.600   5.727  11.037 -0.0551 -1.0184  0.3821
  598MOL0     C80651  10.599   5.597  11.087 -1.0109 -0.0378 -0.3813
  598MOL0     C80652  10.506   5.507  11.045 -0.6438 -0.1159 -0.2590
  598MOL0     O80653  10.521   5.376  11.075  0.3177  0.3038 -0.2776
  598MOL0     C80654  10.453   5.343  11.195 -0.3677  0.8104  0.1751
  598MOL0     C80655  10.314   5.401  11.233  0.2054 -0.2699  0.1676
  598MOL0     C80656  10.273   5.369  11.378  0.6314 -0.0086  0.0813
  598MOL0     C80657  10.137   5.436  11.420  0.1312 -0.1387  0.0196
  598MOL0     C80658  10.153   5.578  11.441  1.0997  0.2587  0.8044
  598MOL0     C80659  10.143   5.680  11.491  0.1252 -0.4799  0.5670
  598MOL0     C80660  10.416   5.538  10.962  0.7871  0.5251 -0.4024
  598MOL0     C80661  10.409   5.663  10.894 -0.1684 -1.4628  0.3957
  598MOL0     C80662  10.313   5.671  10.787  0.0479 -0.3311  0.7162
  598MOL0     H80663  10.504   6.180  11.130  1.3786 -0.7414 -0.2784
  598MOL0     H80664  10.556   6.440  11.095 -0.0561 -0.4620  0.0237
  598MOL0     H80665  10.644   6.637  11.077 -0.1078  1.4047 -0.2565
  598MOL0     H80666  10.787   6.552  11.103  0.6520 -0.8751 -2.0510
  598MOL0     H80667  10.751   6.804  10.946  1.2713  0.8029  0.1285
  598MOL0     H80668  10.878   6.692  10.892  2.7577 -0.9346  3.0825
  598MOL0     H80669  10.835   6.823  11.177 -1.1443  1.2234  0.1295
  598MOL0     H80670  10.929   6.898  11.055 -0.4763 -0.6349  0.4054
  598MOL0     H80671  11.068   6.789  11.185  1.3691  0.7150 -0.9526
  598MOL0     H80672  10.989   6.639  11.195 -2.3582  0.9850  1.0495
  598MOL0     H80673  11.082   6.662  10.921  0.3815  1.2940  0.0661
  598MOL0     H80674  11.167   6.785  10.998 -1.1969  1.9783  0.8852
  598MOL0     H80675  11.284   6.637  11.166 -0.6763 -0.1244  1.3790
  598MOL0     H80676  11.199   6.501  11.112  2.4749 -1.1167 -0.0676
  598MOL0     H80677  11.352   6.679  10.918  0.3974 -0.3008 -1.0117
  598MOL0     H80678  11.307   6.504  10.901  1.4525  1.3967 -1.9185
  598MOL0     H80679  11.437   6.462  11.119 -0.7377 -0.6160 -0.7833
  598MOL0     H80680  11.544   6.481  10.988 -0.2903 -0.9978 -0.1268
  598MOL0     H80681  11.603   6.774  10.947 -0.7412 -0.8296 -0.0653
  598MOL0     H80682  11.794   6.991  11.167  1.1619 -1.4302 -0.2496
  598MOL0     H80683  11.724   6.984  11.006  1.0704  0.1237  0.6673
  598MOL0     H80684  11.510   7.061  11.094  0.3263 -2.0184 -0.6382
  598MOL0     H80685  11.587   7.091  11.245 -0.8416 -0.4528 -0.3112
  598MOL0     H80686  11.655   7.230  10.990  1.2634 -0.8095  0.0229
  598MOL0     H80687  11.749   7.251  11.135  0.1675  0.5987 -0.4010
  598MOL0     H80688  11.539   7.376  11.233 -0.2275 -2.7281 -0.1876
  598MOL0     H80689  11.449   7.286  11.122  0.6590 -3.8850  3.1236
  598MOL0     H80690  11.440   7.505  10.818 -0.0121  3.3597 -1.4372
  598MOL0     H80691  11.219   7.592  10.787  1.4502  0.4275 -1.0822
  598MOL0     H80692  10.768   7.586  10.868 -5.0277  0.3787  0.9589
  598MOL0     H80693  10.553   7.686  10.823 -1.1203  0.7156 -2.5968
  598MOL0     H80694  10.468   7.867  11.026 -0.9652 -1.5785 -2.1392
  598MOL0     H80695  10.528   8.031  11.048 -0.3084  1.0124  0.3495
  598MOL0     H80696  10.272   7.952  10.918  0.2862 -0.9382 -0.4120
  598MOL0     H80697  10.276   8.006  11.090 -0.1542 -2.0124 -0.4880
  598MOL0     H80698  10.324   8.236  11.021  2.4028  2.2547 -1.2434
  598MOL0     H80699  10.411   8.178  10.877 -1.0189 -0.8630 -1.2001
  598MOL0     H80700  10.194   8.089  10.788  0.1068 -1.4501  1.6406
  598MOL0     H80701  10.211   8.264  10.785 -0.5591  0.6437  0.5038
  598MOL0     H80702  10.073   8.295  10.977  2.1799  0.1266 -1.7739
  598MOL0     H80703  10.080   8.130  11.033 -1.0147  1.4900  0.7745
  598MOL0     H80704   9.933   8.221  10.769  0.3455 -1.2994 -1.1546
  598MOL0     H80705   9.958   8.053  10.816  2.9932  0.3066  0.9960
  598MOL0     H80706   9.833   8.278  10.986 -2.7350  0.5159 -0.8402
  598MOL0     H80707   9.825   8.106  11.036  1.2431 -2.2830 -2.5498
  598MOL0     H80708   9.610   8.191  10.944  1.7540  2.7042  0.3069
  598MOL0     H80709   9.676   8.244  10.802  1.3189  0.7941  1.1268
  598MOL0     H80710  10.738   8.073  10.852  0.2888 -0.8287  0.7767
  598MOL0     H80711  10.954   7.963  10.828 -0.0712  1.3484  3.7941
  598MOL0     H80712  11.187   7.667  11.206 -0.9122 -0.6337  0.3786
  598MOL0     H80713  11.393   7.541  11.246 -2.1330 -1.6684  1.5769
  598MOL0     H80714  10.808   6.327  10.766  0.6101 -0.9109  0.2732
  598MOL0     H80715  10.735   6.081  10.791 -1.2771 -1.2898  1.0977
  598MOL0     H80716  10.673   5.805  11.061 -2.7406  1.2967  1.5795
  598MOL0     H80717  10.683   5.557  11.144 -0.6224 -0.4246 -1.2091
  598MOL0     H80718  10.515   5.378  11.279 -0.7776  0.6457  0.5527
  598MOL0     H80719  10.448   5.234  11.203  0.3541  0.8314  1.1708
  598MOL0     H80720  10.234   5.367  11.167  1.1468 -0.5872 -0.8433
  598MOL0     H80721  10.322   5.510  11.225  0.2940 -0.3463 -0.8980
  598MOL0     H80722  10.347   5.392  11.455 -0.6306 -1.3289  1.7794
  598MOL0     H80723  10.272   5.259  11.370  1.3331 -0.4731  4.1208
  598MOL0     H80724  10.056   5.416  11.349 -1.3514 -2.7175  2.1974
  598MOL0     H80725  10.110   5.387  11.515 -0.2897 -1.7935 -0.9065
  598MOL0     H80726  10.144   5.785  11.512  2.6057 -0.0389 -1.3353
  598MOL0     H80727  10.349   5.459  10.931  0.9586  1.2260 -2.7199
  598MOL0     H80728  10.294   5.773  10.751  6.5042  0.5005 -1.5951
  598MOL0     H80729  10.348   5.609  10.704  0.9862  2.0872 -0.8019
  598MOL0     H80730  10.212   5.639  10.817 -1.8512  2.2338 -2.2680
  599MOL0     O80731  11.076   5.537   4.777 -0.4637  0.9089  0.2995
  599MOL0     C80732  11.127   5.450   4.851  0.2802  0.2003  0.4651
  599MOL0     O80733  11.110   5.440   4.984  0.4487  1.0962  0.6220
  599MOL0     C80734  11.005   5.457   5.071 -0.3593 -0.0824  0.7017
  599MOL0     C80735  10.890   5.530   5.033  0.3854 -0.0697  0.1372
  599MOL0     C80736  10.785   5.538   5.129 -0.6440 -0.0789 -0.8815
  599MOL0     C80737  10.800   5.492   5.261  0.3215 -0.0167 -0.3635
  599MOL0     O80738  10.697   5.517   5.346 -0.5503  0.7167 -0.1730
  599MOL0     C80739  10.725   5.569   5.484 -0.2206  1.3033 -0.0927
  599MOL0     C80740  10.597   5.635   5.525 -0.8107  0.8490 -0.1120
  599MOL0     C80741  10.619   5.751   5.621  0.3695  0.3911 -0.3494
  599MOL0     C80742  10.685   5.704   5.755  0.9625  0.2598  0.4396
  599MOL0     C80743  10.701   5.800   5.875 -0.1925 -0.1281 -0.0695
  599MOL0     C80744  10.585   5.813   5.979  0.9092 -0.2696 -0.0125
  599MOL0     C80745  10.612   5.900   6.113  0.8034  0.8402  0.0268
  599MOL0     C80746  10.587   6.062   6.090  0.7391 -0.6452  0.3396
  599MOL0     N80747  10.465   6.111   6.155  0.4236 -0.7486 -0.8129
  599MOL0     C80748  10.332   6.082   6.112  0.3693  0.4170 -0.5452
  599MOL0     C80749  10.256   6.101   6.219 -1.3867 -0.9781  0.0393
  599MOL0     C80750  10.110   6.065   6.229 -0.0277  0.2146 -0.1111
  599MOL0     C80751  10.024   6.195   6.242 -0.0730  0.7101 -0.3818
  599MOL0     C80752   9.932   6.204   6.111 -0.1618  0.2042  0.2906
  599MOL0     C80753   9.851   6.333   6.109  1.1810 -0.8487  0.2052
  599MOL0     O80754   9.776   6.338   5.989  1.2173  0.5115 -0.3838
  599MOL0     C80755   9.686   6.444   5.971 -0.0039  0.3452  0.6265
  599MOL0     C80756   9.554   6.414   5.932 -0.0548  0.2222  0.3857
  599MOL0     C80757   9.447   6.496   5.939 -0.4800 -0.1493 -0.0951
  599MOL0     C80758   9.463   6.630   5.977 -0.0458 -1.3563  0.0499
  599MOL0     C80759   9.343   6.717   6.001  0.3373  0.0984  0.7157
  599MOL0     O80760   9.374   6.846   6.034 -0.5334 -0.2774  0.3727
  599MOL0     C80761   9.260   6.926   6.031  0.7914 -0.1857 -0.4491
  599MOL0     C80762   9.228   6.989   5.904 -1.2465 -0.2140  1.0425
  599MOL0     C80763   9.134   7.087   5.901  0.6340  0.4736 -0.3033
  599MOL0     C80764   9.063   7.124   6.010 -0.2204 -0.0790  0.3091
  599MOL0     O80765   8.972   7.220   6.001  0.0356  0.2451 -0.3411
  599MOL0     C80766   8.848   7.155   5.947 -0.0259 -0.1864 -0.8285
  599MOL0     C80767   8.730   7.248   5.975 -0.4879 -0.2714  0.4369
  599MOL0     C80768   8.637   7.276   5.851  0.2172 -0.5768  0.4523
  599MOL0     C80769   8.563   7.405   5.840 -0.2903 -0.7712 -0.2784
  599MOL0     C80770   8.502   7.436   5.711  0.5537 -0.3479  1.7361
  599MOL0     C80771   8.412   7.557   5.706 -0.3694  0.6292  0.0393
  599MOL0     C80772   8.484   7.688   5.759  0.0662 -0.4641  0.6606
  599MOL0     C80773   8.409   7.822   5.718 -0.0062  0.1671 -1.1527
  599MOL0    Cl80774   8.247   7.824   5.792 -0.1527 -0.0294 -0.1728
  599MOL0     C80775   9.088   7.064   6.130 -0.4075 -0.8314  0.3149
  599MOL0     C80776   9.188   6.973   6.147 -0.8847 -0.1333 -0.2512
  599MOL0     O80777   9.239   6.660   6.001 -0.7301  0.2642  0.2316
  599MOL0     C80778   9.596   6.667   6.010 -0.2189  0.3392  0.1576
  599MOL0     C80779   9.700   6.579   6.007 -0.6615 -0.4521  0.5638
  599MOL0     N80780  10.334   6.153   6.326  0.7069  0.1933 -0.1137
  599MOL0     N80781  10.454   6.168   6.288  0.3959 -0.4245  0.3116
  599MOL0     C80782  10.917   5.423   5.293  0.2106  0.1470 -0.1676
  599MOL0     C80783  11.015   5.406   5.198  0.1329 -0.3943 -0.0555
  599MOL0     C80784  11.255   5.386   4.799 -0.7347  0.4085  0.0436
  599MOL0     C80785  11.365   5.361   4.890 -0.3531 -0.3113 -0.5935
  599MOL0     C80786  11.481   5.290   4.848  0.7654 -0.9245  0.3163
  599MOL0     C80787  11.489   5.234   4.714  0.5484  0.2552 -0.5705
  599MOL0     O80788  11.601   5.175   4.663 -0.4724  0.1517  0.1341
  599MOL0     C80789  11.717   5.155   4.733  0.2845  0.2106 -0.3197
  599MOL0     C80790  11.795   5.285   4.745  0.1766  0.9797 -0.5027
  599MOL0     C80791  11.914   5.268   4.844 -0.2919  1.0200 -0.7441
  599MOL0     C80792  11.907   5.375   4.949 -0.3255 -0.3904  0.1297
  599MOL0     C80793  11.798   5.368   5.046 -0.1845 -0.9415 -0.2159
  599MOL0     C80794  11.699   5.354   5.115  0.8912  0.6941  0.6492
  599MOL0     C80795  11.382   5.260   4.632 -0.1123 -0.3498  0.3631
  599MOL0     C80796  11.268   5.341   4.662 -0.9085  1.0312 -0.5687
  599MOL0     C80797  11.159   5.354   4.551  0.2549 -0.6114  0.3863
  599MOL0     H80798  10.890   5.573   4.933  2.0219 -1.0659 -0.3327
  599MOL0     H80799  10.697   5.596   5.103 -1.9077 -1.3607  0.3768
  599MOL0     H80800  10.760   5.498   5.558  0.2175  3.6301  2.0666
  599MOL0     H80801  10.806   5.643   5.479 -0.9719  2.0765 -2.2714
  599MOL0     H80802  10.534   5.556   5.566 -0.2593 -0.2344 -1.3032
  599MOL0     H80803  10.545   5.675   5.437  2.2040  3.7384 -0.8033
  599MOL0     H80804  10.520   5.780   5.656 -0.2403 -1.0535 -0.8207
  599MOL0     H80805  10.671   5.835   5.573  0.6483  1.1628  1.2297
  599MOL0     H80806  10.631   5.619   5.799 -2.4220  2.1618  0.2981
  599MOL0     H80807  10.787   5.671   5.731  0.4356 -0.6849 -0.6149
  599MOL0     H80808  10.793   5.764   5.922  1.2057 -0.1567 -2.5899
  599MOL0     H80809  10.729   5.902   5.846  0.4361 -0.4561 -0.6607
  599MOL0     H80810  10.500   5.852   5.923  0.3976 -0.0729  0.8770
  599MOL0     H80811  10.571   5.707   6.001  3.5226 -2.1487 -5.6149
  599MOL0     H80812  10.717   5.889   6.144  0.1076 -4.2903  1.5864
  599MOL0     H80813  10.558   5.850   6.194  0.7158 -0.9494 -1.0732
  599MOL0     H80814  10.667   6.116   6.140 -0.7746  5.1567 -2.5795
  599MOL0     H80815  10.589   6.081   5.982 -4.5762 -1.7288 -0.2647
  599MOL0     H80816  10.288   6.041   6.021 -0.5860 -2.1854  0.9764
  599MOL0     H80817  10.082   6.009   6.140  0.8127 -0.1826 -0.1268
  599MOL0     H80818  10.090   5.997   6.312  4.1045 -0.7573  0.2918
  599MOL0     H80819   9.956   6.192   6.328 -0.0138 -1.6037 -0.3591
  599MOL0     H80820  10.094   6.278   6.256  0.5226  0.2886 -0.8393
  599MOL0     H80821   9.871   6.113   6.113 -0.7875  0.5085 -2.0734
  599MOL0     H80822   9.994   6.212   6.022 -1.0486 -0.8353 -0.4444
  599MOL0     H80823   9.917   6.419   6.128 -1.3327  0.4119  4.4296
  599MOL0     H80824   9.785   6.346   6.195 -0.1190 -1.2446 -0.6999
  599MOL0     H80825   9.532   6.311   5.904 -1.9409 -0.5755  4.0937
  599MOL0     H80826   9.349   6.464   5.904  0.1331 -0.6820 -1.3734
  599MOL0     H80827   9.291   6.986   5.815 -0.7542  3.5720  1.0883
  599MOL0     H80828   9.120   7.144   5.810  2.1073  0.5700 -0.4870
  599MOL0     H80829   8.855   7.151   5.838  0.9045  0.8339 -0.8230
  599MOL0     H80830   8.833   7.051   5.978  2.2130 -1.0104 -2.3042
  599MOL0     H80831   8.684   7.197   6.060  3.5819 -0.4774  2.8277
  599MOL0     H80832   8.772   7.343   6.011 -2.5533  0.8073  0.1349
  599MOL0     H80833   8.702   7.285   5.764 -0.9230  1.6595 -0.2396
  599MOL0     H80834   8.570   7.190   5.843  0.9391 -1.4897  3.1316
  599MOL0     H80835   8.628   7.487   5.872 -1.8319 -0.1920  1.5350
  599MOL0     H80836   8.485   7.397   5.916  0.1186 -0.3931  0.1851
  599MOL0     H80837   8.435   7.353   5.689 -2.5516  1.6589  2.9129
  599MOL0     H80838   8.578   7.438   5.632 -1.7018 -1.4503 -0.5971
  599MOL0     H80839   8.392   7.566   5.599 -0.6213  2.8224  0.2408
  599MOL0     H80840   8.315   7.539   5.752 -1.2677  1.0518 -1.6405
  599MOL0     H80841   8.580   7.709   5.713  0.5857 -0.2867  1.7923
  599MOL0     H80842   8.491   7.683   5.868 -0.6651 -1.7745  0.6747
  599MOL0     H80843   8.459   7.915   5.746  0.5695  0.8065 -4.0417
  599MOL0     H80844   8.396   7.820   5.610  2.6036  0.4814 -1.5308
  599MOL0     H80845   9.052   7.114   6.219 -1.4577 -1.3954  0.2266
  599MOL0     H80846   9.192   6.919   6.241 -2.5599  0.8163  0.4150
  599MOL0     H80847   9.613   6.760   6.063 -1.3906  0.3398  0.5449
  599MOL0     H80848   9.801   6.609   6.035 -0.4643 -0.0659 -0.4973
  599MOL0     H80849  10.926   5.372   5.388  0.3085 -2.1831 -1.3566
  599MOL0     H80850  11.090   5.331   5.222 -0.2494 -0.8719 -0.3322
  599MOL0     H80851  11.360   5.403   4.990  0.3723 -2.0147  0.1994
  599MOL0     H80852  11.562   5.286   4.921  0.9223 -1.1189  0.1346
  599MOL0     H80853  11.781   5.073   4.697  3.3045  1.6090  1.4209
  599MOL0     H80854  11.695   5.117   4.833  1.2603  1.1096  0.2593
  599MOL0     H80855  11.731   5.371   4.768 -0.7964  0.0947  0.1597
  599MOL0     H80856  11.844   5.305   4.650 -1.4843  0.4603 -1.5171
  599MOL0     H80857  12.012   5.281   4.797  0.7172  2.1896  1.5380
  599MOL0     H80858  11.912   5.175   4.901 -0.4965  1.8065  0.5633
  599MOL0     H80859  11.998   5.399   5.005 -0.3931 -0.7240  0.3882
  599MOL0     H80860  11.889   5.466   4.892 -0.9599 -0.8657 -0.4475
  599MOL0     H80861  11.610   5.341   5.173 -1.9348  2.8065 -2.8216
  599MOL0     H80862  11.402   5.245   4.526  1.2738  0.3999  0.4995
  599MOL0     H80863  11.064   5.322   4.594 -2.1610  2.8213 -1.8912
  599MOL0     H80864  11.142   5.456   4.516 -1.2794 -1.2452 -0.8244
  599MOL0     H80865  11.176   5.291   4.462 -2.1372  0.3889 -0.8740
  600MOL0     O80866  10.653   0.406   7.448 -0.4374  0.6045 -1.2406
  600MOL0     C80867  10.653   0.499   7.531 -0.0991 -0.7950  0.7894
  600MOL0     O80868  10.550   0.544   7.603  0.3144  0.8944 -0.9186
  600MOL0     C80869  10.427   0.473   7.623 -0.4756  0.4148  0.3544
  600MOL0     C80870  10.317   0.541   7.684  0.1835 -0.2826 -0.6198
  600MOL0     C80871  10.193   0.475   7.697 -0.2668 -0.0069  0.3431
  600MOL0     C80872  10.175   0.339   7.677 -0.5419 -0.6490  0.3739
  600MOL0     O80873  10.058   0.290   7.720  0.4046  0.5655 -0.0634
  600MOL0     C80874  10.018   0.162   7.688 -0.7339 -0.1458 -0.6118
  600MOL0     C80875   9.913   0.167   7.572 -0.7582  0.0148 -0.5400
  600MOL0     C80876   9.996   0.177   7.443  0.4442  0.0909  0.3763
  600MOL0     C80877  10.042   0.036   7.397  0.2657 -0.0114  0.1704
  600MOL0     C80878  10.115   0.047   7.262  0.5516 -0.5087 -0.9027
  600MOL0     C80879  10.266   0.034   7.295 -0.2417  0.7272 -1.2706
  600MOL0     C80880  10.357   0.082   7.186 -0.3318 -0.6219  0.2223
  600MOL0     C80881  10.489  -0.003   7.197  0.4847  0.2058  0.5243
  600MOL0     N80882  10.550  -0.014   7.330 -1.0357  0.8084 -0.4681
  600MOL0     C80883  10.620   0.080   7.399 -0.6051 -0.3401 -0.1091
  600MOL0     C80884  10.671   0.015   7.498 -0.5094 -0.2648 -0.5401
  600MOL0     C80885  10.756   0.078   7.610 -1.1458 -0.0870 -0.2464
  600MOL0     C80886  10.873   0.159   7.548 -0.7005 -0.0014 -0.1290
  600MOL0     C80887  10.948   0.248   7.655  0.2728  0.2800 -0.9298
  600MOL0     C80888  11.089   0.292   7.609  1.1484 -0.2818 -0.1505
  600MOL0     O80889  11.184   0.189   7.621  0.5060 -0.2747 -0.2007
  600MOL0     C80890  11.319   0.218   7.594  0.7275  0.7268 -0.1641
  600MOL0     C80891  11.359   0.341   7.537  0.3211  0.1995  0.1318
  600MOL0     C80892  11.499   0.374   7.530 -0.1532  0.1251  0.3472
  600MOL0     C80893  11.595   0.281   7.565 -0.4784  0.3309  0.5396
  600MOL0     C80894  11.742   0.302   7.563  0.0630  0.4832 -0.1526
  600MOL0     O80895  11.780   0.427   7.527 -0.4973 -0.0019  0.3179
  600MOL0     C80896  11.917   0.449   7.503  0.2893  0.8020  1.4563
  600MOL0     C80897  11.980   0.555   7.574  0.5659  0.1520 -0.6741
  600MOL0     C80898  12.112   0.587   7.548  0.6064  0.4681  1.1120
  600MOL0     C80899  12.183   0.513   7.450  0.4948 -0.0857  0.6243
  600MOL0     O80900  12.314   0.515   7.413 -0.1404  0.4817  0.0699
  600MOL0     C80901  12.393   0.622   7.461 -0.1249  0.5992 -0.3608
  600MOL0     C80902  12.532   0.574   7.428  0.5662 -0.3576  0.0383
  600MOL0     C80903  12.589   0.451   7.499  0.7824 -0.5968 -0.7991
  600MOL0     C80904  12.737   0.441   7.545  0.5976 -0.5408 -0.6906
  600MOL0     C80905  12.829   0.479   7.434 -0.0707 -0.1433 -0.1803
  600MOL0     C80906  12.985   0.468   7.461  0.9320 -0.6585  0.4398
  600MOL0     C80907  13.036   0.576   7.552 -0.7367  0.2356 -0.0394
  600MOL0     C80908  13.184   0.555   7.580 -0.7881 -0.1507 -0.0935
  600MOL0    Cl80909  13.236   0.392   7.650  0.3446 -0.0679  0.3627
  600MOL0     C80910  12.120   0.407   7.385  0.1661 -1.1149  0.9888
  600MOL0     C80911  11.985   0.378   7.408  0.2484  0.5421  0.2792
  600MOL0     O80912  11.816   0.212   7.595  0.0886  0.2730 -0.5925
  600MOL0     C80913  11.547   0.156   7.608 -0.3560 -0.4831 -0.2568
  600MOL0     C80914  11.410   0.123   7.632  0.5350  0.2935 -0.4908
  600MOL0     N80915  10.644  -0.119   7.481 -0.2346 -0.3413  0.1371
  600MOL0     N80916  10.573  -0.137   7.379 -0.3996  0.3899 -0.4740
  600MOL0     C80917  10.291   0.270   7.618  0.0701 -0.0808 -0.1126
  600MOL0     C80918  10.412   0.337   7.595  0.1675 -0.2895  0.6578
  600MOL0     C80919  10.782   0.567   7.550 -0.5264 -0.2447 -0.1162
  600MOL0     C80920  10.831   0.588   7.678  0.6459 -0.1917 -0.4880
  600MOL0     C80921  10.957   0.645   7.700 -0.2682  0.7698 -0.4126
  600MOL0     C80922  11.036   0.673   7.588 -0.3098 -0.4899  0.0297
  600MOL0     O80923  11.170   0.691   7.618  0.2025 -0.1755 -0.3328
  600MOL0     C80924  11.238   0.770   7.522  0.2696 -0.7264  0.5046
  600MOL0     C80925  11.362   0.837   7.589  0.5382  0.1100 -0.0923
  600MOL0     C80926  11.487   0.746   7.593 -0.5302 -0.4462 -0.6257
  600MOL0     C80927  11.606   0.828   7.641 -0.1744 -0.1743 -0.3271
  600MOL0     C80928  11.598   0.828   7.789 -0.2021  0.9726  0.3969
  600MOL0     C80929  11.614   0.823   7.906  0.1068 -1.2321 -0.8819
  600MOL0     C80930  10.983   0.655   7.463  0.4759 -0.9450 -0.5321
  600MOL0     C80931  10.862   0.596   7.441 -0.4311  0.2175 -0.3301
  600MOL0     C80932  10.817   0.593   7.298 -0.2275 -0.3874  0.3436
  600MOL0     H80933  10.313   0.648   7.704  1.4945 -0.3415  0.0294
  600MOL0     H80934  10.114   0.535   7.740 -0.0364 -0.5815  1.6197
  600MOL0     H80935  10.096   0.085   7.687  0.5462  1.0878  0.1952
  600MOL0     H80936   9.980   0.139   7.787  2.3765  0.6118  0.8973
  600MOL0     H80937   9.873   0.266   7.598  1.3505  0.8342 -0.2230
  600MOL0     H80938   9.837   0.089   7.573 -2.3421  1.4843 -0.5014
  600MOL0     H80939  10.081   0.245   7.451  0.1130  0.6790 -0.8175
  600MOL0     H80940   9.935   0.221   7.363  1.6998  0.8907 -0.1692
  600MOL0     H80941  10.104  -0.013   7.472  0.4791 -0.0033  0.0014
  600MOL0     H80942   9.966  -0.041   7.383  1.0301 -0.3757 -2.5598
  600MOL0     H80943  10.075  -0.035   7.201  2.1375 -4.0156  2.3868
  600MOL0     H80944  10.104   0.138   7.203 -2.1506  0.4910  0.9847
  600MOL0     H80945  10.299   0.093   7.381 -0.7486  0.3908 -0.8408
  600MOL0     H80946  10.290  -0.067   7.329 -0.4814  0.8545 -0.7122
  600MOL0     H80947  10.377   0.188   7.205  1.0687 -1.0972  1.6470
  600MOL0     H80948  10.316   0.067   7.086  2.7527 -1.0682 -1.0949
  600MOL0     H80949  10.461  -0.102   7.160 -0.2368  0.3182  0.7600
  600MOL0     H80950  10.554   0.027   7.114 -2.3425 -1.1424 -2.3994
  600MOL0     H80951  10.638   0.180   7.360 -1.1648 -0.8481 -1.7623
  600MOL0     H80952  10.697   0.146   7.672 -1.2906 -0.8313  0.4568
  600MOL0     H80953  10.794  -0.006   7.669  0.2280 -0.4356 -1.5452
  600MOL0     H80954  10.943   0.097   7.492 -0.0816 -0.5847  1.2449
  600MOL0     H80955  10.838   0.221   7.464  3.2418 -0.8634 -2.6700
  600MOL0     H80956  10.960   0.189   7.746 -0.3154  1.5153 -0.0207
  600MOL0     H80957  10.892   0.336   7.689  0.3803  0.7722 -1.9763
  600MOL0     H80958  11.123   0.376   7.671 -1.0906 -0.2094  1.0723
  600MOL0     H80959  11.082   0.332   7.507 -0.9768 -0.3386 -0.0524
  600MOL0     H80960  11.283   0.414   7.511  1.1634  1.4629  1.0736
  600MOL0     H80961  11.543   0.463   7.487  0.9769 -0.9018 -0.6733
  600MOL0     H80962  11.926   0.601   7.656  1.8488 -0.1674  0.3920
  600MOL0     H80963  12.159   0.665   7.606  0.7088  1.7825 -0.6574
  600MOL0     H80964  12.371   0.717   7.412  0.6948  0.6960 -0.5439
  600MOL0     H80965  12.367   0.637   7.566 -1.9558 -2.6866 -0.1748
  600MOL0     H80966  12.525   0.557   7.320 -1.5936 -0.9296  0.2256
  600MOL0     H80967  12.610   0.649   7.447 -1.3793  1.9356 -0.5009
  600MOL0     H80968  12.526   0.434   7.587 -0.4505  2.1799 -1.0553
  600MOL0     H80969  12.553   0.371   7.433 -1.5758  1.2984 -1.9484
  600MOL0     H80970  12.748   0.335   7.570  1.9380 -1.3782 -4.2694
  600MOL0     H80971  12.752   0.507   7.630 -2.1174  1.2373 -1.4629
  600MOL0     H80972  12.812   0.579   7.392  1.6823  0.5588  0.6847
  600MOL0     H80973  12.811   0.408   7.353 -1.5724 -2.7437  2.2274
  600MOL0     H80974  12.993   0.375   7.518  0.8142 -0.7167  0.3630
  600MOL0     H80975  13.044   0.460   7.369  1.7999 -2.6863  1.1099
  600MOL0     H80976  12.982   0.580   7.647 -1.4450  4.0447 -0.4539
  600MOL0     H80977  13.025   0.671   7.498 -1.4638  0.4240  0.4264
  600MOL0     H80978  13.240   0.557   7.486  2.7567 -0.1261  1.8223
  600MOL0     H80979  13.232   0.620   7.653  1.6071 -1.5364 -0.3103
  600MOL0     H80980  12.165   0.345   7.307  0.3189  0.8801 -0.6039
  600MOL0     H80981  11.926   0.305   7.354  0.7741  0.1051  0.2857
  600MOL0     H80982  11.623   0.082   7.633  0.8877 -0.2958 -3.1844
  600MOL0     H80983  11.394   0.026   7.679  1.4393  0.7885  0.9005
  600MOL0     H80984  10.278   0.164   7.597 -5.2453  0.1144  0.7809
  600MOL0     H80985  10.496   0.278   7.560  1.0967  1.4769 -0.2485
  600MOL0     H80986  10.765   0.547   7.755  0.4691  0.5867 -0.2187
  600MOL0     H80987  11.008   0.644   7.795 -2.3211 -0.0402  0.7320
  600MOL0     H80988  11.168   0.851   7.499  0.6993 -0.8999 -1.6027
  600MOL0     H80989  11.264   0.720   7.429 -0.0645  1.0272 -0.5827
  600MOL0     H80990  11.334   0.878   7.686  0.7048  0.9671 -0.4026
  600MOL0     H80991  11.399   0.919   7.527  4.1893 -1.3180 -0.0440
  600MOL0     H80992  11.503   0.701   7.494  1.2690 -1.0343 -0.1196
  600MOL0     H80993  11.469   0.655   7.650  1.0356 -1.1764 -1.2231
  600MOL0     H80994  11.709   0.795   7.623  1.0952  3.5788 -1.0185
  600MOL0     H80995  11.602   0.931   7.603 -1.3768  0.1630  0.6531
  600MOL0     H80996  11.604   0.848   8.009 -0.6668  2.7095 -1.7494
  600MOL0     H80997  11.039   0.685   7.374 -0.1709 -0.0686 -0.6551
  600MOL0     H80998  10.888   0.539   7.234 -1.3319 -0.4727 -0.8370
  600MOL0     H80999  10.714   0.565   7.278 -0.9344  3.8426 -3.8232
  600MOL0     H81000  10.827   0.694   7.257 -0.2283 -0.1263  0.9750
  601MOL0     O81001   7.503   8.433   0.791  0.1155  0.4325  0.1958
  601MOL0     C81002   7.516   8.311   0.804  0.1368 -0.0471 -0.2850
  601MOL0     O81003   7.527   8.241   0.923  0.4846  0.1741 -0.5201
  601MOL0     C81004   7.520   8.317   1.041  0.2078  0.3809  0.9206
  601MOL0     C81005   7.641   8.358   1.102  0.0847  0.4242  0.3067
  601MOL0     C81006   7.636   8.444   1.215  0.4444 -0.0191  0.0580
  601MOL0     C81007   7.509   8.486   1.276 -0.0352 -0.1554 -0.2661
  601MOL0     O81008   7.500   8.565   1.395 -0.4875  0.3140  1.5130
  601MOL0     C81009   7.372   8.608   1.433  0.4523 -0.1314  0.3574
  601MOL0     C81010   7.397   8.741   1.500  0.4438 -0.5695  0.3995
  601MOL0     C81011   7.495   8.828   1.426  0.2157 -0.8253  0.8163
  601MOL0     C81012   7.486   8.971   1.489  0.4282 -0.6844  1.0476
  601MOL0     C81013   7.594   9.061   1.428 -0.5229 -0.3521  0.2427
  601MOL0     C81014   7.582   9.194   1.499  0.0374  1.1447  0.6323
  601MOL0     C81015   7.698   9.291   1.463  0.1124  0.0683 -0.0509
  601MOL0     C81016   7.717   9.421   1.545  0.0519  0.1456  0.5374
  601MOL0     N81017   7.597   9.500   1.530  0.8392 -0.7832  0.1360
  601MOL0     C81018   7.521   9.537   1.414 -0.9196  0.0574 -0.9805
  601MOL0     C81019   7.398   9.584   1.454 -0.2517  0.1950 -0.0503
  601MOL0     C81020   7.286   9.596   1.358  0.0992 -1.0767  0.9333
  601MOL0     C81021   7.179   9.489   1.402 -0.1867  0.0406 -0.2227
  601MOL0     C81022   7.069   9.494   1.293 -0.1693 -0.0033  0.8719
  601MOL0     C81023   6.974   9.608   1.316  1.3668 -0.5364 -0.7393
  601MOL0     O81024   6.876   9.564   1.415  0.3595 -0.6887 -0.3554
  601MOL0     C81025   6.785   9.463   1.385  0.3285 -0.7899  0.4146
  601MOL0     C81026   6.759   9.412   1.255  0.1874 -0.4851 -0.7115
  601MOL0     C81027   6.684   9.296   1.240 -0.1198  0.0284  0.5782
  601MOL0     C81028   6.619   9.233   1.349 -0.3874 -0.3467  0.4879
  601MOL0     C81029   6.529   9.122   1.335  0.0834 -0.1945 -0.2161
  601MOL0     O81030   6.507   9.064   1.214 -0.7174 -0.3717 -0.4534
  601MOL0     C81031   6.423   8.952   1.217 -0.8012  0.3613 -0.7874
  601MOL0     C81032   6.290   8.967   1.239  0.4762 -0.4855 -0.1406
  601MOL0     C81033   6.199   8.859   1.232  0.2696 -0.2190 -0.1424
  601MOL0     C81034   6.255   8.739   1.194 -1.2640 -0.3507  0.0086
  601MOL0     O81035   6.171   8.629   1.209 -0.8710 -0.5739 -0.1094
  601MOL0     C81036   6.190   8.497   1.150 -0.1858  0.3529  0.2557
  601MOL0     C81037   6.055   8.430   1.180  0.2575  0.1662  0.0284
  601MOL0     C81038   6.034   8.308   1.084 -0.4996  0.3190 -0.3377
  601MOL0     C81039   5.908   8.230   1.118 -0.2886 -0.2101  1.0297
  601MOL0     C81040   5.923   8.146   1.247 -0.2323  0.1902 -0.2481
  601MOL0     C81041   5.824   8.026   1.234  0.1525 -1.5891 -0.1191
  601MOL0     C81042   5.848   7.936   1.351 -0.1424  0.3498  0.2815
  601MOL0     C81043   5.726   7.855   1.373 -0.7583  0.7672 -0.0720
  601MOL0    Cl81044   5.790   7.694   1.425  0.2683  0.3456  0.1057
  601MOL0     C81045   6.395   8.721   1.168 -0.1217 -0.5920 -0.2120
  601MOL0     C81046   6.479   8.829   1.180 -0.4058 -0.1673  1.0058
  601MOL0     O81047   6.463   9.094   1.437 -0.3148 -0.0933 -0.2242
  601MOL0     C81048   6.633   9.303   1.466  0.2549 -0.4782  0.4120
  601MOL0     C81049   6.725   9.406   1.495  0.7992 -0.0128  0.4702
  601MOL0     N81050   7.405   9.584   1.593 -1.1070 -0.8076  0.1961
  601MOL0     N81051   7.521   9.535   1.637  0.0916 -0.2983 -0.5156
  601MOL0     C81052   7.389   8.432   1.219 -0.0223  0.4492  0.8128
  601MOL0     C81053   7.396   8.356   1.102  0.9277  0.6808 -0.0092
  601MOL0     C81054   7.563   8.237   0.694 -0.0156 -0.3491  0.8516
  601MOL0     C81055   7.692   8.257   0.643  0.8070  0.2067  1.0679
  601MOL0     C81056   7.741   8.189   0.533  0.0694  1.4285 -0.2904
  601MOL0     C81057   7.658   8.100   0.464  0.1764 -0.4766  0.5366
  601MOL0     O81058   7.698   8.016   0.360  0.3476 -0.8223  0.5741
  601MOL0     C81059   7.835   8.034   0.307  0.0782 -0.2088 -0.4084
  601MOL0     C81060   7.836   7.982   0.164 -0.6341 -0.7512  1.2968
  601MOL0     C81061   7.972   7.983   0.081  0.0372 -0.5058 -0.2281
  601MOL0     C81062   8.005   8.125   0.032  0.4138 -0.8488 -0.4829
  601MOL0     C81063   8.105   8.126  -0.072 -0.0082  0.0847  0.1090
  601MOL0     C81064   8.195   8.136  -0.160  0.0250 -0.4834  0.7708
  601MOL0     C81065   7.526   8.077   0.513  0.3294  0.6906 -0.5290
  601MOL0     C81066   7.475   8.146   0.622 -0.8542 -0.5404  0.6350
  601MOL0     C81067   7.324   8.129   0.647 -0.3802  0.1310  0.3454
  601MOL0     H81068   7.741   8.340   1.065  0.5741  1.6147  0.9644
  601MOL0     H81069   7.721   8.488   1.266  0.6358  1.0815 -1.1444
  601MOL0     H81070   7.292   8.622   1.360 -2.3823 -1.8949  2.9112
  601MOL0     H81071   7.328   8.533   1.499 -2.8174  0.6829 -0.7360
  601MOL0     H81072   7.440   8.725   1.599  0.7253  1.4124  0.6286
  601MOL0     H81073   7.299   8.790   1.501 -0.1513 -1.7265  0.2957
  601MOL0     H81074   7.468   8.837   1.321  4.5751  4.2719 -0.3219
  601MOL0     H81075   7.598   8.794   1.433  0.5314 -0.6279 -1.9443
  601MOL0     H81076   7.391   9.016   1.458  1.9685  1.1690 -1.3575
  601MOL0     H81077   7.487   8.968   1.598  0.8323  0.1100  1.0751
  601MOL0     H81078   7.687   9.008   1.447  0.0212 -0.2324 -1.8028
  601MOL0     H81079   7.584   9.080   1.320 -0.4272  2.1343  0.6160
  601MOL0     H81080   7.483   9.237   1.479  0.0448 -0.3099 -3.4979
  601MOL0     H81081   7.588   9.193   1.608  3.0741  1.9571  0.5563
  601MOL0     H81082   7.702   9.327   1.359  1.1660  3.7910  1.0971
  601MOL0     H81083   7.784   9.228   1.486 -1.5775 -2.1866  0.3648
  601MOL0     H81084   7.742   9.407   1.650  2.1004  1.2700  0.2390
  601MOL0     H81085   7.803   9.477   1.506 -0.4412 -0.3006 -1.2824
  601MOL0     H81086   7.548   9.513   1.311 -0.3449 -0.5424 -0.6946
  601MOL0     H81087   7.239   9.694   1.367 -1.0509 -1.5903  0.7141
  601MOL0     H81088   7.321   9.578   1.256  2.0457 -0.0464  1.3695
  601MOL0     H81089   7.221   9.389   1.417  0.0871  0.4131  1.6562
  601MOL0     H81090   7.147   9.515   1.503 -2.3697 -4.1821  0.3848
  601MOL0     H81091   7.016   9.398   1.289 -0.9569  0.4565 -0.1087
  601MOL0     H81092   7.117   9.502   1.195 -0.1188  0.1613  0.9105
  601MOL0     H81093   6.920   9.632   1.223 -2.6799  0.2306  1.5718
  601MOL0     H81094   7.033   9.692   1.353  0.0028 -0.2639  0.9125
  601MOL0     H81095   6.809   9.446   1.165  2.9084 -0.4424  0.6935
  601MOL0     H81096   6.657   9.262   1.140  0.3731 -0.0488  0.4657
  601MOL0     H81097   6.274   9.074   1.247  0.5095 -0.5174  0.3585
  601MOL0     H81098   6.092   8.866   1.248  0.3267 -0.3732  0.3375
  601MOL0     H81099   6.190   8.507   1.041 -0.0071  1.8056  0.3588
  601MOL0     H81100   6.275   8.445   1.193 -0.6013 -0.0913  0.5569
  601MOL0     H81101   6.055   8.403   1.286 -1.7463 -2.9712 -0.6324
  601MOL0     H81102   5.975   8.505   1.172 -1.1524 -1.0887  1.6021
  601MOL0     H81103   6.041   8.340   0.980  0.1228  1.7689  0.1251
  601MOL0     H81104   6.118   8.239   1.099  0.1944  0.6223 -2.4766
  601MOL0     H81105   5.901   8.150   1.043 -0.9842  0.4061  0.4177
  601MOL0     H81106   5.825   8.300   1.105  3.0646  3.7721 -1.8956
  601MOL0     H81107   5.908   8.219   1.327  1.5323 -1.5030  1.7476
  601MOL0     H81108   6.018   8.099   1.274 -1.2529 -0.8222  1.9095
  601MOL0     H81109   5.718   8.053   1.238  1.1541  3.2199  0.6509
  601MOL0     H81110   5.846   7.975   1.140 -0.1828  1.3259 -1.9140
  601MOL0     H81111   5.870   7.984   1.446 -3.6713  3.4454 -0.2425
  601MOL0     H81112   5.922   7.860   1.323  0.8359  2.5340 -3.8959
  601MOL0     H81113   5.657   7.904   1.442 -0.4862 -0.6488  1.2635
  601MOL0     H81114   5.672   7.833   1.280 -1.9594 -2.0608  1.1515
  601MOL0     H81115   6.449   8.628   1.154 -0.7672 -1.2354  1.2843
  601MOL0     H81116   6.581   8.806   1.149 -1.1707 -2.6176  0.1006
  601MOL0     H81117   6.569   9.276   1.549 -1.1787  3.9187  1.0227
  601MOL0     H81118   6.727   9.470   1.582 -1.4639 -0.0114  0.5634
  601MOL0     H81119   7.289   8.440   1.260  0.3226  0.1098  1.7364
  601MOL0     H81120   7.311   8.304   1.059 -1.4795 -1.1721  5.9648
  601MOL0     H81121   7.760   8.320   0.699  3.0909 -0.5013 -0.7512
  601MOL0     H81122   7.846   8.211   0.512 -0.4144  2.9109 -1.3596
  601MOL0     H81123   7.898   7.973   0.373 -1.2274 -1.4218 -0.2433
  601MOL0     H81124   7.874   8.134   0.331 -0.6755 -0.3951  1.8328
  601MOL0     H81125   7.761   8.036   0.106  0.1540 -3.7460 -2.9202
  601MOL0     H81126   7.798   7.880   0.163  1.8837 -1.8450 -2.4525
  601MOL0     H81127   7.961   7.915  -0.005  0.0151 -2.6492  1.3933
  601MOL0     H81128   8.057   7.948   0.140  0.2943 -2.7845 -1.7930
  601MOL0     H81129   7.919   8.185   0.001 -2.0936 -2.8539  2.0079
  601MOL0     H81130   8.049   8.170   0.121 -1.1501 -0.0153 -0.0946
  601MOL0     H81131   8.263   8.141  -0.243  1.0226  0.1023  1.5990
  601MOL0     H81132   7.468   7.992   0.478  2.6491 -1.3600  0.3023
  601MOL0     H81133   7.302   8.077   0.741  0.0282 -3.0310 -1.1800
  601MOL0     H81134   7.277   8.226   0.634 -0.4044 -0.0329 -0.8801
  601MOL0     H81135   7.275   8.070   0.569 -0.6731  0.5802  0.1926
  602MOL0     O81136   1.929   8.470   7.454  0.3282 -0.3820 -0.1460
  602MOL0     C81137   1.969   8.585   7.458 -0.4991  0.4515 -0.0613
  602MOL0     O81138   1.902   8.701   7.489 -0.3428  0.1504 -0.2523
  602MOL0     C81139   1.770   8.725   7.506 -0.9439  0.0547 -0.8404
  602MOL0     C81140   1.733   8.858   7.483  0.1929 -0.2959 -0.7944
  602MOL0     C81141   1.600   8.908   7.501 -0.0524  0.3854 -0.1946
  602MOL0     C81142   1.506   8.813   7.545 -0.2841  0.5694  0.0273
  602MOL0     O81143   1.376   8.862   7.569 -0.2055 -0.0815  0.2389
  602MOL0     C81144   1.308   8.808   7.682  0.6406  0.0156  0.8914
  602MOL0     C81145   1.154   8.773   7.656 -1.1985 -1.0002 -0.2432
  602MOL0     C81146   1.144   8.667   7.555 -1.0436 -0.4781  0.2349
  602MOL0     C81147   1.159   8.533   7.626 -0.3484  1.2091 -0.4427
  602MOL0     C81148   1.203   8.414   7.540 -0.0671 -0.0997 -1.4982
  602MOL0     C81149   1.186   8.283   7.624  0.6976 -0.9862 -0.2796
  602MOL0     C81150   1.278   8.171   7.574 -0.5501 -0.6028  0.0511
  602MOL0     C81151   1.431   8.199   7.590 -0.4165  0.2548 -0.6921
  602MOL0     N81152   1.460   8.242   7.728  0.6479 -0.7678 -0.1246
  602MOL0     C81153   1.554   8.329   7.764  0.5153  0.2917 -0.6368
  602MOL0     C81154   1.531   8.355   7.892  1.0018  1.0136 -0.3171
  602MOL0     C81155   1.583   8.478   7.959 -0.6794  0.4667 -0.9355
  602MOL0     C81156   1.728   8.475   7.989  0.2207 -0.3027 -0.5862
  602MOL0     C81157   1.822   8.494   7.868  0.2512  0.2443  0.0987
  602MOL0     C81158   1.957   8.514   7.927  0.4376 -0.4412  0.2297
  602MOL0     O81159   2.003   8.414   8.010  0.4654 -0.0545  0.0811
  602MOL0     C81160   2.130   8.416   8.062 -0.7435 -0.3382  0.5489
  602MOL0     C81161   2.169   8.290   8.129  0.5053  0.0763  0.2955
  602MOL0     C81162   2.303   8.289   8.188 -0.7252  0.6743  0.6573
  602MOL0     C81163   2.398   8.396   8.175  0.0771  0.4202 -0.5566
  602MOL0     C81164   2.544   8.377   8.226  0.0481 -0.1917 -0.2494
  602MOL0     O81165   2.591   8.269   8.304  0.2402  0.5022  0.1077
  602MOL0     C81166   2.724   8.251   8.323  0.3925 -0.6042 -0.1358
  602MOL0     C81167   2.772   8.116   8.309 -0.4533  0.0052  0.6643
  602MOL0     C81168   2.909   8.098   8.329 -0.6755 -0.1706 -0.5900
  602MOL0     C81169   2.985   8.207   8.369 -0.5190 -0.1853  0.9212
  602MOL0     O81170   3.123   8.200   8.384  0.2215 -0.1661 -0.0427
  602MOL0     C81171   3.204   8.109   8.306  0.3052  0.5274  0.1730
  602MOL0     C81172   3.217   8.156   8.156 -0.7097  0.3628 -0.5204
  602MOL0     C81173   3.326   8.259   8.162 -0.0893 -0.1928 -0.3020
  602MOL0     C81174   3.370   8.306   8.020  0.2204 -0.0270  0.0553
  602MOL0     C81175   3.456   8.440   8.037  0.8505  0.2475  0.6048
  602MOL0     C81176   3.532   8.480   7.906  0.8927 -0.7185  0.3826
  602MOL0     C81177   3.627   8.598   7.916 -0.4940  0.4062  0.1559
  602MOL0     C81178   3.556   8.727   7.867 -0.2550 -0.5790  0.3199
  602MOL0    Cl81179   3.621   8.886   7.929  0.0583  0.3795 -0.5085
  602MOL0     C81180   2.931   8.332   8.391  0.2274 -0.1477  0.1041
  602MOL0     C81181   2.802   8.358   8.374 -0.7049 -0.1461  0.4238
  602MOL0     O81182   2.612   8.467   8.189 -0.5484 -0.7078 -0.1706
  602MOL0     C81183   2.347   8.513   8.115  1.3895  0.0748  0.9380
  602MOL0     C81184   2.217   8.524   8.055  0.6650 -0.0128  0.6166
  602MOL0     N81185   1.427   8.279   7.942  0.1398 -0.6455  0.3191
  602MOL0     N81186   1.398   8.202   7.844 -0.2033  0.2461 -0.1885
  602MOL0     C81187   1.546   8.675   7.557  0.0616  0.5527 -0.7199
  602MOL0     C81188   1.677   8.639   7.544 -0.4076 -0.1759  0.2691
  602MOL0     C81189   2.109   8.603   7.421  0.5769  0.5565  0.0020
  602MOL0     C81190   2.139   8.725   7.349 -0.4013 -0.4237 -0.9150
  602MOL0     C81191   2.265   8.745   7.309 -0.1439  0.4145 -1.0356
  602MOL0     C81192   2.374   8.656   7.329 -0.0270  0.3478 -0.1653
  602MOL0     O81193   2.495   8.689   7.281 -0.5226  0.3512  0.6264
  602MOL0     C81194   2.604   8.602   7.315  0.1780  1.1330  0.0531
  602MOL0     C81195   2.607   8.473   7.220 -0.9685 -0.1429  0.1360
  602MOL0     C81196   2.744   8.394   7.251 -0.0641 -0.5702  0.6613
  602MOL0     C81197   2.729   8.299   7.367 -0.8475 -0.3998  0.4323
  602MOL0     C81198   2.623   8.206   7.353 -0.5612 -0.1402 -0.5702
  602MOL0     C81199   2.551   8.119   7.319  0.2563  0.0461 -0.5767
  602MOL0     C81200   2.342   8.554   7.416  0.4958 -0.8951  0.2022
  602MOL0     C81201   2.211   8.526   7.456 -0.3472  0.3791  0.7873
  602MOL0     C81202   2.188   8.401   7.539  0.7334 -0.0750  0.0622
  602MOL0     H81203   1.820   8.921   7.462 -0.6182  0.5571 -1.6790
  602MOL0     H81204   1.566   9.010   7.488  0.3898  0.6052  0.3445
  602MOL0     H81205   1.361   8.730   7.737  2.8994 -1.0636 -2.4964
  602MOL0     H81206   1.305   8.890   7.754  0.7380  2.4409 -1.6696
  602MOL0     H81207   1.108   8.865   7.616 -1.4232 -0.6060  0.8949
  602MOL0     H81208   1.095   8.759   7.747 -2.5699  1.3928 -0.6597
  602MOL0     H81209   1.214   8.675   7.471 -1.8904 -0.3912 -0.4810
  602MOL0     H81210   1.040   8.676   7.522 -1.0771 -3.4168 -0.7699
  602MOL0     H81211   1.223   8.547   7.713 -0.6750 -0.4231  0.0921
  602MOL0     H81212   1.061   8.508   7.668 -0.0372  1.2527  0.3195
  602MOL0     H81213   1.152   8.407   7.444 -0.5700 -1.0594 -1.1778
  602MOL0     H81214   1.308   8.440   7.524 -1.1088  4.5704 -2.0059
  602MOL0     H81215   1.196   8.290   7.733  1.0274 -3.1275 -0.1279
  602MOL0     H81216   1.086   8.248   7.600  0.9040  0.4658 -3.7517
  602MOL0     H81217   1.255   8.141   7.471  3.7174 -1.1317 -0.9301
  602MOL0     H81218   1.262   8.086   7.640  1.1053  0.1204  1.4700
  602MOL0     H81219   1.495   8.114   7.567  1.3537  1.2500  0.3376
  602MOL0     H81220   1.470   8.278   7.524  2.9247  3.4157  4.3681
  602MOL0     H81221   1.613   8.386   7.692  0.9857 -0.1405 -0.5989
  602MOL0     H81222   1.556   8.551   7.883 -0.9768  0.1226 -1.1600
  602MOL0     H81223   1.528   8.491   8.052 -1.0498 -2.9336 -0.5508
  602MOL0     H81224   1.744   8.561   8.055 -2.0571 -0.9002  0.8433
  602MOL0     H81225   1.752   8.382   8.040  0.6884 -0.1162 -0.4623
  602MOL0     H81226   1.791   8.580   7.809 -3.1684 -2.6662 -2.7817
  602MOL0     H81227   1.821   8.403   7.807  2.9133  1.1110 -1.4340
  602MOL0     H81228   1.960   8.604   7.990  1.4655 -0.9281  0.9172
  602MOL0     H81229   2.035   8.528   7.851  0.2970 -2.2553 -0.2989
  602MOL0     H81230   2.096   8.210   8.128  0.0580  0.4839 -0.5315
  602MOL0     H81231   2.350   8.211   8.247  2.3819  1.3488 -0.7281
  602MOL0     H81232   2.697   8.040   8.288  0.5191 -0.1445 -2.9329
  602MOL0     H81233   2.946   7.997   8.319  1.4100  0.3153  1.4447
  602MOL0     H81234   3.303   8.103   8.353 -0.7614 -0.3424  2.4591
  602MOL0     H81235   3.173   8.005   8.309 -0.3714  0.7081 -0.3166
  602MOL0     H81236   3.253   8.079   8.087 -0.0487  1.0538 -0.9501
  602MOL0     H81237   3.120   8.196   8.124 -1.4717  2.4886  3.6830
  602MOL0     H81238   3.294   8.342   8.226  2.3509  1.1220 -0.6877
  602MOL0     H81239   3.412   8.221   8.216 -0.6636 -0.1591  0.6595
  602MOL0     H81240   3.292   8.321   7.945  2.6377  0.9300 -2.4809
  602MOL0     H81241   3.428   8.229   7.969 -0.6704  1.2268 -3.1500
  602MOL0     H81242   3.532   8.432   8.115  0.8346  0.1131  0.6084
  602MOL0     H81243   3.385   8.520   8.061 -1.0194 -1.1068 -0.0806
  602MOL0     H81244   3.586   8.392   7.870  0.6731 -0.2109 -1.2725
  602MOL0     H81245   3.461   8.506   7.827 -1.0412 -3.9002  0.8724
  602MOL0     H81246   3.720   8.589   7.859  0.0616  1.5443  0.8474
  602MOL0     H81247   3.650   8.612   8.022  2.5556 -1.1682 -0.1948
  602MOL0     H81248   3.553   8.720   7.758  2.5785 -1.0094  0.2017
  602MOL0     H81249   3.458   8.732   7.916 -1.0684  3.2663 -1.3443
  602MOL0     H81250   2.993   8.414   8.427 -0.1419  0.2297 -0.1147
  602MOL0     H81251   2.761   8.457   8.389 -1.5398 -0.1068 -1.7103
  602MOL0     H81252   2.403   8.604   8.098  0.2510  0.4610 -1.0401
  602MOL0     H81253   2.196   8.615   8.000 -2.5777 -0.0199  1.6481
  602MOL0     H81254   1.476   8.606   7.603 -0.4852  3.5783  3.6714
  602MOL0     H81255   1.699   8.534   7.554 -1.6141 -0.2794  2.6402
  602MOL0     H81256   2.065   8.799   7.321  0.6137  0.4009 -1.4635
  602MOL0     H81257   2.286   8.840   7.261  0.6512  0.5600 -0.4177
  602MOL0     H81258   2.591   8.571   7.419 -1.0841  2.3333  0.2699
  602MOL0     H81259   2.691   8.668   7.308  0.6487  0.4370 -1.1823
  602MOL0     H81260   2.606   8.511   7.118 -1.6876 -2.9622 -0.9702
  602MOL0     H81261   2.513   8.419   7.231 -0.8480 -0.1186  1.5420
  602MOL0     H81262   2.825   8.467   7.260  0.0062 -0.8349  2.6964
  602MOL0     H81263   2.762   8.332   7.163  2.4703 -1.7297  1.8964
  602MOL0     H81264   2.819   8.237   7.375  0.3599  1.1216 -0.6518
  602MOL0     H81265   2.716   8.365   7.453 -2.4292  1.5204 -1.1800
  602MOL0     H81266   2.492   8.036   7.284 -1.8830  0.7953  1.0209
  602MOL0     H81267   2.422   8.489   7.450 -0.3666 -1.7388  0.6853
  602MOL0     H81268   2.154   8.321   7.472  2.2945  0.8598 -1.9593
  602MOL0     H81269   2.273   8.368   7.599  1.6209 -4.1620 -3.0259
  602MOL0     H81270   2.102   8.422   7.604 -0.1196 -2.3569 -0.2196
  603MOL0     O81271   7.355   3.157   9.395  0.0562  0.4529 -0.7178
  603MOL0     C81272   7.278   3.158   9.300  0.3821  0.6352 -1.2308
  603MOL0     O81273   7.148   3.179   9.311  0.2730  0.6138 -0.8105
  603MOL0     C81274   7.081   3.169   9.437 -0.5147  0.0945  0.1102
  603MOL0     C81275   7.134   3.141   9.567 -0.6750 -0.2200 -0.1735
  603MOL0     C81276   7.052   3.131   9.681 -0.0456 -0.2944  0.6002
  603MOL0     C81277   6.921   3.172   9.679  0.5309 -0.2061  0.3005
  603MOL0     O81278   6.847   3.154   9.796 -0.7043 -0.2605 -0.4153
  603MOL0     C81279   6.712   3.195   9.808  0.8177 -0.1867 -0.3947
  603MOL0     C81280   6.709   3.349   9.816 -0.3416  0.0931  1.4001
  603MOL0     C81281   6.574   3.398   9.750  0.1002 -1.0449  1.0428
  603MOL0     C81282   6.583   3.548   9.711 -0.7743  0.8131  0.7640
  603MOL0     C81283   6.441   3.591   9.659 -0.0529  0.1632 -0.4934
  603MOL0     C81284   6.447   3.719   9.581  1.3969  0.5581  0.4220
  603MOL0     C81285   6.488   3.691   9.433  0.4946 -0.5765 -1.0813
  603MOL0     C81286   6.378   3.628   9.333 -0.0951  0.0668 -0.7364
  603MOL0     N81287   6.453   3.551   9.235 -0.3730 -0.8062 -0.5467
  603MOL0     C81288   6.505   3.425   9.262 -0.5214  0.7899 -0.2555
  603MOL0     C81289   6.573   3.392   9.153 -0.3349  1.2272  0.8580
  603MOL0     C81290   6.649   3.271   9.113 -0.1320 -0.1241 -0.7574
  603MOL0     C81291   6.552   3.172   9.047 -0.4805  0.5176 -0.6395
  603MOL0     C81292   6.630   3.086   8.942 -0.0619 -0.2201  0.1436
  603MOL0     C81293   6.711   2.973   8.998 -0.2756  0.1162 -0.3139
  603MOL0     O81294   6.791   2.945   8.891  0.1204 -0.5676 -0.3585
  603MOL0     C81295   6.856   2.827   8.902  0.3653  0.4657 -0.7733
  603MOL0     C81296   6.821   2.731   8.807 -0.2554  0.3287  0.0482
  603MOL0     C81297   6.905   2.614   8.808 -0.2872  0.1872  0.4153
  603MOL0     C81298   6.997   2.584   8.916  0.0656  0.3921  0.2270
  603MOL0     C81299   7.063   2.453   8.925  0.0363  0.5079  0.4301
  603MOL0     O81300   7.029   2.367   8.824  0.4066  0.1131  0.6075
  603MOL0     C81301   7.091   2.250   8.805 -0.2874 -0.0332  0.4837
  603MOL0     C81302   7.020   2.136   8.773 -0.0866  0.1588 -0.3621
  603MOL0     C81303   7.081   2.015   8.751  0.4668  0.3250  0.0233
  603MOL0     C81304   7.219   2.006   8.752 -0.5212 -0.3660 -0.5718
  603MOL0     O81305   7.269   1.879   8.731 -0.7120  0.2665 -0.2432
  603MOL0     C81306   7.408   1.851   8.706 -0.5270  1.4616 -0.0069
  603MOL0     C81307   7.419   1.697   8.673 -1.1851  0.0101  0.3645
  603MOL0     C81308   7.311   1.628   8.597 -0.2850 -0.7050 -0.5218
  603MOL0     C81309   7.195   1.572   8.676  0.3776 -0.4370  0.3905
  603MOL0     C81310   7.218   1.476   8.787  0.4109  0.2389 -0.6513
  603MOL0     C81311   7.097   1.391   8.815 -0.6341 -0.5647  0.7477
  603MOL0     C81312   7.129   1.302   8.945 -0.6323  0.3955  0.2694
  603MOL0     C81313   7.007   1.209   8.964 -0.4877 -0.1071  0.5963
  603MOL0    Cl81314   6.855   1.307   8.993 -0.2118  0.4580 -0.0323
  603MOL0     C81315   7.294   2.122   8.782 -1.0124  0.3826 -0.0703
  603MOL0     C81316   7.228   2.244   8.799 -0.3373 -0.2050 -0.3412
  603MOL0     O81317   7.117   2.417   9.030  0.6431 -0.5081 -0.1665
  603MOL0     C81318   7.023   2.678   9.015 -0.0945 -0.6747  0.0939
  603MOL0     C81319   6.952   2.800   9.008  0.0356  0.2010  0.5514
  603MOL0     N81320   6.570   3.497   9.066  0.0497  0.6090  0.2970
  603MOL0     N81321   6.494   3.592   9.114 -1.0492  0.1954 -0.5823
  603MOL0     C81322   6.868   3.210   9.560  0.4096  0.2950  0.8587
  603MOL0     C81323   6.943   3.200   9.440  0.8596  0.5732 -0.2534
  603MOL0     C81324   7.343   3.155   9.164 -0.4302 -0.7080 -0.5140
  603MOL0     C81325   7.485   3.176   9.160  0.1704  0.4120 -1.0989
  603MOL0     C81326   7.537   3.200   9.035  0.6189  0.6333  0.8293
  603MOL0     C81327   7.468   3.191   8.907  0.1365 -0.2441 -1.2025
  603MOL0     O81328   7.516   3.203   8.783  0.2138 -0.4342  0.7538
  603MOL0     C81329   7.636   3.271   8.759 -1.1415 -0.2228  0.6674
  603MOL0     C81330   7.650   3.282   8.606 -0.4167 -0.0435 -0.6818
  603MOL0     C81331   7.773   3.355   8.552 -0.0957 -0.2517 -0.0342
  603MOL0     C81332   7.907   3.299   8.598 -0.5507  0.5455  0.0532
  603MOL0     C81333   8.012   3.372   8.526 -0.2037  0.2672  0.3770
  603MOL0     C81334   8.105   3.429   8.477 -0.1074 -0.7179 -0.5441
  603MOL0     C81335   7.332   3.165   8.924 -0.2598  0.1479 -0.7318
  603MOL0     C81336   7.267   3.141   9.047 -0.2792 -0.0232 -0.0660
  603MOL0     C81337   7.118   3.103   9.044  0.7336  0.1390 -0.6193
  603MOL0     H81338   7.239   3.123   9.591 -0.9340 -0.8737  0.5355
  603MOL0     H81339   7.098   3.100   9.774  0.2916  0.3693  0.6551
  603MOL0     H81340   6.662   3.154   9.721 -0.2375 -0.2399  0.2243
  603MOL0     H81341   6.659   3.158   9.896  1.7219  0.4181  0.4313
  603MOL0     H81342   6.794   3.390   9.761 -1.2795 -0.4605 -0.5229
  603MOL0     H81343   6.715   3.355   9.925  2.2454 -3.7822  1.6675
  603MOL0     H81344   6.496   3.376   9.824 -0.2545  1.6441  1.5792
  603MOL0     H81345   6.561   3.340   9.659 -0.3793 -0.6736  0.8665
  603MOL0     H81346   6.593   3.616   9.796 -3.1780  2.1147  0.1130
  603MOL0     H81347   6.657   3.571   9.634 -2.6699  1.6783 -0.9014
  603MOL0     H81348   6.395   3.514   9.597  0.3207 -0.7552  0.3557
  603MOL0     H81349   6.385   3.596   9.753  1.4565 -3.6906  0.8152
  603MOL0     H81350   6.353   3.776   9.584 -0.0090 -1.6554  1.7340
  603MOL0     H81351   6.524   3.785   9.621  1.3175  0.3367  0.9550
  603MOL0     H81352   6.581   3.634   9.431  0.6763 -0.6171  2.4343
  603MOL0     H81353   6.514   3.787   9.387 -0.6890 -0.0885 -0.7660
  603MOL0     H81354   6.314   3.561   9.391 -1.9711  2.3754  0.0317
  603MOL0     H81355   6.311   3.703   9.289 -4.6801 -2.2004  1.6621
  603MOL0     H81356   6.490   3.357   9.345 -2.2561 -1.3947 -2.2259
  603MOL0     H81357   6.722   3.302   9.037  1.0751 -1.6692 -0.2652
  603MOL0     H81358   6.700   3.244   9.205 -2.3884  1.8406  1.1985
  603MOL0     H81359   6.507   3.106   9.122  2.4174 -2.8823 -1.5634
  603MOL0     H81360   6.479   3.219   8.980  0.9805 -1.1077 -3.5949
  603MOL0     H81361   6.710   3.145   8.896  2.3213 -2.7679  0.7330
  603MOL0     H81362   6.555   3.045   8.873 -0.3148 -1.2795  1.0138
  603MOL0     H81363   6.639   2.893   9.020 -2.3451  1.0467 -3.1250
  603MOL0     H81364   6.778   3.004   9.078 -0.1676 -0.2987 -0.2378
  603MOL0     H81365   6.757   2.756   8.724 -0.2085  0.1554 -0.0409
  603MOL0     H81366   6.893   2.540   8.730  3.0616 -1.0580  0.9167
  603MOL0     H81367   6.911   2.141   8.770 -0.3734  4.6564  3.8831
  603MOL0     H81368   7.018   1.927   8.738  1.2971 -0.5211  1.4674
  603MOL0     H81369   7.425   1.901   8.610 -1.8654 -0.7448 -1.4830
  603MOL0     H81370   7.478   1.886   8.782  0.4738 -0.2836 -0.0917
  603MOL0     H81371   7.518   1.678   8.630 -2.0828  0.0372 -1.8169
  603MOL0     H81372   7.420   1.651   8.773  4.7210 -1.1563  0.1290
  603MOL0     H81373   7.288   1.694   8.513 -2.7423 -1.3710 -0.4441
  603MOL0     H81374   7.349   1.547   8.533  2.6015  0.9255 -1.0407
  603MOL0     H81375   7.120   1.523   8.613  1.7459 -0.7057 -1.0946
  603MOL0     H81376   7.147   1.661   8.719  2.8027  1.4850 -0.6078
  603MOL0     H81377   7.241   1.524   8.883 -2.2216  1.7786 -0.7025
  603MOL0     H81378   7.301   1.410   8.761 -0.6364 -1.1680 -0.4914
  603MOL0     H81379   7.020   1.467   8.830  1.0923  1.2002  1.1283
  603MOL0     H81380   7.065   1.331   8.730  2.2175  0.2521 -1.0610
  603MOL0     H81381   7.148   1.357   9.038 -0.6293 -1.2068  1.2433
  603MOL0     H81382   7.223   1.249   8.927 -1.6903 -0.7238 -2.3228
  603MOL0     H81383   6.996   1.134   8.885 -2.5695  1.5735 -0.8181
  603MOL0     H81384   7.026   1.147   9.052  1.4780 -3.0612 -1.6644
  603MOL0     H81385   7.402   2.129   8.775 -0.9880 -0.8627 -1.5154
  603MOL0     H81386   7.278   2.340   8.804 -3.8985  1.7849  3.3855
  603MOL0     H81387   7.080   2.646   9.101 -2.2939 -2.5147  0.9669
  603MOL0     H81388   6.964   2.875   9.086  1.3845  0.0932  0.4636
  603MOL0     H81389   6.769   3.254   9.559  0.8311  1.2642  0.5070
  603MOL0     H81390   6.894   3.228   9.347  0.8786  1.4934  0.0097
  603MOL0     H81391   7.544   3.182   9.250 -1.6600  4.3013  0.0817
  603MOL0     H81392   7.645   3.211   9.039  0.7375 -0.3257  0.4426
  603MOL0     H81393   7.727   3.229   8.803  0.4231  0.6317 -1.5746
  603MOL0     H81394   7.631   3.372   8.799  2.8949  0.2263  0.4851
  603MOL0     H81395   7.575   3.351   8.567  0.3294  2.5485  2.0755
  603MOL0     H81396   7.661   3.182   8.565  2.0790 -1.2125  2.4075
  603MOL0     H81397   7.773   3.462   8.577 -0.5896 -0.2550 -0.0267
  603MOL0     H81398   7.772   3.335   8.444 -1.9527 -2.0975  0.2703
  603MOL0     H81399   7.923   3.321   8.704 -2.3142  1.4282  0.1695
  603MOL0     H81400   7.911   3.191   8.585 -0.4026  0.4217  1.0216
  603MOL0     H81401   8.194   3.476   8.441  1.0703 -1.3973  1.3090
  603MOL0     H81402   7.267   3.146   8.839 -1.2054 -0.3854  0.0934
  603MOL0     H81403   7.096   3.044   8.954  1.6253 -0.5651 -0.3981
  603MOL0     H81404   7.079   3.047   9.129  2.7642  2.7246  2.2627
  603MOL0     H81405   7.050   3.186   9.023  1.0869 -0.3151 -4.3141
  604MOL0     O81406   5.613   1.873   1.554 -0.1774  0.4119  0.2789
  604MOL0     C81407   5.528   1.923   1.631 -0.6907  0.0245 -0.7206
  604MOL0     O81408   5.556   1.975   1.758  0.4320 -0.0209 -0.9207
  604MOL0     C81409   5.685   2.012   1.782 -0.2829  0.0729 -0.1841
  604MOL0     C81410   5.718   2.146   1.812  0.4528  0.6914  0.2057
  604MOL0     C81411   5.854   2.192   1.825 -0.6497  0.7239  0.2852
  604MOL0     C81412   5.952   2.091   1.820 -0.2252 -0.0396  0.0459
  604MOL0     O81413   6.085   2.127   1.842 -0.2666  0.1776 -0.1467
  604MOL0     C81414   6.189   2.043   1.807 -0.0014  0.4030  0.2313
  604MOL0     C81415   6.328   2.083   1.856 -0.5393  0.3178 -0.5386
  604MOL0     C81416   6.427   1.989   1.793 -0.0345  0.3799 -0.7061
  604MOL0     C81417   6.565   2.042   1.839  0.0629  0.6228 -0.2140
  604MOL0     C81418   6.679   1.983   1.758  0.1769 -0.2282 -0.4745
  604MOL0     C81419   6.652   1.848   1.681 -0.5859  0.1357  0.1233
  604MOL0     C81420   6.761   1.823   1.583 -0.0134 -0.4525  0.6810
  604MOL0     C81421   6.752   1.678   1.545 -0.4975 -0.2347  0.9138
  604MOL0     N81422   6.624   1.647   1.475  0.3578  0.1711  0.7810
  604MOL0     C81423   6.594   1.693   1.349 -0.3690 -0.1594  0.8672
  604MOL0     C81424   6.463   1.687   1.332  0.1200 -0.2152 -0.0953
  604MOL0     C81425   6.390   1.757   1.226  0.2705 -0.4144 -0.2980
  604MOL0     C81426   6.276   1.842   1.282 -0.3614  0.4074  0.9238
  604MOL0     C81427   6.288   1.944   1.394 -0.2924  1.4023  0.5018
  604MOL0     C81428   6.223   2.070   1.365  0.1610 -0.3610  0.3633
  604MOL0     O81429   6.084   2.038   1.347  0.3477  0.7823  0.0146
  604MOL0     C81430   5.983   2.120   1.404 -1.0061  0.4868 -0.1507
  604MOL0     C81431   5.858   2.075   1.384 -0.5229 -0.2584 -0.0593
  604MOL0     C81432   5.749   2.137   1.445  0.2807 -0.6793  0.1432
  604MOL0     C81433   5.753   2.273   1.500 -0.7698 -0.6754 -0.1594
  604MOL0     C81434   5.635   2.350   1.538 -0.1167 -0.0779 -0.5189
  604MOL0     O81435   5.510   2.292   1.512  0.2363  0.4282  0.5115
  604MOL0     C81436   5.390   2.365   1.522  0.3601  0.4575 -0.3313
  604MOL0     C81437   5.273   2.283   1.522  0.5392 -0.0765  1.7873
  604MOL0     C81438   5.142   2.335   1.533 -0.3611 -0.1885  0.6069
  604MOL0     C81439   5.120   2.469   1.545 -0.6726 -0.0004  0.3878
  604MOL0     O81440   4.991   2.514   1.536 -0.6939  0.6962 -0.0862
  604MOL0     C81441   4.960   2.649   1.531 -0.8740 -0.1811  0.0223
  604MOL0     C81442   4.945   2.682   1.683  1.1046 -0.3486  0.3978
  604MOL0     C81443   4.889   2.830   1.712  0.4930 -0.5473  0.9455
  604MOL0     C81444   4.730   2.834   1.693  0.0457 -0.3100  1.0602
  604MOL0     C81445   4.674   2.954   1.757 -0.0471  0.4093 -0.1675
  604MOL0     C81446   4.525   2.977   1.712  0.7187  0.7475 -1.2191
  604MOL0     C81447   4.438   2.889   1.804 -0.5016 -0.5323 -0.5030
  604MOL0     C81448   4.285   2.925   1.798  0.1436 -0.5635 -0.4313
  604MOL0    Cl81449   4.229   2.864   1.640 -0.1410  0.4916 -0.1768
  604MOL0     C81450   5.233   2.550   1.563 -0.1149  0.9731  0.0438
  604MOL0     C81451   5.367   2.502   1.554  0.0765  0.5644  0.0090
  604MOL0     O81452   5.657   2.461   1.584  0.1870 -0.3002  0.4475
  604MOL0     C81453   5.896   2.329   1.514  1.6588 -0.0079 -0.4982
  604MOL0     C81454   6.004   2.243   1.470 -0.3513 -0.2263 -0.3069
  604MOL0     N81455   6.413   1.633   1.447 -0.4202 -0.0927 -0.0604
  604MOL0     N81456   6.509   1.605   1.532 -0.0848 -0.4048  0.0619
  604MOL0     C81457   5.916   1.954   1.817  0.3667  0.4075  0.3484
  604MOL0     C81458   5.783   1.911   1.790  0.0636 -0.5126  0.3648
  604MOL0     C81459   5.386   1.900   1.600 -0.1290  0.6370 -0.1729
  604MOL0     C81460   5.352   1.815   1.497  0.1549  0.0246  0.2659
  604MOL0     C81461   5.224   1.807   1.446  0.5961  0.2903 -0.0214
  604MOL0     C81462   5.122   1.885   1.498  0.1985  1.0177  0.2779
  604MOL0     O81463   5.009   1.888   1.437  0.3459 -0.4908  0.4996
  604MOL0     C81464   4.908   1.785   1.460 -0.6471 -0.0208  0.5706
  604MOL0     C81465   4.784   1.819   1.380 -0.6108  0.4256  0.2064
  604MOL0     C81466   4.726   1.955   1.430 -0.3433 -0.1200  0.4531
  604MOL0     C81467   4.606   2.016   1.349  0.7459  0.2815  0.2983
  604MOL0     C81468   4.626   1.986   1.210 -0.5746  0.4378 -0.1904
  604MOL0     C81469   4.634   1.980   1.090 -0.5146 -0.2201  0.0162
  604MOL0     C81470   5.145   1.952   1.614  0.3825 -0.1936 -0.0545
  604MOL0     C81471   5.278   1.971   1.661  0.4894  0.8076  0.5849
  604MOL0     C81472   5.294   2.067   1.766  0.0369 -0.6952 -0.0912
  604MOL0     H81473   5.647   2.227   1.823  1.5895  1.4554  2.6998
  604MOL0     H81474   5.884   2.296   1.825  0.2461  0.5847 -3.1360
  604MOL0     H81475   6.172   1.945   1.851  1.1741 -1.1316 -2.4734
  604MOL0     H81476   6.191   2.031   1.698 -1.0571 -1.8883  0.4118
  604MOL0     H81477   6.337   2.067   1.964  1.0177 -1.4553 -0.8831
  604MOL0     H81478   6.343   2.188   1.831 -2.6224  0.5681 -0.9372
  604MOL0     H81479   6.425   1.977   1.684 -0.7729  1.3344 -0.8030
  604MOL0     H81480   6.406   1.889   1.833 -1.1568  1.4649  1.5977
  604MOL0     H81481   6.581   2.150   1.827 -1.5466  0.9894  0.7222
  604MOL0     H81482   6.574   2.008   1.942 -0.0803  1.0977 -0.0421
  604MOL0     H81483   6.697   2.057   1.679 -2.6344  0.4110 -0.6312
  604MOL0     H81484   6.764   1.964   1.824  1.0285 -0.1551 -1.5198
  604MOL0     H81485   6.654   1.773   1.761  1.8040  1.2754  1.2317
  604MOL0     H81486   6.560   1.847   1.622 -0.3615 -1.1533 -0.2411
  604MOL0     H81487   6.852   1.852   1.636  0.4608 -0.4828 -0.1139
  604MOL0     H81488   6.745   1.894   1.501 -0.7901  0.8805  1.9314
  604MOL0     H81489   6.827   1.651   1.470 -1.4678  1.4450 -0.7743
  604MOL0     H81490   6.762   1.625   1.640 -1.5929  1.3553  1.9626
  604MOL0     H81491   6.671   1.730   1.282  0.4724 -3.6078 -0.2764
  604MOL0     H81492   6.453   1.826   1.168 -0.4139 -1.0300 -1.8464
  604MOL0     H81493   6.343   1.689   1.154 -3.1324 -0.5142  1.8416
  604MOL0     H81494   6.226   1.889   1.197  1.9648  3.3915  1.0310
  604MOL0     H81495   6.198   1.771   1.311  0.8256 -2.0280 -1.4416
  604MOL0     H81496   6.396   1.953   1.409 -0.0637 -2.2646  2.1543
  604MOL0     H81497   6.254   1.910   1.492 -0.2812  0.1778  0.1018
  604MOL0     H81498   6.249   2.127   1.275 -0.3202  0.3602  0.6693
  604MOL0     H81499   6.248   2.127   1.456 -1.2276  0.7793  0.0564
  604MOL0     H81500   5.844   1.982   1.329  3.2195  0.8287 -3.3134
  604MOL0     H81501   5.650   2.095   1.436  0.4050 -0.6682 -1.6981
  604MOL0     H81502   5.283   2.176   1.504 -2.4339 -0.0333 -1.3179
  604MOL0     H81503   5.056   2.270   1.535 -0.4689 -0.0654  2.6954
  604MOL0     H81504   5.042   2.702   1.482 -1.7680  2.0566  0.8102
  604MOL0     H81505   4.870   2.683   1.479 -1.6804  0.0795  1.4998
  604MOL0     H81506   4.876   2.613   1.732 -0.5163  2.4606  2.4142
  604MOL0     H81507   5.044   2.676   1.729  1.3175 -1.2588 -0.1701
  604MOL0     H81508   4.917   2.853   1.815  1.2385 -0.8338  0.8131
  604MOL0     H81509   4.941   2.906   1.653 -0.0294  1.0953  2.5157
  604MOL0     H81510   4.684   2.744   1.733 -0.0808 -2.0439 -2.6350
  604MOL0     H81511   4.706   2.839   1.587 -2.4347  1.0240  1.5994
  604MOL0     H81512   4.723   3.042   1.714  3.2603  0.7487  3.7324
  604MOL0     H81513   4.698   2.955   1.864 -0.3458 -4.8334  0.2037
  604MOL0     H81514   4.501   3.083   1.727  2.1600  0.8654  0.6224
  604MOL0     H81515   4.506   2.954   1.607 -0.7132 -3.0367 -0.3099
  604MOL0     H81516   4.479   2.909   1.904  1.7090  2.1416 -1.7864
  604MOL0     H81517   4.446   2.783   1.779 -0.4880 -1.3893  2.7221
  604MOL0     H81518   4.228   2.877   1.878 -0.2111  0.4699 -0.0471
  604MOL0     H81519   4.253   3.029   1.795 -0.1792 -0.6666 -0.6184
  604MOL0     H81520   5.218   2.655   1.587 -2.4927  0.9562 -1.0522
  604MOL0     H81521   5.451   2.564   1.584  0.0944  0.1788  0.7863
  604MOL0     H81522   5.897   2.429   1.556  2.0638  0.5157 -1.7104
  604MOL0     H81523   6.102   2.288   1.466  0.7988 -2.3056  1.8490
  604MOL0     H81524   5.985   1.870   1.819 -0.1004 -0.0087 -0.2351
  604MOL0     H81525   5.750   1.807   1.787 -1.1734 -0.1460  0.7378
  604MOL0     H81526   5.425   1.745   1.459  0.1661  1.5863 -2.8879
  604MOL0     H81527   5.209   1.745   1.358 -1.9360 -2.5136  2.1514
  604MOL0     H81528   4.885   1.780   1.567 -0.2574  0.5581  0.6899
  604MOL0     H81529   4.952   1.688   1.435  2.0041  0.5093  2.6860
  604MOL0     H81530   4.701   1.748   1.392 -1.1632  0.7827 -1.2471
  604MOL0     H81531   4.812   1.817   1.274 -2.5799  0.9831 -0.3699
  604MOL0     H81532   4.805   2.030   1.440  0.6444 -0.9240 -1.0417
  604MOL0     H81533   4.694   1.925   1.530 -0.6215 -0.2798  0.3178
  604MOL0     H81534   4.509   1.970   1.372  0.4779  0.6589 -0.0455
  604MOL0     H81535   4.609   2.124   1.366  2.1781  0.4257 -0.7115
  604MOL0     H81536   4.636   1.989   0.984 -1.7811 -1.9975 -0.2049
  604MOL0     H81537   5.053   1.997   1.651  1.0508  1.7907 -0.6753
  604MOL0     H81538   5.385   2.126   1.753  2.3344 -3.4629  2.1597
  604MOL0     H81539   5.203   2.122   1.791  0.8188 -0.0029  1.3163
  604MOL0     H81540   5.303   2.013   1.860  1.3195  0.1565  0.2945
  605MOL0     O81541   6.834   9.392   4.347  0.5246  0.2683 -0.0577
  605MOL0     C81542   6.854   9.287   4.288 -0.8672  0.4057  0.3263
  605MOL0     O81543   6.945   9.190   4.330 -0.0706 -0.0543 -0.2230
  605MOL0     C81544   7.070   9.212   4.352 -0.6754  0.2292 -0.4310
  605MOL0     C81545   7.141   9.322   4.302  1.0007 -0.1814 -0.4090
  605MOL0     C81546   7.281   9.333   4.315 -0.8854  1.3163  0.4404
  605MOL0     C81547   7.346   9.231   4.390 -0.2829 -0.9890  0.0615
  605MOL0     O81548   7.487   9.243   4.409  0.0814  0.5740  0.1703
  605MOL0     C81549   7.560   9.127   4.439 -0.4975  0.2933  0.7483
  605MOL0     C81550   7.577   9.114   4.595  0.5633 -0.8536  0.2907
  605MOL0     C81551   7.705   9.030   4.624  0.2698  0.1195  1.0252
  605MOL0     C81552   7.696   8.873   4.598  0.8854 -0.4953  0.4947
  605MOL0     C81553   7.835   8.803   4.591  0.0248 -0.1927  0.4768
  605MOL0     C81554   7.803   8.655   4.563  0.3183  0.6207 -0.0319
  605MOL0     C81555   7.725   8.608   4.447  0.4510  0.0671 -0.0258
  605MOL0     C81556   7.736   8.456   4.440  0.4840  0.3817 -0.2347
  605MOL0     N81557   7.648   8.401   4.338 -0.7589  0.2169 -0.4452
  605MOL0     C81558   7.648   8.267   4.289  0.0199 -0.2761 -0.9927
  605MOL0     C81559   7.539   8.265   4.207  0.7033 -0.1462 -0.6206
  605MOL0     C81560   7.480   8.135   4.148 -0.1048 -0.1398 -0.3132
  605MOL0     C81561   7.328   8.137   4.115  0.9281  0.3441  0.3770
  605MOL0     C81562   7.300   8.012   4.032 -0.1632 -0.1712  0.1551
  605MOL0     C81563   7.146   7.990   4.043 -0.1838 -0.4606  0.1645
  605MOL0     O81564   7.122   7.871   3.967  0.5541 -0.7728 -0.2450
  605MOL0     C81565   6.994   7.839   3.937  0.1887  0.8489  1.0564
  605MOL0     C81566   6.882   7.905   3.982 -0.2635  0.2364  0.2354
  605MOL0     C81567   6.761   7.854   3.930  0.4981  0.6068 -0.0231
  605MOL0     C81568   6.753   7.749   3.833  0.8829 -0.9434  0.9769
  605MOL0     C81569   6.620   7.695   3.775 -0.0560  0.3205  0.6225
  605MOL0     O81570   6.623   7.570   3.709 -0.7719 -0.6469 -0.1928
  605MOL0     C81571   6.503   7.533   3.643  0.9448  0.5553  0.2876
  605MOL0     C81572   6.463   7.593   3.520 -0.5493 -0.0575  0.2305
  605MOL0     C81573   6.339   7.559   3.455  0.0299  0.2162  0.1284
  605MOL0     C81574   6.247   7.463   3.520  0.0507  0.0565 -0.3104
  605MOL0     O81575   6.129   7.426   3.463 -0.1208 -0.8429  0.2766
  605MOL0     C81576   6.044   7.535   3.437  0.4451  1.0995  0.5316
  605MOL0     C81577   5.895   7.499   3.480 -0.4124  0.9877 -0.0704
  605MOL0     C81578   5.869   7.452   3.628  0.3571 -0.3427 -0.5492
  605MOL0     C81579   5.724   7.399   3.646  1.0720  0.0081  0.1143
  605MOL0     C81580   5.689   7.332   3.782 -0.0657 -0.9674  0.7954
  605MOL0     C81581   5.697   7.431   3.897 -0.1137  0.2637 -0.2860
  605MOL0     C81582   5.615   7.390   4.025 -1.1341  0.2110  0.3511
  605MOL0     C81583   5.651   7.485   4.140 -0.0786  0.4031 -0.4673
  605MOL0    Cl81584   5.819   7.455   4.207  0.0089 -0.0485  0.0664
  605MOL0     C81585   6.291   7.408   3.639  0.4680  0.2907 -0.2718
  605MOL0     C81586   6.415   7.440   3.691 -0.1559  1.7624  0.1336
  605MOL0     O81587   6.517   7.757   3.802 -0.0167  0.2067  0.1293
  605MOL0     C81588   6.876   7.693   3.799  1.3689  0.9149 -0.6406
  605MOL0     C81589   6.993   7.729   3.855 -0.1488 -0.1916 -0.5941
  605MOL0     N81590   7.474   8.390   4.209 -0.3441 -0.4064  0.0586
  605MOL0     N81591   7.534   8.462   4.292 -0.5753  0.1487 -0.2333
  605MOL0     C81592   7.271   9.125   4.444  0.3706 -0.1595  0.5341
  605MOL0     C81593   7.134   9.110   4.413 -0.1780 -0.0147 -1.0874
  605MOL0     C81594   6.761   9.252   4.180  0.0202  0.5532 -0.5001
  605MOL0     C81595   6.785   9.143   4.104  0.3178  0.2663  0.2355
  605MOL0     C81596   6.695   9.101   3.997 -0.5262  0.2748 -0.3515
  605MOL0     C81597   6.576   9.173   3.970 -0.3325 -0.5562  0.4222
  605MOL0     O81598   6.500   9.126   3.866 -0.1043 -0.0358 -0.0250
  605MOL0     C81599   6.496   9.187   3.737  0.2051  0.2667  0.0031
  605MOL0     C81600   6.362   9.145   3.676 -0.1429  0.6628 -0.0812
  605MOL0     C81601   6.246   9.217   3.748  0.0783 -0.3939  0.1701
  605MOL0     C81602   6.120   9.227   3.666 -0.1895 -0.1170  0.3271
  605MOL0     C81603   6.057   9.094   3.631 -0.5411 -0.3563  0.2096
  605MOL0     C81604   5.990   8.996   3.604 -0.1670  0.6718 -0.1494
  605MOL0     C81605   6.555   9.290   4.042 -0.8463 -0.2883  0.4806
  605MOL0     C81606   6.644   9.332   4.150  0.6324 -0.2449  0.4353
  605MOL0     C81607   6.594   9.454   4.224 -0.5073 -0.5521  0.2919
  605MOL0     H81608   7.087   9.407   4.261  0.8056  0.0265  0.2737
  605MOL0     H81609   7.341   9.416   4.277  1.7023 -1.6043 -2.4869
  605MOL0     H81610   7.511   9.044   4.388  0.3850 -0.9413  1.8435
  605MOL0     H81611   7.666   9.135   4.410 -0.0705 -0.9004  1.8805
  605MOL0     H81612   7.494   9.072   4.654  1.0171 -0.2925  1.3671
  605MOL0     H81613   7.592   9.219   4.621 -0.4041  0.7804 -4.7157
  605MOL0     H81614   7.742   9.031   4.727  0.0663 -2.5610  1.2167
  605MOL0     H81615   7.788   9.077   4.571  0.7430 -1.0673  0.6749
  605MOL0     H81616   7.632   8.811   4.662  2.9516 -3.8171 -0.4298
  605MOL0     H81617   7.639   8.850   4.508 -0.0711 -2.0501  1.4355
  605MOL0     H81618   7.888   8.845   4.506 -1.9431 -0.8922 -1.1710
  605MOL0     H81619   7.900   8.813   4.678  2.5060 -1.3906 -1.1339
  605MOL0     H81620   7.900   8.604   4.558  0.7982  1.1241  2.6472
  605MOL0     H81621   7.770   8.596   4.649  4.6692 -2.0652  0.0969
  605MOL0     H81622   7.755   8.655   4.353 -0.3823 -1.4986 -1.1355
  605MOL0     H81623   7.622   8.645   4.451  1.1102  1.9917 -0.2931
  605MOL0     H81624   7.839   8.424   4.420 -0.0792 -0.9256 -1.1784
  605MOL0     H81625   7.695   8.416   4.533 -1.1691  1.1418 -0.5969
  605MOL0     H81626   7.704   8.179   4.319 -1.7019 -1.6185 -1.5485
  605MOL0     H81627   7.533   8.119   4.054 -0.7230 -0.5118 -0.6076
  605MOL0     H81628   7.500   8.051   4.215 -1.8883 -2.0451 -2.0137
  605MOL0     H81629   7.271   8.139   4.208 -1.2757 -0.3409 -0.8632
  605MOL0     H81630   7.299   8.227   4.060 -2.5224 -0.5743  0.4327
  605MOL0     H81631   7.346   7.924   4.078  0.1250  0.0641  0.3190
  605MOL0     H81632   7.322   8.027   3.926 -0.6837  1.1597  0.2031
  605MOL0     H81633   7.092   8.077   4.004 -0.5226 -1.8641 -2.7733
  605MOL0     H81634   7.105   7.978   4.144 -0.1408  0.4341  0.2914
  605MOL0     H81635   6.882   7.987   4.052 -0.6959  0.0108  0.5017
  605MOL0     H81636   6.675   7.901   3.978  1.2809  3.1125 -0.9349
  605MOL0     H81637   6.510   7.664   3.454 -0.9734  0.3314  0.3398
  605MOL0     H81638   6.314   7.600   3.357 -0.3101 -1.2041 -0.4001
  605MOL0     H81639   6.078   7.625   3.488  0.0199  1.2607  0.5292
  605MOL0     H81640   6.040   7.564   3.332  1.1713 -1.0187 -0.1424
  605MOL0     H81641   5.830   7.585   3.459 -0.2973  0.5451 -2.5598
  605MOL0     H81642   5.851   7.431   3.406 -0.7961  1.0959  0.0574
  605MOL0     H81643   5.940   7.375   3.660  1.1148  1.4026  2.3428
  605MOL0     H81644   5.899   7.530   3.698  0.4984 -2.0668  1.4202
  605MOL0     H81645   5.711   7.320   3.572  1.2769  0.7908 -0.7724
  605MOL0     H81646   5.664   7.490   3.643  0.7352 -0.2319 -2.2449
  605MOL0     H81647   5.758   7.252   3.811 -1.4801 -2.1327  1.0748
  605MOL0     H81648   5.586   7.294   3.783 -0.1061 -0.8901  0.0037
  605MOL0     H81649   5.800   7.458   3.918  0.1643 -0.7958 -0.2036
  605MOL0     H81650   5.643   7.519   3.862 -2.8143 -2.1623 -2.8111
  605MOL0     H81651   5.637   7.287   4.054 -0.0690  0.8247  1.8993
  605MOL0     H81652   5.508   7.396   4.003 -1.5022  1.0148  2.1573
  605MOL0     H81653   5.642   7.590   4.112  0.6854  0.7067  0.3545
  605MOL0     H81654   5.578   7.479   4.221  2.9256 -0.0565  2.4403
  605MOL0     H81655   6.215   7.359   3.700  0.2081  3.0395  1.7781
  605MOL0     H81656   6.440   7.396   3.787  2.7944  1.0993 -0.8151
  605MOL0     H81657   6.890   7.617   3.723  0.9800  0.1231  0.0446
  605MOL0     H81658   7.083   7.671   3.838 -0.6618 -2.9209  4.0614
  605MOL0     H81659   7.323   9.046   4.497  3.9590  0.7129 -1.3688
  605MOL0     H81660   7.070   9.028   4.444 -0.2805  0.4637  0.0393
  605MOL0     H81661   6.883   9.097   4.105  2.8567  4.4044 -5.0817
  605MOL0     H81662   6.719   9.013   3.938 -0.3045  0.3315 -0.3480
  605MOL0     H81663   6.577   9.144   3.679 -0.3270 -2.2502  0.9907
  605MOL0     H81664   6.495   9.297   3.739  2.1299  0.3565 -1.2809
  605MOL0     H81665   6.343   9.038   3.685  0.3757  0.6899  1.8129
  605MOL0     H81666   6.369   9.167   3.569  0.3460 -2.8304 -0.8660
  605MOL0     H81667   6.270   9.324   3.758 -0.7432 -0.0982 -0.8017
  605MOL0     H81668   6.225   9.179   3.848 -2.8598 -2.3449 -1.0689
  605MOL0     H81669   6.043   9.277   3.725 -1.3674 -1.5528  0.0552
  605MOL0     H81670   6.133   9.287   3.575  1.2453  2.0939  1.9044
  605MOL0     H81671   5.935   8.914   3.562 -2.3199  1.2355  1.3857
  605MOL0     H81672   6.479   9.358   4.003 -0.5860  0.5606  1.3967
  605MOL0     H81673   6.671   9.531   4.240 -0.9507  0.3938 -1.7394
  605MOL0     H81674   6.525   9.517   4.166  3.6082  1.3983 -3.1430
  605MOL0     H81675   6.553   9.430   4.322  2.4899  0.3026  1.8670
  606MOL0     O81676   3.592  10.857   6.407  0.2285  0.2869 -0.6156
  606MOL0     C81677   3.550  10.844   6.517  0.1770 -0.3613 -0.8220
  606MOL0     O81678   3.418  10.836   6.556 -0.6990 -0.0876 -0.2459
  606MOL0     C81679   3.342  10.772   6.462 -0.3152 -0.3221 -0.3059
  606MOL0     C81680   3.265  10.852   6.372  0.0875  0.4196  0.2133
  606MOL0     C81681   3.188  10.791   6.279  0.2359  0.7996  0.3878
  606MOL0     C81682   3.176  10.653   6.275  0.0591  0.0359 -0.5622
  606MOL0     O81683   3.084  10.586   6.196  0.8531 -0.1946  0.7361
  606MOL0     C81684   3.147  10.528   6.082  0.4096 -0.1478 -0.8274
  606MOL0     C81685   3.060  10.563   5.961  0.0324  0.3033  0.2994
  606MOL0     C81686   3.129  10.502   5.840 -0.3529 -0.5659  0.2167
  606MOL0     C81687   3.060  10.554   5.717  0.0868 -0.6300 -0.0387
  606MOL0     C81688   3.114  10.489   5.587  0.3560  0.1970  0.6627
  606MOL0     C81689   3.031  10.510   5.458 -0.1677  0.2332 -0.3506
  606MOL0     C81690   2.946  10.636   5.453 -0.7177  0.5898 -1.2643
  606MOL0     C81691   2.886  10.662   5.304 -0.6101 -1.0371 -0.9336
  606MOL0     N81692   2.859  10.804   5.292 -0.9023  0.1986 -0.5294
  606MOL0     C81693   2.932  10.875   5.198  0.4310  0.1941 -0.0384
  606MOL0     C81694   2.910  11.002   5.232 -0.1185 -0.7596  0.5107
  606MOL0     C81695   2.973  11.128   5.163  0.0734  0.5852 -0.6522
  606MOL0     C81696   2.975  11.113   5.004  0.3963 -0.0409 -0.0457
  606MOL0     C81697   3.017  11.245   4.939 -0.9373  0.0430 -0.1548
  606MOL0     C81698   2.960  11.264   4.795 -0.6458  0.3167 -0.3045
  606MOL0     O81699   3.047  11.212   4.697 -0.1318  0.3970  0.1180
  606MOL0     C81700   3.023  11.247   4.562  0.1057 -0.6198 -0.2218
  606MOL0     C81701   2.905  11.318   4.525  0.1003 -0.8575  0.1751
  606MOL0     C81702   2.895  11.369   4.383 -0.9171 -0.0186 -0.2813
  606MOL0     C81703   2.996  11.329   4.295  0.0648  0.5627  0.7088
  606MOL0     C81704   2.977  11.358   4.152 -0.6632 -0.2762  0.7876
  606MOL0     O81705   3.078  11.313   4.069  1.1134  0.0749  0.1575
  606MOL0     C81706   3.044  11.324   3.933 -0.5744  1.0312 -0.5445
  606MOL0     C81707   2.994  11.214   3.862  0.4965 -0.2791 -0.3856
  606MOL0     C81708   2.973  11.213   3.726  0.5072  0.5610  0.6151
  606MOL0     C81709   3.008  11.327   3.648  0.3995 -0.0301 -0.3944
  606MOL0     O81710   2.992  11.329   3.510 -0.2246  0.0353  0.7797
  606MOL0     C81711   3.105  11.258   3.447 -0.9651  0.4425 -1.2376
  606MOL0     C81712   3.227  11.351   3.447  0.2222 -0.3550  0.5926
  606MOL0     C81713   3.208  11.458   3.340 -0.2592 -1.5749  0.3936
  606MOL0     C81714   3.346  11.532   3.332  0.1728  0.0022 -0.3748
  606MOL0     C81715   3.344  11.651   3.235 -0.6757  0.2940  0.1406
  606MOL0     C81716   3.484  11.676   3.172 -0.1293  0.5860  0.4983
  606MOL0     C81717   3.484  11.786   3.067 -0.2339  0.7476 -0.2296
  606MOL0     C81718   3.619  11.851   3.044 -0.0676 -0.0518 -0.3573
  606MOL0    Cl81719   3.760  11.721   3.041 -0.0999  0.1196  0.1931
  606MOL0     C81720   3.052  11.439   3.717  0.7169  0.0753 -0.7308
  606MOL0     C81721   3.082  11.439   3.857  0.4446 -0.3869 -0.5347
  606MOL0     O81722   2.881  11.420   4.114  0.5125  0.2849 -0.3422
  606MOL0     C81723   3.104  11.250   4.336 -0.1935  0.1341  0.6234
  606MOL0     C81724   3.116  11.219   4.467 -0.6893 -0.0280 -0.0245
  606MOL0     N81725   2.821  11.005   5.341 -0.4492 -0.0454 -0.5957
  606MOL0     N81726   2.785  10.885   5.376  0.0853 -0.5083  1.1384
  606MOL0     C81727   3.258  10.576   6.365  0.4138 -0.2258 -0.5300
  606MOL0     C81728   3.338  10.635   6.459 -0.2170  0.7108 -0.2517
  606MOL0     C81729   3.640  10.814   6.622 -0.1707  0.2944 -0.1813
  606MOL0     C81730   3.605  10.732   6.727  0.3469  0.0467 -0.4016
  606MOL0     C81731   3.682  10.661   6.818 -0.6596 -0.3451  0.6370
  606MOL0     C81732   3.814  10.681   6.807 -0.0176  0.6838 -0.8204
  606MOL0     O81733   3.905  10.642   6.906 -0.9373  0.0971  1.0844
  606MOL0     C81734   3.938  10.501   6.913  0.6025 -0.3581  0.2132
  606MOL0     C81735   4.078  10.483   6.968 -0.5025  0.0866  0.3494
  606MOL0     C81736   4.094  10.536   7.115  0.6411 -0.2321  0.0236
  606MOL0     C81737   4.215  10.484   7.191 -0.7719 -0.3997 -0.4117
  606MOL0     C81738   4.335  10.544   7.136  0.2732 -0.0539 -0.6352
  606MOL0     C81739   4.435  10.584   7.073  0.4212 -0.1424  0.1566
  606MOL0     C81740   3.869  10.772   6.710 -0.1390  0.0287 -0.5925
  606MOL0     C81741   3.783  10.847   6.624  0.1135  0.4714 -0.3946
  606MOL0     C81742   3.851  10.945   6.533 -0.3558  0.2561  0.0549
  606MOL0     H81743   3.270  10.960   6.384 -1.6610  0.5634 -0.1559
  606MOL0     H81744   3.128  10.853   6.212  0.4315  0.0760 -0.4727
  606MOL0     H81745   3.250  10.565   6.072 -0.2776  2.0781 -0.2543
  606MOL0     H81746   3.145  10.419   6.089  2.7881 -0.1777  0.2916
  606MOL0     H81747   3.054  10.671   5.946 -2.3177  0.4139  1.5369
  606MOL0     H81748   2.955  10.530   5.963 -0.6024  1.3967 -3.9549
  606MOL0     H81749   3.110  10.394   5.844 -0.5951 -0.4890  1.7644
  606MOL0     H81750   3.235  10.528   5.840 -0.6521  0.7844  0.9880
  606MOL0     H81751   2.953  10.530   5.723 -0.6499  1.7438 -1.9452
  606MOL0     H81752   3.066  10.662   5.731  1.7876 -0.7789  0.5883
  606MOL0     H81753   3.214  10.532   5.579 -0.5098  2.0380 -0.9104
  606MOL0     H81754   3.121  10.379   5.586 -1.9396 -0.0222 -1.4545
  606MOL0     H81755   3.108  10.522   5.382 -0.7208 -0.3973 -1.0342
  606MOL0     H81756   2.970  10.423   5.430 -0.8497  0.7728 -0.5814
  606MOL0     H81757   3.012  10.718   5.482 -1.5091  0.6075  0.5785
  606MOL0     H81758   2.868  10.629   5.529  1.7577  3.0030  1.7599
  606MOL0     H81759   2.962  10.636   5.229 -1.8142 -2.6360 -1.6613
  606MOL0     H81760   2.794  10.607   5.284 -1.0492 -0.8482  0.4769
  606MOL0     H81761   2.998  10.840   5.120  2.1924 -2.7239  2.5183
  606MOL0     H81762   2.918  11.212   5.205  1.0858 -0.3747  2.9626
  606MOL0     H81763   3.079  11.140   5.188  0.1399  2.1680 -1.5430
  606MOL0     H81764   3.034  11.024   4.981  1.5954  0.8120 -0.4297
  606MOL0     H81765   2.872  11.099   4.972  0.3367  3.1113 -1.7023
  606MOL0     H81766   3.125  11.254   4.947 -1.0638  0.8596  0.9001
  606MOL0     H81767   2.973  11.323   5.003  1.4441  1.2221  0.1428
  606MOL0     H81768   2.942  11.371   4.782  1.2106  0.4514 -2.2452
  606MOL0     H81769   2.871  11.202   4.794  0.7804 -1.8327 -1.0723
  606MOL0     H81770   2.834  11.365   4.591 -0.2013  2.3539 -2.1831
  606MOL0     H81771   2.814  11.436   4.354  1.0240  2.5963 -0.0689
  606MOL0     H81772   2.952  11.123   3.905  0.7445 -1.5388 -2.6543
  606MOL0     H81773   2.919  11.131   3.679 -1.2808  2.4679 -0.8512
  606MOL0     H81774   3.126  11.158   3.484  1.5567  1.9006  1.7174
  606MOL0     H81775   3.078  11.258   3.341  0.2949  1.9760 -1.6056
  606MOL0     H81776   3.252  11.403   3.540 -2.3635  0.1806  1.0456
  606MOL0     H81777   3.311  11.285   3.421  0.3447 -0.0624  0.2320
  606MOL0     H81778   3.184  11.405   3.247  1.1294 -0.6456 -0.5388
  606MOL0     H81779   3.133  11.534   3.363  3.1650  1.2218  3.3815
  606MOL0     H81780   3.425  11.466   3.295  1.1752  0.4258  0.8995
  606MOL0     H81781   3.368  11.575   3.430 -1.6810  0.3526 -0.0755
  606MOL0     H81782   3.296  11.734   3.287 -1.0218 -1.0689  2.1071
  606MOL0     H81783   3.278  11.626   3.152 -0.4539 -0.8684  0.3049
  606MOL0     H81784   3.555  11.698   3.252  0.1486 -1.4241  0.8434
  606MOL0     H81785   3.512  11.583   3.122 -0.9041  0.0562  1.0108
  606MOL0     H81786   3.409  11.860   3.098  1.9815  2.1050  2.2360
  606MOL0     H81787   3.452  11.740   2.972  1.1509 -2.6067  0.7910
  606MOL0     H81788   3.616  11.909   2.951  0.7878  0.9339  0.2035
  606MOL0     H81789   3.637  11.923   3.125 -0.5432 -0.1336 -0.1733
  606MOL0     H81790   3.086  11.522   3.656  0.1210  0.3266 -0.7315
  606MOL0     H81791   3.129  11.521   3.910 -2.0623  1.3109 -0.7509
  606MOL0     H81792   3.167  11.210   4.257 -0.6646  1.2448 -0.3508
  606MOL0     H81793   3.204  11.165   4.500 -0.4729  0.2839 -0.0845
  606MOL0     H81794   3.258  10.468   6.372  5.1040 -0.3220  1.2968
  606MOL0     H81795   3.399  10.574   6.525  1.1590  2.5834  0.3156
  606MOL0     H81796   3.498  10.714   6.735  0.2581  0.5628 -0.4227
  606MOL0     H81797   3.639  10.598   6.896 -0.0111 -1.2640  0.2657
  606MOL0     H81798   3.926  10.454   6.815 -0.0581  0.6085 -0.1922
  606MOL0     H81799   3.871  10.433   6.967  0.2142 -0.0446  0.1319
  606MOL0     H81800   4.156  10.533   6.910 -0.1591  0.7061  1.3133
  606MOL0     H81801   4.103  10.377   6.957 -0.4118  0.2215 -0.8548
  606MOL0     H81802   3.998  10.507   7.160 -0.0254  0.4190 -0.9540
  606MOL0     H81803   4.106  10.644   7.118  3.0855 -0.4466  0.7508
  606MOL0     H81804   4.203  10.506   7.297  2.1823  1.9966 -0.4469
  606MOL0     H81805   4.225  10.375   7.192 -3.6626 -0.7512  0.0221
  606MOL0     H81806   4.511  10.608   7.001 -0.7984  0.5266 -0.9681
  606MOL0     H81807   3.977  10.781   6.708  0.2157 -2.4066  1.6191
  606MOL0     H81808   3.783  10.999   6.466  1.1074  1.2806 -0.6813
  606MOL0     H81809   3.901  11.024   6.589  1.2555  1.1212 -2.3997
  606MOL0     H81810   3.927  10.892   6.474  1.5660 -0.9790  3.3454
  607MOL0     O81811  11.257   4.219   1.382  0.0469 -0.6606 -0.5052
  607MOL0     C81812  11.290   4.164   1.280  1.2376  0.3085  0.0895
  607MOL0     O81813  11.397   4.083   1.268  0.1652  0.7456 -0.1232
  607MOL0     C81814  11.494   4.083   1.364  0.0498  0.7176  0.7351
  607MOL0     C81815  11.550   4.194   1.426  0.6137  0.6670  0.8332
  607MOL0     C81816  11.636   4.177   1.529 -0.6472 -0.0923  0.0778
  607MOL0     C81817  11.662   4.055   1.588 -0.6073 -0.6582  1.5735
  607MOL0     O81818  11.741   4.051   1.695 -0.4088  0.7460 -0.2668
  607MOL0     C81819  11.707   3.962   1.802  0.5176  0.0073 -0.1223
  607MOL0     C81820  11.796   4.006   1.925  0.5413 -0.1221 -0.7315
  607MOL0     C81821  11.939   4.024   1.871  0.2603 -0.5926 -0.8555
  607MOL0     C81822  12.053   4.040   1.974 -0.3305  0.9379 -0.4049
  607MOL0     C81823  12.071   4.179   2.036  0.2443  0.1762 -0.2723
  607MOL0     C81824  11.952   4.231   2.116 -0.1822 -0.7106  0.7499
  607MOL0     C81825  11.991   4.369   2.176 -0.5624 -0.0358 -0.3580
  607MOL0     C81826  11.871   4.428   2.245 -0.2729  0.8118  0.6245
  607MOL0     N81827  11.886   4.560   2.307  0.5209  0.4768 -0.1686
  607MOL0     C81828  11.948   4.671   2.249  0.3979  0.0227  0.2098
  607MOL0     C81829  11.948   4.760   2.353  0.9184  0.0253 -0.1334
  607MOL0     C81830  11.977   4.905   2.318 -0.4400 -0.1448 -0.1242
  607MOL0     C81831  12.085   4.954   2.402 -0.9856 -1.0951 -0.4597
  607MOL0     C81832  12.126   5.107   2.370  0.2258 -0.3568  0.1437
  607MOL0     C81833  12.217   5.156   2.480 -0.2305 -0.6380 -0.0617
  607MOL0     O81834  12.343   5.090   2.486  0.3890 -0.2306  0.0334
  607MOL0     C81835  12.419   5.088   2.378 -0.2266  0.5140 -0.5746
  607MOL0     C81836  12.425   5.176   2.265 -0.6623  0.9286 -0.5917
  607MOL0     C81837  12.514   5.150   2.160  0.0255 -0.0924 -0.4568
  607MOL0     C81838  12.602   5.038   2.159  0.5485  0.4799 -1.0646
  607MOL0     C81839  12.694   5.009   2.050 -0.0817 -0.0664 -0.5138
  607MOL0     O81840  12.781   4.905   2.067 -0.3061  0.6086 -0.5590
  607MOL0     C81841  12.878   4.865   1.974  0.1327 -0.6776  0.1887
  607MOL0     C81842  12.862   4.894   1.834 -0.2573 -0.2502  0.4344
  607MOL0     C81843  12.970   4.863   1.740 -0.9402  0.0038  0.5033
  607MOL0     C81844  13.094   4.818   1.785 -0.6078 -0.0257 -0.4970
  607MOL0     O81845  13.209   4.815   1.714  0.2290 -0.1179 -0.1694
  607MOL0     C81846  13.205   4.689   1.649 -0.0357 -0.3327  0.0207
  607MOL0     C81847  13.269   4.720   1.500 -0.0529 -0.3164  0.0261
  607MOL0     C81848  13.282   4.599   1.413 -0.7837 -0.2146  0.4927
  607MOL0     C81849  13.213   4.611   1.279 -1.2869  0.4963 -0.3535
  607MOL0     C81850  13.177   4.475   1.216 -0.5243 -0.2581  0.0499
  607MOL0     C81851  13.097   4.490   1.098  0.2826 -0.9194 -0.3368
  607MOL0     C81852  13.167   4.548   0.975 -0.7218 -0.5571  0.6222
  607MOL0     C81853  13.088   4.533   0.843  0.9181 -0.9155  0.1683
  607MOL0    Cl81854  13.081   4.377   0.778  0.1213 -0.1431 -0.6130
  607MOL0     C81855  13.101   4.782   1.923 -0.5735  0.4857 -0.2114
  607MOL0     C81856  12.994   4.798   2.016 -0.8802  0.5575  0.5620
  607MOL0     O81857  12.694   5.089   1.961  0.7014 -0.0193  0.2762
  607MOL0     C81858  12.602   4.956   2.271  0.4803 -0.5780 -0.1242
  607MOL0     C81859  12.507   4.979   2.376 -0.3640 -0.2122  0.4865
  607MOL0     N81860  11.897   4.704   2.464  0.5081  0.4357  0.4092
  607MOL0     N81861  11.864   4.584   2.443 -0.2864  0.3495  0.7457
  607MOL0     C81862  11.601   3.938   1.537 -0.6038 -0.0750  0.5497
  607MOL0     C81863  11.523   3.954   1.417 -0.7828  0.7672  0.0981
  607MOL0     C81864  11.214   4.203   1.159 -0.2951  0.3459  1.1354
  607MOL0     C81865  11.192   4.112   1.048 -0.0787  0.5066 -0.3242
  607MOL0     C81866  11.107   4.136   0.934  1.1313 -0.9945  0.3215
  607MOL0     C81867  11.037   4.254   0.939  0.2766 -0.8572 -0.8270
  607MOL0     O81868  10.945   4.291   0.838 -0.1582  0.3109 -0.0144
  607MOL0     C81869  10.862   4.182   0.778 -0.4325 -0.0525 -0.1542
  607MOL0     C81870  10.784   4.230   0.657 -0.2065  0.1919 -1.1345
  607MOL0     C81871  10.694   4.127   0.586  0.2199  0.1207  0.1085
  607MOL0     C81872  10.775   4.019   0.521 -0.2576  0.4718 -1.2216
  607MOL0     C81873  10.698   3.981   0.398  0.2690  1.6935  0.0304
  607MOL0     C81874  10.639   3.973   0.284 -0.3203 -0.2383  0.2767
  607MOL0     C81875  11.055   4.357   1.040  0.0151  0.1899 -0.6755
  607MOL0     C81876  11.151   4.333   1.138 -0.0365  0.1968 -0.8355
  607MOL0     C81877  11.184   4.442   1.237  0.8792  0.1427  0.7533
  607MOL0     H81878  11.533   4.297   1.397  0.3006 -0.5932 -4.5125
  607MOL0     H81879  11.662   4.267   1.583 -3.7464  1.4006 -0.7041
  607MOL0     H81880  11.601   3.971   1.826 -0.6585 -6.1736 -1.4296
  607MOL0     H81881  11.727   3.858   1.778 -0.0080 -0.2591  0.5720
  607MOL0     H81882  11.789   3.924   1.998  0.5254 -0.0602 -0.6635
  607MOL0     H81883  11.752   4.096   1.970  2.4984 -0.6761  2.6384
  607MOL0     H81884  11.940   4.121   1.819  0.1170 -0.7357 -1.1261
  607MOL0     H81885  11.960   3.947   1.796 -1.9525 -1.4654 -0.6585
  607MOL0     H81886  12.049   3.978   2.064  2.6111  1.3186  0.0880
  607MOL0     H81887  12.145   4.006   1.926 -0.4466 -3.1200  1.7636
  607MOL0     H81888  12.158   4.188   2.102  0.4032  0.4289 -0.5151
  607MOL0     H81889  12.082   4.248   1.952 -0.7641 -2.3911 -2.6565
  607MOL0     H81890  11.873   4.248   2.042  2.0792  1.3349 -1.4214
  607MOL0     H81891  11.919   4.158   2.190 -0.4604 -1.0303  0.3168
  607MOL0     H81892  12.023   4.442   2.101  1.0542  0.5616  0.8476
  607MOL0     H81893  12.079   4.363   2.241  0.7377  0.5599 -1.9786
  607MOL0     H81894  11.782   4.434   2.182  0.8064 -0.7867 -1.1523
  607MOL0     H81895  11.848   4.354   2.322 -0.2076  0.5405  0.3865
  607MOL0     H81896  11.957   4.684   2.142 -1.6681 -0.0342 -0.0236
  607MOL0     H81897  12.003   4.918   2.212  3.0261 -4.6834 -0.1793
  607MOL0     H81898  11.889   4.966   2.337 -0.2477  0.7163 -1.8045
  607MOL0     H81899  12.037   4.949   2.501  1.9201  1.5827  1.2919
  607MOL0     H81900  12.178   4.895   2.407 -0.8841 -1.1209 -2.2185
  607MOL0     H81901  12.040   5.173   2.356  0.6466 -0.0615 -1.2003
  607MOL0     H81902  12.164   5.115   2.268  1.6006 -0.8600  0.5890
  607MOL0     H81903  12.181   5.141   2.582  0.3051  1.5996  0.5232
  607MOL0     H81904  12.227   5.265   2.472  2.6966 -0.9270 -1.9328
  607MOL0     H81905  12.365   5.266   2.269 -1.2911  0.6073 -2.0916
  607MOL0     H81906  12.517   5.222   2.079 -3.1649  1.5877  0.7344
  607MOL0     H81907  12.785   4.955   1.788 -0.6774 -1.3036 -0.3065
  607MOL0     H81908  12.965   4.895   1.637 -1.4629 -1.5510  0.0142
  607MOL0     H81909  13.267   4.616   1.703  1.3902 -0.1392 -1.2935
  607MOL0     H81910  13.105   4.647   1.641 -0.2676  0.0182  0.9429
  607MOL0     H81911  13.218   4.806   1.455  2.1670  1.0291 -0.0491
  607MOL0     H81912  13.371   4.757   1.508 -0.7068  1.2995  1.8026
  607MOL0     H81913  13.386   4.581   1.386 -0.9272 -3.1305  1.4579
  607MOL0     H81914  13.244   4.511   1.467  0.2010 -0.8513  0.1850
  607MOL0     H81915  13.291   4.647   1.211  0.0440 -1.1582  0.2026
  607MOL0     H81916  13.136   4.688   1.289  0.7225  2.6259 -0.4848
  607MOL0     H81917  13.114   4.427   1.291  1.2929  1.8153  3.1501
  607MOL0     H81918  13.262   4.408   1.198 -1.4671 -2.0170  1.7457
  607MOL0     H81919  13.056   4.398   1.056 -0.3124  1.2313 -5.1148
  607MOL0     H81920  13.018   4.564   1.114  0.8983  0.3603 -2.7263
  607MOL0     H81921  13.267   4.504   0.972 -0.4173  0.1448  0.2480
  607MOL0     H81922  13.193   4.653   0.993 -1.9000  0.4587 -2.7281
  607MOL0     H81923  12.984   4.563   0.861  0.6798 -1.2132 -0.6970
  607MOL0     H81924  13.142   4.591   0.769  2.0353 -1.9462  0.1592
  607MOL0     H81925  13.192   4.741   1.966 -0.5618 -0.7909 -1.3785
  607MOL0     H81926  12.987   4.760   2.117  1.0222 -2.5588 -0.3295
  607MOL0     H81927  12.667   4.873   2.296  0.9624  0.2519  1.5583
  607MOL0     H81928  12.516   4.914   2.462 -2.9637 -0.5884  0.5446
  607MOL0     H81929  11.619   3.836   1.568  1.5107 -0.0187 -0.3284
  607MOL0     H81930  11.476   3.870   1.367  1.8998 -1.8905  1.6800
  607MOL0     H81931  11.237   4.013   1.049  0.5169  0.7682 -0.9116
  607MOL0     H81932  11.104   4.065   0.852 -4.7471  0.1697 -0.8930
  607MOL0     H81933  10.784   4.135   0.839 -2.0986  2.5375 -0.1373
  607MOL0     H81934  10.934   4.109   0.739 -1.0727 -0.0591 -1.3432
  607MOL0     H81935  10.842   4.280   0.579  1.8064  1.1577  0.8850
  607MOL0     H81936  10.722   4.307   0.703  0.0402  0.5847 -1.4532
  607MOL0     H81937  10.646   4.181   0.504  0.7180 -1.0867 -1.0188
  607MOL0     H81938  10.611   4.086   0.644 -0.4228 -2.3472 -2.3611
  607MOL0     H81939  10.871   4.059   0.486 -1.2939  1.5525 -2.9461
  607MOL0     H81940  10.792   3.933   0.587  1.4890  0.3419 -1.7870
  607MOL0     H81941  10.592   3.959   0.189 -1.8348  0.8304  0.8242
  607MOL0     H81942  10.988   4.442   1.044 -0.8807 -0.4450 -1.7043
  607MOL0     H81943  11.290   4.458   1.259  1.4090 -0.3807 -1.2835
  607MOL0     H81944  11.154   4.540   1.199  3.4990  1.4490  1.8170
  607MOL0     H81945  11.126   4.432   1.330 -0.8877  0.5355 -0.2632
  608MOL0     O81946   7.770   3.964   3.186  0.2330 -0.3318 -0.1263
  608MOL0     C81947   7.722   4.043   3.099 -0.1373  0.0428  0.3883
  608MOL0     O81948   7.799   4.139   3.017 -0.2689  0.1051 -0.4248
  608MOL0     C81949   7.937   4.144   3.047 -0.8698 -0.1501 -0.3973
  608MOL0     C81950   7.972   4.181   3.181  0.1711 -0.3922  0.1960
  608MOL0     C81951   8.112   4.201   3.207  0.0019 -0.6354  0.1066
  608MOL0     C81952   8.211   4.190   3.108 -1.2434 -0.4155 -0.1416
  608MOL0     O81953   8.352   4.212   3.145  1.0126 -0.1690 -0.3073
  608MOL0     C81954   8.458   4.184   3.051 -0.8848 -1.4617  1.2557
  608MOL0     C81955   8.610   4.199   3.106  0.4074  0.8628  0.3078
  608MOL0     C81956   8.644   4.341   3.144 -0.3281 -0.2041  0.2822
  608MOL0     C81957   8.780   4.352   3.218  0.9058  0.0245  0.2183
  608MOL0     C81958   8.816   4.497   3.228  0.1948  0.2484 -0.6005
  608MOL0     C81959   8.969   4.517   3.271  0.0784  0.0445  0.7463
  608MOL0     C81960   9.003   4.665   3.278  0.7928  0.5603 -0.0357
  608MOL0     C81961   9.045   4.728   3.140 -0.4210 -0.1843  0.3668
  608MOL0     N81962   9.177   4.678   3.092  0.5505 -0.0764 -0.7250
  608MOL0     C81963   9.187   4.615   2.967  0.9989 -0.1347 -0.3856
  608MOL0     C81964   9.311   4.553   2.963  0.5165 -0.0933 -0.5225
  608MOL0     C81965   9.379   4.463   2.865  0.0380  0.3804 -0.9463
  608MOL0     C81966   9.441   4.535   2.734 -0.4045  0.0491 -1.2349
  608MOL0     C81967   9.494   4.441   2.619  0.2521  0.3125  0.2737
  608MOL0     C81968   9.532   4.522   2.492  0.3148  0.8613 -0.3510
  608MOL0     O81969   9.546   4.433   2.380  0.8198 -0.4843 -0.6371
  608MOL0     C81970   9.668   4.364   2.367  0.7052 -0.2451  0.2455
  608MOL0     C81971   9.780   4.376   2.447  0.6779  0.4049  0.3915
  608MOL0     C81972   9.888   4.291   2.426  0.1517  0.4658 -0.3216
  608MOL0     C81973   9.901   4.210   2.308  0.2902 -0.6115  0.5391
  608MOL0     C81974  10.026   4.139   2.286  0.5375  0.7177  0.6752
  608MOL0     O81975  10.132   4.169   2.363 -0.0290  0.1692 -0.3493
  608MOL0     C81976  10.240   4.092   2.367 -0.3722 -0.2590  0.4533
  608MOL0     C81977  10.338   4.137   2.287 -0.0393 -0.5983  0.8999
  608MOL0     C81978  10.458   4.071   2.290  0.0619 -0.3752  0.1976
  608MOL0     C81979  10.480   3.953   2.371  0.2363 -1.2860  0.3155
  608MOL0     O81980  10.605   3.905   2.366  0.2937  0.2550  0.0756
  608MOL0     C81981  10.662   3.843   2.481  0.7704 -0.7060  0.2473
  608MOL0     C81982  10.800   3.804   2.464  0.7436 -0.0189 -0.1730
  608MOL0     C81983  10.862   3.767   2.601 -0.2601  0.5766 -0.2329
  608MOL0     C81984  10.907   3.887   2.681 -0.0328 -0.3610  0.0280
  608MOL0     C81985  10.987   3.847   2.808  0.2868 -0.5137 -0.3758
  608MOL0     C81986  11.042   3.964   2.882 -0.5072 -1.0289  0.2425
  608MOL0     C81987  11.164   3.928   2.964  0.5350  0.0255  0.8721
  608MOL0     C81988  11.232   4.051   3.024  0.3250  0.2881  0.5711
  608MOL0    Cl81989  11.327   4.135   2.897  0.1330  0.2672  0.1258
  608MOL0     C81990  10.367   3.906   2.434  0.0316 -0.0723  0.2785
  608MOL0     C81991  10.247   3.976   2.440 -1.0389  0.7305 -0.7460
  608MOL0     O81992  10.015   4.039   2.216  0.1806 -0.4418  0.7331
  608MOL0     C81993   9.795   4.207   2.229 -0.4166  0.1194  0.0804
  608MOL0     C81994   9.674   4.282   2.252 -0.4941  0.8858  0.8265
  608MOL0     N81995   9.360   4.573   3.097  0.1220  1.1629 -0.2374
  608MOL0     N81996   9.280   4.642   3.166 -0.6813  0.0333  0.1543
  608MOL0     C81997   8.173   4.164   2.975  0.2287  0.1222 -0.3925
  608MOL0     C81998   8.035   4.136   2.945 -0.3316 -0.0816 -0.5209
  608MOL0     C81999   7.573   4.039   3.069  0.1666  0.7851 -0.3209
  608MOL0     C82000   7.518   4.137   2.989 -0.1094 -0.3875 -0.0470
  608MOL0     C82001   7.387   4.139   2.964 -0.5062  0.0102  0.0325
  608MOL0     C82002   7.299   4.044   3.004 -0.1231  0.3330  0.0538
  608MOL0     O82003   7.174   4.058   2.952  0.2680 -0.8361 -0.8222
  608MOL0     C82004   7.097   3.941   2.929 -0.0856  0.2282 -0.5750
  608MOL0     C82005   6.997   3.980   2.815 -0.2079 -0.7492 -0.3504
  608MOL0     C82006   7.067   4.037   2.692 -0.1092 -0.4158 -0.3419
  608MOL0     C82007   6.969   4.101   2.586 -0.2025  0.2900  0.2338
  608MOL0     C82008   6.861   4.008   2.538  0.0449 -0.6551  0.5015
  608MOL0     C82009   6.768   3.945   2.515 -0.0432 -0.2470  0.5231
  608MOL0     C82010   7.353   3.936   3.076 -0.1014  0.2887 -0.1743
  608MOL0     C82011   7.488   3.927   3.113 -0.1337 -0.1688  0.7232
  608MOL0     C82012   7.539   3.797   3.168 -0.4310 -0.6574 -0.0607
  608MOL0     H82013   7.898   4.205   3.256  0.3191  2.4874 -0.4718
  608MOL0     H82014   8.141   4.218   3.311 -0.5157 -3.1423  0.7393
  608MOL0     H82015   8.457   4.081   3.014  3.0744 -0.8570 -1.2452
  608MOL0     H82016   8.436   4.252   2.968  1.0395 -1.5290  0.6375
  608MOL0     H82017   8.682   4.175   3.027  0.8047  2.2391  0.2266
  608MOL0     H82018   8.610   4.130   3.191 -2.1474 -0.5624 -0.7278
  608MOL0     H82019   8.571   4.385   3.213 -0.2737  1.5906 -0.7502
  608MOL0     H82020   8.651   4.402   3.054  4.5465 -0.8260 -0.0256
  608MOL0     H82021   8.775   4.318   3.322 -1.3252 -1.2778 -0.2459
  608MOL0     H82022   8.843   4.295   3.150  1.9749  1.9709 -0.4974
  608MOL0     H82023   8.786   4.554   3.139 -1.3817  1.1221  0.4393
  608MOL0     H82024   8.756   4.554   3.300  2.0546 -0.9014  2.0103
  608MOL0     H82025   8.983   4.479   3.373  3.0989  0.1362  0.4470
  608MOL0     H82026   9.040   4.461   3.209 -0.1341  0.0105  0.5306
  608MOL0     H82027   9.081   4.676   3.354  0.6662 -2.8109  0.7249
  608MOL0     H82028   8.917   4.724   3.313  1.3235  1.7749 -0.7189
  608MOL0     H82029   8.972   4.706   3.061  0.4277  0.8918 -0.7575
  608MOL0     H82030   9.042   4.836   3.157 -1.7565  0.3307 -2.5530
  608MOL0     H82031   9.112   4.626   2.888 -1.4105  1.8504  1.9955
  608MOL0     H82032   9.451   4.396   2.914 -2.3340 -1.0291  0.8652
  608MOL0     H82033   9.309   4.382   2.840  2.8654 -1.6970 -2.8331
  608MOL0     H82034   9.358   4.596   2.697 -0.2020  1.8397  0.9944
  608MOL0     H82035   9.510   4.614   2.766  0.2348 -1.2847  0.9404
  608MOL0     H82036   9.417   4.366   2.602  1.3121 -0.4727 -1.2192
  608MOL0     H82037   9.589   4.395   2.647  0.9974 -0.4180 -3.0850
  608MOL0     H82038   9.620   4.583   2.516 -1.6426  3.0890  1.5722
  608MOL0     H82039   9.449   4.591   2.475 -0.1485  0.1187 -1.2072
  608MOL0     H82040   9.782   4.440   2.534  3.2786 -1.6341  1.9861
  608MOL0     H82041   9.965   4.280   2.502 -0.3068 -1.6496 -0.1051
  608MOL0     H82042  10.327   4.225   2.225  2.6068 -1.6604 -1.3190
  608MOL0     H82043  10.543   4.109   2.234  0.9895 -1.8416  0.5509
  608MOL0     H82044  10.660   3.920   2.559 -2.4747  0.3170 -0.6614
  608MOL0     H82045  10.593   3.761   2.506 -3.3160  1.4276 -2.7963
  608MOL0     H82046  10.806   3.724   2.391 -1.3285 -1.0445  0.6761
  608MOL0     H82047  10.847   3.894   2.425 -2.3613  1.9672  0.2405
  608MOL0     H82048  10.791   3.710   2.660 -0.3180 -0.3354 -1.1544
  608MOL0     H82049  10.943   3.694   2.587 -0.9281 -0.5276  1.4121
  608MOL0     H82050  10.837   3.969   2.703  1.7234  0.7315  1.9570
  608MOL0     H82051  10.977   3.936   2.613  0.9606  1.6840  2.3726
  608MOL0     H82052  11.060   3.770   2.781  0.9151 -0.6861  1.6383
  608MOL0     H82053  10.929   3.783   2.876  2.5344 -2.2282  0.0505
  608MOL0     H82054  11.063   4.052   2.820  0.4137 -3.0193 -2.4484
  608MOL0     H82055  10.965   4.000   2.952 -0.1835  1.4534 -0.5695
  608MOL0     H82056  11.236   3.884   2.895 -1.9871 -0.3434 -1.7019
  608MOL0     H82057  11.138   3.858   3.045 -0.2378  1.5598  2.0015
  608MOL0     H82058  11.149   4.120   3.044 -0.2942 -0.4877  0.7452
  608MOL0     H82059  11.298   4.031   3.109 -0.2332 -2.7192  0.4160
  608MOL0     H82060  10.375   3.821   2.502 -2.7110  1.6469  3.0074
  608MOL0     H82061  10.166   3.951   2.507 -1.4951  0.4416 -1.4009
  608MOL0     H82062   9.803   4.143   2.141  0.4444 -0.1842  0.3682
  608MOL0     H82063   9.598   4.286   2.175 -0.1268 -0.7001  0.3575
  608MOL0     H82064   8.241   4.157   2.891 -2.6195 -0.0597 -2.8403
  608MOL0     H82065   8.012   4.109   2.843 -0.4904 -1.0540 -0.2431
  608MOL0     H82066   7.578   4.222   2.960 -0.9472 -0.2665 -1.5518
  608MOL0     H82067   7.332   4.215   2.909 -1.5803 -0.7999 -0.0317
  608MOL0     H82068   7.038   3.911   3.016 -1.0118  1.1900 -0.8463
  608MOL0     H82069   7.155   3.855   2.894  1.6315 -0.3234  3.1283
  608MOL0     H82070   6.930   4.056   2.856  0.6231 -0.3909  0.3826
  608MOL0     H82071   6.929   3.899   2.784  0.2421 -0.2720 -2.7640
  608MOL0     H82072   7.131   3.960   2.648  0.4386 -0.2660  0.1799
  608MOL0     H82073   7.130   4.122   2.720 -2.0192  1.7625 -2.2487
  608MOL0     H82074   6.923   4.187   2.635  0.4238 -0.3443  2.0381
  608MOL0     H82075   7.028   4.144   2.504  1.6230 -3.9824 -1.0102
  608MOL0     H82076   6.681   3.886   2.493  0.4820 -1.7416  2.2392
  608MOL0     H82077   7.290   3.855   3.113 -0.1586  0.4044 -0.0206
  608MOL0     H82078   7.604   3.755   3.091 -0.4375 -0.5232 -0.1390
  608MOL0     H82079   7.599   3.817   3.258  0.8791  1.2025 -1.2786
  608MOL0     H82080   7.462   3.725   3.197 -0.1404 -1.0819 -0.3263
  609MOL0     O82081   3.046   2.873   0.852 -0.2430  0.4932 -0.1273
  609MOL0     C82082   2.984   2.796   0.781 -0.5839 -0.1014 -0.2466
  609MOL0     O82083   3.013   2.764   0.647 -0.0107 -0.2564 -0.4125
  609MOL0     C82084   3.114   2.833   0.594 -0.0680  0.1760 -0.7614
  609MOL0     C82085   3.094   2.968   0.561 -0.4721  0.4224 -0.0415
  609MOL0     C82086   3.190   3.040   0.489  0.0146 -0.1052 -0.1606
  609MOL0     C82087   3.304   2.974   0.446 -0.0501  0.1247  0.2722
  609MOL0     O82088   3.398   3.051   0.384  0.4172 -0.3299  0.5893
  609MOL0     C82089   3.455   3.009   0.258  0.4590  0.7388 -0.0895
  609MOL0     C82090   3.556   3.111   0.214 -0.1855 -0.0008  1.2150
  609MOL0     C82091   3.612   3.077   0.072 -0.9049 -0.2247 -0.4017
  609MOL0     C82092   3.763   3.128   0.061  0.6904  0.2388  0.0796
  609MOL0     C82093   3.842   3.039  -0.048 -0.2822  0.3833  0.5589
  609MOL0     C82094   3.982   2.999  -0.003  0.1205 -0.0352  0.2315
  609MOL0     C82095   4.082   3.119   0.019 -0.6906  0.2925  0.0192
  609MOL0     C82096   4.207   3.087   0.096  0.3311 -0.9080 -0.6547
  609MOL0     N82097   4.167   3.042   0.233  0.2000 -0.6677  0.0808
  609MOL0     C82098   4.073   3.103   0.315 -0.7463  0.9732  0.2990
  609MOL0     C82099   4.055   2.999   0.405  0.7746  0.0978  0.4392
  609MOL0     C82100   3.953   3.016   0.516 -0.5410  0.7872 -0.0134
  609MOL0     C82101   3.870   2.890   0.525  0.2328  0.1591 -0.0554
  609MOL0     C82102   3.916   2.772   0.610  0.2302  0.0515  0.0477
  609MOL0     C82103   3.818   2.653   0.614  0.7571 -0.6435  0.3523
  609MOL0     O82104   3.698   2.688   0.684  0.4943 -0.7197 -0.2405
  609MOL0     C82105   3.594   2.610   0.694 -0.6462 -0.8931 -0.2519
  609MOL0     C82106   3.472   2.662   0.747 -0.0909  0.2661 -0.0914
  609MOL0     C82107   3.365   2.576   0.788 -0.3686 -0.3923 -0.1187
  609MOL0     C82108   3.371   2.449   0.742  0.2074  0.7560 -0.3146
  609MOL0     C82109   3.249   2.361   0.762 -0.1436 -0.0938  0.5967
  609MOL0     O82110   3.142   2.402   0.835 -0.6141  0.3593 -0.0132
  609MOL0     C82111   3.057   2.311   0.882  0.5754  0.1390 -0.7145
  609MOL0     C82112   3.071   2.289   1.025 -0.9135 -0.9313  0.6992
  609MOL0     C82113   2.985   2.203   1.086  0.8236 -0.9694 -0.0261
  609MOL0     C82114   2.871   2.149   1.019 -1.2281 -0.1635 -0.0687
  609MOL0     O82115   2.777   2.058   1.074  1.1862  0.2533 -0.2097
  609MOL0     C82116   2.763   2.047   1.215 -0.1782 -0.4420  0.5696
  609MOL0     C82117   2.670   2.155   1.262 -0.2385 -0.0307 -0.2132
  609MOL0     C82118   2.527   2.157   1.205  0.0699 -0.3978  0.2989
  609MOL0     C82119   2.440   2.249   1.277  0.9419 -0.8890 -0.2427
  609MOL0     C82120   2.286   2.257   1.235  0.1149 -0.4280 -1.0227
  609MOL0     C82121   2.197   2.288   1.361 -0.2907  0.2032  0.2371
  609MOL0     C82122   2.045   2.277   1.344 -0.1665  0.4848 -0.2701
  609MOL0     C82123   1.998   2.131   1.352 -0.3565 -0.8352  0.6335
  609MOL0    Cl82124   1.823   2.109   1.317 -0.3249 -0.4297  0.4400
  609MOL0     C82125   2.860   2.171   0.874 -0.5178 -0.2754 -0.1921
  609MOL0     C82126   2.957   2.248   0.803 -0.3774  0.5029 -1.0569
  609MOL0     O82127   3.264   2.244   0.709 -0.1739 -0.2119 -0.1232
  609MOL0     C82128   3.487   2.402   0.680 -0.1178 -0.5896 -0.6586
  609MOL0     C82129   3.603   2.476   0.657 -0.2092 -0.7209 -0.1940
  609MOL0     N82130   4.126   2.883   0.371 -0.2976 -0.4799 -0.0301
  609MOL0     N82131   4.197   2.912   0.267 -0.0777 -0.6447  0.4031
  609MOL0     C82132   3.322   2.839   0.483  0.9045  0.4133 -0.1918
  609MOL0     C82133   3.230   2.771   0.549  0.2808 -0.4323  1.0041
  609MOL0     C82134   2.881   2.700   0.841  0.6857 -0.8452 -0.1817
  609MOL0     C82135   2.752   2.702   0.775 -0.6508  0.9756  0.4291
  609MOL0     C82136   2.648   2.629   0.820 -0.3747  0.6912 -0.5658
  609MOL0     C82137   2.663   2.553   0.944  1.2765 -0.2170 -0.3408
  609MOL0     O82138   2.555   2.478   1.004  0.1671  0.3637  0.2054
  609MOL0     C82139   2.420   2.507   0.964 -0.8671 -0.0488  0.1475
  609MOL0     C82140   2.365   2.632   1.035 -0.2188 -0.1204 -0.2797
  609MOL0     C82141   2.305   2.593   1.175  1.0106  0.0278 -0.2011
  609MOL0     C82142   2.226   2.703   1.246  0.2330  0.6036  0.0220
  609MOL0     C82143   2.144   2.651   1.353  0.5754 -0.3534 -0.2959
  609MOL0     C82144   2.061   2.619   1.439 -1.0814 -0.5792 -0.2731
  609MOL0     C82145   2.780   2.555   1.007 -0.3823 -0.5293 -0.1602
  609MOL0     C82146   2.887   2.630   0.968 -1.1638 -0.8802  0.0532
  609MOL0     C82147   3.011   2.643   1.070  0.1535 -0.1613  0.0507
  609MOL0     H82148   2.998   3.008   0.594  0.6537  4.1486 -0.8417
  609MOL0     H82149   3.170   3.144   0.466 -0.2980  0.6266  2.9811
  609MOL0     H82150   3.495   2.909   0.278 -1.0626  0.2120  0.4911
  609MOL0     H82151   3.376   2.999   0.184  1.6159 -0.6610 -1.1848
  609MOL0     H82152   3.633   3.128   0.289  0.0140  3.3583  0.4332
  609MOL0     H82153   3.507   3.208   0.200  0.6824  0.2765 -0.1310
  609MOL0     H82154   3.552   3.133  -0.000 -1.5063  1.9161  1.6079
  609MOL0     H82155   3.594   2.973   0.046 -0.1145 -0.5106  0.1496
  609MOL0     H82156   3.771   3.234   0.034  1.3102  0.1470 -0.1036
  609MOL0     H82157   3.812   3.118   0.159  2.3253 -1.7196 -0.8623
  609MOL0     H82158   3.785   2.946  -0.057  2.2967 -1.3292  0.9158
  609MOL0     H82159   3.831   3.086  -0.145 -2.2171 -0.3086  0.3921
  609MOL0     H82160   3.984   2.932   0.084  2.2019  1.6215  1.5761
  609MOL0     H82161   4.015   2.934  -0.085 -1.5697 -3.0297  1.7533
  609MOL0     H82162   4.028   3.197   0.074 -0.1169 -0.2058  1.3396
  609MOL0     H82163   4.107   3.170  -0.075 -0.7634  3.7723  1.7174
  609MOL0     H82164   4.273   3.014   0.048  0.4527  1.3497 -4.3431
  609MOL0     H82165   4.274   3.171   0.118 -0.8162 -0.6394  2.2254
  609MOL0     H82166   4.035   3.204   0.311  0.4134  1.5042  1.7825
  609MOL0     H82167   3.995   3.026   0.616  0.1091 -3.5120  0.3352
  609MOL0     H82168   3.878   3.091   0.490 -0.8800  1.2002  1.9925
  609MOL0     H82169   3.787   2.927   0.586 -0.2525 -0.1349 -0.5244
  609MOL0     H82170   3.828   2.857   0.430  0.3721  1.7965 -0.7356
  609MOL0     H82171   3.928   2.807   0.713  1.6878 -1.4742  0.4542
  609MOL0     H82172   4.015   2.741   0.575  0.3297  1.9699 -1.5018
  609MOL0     H82173   3.870   2.573   0.668  2.0653  0.7407  1.2491
  609MOL0     H82174   3.812   2.613   0.513  1.2199 -3.0555  1.2106
  609MOL0     H82175   3.463   2.769   0.760  0.1228  0.3624 -0.7092
  609MOL0     H82176   3.272   2.615   0.829  1.3055  2.1256  1.6418
  609MOL0     H82177   3.146   2.338   1.086  5.4190  0.0101 -6.3143
  609MOL0     H82178   2.997   2.180   1.191 -0.4672 -0.0262  0.3605
  609MOL0     H82179   2.728   1.945   1.231  3.0710 -1.4589  1.8450
  609MOL0     H82180   2.857   2.041   1.270  0.8961 -0.2129 -1.1446
  609MOL0     H82181   2.671   2.163   1.371  1.1605 -0.0049 -0.2106
  609MOL0     H82182   2.723   2.248   1.239  1.1693 -0.0284  2.5334
  609MOL0     H82183   2.547   2.189   1.102  1.3890  2.5821  1.3730
  609MOL0     H82184   2.485   2.057   1.194 -1.7290  0.2693  0.7787
  609MOL0     H82185   2.477   2.349   1.252 -1.5876 -0.2464 -1.7636
  609MOL0     H82186   2.440   2.216   1.381 -3.3751 -0.9493 -0.0895
  609MOL0     H82187   2.270   2.157   1.195 -0.4174 -0.0226 -1.8735
  609MOL0     H82188   2.261   2.314   1.145  1.2835  0.5892 -0.7297
  609MOL0     H82189   2.242   2.210   1.423  3.9574 -0.4370 -3.1288
  609MOL0     H82190   2.217   2.391   1.393  3.2548 -0.6425  1.1458
  609MOL0     H82191   2.009   2.307   1.245  2.6277  0.1432 -1.4791
  609MOL0     H82192   1.988   2.326   1.423 -0.9501  1.4491 -1.4068
  609MOL0     H82193   2.050   2.078   1.271 -0.3693  0.1470 -0.0256
  609MOL0     H82194   2.039   2.094   1.446  0.2832  1.4155  1.3054
  609MOL0     H82195   2.778   2.123   0.821 -2.1624 -0.1728  2.1173
  609MOL0     H82196   2.944   2.262   0.696 -1.7436 -0.4863 -1.0381
  609MOL0     H82197   3.488   2.296   0.655  2.8523 -0.7591 -0.1774
  609MOL0     H82198   3.699   2.435   0.628 -0.8765 -1.2090 -1.8742
  609MOL0     H82199   3.408   2.777   0.459  0.0736 -0.4280 -1.0925
  609MOL0     H82200   3.242   2.665   0.570 -2.5109 -1.2162 -0.7290
  609MOL0     H82201   2.749   2.755   0.681  0.9362  5.3675  2.5983
  609MOL0     H82202   2.565   2.624   0.750 -0.0489 -3.6368 -0.9455
  609MOL0     H82203   2.361   2.421   0.995  1.6493 -1.3022  1.7995
  609MOL0     H82204   2.413   2.507   0.855 -1.2091 -0.5309  0.1693
  609MOL0     H82205   2.281   2.668   0.974 -0.4818 -0.4458 -0.1112
  609MOL0     H82206   2.441   2.711   1.038 -1.8232  1.5647 -1.4374
  609MOL0     H82207   2.378   2.557   1.248 -0.1861 -2.6634 -0.2017
  609MOL0     H82208   2.233   2.514   1.153  0.5357 -0.5137  2.8634
  609MOL0     H82209   2.291   2.783   1.282  1.9882 -0.1896 -1.2407
  609MOL0     H82210   2.159   2.750   1.174  2.4017  2.1610 -1.0997
  609MOL0     H82211   1.994   2.612   1.522  0.8243 -1.0343  1.3237
  609MOL0     H82212   2.776   2.513   1.107 -2.2230 -0.5864 -0.2333
  609MOL0     H82213   3.020   2.556   1.135 -0.0719 -1.4049 -1.5272
  609MOL0     H82214   3.101   2.625   1.010 -0.4639 -1.4035 -0.5424
  609MOL0     H82215   3.002   2.739   1.121  1.4371 -0.4694  0.9081
  610MOL0     O82216   1.927   7.792   7.876 -0.2498 -0.1023 -0.0591
  610MOL0     C82217   1.920   7.781   7.754 -0.4000  1.5292  0.2804
  610MOL0     O82218   1.970   7.669   7.688  0.1167 -0.6638  0.0283
  610MOL0     C82219   1.996   7.555   7.761  0.4455  1.2864 -0.6725
  610MOL0     C82220   1.920   7.439   7.722 -0.2164  0.4696  0.1950
  610MOL0     C82221   1.930   7.322   7.791 -0.0704 -0.1758 -0.5146
  610MOL0     C82222   2.032   7.296   7.890  0.0284 -0.4494  1.3454
  610MOL0     O82223   2.042   7.178   7.961 -0.3803  0.5812  0.2272
  610MOL0     C82224   1.922   7.106   8.005 -0.8643  0.3128  0.7825
  610MOL0     C82225   1.914   6.979   7.922  1.0356 -1.1462 -0.1937
  610MOL0     C82226   1.809   6.881   7.978 -0.0792 -0.2695 -0.1111
  610MOL0     C82227   1.869   6.777   8.077  0.5259 -0.4414 -0.2434
  610MOL0     C82228   1.761   6.688   8.135  0.5381  0.8781  0.7311
  610MOL0     C82229   1.822   6.597   8.250  0.3998 -0.0695  0.7919
  610MOL0     C82230   1.741   6.472   8.292 -0.5506 -0.0501  0.2687
  610MOL0     C82231   1.830   6.384   8.376  1.2992 -0.8794 -0.4486
  610MOL0     N82232   1.753   6.262   8.404 -0.0737  0.9164  1.2198
  610MOL0     C82233   1.631   6.240   8.472 -0.1313  0.1622  0.4387
  610MOL0     C82234   1.576   6.121   8.422 -0.6799  0.9196 -0.9840
  610MOL0     C82235   1.432   6.066   8.432  0.4347 -0.0850  0.4168
  610MOL0     C82236   1.435   5.919   8.471 -1.1468  0.3726 -0.0322
  610MOL0     C82237   1.288   5.861   8.470 -0.3802  0.2033 -0.7151
  610MOL0     C82238   1.297   5.711   8.489 -0.1978 -0.3433 -0.4634
  610MOL0     O82239   1.166   5.655   8.514  0.1096 -0.5608 -0.8447
  610MOL0     C82240   1.168   5.537   8.576 -0.1933  0.4823  1.2612
  610MOL0     C82241   1.055   5.497   8.655  0.0215 -0.2908  0.2803
  610MOL0     C82242   1.052   5.369   8.733 -0.3568  0.1612 -0.0865
  610MOL0     C82243   1.157   5.279   8.719  0.3374  0.4642  0.0864
  610MOL0     C82244   1.172   5.167   8.811 -0.9054  0.3955 -0.4752
  610MOL0     O82245   1.272   5.083   8.794 -0.5105  0.8446  0.1006
  610MOL0     C82246   1.291   4.971   8.861  0.0874  0.5396 -0.5479
  610MOL0     C82247   1.368   4.876   8.790  0.1329  0.6054 -0.2402
  610MOL0     C82248   1.397   4.756   8.853  0.7323  1.1592  0.0934
  610MOL0     C82249   1.353   4.723   8.984  0.3769 -0.0438 -0.1070
  610MOL0     O82250   1.375   4.608   9.053 -0.1768 -0.5250  0.4416
  610MOL0     C82251   1.476   4.522   9.016 -0.8160  0.2721  0.2637
  610MOL0     C82252   1.454   4.382   9.079  0.1899  0.1491 -0.3314
  610MOL0     C82253   1.532   4.274   9.009  1.5350  0.3774 -0.0234
  610MOL0     C82254   1.590   4.160   9.095 -0.5641  0.6705  0.0544
  610MOL0     C82255   1.625   4.035   9.016  0.1321  0.4435 -0.4145
  610MOL0     C82256   1.730   4.072   8.909 -0.1055 -0.9978 -0.6763
  610MOL0     C82257   1.737   3.953   8.818 -0.4573  0.1658 -0.0357
  610MOL0     C82258   1.837   3.968   8.705 -0.1835  0.7081 -0.5757
  610MOL0    Cl82259   1.793   4.105   8.593 -0.3395 -0.0505 -0.4817
  610MOL0     C82260   1.276   4.813   9.047  0.2973 -0.3896  1.1917
  610MOL0     C82261   1.246   4.938   8.992 -0.3332  0.0948  0.3578
  610MOL0     O82262   1.076   5.153   8.894 -0.4613  0.1073  1.0361
  610MOL0     C82263   1.261   5.321   8.628 -0.1646 -0.3305 -0.4281
  610MOL0     C82264   1.257   5.435   8.553 -0.2821 -1.6425  0.4186
  610MOL0     N82265   1.669   6.070   8.335  0.7210  0.5994  0.0065
  610MOL0     N82266   1.757   6.161   8.313 -0.0282  0.4109  0.4324
  610MOL0     C82267   2.110   7.410   7.923  0.6396  0.4074 -0.5860
  610MOL0     C82268   2.090   7.543   7.864  0.5952  0.9144  0.5400
  610MOL0     C82269   1.863   7.887   7.678  0.7984 -0.8816  0.8196
  610MOL0     C82270   1.828   7.855   7.540  0.3419 -0.5359 -0.2527
  610MOL0     C82271   1.769   7.956   7.458  0.1581  0.1634 -0.3604
  610MOL0     C82272   1.751   8.083   7.501  0.7353  0.5567  0.9811
  610MOL0     O82273   1.705   8.192   7.427 -0.9171  0.3281 -0.0494
  610MOL0     C82274   1.654   8.155   7.304  0.6214  0.4291  0.3654
  610MOL0     C82275   1.596   8.279   7.236 -0.3965  1.0162  0.2766
  610MOL0     C82276   1.701   8.390   7.229 -0.2098 -0.3943  0.3639
  610MOL0     C82277   1.655   8.519   7.158 -0.1339 -0.1785  0.0938
  610MOL0     C82278   1.530   8.560   7.221  0.4441  0.5004  0.8440
  610MOL0     C82279   1.421   8.597   7.262 -0.0670  0.1156  0.0547
  610MOL0     C82280   1.788   8.122   7.623 -0.6502  1.2138  0.0807
  610MOL0     C82281   1.843   8.028   7.719 -0.4546  0.0474 -0.8957
  610MOL0     C82282   1.892   8.071   7.856  0.4136  0.3062  0.3124
  610MOL0     H82283   1.858   7.457   7.635  1.2937 -2.1043 -1.5389
  610MOL0     H82284   1.860   7.240   7.776  0.7074 -2.0870  4.4477
  610MOL0     H82285   1.946   7.076   8.107  1.5229 -2.6814 -0.4765
  610MOL0     H82286   1.830   7.165   8.010 -0.7134  0.4597  2.0660
  610MOL0     H82287   2.012   6.934   7.905  1.7461 -0.4766  1.8989
  610MOL0     H82288   1.873   7.012   7.826  1.7562  1.2917  0.2644
  610MOL0     H82289   1.777   6.832   7.885 -1.5430  2.6893 -1.3021
  610MOL0     H82290   1.719   6.929   8.017  0.1899  1.8292 -1.8173
  610MOL0     H82291   1.942   6.715   8.024  1.6266  0.8359 -0.2676
  610MOL0     H82292   1.911   6.818   8.169 -0.0469  1.4514 -0.7907
  610MOL0     H82293   1.670   6.737   8.168 -0.1320  1.7077 -2.0567
  610MOL0     H82294   1.735   6.625   8.049  0.0180  0.5756  1.1078
  610MOL0     H82295   1.919   6.560   8.215  0.0770  1.2783 -1.7285
  610MOL0     H82296   1.833   6.663   8.337 -1.2771  0.5351  0.5756
  610MOL0     H82297   1.719   6.418   8.200  2.2194 -0.4489 -0.2504
  610MOL0     H82298   1.653   6.492   8.354  0.9975 -1.7094  3.2268
  610MOL0     H82299   1.916   6.342   8.323  2.5113  1.9735 -0.8776
  610MOL0     H82300   1.865   6.433   8.467 -0.1969 -1.4917  0.5023
  610MOL0     H82301   1.575   6.319   8.521 -0.4536 -0.2254  0.6927
  610MOL0     H82302   1.379   6.113   8.515  1.3856  0.3383  0.8057
  610MOL0     H82303   1.377   6.085   8.340 -0.8618 -0.8132  1.0169
  610MOL0     H82304   1.501   5.854   8.413  0.4464  1.5446  0.4113
  610MOL0     H82305   1.484   5.925   8.569  4.3170  3.6052 -2.4917
  610MOL0     H82306   1.237   5.872   8.374  0.2898  0.9600 -1.0025
  610MOL0     H82307   1.230   5.909   8.549  3.2473  4.4328 -0.1738
  610MOL0     H82308   1.368   5.694   8.570 -0.4550  4.2483  1.0314
  610MOL0     H82309   1.340   5.664   8.400  1.0969 -2.4061  1.1771
  610MOL0     H82310   0.969   5.562   8.670  1.0892  0.8502  1.8933
  610MOL0     H82311   0.977   5.350   8.809 -0.3725  1.7041  0.3107
  610MOL0     H82312   1.410   4.901   8.693 -1.1901 -3.3634 -2.0854
  610MOL0     H82313   1.452   4.686   8.791  1.1145  2.5406 -1.2055
  610MOL0     H82314   1.482   4.510   8.907  0.4609  2.5518  0.0260
  610MOL0     H82315   1.575   4.557   9.047  1.1190 -3.6859 -0.7468
  610MOL0     H82316   1.489   4.382   9.183  0.8018 -0.2572 -0.5290
  610MOL0     H82317   1.348   4.356   9.070 -0.2567  0.9311  1.9557
  610MOL0     H82318   1.467   4.233   8.931 -0.9374  1.4592  1.3490
  610MOL0     H82319   1.608   4.324   8.948  5.4906 -2.7234  1.8891
  610MOL0     H82320   1.515   4.127   9.167  0.8792  0.3651  1.4801
  610MOL0     H82321   1.679   4.185   9.154  0.6418  0.3824 -1.5895
  610MOL0     H82322   1.533   3.989   8.979 -0.3828 -0.1860  1.5225
  610MOL0     H82323   1.667   3.962   9.086 -1.9993  0.1153  0.5925
  610MOL0     H82324   1.700   4.157   8.847  1.5873  0.6140  0.6007
  610MOL0     H82325   1.821   4.086   8.968  1.5334 -5.1508 -1.8155
  610MOL0     H82326   1.640   3.950   8.768  1.1703 -0.6029 -3.4229
  610MOL0     H82327   1.751   3.870   8.888 -2.4492  3.0531  4.2452
  610MOL0     H82328   1.941   3.983   8.736 -0.7549  2.2009  0.7436
  610MOL0     H82329   1.833   3.877   8.644  0.5946 -1.2591  2.0979
  610MOL0     H82330   1.252   4.787   9.149 -1.9519  0.4974  0.9374
  610MOL0     H82331   1.179   4.998   9.053 -1.0711 -3.6066  3.6021
  610MOL0     H82332   1.348   5.257   8.619 -1.3247 -1.9339 -0.9033
  610MOL0     H82333   1.338   5.452   8.483  0.1980 -0.1050  1.3024
  610MOL0     H82334   2.188   7.411   7.998  1.5409 -0.8760 -1.4606
  610MOL0     H82335   2.144   7.632   7.896 -0.4641  2.1162 -0.8788
  610MOL0     H82336   1.833   7.758   7.492 -1.3355 -0.6379 -0.2776
  610MOL0     H82337   1.741   7.917   7.360 -0.6815 -0.0928 -0.0247
  610MOL0     H82338   1.584   8.071   7.305  0.6787  0.3729 -0.2176
  610MOL0     H82339   1.727   8.101   7.244  0.9396 -0.4765  1.5146
  610MOL0     H82340   1.503   8.305   7.287 -0.2047 -2.1487  2.4766
  610MOL0     H82341   1.574   8.252   7.132  2.6867  2.4007 -0.8629
  610MOL0     H82342   1.783   8.356   7.166  1.9754  4.0574  0.3948
  610MOL0     H82343   1.741   8.416   7.327 -1.1113 -0.5720  0.7951
  610MOL0     H82344   1.715   8.605   7.189 -2.3091  1.9938 -1.3163
  610MOL0     H82345   1.651   8.515   7.049 -0.3660  1.6865 -0.0054
  610MOL0     H82346   1.327   8.638   7.292  0.3315  3.3067 -2.4877
  610MOL0     H82347   1.788   8.228   7.647 -0.2522  0.9930  1.1641
  610MOL0     H82348   1.894   8.180   7.850  0.0763  0.2351 -1.9359
  610MOL0     H82349   1.823   8.042   7.936 -2.5955  0.6191 -1.9742
  610MOL0     H82350   1.991   8.027   7.868  0.3607 -0.0597 -0.5589
  611MOL0     O82351   5.650   5.350  10.682 -0.1641  0.6825 -0.1533
  611MOL0     C82352   5.612   5.420  10.587 -0.1477  0.0179 -0.3146
  611MOL0     O82353   5.487   5.441  10.548  0.5215  0.0697 -0.0380
  611MOL0     C82354   5.369   5.392  10.611 -0.1187  0.6218  0.8496
  611MOL0     C82355   5.261   5.476  10.594 -0.5790  0.2969 -0.0720
  611MOL0     C82356   5.142   5.434  10.646 -0.2500  0.1598 -1.1759
  611MOL0     C82357   5.120   5.314  10.704  0.1187  0.4421 -0.4995
  611MOL0     O82358   5.005   5.261  10.746  0.3792  0.1095 -0.3014
  611MOL0     C82359   4.892   5.342  10.779  0.2357 -0.5692 -0.0139
  611MOL0     C82360   4.770   5.268  10.815 -0.6699 -0.0210  0.3326
  611MOL0     C82361   4.664   5.352  10.879  0.4347  0.7427 -0.1615
  611MOL0     C82362   4.552   5.268  10.921 -0.6020  0.2711 -0.4773
  611MOL0     C82363   4.457   5.349  11.005 -0.1056  0.4739  0.3509
  611MOL0     C82364   4.409   5.479  10.940  0.1198  0.0511 -0.2940
  611MOL0     C82365   4.360   5.483  10.790 -0.7345  1.1363 -0.0963
  611MOL0     C82366   4.351   5.630  10.746 -0.0492 -0.0936 -1.2305
  611MOL0     N82367   4.484   5.679  10.706  0.1368 -0.1028  0.1026
  611MOL0     C82368   4.579   5.727  10.793 -0.7486 -0.4955  0.8443
  611MOL0     C82369   4.692   5.755  10.712  0.1940 -0.0975  0.1563
  611MOL0     C82370   4.827   5.817  10.755 -0.3339  0.1446 -0.4022
  611MOL0     C82371   4.944   5.724  10.782 -1.2746  0.2608  0.6031
  611MOL0     C82372   5.036   5.778  10.886 -0.3773  0.4902  0.8038
  611MOL0     C82373   5.160   5.695  10.915 -0.4424 -0.3187 -0.4366
  611MOL0     O82374   5.125   5.562  10.973  0.5678 -0.4960  0.0700
  611MOL0     C82375   5.213   5.466  10.996 -0.2436 -0.4788 -0.0333
  611MOL0     C82376   5.171   5.349  11.049  0.2861  0.7465  0.3754
  611MOL0     C82377   5.252   5.241  11.095 -0.0039 -0.2794  0.3250
  611MOL0     C82378   5.394   5.258  11.086  0.2288  0.5195  0.0226
  611MOL0     C82379   5.484   5.149  11.112  0.1742 -0.2379  0.7655
  611MOL0     O82380   5.611   5.169  11.072 -0.1484 -0.1257  0.3115
  611MOL0     C82381   5.719   5.083  11.071  0.4976 -0.8190  0.0580
  611MOL0     C82382   5.848   5.132  11.075 -0.5472 -0.1155  0.1301
  611MOL0     C82383   5.963   5.057  11.045 -0.2325 -0.1817 -0.5870
  611MOL0     C82384   5.952   4.919  11.016 -0.6603 -0.1290 -0.4140
  611MOL0     O82385   6.063   4.847  10.978  0.3025 -0.5271 -0.0281
  611MOL0     C82386   6.057   4.704  10.937 -0.0547  0.0782 -0.1099
  611MOL0     C82387   6.200   4.670  10.899 -0.1875  0.7250 -0.0562
  611MOL0     C82388   6.290   4.632  11.023  0.0187 -0.2639 -0.5138
  611MOL0     C82389   6.418   4.571  10.973  0.3748 -0.4685 -0.2352
  611MOL0     C82390   6.508   4.525  11.084 -1.1144 -0.1890 -0.0346
  611MOL0     C82391   6.620   4.439  11.031 -0.6400 -0.3469 -0.2435
  611MOL0     C82392   6.706   4.487  10.910  0.2748  0.4975  0.0603
  611MOL0     C82393   6.831   4.399  10.894  0.7070  0.1971 -0.3291
  611MOL0    Cl82394   6.947   4.425  11.024 -0.3552 -0.0345  0.2114
  611MOL0     C82395   5.826   4.858  11.034 -0.9615 -0.6692  0.3146
  611MOL0     C82396   5.715   4.944  11.044  0.3946  0.0197  0.3517
  611MOL0     O82397   5.448   5.045  11.169  0.4153 -0.3149  0.2465
  611MOL0     C82398   5.440   5.377  11.031 -0.0288  0.1266  0.8133
  611MOL0     C82399   5.354   5.477  10.976 -0.2026 -0.4377 -1.1665
  611MOL0     N82400   4.653   5.733  10.582  0.0246  0.9047  0.4189
  611MOL0     N82401   4.532   5.691  10.583 -0.3156  0.6749 -0.0651
  611MOL0     C82402   5.230   5.226  10.715 -0.0354  0.0632  0.1798
  611MOL0     C82403   5.356   5.271  10.672 -0.4168 -0.3283  0.1312
  611MOL0     C82404   5.725   5.467  10.499  0.9464 -0.9381  0.3688
  611MOL0     C82405   5.696   5.499  10.364  0.2843  0.2990 -0.4196
  611MOL0     C82406   5.797   5.515  10.264  0.5002  0.2018 -0.0571
  611MOL0     C82407   5.931   5.511  10.315  1.5197 -0.6115  0.3285
  611MOL0     O82408   6.046   5.521  10.242 -0.4850 -0.0857  0.2453
  611MOL0     C82409   6.043   5.558  10.106  0.3979  1.3271  0.4481
  611MOL0     C82410   6.189   5.560  10.047  0.3043  0.1208  0.3941
  611MOL0     C82411   6.272   5.433  10.080 -0.6180  1.1232  0.7724
  611MOL0     C82412   6.200   5.296  10.061  0.0464 -0.6555 -0.2574
  611MOL0     C82413   6.176   5.279   9.924 -0.0252 -0.3003 -0.0454
  611MOL0     C82414   6.164   5.257   9.809  0.1667 -0.3847  0.6968
  611MOL0     C82415   5.953   5.499  10.450 -0.1073  0.1177  1.0122
  611MOL0     C82416   5.857   5.479  10.538  0.2661  0.1794 -0.5801
  611MOL0     C82417   5.909   5.471  10.682 -0.0131  0.6346  0.4779
  611MOL0     H82418   5.268   5.568  10.537  0.7790  0.9638  1.1035
  611MOL0     H82419   5.059   5.503  10.643  0.4454  0.9965 -2.5073
  611MOL0     H82420   4.912   5.411  10.861 -1.3229 -1.8086  1.4879
  611MOL0     H82421   4.871   5.401  10.690  0.3192  0.3077  0.5400
  611MOL0     H82422   4.802   5.187  10.882 -0.2199  0.5256  0.7924
  611MOL0     H82423   4.736   5.218  10.724 -1.0183 -1.6575  1.3289
  611MOL0     H82424   4.619   5.419  10.805  0.8177 -1.6861 -2.7829
  611MOL0     H82425   4.713   5.402  10.964 -0.0942 -2.5446  2.2764
  611MOL0     H82426   4.491   5.229  10.840 -2.1130  2.5053 -0.4977
  611MOL0     H82427   4.592   5.190  10.987 -3.8148  0.5321  2.0726
  611MOL0     H82428   4.376   5.279  11.024  1.2819 -1.5355 -0.8376
  611MOL0     H82429   4.491   5.376  11.105 -0.3311  1.1134  0.2615
  611MOL0     H82430   4.331   5.527  11.000 -1.3566  1.8849 -3.3917
  611MOL0     H82431   4.493   5.549  10.949 -3.1423  4.6104 -1.4815
  611MOL0     H82432   4.269   5.423  10.792  0.3081 -0.7241 -2.8727
  611MOL0     H82433   4.433   5.440  10.721  2.2810 -0.1165  3.5335
  611MOL0     H82434   4.282   5.615  10.663  1.4208 -3.1610 -2.0420
  611MOL0     H82435   4.306   5.696  10.821 -0.5597 -0.0791 -1.5500
  611MOL0     H82436   4.588   5.715  10.901 -1.2314 -2.6727  0.6948
  611MOL0     H82437   4.860   5.904  10.697  0.1623 -0.3506 -0.8703
  611MOL0     H82438   4.800   5.848  10.857 -5.7294 -0.8813 -1.1910
  611MOL0     H82439   4.906   5.624  10.806 -2.8686  0.8088  0.4603
  611MOL0     H82440   4.996   5.717  10.686 -2.7635 -1.6218 -0.1351
  611MOL0     H82441   4.985   5.793  10.981  1.1071  2.0890  1.3894
  611MOL0     H82442   5.079   5.873  10.855  1.9010 -0.5512  0.5662
  611MOL0     H82443   5.231   5.746  10.980 -1.9184  2.4500 -0.8893
  611MOL0     H82444   5.217   5.679  10.822  0.3714  1.7856 -0.3353
  611MOL0     H82445   5.066   5.324  11.046  0.3179  0.5849  0.5706
  611MOL0     H82446   5.204   5.151  11.131 -0.6340 -0.7492 -1.5998
  611MOL0     H82447   5.883   5.233  11.095 -0.8403 -0.0351  0.2474
  611MOL0     H82448   6.056   5.111  11.034  1.7773 -3.2943 -0.0114
  611MOL0     H82449   6.028   4.642  11.023 -0.8159 -0.4549 -0.7409
  611MOL0     H82450   5.988   4.695  10.853 -2.0315 -2.7526  1.6286
  611MOL0     H82451   6.205   4.578  10.839 -2.9694  2.7706 -3.8091
  611MOL0     H82452   6.248   4.739  10.829  0.8048 -0.7413 -0.8796
  611MOL0     H82453   6.309   4.728  11.073 -0.9246  0.4254 -1.4428
  611MOL0     H82454   6.238   4.559  11.085  1.6628 -0.3137  0.8820
  611MOL0     H82455   6.464   4.652  10.917 -0.5954 -0.2943 -0.8014
  611MOL0     H82456   6.403   4.495  10.896 -4.4881 -1.2934  1.1700
  611MOL0     H82457   6.445   4.470  11.154 -1.0972  1.8970  1.6972
  611MOL0     H82458   6.546   4.604  11.149 -1.0611  0.5914 -0.9841
  611MOL0     H82459   6.686   4.427  11.117 -2.0684  0.6088  1.0286
  611MOL0     H82460   6.583   4.340  11.002  0.8874 -2.0425  3.0595
  611MOL0     H82461   6.743   4.588  10.930  3.9895 -0.6090 -0.6271
  611MOL0     H82462   6.639   4.483  10.823  0.2204 -3.2392  0.1162
  611MOL0     H82463   6.799   4.296  10.909 -0.0786  0.5576  0.5732
  611MOL0     H82464   6.873   4.424  10.796  0.7950  0.9212 -0.1183
  611MOL0     H82465   5.812   4.751  11.023  1.5543 -0.9598 -0.7059
  611MOL0     H82466   5.618   4.898  11.029  0.6977 -1.3180  2.2003
  611MOL0     H82467   5.544   5.406  11.017 -0.4634  2.0915  1.4542
  611MOL0     H82468   5.393   5.564  10.924  0.5211  0.4697  0.8061
  611MOL0     H82469   5.213   5.122  10.740  0.3912 -0.4436 -1.5112
  611MOL0     H82470   5.434   5.196  10.667 -1.8236 -1.9074  1.0063
  611MOL0     H82471   5.592   5.499  10.334 -0.1580  0.5795  1.0415
  611MOL0     H82472   5.768   5.521  10.160 -1.5208  2.7903  0.5601
  611MOL0     H82473   5.986   5.650  10.091  0.8723  1.8545  1.7107
  611MOL0     H82474   5.991   5.476  10.055  2.9150  0.2997 -0.6472
  611MOL0     H82475   6.250   5.644  10.080 -1.5770  1.2931  1.0501
  611MOL0     H82476   6.177   5.570   9.939 -2.6445 -1.2772  0.5067
  611MOL0     H82477   6.314   5.429  10.181  0.3638 -1.6600  0.3507
  611MOL0     H82478   6.349   5.432  10.002 -2.7210 -2.8017 -1.5439
  611MOL0     H82479   6.260   5.210  10.095 -0.2027 -0.6445  0.2267
  611MOL0     H82480   6.116   5.274  10.128  1.3389 -2.3631  0.9333
  611MOL0     H82481   6.145   5.247   9.704 -1.9991  0.4726  0.9480
  611MOL0     H82482   6.058   5.507  10.478  0.2058 -2.0228  0.6487
  611MOL0     H82483   5.865   5.389  10.739 -1.9843  2.5020  1.8060
  611MOL0     H82484   6.018   5.466  10.687  0.1981  1.8847 -1.7099
  611MOL0     H82485   5.884   5.559  10.742 -1.9319  0.5944 -0.2002
  612MOL0     O82486  10.745   5.316  10.580  0.0946  0.3594 -0.3852
  612MOL0     C82487  10.714   5.228  10.665  0.2558 -0.4934  0.0548
  612MOL0     O82488  10.803   5.156  10.735  0.6530  0.0225 -0.8272
  612MOL0     C82489  10.931   5.196  10.760  0.4944  0.7052 -0.0572
  612MOL0     C82490  10.943   5.328  10.806  0.5889  0.4645 -0.5643
  612MOL0     C82491  11.066   5.375  10.843  0.6555 -0.6052 -0.3294
  612MOL0     C82492  11.189   5.297  10.826  0.2713  0.0295  0.4474
  612MOL0     O82493  11.310   5.345  10.876 -0.2719 -0.5350  0.1009
  612MOL0     C82494  11.427   5.299  10.824  0.5554  0.6487 -0.3889
  612MOL0     C82495  11.551   5.370  10.885 -0.0727 -0.0187 -0.0648
  612MOL0     C82496  11.688   5.297  10.850  0.1663  0.1137 -0.5664
  612MOL0     C82497  11.696   5.252  10.710  0.1182  0.2603  0.4168
  612MOL0     C82498  11.842   5.249  10.676  0.3209 -0.2780  0.0051
  612MOL0     C82499  11.855   5.203  10.526 -1.0823 -0.3150  0.1987
  612MOL0     C82500  11.987   5.114  10.488  0.0089  1.0031 -0.6505
  612MOL0     C82501  11.974   4.990  10.577  0.2593 -0.3618  0.7013
  612MOL0     N82502  12.060   4.885  10.521  0.7945 -0.0480  0.0149
  612MOL0     C82503  12.065   4.837  10.390  0.1681  0.7078 -0.1719
  612MOL0     C82504  12.161   4.740  10.398  0.6548 -0.2942 -0.0353
  612MOL0     C82505  12.213   4.658  10.287  1.2448  0.2635 -0.3619
  612MOL0     C82506  12.319   4.734  10.213 -0.2578 -0.0684  0.4373
  612MOL0     C82507  12.298   4.886  10.178 -1.1469 -0.4340 -0.5124
  612MOL0     C82508  12.370   4.963  10.290 -0.0767  0.1237  0.9544
  612MOL0     O82509  12.367   5.105  10.260  0.1580 -0.0026 -0.2838
  612MOL0     C82510  12.439   5.159  10.159  0.3308  0.3495 -1.0087
  612MOL0     C82511  12.417   5.299  10.147 -0.8540  0.0180  0.0926
  612MOL0     C82512  12.491   5.367  10.045  0.3069 -0.4545  0.1784
  612MOL0     C82513  12.594   5.312   9.984  0.4300  0.0106 -0.2079
  612MOL0     C82514  12.698   5.387   9.910  0.0419  0.6267 -0.0027
  612MOL0     O82515  12.775   5.300   9.832  0.0560 -0.8322  0.3448
  612MOL0     C82516  12.915   5.326   9.821 -0.3660 -0.2174  0.0197
  612MOL0     C82517  12.996   5.375   9.929 -0.0582 -0.0639 -0.5102
  612MOL0     C82518  13.130   5.399   9.930  0.1574  0.1354 -0.1724
  612MOL0     C82519  13.199   5.369   9.809  0.2130  0.0220 -0.7095
  612MOL0     O82520  13.325   5.414   9.821  0.1533  0.0486  0.6024
  612MOL0     C82521  13.419   5.320   9.757  0.2736 -0.9547 -0.0909
  612MOL0     C82522  13.569   5.346   9.812  1.0399 -0.4202 -0.4414
  612MOL0     C82523  13.641   5.463   9.745 -0.8790 -0.5726 -0.7204
  612MOL0     C82524  13.583   5.601   9.760 -0.4876 -0.1295 -0.1442
  612MOL0     C82525  13.628   5.693   9.651 -0.0421  0.1784  1.1561
  612MOL0     C82526  13.561   5.829   9.648  0.4447  0.2353 -0.5106
  612MOL0     C82527  13.590   5.895   9.516  0.2255  0.2691  1.0159
  612MOL0     C82528  13.494   6.014   9.483  0.5447  0.1733 -0.2839
  612MOL0    Cl82529  13.445   6.127   9.620 -0.5052 -0.2359 -0.1855
  612MOL0     C82530  13.132   5.328   9.693  0.8355  0.8112 -0.1525
  612MOL0     C82531  12.989   5.307   9.703  0.5043 -0.0418  0.4934
  612MOL0     O82532  12.702   5.514   9.916  0.5560 -0.0424  0.0515
  612MOL0     C82533  12.615   5.176  10.005 -0.1070  0.1556  0.1820
  612MOL0     C82534  12.546   5.104  10.099 -0.0087  0.8547  0.4594
  612MOL0     N82535  12.214   4.730  10.530  0.4684 -0.7551 -0.2316
  612MOL0     N82536  12.154   4.817  10.597  0.6399  0.6512 -0.3684
  612MOL0     C82537  11.170   5.167  10.779  0.7941 -0.1395 -0.0927
  612MOL0     C82538  11.041   5.112  10.745 -0.4878 -0.2423 -0.2935
  612MOL0     C82539  10.567   5.192  10.683 -1.0090  1.3231 -0.3435
  612MOL0     C82540  10.523   5.169  10.812 -0.7130  0.4504 -0.6418
  612MOL0     C82541  10.385   5.141  10.838 -0.5772 -1.1758 -0.1957
  612MOL0     C82542  10.294   5.157  10.735  0.0385  1.0766 -1.1665
  612MOL0     O82543  10.163   5.131  10.738  0.4952 -0.7941  0.1434
  612MOL0     C82544  10.098   5.118  10.860 -0.0221  0.5104 -0.2406
  612MOL0     C82545   9.937   5.114  10.838 -0.0724 -1.2318 -0.1658
  612MOL0     C82546   9.861   5.128  10.976  0.3364 -1.0801  0.5834
  612MOL0     C82547   9.709   5.172  10.962  0.0462  1.1307  1.1419
  612MOL0     C82548   9.660   5.220  11.098  0.7772  0.0732 -0.3372
  612MOL0     C82549   9.637   5.267  11.209 -0.2405  0.4715  0.3852
  612MOL0     C82550  10.340   5.175  10.605  0.7373  0.6319 -0.0965
  612MOL0     C82551  10.471   5.197  10.577  0.9236  0.7428  0.0108
  612MOL0     C82552  10.512   5.208  10.426 -0.1865  0.8120  1.0173
  612MOL0     H82553  10.857   5.392  10.825 -0.9700 -1.4019 -0.9868
  612MOL0     H82554  11.081   5.472  10.889 -1.7009  0.4170 -1.5330
  612MOL0     H82555  11.433   5.191  10.844  0.0635  0.3705 -1.6203
  612MOL0     H82556  11.421   5.309  10.716  1.9421  0.4991 -0.4878
  612MOL0     H82557  11.550   5.391  10.992 -0.2634 -1.7155  0.2934
  612MOL0     H82558  11.548   5.474  10.853 -0.1794  0.1719  0.5613
  612MOL0     H82559  11.700   5.219  10.926 -1.4643  1.7969  1.5976
  612MOL0     H82560  11.772   5.358  10.882  2.0949 -2.0411 -1.2946
  612MOL0     H82561  11.662   5.149  10.699 -2.9287  1.2488 -0.1351
  612MOL0     H82562  11.652   5.319  10.636  2.3793 -2.0829 -3.3656
  612MOL0     H82563  11.892   5.346  10.683  0.9252 -0.4889 -1.0997
  612MOL0     H82564  11.892   5.182  10.746  3.1168 -0.6010 -2.1235
  612MOL0     H82565  11.771   5.135  10.507  0.0881 -1.9070  0.5492
  612MOL0     H82566  11.842   5.284  10.453 -0.1899 -0.6361 -0.3314
  612MOL0     H82567  12.085   5.163  10.496 -0.6034  2.1503  0.1475
  612MOL0     H82568  11.973   5.089  10.382 -1.1797  1.8439 -0.7107
  612MOL0     H82569  12.004   5.009  10.680 -0.2942 -0.5467  0.8978
  612MOL0     H82570  11.871   4.954  10.578 -0.3171  1.2483  1.2279
  612MOL0     H82571  11.995   4.863  10.311  1.9363  0.8644 -1.7343
  612MOL0     H82572  12.252   4.565  10.329 -2.7042 -1.4923 -0.1124
  612MOL0     H82573  12.126   4.623  10.231  0.4894 -1.3485  1.6654
  612MOL0     H82574  12.415   4.726  10.264 -0.6194 -1.2629  0.9859
  612MOL0     H82575  12.349   4.683  10.121  2.9661  1.7258  0.3813
  612MOL0     H82576  12.195   4.921  10.166 -1.0845 -0.3065 -0.6863
  612MOL0     H82577  12.347   4.904  10.082  4.4181 -1.4661  1.7558
  612MOL0     H82578  12.475   4.931  10.289 -0.1075 -0.0650  2.0041
  612MOL0     H82579  12.331   4.943  10.390  0.2389 -2.1904  0.6832
  612MOL0     H82580  12.337   5.342  10.206 -1.4916 -1.8788  0.6695
  612MOL0     H82581  12.471   5.471  10.025  1.0334 -0.6486 -1.7107
  612MOL0     H82582  12.956   5.389  10.029 -0.0137 -0.9099 -0.3634
  612MOL0     H82583  13.180   5.427  10.022 -0.0548 -1.1787  0.3523
  612MOL0     H82584  13.395   5.217   9.782 -0.2850 -1.3326 -2.0821
  612MOL0     H82585  13.426   5.335   9.649  2.5907  1.7622  0.3031
  612MOL0     H82586  13.556   5.373   9.917  0.4429  1.3389 -0.9370
  612MOL0     H82587  13.619   5.250   9.794 -1.1822 -1.5105 -1.1733
  612MOL0     H82588  13.741   5.466   9.790 -1.3341  5.6235  0.7532
  612MOL0     H82589  13.648   5.441   9.638  1.1665 -0.4696 -0.6554
  612MOL0     H82590  13.628   5.643   9.851  0.6923  0.9497 -1.1865
  612MOL0     H82591  13.474   5.606   9.753 -0.3364  2.3123 -1.9401
  612MOL0     H82592  13.604   5.651   9.553 -1.6258  2.5700  0.4189
  612MOL0     H82593  13.735   5.703   9.668  0.2402 -2.5044  1.3236
  612MOL0     H82594  13.453   5.810   9.653  0.5565 -0.2256  2.9972
  612MOL0     H82595  13.588   5.890   9.735 -0.5760  4.3680 -2.8494
  612MOL0     H82596  13.580   5.819   9.437  1.7410 -1.4138  2.3497
  612MOL0     H82597  13.693   5.931   9.523  1.0377 -1.0785 -2.2740
  612MOL0     H82598  13.531   6.082   9.406  0.4354  0.9040  0.2964
  612MOL0     H82599  13.403   5.961   9.452 -0.0701  0.7161  0.5301
  612MOL0     H82600  13.186   5.305   9.602 -0.3255 -0.6745 -0.5052
  612MOL0     H82601  12.922   5.271   9.626 -0.2694  2.9993 -0.3864
  612MOL0     H82602  12.695   5.129   9.948 -0.0948 -0.9121  1.0462
  612MOL0     H82603  12.561   4.998  10.116  0.2869  0.7923 -0.1659
  612MOL0     H82604  11.256   5.104  10.762  3.9177  3.3962  1.2518
  612MOL0     H82605  11.019   5.015  10.701 -0.5195 -0.0650 -0.6701
  612MOL0     H82606  10.595   5.172  10.893  0.7537 -0.2320 -1.8785
  612MOL0     H82607  10.360   5.107  10.938  1.7465 -1.3047  0.3918
  612MOL0     H82608  10.114   5.199  10.932 -5.2893 -0.0853  2.1096
  612MOL0     H82609  10.122   5.022  10.908  0.3263 -0.6194 -2.5458
  612MOL0     H82610   9.907   5.023  10.786 -0.7263 -1.1722  0.1047
  612MOL0     H82611   9.913   5.204  10.781  1.1458 -1.4243 -1.0271
  612MOL0     H82612   9.897   5.203  11.047 -0.0122  0.6851 -1.0445
  612MOL0     H82613   9.872   5.029  11.022 -1.4647 -1.4884  0.2202
  612MOL0     H82614   9.698   5.260  10.899  1.9446 -0.6283 -1.9125
  612MOL0     H82615   9.652   5.088  10.921  1.7761  0.2562  0.4143
  612MOL0     H82616   9.624   5.308  11.307  3.0399  1.0322  0.6974
  612MOL0     H82617  10.266   5.186  10.526  0.9346  3.0817 -0.0230
  612MOL0     H82618  10.538   5.311  10.400  2.8120 -0.0898  0.0684
  612MOL0     H82619  10.594   5.138  10.411 -1.5966 -0.7020  0.0204
  612MOL0     H82620  10.424   5.167  10.376 -0.3907 -1.6479  3.1671
  613MOL0     O82621   4.173   0.910   0.865 -0.5348 -0.0399 -0.1566
  613MOL0     C82622   4.142   1.019   0.826  1.2237 -0.8269 -0.3027
  613MOL0     O82623   4.073   1.043   0.705  0.5757  0.1364  0.5378
  613MOL0     C82624   4.045   0.931   0.636  0.2868  0.4580  0.8291
  613MOL0     C82625   3.931   0.863   0.671 -0.4086 -0.0959 -0.2488
  613MOL0     C82626   3.886   0.756   0.598 -0.6471  0.3946 -0.5234
  613MOL0     C82627   3.971   0.715   0.491  0.2262 -0.0231  0.1742
  613MOL0     O82628   3.908   0.631   0.407  0.0159 -0.7246  1.0872
  613MOL0     C82629   3.974   0.585   0.299  1.1247 -0.3432  0.7217
  613MOL0     C82630   3.886   0.483   0.233 -1.0153  0.1525  0.2971
  613MOL0     C82631   3.966   0.405   0.130 -0.4728 -0.0061  0.1336
  613MOL0     C82632   3.876   0.304   0.057  0.1178  0.0527  0.3569
  613MOL0     C82633   3.952   0.235  -0.055 -0.2708 -0.6465 -0.3570
  613MOL0     C82634   3.856   0.149  -0.128 -0.1221  0.8841 -0.5330
  613MOL0     C82635   3.933   0.064  -0.239  0.2618 -0.4216 -1.4084
  613MOL0     C82636   3.831   0.011  -0.328  0.3754  0.0800  0.1464
  613MOL0     N82637   3.887  -0.078  -0.435 -0.3182  0.0993 -0.2034
  613MOL0     C82638   3.851  -0.203  -0.453 -0.2707 -0.2947  0.1172
  613MOL0     C82639   3.935  -0.257  -0.542  0.2699  0.4775  0.0254
  613MOL0     C82640   3.930  -0.403  -0.573  0.3217 -0.1100 -0.0970
  613MOL0     C82641   4.015  -0.447  -0.691 -0.3983  0.2618  0.2098
  613MOL0     C82642   3.993  -0.592  -0.725  0.6374 -0.0024 -0.9633
  613MOL0     C82643   4.073  -0.643  -0.837  1.3195 -0.1147  0.6269
  613MOL0     O82644   4.217  -0.665  -0.823 -0.3216 -0.0053  0.0923
  613MOL0     C82645   4.264  -0.781  -0.757  0.0047 -0.1531  0.0622
  613MOL0     C82646   4.176  -0.860  -0.676 -0.2562 -0.0484  0.2355
  613MOL0     C82647   4.231  -0.960  -0.601  0.8757 -0.0782  0.5247
  613MOL0     C82648   4.376  -0.985  -0.599 -0.5042 -0.2835  0.6420
  613MOL0     C82649   4.437  -1.093  -0.529 -0.5279  0.0912 -0.4429
  613MOL0     O82650   4.580  -1.089  -0.499 -0.0660 -1.0714  0.5453
  613MOL0     C82651   4.622  -1.203  -0.427 -0.0949 -0.0817  0.1921
  613MOL0     C82652   4.623  -1.329  -0.477 -0.1693  0.0464 -0.6776
  613MOL0     C82653   4.661  -1.437  -0.394  0.3548 -0.1832 -1.2540
  613MOL0     C82654   4.702  -1.406  -0.260 -0.2188  0.4860 -0.4454
  613MOL0     O82655   4.741  -1.492  -0.157  0.0097 -0.9749 -0.3471
  613MOL0     C82656   4.748  -1.631  -0.189 -0.3385  1.0769  0.3599
  613MOL0     C82657   4.838  -1.730  -0.110 -0.4653 -0.6858 -0.2255
  613MOL0     C82658   4.814  -1.728   0.041  0.2679 -0.9165 -0.9600
  613MOL0     C82659   4.890  -1.846   0.109  0.1446  0.0596 -0.1164
  613MOL0     C82660   4.814  -1.984   0.109  0.0422  0.6296 -0.5141
  613MOL0     C82661   4.913  -2.102   0.140  0.5885  0.3642  0.2416
  613MOL0     C82662   4.852  -2.233   0.084  0.7713 -0.2626  1.0260
  613MOL0     C82663   4.910  -2.347   0.145 -0.3033  0.1264 -0.7721
  613MOL0    Cl82664   4.827  -2.490   0.058 -0.7414  0.4898 -0.1037
  613MOL0     C82665   4.698  -1.278  -0.203  1.3854  0.2331  0.3938
  613MOL0     C82666   4.654  -1.175  -0.294 -0.0543  0.7962  0.3572
  613MOL0     O82667   4.362  -1.184  -0.500 -0.8786 -0.3272 -0.0446
  613MOL0     C82668   4.462  -0.902  -0.676 -0.2148  0.1584  0.6652
  613MOL0     C82669   4.399  -0.803  -0.758  0.3312  0.6763  0.4855
  613MOL0     N82670   4.024  -0.156  -0.576 -0.0875  0.8606  0.9689
  613MOL0     N82671   3.998  -0.051  -0.517  0.0211 -0.8497 -0.9925
  613MOL0     C82672   4.089   0.786   0.453 -0.4478 -0.5199  0.6824
  613MOL0     C82673   4.128   0.895   0.532 -0.3052  0.9441 -0.3040
  613MOL0     C82674   4.186   1.136   0.915 -0.3100  0.1903  1.1524
  613MOL0     C82675   4.296   1.112   1.012 -0.1926 -0.1371  0.1133
  613MOL0     C82676   4.341   1.218   1.089 -0.5808 -0.1512 -0.7166
  613MOL0     C82677   4.290   1.347   1.082  1.1753 -0.0862 -0.5343
  613MOL0     O82678   4.333   1.438   1.174  0.0968  0.4349  0.2499
  613MOL0     C82679   4.340   1.572   1.129 -0.0991  0.9147 -0.0386
  613MOL0     C82680   4.376   1.686   1.219 -0.2505 -0.7868 -0.2542
  613MOL0     C82681   4.248   1.702   1.310  0.5046  0.1715  0.2799
  613MOL0     C82682   4.266   1.815   1.414  1.4109 -0.9946 -0.4446
  613MOL0     C82683   4.167   1.820   1.521  0.3112 -0.0094 -0.3301
  613MOL0     C82684   4.085   1.816   1.608  1.2148 -1.1406  0.3878
  613MOL0     C82685   4.203   1.375   0.979  0.7424  0.2079  0.5503
  613MOL0     C82686   4.135   1.269   0.902 -0.7662  0.1352 -1.0723
  613MOL0     C82687   4.028   1.309   0.814  0.6193  0.0497 -0.1368
  613MOL0     H82688   3.864   0.895   0.750  0.0712  2.5040 -0.8219
  613MOL0     H82689   3.795   0.709   0.634 -1.2629  0.1473 -2.3375
  613MOL0     H82690   4.006   0.669   0.235 -0.6782 -0.5010 -0.4517
  613MOL0     H82691   4.072   0.537   0.312  2.6918  1.4564 -2.9020
  613MOL0     H82692   3.795   0.526   0.189 -1.2897 -0.5054  0.2079
  613MOL0     H82693   3.852   0.414   0.311  1.0098 -1.0517  0.1796
  613MOL0     H82694   4.052   0.356   0.178  2.5967  3.5509 -1.2032
  613MOL0     H82695   4.026   0.471   0.066  1.5032 -0.4903  1.3768
  613MOL0     H82696   3.830   0.229   0.123 -0.2974 -0.4999 -0.5353
  613MOL0     H82697   3.797   0.362   0.009  1.6979  1.5658 -0.5285
  613MOL0     H82698   3.990   0.316  -0.118 -1.5931 -0.9557 -1.6124
  613MOL0     H82699   4.033   0.166  -0.027 -1.3903 -3.3904 -3.3067
  613MOL0     H82700   3.798   0.086  -0.059 -0.1490  2.0818  0.5638
  613MOL0     H82701   3.777   0.208  -0.176 -1.4152  0.3624  0.8576
  613MOL0     H82702   3.985  -0.019  -0.192 -2.4087 -1.1023  0.6024
  613MOL0     H82703   3.999   0.128  -0.299  0.4549  0.2411 -0.5093
  613MOL0     H82704   3.760  -0.028  -0.254 -1.9466  0.5711 -1.6924
  613MOL0     H82705   3.783   0.100  -0.372 -1.1954 -0.2009  1.2332
  613MOL0     H82706   3.778  -0.252  -0.389 -0.2626 -1.8091 -0.9703
  613MOL0     H82707   3.966  -0.456  -0.485 -1.6432 -0.6555  0.4426
  613MOL0     H82708   3.824  -0.430  -0.585  0.0476  0.3406  1.1740
  613MOL0     H82709   4.002  -0.385  -0.781  3.4025  0.0302 -0.6823
  613MOL0     H82710   4.117  -0.438  -0.654 -0.1079  0.7521 -0.6785
  613MOL0     H82711   3.888  -0.587  -0.757  0.6650  1.8288 -0.8875
  613MOL0     H82712   4.009  -0.658  -0.640 -0.0841  0.1812 -0.6813
  613MOL0     H82713   4.077  -0.566  -0.915 -2.2319 -1.2098 -0.8001
  613MOL0     H82714   4.018  -0.727  -0.880 -3.3285  0.8988  3.9488
  613MOL0     H82715   4.069  -0.847  -0.679 -0.3713 -0.7484  1.0202
  613MOL0     H82716   4.162  -1.021  -0.544  0.5624 -1.3365 -1.1256
  613MOL0     H82717   4.584  -1.352  -0.576 -1.4283 -0.9928  0.0421
  613MOL0     H82718   4.656  -1.535  -0.441 -1.6166 -0.2352 -1.0171
  613MOL0     H82719   4.648  -1.675  -0.197  0.1904 -0.0618 -0.2512
  613MOL0     H82720   4.792  -1.642  -0.289  1.5556  0.9333  1.1750
  613MOL0     H82721   4.816  -1.828  -0.153 -0.3737  0.2094 -2.4737
  613MOL0     H82722   4.939  -1.696  -0.133 -0.4120 -1.1079 -0.6321
  613MOL0     H82723   4.853  -1.632   0.075  0.0122 -1.4074  0.7987
  613MOL0     H82724   4.707  -1.736   0.063  0.4185 -2.9932 -0.7801
  613MOL0     H82725   4.903  -1.830   0.217 -0.4470 -0.4298  0.0333
  613MOL0     H82726   4.988  -1.841   0.060  0.0514 -2.6289 -0.7442
  613MOL0     H82727   4.773  -2.001   0.009  0.4092 -0.4212 -0.4896
  613MOL0     H82728   4.725  -1.981   0.173 -0.0425  1.6254 -0.6535
  613MOL0     H82729   5.013  -2.090   0.098  1.3049 -3.1010  0.6470
  613MOL0     H82730   4.912  -2.113   0.248  1.0023 -0.7436  0.1435
  613MOL0     H82731   4.851  -2.240  -0.025 -1.8061  3.1741  0.6317
  613MOL0     H82732   4.747  -2.226   0.115  1.0962 -0.8927  2.3349
  613MOL0     H82733   5.017  -2.352   0.120 -0.1192  2.4646 -0.7306
  613MOL0     H82734   4.890  -2.349   0.252  3.9423 -1.8757  0.2081
  613MOL0     H82735   4.694  -1.252  -0.098 -1.8544 -1.5756  0.8500
  613MOL0     H82736   4.642  -1.075  -0.254 -3.2031  0.1533  1.2224
  613MOL0     H82737   4.570  -0.906  -0.666 -0.3775 -1.3930  2.3858
  613MOL0     H82738   4.460  -0.737  -0.818 -1.4828  1.2770 -0.7918
  613MOL0     H82739   4.141   0.769   0.360  0.6982  0.9606  1.0052
  613MOL0     H82740   4.220   0.945   0.505  0.9323 -1.9964 -2.0978
  613MOL0     H82741   4.340   1.013   1.022  0.3125 -0.3755 -3.2047
  613MOL0     H82742   4.424   1.191   1.154 -1.8536 -1.2754  0.5112
  613MOL0     H82743   4.244   1.611   1.095  0.7026  4.6611  1.5151
  613MOL0     H82744   4.403   1.558   1.040  0.3539 -0.6905  0.4865
  613MOL0     H82745   4.399   1.774   1.158  4.3058 -1.4907  0.0737
  613MOL0     H82746   4.466   1.656   1.273 -0.8698 -0.2946  1.0988
  613MOL0     H82747   4.231   1.608   1.364 -1.0802  0.3523  0.1326
  613MOL0     H82748   4.163   1.726   1.245  1.9142  2.0636 -0.9391
  613MOL0     H82749   4.368   1.804   1.450  1.1755 -3.0990 -0.3379
  613MOL0     H82750   4.256   1.908   1.357 -3.0347 -0.8068  0.2763
  613MOL0     H82751   4.019   1.823   1.692  2.2119  0.2069  1.0863
  613MOL0     H82752   4.149   1.469   0.972  2.5135  1.2438  0.1430
  613MOL0     H82753   3.985   1.407   0.837  2.0114  1.1318 -1.9048
  613MOL0     H82754   4.063   1.324   0.712  0.9754  1.3954  0.1580
  613MOL0     H82755   3.944   1.239   0.810  1.0259 -0.6354  1.9416
  614MOL0     O82756   0.600   4.833   9.668  0.1726  0.1188 -0.1056
  614MOL0     C82757   0.701   4.876   9.726  0.5865 -0.5002 -0.5869
  614MOL0     O82758   0.770   4.809   9.825 -0.4065 -0.1154 -0.1033
  614MOL0     C82759   0.710   4.692   9.870 -0.3868  0.5326  0.2268
  614MOL0     C82760   0.575   4.693   9.911 -0.2844  0.9664  0.6354
  614MOL0     C82761   0.511   4.580   9.957  0.1194  0.1773 -0.1439
  614MOL0     C82762   0.571   4.453   9.943 -0.4140 -0.1798  0.1710
  614MOL0     O82763   0.491   4.345   9.997 -0.7293  1.3279  1.7880
  614MOL0     C82764   0.506   4.222   9.919  0.3950  0.8694 -0.6354
  614MOL0     C82765   0.393   4.127   9.972 -0.0396 -0.4289 -0.4050
  614MOL0     C82766   0.423   4.072  10.114  0.6118  0.3893  0.4105
  614MOL0     C82767   0.311   4.000  10.179 -0.4327 -0.0885 -1.0143
  614MOL0     C82768   0.335   3.948  10.321 -0.2084  0.3018 -0.1374
  614MOL0     C82769   0.423   4.028  10.414  0.1900  0.3255 -0.7074
  614MOL0     C82770   0.408   3.959  10.552  0.1663  0.2810  0.5928
  614MOL0     C82771   0.433   4.059  10.663 -0.6686  0.7038  0.3199
  614MOL0     N82772   0.487   3.991  10.781 -0.0322  0.2850 -0.5900
  614MOL0     C82773   0.564   4.044  10.877 -0.0263 -0.8988 -0.4170
  614MOL0     C82774   0.561   3.973  10.991  0.2628 -0.3862 -0.9264
  614MOL0     C82775   0.627   4.008  11.118  0.6607  1.0588  0.2020
  614MOL0     C82776   0.530   4.053  11.224  0.3894  0.4433 -1.1963
  614MOL0     C82777   0.619   4.068  11.345  0.2714 -0.4916  0.7874
  614MOL0     C82778   0.564   4.160  11.450 -0.5346  0.1337 -0.0418
  614MOL0     O82779   0.646   4.157  11.573 -0.0569  0.5126 -0.5299
  614MOL0     C82780   0.608   4.211  11.688  0.5258  0.5354  0.1696
  614MOL0     C82781   0.678   4.191  11.809 -0.4774  0.4691  0.4777
  614MOL0     C82782   0.632   4.250  11.923  0.0440  0.3835 -0.3857
  614MOL0     C82783   0.524   4.332  11.933  0.6723  0.7574 -0.3879
  614MOL0     C82784   0.467   4.390  12.055 -0.4344  0.0274  0.1013
  614MOL0     O82785   0.536   4.384  12.165 -0.4000 -0.0451  0.5368
  614MOL0     C82786   0.497   4.437  12.283  0.0841 -0.2813 -0.1353
  614MOL0     C82787   0.454   4.354  12.384  0.2669 -1.0390  0.6811
  614MOL0     C82788   0.393   4.402  12.497  0.1040  0.6092 -0.3010
  614MOL0     C82789   0.389   4.546  12.521  1.4392  0.7016 -0.0918
  614MOL0     O82790   0.324   4.608  12.629 -0.6615 -0.3289  0.9146
  614MOL0     C82791   0.258   4.525  12.729 -0.0381  0.5039 -0.0944
  614MOL0     C82792   0.242   4.596  12.869 -0.0958  0.3066  0.2181
  614MOL0     C82793   0.106   4.673  12.890 -0.3455  0.1225 -0.8651
  614MOL0     C82794   0.075   4.687  13.041 -0.1555  0.0564 -0.7107
  614MOL0     C82795  -0.073   4.721  13.074 -0.7258 -0.5831 -0.3294
  614MOL0     C82796  -0.097   4.714  13.225  0.3023 -0.1039  0.1349
  614MOL0     C82797  -0.248   4.749  13.252  0.1760  0.0057 -0.8902
  614MOL0     C82798  -0.255   4.773  13.406 -0.1699 -0.3897 -0.1231
  614MOL0    Cl82799  -0.417   4.802  13.452  0.3134  0.4813 -0.4777
  614MOL0     C82800   0.449   4.629  12.425  0.0195 -0.8089  0.0303
  614MOL0     C82801   0.498   4.575  12.308 -0.4785  0.5721  0.0928
  614MOL0     O82802   0.353   4.444  12.043 -0.0210 -0.1209  1.0441
  614MOL0     C82803   0.455   4.356  11.817  0.1907  0.2437  0.0087
  614MOL0     C82804   0.490   4.297  11.694  0.8959  0.4613  0.5900
  614MOL0     N82805   0.480   3.864  10.959 -0.1462  0.1305 -0.5327
  614MOL0     N82806   0.435   3.881  10.842 -0.1734 -0.8096  0.3461
  614MOL0     C82807   0.709   4.449   9.902  1.0603 -0.2861  0.0648
  614MOL0     C82808   0.781   4.566   9.890  0.7316 -0.3142  0.8067
  614MOL0     C82809   0.734   5.012   9.682  0.4869 -0.2057  0.8093
  614MOL0     C82810   0.850   5.062   9.742 -0.1029  0.6626 -0.0381
  614MOL0     C82811   0.911   5.189   9.711 -0.0175  0.2897  0.4952
  614MOL0     C82812   0.849   5.268   9.609 -1.2018 -0.1255  0.3486
  614MOL0     O82813   0.904   5.387   9.565 -0.1603 -0.4286  0.0022
  614MOL0     C82814   0.940   5.475   9.674 -0.2186 -0.7883 -0.2520
  614MOL0     C82815   0.821   5.566   9.705  0.0881  0.5185  0.2930
  614MOL0     C82816   0.845   5.645   9.839  0.6671  0.2501  1.2847
  614MOL0     C82817   0.725   5.748   9.861 -0.7927  0.8129  0.0268
  614MOL0     C82818   0.769   5.823   9.982 -0.1315  0.8109  0.6419
  614MOL0     C82819   0.777   5.886  10.080  1.5221 -0.6785  0.3266
  614MOL0     C82820   0.732   5.224   9.556  0.0645 -0.0539  0.2425
  614MOL0     C82821   0.669   5.102   9.589 -0.1795 -0.5094 -0.0827
  614MOL0     C82822   0.550   5.074   9.500 -1.0656  0.0489  0.0732
  614MOL0     H82823   0.520   4.787   9.908  1.4478  1.9962 -0.0430
  614MOL0     H82824   0.405   4.595   9.970  0.1451 -0.4937  0.8833
  614MOL0     H82825   0.504   4.249   9.813 -1.6691  2.5577 -0.2423
  614MOL0     H82826   0.603   4.176   9.941  1.3959  2.6972 -1.0100
  614MOL0     H82827   0.385   4.044   9.902  0.8081 -1.1827  0.3627
  614MOL0     H82828   0.301   4.187   9.970  0.6503  1.0701  3.3308
  614MOL0     H82829   0.457   4.152  10.181 -2.0787  0.4773  1.8200
  614MOL0     H82830   0.500   3.994  10.111 -1.8998 -2.2634  0.4609
  614MOL0     H82831   0.227   4.070  10.179  0.5869  1.2927  1.5699
  614MOL0     H82832   0.282   3.915  10.118  2.9038 -3.1657  1.2788
  614MOL0     H82833   0.229   3.944  10.348 -0.2558 -3.2575 -0.4275
  614MOL0     H82834   0.363   3.844  10.304 -2.4482 -0.4308  0.3568
  614MOL0     H82835   0.526   4.013  10.382  0.6840 -4.3661  2.0750
  614MOL0     H82836   0.380   4.128  10.424  3.7842  1.8133  2.3045
  614MOL0     H82837   0.473   3.871  10.558 -0.0551  0.1985  2.0710
  614MOL0     H82838   0.310   3.914  10.566  0.3187  0.5103  2.6513
  614MOL0     H82839   0.510   4.130  10.630 -1.4038  0.7257 -1.4433
  614MOL0     H82840   0.334   4.098  10.687 -1.7430 -0.8460 -1.3884
  614MOL0     H82841   0.621   4.136  10.866 -1.8707  0.1396 -1.8538
  614MOL0     H82842   0.683   3.917  11.144  0.2063  0.3057 -1.3241
  614MOL0     H82843   0.692   4.094  11.102  2.6264  1.1198  6.1580
  614MOL0     H82844   0.493   4.150  11.190  1.0472 -0.0271 -3.3739
  614MOL0     H82845   0.444   3.986  11.240  0.5431  0.6843  0.9724
  614MOL0     H82846   0.715   4.115  11.320  0.5275 -0.9404  0.9088
  614MOL0     H82847   0.647   3.977  11.400  3.9652  1.2686  2.2024
  614MOL0     H82848   0.460   4.132  11.471 -0.7066  1.1523  0.5564
  614MOL0     H82849   0.566   4.263  11.411  1.7619  0.0302 -0.3085
  614MOL0     H82850   0.762   4.124  11.794 -0.5459  0.7849 -1.6786
  614MOL0     H82851   0.677   4.213  12.014 -1.0801 -2.4233 -0.8853
  614MOL0     H82852   0.466   4.248  12.366 -3.0680 -1.9087  2.6865
  614MOL0     H82853   0.351   4.326  12.562 -0.9414  0.1350 -1.4886
  614MOL0     H82854   0.162   4.498  12.683 -0.7052  3.1955 -0.4914
  614MOL0     H82855   0.309   4.431  12.749  2.3829  1.6142 -0.7487
  614MOL0     H82856   0.243   4.520  12.947  2.3285  1.7762  1.7461
  614MOL0     H82857   0.322   4.670  12.877  0.4440  0.4338 -3.9069
  614MOL0     H82858   0.105   4.765  12.831 -0.0563 -0.9374 -2.5882
  614MOL0     H82859   0.028   4.612  12.843  2.2508 -1.8142 -3.0012
  614MOL0     H82860   0.138   4.761  13.092  1.4345 -2.2387  0.8869
  614MOL0     H82861   0.096   4.591  13.090  1.9725 -0.7785 -3.0198
  614MOL0     H82862  -0.137   4.652  13.019 -0.7810 -2.0022  1.4608
  614MOL0     H82863  -0.091   4.827  13.053 -1.4476 -1.1732 -3.1863
  614MOL0     H82864  -0.072   4.612  13.254 -1.0017 -0.5258 -0.1444
  614MOL0     H82865  -0.037   4.775  13.293  0.2421 -1.7479  1.7380
  614MOL0     H82866  -0.313   4.667  13.220 -2.0539  2.2906 -2.6890
  614MOL0     H82867  -0.286   4.838  13.200  0.8097  0.1761 -1.0712
  614MOL0     H82868  -0.226   4.681  13.458 -2.4763 -1.0933  0.0547
  614MOL0     H82869  -0.201   4.858  13.448 -0.5998  0.6263 -1.5588
  614MOL0     H82870   0.444   4.737  12.427 -1.2078 -0.8445 -0.3374
  614MOL0     H82871   0.552   4.645  12.245  0.5137  1.9301  2.3112
  614MOL0     H82872   0.388   4.442  11.819  0.2934  0.3093  0.8646
  614MOL0     H82873   0.437   4.334  11.607  0.4853  0.5341  0.8668
  614MOL0     H82874   0.761   4.354   9.899  1.9314  0.1671  0.3424
  614MOL0     H82875   0.887   4.554   9.874  0.6002 -0.3266 -0.1109
  614MOL0     H82876   0.902   5.000   9.815 -0.7870  0.1219  0.0052
  614MOL0     H82877   1.012   5.214   9.743  0.3567 -0.0018 -0.4294
  614MOL0     H82878   1.018   5.544   9.641  1.1914 -1.3592  1.7063
  614MOL0     H82879   0.989   5.420   9.755  0.8579  3.3164  2.1764
  614MOL0     H82880   0.731   5.504   9.704  2.6364 -3.6254 -1.5229
  614MOL0     H82881   0.813   5.641   9.625 -0.3935 -0.0472 -0.1963
  614MOL0     H82882   0.944   5.691   9.847  1.3754 -0.8042 -0.7787
  614MOL0     H82883   0.847   5.573   9.920  0.6731 -0.8539  0.3253
  614MOL0     H82884   0.709   5.817   9.777 -2.5481  1.7215  1.0604
  614MOL0     H82885   0.637   5.686   9.882  0.8259 -1.5393  0.2145
  614MOL0     H82886   0.794   5.937  10.173 -0.1774 -1.8085  1.3189
  614MOL0     H82887   0.688   5.284   9.476 -0.4204  0.0768  0.6009
  614MOL0     H82888   0.588   5.043   9.402 -1.3320  0.1452 -0.0614
  614MOL0     H82889   0.479   4.994   9.527  0.0932 -1.6178 -1.5560
  614MOL0     H82890   0.487   5.161   9.480 -0.6778 -0.0593 -1.8286
  615MOL0     O82891   5.285   4.293   9.010 -0.4567  0.4507  0.2362
  615MOL0     C82892   5.242   4.403   8.983 -0.3377 -0.3671 -0.4382
  615MOL0     O82893   5.281   4.481   8.880  0.2548 -0.0117  0.3267
  615MOL0     C82894   5.393   4.439   8.809 -0.0714  1.1353 -0.1327
  615MOL0     C82895   5.390   4.349   8.702 -1.2848 -0.2126  0.2953
  615MOL0     C82896   5.519   4.326   8.637 -0.5078  0.1476 -0.8661
  615MOL0     C82897   5.641   4.374   8.691  0.9937 -0.3846 -0.3288
  615MOL0     O82898   5.752   4.338   8.621 -0.7718  0.3931  0.3702
  615MOL0     C82899   5.877   4.390   8.667  0.3188 -0.7622 -0.7039
  615MOL0     C82900   5.992   4.366   8.568  0.4977 -0.8565 -0.0813
  615MOL0     C82901   6.125   4.351   8.645 -0.0577  0.1254  0.7635
  615MOL0     C82902   6.244   4.354   8.554 -0.4976  0.5519 -0.5867
  615MOL0     C82903   6.368   4.383   8.637 -0.9593  0.3798 -0.0136
  615MOL0     C82904   6.479   4.301   8.574 -0.3088 -0.5809 -1.0253
  615MOL0     C82905   6.613   4.310   8.652  0.0386 -0.7626  1.0371
  615MOL0     C82906   6.605   4.236   8.780  0.2961  0.0354 -0.7063
  615MOL0     N82907   6.719   4.274   8.868  0.4475  0.7018  0.6412
  615MOL0     C82908   6.851   4.245   8.835 -0.7560 -0.2178 -0.5662
  615MOL0     C82909   6.927   4.319   8.930  0.3671 -0.5375 -0.1603
  615MOL0     C82910   7.072   4.359   8.926 -0.3389 -0.4093  0.1933
  615MOL0     C82911   7.121   4.438   8.799 -0.5470  0.2961 -0.6509
  615MOL0     C82912   7.025   4.548   8.763  0.0147  0.2516  0.6618
  615MOL0     C82913   7.091   4.648   8.665 -0.7806  0.2064  0.2397
  615MOL0     O82914   7.136   4.576   8.554  0.3021  0.4773 -0.1433
  615MOL0     C82915   7.171   4.647   8.441 -0.5280  0.4011 -0.2890
  615MOL0     C82916   7.217   4.577   8.325  0.0077  0.4978 -0.9804
  615MOL0     C82917   7.264   4.644   8.212 -0.0503 -0.2865  0.4246
  615MOL0     C82918   7.275   4.785   8.207 -0.5062  0.2919  0.0105
  615MOL0     C82919   7.330   4.855   8.091 -0.2923 -0.2528 -0.8033
  615MOL0     O82920   7.323   4.991   8.092 -0.4221 -0.1236  0.0682
  615MOL0     C82921   7.357   5.058   7.976 -0.0541  0.2477  0.3822
  615MOL0     C82922   7.414   5.169   7.984  0.6562 -0.5769 -0.8051
  615MOL0     C82923   7.443   5.245   7.877  0.3623  0.0572 -0.7689
  615MOL0     C82924   7.398   5.206   7.747  0.5000 -0.4240 -0.4062
  615MOL0     O82925   7.429   5.270   7.628  0.7162 -1.1440 -0.7833
  615MOL0     C82926   7.543   5.356   7.626  0.0129  1.0378 -0.2720
  615MOL0     C82927   7.607   5.348   7.491 -0.6706 -0.4200  0.7512
  615MOL0     C82928   7.677   5.212   7.477 -0.0718  0.2148 -0.1578
  615MOL0     C82929   7.742   5.176   7.345  0.2799 -0.1649  1.0357
  615MOL0     C82930   7.853   5.070   7.358  0.4849 -0.9011 -0.8611
  615MOL0     C82931   7.796   4.941   7.416 -0.5725 -0.4143 -0.0285
  615MOL0     C82932   7.910   4.840   7.438  0.4155  0.4286  0.8878
  615MOL0     C82933   7.931   4.752   7.307 -0.2522  0.7137 -0.3863
  615MOL0    Cl82934   8.076   4.665   7.327 -0.2322  0.3680 -0.5513
  615MOL0     C82935   7.308   5.095   7.741  0.2249  0.2409 -0.0688
  615MOL0     C82936   7.293   5.021   7.854  1.2416  0.0939  0.4769
  615MOL0     O82937   7.379   4.790   8.007 -0.9834 -0.2760  0.4514
  615MOL0     C82938   7.233   4.857   8.320 -0.0790 -0.2658 -0.0686
  615MOL0     C82939   7.185   4.792   8.437 -0.3105 -0.0159  0.1582
  615MOL0     N82940   6.833   4.392   9.011  0.2768  0.0453  0.5959
  615MOL0     N82941   6.705   4.362   8.972 -0.2906  0.1692  1.1423
  615MOL0     C82942   5.635   4.460   8.807 -0.3569 -0.1677  0.3476
  615MOL0     C82943   5.508   4.494   8.858  0.1827 -0.4841 -0.5361
  615MOL0     C82944   5.124   4.458   9.051 -0.5360  0.8182 -0.9183
  615MOL0     C82945   5.048   4.560   8.988  0.5513  0.5621  0.2209
  615MOL0     C82946   4.930   4.612   9.043 -0.2673  0.2569 -0.3120
  615MOL0     C82947   4.896   4.588   9.176 -0.2225 -0.3890  0.0725
  615MOL0     O82948   4.784   4.634   9.242  0.5085 -0.5621  0.2491
  615MOL0     C82949   4.659   4.651   9.171  0.6159  0.4378  0.0641
  615MOL0     C82950   4.534   4.618   9.259  0.0900 -0.4325 -0.7099
  615MOL0     C82951   4.516   4.720   9.379 -0.4567  0.2144  0.3769
  615MOL0     C82952   4.424   4.658   9.489 -0.1534  0.2550  0.1438
  615MOL0     C82953   4.294   4.605   9.450  0.8352  0.7814  0.0160
  615MOL0     C82954   4.190   4.576   9.398  0.1252  0.8940  0.9039
  615MOL0     C82955   4.988   4.512   9.248 -0.8096 -0.4135 -1.1993
  615MOL0     C82956   5.095   4.431   9.189 -0.9114 -0.3229 -0.4359
  615MOL0     C82957   5.184   4.336   9.274  0.9608  0.1601  0.1039
  615MOL0     H82958   5.307   4.290   8.661  1.3932 -2.8167 -1.8343
  615MOL0     H82959   5.530   4.272   8.543 -1.8639  2.4528 -2.4764
  615MOL0     H82960   5.863   4.499   8.669  2.0239 -0.4350 -2.6697
  615MOL0     H82961   5.899   4.356   8.769 -3.2402  0.7982  0.7430
  615MOL0     H82962   5.994   4.458   8.508 -1.7966 -1.4597 -1.1562
  615MOL0     H82963   5.970   4.278   8.508 -0.8313 -0.7296  0.2013
  615MOL0     H82964   6.127   4.246   8.678  0.5929 -0.1558 -0.1429
  615MOL0     H82965   6.124   4.433   8.717  0.8174  0.9544 -0.1322
  615MOL0     H82966   6.257   4.262   8.497 -0.0441  0.7323 -0.7781
  615MOL0     H82967   6.240   4.428   8.473  0.1916 -0.7949 -1.8827
  615MOL0     H82968   6.383   4.491   8.629 -1.4007  0.4974  0.6613
  615MOL0     H82969   6.362   4.355   8.743  1.9298 -1.9124 -0.3164
  615MOL0     H82970   6.453   4.194   8.574  0.1622 -0.8041  2.0910
  615MOL0     H82971   6.501   4.348   8.478 -1.0591  0.4685 -0.6948
  615MOL0     H82972   6.640   4.415   8.667  1.1633 -0.3928 -2.5071
  615MOL0     H82973   6.692   4.263   8.591 -1.5777  0.3591 -2.1475
  615MOL0     H82974   6.514   4.265   8.833  0.4211  2.1389 -1.5696
  615MOL0     H82975   6.603   4.130   8.753 -1.3181 -1.1854  3.4146
  615MOL0     H82976   6.883   4.175   8.758  0.4716 -0.1040 -0.1703
  615MOL0     H82977   7.089   4.442   8.995  1.3220  0.9339 -1.6872
  615MOL0     H82978   7.132   4.272   8.955 -1.5139 -1.9545 -1.7277
  615MOL0     H82979   7.220   4.483   8.813 -0.7513  1.6538 -3.0521
  615MOL0     H82980   7.139   4.367   8.718  1.6654 -0.6837  0.6177
  615MOL0     H82981   6.997   4.600   8.855 -0.5663  1.6982 -0.2933
  615MOL0     H82982   6.935   4.500   8.723  0.5405 -1.5675  1.5581
  615MOL0     H82983   7.173   4.691   8.723 -2.3931  2.4042  1.0341
  615MOL0     H82984   7.026   4.727   8.627  0.7009 -0.1662 -3.5319
  615MOL0     H82985   7.213   4.468   8.329 -4.4598  0.5005  0.8014
  615MOL0     H82986   7.284   4.589   8.121  0.7493 -2.7289  1.9820
  615MOL0     H82987   7.449   5.204   8.080  2.5309  1.7958 -2.2402
  615MOL0     H82988   7.513   5.328   7.887  1.5632 -0.8804 -1.0606
  615MOL0     H82989   7.518   5.462   7.632  0.2630  1.1554 -1.1837
  615MOL0     H82990   7.624   5.329   7.695  1.4352  3.2433 -0.9873
  615MOL0     H82991   7.544   5.359   7.402 -1.1484 -0.3952  1.0888
  615MOL0     H82992   7.681   5.426   7.469 -2.5783  1.6808  1.3386
  615MOL0     H82993   7.752   5.204   7.556  1.9238  0.4697 -1.9261
  615MOL0     H82994   7.611   5.128   7.501 -1.0898  0.7453 -1.0269
  615MOL0     H82995   7.784   5.269   7.305  3.2998 -2.2737 -1.0986
  615MOL0     H82996   7.667   5.139   7.275  0.2726  2.0250 -0.2215
  615MOL0     H82997   7.920   5.119   7.429  0.3185  1.3420 -2.1520
  615MOL0     H82998   7.901   5.052   7.261  1.2465 -0.4173 -0.5852
  615MOL0     H82999   7.741   4.962   7.509 -1.2430 -2.8780  0.1833
  615MOL0     H83000   7.718   4.907   7.348 -0.8499  0.2147 -0.0320
  615MOL0     H83001   7.893   4.779   7.527  0.4880  2.2899  2.2397
  615MOL0     H83002   8.007   4.886   7.456 -1.3661  4.2338  1.9227
  615MOL0     H83003   7.855   4.676   7.284  0.0441  0.4412 -0.4690
  615MOL0     H83004   7.933   4.820   7.221 -0.0285  0.2779 -0.7302
  615MOL0     H83005   7.263   5.072   7.645  0.6678  0.4034 -0.3197
  615MOL0     H83006   7.241   4.928   7.834  2.4096 -0.2471 -1.2788
  615MOL0     H83007   7.257   4.963   8.320  3.2265 -0.9160  1.4369
  615MOL0     H83008   7.159   4.848   8.526 -0.2472 -1.4855  1.1447
  615MOL0     H83009   5.733   4.495   8.838  0.2583 -0.5229 -1.1058
  615MOL0     H83010   5.491   4.570   8.933 -3.7806 -1.2511 -0.4278
  615MOL0     H83011   5.072   4.577   8.884 -2.4469  1.3673 -0.4336
  615MOL0     H83012   4.856   4.659   8.980 -0.0126 -0.1595 -0.9379
  615MOL0     H83013   4.663   4.571   9.096 -1.4612 -0.5844  0.9579
  615MOL0     H83014   4.643   4.751   9.130  0.2666 -0.3004 -1.7417
  615MOL0     H83015   4.544   4.515   9.293  1.8182  0.5246  1.9343
  615MOL0     H83016   4.444   4.612   9.197  0.2225 -2.2683 -0.7907
  615MOL0     H83017   4.475   4.810   9.333 -0.6313 -0.7663 -1.4841
  615MOL0     H83018   4.615   4.741   9.422  0.6390 -2.5309 -0.5844
  615MOL0     H83019   4.475   4.580   9.545 -0.6884  0.6501  1.1943
  615MOL0     H83020   4.417   4.743   9.557  1.0065  0.0017  0.5990
  615MOL0     H83021   4.094   4.575   9.350  1.6700  1.0464 -2.4995
  615MOL0     H83022   4.957   4.506   9.352 -3.2031 -3.8768 -1.9255
  615MOL0     H83023   5.148   4.233   9.273 -0.8717  0.5060  5.0123
  615MOL0     H83024   5.288   4.340   9.241  0.7260 -2.9077 -1.3632
  615MOL0     H83025   5.177   4.373   9.377  0.7311 -0.9210  0.4902
  616MOL0     O83026   5.082   6.835   4.521  0.0866  0.2522  0.1071
  616MOL0     C83027   5.015   6.830   4.415  0.1007  0.8657 -0.2403
  616MOL0     O83028   5.070   6.794   4.290  0.3294  0.1371 -0.2512
  616MOL0     C83029   5.182   6.722   4.275  0.6779  0.0550 -0.4173
  616MOL0     C83030   5.233   6.730   4.151 -0.2974  0.4981  0.0383
  616MOL0     C83031   5.318   6.636   4.106 -0.7837 -0.0020  0.1612
  616MOL0     C83032   5.366   6.542   4.197 -0.3824  0.0335 -0.2172
  616MOL0     O83033   5.448   6.447   4.145  0.5202  0.3927  0.2723
  616MOL0     C83034   5.584   6.438   4.205  0.1009  0.3320  0.6273
  616MOL0     C83035   5.676   6.546   4.154 -0.0259  0.5411  0.2588
  616MOL0     C83036   5.827   6.504   4.142  0.8588 -0.4548  0.4739
  616MOL0     C83037   5.909   6.638   4.149  0.3471  0.7044 -0.0467
  616MOL0     C83038   6.051   6.634   4.131  0.2181 -0.1811  0.7057
  616MOL0     C83039   6.116   6.781   4.140 -0.4694 -0.5193  0.0684
  616MOL0     C83040   6.259   6.787   4.071  0.4237  0.7487 -1.1291
  616MOL0     C83041   6.367   6.731   4.168  0.9661 -0.3197 -0.6732
  616MOL0     N83042   6.500   6.754   4.111 -0.8216 -0.3844  0.3724
  616MOL0     C83043   6.587   6.859   4.146 -0.5615  0.3944  0.4530
  616MOL0     C83044   6.679   6.861   4.045  0.0314 -0.5629 -1.0582
  616MOL0     C83045   6.785   6.963   4.026  0.0534 -0.1212  0.5115
  616MOL0     C83046   6.723   7.089   3.964 -0.3637 -0.0295 -0.1081
  616MOL0     C83047   6.668   7.183   4.068  0.2299 -0.1381  0.0827
  616MOL0     C83048   6.755   7.309   4.103 -0.6661  0.3674  0.2951
  616MOL0     O83049   6.870   7.247   4.175  0.9806  0.2913  0.4613
  616MOL0     C83050   6.969   7.329   4.222  0.3129  0.1819  0.3406
  616MOL0     C83051   6.971   7.476   4.196  0.3932 -0.4514 -0.1753
  616MOL0     C83052   7.074   7.554   4.257  0.4400 -0.3984  0.2179
  616MOL0     C83053   7.166   7.498   4.344 -0.5190  0.2346  0.0293
  616MOL0     C83054   7.282   7.583   4.394  0.6367  0.3508 -0.5204
  616MOL0     O83055   7.285   7.714   4.365  0.2642 -0.2096  0.1155
  616MOL0     C83056   7.385   7.786   4.400  0.3828 -1.3838 -0.0564
  616MOL0     C83057   7.516   7.768   4.347  0.4603  0.8506  0.3277
  616MOL0     C83058   7.614   7.841   4.395 -0.0143  0.5299  0.3876
  616MOL0     C83059   7.597   7.930   4.501 -0.2912  0.5758  0.6195
  616MOL0     O83060   7.681   8.028   4.555  0.2715  0.2447  1.1332
  616MOL0     C83061   7.800   7.958   4.588  0.4429 -0.1394 -0.8207
  616MOL0     C83062   7.899   8.057   4.654 -0.7815 -0.6132 -0.8586
  616MOL0     C83063   7.982   8.139   4.549 -0.5402  0.2018 -0.0207
  616MOL0     C83064   8.122   8.197   4.602 -0.1573 -0.0103 -0.3531
  616MOL0     C83065   8.098   8.269   4.741 -0.5144 -0.0882 -0.1226
  616MOL0     C83066   8.228   8.351   4.791 -0.0503  0.0690 -0.5446
  616MOL0     C83067   8.364   8.288   4.762  0.1957  0.9736 -0.8613
  616MOL0     C83068   8.468   8.387   4.816  0.6245  0.3522 -0.2990
  616MOL0    Cl83069   8.488   8.365   4.995  0.4982 -0.4634  0.1314
  616MOL0     C83070   7.471   7.952   4.551 -0.0224  0.6074  0.0626
  616MOL0     C83071   7.364   7.880   4.504 -0.0392  0.5972 -0.0231
  616MOL0     O83072   7.355   7.518   4.469  0.0166 -0.3769 -0.2344
  616MOL0     C83073   7.175   7.355   4.350 -0.5027 -0.2010 -0.7893
  616MOL0     C83074   7.078   7.274   4.296  0.8559  0.0767  0.4618
  616MOL0     N83075   6.652   6.761   3.952  0.2495  0.4973 -0.0189
  616MOL0     N83076   6.545   6.695   3.995 -0.4941 -0.8331 -0.2034
  616MOL0     C83077   5.334   6.536   4.327  0.9143  1.1380 -0.8216
  616MOL0     C83078   5.231   6.631   4.366  0.0649 -0.4242 -0.8875
  616MOL0     C83079   4.887   6.907   4.415 -0.2830  0.4336 -0.6889
  616MOL0     C83080   4.836   6.941   4.286  0.3721 -0.2855 -0.1215
  616MOL0     C83081   4.725   7.018   4.266 -0.5740  1.1567  1.4929
  616MOL0     C83082   4.643   7.060   4.370  0.6674  1.2138  0.2271
  616MOL0     O83083   4.535   7.137   4.346 -0.1867 -0.2575  0.7977
  616MOL0     C83084   4.446   7.180   4.449  0.3531 -0.1480  0.9299
  616MOL0     C83085   4.328   7.090   4.469 -0.2805 -0.4330  0.6674
  616MOL0     C83086   4.252   7.049   4.347 -0.9094 -0.5143  0.4921
  616MOL0     C83087   4.135   6.959   4.382 -0.4865 -0.3097 -0.2595
  616MOL0     C83088   4.028   7.018   4.458 -0.5776  0.0004 -0.4681
  616MOL0     C83089   3.931   7.057   4.527  0.1239  0.1272 -0.6302
  616MOL0     C83090   4.683   7.009   4.498 -1.1226 -0.1377 -0.0987
  616MOL0     C83091   4.806   6.945   4.527 -0.1354 -0.7985 -0.3688
  616MOL0     C83092   4.845   6.930   4.668  0.5267  0.2434 -0.4500
  616MOL0     H83093   5.191   6.798   4.077  0.8128  0.3281 -0.7685
  616MOL0     H83094   5.347   6.644   4.002 -1.5121  1.2836  0.0355
  616MOL0     H83095   5.570   6.435   4.313 -1.3698  1.4555  0.4961
  616MOL0     H83096   5.617   6.334   4.192  0.4228  0.1111  2.8412
  616MOL0     H83097   5.670   6.627   4.226  1.7847 -0.4698  1.6282
  616MOL0     H83098   5.639   6.580   4.057  2.6213  0.2319 -0.9767
  616MOL0     H83099   5.835   6.452   4.046 -0.6459  0.2223 -0.0375
  616MOL0     H83100   5.851   6.438   4.226 -1.7178 -0.7199  1.0880
  616MOL0     H83101   5.868   6.713   4.080  0.8750  1.7229  0.7268
  616MOL0     H83102   5.899   6.677   4.250 -4.6535  2.2059 -0.8143
  616MOL0     H83103   6.092   6.563   4.204 -1.2203 -0.2174  1.5131
  616MOL0     H83104   6.080   6.594   4.034 -1.4587  0.0117  0.0972
  616MOL0     H83105   6.047   6.845   4.084 -2.2887 -0.3488  2.3603
  616MOL0     H83106   6.116   6.817   4.244 -2.1154 -3.5788  1.2545
  616MOL0     H83107   6.280   6.893   4.053 -0.9325  1.1492 -0.5196
  616MOL0     H83108   6.257   6.733   3.976 -0.0643  2.3346 -2.0601
  616MOL0     H83109   6.357   6.785   4.262  0.2621 -1.3748 -0.1252
  616MOL0     H83110   6.345   6.627   4.196 -2.3305  0.4740  0.0701
  616MOL0     H83111   6.560   6.941   4.212 -1.8957  0.7771 -0.5090
  616MOL0     H83112   6.822   6.995   4.124  1.1168  3.6929 -0.9172
  616MOL0     H83113   6.866   6.916   3.969 -1.1227 -0.8799 -0.5695
  616MOL0     H83114   6.802   7.143   3.911  1.7618 -2.4159  0.4100
  616MOL0     H83115   6.643   7.065   3.894 -2.6160 -2.0153  2.8763
  616MOL0     H83116   6.640   7.125   4.156 -1.9290  1.0884  0.2798
  616MOL0     H83117   6.569   7.218   4.035 -0.4034 -1.7916  0.1283
  616MOL0     H83118   6.692   7.373   4.165 -3.0170 -2.7467  1.4245
  616MOL0     H83119   6.777   7.357   4.007  0.4356 -0.4054  0.1397
  616MOL0     H83120   6.888   7.535   4.158  1.0944  0.7357  0.0944
  616MOL0     H83121   7.074   7.660   4.236  0.2498 -0.7381 -1.7662
  616MOL0     H83122   7.528   7.698   4.264 -1.3859  0.0022  0.7140
  616MOL0     H83123   7.709   7.830   4.343  0.4382 -4.8977  1.7999
  616MOL0     H83124   7.778   7.892   4.672 -0.0288  1.7239  0.5987
  616MOL0     H83125   7.856   7.911   4.508  1.4175  1.4272 -1.1109
  616MOL0     H83126   7.852   8.126   4.724  0.6235  0.7806 -1.2314
  616MOL0     H83127   7.979   8.000   4.701 -0.8030  1.2468  1.6323
  616MOL0     H83128   7.994   8.087   4.453  0.0259 -0.1184  0.2230
  616MOL0     H83129   7.922   8.224   4.514  1.2157  0.8848 -1.5175
  616MOL0     H83130   8.163   8.268   4.530  0.9366 -0.5702 -0.2999
  616MOL0     H83131   8.193   8.116   4.623  1.0021  1.4049  1.5115
  616MOL0     H83132   8.074   8.189   4.811  1.8059 -1.2921 -0.6133
  616MOL0     H83133   8.005   8.325   4.740  0.3038  1.4230  1.8283
  616MOL0     H83134   8.228   8.448   4.741 -0.0723  0.2837 -0.1340
  616MOL0     H83135   8.214   8.385   4.894 -1.1825 -0.0159 -0.6550
  616MOL0     H83136   8.374   8.277   4.654  1.4372 -0.0912 -0.6690
  616MOL0     H83137   8.384   8.189   4.805  0.5708  0.8794 -1.2476
  616MOL0     H83138   8.566   8.375   4.770  1.5193  0.8607  1.4113
  616MOL0     H83139   8.450   8.489   4.779  1.3794 -0.0486 -1.8509
  616MOL0     H83140   7.458   8.019   4.635  1.7230  2.6421 -1.1809
  616MOL0     H83141   7.269   7.877   4.556  0.3914 -0.4950  0.7597
  616MOL0     H83142   7.241   7.308   4.422 -1.1251 -0.4801 -0.3955
  616MOL0     H83143   7.071   7.169   4.324 -1.2046 -0.6306 -2.2289
  616MOL0     H83144   5.376   6.467   4.399 -0.6592  3.8255  3.0228
  616MOL0     H83145   5.183   6.615   4.462 -2.2964 -1.9233 -2.2345
  616MOL0     H83146   4.878   6.901   4.194  0.0463  0.1951 -0.4809
  616MOL0     H83147   4.694   7.035   4.164 -0.8371 -0.3240  1.3034
  616MOL0     H83148   4.391   7.269   4.418 -1.0323 -0.0833  3.3810
  616MOL0     H83149   4.487   7.204   4.547 -0.6510 -0.0516  1.3348
  616MOL0     H83150   4.262   7.132   4.545  0.1433 -2.4823  2.2573
  616MOL0     H83151   4.379   7.006   4.517  0.7801  0.3686  0.9861
  616MOL0     H83152   4.320   7.000   4.276 -2.7632 -2.0356 -0.3346
  616MOL0     H83153   4.221   7.147   4.310 -2.5947 -0.8698  0.8688
  616MOL0     H83154   4.092   6.922   4.289  1.6941 -0.7416 -1.1660
  616MOL0     H83155   4.170   6.871   4.437  1.4265  1.3577  1.3361
  616MOL0     H83156   3.840   7.076   4.581  0.1500 -1.2206 -0.0828
  616MOL0     H83157   4.613   7.034   4.578 -1.8025  2.9022 -1.4589
  616MOL0     H83158   4.857   6.823   4.690  0.8945 -0.4840 -3.6989
  616MOL0     H83159   4.940   6.967   4.708  0.9452 -0.7192 -0.5357
  616MOL0     H83160   4.768   6.978   4.729 -0.3255  2.5519 -3.1394
  617MOL0     O83161   5.523   6.723   5.986 -0.7338 -0.2127 -0.0202
  617MOL0     C83162   5.633   6.773   6.027 -0.3407  0.2048 -0.2987
  617MOL0     O83163   5.650   6.892   6.095  0.2489 -0.6079  0.6723
  617MOL0     C83164   5.527   6.939   6.135 -0.6484 -0.0679  0.6811
  617MOL0     C83165   5.464   6.886   6.243  0.7369  0.2753 -0.9219
  617MOL0     C83166   5.354   6.939   6.308  0.4156 -0.1415 -0.0181
  617MOL0     C83167   5.306   7.061   6.252 -0.2525 -0.0956 -0.5305
  617MOL0     O83168   5.198   7.104   6.315  0.0693 -0.1663  0.0838
  617MOL0     C83169   5.114   7.207   6.260  0.2893 -0.2217  0.2364
  617MOL0     C83170   5.015   7.235   6.374 -0.5692 -0.7794 -0.7857
  617MOL0     C83171   4.900   7.320   6.325  0.0630 -0.7721  0.0447
  617MOL0     C83172   4.802   7.253   6.223  0.7153 -0.4069 -0.1274
  617MOL0     C83173   4.670   7.326   6.218  0.1628  1.1487 -1.5822
  617MOL0     C83174   4.581   7.261   6.111 -0.0917 -0.3790 -0.0316
  617MOL0     C83175   4.446   7.317   6.103  0.0294  0.0652  0.8927
  617MOL0     C83176   4.367   7.271   5.981  1.2361 -0.6048  0.0393
  617MOL0     N83177   4.219   7.305   5.986  0.5502 -0.0095  0.6383
  617MOL0     C83178   4.132   7.223   6.055  0.7170 -0.6667 -0.5408
  617MOL0     C83179   4.009   7.278   6.026  0.6629 -0.0579 -0.0229
  617MOL0     C83180   3.879   7.223   6.091 -0.2890 -0.4129  0.7956
  617MOL0     C83181   3.870   7.269   6.235 -0.7630 -0.6129  0.0329
  617MOL0     C83182   3.851   7.420   6.255 -0.0356  0.0705 -0.0529
  617MOL0     C83183   3.992   7.503   6.261  0.3993  0.7355 -0.0513
  617MOL0     O83184   4.078   7.452   6.355 -0.4847  0.6360 -0.1602
  617MOL0     C83185   4.211   7.499   6.367  0.1968  1.1906 -0.0738
  617MOL0     C83186   4.292   7.452   6.467 -1.0518  1.0065  0.2001
  617MOL0     C83187   4.429   7.482   6.482 -0.2085 -0.6566 -0.4757
  617MOL0     C83188   4.478   7.590   6.399  0.8907 -0.0248 -0.4808
  617MOL0     C83189   4.617   7.644   6.426  0.1658 -0.4537 -0.1335
  617MOL0     O83190   4.655   7.761   6.363 -0.1644 -0.3640  0.3832
  617MOL0     C83191   4.746   7.847   6.419 -0.7462 -0.4127 -0.3953
  617MOL0     C83192   4.791   7.861   6.553 -0.2807  1.0887  0.4098
  617MOL0     C83193   4.885   7.949   6.596 -0.0434 -1.2735 -0.1074
  617MOL0     C83194   4.921   8.056   6.514  0.7735  1.0468  0.4439
  617MOL0     O83195   5.007   8.145   6.571 -0.0574 -0.3781  0.2070
  617MOL0     C83196   5.081   8.241   6.497 -0.2136  0.0398 -0.8400
  617MOL0     C83197   4.991   8.359   6.466  0.2636  0.2636  0.2973
  617MOL0     C83198   5.062   8.499   6.480 -0.0554 -0.2817  0.7036
  617MOL0     C83199   4.961   8.615   6.487 -0.2143 -0.3673 -0.3468
  617MOL0     C83200   5.000   8.744   6.564 -0.7436 -0.2448 -0.2361
  617MOL0     C83201   5.020   8.732   6.722  0.2539 -0.9672 -1.1668
  617MOL0     C83202   5.060   8.874   6.792 -0.7468 -0.5979  0.0613
  617MOL0     C83203   5.107   8.851   6.939 -0.3358  0.9872  0.7817
  617MOL0    Cl83204   5.200   8.984   7.011  0.0179  0.1464  0.0401
  617MOL0     C83205   4.868   8.062   6.385  0.9385  0.5910  0.0292
  617MOL0     C83206   4.790   7.954   6.339  0.2489  0.2248  0.1142
  617MOL0     O83207   4.689   7.577   6.495 -0.8368 -0.6175 -0.7149
  617MOL0     C83208   4.391   7.652   6.308 -0.0577 -0.1444 -0.4687
  617MOL0     C83209   4.264   7.607   6.293 -0.3548 -0.6609 -0.6331
  617MOL0     N83210   4.026   7.389   5.949  0.2041  0.5313  0.1221
  617MOL0     N83211   4.150   7.401   5.917  0.3732  0.4985 -0.8229
  617MOL0     C83212   5.364   7.112   6.135 -0.5068  0.0996 -0.3372
  617MOL0     C83213   5.469   7.042   6.069  0.2617  0.4428 -0.8538
  617MOL0     C83214   5.757   6.696   5.994  0.6926 -0.0519 -0.4749
  617MOL0     C83215   5.760   6.603   5.886 -0.1960 -0.3243 -0.1368
  617MOL0     C83216   5.873   6.554   5.829 -1.7593  0.0575 -0.2949
  617MOL0     C83217   5.998   6.573   5.889  0.4546  0.1733 -0.3563
  617MOL0     O83218   6.100   6.518   5.825 -0.1234 -0.0399  0.0292
  617MOL0     C83219   6.107   6.379   5.778  0.5760  0.1040 -0.5041
  617MOL0     C83220   6.246   6.370   5.709  0.3520  0.7773 -0.6476
  617MOL0     C83221   6.352   6.429   5.805  0.0786  0.3549  0.1011
  617MOL0     C83222   6.475   6.431   5.732 -0.0477  0.3605  0.0753
  617MOL0     C83223   6.584   6.483   5.815  0.5836  0.8587  0.0258
  617MOL0     C83224   6.675   6.486   5.899 -0.2369  0.2819 -0.4564
  617MOL0     C83225   6.006   6.669   5.998  0.5375  0.9589 -0.0230
  617MOL0     C83226   5.884   6.724   6.058  0.1003  0.4792  0.2597
  617MOL0     C83227   5.897   6.784   6.189 -1.2814  0.7321  0.7485
  617MOL0     H83228   5.498   6.790   6.282 -0.2421  0.1380 -0.3793
  617MOL0     H83229   5.302   6.890   6.389 -1.4993  0.9900 -0.4967
  617MOL0     H83230   5.171   7.298   6.237  0.3563 -0.1416  0.7012
  617MOL0     H83231   5.066   7.190   6.164 -0.1879  3.6333 -0.3891
  617MOL0     H83232   5.077   7.288   6.447 -1.9958 -2.6542  2.0084
  617MOL0     H83233   4.981   7.141   6.419 -1.6316  0.9873  2.4388
  617MOL0     H83234   4.940   7.410   6.278  0.2612 -0.3856  0.9322
  617MOL0     H83235   4.854   7.344   6.421  4.1027 -0.1735  2.0229
  617MOL0     H83236   4.839   7.245   6.120  0.3718  1.6193 -0.4439
  617MOL0     H83237   4.792   7.149   6.257 -3.2539 -0.1429 -0.0812
  617MOL0     H83238   4.613   7.329   6.312 -1.8939 -0.2943 -2.7174
  617MOL0     H83239   4.682   7.430   6.186  0.2391  0.7181 -3.0156
  617MOL0     H83240   4.634   7.282   6.018  1.6595 -0.7908  0.8244
  617MOL0     H83241   4.592   7.153   6.119 -3.2408 -0.8402 -0.6433
  617MOL0     H83242   4.464   7.425   6.107  1.7493 -0.0761 -1.4130
  617MOL0     H83243   4.392   7.296   6.196  0.4330 -0.2480  1.0591
  617MOL0     H83244   4.414   7.327   5.899  0.4090  2.5813  1.5683
  617MOL0     H83245   4.379   7.163   5.978 -2.5733 -1.1706 -3.3056
  617MOL0     H83246   4.149   7.135   6.116  3.5039  1.5762  2.2513
  617MOL0     H83247   3.791   7.253   6.034 -0.0655 -1.4647 -0.1242
  617MOL0     H83248   3.878   7.115   6.076  1.1657 -0.0688 -3.0125
  617MOL0     H83249   3.780   7.218   6.270  0.5364 -4.6254 -1.7939
  617MOL0     H83250   3.964   7.235   6.281 -1.3879 -1.1608  0.9222
  617MOL0     H83251   3.810   7.433   6.356 -0.4369 -0.2605 -0.1725
  617MOL0     H83252   3.788   7.472   6.183 -2.5759 -3.5054 -0.7175
  617MOL0     H83253   3.956   7.601   6.294  0.3113  0.5320  0.4583
  617MOL0     H83254   4.032   7.509   6.159 -2.7015 -2.9062 -1.7202
  617MOL0     H83255   4.241   7.382   6.532 -1.9693 -0.5801 -2.0735
  617MOL0     H83256   4.493   7.444   6.561  1.0314  1.1859 -0.5539
  617MOL0     H83257   4.765   7.790   6.631  0.1707  1.4491  0.8938
  617MOL0     H83258   4.917   7.951   6.700 -0.8955 -1.1947  0.1676
  617MOL0     H83259   5.162   8.270   6.565  0.1560 -0.3593 -1.1071
  617MOL0     H83260   5.117   8.203   6.401 -1.9956 -2.7921 -0.4896
  617MOL0     H83261   4.953   8.360   6.363 -0.2523  0.5656  0.4878
  617MOL0     H83262   4.912   8.366   6.541  0.2032  0.1684  0.2426
  617MOL0     H83263   5.130   8.492   6.565  1.8169  2.2326 -0.4411
  617MOL0     H83264   5.119   8.519   6.388  0.1456 -0.2533  0.8341
  617MOL0     H83265   4.866   8.582   6.531 -1.1374  1.2796 -0.9897
  617MOL0     H83266   4.937   8.648   6.385  1.3653  3.2609  0.2923
  617MOL0     H83267   4.922   8.820   6.547  3.0953  4.4522  0.8892
  617MOL0     H83268   5.094   8.794   6.538 -1.0865 -0.0060 -1.0495
  617MOL0     H83269   4.937   8.691   6.781  0.7352  1.0123  1.0605
  617MOL0     H83270   5.108   8.670   6.741  0.1984 -0.3599  1.4604
  617MOL0     H83271   4.975   8.943   6.787  0.3528  0.8018  0.1253
  617MOL0     H83272   5.144   8.914   6.734 -1.4463 -0.0749 -0.6106
  617MOL0     H83273   5.013   8.836   6.993  0.3560 -2.6959  1.2174
  617MOL0     H83274   5.163   8.758   6.938 -2.9207 -0.6753 -1.2003
  617MOL0     H83275   4.898   8.139   6.315 -3.3842  1.5424 -1.0599
  617MOL0     H83276   4.754   7.968   6.238  0.8552 -1.2602 -0.3318
  617MOL0     H83277   4.410   7.749   6.263 -1.3137 -0.5700 -1.9703
  617MOL0     H83278   4.205   7.674   6.232 -0.2650 -0.3545 -0.3845
  617MOL0     H83279   5.329   7.207   6.094 -2.1496  0.6135  1.9763
  617MOL0     H83280   5.501   7.067   5.968 -1.7685 -2.6245 -2.4308
  617MOL0     H83281   5.671   6.587   5.826  0.0602  2.1377 -1.3096
  617MOL0     H83282   5.864   6.491   5.742 -0.1807  0.6215 -0.9042
  617MOL0     H83283   6.022   6.335   5.726  0.6352 -1.9201  0.9391
  617MOL0     H83284   6.100   6.297   5.851 -3.7877 -1.1068 -1.9652
  617MOL0     H83285   6.235   6.426   5.616  0.8509  0.5070 -0.8760
  617MOL0     H83286   6.278   6.268   5.682  1.3581  0.3430  1.9084
  617MOL0     H83287   6.360   6.372   5.898  2.0740  1.8796  0.9561
  617MOL0     H83288   6.327   6.532   5.835  1.2482  0.4143  0.9279
  617MOL0     H83289   6.497   6.326   5.709 -0.5056 -0.5725  3.3776
  617MOL0     H83290   6.467   6.481   5.635 -3.4390  0.8787  0.5220
  617MOL0     H83291   6.757   6.476   5.967  0.4445  1.2251 -1.0976
  617MOL0     H83292   6.099   6.693   6.048 -0.5181  0.7977  2.1486
  617MOL0     H83293   5.812   6.773   6.258 -1.4065 -1.5402  0.3097
  617MOL0     H83294   5.978   6.737   6.246 -1.3876  1.3371  1.4092
  617MOL0     H83295   5.920   6.887   6.161  2.1972  0.1218  0.9786
  618MOL0     O83296   8.685   2.014   9.951 -0.0526 -0.7980  0.3756
  618MOL0     C83297   8.717   1.948   9.855  0.4530 -0.0972 -0.9605
  618MOL0     O83298   8.807   1.847   9.854 -0.9823  0.2632 -0.2021
  618MOL0     C83299   8.862   1.800   9.974  0.3893 -0.1445 -0.0283
  618MOL0     C83300   8.982   1.857  10.027 -0.7353  0.7733  0.1554
  618MOL0     C83301   9.021   1.816  10.158 -0.2208  0.0143 -0.2398
  618MOL0     C83302   8.967   1.709  10.219  0.0065  0.5862 -1.0405
  618MOL0     O83303   9.015   1.674  10.343 -0.3444  0.4975  0.2969
  618MOL0     C83304   8.950   1.755  10.450  0.2389 -0.3701 -0.6872
  618MOL0     C83305   9.021   1.738  10.581 -0.3807  0.0740  0.6023
  618MOL0     C83306   9.169   1.792  10.600 -0.7275 -0.0309 -0.5411
  618MOL0     C83307   9.273   1.696  10.547 -0.8160 -0.1995  0.7233
  618MOL0     C83308   9.418   1.736  10.512  0.7294 -0.0711 -0.2295
  618MOL0     C83309   9.469   1.841  10.612  0.8345 -0.1579  0.5421
  618MOL0     C83310   9.606   1.892  10.565  1.0682 -0.5749 -0.7588
  618MOL0     C83311   9.636   2.043  10.617 -0.5403 -1.3297 -0.6011
  618MOL0     N83312   9.780   2.047  10.658 -0.6321 -0.2578  0.0801
  618MOL0     C83313   9.895   2.035  10.578  0.3042 -1.0749 -0.4912
  618MOL0     C83314  10.001   2.078  10.663 -0.2839 -0.6081 -0.3270
  618MOL0     C83315  10.148   2.072  10.621  0.3890 -0.5884  0.0303
  618MOL0     C83316  10.247   2.095  10.735 -0.3474 -0.8569  0.0594
  618MOL0     C83317  10.400   2.076  10.708  0.3420 -0.5443  0.5350
  618MOL0     C83318  10.447   1.940  10.652  0.0286 -0.0966 -0.4182
  618MOL0     O83319  10.375   1.905  10.532  0.6811  0.0394 -0.0205
  618MOL0     C83320  10.357   1.771  10.494 -0.2887  0.1215 -0.0712
  618MOL0     C83321  10.284   1.741  10.380 -0.1997 -0.9210 -0.0759
  618MOL0     C83322  10.261   1.606  10.346 -0.7785 -0.7628  0.0404
  618MOL0     C83323  10.310   1.504  10.431 -0.4721  0.5550  1.3650
  618MOL0     C83324  10.308   1.361  10.381  0.5227 -0.5082 -0.0866
  618MOL0     O83325  10.193   1.322  10.320  0.2300  0.9912  0.9229
  618MOL0     C83326  10.187   1.200  10.244 -0.8356 -0.7645  0.0957
  618MOL0     C83327  10.055   1.165  10.201 -0.7533 -0.9906  0.5365
  618MOL0     C83328  10.029   1.057  10.114  0.4691 -0.9352 -0.2052
  618MOL0     C83329  10.139   0.968  10.078 -0.1687 -0.1418 -0.3601
  618MOL0     O83330  10.121   0.857  10.013  0.4485 -0.1774 -0.5709
  618MOL0     C83331  10.195   0.743  10.046  0.3008 -0.1041  0.2474
  618MOL0     C83332  10.162   0.693  10.187 -0.2601 -0.4290 -0.7265
  618MOL0     C83333  10.218   0.556  10.220  0.7847  0.3201 -0.9821
  618MOL0     C83334  10.371   0.539  10.221  0.5348 -0.7820 -0.2856
  618MOL0     C83335  10.450   0.609  10.334 -0.4016  0.4325  0.0995
  618MOL0     C83336  10.607   0.606  10.313  0.4061 -0.4852 -0.3064
  618MOL0     C83337  10.677   0.471  10.324  0.2740 -0.8112  0.1937
  618MOL0     C83338  10.793   0.475  10.416 -0.6186 -0.6852  0.2533
  618MOL0    Cl83339  10.870   0.317  10.408 -0.3271  0.3984 -0.3045
  618MOL0     C83340  10.265   1.006  10.131  1.1047  0.3924  0.2303
  618MOL0     C83341  10.293   1.121  10.201  0.6334  0.4497  1.2883
  618MOL0     O83342  10.408   1.295  10.406 -0.2345  0.3287 -0.0376
  618MOL0     C83343  10.400   1.538  10.538 -0.1250 -0.0069 -0.5620
  618MOL0     C83344  10.417   1.667  10.572 -0.7911  0.6413 -0.1746
  618MOL0     N83345   9.950   2.119  10.779 -0.3606  0.2403 -0.1585
  618MOL0     N83346   9.820   2.098  10.777 -0.9402 -0.3991  0.1858
  618MOL0     C83347   8.865   1.635  10.152 -0.1344  0.0198 -0.5309
  618MOL0     C83348   8.811   1.687  10.037  0.8778 -0.1621  0.7413
  618MOL0     C83349   8.641   1.974   9.730  0.0046 -0.0831 -0.7017
  618MOL0     C83350   8.583   1.871   9.656 -0.6792 -0.0583 -0.2736
  618MOL0     C83351   8.490   1.886   9.558 -0.4985 -0.2870  0.6554
  618MOL0     C83352   8.452   2.009   9.510  1.1190 -0.6194  0.0861
  618MOL0     O83353   8.357   2.027   9.413 -0.3887  0.2128  0.1714
  618MOL0     C83354   8.313   1.914   9.339  0.4854 -0.4387  0.0731
  618MOL0     C83355   8.200   1.968   9.244 -0.0347  0.1885  0.4062
  618MOL0     C83356   8.139   1.851   9.160 -1.1959 -0.5560  0.1943
  618MOL0     C83357   8.186   1.846   9.015  0.5633  0.6403 -0.2123
  618MOL0     C83358   8.330   1.855   9.000  0.1290  0.8320 -0.2745
  618MOL0     C83359   8.453   1.867   8.993 -0.7288 -0.5829  0.4644
  618MOL0     C83360   8.507   2.118   9.578 -0.5679 -0.0888 -0.1974
  618MOL0     C83361   8.600   2.104   9.689  0.2288 -0.5004 -0.1324
  618MOL0     C83362   8.657   2.231   9.745  1.2121 -0.2160 -0.4926
  618MOL0     H83363   9.028   1.932   9.964  1.6396  0.7790  1.7443
  618MOL0     H83364   9.100   1.867  10.211  2.1578 -0.6045 -2.9195
  618MOL0     H83365   8.936   1.859  10.420 -0.1379 -0.5668 -1.1948
  618MOL0     H83366   8.849   1.716  10.467  0.7970 -2.4668 -1.7641
  618MOL0     H83367   9.029   1.633  10.613 -2.7643  0.2701  2.0505
  618MOL0     H83368   8.956   1.784  10.656 -0.9245  0.0854  0.1223
  618MOL0     H83369   9.183   1.817  10.706 -1.5594 -1.7687  0.0140
  618MOL0     H83370   9.182   1.884  10.542 -1.5009  0.6434  0.3297
  618MOL0     H83371   9.285   1.625  10.630  1.1323 -2.7644 -1.5618
  618MOL0     H83372   9.237   1.641  10.460  0.4027  2.6090 -1.7334
  618MOL0     H83373   9.478   1.646  10.526 -0.4225 -0.9077 -0.5361
  618MOL0     H83374   9.422   1.776  10.411  2.7504  1.7947  0.5267
  618MOL0     H83375   9.400   1.926  10.619  1.8120  0.9724 -1.9863
  618MOL0     H83376   9.488   1.802  10.712  1.8433  0.7507  0.7291
  618MOL0     H83377   9.625   1.895  10.457  0.1941 -1.7201 -0.9572
  618MOL0     H83378   9.681   1.826  10.610 -0.3213 -1.2891  0.5946
  618MOL0     H83379   9.617   2.106  10.530  0.8717 -2.7488 -1.9869
  618MOL0     H83380   9.569   2.065  10.701 -3.6436 -1.9074 -2.7464
  618MOL0     H83381   9.909   2.005  10.475  1.1229  1.3434 -1.1637
  618MOL0     H83382  10.153   1.970  10.584 -1.2273 -1.6846  2.5446
  618MOL0     H83383  10.160   2.143  10.538 -0.5409 -2.1742 -1.5244
  618MOL0     H83384  10.245   2.198  10.772  1.5705 -1.6960  2.8641
  618MOL0     H83385  10.232   2.033  10.824 -0.0198  0.1789  0.8527
  618MOL0     H83386  10.457   2.091  10.800 -2.6022 -0.7897  2.5182
  618MOL0     H83387  10.429   2.152  10.635  1.5359 -1.0003  0.5194
  618MOL0     H83388  10.424   1.868  10.730  0.8554  2.4641  2.3856
  618MOL0     H83389  10.554   1.954  10.637  0.1826 -0.7051  0.0881
  618MOL0     H83390  10.233   1.820  10.326  0.4470  1.3116  2.3682
  618MOL0     H83391  10.205   1.598  10.254  1.2480  2.2850 -1.6297
  618MOL0     H83392   9.970   1.222  10.238 -0.0409  1.6782 -1.6175
  618MOL0     H83393   9.931   1.016  10.094  0.1663 -1.0759  1.4762
  618MOL0     H83394  10.164   0.665   9.976 -4.5313  0.0027  1.9239
  618MOL0     H83395  10.304   0.755  10.036  0.3169 -0.7197 -0.3922
  618MOL0     H83396  10.196   0.760  10.266  0.9950 -2.4575  0.5502
  618MOL0     H83397  10.053   0.690  10.187 -0.2810  0.1404 -1.1204
  618MOL0     H83398  10.176   0.529  10.317 -0.7917  0.7956 -1.4934
  618MOL0     H83399  10.175   0.483  10.149  0.1417 -0.5334  0.2478
  618MOL0     H83400  10.400   0.576  10.123 -0.0704  3.8176  1.0273
  618MOL0     H83401  10.410   0.436  10.225  1.6249 -0.3817  2.5265
  618MOL0     H83402  10.431   0.564  10.432  0.5540 -0.4696 -0.1178
  618MOL0     H83403  10.416   0.713  10.334 -0.3668  0.4542  1.3356
  618MOL0     H83404  10.629   0.665  10.224  1.3778  1.2746  1.0249
  618MOL0     H83405  10.636   0.669  10.398 -3.0670 -0.6388  1.1912
  618MOL0     H83406  10.711   0.458  10.220 -1.6111  1.6171 -0.8383
  618MOL0     H83407  10.603   0.394  10.349  0.2298 -1.0136 -0.5225
  618MOL0     H83408  10.868   0.544  10.376 -1.0477  0.3253  1.1423
  618MOL0     H83409  10.767   0.510  10.517  2.9330  1.7259  0.5222
  618MOL0     H83410  10.356   0.957  10.098 -0.9941 -2.4171 -1.8225
  618MOL0     H83411  10.399   1.131  10.220  1.6570  0.3038 -3.2226
  618MOL0     H83412  10.445   1.461  10.601 -0.3408  1.2292  1.1873
  618MOL0     H83413  10.492   1.686  10.649 -1.1893  0.4221  0.2751
  618MOL0     H83414   8.813   1.558  10.207 -3.4925  2.9676  0.8838
  618MOL0     H83415   8.726   1.634   9.995  1.1299  0.0780 -0.0858
  618MOL0     H83416   8.594   1.768   9.688 -2.5901 -0.2837 -0.2397
  618MOL0     H83417   8.450   1.795   9.514  1.1046 -1.4972  1.6022
  618MOL0     H83418   8.258   1.847   9.405 -1.0159  1.7653  1.2127
  618MOL0     H83419   8.393   1.866   9.283  1.2956 -0.9349  1.6026
  618MOL0     H83420   8.238   2.042   9.172 -0.4905  1.1329  1.1305
  618MOL0     H83421   8.126   2.025   9.300  1.4158  0.7848  1.8070
  618MOL0     H83422   8.030   1.865   9.168 -0.8681  1.6177  1.5057
  618MOL0     H83423   8.163   1.757   9.211 -0.6308 -2.0716 -2.6829
  618MOL0     H83424   8.156   1.753   8.966  3.1392 -0.8722  0.8385
  618MOL0     H83425   8.137   1.929   8.964 -1.7140 -1.2136 -1.2330
  618MOL0     H83426   8.555   1.874   8.961 -1.3075 -1.5773 -1.7877
  618MOL0     H83427   8.492   2.213   9.528 -1.9667 -1.5485 -2.7916
  618MOL0     H83428   8.731   2.208   9.823  1.0491 -1.3476 -0.6555
  618MOL0     H83429   8.707   2.300   9.676  1.7221  1.0651  1.0693
  618MOL0     H83430   8.578   2.298   9.781  2.1613  2.0164 -2.2514
  619MOL0     O83431   8.890   8.996   0.645 -0.2549  0.0851 -0.0920
  619MOL0     C83432   8.827   9.092   0.604 -0.5546  0.0845  0.1443
  619MOL0     O83433   8.831   9.129   0.475 -0.1940 -0.2350 -0.0422
  619MOL0     C83434   8.889   9.058   0.378 -0.9019 -0.8522 -0.2835
  619MOL0     C83435   8.824   9.081   0.254 -0.8875 -0.0347 -0.8023
  619MOL0     C83436   8.876   9.041   0.130  0.5274  0.7025 -0.4190
  619MOL0     C83437   8.992   8.951   0.140  0.0375  0.1089  0.2262
  619MOL0     O83438   9.056   8.890   0.036 -0.4221 -0.8970 -0.2540
  619MOL0     C83439   9.027   8.930  -0.095 -0.2554  0.1920 -0.4054
  619MOL0     C83440   9.097   8.839  -0.183  0.3052  0.5079  0.6202
  619MOL0     C83441   9.245   8.862  -0.185 -0.3077 -0.3731  0.5467
  619MOL0     C83442   9.304   8.822  -0.319 -0.0413  0.8050  0.0958
  619MOL0     C83443   9.456   8.828  -0.328 -0.0964  0.1845  0.7862
  619MOL0     C83444   9.498   8.783  -0.475 -0.2456  0.3594  0.2793
  619MOL0     C83445   9.462   8.642  -0.503  0.2396 -0.2011  0.0969
  619MOL0     C83446   9.567   8.549  -0.453  1.3345 -0.9561 -0.6208
  619MOL0     N83447   9.705   8.565  -0.501 -0.1200 -1.4489  0.4704
  619MOL0     C83448   9.807   8.605  -0.419 -0.5585  0.9297  0.0977
  619MOL0     C83449   9.914   8.585  -0.504 -1.2055 -0.2870  0.5981
  619MOL0     C83450  10.052   8.635  -0.477  1.1340  1.6075 -0.8736
  619MOL0     C83451  10.077   8.780  -0.504 -0.1317 -0.2217 -0.0393
  619MOL0     C83452  10.225   8.814  -0.493 -0.0569 -0.1692 -0.6453
  619MOL0     C83453  10.293   8.803  -0.352 -0.4025  0.4655  0.7966
  619MOL0     O83454  10.314   8.669  -0.315  0.6150  0.3985  0.4698
  619MOL0     C83455  10.438   8.623  -0.330 -0.2373  0.1587 -0.4215
  619MOL0     C83456  10.532   8.663  -0.234 -0.0016 -0.5158 -0.4017
  619MOL0     C83457  10.664   8.626  -0.237 -0.1413  0.0020 -0.3310
  619MOL0     C83458  10.710   8.549  -0.342 -0.0086 -0.1679  1.0189
  619MOL0     C83459  10.854   8.503  -0.357 -0.4710 -0.4765 -0.6658
  619MOL0     O83460  10.874   8.372  -0.379 -0.4345  0.3912 -0.2444
  619MOL0     C83461  11.001   8.311  -0.380 -0.0814  0.4952  0.1281
  619MOL0     C83462  11.129   8.365  -0.380 -0.3816  0.6556 -0.1563
  619MOL0     C83463  11.245   8.281  -0.373 -0.3798 -0.1597 -0.2233
  619MOL0     C83464  11.235   8.147  -0.374 -0.5603  0.6901 -0.3007
  619MOL0     O83465  11.341   8.064  -0.370 -0.0361 -0.3064 -0.5427
  619MOL0     C83466  11.326   7.950  -0.285 -0.1634  0.7625  0.5385
  619MOL0     C83467  11.456   7.862  -0.264 -0.1139 -0.6460  0.2924
  619MOL0     C83468  11.566   7.962  -0.225 -0.2830 -0.6408  0.1934
  619MOL0     C83469  11.698   7.893  -0.219  0.5291  0.6162  0.3058
  619MOL0     C83470  11.815   7.989  -0.205 -0.8964 -0.0334 -0.4296
  619MOL0     C83471  11.946   7.921  -0.245 -0.2412  0.0812 -0.2550
  619MOL0     C83472  12.063   8.015  -0.280 -0.7699  0.1462  0.6385
  619MOL0     C83473  12.053   8.094  -0.411  0.5554  0.4229 -0.8013
  619MOL0    Cl83474  12.206   8.181  -0.458 -0.1668 -0.2081 -0.0569
  619MOL0     C83475  11.112   8.086  -0.395  0.1726  0.9726  0.5281
  619MOL0     C83476  10.998   8.164  -0.391  0.0643 -0.2961 -0.2151
  619MOL0     O83477  10.938   8.590  -0.364  0.4755 -0.2056  0.1261
  619MOL0     C83478  10.618   8.503  -0.444  0.0762  0.0666  0.0584
  619MOL0     C83479  10.480   8.540  -0.434 -0.2503  0.3805 -0.1912
  619MOL0     N83480   9.875   8.532  -0.624 -0.6532 -0.2274  1.0829
  619MOL0     N83481   9.751   8.513  -0.611  0.1896  0.1977  0.8608
  619MOL0     C83482   9.050   8.927   0.263 -0.2290  0.4218  0.1672
  619MOL0     C83483   9.010   8.984   0.385 -0.0925 -0.0016  0.3553
  619MOL0     C83484   8.744   9.171   0.697 -0.2666  0.3116 -0.3042
  619MOL0     C83485   8.738   9.140   0.834 -0.4888  0.9724  0.6857
  619MOL0     C83486   8.649   9.195   0.923 -1.1560  0.6176 -0.4758
  619MOL0     C83487   8.554   9.286   0.878 -0.4413 -0.0756 -1.4552
  619MOL0     O83488   8.470   9.344   0.972  0.0303 -0.0314  0.3673
  619MOL0     C83489   8.333   9.330   0.938 -0.1756 -0.9327 -0.2398
  619MOL0     C83490   8.291   9.186   0.927 -0.2987  0.6006 -0.6318
  619MOL0     C83491   8.300   9.109   1.062  0.7658 -1.0722 -0.9849
  619MOL0     C83492   8.199   9.164   1.161 -0.0762 -0.0798 -0.1978
  619MOL0     C83493   8.061   9.128   1.106 -0.5135 -0.7704 -0.4094
  619MOL0     C83494   7.954   9.094   1.055  0.2244 -0.3552 -0.4054
  619MOL0     C83495   8.566   9.327   0.748 -0.2387  0.0805  0.7116
  619MOL0     C83496   8.660   9.274   0.654  0.0991  0.1122 -0.8817
  619MOL0     C83497   8.649   9.334   0.511  0.2403  1.0850 -0.0295
  619MOL0     H83498   8.727   9.130   0.257 -1.2533 -0.7802 -0.1398
  619MOL0     H83499   8.834   9.057   0.031  1.0688 -0.3937 -0.8480
  619MOL0     H83500   8.920   8.920  -0.115  0.3757 -2.7827 -3.1006
  619MOL0     H83501   9.066   9.032  -0.102  1.2827 -0.3131  0.3660
  619MOL0     H83502   9.054   8.856  -0.282 -0.7101  3.9834  1.5138
  619MOL0     H83503   9.087   8.737  -0.146  2.6896  0.8576  2.5039
  619MOL0     H83504   9.306   8.804  -0.115  1.5236  1.7489  0.8230
  619MOL0     H83505   9.259   8.968  -0.162  1.7772 -0.2316 -1.0654
  619MOL0     H83506   9.272   8.718  -0.330  0.5602  0.3821  1.9743
  619MOL0     H83507   9.264   8.890  -0.394 -0.8260 -2.0880 -2.2985
  619MOL0     H83508   9.488   8.932  -0.318  2.2390 -0.1259 -2.0878
  619MOL0     H83509   9.501   8.763  -0.254 -0.8788  1.4693  2.4633
  619MOL0     H83510   9.440   8.849  -0.540  2.4874  3.0239  0.2981
  619MOL0     H83511   9.605   8.794  -0.499  0.3026 -1.8871  1.4268
  619MOL0     H83512   9.452   8.640  -0.612 -2.7253 -0.1991  0.2813
  619MOL0     H83513   9.361   8.608  -0.477 -1.1691  2.1710 -1.8254
  619MOL0     H83514   9.575   8.562  -0.345  1.5641 -1.1313 -0.6159
  619MOL0     H83515   9.542   8.446  -0.478  1.2499 -1.3538  1.0466
  619MOL0     H83516   9.793   8.651  -0.322 -1.2049  1.0447 -0.0469
  619MOL0     H83517  10.065   8.626  -0.369 -0.0360 -1.9518 -0.9031
  619MOL0     H83518  10.125   8.564  -0.516 -0.1260  0.0774 -0.5438
  619MOL0     H83519  10.050   8.804  -0.608  2.7540 -4.1687 -1.9444
  619MOL0     H83520  10.022   8.846  -0.436 -0.3103 -0.6430  0.2277
  619MOL0     H83521  10.236   8.918  -0.523  1.6698 -0.2251 -0.2725
  619MOL0     H83522  10.268   8.755  -0.574 -0.6603 -1.1437 -0.2795
  619MOL0     H83523  10.236   8.847  -0.270  0.6198  2.0135  0.7104
  619MOL0     H83524  10.388   8.854  -0.372 -0.4856 -0.0924 -1.2536
  619MOL0     H83525  10.493   8.739  -0.167 -3.0018 -0.1403 -2.3834
  619MOL0     H83526  10.739   8.663  -0.168 -0.8804  0.5588  0.1910
  619MOL0     H83527  11.148   8.472  -0.387 -0.0457  0.5110 -3.9640
  619MOL0     H83528  11.349   8.313  -0.364 -0.1801 -0.6120 -0.8276
  619MOL0     H83529  11.290   7.978  -0.185  1.8039  0.4024  1.3913
  619MOL0     H83530  11.249   7.884  -0.326  0.6334 -1.6284  2.6352
  619MOL0     H83531  11.460   7.781  -0.191  2.3885 -1.0477 -0.2136
  619MOL0     H83532  11.469   7.812  -0.360 -1.2721  0.1105 -0.2815
  619MOL0     H83533  11.578   8.039  -0.301 -1.9753 -1.4455 -0.9730
  619MOL0     H83534  11.549   8.015  -0.131 -0.8218 -1.9468  0.8676
  619MOL0     H83535  11.718   7.841  -0.313 -2.7954  0.3107 -0.3508
  619MOL0     H83536  11.706   7.813  -0.146 -0.8986 -0.1694 -0.3628
  619MOL0     H83537  11.817   8.025  -0.102 -1.4404 -1.6201  0.1599
  619MOL0     H83538  11.812   8.073  -0.276  1.1322  2.0891  1.7973
  619MOL0     H83539  11.970   7.867  -0.153  0.4240 -1.3663 -1.2387
  619MOL0     H83540  11.940   7.853  -0.331  2.1500  0.2998 -0.6659
  619MOL0     H83541  12.148   7.946  -0.276 -1.4061 -0.8064 -1.1278
  619MOL0     H83542  12.077   8.092  -0.204  1.1237  3.6239 -2.8990
  619MOL0     H83543  12.012   8.039  -0.495  0.3718  0.9378 -1.0550
  619MOL0     H83544  11.975   8.168  -0.388  0.7000  0.2626  0.2367
  619MOL0     H83545  11.090   7.983  -0.422  3.2104  0.4155 -0.1915
  619MOL0     H83546  10.902   8.117  -0.405 -0.1250 -0.3353  1.1411
  619MOL0     H83547  10.656   8.439  -0.522 -1.6265 -3.4997  1.9241
  619MOL0     H83548  10.408   8.491  -0.498  1.2474  0.7246 -2.2372
  619MOL0     H83549   9.125   8.849   0.256 -0.8794 -0.4325  2.2350
  619MOL0     H83550   9.052   8.968   0.484 -2.4724  0.2734  1.4871
  619MOL0     H83551   8.810   9.068   0.871  2.0734  3.0819  0.1421
  619MOL0     H83552   8.637   9.173   1.029  1.1266 -2.6457 -0.7494
  619MOL0     H83553   8.322   9.392   0.849  3.4022 -0.2777 -0.3710
  619MOL0     H83554   8.271   9.380   1.013  0.5020 -4.6546  3.1093
  619MOL0     H83555   8.361   9.143   0.856 -1.7050  1.1442 -2.4221
  619MOL0     H83556   8.196   9.184   0.873 -0.0215  2.7153 -1.2961
  619MOL0     H83557   8.399   9.118   1.108  0.6623  3.3228 -1.2449
  619MOL0     H83558   8.279   9.002   1.055 -1.8297 -1.0866  3.2067
  619MOL0     H83559   8.229   9.124   1.258  0.4455 -2.9026 -1.4217
  619MOL0     H83560   8.204   9.272   1.180  2.0898 -0.3696  1.2587
  619MOL0     H83561   7.859   9.070   1.012  0.0693 -5.1337  1.9201
  619MOL0     H83562   8.503   9.411   0.720  3.3185  3.1932  1.1848
  619MOL0     H83563   8.583   9.421   0.523  0.0767  1.1021 -0.9247
  619MOL0     H83564   8.738   9.377   0.464 -1.4261  1.2615 -3.3466
  619MOL0     H83565   8.603   9.260   0.445  2.9053 -0.5598 -0.1526
  620MOL0     O83566   1.080   8.841   1.868 -0.1914  0.3073  0.4968
  620MOL0     C83567   0.993   8.774   1.919  0.3997 -0.1672  0.2011
  620MOL0     O83568   1.002   8.652   1.979 -0.4965 -0.4936 -0.3717
  620MOL0     C83569   1.114   8.598   2.021  0.6177  0.1115 -1.3009
  620MOL0     C83570   1.093   8.465   2.077 -0.5074 -0.5498 -0.3831
  620MOL0     C83571   1.204   8.391   2.108  0.3868  0.4191 -0.4995
  620MOL0     C83572   1.337   8.449   2.113  0.4267 -0.0584 -0.6193
  620MOL0     O83573   1.445   8.391   2.170 -0.2412 -0.3536 -0.5058
  620MOL0     C83574   1.439   8.267   2.230  0.5438 -0.6556  0.6871
  620MOL0     C83575   1.490   8.281   2.376  0.5845 -0.2512  0.0844
  620MOL0     C83576   1.630   8.348   2.393 -0.0785 -0.4016 -0.7915
  620MOL0     C83577   1.621   8.449   2.509  0.9298  0.2363  0.6428
  620MOL0     C83578   1.735   8.550   2.522 -0.5173  0.2885 -0.1432
  620MOL0     C83579   1.868   8.473   2.507  0.1991  1.2732 -0.2195
  620MOL0     C83580   1.994   8.553   2.543  0.6371 -1.0610 -0.7510
  620MOL0     C83581   2.125   8.493   2.482  0.6779  0.4870  0.4950
  620MOL0     N83582   2.242   8.503   2.573 -0.6240 -0.3277 -0.8029
  620MOL0     C83583   2.280   8.621   2.630 -0.4425 -0.3528  0.0774
  620MOL0     C83584   2.406   8.599   2.666 -0.3450  0.8184  0.3932
  620MOL0     C83585   2.508   8.701   2.715 -0.3532 -0.1734 -0.0465
  620MOL0     C83586   2.517   8.688   2.873 -0.5590 -0.2818  0.6498
  620MOL0     C83587   2.623   8.791   2.915  0.1361  0.9101 -0.5599
  620MOL0     C83588   2.661   8.749   3.062  0.4392 -0.0613  0.1898
  620MOL0     O83589   2.548   8.760   3.155  0.0518  0.2453  0.2338
  620MOL0     C83590   2.543   8.707   3.282  0.3255  0.9635  0.1547
  620MOL0     C83591   2.435   8.735   3.357 -1.1421  0.4341  0.4611
  620MOL0     C83592   2.427   8.708   3.491 -0.0527  0.1244  0.6811
  620MOL0     C83593   2.530   8.626   3.551  0.5731 -0.2314  0.1722
  620MOL0     C83594   2.525   8.588   3.683 -0.1022 -0.4291  0.2183
  620MOL0     O83595   2.643   8.578   3.759 -0.5716  0.0456  0.4826
  620MOL0     C83596   2.647   8.532   3.884 -0.2035  0.1278 -1.1512
  620MOL0     C83597   2.558   8.442   3.945 -0.0478  0.0857 -0.0094
  620MOL0     C83598   2.572   8.410   4.079 -1.3400 -0.3587  0.6702
  620MOL0     C83599   2.680   8.465   4.157 -0.3497 -0.3193  0.3757
  620MOL0     O83600   2.692   8.443   4.289 -0.1388  0.1755 -0.5463
  620MOL0     C83601   2.581   8.411   4.365 -0.0257  0.1959 -0.3184
  620MOL0     C83602   2.599   8.471   4.505 -0.3745 -0.3564  0.9813
  620MOL0     C83603   2.592   8.624   4.489 -0.4184  0.9104  0.1348
  620MOL0     C83604   2.681   8.701   4.588 -0.0516  0.3175  0.7157
  620MOL0     C83605   2.690   8.851   4.556  0.0382 -0.0182  0.9224
  620MOL0     C83606   2.717   8.886   4.406  0.2976 -0.0940  0.0418
  620MOL0     C83607   2.869   8.837   4.370  0.5052 -0.1653  0.2766
  620MOL0     C83608   2.883   8.839   4.213  0.0751 -0.4535  0.0903
  620MOL0    Cl83609   2.924   8.992   4.145  0.1670  0.3923  0.3042
  620MOL0     C83610   2.763   8.554   4.097 -0.6084 -0.5647  0.1742
  620MOL0     C83611   2.749   8.589   3.961  0.2651  0.1152 -1.3034
  620MOL0     O83612   2.410   8.589   3.732  0.4614 -0.4724  0.6704
  620MOL0     C83613   2.642   8.594   3.473  0.9924 -0.1906 -0.5267
  620MOL0     C83614   2.635   8.620   3.336 -0.4534  1.3024 -0.7736
  620MOL0     N83615   2.438   8.469   2.645  0.3356 -0.1013  0.1352
  620MOL0     N83616   2.342   8.404   2.581  0.0586  0.4580 -0.6325
  620MOL0     C83617   1.348   8.585   2.068 -0.1762  0.4415  0.0985
  620MOL0     C83618   1.241   8.654   2.014  0.4236  0.2311 -0.8742
  620MOL0     C83619   0.857   8.812   1.882  0.1485  0.4657  0.1790
  620MOL0     C83620   0.766   8.714   1.845  0.7278 -0.2631 -0.1007
  620MOL0     C83621   0.636   8.741   1.796 -0.5104  0.3579 -0.2726
  620MOL0     C83622   0.596   8.870   1.789  0.5785 -0.7130 -0.6644
  620MOL0     O83623   0.465   8.897   1.761  0.7856  0.2030 -0.1803
  620MOL0     C83624   0.418   9.030   1.739  0.0404  0.4552  0.4607
  620MOL0     C83625   0.277   9.008   1.694 -0.7549 -0.6521  1.1394
  620MOL0     C83626   0.193   9.127   1.731 -0.2114  0.2038 -0.1061
  620MOL0     C83627   0.058   9.118   1.650 -0.2614  0.1976  1.0327
  620MOL0     C83628  -0.029   9.229   1.691 -0.8247 -0.7019  0.0955
  620MOL0     C83629  -0.097   9.315   1.738  0.3717  1.3848 -0.1335
  620MOL0     C83630   0.682   8.974   1.823 -0.9496 -0.2800  0.7070
  620MOL0     C83631   0.816   8.952   1.872  0.4906 -0.1876 -0.2495
  620MOL0     C83632   0.901   9.071   1.904 -0.0210 -0.2691  0.1703
  620MOL0     H83633   0.993   8.422   2.077  0.7358 -3.7074 -1.1973
  620MOL0     H83634   1.183   8.289   2.137 -1.0102  0.7124 -0.4067
  620MOL0     H83635   1.351   8.203   2.217 -0.4315  0.7831 -0.2043
  620MOL0     H83636   1.508   8.199   2.180 -2.1317 -3.3596  0.4035
  620MOL0     H83637   1.493   8.177   2.411  2.3548 -0.8300 -1.5706
  620MOL0     H83638   1.421   8.349   2.425  0.6134 -0.2581  0.1330
  620MOL0     H83639   1.661   8.405   2.305 -2.0642 -0.7202 -1.7489
  620MOL0     H83640   1.709   8.274   2.412 -0.7518 -0.7518  0.8427
  620MOL0     H83641   1.530   8.507   2.493  0.2838 -0.3238  2.1921
  620MOL0     H83642   1.601   8.388   2.597  0.9992  1.3798  1.4656
  620MOL0     H83643   1.740   8.631   2.449 -0.4399  2.4293  2.0932
  620MOL0     H83644   1.736   8.602   2.619 -0.6876 -0.5623  0.3254
  620MOL0     H83645   1.875   8.385   2.572  0.7005  2.3297  1.2103
  620MOL0     H83646   1.888   8.444   2.404 -1.6212  1.4649 -0.6780
  620MOL0     H83647   2.001   8.555   2.652 -1.6639  1.1619 -0.5627
  620MOL0     H83648   1.986   8.653   2.500  0.6205  0.3859  2.3299
  620MOL0     H83649   2.098   8.389   2.463 -0.2811  1.3472 -4.3430
  620MOL0     H83650   2.134   8.552   2.390 -3.0160 -0.5657 -0.7101
  620MOL0     H83651   2.226   8.715   2.636  0.1135  0.4560 -4.3107
  620MOL0     H83652   2.605   8.689   2.665 -0.2282  4.3327 -1.2683
  620MOL0     H83653   2.472   8.800   2.686 -0.3684 -0.2257 -0.2069
  620MOL0     H83654   2.421   8.713   2.919 -0.5842  0.0010  0.4491
  620MOL0     H83655   2.525   8.584   2.904 -1.5266 -1.0840 -1.6159
  620MOL0     H83656   2.589   8.894   2.907 -1.2654  0.4661 -0.4896
  620MOL0     H83657   2.715   8.778   2.857  0.0325  0.4186 -0.6166
  620MOL0     H83658   2.733   8.823   3.097  2.6328 -2.3388  0.8708
  620MOL0     H83659   2.692   8.644   3.061 -3.8385 -1.5155  0.8083
  620MOL0     H83660   2.361   8.799   3.311  2.1452  2.3371 -2.6647
  620MOL0     H83661   2.332   8.728   3.540 -1.2706 -1.0579 -1.0795
  620MOL0     H83662   2.482   8.388   3.890  1.1408 -2.0466  0.3373
  620MOL0     H83663   2.496   8.345   4.122 -2.4346  0.3141 -0.2127
  620MOL0     H83664   2.501   8.474   4.325 -0.2927  0.5848  0.7812
  620MOL0     H83665   2.553   8.305   4.364 -1.0164  0.4256  0.7599
  620MOL0     H83666   2.520   8.445   4.576 -1.5018  2.5252  0.9400
  620MOL0     H83667   2.700   8.451   4.539  0.5703 -0.1478 -1.4658
  620MOL0     H83668   2.614   8.638   4.383 -3.2996 -1.2468 -0.8965
  620MOL0     H83669   2.490   8.663   4.498 -0.8548 -0.3018  0.7280
  620MOL0     H83670   2.779   8.654   4.605 -0.2932 -1.0306 -1.3382
  620MOL0     H83671   2.630   8.689   4.684  1.1930 -1.2352  1.2310
  620MOL0     H83672   2.771   8.902   4.607  0.8646  0.9399 -1.2235
  620MOL0     H83673   2.603   8.908   4.592  1.1159  0.3557  3.0711
  620MOL0     H83674   2.635   8.843   4.347 -0.6308  2.9897 -1.1570
  620MOL0     H83675   2.710   8.990   4.373 -0.0874 -0.5482 -1.3843
  620MOL0     H83676   2.891   8.735   4.402  1.3962 -0.3337 -0.8382
  620MOL0     H83677   2.948   8.897   4.416  1.2698 -0.6568 -0.3765
  620MOL0     H83678   2.953   8.763   4.179 -0.4236 -1.5465  1.3874
  620MOL0     H83679   2.784   8.813   4.174 -1.3047  2.1417  1.5984
  620MOL0     H83680   2.844   8.587   4.162 -1.2329 -0.1538  0.7537
  620MOL0     H83681   2.809   8.660   3.906 -0.1558  1.5768  0.0591
  620MOL0     H83682   2.725   8.531   3.503  2.2165  1.0190 -1.2751
  620MOL0     H83683   2.718   8.584   3.276  0.9771  0.3275  1.6247
  620MOL0     H83684   1.443   8.638   2.068 -0.9126  1.8059 -0.2000
  620MOL0     H83685   1.260   8.747   1.961  1.8655  0.4879  0.0092
  620MOL0     H83686   0.804   8.613   1.829 -3.4094 -2.1069  0.2813
  620MOL0     H83687   0.565   8.659   1.781  0.0194 -0.5252  1.7921
  620MOL0     H83688   0.470   9.084   1.659  0.8538 -1.4476 -0.3453
  620MOL0     H83689   0.420   9.088   1.832  1.9131 -1.7280  1.8978
  620MOL0     H83690   0.237   8.916   1.739 -0.3255 -1.3846  0.0628
  620MOL0     H83691   0.277   8.992   1.586 -0.7213 -0.9549  1.1832
  620MOL0     H83692   0.237   9.217   1.686  1.4933 -0.0904  0.8816
  620MOL0     H83693   0.188   9.135   1.840  2.6504  1.4815  0.0405
  620MOL0     H83694   0.094   9.130   1.548 -2.4332 -1.4385  0.0070
  620MOL0     H83695   0.000   9.027   1.671 -2.1549  1.4318  1.3735
  620MOL0     H83696  -0.160   9.396   1.768 -3.4780 -1.0384 -1.0793
  620MOL0     H83697   0.654   9.079   1.829 -0.9587 -0.1839 -0.8082
  620MOL0     H83698   0.828   9.146   1.932 -0.5075  0.4221 -2.6333
  620MOL0     H83699   0.972   9.039   1.981  1.7525 -2.4169 -2.1732
  620MOL0     H83700   0.958   9.110   1.819 -1.2524  1.3554  0.0342
  621MOL0     O83701   2.768   0.068   7.592  0.1061 -0.5957  0.4798
  621MOL0     C83702   2.827   0.171   7.626 -0.2956 -0.1700 -0.0580
  621MOL0     O83703   2.816   0.293   7.562  0.3219 -0.6720  0.2852
  621MOL0     C83704   2.755   0.298   7.441 -0.0753  0.2347 -0.2531
  621MOL0     C83705   2.835   0.302   7.332  0.7733  0.0667 -0.6415
  621MOL0     C83706   2.782   0.351   7.218  0.1552 -0.2941  1.4342
  621MOL0     C83707   2.652   0.403   7.202 -0.4692 -0.3920 -0.7833
  621MOL0     O83708   2.624   0.451   7.077 -0.6281 -0.2497  0.5140
  621MOL0     C83709   2.489   0.500   7.057  1.1475  0.2225  0.6626
  621MOL0     C83710   2.469   0.640   7.103  0.7461  1.3390 -0.4220
  621MOL0     C83711   2.586   0.727   7.064  0.3355 -0.4137  0.3096
  621MOL0     C83712   2.548   0.859   6.998 -0.0302 -0.4189 -0.0364
  621MOL0     C83713   2.667   0.947   6.972 -0.4298 -0.0320  0.6512
  621MOL0     C83714   2.757   0.907   6.856  0.1987 -1.1342  0.1967
  621MOL0     C83715   2.701   0.899   6.717 -0.1724  0.4622 -0.5023
  621MOL0     C83716   2.680   1.048   6.673 -0.4724  0.0335 -0.3911
  621MOL0     N83717   2.584   1.054   6.560 -0.8075  0.2212 -0.1862
  621MOL0     C83718   2.610   0.980   6.451 -0.2810  0.9978 -0.3589
  621MOL0     C83719   2.527   1.030   6.363 -1.0972  0.0311  0.8687
  621MOL0     C83720   2.509   1.002   6.218  0.9243 -0.4502 -0.0279
  621MOL0     C83721   2.373   0.932   6.178  0.8385 -0.4324 -0.0476
  621MOL0     C83722   2.342   0.820   6.283 -0.3640  0.5486  0.4340
  621MOL0     C83723   2.221   0.728   6.222 -0.6644 -0.4970  0.8107
  621MOL0     O83724   2.262   0.673   6.091 -1.7670  0.0323 -0.2585
  621MOL0     C83725   2.339   0.558   6.101 -0.3012 -0.1403  0.4917
  621MOL0     C83726   2.374   0.490   5.980  0.7778 -0.3023 -0.1568
  621MOL0     C83727   2.437   0.363   5.978  0.6067  0.6945 -0.1683
  621MOL0     C83728   2.465   0.304   6.102 -0.1310  0.3574  0.9919
  621MOL0     C83729   2.521   0.167   6.105  1.2427  0.2558 -0.5594
  621MOL0     O83730   2.602   0.119   6.002 -0.6070 -0.7235  0.1500
  621MOL0     C83731   2.633  -0.021   6.007 -0.2332  0.2881 -0.5420
  621MOL0     C83732   2.548  -0.127   6.012 -0.3848 -0.9827 -0.3703
  621MOL0     C83733   2.589  -0.262   6.001 -0.2240 -0.3216 -0.1168
  621MOL0     C83734   2.721  -0.294   5.981 -0.3901  0.4084  1.1013
  621MOL0     O83735   2.755  -0.419   5.976 -0.1457  0.1968  0.1946
  621MOL0     C83736   2.860  -0.448   5.884 -0.3040 -0.6919 -0.3287
  621MOL0     C83737   2.822  -0.590   5.836 -0.1420 -0.1376  0.5604
  621MOL0     C83738   2.722  -0.608   5.720 -1.3245  0.5220 -0.8690
  621MOL0     C83739   2.668  -0.752   5.737 -0.3511 -0.1391 -0.1715
  621MOL0     C83740   2.592  -0.786   5.612 -0.0501 -0.0037 -0.2387
  621MOL0     C83741   2.542  -0.931   5.588  0.0522  0.0780  0.1595
  621MOL0     C83742   2.439  -0.981   5.697 -0.3364  0.1067  0.1768
  621MOL0     C83743   2.298  -0.932   5.674  0.0902  0.5845 -0.5194
  621MOL0    Cl83744   2.243  -1.009   5.512  0.4645 -0.1849  0.7377
  621MOL0     C83745   2.813  -0.180   5.975 -0.5540 -0.3612 -0.6552
  621MOL0     C83746   2.764  -0.046   5.990 -0.5386 -1.0346 -0.5605
  621MOL0     O83747   2.474   0.091   6.197 -0.4037  0.8320  0.7449
  621MOL0     C83748   2.440   0.365   6.226 -0.8543 -0.0378  1.1646
  621MOL0     C83749   2.379   0.498   6.224 -0.5926  0.6127 -0.2871
  621MOL0     N83750   2.454   1.140   6.426 -0.0878  0.0452 -0.7728
  621MOL0     N83751   2.488   1.146   6.544  0.1256  0.1488 -0.2230
  621MOL0     C83752   2.567   0.392   7.314 -0.4536 -1.2563  0.6454
  621MOL0     C83753   2.620   0.340   7.430 -0.0115  1.0099  0.2977
  621MOL0     C83754   2.920   0.167   7.745  0.0185 -0.3854  0.1138
  621MOL0     C83755   2.957   0.299   7.800 -0.0382  0.6472 -0.7409
  621MOL0     C83756   3.050   0.303   7.907  0.5411 -0.2827  0.1080
  621MOL0     C83757   3.101   0.186   7.963 -0.1505  0.3859 -0.1917
  621MOL0     O83758   3.183   0.197   8.068  0.0386  0.5699 -0.7847
  621MOL0     C83759   3.200   0.089   8.168 -0.3672 -0.8881  0.3693
  621MOL0     C83760   3.277   0.148   8.283 -0.2405 -0.1609 -0.2380
  621MOL0     C83761   3.198   0.261   8.353 -1.0868  0.4874  0.5838
  621MOL0     C83762   3.049   0.259   8.375 -0.1338  0.5771 -0.0316
  621MOL0     C83763   2.985   0.148   8.440  0.4590 -0.7744  0.6615
  621MOL0     C83764   2.934   0.059   8.499  0.1704  0.7465 -0.4592
  621MOL0     C83765   3.078   0.059   7.909 -0.6045 -0.3047  0.5000
  621MOL0     C83766   2.984   0.054   7.801 -0.9469  0.7738 -0.5502
  621MOL0     C83767   2.962  -0.090   7.758  0.6218  0.0401 -0.2423
  621MOL0     H83768   2.941   0.277   7.331  0.2685 -2.3963  1.2862
  621MOL0     H83769   2.854   0.359   7.136 -0.5907 -2.0000  0.5813
  621MOL0     H83770   2.463   0.502   6.950 -0.6060 -0.0341  1.0465
  621MOL0     H83771   2.421   0.427   7.101  0.3523  0.3664 -0.2769
  621MOL0     H83772   2.454   0.629   7.211  0.0998 -1.1954 -0.6978
  621MOL0     H83773   2.375   0.682   7.069 -1.6850 -2.3324  1.1276
  621MOL0     H83774   2.665   0.675   7.010  0.4134 -2.0344  1.8957
  621MOL0     H83775   2.631   0.749   7.161  0.2314 -0.1719  0.3028
  621MOL0     H83776   2.496   0.840   6.903  1.4471 -0.4669 -0.8770
  621MOL0     H83777   2.482   0.921   7.059 -0.0498 -0.9725  0.5109
  621MOL0     H83778   2.635   1.052   6.970  1.6480  0.7599  3.3950
  621MOL0     H83779   2.731   0.964   7.060  2.7967  1.5736 -1.7920
  621MOL0     H83780   2.831   0.987   6.850  0.8974 -1.7752  0.0713
  621MOL0     H83781   2.802   0.811   6.884  0.8845 -1.5041 -1.9545
  621MOL0     H83782   2.610   0.839   6.710  0.8576 -1.0082 -1.8506
  621MOL0     H83783   2.778   0.856   6.653 -1.1094 -1.6896 -0.2633
  621MOL0     H83784   2.623   1.108   6.745  0.8218 -1.0830  1.6700
  621MOL0     H83785   2.779   1.093   6.662 -1.0071  0.8816 -2.0833
  621MOL0     H83786   2.668   0.890   6.437 -2.1256 -0.1602 -0.8652
  621MOL0     H83787   2.507   1.096   6.162  0.4018 -1.9357 -2.6775
  621MOL0     H83788   2.586   0.932   6.187  0.9393  0.3102 -1.8319
  621MOL0     H83789   2.293   1.007   6.178  0.5671 -0.7123 -0.6396
  621MOL0     H83790   2.363   0.893   6.076 -2.7918 -0.0423  0.0131
  621MOL0     H83791   2.301   0.865   6.374 -0.9378 -2.2483  1.6508
  621MOL0     H83792   2.428   0.754   6.298  0.9046  1.8177 -0.8852
  621MOL0     H83793   2.130   0.788   6.215 -1.5088 -1.3537  3.4240
  621MOL0     H83794   2.194   0.648   6.290 -2.2074 -1.3090 -0.6753
  621MOL0     H83795   2.348   0.531   5.883  0.7578  2.1301  0.8115
  621MOL0     H83796   2.441   0.302   5.889 -2.7618 -2.0536  1.3033
  621MOL0     H83797   2.444  -0.106   6.035 -0.3721  0.7371 -1.6338
  621MOL0     H83798   2.504  -0.329   6.004 -0.1375 -0.5504 -1.6994
  621MOL0     H83799   2.862  -0.381   5.797 -1.9123  1.8943  1.5169
  621MOL0     H83800   2.960  -0.448   5.928  1.0149 -2.5613 -2.9874
  621MOL0     H83801   2.919  -0.619   5.793  0.6732  0.3114  2.0058
  621MOL0     H83802   2.809  -0.661   5.918 -2.3942 -2.9733 -2.0248
  621MOL0     H83803   2.641  -0.537   5.737 -2.7475 -0.6669 -2.3072
  621MOL0     H83804   2.774  -0.588   5.626 -0.9576 -0.0835 -0.8061
  621MOL0     H83805   2.603  -0.750   5.825 -1.6842  2.7495 -1.1083
  621MOL0     H83806   2.753  -0.818   5.758  0.7847  1.3869  0.2033
  621MOL0     H83807   2.652  -0.758   5.524 -2.2544 -0.9097 -2.1176
  621MOL0     H83808   2.497  -0.732   5.605 -0.7316 -1.0815  0.4193
  621MOL0     H83809   2.509  -0.932   5.484 -1.0071  1.3420  0.4497
  621MOL0     H83810   2.617  -1.010   5.585  1.6126  1.5451 -0.8236
  621MOL0     H83811   2.467  -0.954   5.800 -1.5542 -0.4484  0.6739
  621MOL0     H83812   2.439  -1.090   5.696  1.5092  0.0671 -1.4520
  621MOL0     H83813   2.236  -0.961   5.760  0.5736  2.7349  0.6273
  621MOL0     H83814   2.296  -0.823   5.673  2.0935  0.7079 -3.3012
  621MOL0     H83815   2.918  -0.207   5.962 -0.5151 -0.4319 -0.2153
  621MOL0     H83816   2.827   0.043   5.984 -2.5087  0.4927  0.3907
  621MOL0     H83817   2.439   0.313   6.321  1.5403 -2.1735  0.1095
  621MOL0     H83818   2.368   0.545   6.322  0.2845 -0.5334  0.3899
  621MOL0     H83819   2.465   0.430   7.314 -0.2008 -0.4416  2.7859
  621MOL0     H83820   2.558   0.325   7.518 -1.5965  0.1310 -0.9122
  621MOL0     H83821   2.902   0.388   7.774 -2.5403 -0.2740  1.0021
  621MOL0     H83822   3.072   0.394   7.963  0.4454 -0.3585  0.2718
  621MOL0     H83823   3.259   0.007   8.126 -1.0519 -0.0923 -2.3365
  621MOL0     H83824   3.103   0.053   8.203 -2.2584  1.7664 -1.7361
  621MOL0     H83825   3.371   0.195   8.253 -0.2009 -1.1399 -1.7786
  621MOL0     H83826   3.303   0.066   8.351  1.9563  1.0670  0.5095
  621MOL0     H83827   3.224   0.338   8.279 -0.9680  0.7121  0.8579
  621MOL0     H83828   3.243   0.281   8.451  1.6207 -1.3943 -0.1602
  621MOL0     H83829   3.021   0.348   8.433  3.0308  0.2869  2.2210
  621MOL0     H83830   2.994   0.254   8.281 -1.0605  0.7764  0.4915
  621MOL0     H83831   2.884  -0.014   8.559  1.4033  1.0301  0.9824
  621MOL0     H83832   3.123  -0.034   7.942  1.6494 -0.7173 -3.1968
  621MOL0     H83833   2.982  -0.089   7.651  0.1068 -1.4994 -0.3829
  621MOL0     H83834   3.020  -0.167   7.809 -0.4736 -0.1389  0.8050
  621MOL0     H83835   2.854  -0.107   7.767  0.6228  0.4294  0.6033
  622MOL0     O83836   5.121   0.388   5.339  0.5928  0.6404  0.1239
  622MOL0     C83837   5.079   0.448   5.242  0.9829 -0.0987 -0.2268
  622MOL0     O83838   5.144   0.453   5.123  0.6383  0.0806 -0.6562
  622MOL0     C83839   5.257   0.377   5.118  0.5102  0.0967 -0.2706
  622MOL0     C83840   5.249   0.242   5.076  0.1902  1.0131  1.2085
  622MOL0     C83841   5.370   0.164   5.073  0.5146 -0.1132 -0.2869
  622MOL0     C83842   5.490   0.208   5.123 -0.7119  0.0585  0.4139
  622MOL0     O83843   5.582   0.107   5.144 -0.1055 -0.0880 -0.4644
  622MOL0     C83844   5.709   0.147   5.196  0.2775  0.4807 -0.1942
  622MOL0     C83845   5.806   0.027   5.171  0.2889  0.4781  0.3806
  622MOL0     C83846   5.949   0.053   5.222  0.8248  0.3092  0.3335
  622MOL0     C83847   5.980  -0.045   5.335  0.6498  0.2579  0.0277
  622MOL0     C83848   6.124  -0.015   5.393  0.6973 -0.1877  0.6260
  622MOL0     C83849   6.149  -0.091   5.513 -0.7048  0.5337  0.4533
  622MOL0     C83850   6.268  -0.039   5.603 -0.3972  0.5327 -0.4962
  622MOL0     C83851   6.391   0.025   5.516  0.0772  0.8049 -0.3958
  622MOL0     N83852   6.517   0.036   5.600  1.1676 -0.8316 -0.0981
  622MOL0     C83853   6.526   0.112   5.715  0.0948  0.4478  0.4769
  622MOL0     C83854   6.649   0.089   5.764  0.6687  0.1543  0.9252
  622MOL0     C83855   6.720   0.175   5.866  0.2066 -0.3593 -0.6740
  622MOL0     C83856   6.750   0.106   5.998  0.3139  0.5305 -0.4075
  622MOL0     C83857   6.872   0.023   6.008 -0.5920  0.3022 -0.9981
  622MOL0     C83858   6.920   0.015   6.160  0.0472 -0.4153  0.4458
  622MOL0     O83859   7.030  -0.077   6.181  0.6207 -0.2535 -0.6124
  622MOL0     C83860   7.155  -0.024   6.166 -0.1678 -0.3215  1.1513
  622MOL0     C83861   7.254  -0.105   6.216 -0.4886  0.3220  0.1201
  622MOL0     C83862   7.383  -0.064   6.238  0.2323  0.6884  0.4914
  622MOL0     C83863   7.420   0.060   6.186 -0.2490  0.0628 -0.0665
  622MOL0     C83864   7.554   0.129   6.211  0.1039  0.7264  0.2182
  622MOL0     O83865   7.633   0.070   6.306 -0.6140  0.2775 -0.2184
  622MOL0     C83866   7.763   0.113   6.332 -0.0897 -0.1631  0.0691
  622MOL0     C83867   7.878   0.028   6.291  0.4156 -0.4566  0.0864
  622MOL0     C83868   8.001   0.074   6.330 -0.1287  0.6852 -0.6088
  622MOL0     C83869   8.020   0.187   6.413 -0.3053 -0.5779  0.5205
  622MOL0     O83870   8.142   0.213   6.461 -0.1483  0.5653 -0.5650
  622MOL0     C83871   8.257   0.147   6.407 -0.1214  0.1503 -0.3298
  622MOL0     C83872   8.386   0.205   6.466  0.0176 -0.5106  0.3232
  622MOL0     C83873   8.513   0.123   6.415  0.8571  1.0546  0.9035
  622MOL0     C83874   8.633   0.173   6.495  0.9706 -0.4470 -0.6385
  622MOL0     C83875   8.768   0.105   6.461 -0.3560  0.6730 -0.1137
  622MOL0     C83876   8.815   0.138   6.315  0.7675 -0.5804 -0.6126
  622MOL0     C83877   8.935   0.049   6.282  0.6579 -0.4782  0.3460
  622MOL0     C83878   9.009   0.086   6.151 -0.4910  0.0821 -0.1596
  622MOL0    Cl83879   8.902   0.075   6.005  0.4180 -0.2186 -0.2779
  622MOL0     C83880   7.911   0.271   6.439  0.2637  0.2901 -0.5347
  622MOL0     C83881   7.782   0.233   6.398 -0.2964 -0.4759 -0.1272
  622MOL0     O83882   7.587   0.226   6.147 -0.3296 -0.1756  0.2156
  622MOL0     C83883   7.331   0.134   6.111  0.6038  1.0136 -0.7882
  622MOL0     C83884   7.205   0.093   6.107 -0.3438 -0.5059 -0.1031
  622MOL0     N83885   6.711  -0.005   5.683 -0.1345 -0.0685 -0.0498
  622MOL0     N83886   6.631  -0.030   5.593  0.0710  0.6059  0.5213
  622MOL0     C83887   5.493   0.340   5.168 -0.4609 -1.2094  0.0909
  622MOL0     C83888   5.386   0.428   5.162 -1.0315 -0.0278  1.0573
  622MOL0     C83889   4.950   0.525   5.271 -0.1269 -0.4489  0.5517
  622MOL0     C83890   4.911   0.604   5.160  0.2988  0.0538  0.4358
  622MOL0     C83891   4.789   0.668   5.159 -0.0752  1.3863  0.4866
  622MOL0     C83892   4.715   0.677   5.275  0.0325  0.1174  0.0717
  622MOL0     O83893   4.600   0.751   5.289 -0.0634 -0.5394 -0.2221
  622MOL0     C83894   4.490   0.696   5.215 -0.7048 -0.4458  0.1352
  622MOL0     C83895   4.363   0.733   5.278 -0.6036 -0.2620 -0.3586
  622MOL0     C83896   4.325   0.694   5.420 -0.3127 -0.3583 -0.4810
  622MOL0     C83897   4.186   0.730   5.451 -0.5324 -0.0161  0.8227
  622MOL0     C83898   4.092   0.656   5.366  0.0526  0.2485  0.5919
  622MOL0     C83899   4.010   0.603   5.287  1.2969 -0.2668 -1.1954
  622MOL0     C83900   4.760   0.608   5.389  0.5806 -0.0287  0.1285
  622MOL0     C83901   4.871   0.523   5.386  0.4888 -0.2588  0.3560
  622MOL0     C83902   4.894   0.442   5.507 -0.8779  0.2419 -0.1584
  622MOL0     H83903   5.156   0.203   5.036  2.0640 -0.7259 -1.9683
  622MOL0     H83904   5.356   0.070   5.020  2.7909  0.1786 -1.5425
  622MOL0     H83905   5.745   0.239   5.151  0.0178  0.2225 -0.9508
  622MOL0     H83906   5.700   0.176   5.301  0.3422  0.1681 -0.1009
  622MOL0     H83907   5.804   0.008   5.063 -2.5200 -2.4119  0.8006
  622MOL0     H83908   5.768  -0.060   5.225  3.4183 -0.5946  1.0739
  622MOL0     H83909   5.958   0.152   5.267  0.4291 -0.2655  1.7392
  622MOL0     H83910   6.016   0.023   5.140 -1.5410  0.4690 -1.7696
  622MOL0     H83911   5.900  -0.037   5.408  2.7466  1.6903  2.3195
  622MOL0     H83912   6.001  -0.140   5.286  1.0924 -0.1530  0.9958
  622MOL0     H83913   6.201  -0.030   5.317  1.2642  0.4129  1.0698
  622MOL0     H83914   6.134   0.091   5.419 -0.8892  0.3094 -0.6043
  622MOL0     H83915   6.056  -0.087   5.571  0.8030 -2.2083  3.2943
  622MOL0     H83916   6.164  -0.198   5.498  1.3158  0.8287  0.1195
  622MOL0     H83917   6.308  -0.115   5.671 -0.0555 -1.1242 -2.4651
  622MOL0     H83918   6.233   0.039   5.672  2.6401  1.3204  0.3227
  622MOL0     H83919   6.410  -0.043   5.433 -1.6188  1.2178 -1.1729
  622MOL0     H83920   6.353   0.118   5.472 -3.3813 -0.9672 -1.4797
  622MOL0     H83921   6.456   0.187   5.752 -0.4132  0.7221 -0.9645
  622MOL0     H83922   6.814   0.216   5.826  0.5820 -0.7276 -0.1770
  622MOL0     H83923   6.652   0.253   5.899 -0.6027 -0.8939 -1.0530
  622MOL0     H83924   6.740   0.176   6.081  2.2788  0.9099 -0.4246
  622MOL0     H83925   6.679   0.023   6.005  1.4492 -0.3579  1.4101
  622MOL0     H83926   6.950   0.083   5.960 -2.6622  1.9339 -2.4824
  622MOL0     H83927   6.858  -0.070   5.952  0.7616 -0.0671 -0.7543
  622MOL0     H83928   6.841  -0.020   6.226  1.8705 -1.8987  1.9459
  622MOL0     H83929   6.950   0.112   6.200  0.4605 -1.1415  1.9504
  622MOL0     H83930   7.215  -0.201   6.246 -0.3082  0.1495 -0.1999
  622MOL0     H83931   7.464  -0.118   6.286 -1.1759 -1.8973  0.1557
  622MOL0     H83932   7.862  -0.061   6.231 -1.1491 -0.7395  0.8737
  622MOL0     H83933   8.085   0.011   6.306  1.1404  3.1177 -3.1950
  622MOL0     H83934   8.268   0.042   6.435  7.0458  0.6376  0.5914
  622MOL0     H83935   8.250   0.168   6.300 -2.2477 -0.5392 -0.3590
  622MOL0     H83936   8.386   0.303   6.418 -1.3395  2.2075  5.1796
  622MOL0     H83937   8.396   0.221   6.574  3.1437  0.2819  0.0059
  622MOL0     H83938   8.513   0.015   6.435  0.4726  0.9606  0.4074
  622MOL0     H83939   8.525   0.121   6.306  1.0566 -0.2875  0.9237
  622MOL0     H83940   8.611   0.140   6.597 -0.5352 -0.4098 -0.9269
  622MOL0     H83941   8.638   0.282   6.486 -1.3958  0.0512  2.5658
  622MOL0     H83942   8.766  -0.004   6.467  7.2188  0.0588  2.0702
  622MOL0     H83943   8.842   0.133   6.537 -1.0933 -1.8586  1.6574
  622MOL0     H83944   8.730   0.109   6.252  1.2730  0.8797 -2.0222
  622MOL0     H83945   8.846   0.239   6.286  1.3987 -0.8642 -0.9482
  622MOL0     H83946   8.894  -0.052   6.277  0.3086 -0.3511  0.6044
  622MOL0     H83947   9.012   0.043   6.360 -0.5108  0.3639  1.6087
  622MOL0     H83948   9.053   0.186   6.155  4.1543 -1.5948 -1.8168
  622MOL0     H83949   9.095   0.019   6.139 -1.6543 -1.4679 -0.2129
  622MOL0     H83950   7.935   0.362   6.494 -1.1803  0.5056 -0.2404
  622MOL0     H83951   7.697   0.297   6.414 -0.3346 -0.4490 -0.4265
  622MOL0     H83952   7.367   0.226   6.066 -0.5492  1.7818 -0.2114
  622MOL0     H83953   7.135   0.141   6.039 -0.2505 -3.1425 -2.2097
  622MOL0     H83954   5.578   0.380   5.223 -0.6113 -2.7108  1.4504
  622MOL0     H83955   5.402   0.525   5.207  1.0832  0.1702  0.0088
  622MOL0     H83956   4.987   0.606   5.082  1.6935 -2.3346  1.6338
  622MOL0     H83957   4.769   0.728   5.071  0.3292 -1.9410 -2.1083
  622MOL0     H83958   4.495   0.587   5.202  0.7422 -0.2470 -1.2470
  622MOL0     H83959   4.491   0.742   5.116  0.6359 -3.2081 -1.2788
  622MOL0     H83960   4.280   0.706   5.211 -3.0415  1.8647  1.6015
  622MOL0     H83961   4.370   0.842   5.273  5.9391 -0.2855 -0.7177
  622MOL0     H83962   4.385   0.757   5.487  0.1359  0.4115 -1.5629
  622MOL0     H83963   4.337   0.588   5.441 -1.8388 -0.7913 -1.6663
  622MOL0     H83964   4.160   0.698   5.553  0.6733 -1.9277  0.5773
  622MOL0     H83965   4.158   0.836   5.450 -1.6539 -0.2842  1.6731
  622MOL0     H83966   3.928   0.566   5.228  0.3722 -1.9747  1.0202
  622MOL0     H83967   4.723   0.637   5.487  1.3673  1.6062 -0.0354
  622MOL0     H83968   4.799   0.453   5.561 -1.5872 -0.3269 -1.2449
  622MOL0     H83969   4.911   0.337   5.483  1.9554  0.4399  0.6764
  622MOL0     H83970   4.980   0.477   5.564 -0.4494 -2.0835  0.7393
  623MOL0     O83971  11.314   2.935   7.944  0.0159  0.6683  0.4756
  623MOL0     C83972  11.211   2.890   7.889  0.2346  0.2571 -0.7290
  623MOL0     O83973  11.126   2.963   7.810 -0.2039  0.2496 -0.5275
  623MOL0     C83974  11.159   3.094   7.787  0.9786  0.5601  1.2967
  623MOL0     C83975  11.100   3.182   7.869 -0.3878 -0.6378 -0.0581
  623MOL0     C83976  11.108   3.322   7.861 -0.3524  0.3364 -0.0651
  623MOL0     C83977  11.205   3.372   7.768  0.3968  1.1699 -0.3648
  623MOL0     O83978  11.225   3.509   7.754  0.3629 -0.2163  0.9569
  623MOL0     C83979  11.357   3.561   7.729  0.4331 -0.0780  0.1216
  623MOL0     C83980  11.387   3.707   7.779  0.8461  0.1675  0.3594
  623MOL0     C83981  11.280   3.811   7.748  0.3085 -0.6750  0.1387
  623MOL0     C83982  11.229   3.804   7.609 -0.0891 -0.4852  0.2336
  623MOL0     C83983  11.168   3.938   7.562  0.8542 -0.0550 -0.4863
  623MOL0     C83984  11.085   3.919   7.437  0.2068 -0.3251  0.6214
  623MOL0     C83985  11.013   4.057   7.402  0.0487  0.2507 -0.3201
  623MOL0     C83986  11.128   4.152   7.340  0.0985 -0.2020 -0.5440
  623MOL0     N83987  11.179   4.106   7.211 -0.0528  0.4316 -0.2515
  623MOL0     C83988  11.291   4.027   7.183  0.2194  0.1693  0.4005
  623MOL0     C83989  11.286   4.005   7.050 -0.3827  0.2507  0.5236
  623MOL0     C83990  11.400   3.937   6.974  0.4544 -0.5316  0.2583
  623MOL0     C83991  11.335   3.861   6.856 -0.2471  0.9297  0.0798
  623MOL0     C83992  11.441   3.786   6.772 -0.9308  0.5386 -0.6814
  623MOL0     C83993  11.515   3.667   6.849  0.8304  0.8018  0.7515
  623MOL0     O83994  11.596   3.578   6.771  0.4284  0.5998  0.6419
  623MOL0     C83995  11.732   3.604   6.754 -0.8740 -0.0131  0.7096
  623MOL0     C83996  11.810   3.512   6.688 -0.3857 -0.2622 -0.4560
  623MOL0     C83997  11.951   3.528   6.684 -0.0894 -0.4741  0.5404
  623MOL0     C83998  12.013   3.643   6.740  0.7556  0.8591 -0.1001
  623MOL0     C83999  12.159   3.656   6.729  0.5446 -0.4165 -1.1891
  623MOL0     O84000  12.218   3.574   6.635 -0.0958 -0.5354 -0.4902
  623MOL0     C84001  12.360   3.553   6.644  0.3701 -0.0793  0.3491
  623MOL0     C84002  12.436   3.526   6.756  0.7011  0.9527  0.4321
  623MOL0     C84003  12.580   3.512   6.742  0.6867  0.6126 -0.0794
  623MOL0     C84004  12.649   3.530   6.620  0.3286 -0.0835 -0.0508
  623MOL0     O84005  12.781   3.497   6.617  0.6795  0.4364  0.5447
  623MOL0     C84006  12.857   3.545   6.508  1.2920  0.7198 -0.3435
  623MOL0     C84007  12.864   3.435   6.398  0.0420 -1.4619  0.5616
  623MOL0     C84008  12.944   3.314   6.439 -0.8703  1.0621 -0.3699
  623MOL0     C84009  12.956   3.214   6.324 -0.6293  0.8755 -0.1682
  623MOL0     C84010  13.037   3.102   6.372 -0.1864  1.4352  0.6119
  623MOL0     C84011  13.111   3.035   6.263  0.4572  0.9108  0.5876
  623MOL0     C84012  13.256   2.984   6.312  0.0068  0.1873 -0.0656
  623MOL0     C84013  13.322   2.901   6.200 -0.4974 -0.8126 -0.9780
  623MOL0    Cl84014  13.364   3.016   6.052 -0.0190  0.1293  0.0096
  623MOL0     C84015  12.572   3.583   6.517  0.4042  0.4260  0.7205
  623MOL0     C84016  12.436   3.589   6.523 -0.6576 -0.0875 -0.6285
  623MOL0     O84017  12.219   3.729   6.804 -0.1985  0.0704 -0.5253
  623MOL0     C84018  11.934   3.727   6.812 -0.4251 -1.0200  0.4283
  623MOL0     C84019  11.793   3.718   6.807 -0.5776 -0.5582 -0.5728
  623MOL0     N84020  11.174   4.070   7.002  0.9071 -0.1842 -0.2652
  623MOL0     N84021  11.106   4.118   7.099  0.0873 -1.2397  0.4058
  623MOL0     C84022  11.266   3.280   7.677  0.9156 -0.2135  0.4396
  623MOL0     C84023  11.242   3.136   7.683  0.2821  0.0436  0.8002
  623MOL0     C84024  11.180   2.747   7.915  0.9741 -0.0191  0.7300
  623MOL0     C84025  11.036   2.725   7.930  0.3231 -0.6055 -0.0158
  623MOL0     C84026  10.984   2.596   7.969 -0.5161 -0.0170  1.2625
  623MOL0     C84027  11.071   2.484   7.991  0.8741 -0.5042 -0.2153
  623MOL0     O84028  11.040   2.353   8.032  0.4144 -0.7128  1.0372
  623MOL0     C84029  10.904   2.317   7.993  0.1869  0.7561  0.0094
  623MOL0     C84030  10.888   2.176   7.937 -0.2573 -0.4066 -1.0733
  623MOL0     C84031  10.940   2.074   8.021 -0.7303  0.0776 -0.4922
  623MOL0     C84032  10.889   2.051   8.167  0.7782 -0.0914  0.5150
  623MOL0     C84033  10.948   1.932   8.221  0.1413 -0.5499  0.2943
  623MOL0     C84034  10.991   1.829   8.264 -0.2690  0.9712  0.8405
  623MOL0     C84035  11.208   2.511   7.967  0.3928 -0.3375 -0.6627
  623MOL0     C84036  11.260   2.635   7.934 -0.8667  0.0412 -0.6455
  623MOL0     C84037  11.399   2.650   7.941  0.8145  0.1560 -0.2915
  623MOL0     H84038  11.033   3.144   7.946 -0.9394 -1.1906 -0.8025
  623MOL0     H84039  11.047   3.386   7.924 -1.2956 -0.8749  0.2996
  623MOL0     H84040  11.420   3.498   7.792 -3.2535 -2.9078  1.3023
  623MOL0     H84041  11.384   3.553   7.624  0.5450  1.3117  0.0188
  623MOL0     H84042  11.485   3.735   7.738  2.5189 -1.6008  2.8144
  623MOL0     H84043  11.406   3.700   7.886  1.0203 -0.9981  0.2626
  623MOL0     H84044  11.324   3.910   7.761  0.3904 -0.8263  1.0487
  623MOL0     H84045  11.194   3.799   7.815  0.6504  1.8638  1.1383
  623MOL0     H84046  11.306   3.769   7.539 -0.3388 -0.9394  0.1822
  623MOL0     H84047  11.144   3.735   7.606  1.1393 -2.0697  0.1814
  623MOL0     H84048  11.102   3.990   7.633 -1.0170 -0.4583 -1.8536
  623MOL0     H84049  11.243   4.014   7.542  0.9559 -0.7473 -2.9672
  623MOL0     H84050  11.157   3.901   7.357 -1.2060  0.0225 -0.7679
  623MOL0     H84051  11.012   3.838   7.446 -0.4215  0.1402 -0.1686
  623MOL0     H84052  10.970   4.110   7.488 -0.5228 -1.4399  0.5010
  623MOL0     H84053  10.936   4.041   7.326  1.1248  1.2595 -1.6705
  623MOL0     H84054  11.088   4.250   7.313  0.3659 -0.0709 -0.4640
  623MOL0     H84055  11.201   4.174   7.419 -2.6316  0.2413  2.0212
  623MOL0     H84056  11.366   3.984   7.249 -2.0845 -3.4870  0.9305
  623MOL0     H84057  11.455   4.025   6.939 -0.5807 -0.6488 -1.8711
  623MOL0     H84058  11.452   3.875   7.047  0.4669 -1.1040 -0.2220
  623MOL0     H84059  11.271   3.783   6.898  0.0750  2.7530  4.4543
  623MOL0     H84060  11.288   3.929   6.785  0.4172 -1.7355 -3.1394
  623MOL0     H84061  11.510   3.864   6.739 -0.7871 -0.1768 -2.1934
  623MOL0     H84062  11.400   3.734   6.685  2.3275  1.6723 -3.1272
  623MOL0     H84063  11.445   3.596   6.893  1.7462  0.2728  1.4136
  623MOL0     H84064  11.569   3.704   6.937  1.7551  1.1606  0.0498
  623MOL0     H84065  11.771   3.426   6.633 -1.5723 -1.0677  1.5126
  623MOL0     H84066  12.015   3.458   6.632  0.6418  1.0736 -0.7458
  623MOL0     H84067  12.380   3.519   6.848 -0.7773 -1.4279 -0.5624
  623MOL0     H84068  12.633   3.482   6.832 -0.7572 -0.9908  0.2965
  623MOL0     H84069  12.827   3.639   6.462  0.5984  0.4112 -0.5329
  623MOL0     H84070  12.956   3.571   6.546  0.6921  1.9279  0.4228
  623MOL0     H84071  12.763   3.418   6.362  0.2144 -0.2453 -0.6005
  623MOL0     H84072  12.914   3.471   6.307  1.2431 -1.1599  1.3201
  623MOL0     H84073  13.048   3.342   6.459 -1.6439  1.7083  3.3017
  623MOL0     H84074  12.910   3.272   6.533 -2.3149 -0.5735 -1.5603
  623MOL0     H84075  13.001   3.259   6.235 -1.7577  1.1510 -0.6215
  623MOL0     H84076  12.858   3.174   6.295 -0.6736  0.9743 -0.1519
  623MOL0     H84077  12.968   3.030   6.418  0.3073  0.7155  0.2442
  623MOL0     H84078  13.112   3.137   6.444  3.3032 -1.4953 -1.2924
  623MOL0     H84079  13.050   2.952   6.228  2.2038  1.0588 -3.3378
  623MOL0     H84080  13.127   3.098   6.176 -0.8846  1.7440  0.9116
  623MOL0     H84081  13.235   2.911   6.391 -0.5427 -0.3194 -0.6724
  623MOL0     H84082  13.323   3.065   6.342  0.8941 -1.1749  1.8566
  623MOL0     H84083  13.410   2.854   6.243 -1.5266 -1.8199  0.1078
  623MOL0     H84084  13.246   2.828   6.170  0.1278 -3.0616  2.3334
  623MOL0     H84085  12.618   3.598   6.420 -0.3501  1.2239  0.4740
  623MOL0     H84086  12.384   3.624   6.434  0.5623  1.9527 -0.5863
  623MOL0     H84087  11.981   3.809   6.864  0.5421 -0.7817 -0.7604
  623MOL0     H84088  11.729   3.799   6.841 -2.8544 -1.9389 -1.3605
  623MOL0     H84089  11.332   3.332   7.608 -1.4213  3.0028  0.4249
  623MOL0     H84090  11.295   3.069   7.615  2.6326  0.0933  2.4409
  623MOL0     H84091  10.975   2.815   7.931 -1.9780 -1.9931  3.5108
  623MOL0     H84092  10.878   2.596   7.992 -0.9092  2.2997 -0.1767
  623MOL0     H84093  10.876   2.392   7.919 -3.4398  0.1839  0.6343
  623MOL0     H84094  10.838   2.330   8.078  0.6522 -0.1507  0.5292
  623MOL0     H84095  10.940   2.180   7.841  0.7170  2.8044 -0.5410
  623MOL0     H84096  10.786   2.156   7.905 -0.7584  1.3832 -0.7200
  623MOL0     H84097  11.048   2.089   8.021 -0.7277  0.1444 -1.7247
  623MOL0     H84098  10.925   1.980   7.965  3.6302 -0.7060 -0.6659
  623MOL0     H84099  10.927   2.134   8.228  2.5118  0.2957 -1.0157
  623MOL0     H84100  10.780   2.053   8.176  0.4889  4.6403 -1.1304
  623MOL0     H84101  11.041   1.759   8.329  0.4084  0.2543 -0.4102
  623MOL0     H84102  11.278   2.431   7.990  1.6350  1.3065  1.6083
  623MOL0     H84103  11.443   2.657   7.842 -0.1703 -0.7995 -0.8162
  623MOL0     H84104  11.433   2.728   8.009  0.0429 -1.9303  2.7078
  623MOL0     H84105  11.431   2.556   7.987 -0.9035 -1.1698 -1.6437
  624MOL0     O84106   4.521   4.825   3.933 -0.8883  0.3540  0.1765
  624MOL0     C84107   4.532   4.898   4.037  0.6759  0.1015 -0.4796
  624MOL0     O84108   4.639   4.908   4.116  0.7072  0.2172  0.1044
  624MOL0     C84109   4.756   4.881   4.051  0.1073  0.4295  0.6766
  624MOL0     C84110   4.816   4.987   3.980 -0.0991 -0.6682 -0.2610
  624MOL0     C84111   4.946   4.979   3.924 -0.6926  0.2078 -0.7063
  624MOL0     C84112   5.015   4.854   3.932 -0.4830 -0.2842 -0.4194
  624MOL0     O84113   5.142   4.838   3.887  0.7625  0.6490 -0.1725
  624MOL0     C84114   5.191   4.930   3.790 -0.1275  0.4633 -0.0081
  624MOL0     C84115   5.326   4.871   3.744 -1.9254 -0.6128  0.3980
  624MOL0     C84116   5.388   4.959   3.623 -0.0167  0.0638  0.0399
  624MOL0     C84117   5.519   4.910   3.572 -0.7226  0.0612 -0.4030
  624MOL0     C84118   5.505   4.802   3.462  0.3681  0.1656 -0.2447
  624MOL0     C84119   5.630   4.786   3.374 -0.0189  1.0227 -0.1785
  624MOL0     C84120   5.595   4.703   3.252 -0.0207 -0.7012  0.4262
  624MOL0     C84121   5.699   4.730   3.144 -0.2666 -0.0428 -0.4772
  624MOL0     N84122   5.661   4.690   3.013  0.1271 -0.3923  0.2099
  624MOL0     C84123   5.584   4.760   2.933 -0.1978 -0.2426  0.6528
  624MOL0     C84124   5.554   4.682   2.828 -0.0187 -0.0878 -0.2903
  624MOL0     C84125   5.468   4.727   2.718  0.0676  0.7639  0.8444
  624MOL0     C84126   5.314   4.728   2.760  0.1174  0.2167 -0.6416
  624MOL0     C84127   5.274   4.846   2.843  0.1558 -0.2494 -0.6187
  624MOL0     C84128   5.126   4.873   2.837 -0.2970  0.7182  0.3244
  624MOL0     O84129   5.100   4.944   2.713 -0.1223  0.2750 -0.1923
  624MOL0     C84130   4.965   4.965   2.691  0.0954 -0.3872  0.2010
  624MOL0     C84131   4.932   5.026   2.571  0.2785  0.4263  0.2149
  624MOL0     C84132   4.793   5.050   2.540  0.7480 -0.5219  0.2519
  624MOL0     C84133   4.687   5.021   2.640  0.3867  0.5473 -0.2955
  624MOL0     C84134   4.548   5.035   2.598 -0.2544 -0.8662 -0.5097
  624MOL0     O84135   4.449   5.045   2.690 -0.0069  0.4778  0.0913
  624MOL0     C84136   4.322   5.073   2.661  0.4996  0.1804 -0.2293
  624MOL0     C84137   4.252   5.018   2.554 -0.2663  0.2902  0.1317
  624MOL0     C84138   4.120   5.058   2.530  0.4651 -0.0077 -0.1935
  624MOL0     C84139   4.065   5.160   2.606  0.0660 -0.4116  0.8594
  624MOL0     O84140   3.938   5.205   2.577  0.0989 -0.5002 -0.3974
  624MOL0     C84141   3.868   5.309   2.650  0.9521  0.3330 -0.3271
  624MOL0     C84142   3.736   5.330   2.575 -0.1811 -0.3265 -0.0929
  624MOL0     C84143   3.730   5.331   2.413 -0.3051  0.0233  0.0203
  624MOL0     C84144   3.605   5.378   2.360  0.1559 -0.4222 -1.2738
  624MOL0     C84145   3.606   5.411   2.216 -0.0689 -1.1143 -0.2563
  624MOL0     C84146   3.477   5.475   2.158 -0.1148 -0.5188 -0.4069
  624MOL0     C84147   3.458   5.482   1.995 -0.2211  0.1994  1.2819
  624MOL0     C84148   3.321   5.523   1.931  0.0019 -1.1783 -0.1769
  624MOL0    Cl84149   3.191   5.438   2.018 -0.3802 -0.0595  0.6654
  624MOL0     C84150   4.140   5.217   2.707  0.2042 -0.5623 -0.0917
  624MOL0     C84151   4.268   5.178   2.735  0.9991  0.1846 -1.2822
  624MOL0     O84152   4.532   5.051   2.472  0.8154  0.3909 -0.8462
  624MOL0     C84153   4.728   4.952   2.747  0.7522  0.4293  0.0051
  624MOL0     C84154   4.862   4.937   2.781  1.5428  0.1768  0.6582
  624MOL0     N84155   5.612   4.561   2.843 -0.5042  0.6238 -0.6800
  624MOL0     N84156   5.681   4.577   2.952 -0.3513  0.4904  0.1932
  624MOL0     C84157   4.950   4.742   3.998  0.2763 -0.1828 -0.2315
  624MOL0     C84158   4.825   4.761   4.067 -0.2544  0.3805 -0.4614
  624MOL0     C84159   4.408   4.948   4.092 -0.2413  0.1229  0.0173
  624MOL0     C84160   4.297   4.957   4.002  0.0964  0.3980  0.1078
  624MOL0     C84161   4.174   5.003   4.038 -0.9315 -0.1443 -0.0155
  624MOL0     C84162   4.151   5.039   4.173  0.4084 -0.0951 -0.0617
  624MOL0     O84163   4.030   5.074   4.224 -0.3596 -0.1521  0.0328
  624MOL0     C84164   3.942   5.146   4.134 -0.5570  0.5393 -0.9720
  624MOL0     C84165   3.849   5.244   4.217 -0.3177  0.9348  0.5986
  624MOL0     C84166   3.910   5.375   4.242 -0.3125 -0.2136 -0.0585
  624MOL0     C84167   3.815   5.441   4.336 -0.0104 -0.2983 -0.1361
  624MOL0     C84168   3.866   5.571   4.371  0.5398  1.0239 -0.3068
  624MOL0     C84169   3.914   5.678   4.386 -0.7660  0.1012 -0.3766
  624MOL0     C84170   4.253   5.031   4.262  0.1492 -0.2429 -0.1897
  624MOL0     C84171   4.381   4.983   4.220  0.3801  0.0190 -0.1751
  624MOL0     C84172   4.481   4.992   4.336  0.6510  0.2944 -0.2537
  624MOL0     H84173   4.761   5.080   3.986  2.3535  0.8346  0.6959
  624MOL0     H84174   4.996   5.071   3.894  2.5914  0.0347  3.3689
  624MOL0     H84175   5.128   4.945   3.702  0.6000 -1.4274 -0.8918
  624MOL0     H84176   5.211   5.024   3.844 -3.1709  0.7126  0.8566
  624MOL0     H84177   5.308   4.773   3.700  0.4082 -0.5776 -0.7667
  624MOL0     H84178   5.393   4.864   3.830 -1.2285 -0.2049 -0.1050
  624MOL0     H84179   5.408   5.061   3.658  1.9691 -1.0610  2.5595
  624MOL0     H84180   5.316   4.965   3.542 -0.7109  2.2511  0.7401
  624MOL0     H84181   5.560   5.001   3.528 -1.6031 -0.0340 -1.4657
  624MOL0     H84182   5.577   4.873   3.657 -0.7004 -0.8743 -0.8114
  624MOL0     H84183   5.495   4.714   3.526  2.4531  1.5070  2.1256
  624MOL0     H84184   5.410   4.806   3.409  0.2607 -3.0027 -0.4954
  624MOL0     H84185   5.679   4.881   3.351  0.1700  0.4919 -2.0815
  624MOL0     H84186   5.700   4.731   3.438 -0.4915 -2.3066 -2.2430
  624MOL0     H84187   5.494   4.738   3.228 -0.4787 -1.6707  0.9138
  624MOL0     H84188   5.578   4.601   3.288 -5.4299 -0.5268 -0.8128
  624MOL0     H84189   5.713   4.838   3.148 -1.8897  0.2332 -1.4195
  624MOL0     H84190   5.792   4.684   3.178  0.6443  2.0099 -0.0403
  624MOL0     H84191   5.550   4.863   2.943 -0.6406 -0.2851 -0.2658
  624MOL0     H84192   5.488   4.829   2.686  1.4350  0.0708 -0.6393
  624MOL0     H84193   5.490   4.663   2.632  1.7827 -0.9880  2.4824
  624MOL0     H84194   5.261   4.718   2.665 -2.4307 -1.3538  0.8350
  624MOL0     H84195   5.298   4.637   2.818  1.1056  1.4557  1.7349
  624MOL0     H84196   5.332   4.931   2.807 -0.7745 -0.0846 -1.7500
  624MOL0     H84197   5.304   4.824   2.946 -1.3548 -2.3873 -0.5597
  624MOL0     H84198   5.100   4.940   2.919 -1.5372  1.2914 -0.5181
  624MOL0     H84199   5.073   4.777   2.844  1.5606 -0.4745 -0.8909
  624MOL0     H84200   5.000   5.066   2.496 -2.0761 -0.1449 -2.3753
  624MOL0     H84201   4.770   5.096   2.445  0.1377  0.2113  0.7403
  624MOL0     H84202   4.309   4.946   2.496  1.8206  1.3162  0.7959
  624MOL0     H84203   4.053   5.003   2.466  1.3802  0.1761 -1.3406
  624MOL0     H84204   3.845   5.282   2.753  1.5611 -1.0042 -0.5225
  624MOL0     H84205   3.932   5.398   2.654  2.5149 -0.8033  2.2263
  624MOL0     H84206   3.665   5.259   2.621 -1.6423  1.6728  0.8824
  624MOL0     H84207   3.717   5.433   2.604  1.8778 -0.2002  0.9855
  624MOL0     H84208   3.816   5.390   2.380  1.5137 -2.9168 -0.8796
  624MOL0     H84209   3.754   5.229   2.380 -2.4081 -0.3153 -0.5851
  624MOL0     H84210   3.575   5.466   2.419 -1.4860 -0.9069 -1.3451
  624MOL0     H84211   3.530   5.301   2.380  1.7716 -1.0812  3.4189
  624MOL0     H84212   3.631   5.316   2.169  0.9873 -1.5658  1.1614
  624MOL0     H84213   3.688   5.482   2.201  0.7045 -1.7954  0.6867
  624MOL0     H84214   3.389   5.435   2.209  1.9381 -2.9407  1.5201
  624MOL0     H84215   3.488   5.576   2.197  3.5394 -2.2695  3.9165
  624MOL0     H84216   3.466   5.381   1.955 -2.8524  1.2490 -2.3548
  624MOL0     H84217   3.539   5.544   1.955 -1.8593  1.7260  0.2052
  624MOL0     H84218   3.311   5.629   1.957  0.2100 -1.6741  2.2018
  624MOL0     H84219   3.305   5.511   1.824 -0.8143 -2.0979  0.0340
  624MOL0     H84220   4.095   5.287   2.776  0.9111 -2.5811  2.5686
  624MOL0     H84221   4.319   5.199   2.829  0.7713  1.2288 -1.3805
  624MOL0     H84222   4.655   4.914   2.818 -0.3725  2.3537 -0.0566
  624MOL0     H84223   4.888   4.910   2.883  1.7996  1.1321  0.8630
  624MOL0     H84224   4.995   4.644   4.007 -0.3832 -0.3678  1.5143
  624MOL0     H84225   4.778   4.675   4.114  0.4478 -1.4296 -2.8592
  624MOL0     H84226   4.300   4.934   3.895 -1.5892  1.3678 -0.1847
  624MOL0     H84227   4.084   5.019   3.979 -0.3370 -0.6969 -1.1139
  624MOL0     H84228   3.869   5.078   4.090 -1.6105  0.2206  1.1440
  624MOL0     H84229   3.990   5.203   4.053  1.3655 -1.9997 -1.7560
  624MOL0     H84230   3.835   5.184   4.307  0.0741 -0.3794 -0.1935
  624MOL0     H84231   3.751   5.250   4.168 -0.5221  0.5060  0.9485
  624MOL0     H84232   3.921   5.431   4.149 -1.6768  0.1823 -0.0034
  624MOL0     H84233   4.012   5.368   4.281  0.0481  0.4499 -0.8424
  624MOL0     H84234   3.722   5.464   4.283 -1.0770 -1.0918  1.3086
  624MOL0     H84235   3.809   5.388   4.432 -1.3143  3.1525  1.8899
  624MOL0     H84236   3.972   5.768   4.397  0.7903 -0.7781 -1.1398
  624MOL0     H84237   4.237   5.056   4.366  2.5821 -2.2392  0.7731
  624MOL0     H84238   4.443   5.026   4.432 -0.1687  0.1870 -0.5330
  624MOL0     H84239   4.514   4.888   4.344 -0.1508  0.1687  1.7490
  624MOL0     H84240   4.570   5.051   4.308  0.2694  0.7224 -0.5880
  625MOL0     O84241   8.581  10.954  10.240 -0.6484  0.1102 -0.0879
  625MOL0     C84242   8.638  11.063  10.225  0.2470  0.8347 -0.0131
  625MOL0     O84243   8.764  11.076  10.186  0.1227 -0.3137 -0.6480
  625MOL0     C84244   8.822  10.963  10.124  0.3290  0.0594 -0.2572
  625MOL0     C84245   8.942  10.903  10.173  0.4645  0.4606 -0.0990
  625MOL0     C84246   9.006  10.795  10.112  0.1591 -0.1975  0.6837
  625MOL0     C84247   8.947  10.736   9.998  0.1570 -0.6574 -0.2551
  625MOL0     O84248   9.001  10.621   9.946 -0.0708  0.0270  0.0921
  625MOL0     C84249   9.144  10.622   9.926  0.0534  0.3422  0.6368
  625MOL0     C84250   9.209  10.504   9.997  0.1068  1.1097  0.2593
  625MOL0     C84251   9.358  10.485   9.955  0.5439  0.3028 -0.9000
  625MOL0     C84252   9.428  10.392  10.066 -0.4029  0.3833 -0.1490
  625MOL0     C84253   9.572  10.375  10.015  0.1210 -0.0094 -0.1764
  625MOL0     C84254   9.630  10.265  10.107 -1.1387 -0.1089 -0.1464
  625MOL0     C84255   9.767  10.219  10.066  0.5206 -0.7275 -0.9037
  625MOL0     C84256   9.866  10.314  10.129 -0.4959  0.6430 -0.4585
  625MOL0     N84257  10.005  10.263  10.111  0.2744 -0.7323 -0.9412
  625MOL0     C84258  10.074  10.289   9.992  0.8156 -0.5823  0.5595
  625MOL0     C84259  10.190  10.224  10.000  0.1798 -0.0916 -0.6232
  625MOL0     C84260  10.296  10.234   9.902 -0.6118 -0.1577 -0.0126
  625MOL0     C84261  10.351  10.101   9.847  0.6713  0.8776  0.3853
  625MOL0     C84262  10.499  10.112   9.809 -0.2324  0.5749  0.4890
  625MOL0     C84263  10.557   9.991   9.737  0.2151  0.2555 -0.0208
  625MOL0     O84264  10.484   9.950   9.621  0.3716  0.2966  0.0607
  625MOL0     C84265  10.543   9.894   9.522  0.1322 -0.8902 -0.1164
  625MOL0     C84266  10.489   9.896   9.402  0.0791 -0.2267 -0.0483
  625MOL0     C84267  10.552   9.835   9.286  0.2506  0.1664  0.5333
  625MOL0     C84268  10.678   9.769   9.289  0.6747  0.5263  0.3252
  625MOL0     C84269  10.742   9.733   9.159  0.0685 -0.7425  0.0268
  625MOL0     O84270  10.665   9.697   9.054 -0.1784 -0.6100  0.1851
  625MOL0     C84271  10.727   9.693   8.928  0.5217 -0.4656 -0.7403
  625MOL0     C84272  10.705   9.568   8.868 -0.3031 -1.3316 -0.6639
  625MOL0     C84273  10.766   9.535   8.746 -0.6029 -0.8043  0.3039
  625MOL0     C84274  10.835   9.644   8.676  0.9045  0.1927  0.1000
  625MOL0     O84275  10.880   9.627   8.545 -0.2576 -0.4893  0.6917
  625MOL0     C84276  10.859   9.502   8.468  0.4454 -0.9537 -0.3926
  625MOL0     C84277  10.910   9.521   8.327 -0.9396  0.3148 -0.0985
  625MOL0     C84278  11.048   9.586   8.311  0.0025  0.6061 -0.4061
  625MOL0     C84279  11.172   9.486   8.322  0.0226  0.7164  0.2292
  625MOL0     C84280  11.296   9.567   8.366 -1.0276 -0.2682  0.0309
  625MOL0     C84281  11.426   9.490   8.338 -1.5295  0.7134  0.3845
  625MOL0     C84282  11.550   9.577   8.384  0.0943  0.2184 -0.5097
  625MOL0     C84283  11.681   9.492   8.423 -0.4004 -0.2138 -0.0468
  625MOL0    Cl84284  11.657   9.452   8.597  0.1973  0.2112  0.2756
  625MOL0     C84285  10.840   9.775   8.736 -0.1217  0.5394 -0.5802
  625MOL0     C84286  10.787   9.803   8.867  0.0968  0.7664  1.3774
  625MOL0     O84287  10.859   9.736   9.166 -1.3207 -0.1188  0.1937
  625MOL0     C84288  10.737   9.769   9.421  0.0994  0.8352  0.7143
  625MOL0     C84289  10.665   9.822   9.532  0.1316 -0.7189 -0.5235
  625MOL0     N84290  10.196  10.182  10.133 -0.7004 -1.2726 -0.5517
  625MOL0     N84291  10.088  10.202  10.199  0.6913  0.1252 -0.9622
  625MOL0     C84292   8.830  10.800   9.941  0.5221  0.2862  0.4806
  625MOL0     C84293   8.773  10.913   9.997 -0.0944 -0.7014  0.4167
  625MOL0     C84294   8.573  11.188  10.268  0.4233 -0.5674 -0.3580
  625MOL0     C84295   8.643  11.313  10.277  0.5241  0.1132  0.7454
  625MOL0     C84296   8.573  11.435  10.298 -0.2946 -0.3722  0.5589
  625MOL0     C84297   8.441  11.435  10.336  0.1679 -0.2362 -0.3011
  625MOL0     O84298   8.369  11.558  10.357 -0.1753 -0.2612 -0.5388
  625MOL0     C84299   8.393  11.660  10.257  1.0062 -0.6126  0.2528
  625MOL0     C84300   8.250  11.666  10.192  0.0414  0.0494 -0.0481
  625MOL0     C84301   8.239  11.788  10.097 -0.4436  0.0808 -0.4726
  625MOL0     C84302   8.092  11.808  10.068  0.1392 -1.0005  0.1629
  625MOL0     C84303   8.022  11.887  10.171  0.3625  0.0875 -0.6680
  625MOL0     C84304   7.973  11.946  10.268  0.8997  0.8565  0.5793
  625MOL0     C84305   8.381  11.318  10.346  0.3028  0.2369  0.2318
  625MOL0     C84306   8.439  11.194  10.317 -0.2215 -0.6944  0.6365
  625MOL0     C84307   8.351  11.077  10.330  0.2779 -0.7932 -1.0689
  625MOL0     H84308   8.981  10.947  10.265 -2.1963  0.6015  1.0563
  625MOL0     H84309   9.100  10.759  10.151  0.3362 -0.1135  0.3367
  625MOL0     H84310   9.167  10.601   9.821  0.5033 -0.9074  0.9599
  625MOL0     H84311   9.195  10.717   9.940  0.6512  0.7842 -3.3301
  625MOL0     H84312   9.153  10.411   9.988  1.5096  0.1280  1.1944
  625MOL0     H84313   9.216  10.526  10.104 -0.4587 -2.6650  1.2073
  625MOL0     H84314   9.402  10.585   9.957  2.3920 -0.4189 -2.6480
  625MOL0     H84315   9.360  10.443   9.854 -2.1458 -0.0728 -0.8787
  625MOL0     H84316   9.427  10.450  10.159  0.8558  0.5067 -0.1989
  625MOL0     H84317   9.378  10.296  10.079 -0.4734  0.2381 -1.4313
  625MOL0     H84318   9.567  10.346   9.909 -1.4068 -1.6030  0.2907
  625MOL0     H84319   9.627  10.469  10.024  0.8843 -0.3870 -0.7081
  625MOL0     H84320   9.634  10.308  10.207  0.8767 -0.3282 -0.0808
  625MOL0     H84321   9.558  10.183  10.099 -0.6772 -0.6117  0.7229
  625MOL0     H84322   9.765  10.208   9.958 -0.2566 -0.5813 -0.9161
  625MOL0     H84323   9.777  10.125  10.122 -3.0153 -0.3905  0.5947
  625MOL0     H84324   9.852  10.416  10.092  0.6725  0.6338 -0.9309
  625MOL0     H84325   9.844  10.320  10.236  2.6688  0.4321  0.2927
  625MOL0     H84326  10.038  10.352   9.912  3.9146  0.4055 -0.1642
  625MOL0     H84327  10.251  10.288   9.819 -1.1538 -4.5287 -2.9193
  625MOL0     H84328  10.384  10.281   9.947 -1.1103  0.2933  0.5072
  625MOL0     H84329  10.331  10.016   9.913 -1.4059  0.2780 -0.8988
  625MOL0     H84330  10.296  10.067   9.758  1.0282  0.0411  0.4741
  625MOL0     H84331  10.566  10.142   9.890 -2.1192  2.3396  1.4881
  625MOL0     H84332  10.515  10.186   9.731 -1.1120  0.7337  0.4404
  625MOL0     H84333  10.558   9.910   9.810  0.3689  0.0726 -0.2226
  625MOL0     H84334  10.660  10.009   9.707  0.4690 -0.1628  0.6050
  625MOL0     H84335  10.390   9.937   9.385  0.6584  0.8739 -0.8448
  625MOL0     H84336  10.494   9.837   9.194 -2.5200 -0.2200  2.1675
  625MOL0     H84337  10.656   9.489   8.925 -1.2575 -1.4211 -1.5887
  625MOL0     H84338  10.742   9.446   8.688 -2.4156  0.0045 -0.2598
  625MOL0     H84339  10.906   9.412   8.509  1.5494  0.0216  0.5177
  625MOL0     H84340  10.750   9.496   8.461  0.4203  0.7904 -2.3769
  625MOL0     H84341  10.891   9.428   8.271 -2.7578  0.1087  0.7963
  625MOL0     H84342  10.843   9.599   8.288 -1.9027  0.2670  1.3835
  625MOL0     H84343  11.050   9.628   8.211  0.4632 -1.2759 -1.2299
  625MOL0     H84344  11.056   9.669   8.382  1.9949 -0.5521  0.8329
  625MOL0     H84345  11.184   9.441   8.223 -1.3697  0.4741  0.1496
  625MOL0     H84346  11.157   9.403   8.392  2.4242 -0.0844 -0.1127
  625MOL0     H84347  11.294   9.600   8.471 -3.0627 -2.0763  0.6341
  625MOL0     H84348  11.299   9.660   8.308 -1.0082  1.3795  2.5173
  625MOL0     H84349  11.441   9.393   8.386 -2.4066  0.1783 -0.3961
  625MOL0     H84350  11.436   9.466   8.232 -0.9734 -1.8667  0.9515
  625MOL0     H84351  11.512   9.644   8.461 -1.3669  0.8128 -1.6933
  625MOL0     H84352  11.578   9.635   8.295 -1.5270  1.3975 -0.2809
  625MOL0     H84353  11.691   9.398   8.369 -1.9252  0.1370 -0.9906
  625MOL0     H84354  11.771   9.550   8.404 -2.1567  2.1361 -1.7821
  625MOL0     H84355  10.874   9.857   8.674 -4.2265  2.3250 -0.7280
  625MOL0     H84356  10.805   9.897   8.919  0.8297  3.2078 -2.8661
  625MOL0     H84357  10.835   9.725   9.433 -0.1064 -0.7928 -2.4546
  625MOL0     H84358  10.717   9.812   9.626  1.6532 -3.3673 -1.5356
  625MOL0     H84359   8.791  10.758   9.848  1.6614  0.6262 -0.1641
  625MOL0     H84360   8.691  10.964   9.949  0.3590 -0.6861 -0.3546
  625MOL0     H84361   8.747  11.322  10.248  1.3911 -1.8977  2.8929
  625MOL0     H84362   8.615  11.534  10.279 -2.4492  0.5407  0.2612
  625MOL0     H84363   8.467  11.636  10.180  0.2874 -2.2791  0.0365
  625MOL0     H84364   8.410  11.753  10.312 -3.5759  1.4072 -1.3260
  625MOL0     H84365   8.170  11.663  10.267 -0.5004  1.5444 -0.5430
  625MOL0     H84366   8.236  11.576  10.131 -1.3517  0.6796 -0.6989
  625MOL0     H84367   8.292  11.778  10.001  3.6098  2.7737  1.2297
  625MOL0     H84368   8.278  11.879  10.144 -0.4046 -0.6899  1.0491
  625MOL0     H84369   8.081  11.869   9.978  1.2853 -0.0702  0.6190
  625MOL0     H84370   8.038  11.714  10.054 -0.9467 -0.6820  1.9712
  625MOL0     H84371   7.936  12.004  10.351  1.1654  0.1297  1.2186
  625MOL0     H84372   8.277  11.325  10.376  0.6153 -1.7833  2.0731
  625MOL0     H84373   8.395  11.009  10.404 -1.3039 -1.4986 -0.7279
  625MOL0     H84374   8.263  11.118  10.379  2.5218  2.5809  0.4992
  625MOL0     H84375   8.331  11.026  10.235  0.3710 -0.2389 -1.3911
  626MOL0     O84376   5.238   7.751   3.149  0.6965  0.0222 -0.3872
  626MOL0     C84377   5.243   7.634   3.151 -0.3908 -0.3517 -0.2596
  626MOL0     O84378   5.325   7.553   3.232 -0.4557 -0.3280 -0.2566
  626MOL0     C84379   5.415   7.622   3.307  0.0317 -0.2683 -0.2934
  626MOL0     C84380   5.390   7.647   3.438  0.4505  0.2662  0.8587
  626MOL0     C84381   5.486   7.696   3.525  0.2977  1.0648  0.3967
  626MOL0     C84382   5.607   7.743   3.465 -0.5953 -0.3092  0.2573
  626MOL0     O84383   5.712   7.781   3.539 -0.3999  0.5911 -0.0326
  626MOL0     C84384   5.693   7.834   3.668 -0.5701 -0.1407  0.1948
  626MOL0     C84385   5.804   7.925   3.689  0.6252  0.1442 -0.4755
  626MOL0     C84386   5.930   7.860   3.735 -1.1834 -0.3679  0.2415
  626MOL0     C84387   5.931   7.794   3.876 -0.9498  0.4098 -0.5258
  626MOL0     C84388   6.051   7.702   3.898 -1.7911  0.2474 -1.3907
  626MOL0     C84389   6.181   7.789   3.911  0.1370  0.4408  0.1836
  626MOL0     C84390   6.182   7.853   4.046 -0.4617  0.4173 -1.0611
  626MOL0     C84391   6.320   7.911   4.090  0.2747 -0.0456 -0.8499
  626MOL0     N84392   6.288   7.981   4.217  0.4397  0.4279 -0.0151
  626MOL0     C84393   6.295   7.946   4.350 -0.4295  0.3906 -0.0560
  626MOL0     C84394   6.233   8.043   4.417 -0.5289 -0.3163  0.4506
  626MOL0     C84395   6.216   8.045   4.569 -0.7928 -0.7049 -0.2341
  626MOL0     C84396   6.233   8.185   4.635  0.0172  0.1683 -0.9156
  626MOL0     C84397   6.362   8.247   4.611  0.2990  0.1684  0.7379
  626MOL0     C84398   6.375   8.382   4.680 -0.0649  0.0093 -0.5490
  626MOL0     O84399   6.494   8.455   4.625 -0.0014  0.1333  0.7921
  626MOL0     C84400   6.621   8.436   4.675  0.2754  0.2395 -0.2456
  626MOL0     C84401   6.725   8.526   4.642 -0.9923 -0.4126  0.3804
  626MOL0     C84402   6.851   8.518   4.697  0.2953  0.4940 -0.4195
  626MOL0     C84403   6.875   8.418   4.795  1.2280 -0.4275 -0.2352
  626MOL0     C84404   7.001   8.421   4.871 -0.1107 -0.3856  0.0179
  626MOL0     O84405   7.010   8.341   4.979  0.3503  0.2931 -0.1446
  626MOL0     C84406   7.138   8.335   5.031  0.4808 -0.1643 -0.4013
  626MOL0     C84407   7.166   8.419   5.141 -0.0739 -0.0615 -0.8012
  626MOL0     C84408   7.291   8.397   5.205 -0.9896  0.6321 -1.0192
  626MOL0     C84409   7.388   8.311   5.149 -0.1462  0.6075 -0.4414
  626MOL0     O84410   7.514   8.279   5.201  0.4459 -0.6572  0.0366
  626MOL0     C84411   7.545   8.330   5.330 -0.4842  0.9706  0.7800
  626MOL0     C84412   7.668   8.243   5.365 -0.4024 -0.4443 -0.7226
  626MOL0     C84413   7.725   8.285   5.501  0.0814 -0.3195  0.6116
  626MOL0     C84414   7.809   8.167   5.557 -0.1034 -0.5534  0.4443
  626MOL0     C84415   7.869   8.220   5.683 -0.9285  0.4504  0.4399
  626MOL0     C84416   7.958   8.121   5.762 -0.1025  1.4040  0.6779
  626MOL0     C84417   8.025   8.199   5.869  0.9954  1.3610  0.2995
  626MOL0     C84418   8.097   8.095   5.954 -0.4470  0.4789 -0.0292
  626MOL0    Cl84419   8.006   7.957   6.013 -0.1861 -0.0224  0.1071
  626MOL0     C84420   7.351   8.235   5.040  0.0957 -0.4372 -0.2108
  626MOL0     C84421   7.218   8.238   4.977 -0.4002 -0.3683 -0.0404
  626MOL0     O84422   7.076   8.519   4.851 -0.6417  0.3262 -0.7145
  626MOL0     C84423   6.777   8.326   4.829  0.8180  0.0272 -0.3244
  626MOL0     C84424   6.658   8.335   4.764  0.3727 -0.5153 -0.3938
  626MOL0     N84425   6.201   8.145   4.330 -0.1273  0.2022  0.5495
  626MOL0     N84426   6.238   8.109   4.205 -0.3298  0.4416 -0.6666
  626MOL0     C84427   5.632   7.719   3.333  0.5634  0.1123  0.3376
  626MOL0     C84428   5.536   7.658   3.255  0.0200  1.0804  0.4423
  626MOL0     C84429   5.160   7.559   3.054 -0.2380 -0.2288 -0.6372
  626MOL0     C84430   5.156   7.419   3.059 -0.0325 -0.9674 -0.2236
  626MOL0     C84431   5.089   7.348   2.962 -0.5153 -0.4237 -0.2200
  626MOL0     C84432   5.029   7.408   2.852  0.2196 -0.0877  0.3718
  626MOL0     O84433   5.004   7.342   2.735  0.6333  0.2039  0.3417
  626MOL0     C84434   4.938   7.404   2.626  0.1475 -0.0518 -0.4242
  626MOL0     C84435   5.031   7.501   2.542  0.1975  0.2570  0.8463
  626MOL0     C84436   4.936   7.581   2.442 -0.1667  0.2033 -0.3537
  626MOL0     C84437   4.833   7.492   2.365  0.8945  0.2428  0.0401
  626MOL0     C84438   4.906   7.390   2.276 -0.3868 -0.0079 -0.2036
  626MOL0     C84439   4.973   7.300   2.224 -0.9064 -0.1688 -0.1237
  626MOL0     C84440   5.008   7.547   2.866  0.0722 -0.0489  0.5049
  626MOL0     C84441   5.073   7.618   2.966  0.0727 -0.2004  0.3584
  626MOL0     C84442   5.040   7.770   2.958  0.1189  0.5828 -0.6824
  626MOL0     H84443   5.295   7.607   3.470  0.5702  1.4983  2.8807
  626MOL0     H84444   5.471   7.691   3.633  0.1122 -0.8889  0.3105
  626MOL0     H84445   5.593   7.879   3.669 -1.7128 -2.2244 -3.2621
  626MOL0     H84446   5.694   7.746   3.732  0.1353 -0.3929 -0.1440
  626MOL0     H84447   5.772   7.999   3.762 -2.2105 -1.4693  0.0594
  626MOL0     H84448   5.824   7.989   3.602 -1.1250  2.8328  0.9624
  626MOL0     H84449   5.994   7.947   3.719 -0.6634 -0.6125  0.9531
  626MOL0     H84450   5.957   7.783   3.663  1.8727  3.2378 -2.9128
  626MOL0     H84451   5.936   7.870   3.955  2.3892 -1.0047  0.8115
  626MOL0     H84452   5.837   7.738   3.877 -1.5548  1.4055 -0.0096
  626MOL0     H84453   6.034   7.631   3.979  0.6353  1.9457  0.7295
  626MOL0     H84454   6.068   7.639   3.810  0.9129  1.7850 -2.0728
  626MOL0     H84455   6.276   7.735   3.906 -0.1216  0.0327 -0.4478
  626MOL0     H84456   6.202   7.864   3.833  3.2224 -1.4528 -0.9794
  626MOL0     H84457   6.155   7.776   4.118  2.9226  1.4479  1.5603
  626MOL0     H84458   6.101   7.926   4.056 -2.3438 -1.8831  2.7987
  626MOL0     H84459   6.395   7.832   4.102  1.9514  1.7323  1.3533
  626MOL0     H84460   6.344   7.976   4.006 -3.8144 -0.4305 -2.5234
  626MOL0     H84461   6.336   7.858   4.399  0.2763  1.4105  1.2667
  626MOL0     H84462   6.111   8.020   4.587 -0.9851 -1.0594 -1.7044
  626MOL0     H84463   6.284   7.974   4.616 -0.5976 -1.7297 -2.0033
  626MOL0     H84464   6.163   8.256   4.589  2.4341  2.5048 -1.2544
  626MOL0     H84465   6.219   8.181   4.743  0.5631  1.2732 -0.7930
  626MOL0     H84466   6.377   8.257   4.503  2.4483  0.5440  1.0234
  626MOL0     H84467   6.435   8.186   4.665  0.2632  0.1572  0.7736
  626MOL0     H84468   6.372   8.376   4.789 -1.8308 -1.9478 -0.6554
  626MOL0     H84469   6.290   8.445   4.651 -0.4347  1.7471  3.6171
  626MOL0     H84470   6.692   8.607   4.578 -2.8005 -1.0506  0.4623
  626MOL0     H84471   6.922   8.596   4.673 -1.5144  1.4914 -2.9088
  626MOL0     H84472   7.098   8.495   5.177  0.0970 -0.4814  0.4524
  626MOL0     H84473   7.311   8.447   5.299  2.4823  1.0452 -1.8517
  626MOL0     H84474   7.564   8.437   5.326 -0.7278  1.0863  2.1459
  626MOL0     H84475   7.465   8.308   5.402 -0.6755  0.7856  0.5174
  626MOL0     H84476   7.641   8.137   5.362  0.0645 -0.6130  0.4684
  626MOL0     H84477   7.743   8.266   5.288  0.4978  0.2908  0.3436
  626MOL0     H84478   7.780   8.380   5.494  0.4049 -0.5481 -0.0031
  626MOL0     H84479   7.632   8.297   5.557 -0.3833 -1.7679  0.2002
  626MOL0     H84480   7.884   8.141   5.481 -1.8946 -2.5541 -0.7609
  626MOL0     H84481   7.750   8.077   5.577 -0.3184 -0.0700  2.0401
  626MOL0     H84482   7.787   8.240   5.753  1.3264 -1.1759  3.7492
  626MOL0     H84483   7.925   8.312   5.664  0.3021  0.5001  3.6898
  626MOL0     H84484   7.892   8.040   5.795 -0.1260  0.9107 -0.5455
  626MOL0     H84485   8.031   8.079   5.692 -0.7689  1.3399  0.0049
  626MOL0     H84486   7.958   8.254   5.936 -0.1504 -0.2023  0.4989
  626MOL0     H84487   8.088   8.267   5.811 -0.9922  2.3810 -0.8000
  626MOL0     H84488   8.182   8.058   5.897  1.3042  1.0243  2.0796
  626MOL0     H84489   8.149   8.132   6.044  1.0311 -0.8630 -0.2839
  626MOL0     H84490   7.424   8.177   4.984  1.0634 -1.2737  1.8047
  626MOL0     H84491   7.185   8.179   4.893  2.4991 -1.3655 -0.5816
  626MOL0     H84492   6.773   8.255   4.910 -0.7112 -1.2246 -1.4153
  626MOL0     H84493   6.582   8.274   4.811  1.7161 -0.8510  1.4499
  626MOL0     H84494   5.732   7.736   3.293  0.1255 -1.2819 -1.4811
  626MOL0     H84495   5.558   7.619   3.156 -0.0542  0.2952  0.7317
  626MOL0     H84496   5.229   7.372   3.123  1.7149 -1.9507 -2.7753
  626MOL0     H84497   5.099   7.241   2.950  3.6909 -0.2042 -0.1330
  626MOL0     H84498   4.849   7.459   2.658  0.5987  0.8891 -0.7211
  626MOL0     H84499   4.898   7.326   2.561 -1.6323  0.8053 -0.4214
  626MOL0     H84500   5.104   7.441   2.487  1.1089  0.1132  2.1679
  626MOL0     H84501   5.088   7.574   2.601  2.6472 -1.2495  0.4527
  626MOL0     H84502   4.994   7.644   2.374  1.1247 -1.4345 -0.8305
  626MOL0     H84503   4.873   7.658   2.490 -2.1940  0.9517 -3.8572
  626MOL0     H84504   4.773   7.439   2.439 -0.5321  2.8198  0.8247
  626MOL0     H84505   4.761   7.553   2.310 -2.0379  0.8456  4.1564
  626MOL0     H84506   5.043   7.224   2.194 -3.5805 -2.1484 -1.7471
  626MOL0     H84507   4.952   7.601   2.790 -0.4557  0.3625  1.1738
  626MOL0     H84508   4.975   7.793   2.873 -1.0084 -0.4707 -0.1438
  626MOL0     H84509   4.994   7.804   3.051 -1.6975 -2.8847 -0.1622
  626MOL0     H84510   5.130   7.827   2.933 -1.0611  3.0475  0.3115
  627MOL0     O84511   7.536  10.747   2.244 -0.1540 -1.3842  0.3792
  627MOL0     C84512   7.484  10.857   2.266  0.7657  0.4490  0.6621
  627MOL0     O84513   7.529  10.974   2.220  0.1456 -0.2308 -0.1162
  627MOL0     C84514   7.662  10.981   2.196 -0.2579 -0.5438 -0.8444
  627MOL0     C84515   7.689  11.051   2.073  0.1338  0.1926  0.2800
  627MOL0     C84516   7.810  11.091   2.043  0.1031 -0.8964 -0.0280
  627MOL0     C84517   7.925  11.030   2.107  0.1725 -0.6564 -0.7518
  627MOL0     O84518   8.051  11.061   2.065  0.2387  0.2686 -0.7340
  627MOL0     C84519   8.098  11.187   2.040  0.6737  0.5382 -0.0846
  627MOL0     C84520   8.216  11.219   2.138  0.0672 -0.0442 -0.8188
  627MOL0     C84521   8.257  11.361   2.108 -0.6165 -0.0472 -0.1036
  627MOL0     C84522   8.395  11.393   2.187 -0.5934 -0.2640 -0.4269
  627MOL0     C84523   8.448  11.531   2.132  0.9497 -0.7994  0.6564
  627MOL0     C84524   8.588  11.568   2.191  0.2551  0.3808  0.6912
  627MOL0     C84525   8.632  11.694   2.131 -0.0209  0.6250 -0.1228
  627MOL0     C84526   8.686  11.700   1.988  0.0685  0.1439 -0.2107
  627MOL0     N84527   8.713  11.840   1.943 -0.0163 -0.2456 -0.4028
  627MOL0     C84528   8.612  11.932   1.930  0.5579 -1.5127 -0.2637
  627MOL0     C84529   8.680  12.049   1.914 -0.2592 -0.2160  0.7717
  627MOL0     C84530   8.626  12.173   1.871  0.2206 -0.3606 -0.1857
  627MOL0     C84531   8.622  12.195   1.718  0.3692  0.4849  0.3363
  627MOL0     C84532   8.768  12.239   1.656  1.0682 -0.3744 -0.8296
  627MOL0     C84533   8.789  12.207   1.507  0.0282 -0.9794 -0.0578
  627MOL0     O84534   8.756  12.300   1.407  0.3869  0.3585  0.0314
  627MOL0     C84535   8.802  12.419   1.440  0.0577 -0.3884  0.0817
  627MOL0     C84536   8.713  12.515   1.494 -0.3405  0.6270  1.0463
  627MOL0     C84537   8.759  12.641   1.519  0.0922 -0.1011 -0.7409
  627MOL0     C84538   8.891  12.684   1.492  0.4853 -0.2792  0.3811
  627MOL0     C84539   8.938  12.819   1.529  0.1907  0.1116 -0.1453
  627MOL0     O84540   9.073  12.842   1.520  0.0526  0.1394 -0.2304
  627MOL0     C84541   9.126  12.964   1.548 -0.3883  0.2526  1.3025
  627MOL0     C84542   9.224  12.978   1.646 -0.4043 -0.8421 -0.9458
  627MOL0     C84543   9.276  13.103   1.686  0.5383 -0.2848 -0.9759
  627MOL0     C84544   9.236  13.226   1.616 -0.8192  0.3136  0.8186
  627MOL0     O84545   9.279  13.347   1.659 -0.9633  0.4861  0.2787
  627MOL0     C84546   9.265  13.466   1.570 -0.1314  0.2944  0.4327
  627MOL0     C84547   9.367  13.577   1.612  0.0392 -0.6409  0.5686
  627MOL0     C84548   9.509  13.550   1.559  0.8575  0.3693 -0.0377
  627MOL0     C84549   9.601  13.684   1.548  0.6903 -0.4348  0.0514
  627MOL0     C84550   9.746  13.651   1.517  0.0574 -0.1935 -0.2055
  627MOL0     C84551   9.818  13.581   1.624  0.3039  0.3528 -0.6467
  627MOL0     C84552   9.967  13.607   1.614 -0.2463  0.1204 -0.2095
  627MOL0     C84553  10.052  13.553   1.738 -0.4132  0.3174  0.4738
  627MOL0    Cl84554   9.991  13.626   1.892  0.3510 -0.0346 -0.0142
  627MOL0     C84555   9.133  13.211   1.516  0.3834  0.7577 -0.1576
  627MOL0     C84556   9.080  13.080   1.483 -0.5199 -0.2642 -0.1125
  627MOL0     O84557   8.855  12.905   1.559  0.2728  0.5254  0.6078
  627MOL0     C84558   8.980  12.588   1.460  0.9573 -0.5734 -0.1593
  627MOL0     C84559   8.935  12.455   1.439  0.5296 -0.3441  0.0632
  627MOL0     N84560   8.818  12.028   1.926 -0.4161 -0.1097 -0.0776
  627MOL0     N84561   8.837  11.899   1.934 -0.1310 -0.4663  0.4537
  627MOL0     C84562   7.896  10.937   2.201  1.1254  0.2440  0.1587
  627MOL0     C84563   7.769  10.930   2.266 -0.1649 -0.3606  0.1890
  627MOL0     C84564   7.337  10.847   2.319  0.8920  0.1464  0.4036
  627MOL0     C84565   7.264  10.733   2.267 -0.1028  0.4565 -0.3414
  627MOL0     C84566   7.134  10.710   2.307  0.1113 -0.2990  1.1539
  627MOL0     C84567   7.079  10.794   2.404  1.0832  0.3933  0.4838
  627MOL0     O84568   6.948  10.756   2.440  0.3576 -0.1241 -0.0596
  627MOL0     C84569   6.838  10.850   2.450 -0.5281  0.1993 -0.2488
  627MOL0     C84570   6.708  10.766   2.458  0.8724  0.7685  0.0413
  627MOL0     C84571   6.584  10.838   2.502  0.1729 -0.3595 -0.2407
  627MOL0     C84572   6.460  10.746   2.484  0.1337  0.3700 -0.3651
  627MOL0     C84573   6.352  10.836   2.450 -0.5900 -0.8396 -0.5806
  627MOL0     C84574   6.279  10.922   2.408  0.5285 -0.5636 -0.2845
  627MOL0     C84575   7.137  10.908   2.452 -0.3125 -0.2082  1.1261
  627MOL0     C84576   7.268  10.937   2.415 -0.4161  0.1937  0.3599
  627MOL0     C84577   7.337  11.048   2.476  0.0742 -0.7061 -0.8444
  627MOL0     H84578   7.602  11.065   2.009 -0.2260 -1.6429  0.3169
  627MOL0     H84579   7.821  11.166   1.965 -0.2538  1.5759  2.1523
  627MOL0     H84580   8.134  11.169   1.939 -0.0020 -2.2804  0.0864
  627MOL0     H84581   8.027  11.270   2.050 -0.3700 -0.4582  1.2247
  627MOL0     H84582   8.302  11.152   2.137  0.7542  0.5929  2.4844
  627MOL0     H84583   8.170  11.205   2.236 -0.8761 -0.4519 -1.3027
  627MOL0     H84584   8.178  11.424   2.149 -1.8132 -3.1353  2.8581
  627MOL0     H84585   8.268  11.379   2.001  2.1273  2.0983  0.4400
  627MOL0     H84586   8.392  11.396   2.297  4.5490 -1.2196 -0.0317
  627MOL0     H84587   8.477  11.328   2.155  0.0424  0.3641 -0.1002
  627MOL0     H84588   8.461  11.536   2.023  1.3815 -0.0690  0.7347
  627MOL0     H84589   8.371  11.608   2.143  2.4065  0.7802  0.3251
  627MOL0     H84590   8.585  11.568   2.300  1.9562 -1.7881  0.8211
  627MOL0     H84591   8.657  11.486   2.168 -0.1818  0.3267 -0.4637
  627MOL0     H84592   8.714  11.715   2.200 -1.6733  0.3920  2.0143
  627MOL0     H84593   8.552  11.768   2.141 -1.0601 -0.3705 -0.7732
  627MOL0     H84594   8.776  11.637   1.981  1.2979  1.3323  3.1389
  627MOL0     H84595   8.615  11.672   1.909 -1.6348 -0.4822  1.4645
  627MOL0     H84596   8.506  11.927   1.907  0.4676 -1.2436  0.0911
  627MOL0     H84597   8.524  12.187   1.910  0.2009  2.7725 -1.0279
  627MOL0     H84598   8.683  12.250   1.924 -3.4559  0.2615  3.3501
  627MOL0     H84599   8.577  12.113   1.662 -0.8351  1.4294 -0.1460
  627MOL0     H84600   8.553  12.279   1.704  2.2669  1.8105 -1.9085
  627MOL0     H84601   8.847  12.188   1.713  3.4549  1.9824 -1.7933
  627MOL0     H84602   8.772  12.347   1.675 -0.0107 -0.6503  1.1857
  627MOL0     H84603   8.737  12.112   1.489 -2.2092  0.4047 -1.4098
  627MOL0     H84604   8.895  12.184   1.508 -0.3503 -2.9791  1.8879
  627MOL0     H84605   8.617  12.470   1.516  0.1330 -2.7756 -2.6413
  627MOL0     H84606   8.687  12.717   1.549  0.5882  0.2657 -0.4611
  627MOL0     H84607   9.275  12.893   1.690  1.4446  0.8735  0.4196
  627MOL0     H84608   9.359  13.103   1.756  1.0084 -2.9618 -1.4359
  627MOL0     H84609   9.276  13.436   1.466 -1.1423 -0.7881  0.6048
  627MOL0     H84610   9.164  13.506   1.580  0.5812  3.3563 -2.8265
  627MOL0     H84611   9.331  13.668   1.563  3.2423 -0.7274 -2.2863
  627MOL0     H84612   9.385  13.596   1.718 -2.9099 -0.8266  1.2012
  627MOL0     H84613   9.547  13.477   1.630 -2.4944 -3.0739 -1.4587
  627MOL0     H84614   9.506  13.491   1.467 -1.2135 -0.4668  0.5238
  627MOL0     H84615   9.596  13.743   1.639 -0.3940 -0.8851  0.3004
  627MOL0     H84616   9.563  13.749   1.469  0.1664 -1.2934 -0.4255
  627MOL0     H84617   9.802  13.743   1.493  0.7618 -0.5807 -0.0842
  627MOL0     H84618   9.742  13.594   1.423  0.1244  0.6505 -0.7351
  627MOL0     H84619   9.788  13.619   1.722  2.4407  0.1848  0.1189
  627MOL0     H84620   9.780  13.479   1.618 -1.8394  1.0333  0.2948
  627MOL0     H84621   9.991  13.712   1.599 -0.7722  0.0824 -1.4760
  627MOL0     H84622  10.006  13.554   1.526  1.2117 -1.6501  1.4093
  627MOL0     H84623  10.059  13.444   1.732  1.5158  0.4991 -2.9730
  627MOL0     H84624  10.151  13.596   1.725 -0.2860  0.9465  2.9713
  627MOL0     H84625   9.104  13.297   1.457  3.3755  3.0207  1.4396
  627MOL0     H84626   9.015  13.060   1.398  0.0938  0.4041 -0.7532
  627MOL0     H84627   9.085  12.607   1.442  1.1686 -1.7370 -0.2869
  627MOL0     H84628   9.011  12.383   1.409  1.7998  0.4773  1.1815
  627MOL0     H84629   7.970  10.873   2.249  1.5003  1.4194  1.1883
  627MOL0     H84630   7.751  10.859   2.346  0.4551 -2.9889 -1.8882
  627MOL0     H84631   7.298  10.673   2.183 -1.1376  0.2573 -0.6251
  627MOL0     H84632   7.079  10.627   2.265 -0.3252  0.6406 -0.2028
  627MOL0     H84633   6.835  10.906   2.356 -2.0346  2.0556  0.8391
  627MOL0     H84634   6.858  10.918   2.533  0.0497 -0.3964  0.1100
  627MOL0     H84635   6.722  10.690   2.535  1.8232  0.9711  0.0811
  627MOL0     H84636   6.684  10.723   2.361  0.8056  1.7201 -0.3806
  627MOL0     H84637   6.584  10.935   2.452 -0.6345  1.2081  2.5655
  627MOL0     H84638   6.593  10.863   2.608  0.8324  0.2199 -0.4268
  627MOL0     H84639   6.482  10.678   2.402  1.6020 -0.8821  1.0020
  627MOL0     H84640   6.438  10.680   2.569 -2.0063  0.0709 -1.0947
  627MOL0     H84641   6.225  11.008   2.372  0.4445 -1.0069 -1.2565
  627MOL0     H84642   7.089  10.979   2.519  0.0472  2.4547 -1.2568
  627MOL0     H84643   7.387  11.097   2.392 -1.8011 -1.2081 -2.3275
  627MOL0     H84644   7.276  11.120   2.531 -1.6193 -1.6349 -1.4439
  627MOL0     H84645   7.424  11.016   2.535  1.0312  0.1853 -1.7299
  628MOL0     O84646   6.083   8.021   3.397 -0.2946 -0.9506 -0.3260
  628MOL0     C84647   6.049   8.109   3.310 -0.6091  0.2492  0.6973
  628MOL0     O84648   6.138   8.163   3.222 -0.2229  0.2053  0.1910
  628MOL0     C84649   6.272   8.193   3.256  0.5268  0.4376  0.1922
  628MOL0     C84650   6.329   8.236   3.374  0.0829 -0.5299 -0.1862
  628MOL0     C84651   6.466   8.275   3.381  0.2877  0.1835 -0.4357
  628MOL0     C84652   6.540   8.266   3.263  0.5006  0.6508  0.4716
  628MOL0     O84653   6.673   8.304   3.272 -0.0823 -0.3529 -0.0565
  628MOL0     C84654   6.771   8.247   3.179 -1.0044  1.0187  0.6849
  628MOL0     C84655   6.850   8.371   3.110  0.7306  0.2036  0.5355
  628MOL0     C84656   6.954   8.321   2.998  0.8872 -0.1296  0.0001
  628MOL0     C84657   7.000   8.430   2.911  0.1834 -0.4736  0.0320
  628MOL0     C84658   7.125   8.395   2.832  0.2628 -0.7690  0.1088
  628MOL0     C84659   7.088   8.315   2.704  0.1993 -0.0057 -0.5141
  628MOL0     C84660   7.216   8.296   2.620  1.1795  0.0832  1.7336
  628MOL0     C84661   7.170   8.237   2.493  0.4243  0.8754 -0.0632
  628MOL0     N84662   7.280   8.235   2.385  0.4514  0.0534 -0.6633
  628MOL0     C84663   7.366   8.335   2.343 -0.3764  0.0913 -0.5533
  628MOL0     C84664   7.434   8.290   2.234 -0.0720 -0.1864 -0.5216
  628MOL0     C84665   7.553   8.357   2.156  0.8638 -0.1728  0.6070
  628MOL0     C84666   7.521   8.359   2.005  0.0758 -1.2991  0.4797
  628MOL0     C84667   7.649   8.419   1.937  0.3171 -0.4488  0.0256
  628MOL0     C84668   7.665   8.354   1.806  0.6474 -0.5081 -0.7183
  628MOL0     O84669   7.547   8.385   1.720  0.6363 -0.5416 -0.9583
  628MOL0     C84670   7.538   8.275   1.639  0.8773 -0.0022  0.5800
  628MOL0     C84671   7.467   8.159   1.676  0.5650  0.3269  0.0769
  628MOL0     C84672   7.484   8.043   1.599  1.0894 -0.4697 -0.3813
  628MOL0     C84673   7.566   8.035   1.490 -0.8426 -0.0352 -1.0798
  628MOL0     C84674   7.605   7.902   1.421 -0.0307 -0.1444 -0.7220
  628MOL0     O84675   7.527   7.784   1.447  0.0606 -0.5582 -0.4446
  628MOL0     C84676   7.565   7.663   1.409  0.0498 -0.0983  0.9045
  628MOL0     C84677   7.544   7.557   1.501  0.0350 -0.0655 -0.3477
  628MOL0     C84678   7.573   7.434   1.466 -0.1365  0.0919  0.6605
  628MOL0     C84679   7.624   7.404   1.334 -0.1105  0.9577 -0.1726
  628MOL0     O84680   7.640   7.279   1.288  0.0245  1.0784 -0.0641
  628MOL0     C84681   7.629   7.170   1.388 -0.2850 -0.3931  0.3057
  628MOL0     C84682   7.643   7.038   1.329  0.4585  1.5681  0.0022
  628MOL0     C84683   7.523   6.991   1.256  0.6125  0.9493  0.6815
  628MOL0     C84684   7.537   6.852   1.163 -0.7366 -0.2336 -0.5585
  628MOL0     C84685   7.418   6.804   1.082  0.0790  0.2725 -0.1364
  628MOL0     C84686   7.362   6.905   0.982 -0.2633  0.5005  0.6559
  628MOL0     C84687   7.241   6.850   0.895 -0.6442  0.2660  0.1637
  628MOL0     C84688   7.200   6.949   0.781  0.1520 -0.2623 -0.2999
  628MOL0    Cl84689   7.052   7.053   0.818  0.1081  0.0100 -0.4500
  628MOL0     C84690   7.655   7.505   1.244  0.2267  0.2303  0.0694
  628MOL0     C84691   7.630   7.644   1.282  0.2231  0.3448  0.1837
  628MOL0     O84692   7.707   7.904   1.357  0.1294  0.7691 -0.2320
  628MOL0     C84693   7.637   8.153   1.450 -0.2697 -0.0729 -0.0570
  628MOL0     C84694   7.625   8.269   1.526 -0.0320 -0.0719 -0.1719
  628MOL0     N84695   7.383   8.162   2.215 -0.0895  0.4874  0.5512
  628MOL0     N84696   7.289   8.129   2.299 -0.2463  0.0087  0.2263
  628MOL0     C84697   6.484   8.221   3.145 -0.0127  0.7671 -0.5002
  628MOL0     C84698   6.351   8.180   3.141  1.0558  0.0414  0.0725
  628MOL0     C84699   5.904   8.140   3.289  0.0991  0.3885  0.0265
  628MOL0     C84700   5.813   8.050   3.327  0.1522  0.0681  0.9370
  628MOL0     C84701   5.677   8.069   3.306 -0.1030  0.2219  0.2608
  628MOL0     C84702   5.626   8.181   3.250  0.6204  0.1857 -0.6572
  628MOL0     O84703   5.486   8.192   3.235 -0.3357 -0.2079 -0.2529
  628MOL0     C84704   5.401   8.081   3.201  0.5193 -0.2221  0.1611
  628MOL0     C84705   5.442   8.012   3.072  0.2089 -0.4571 -0.0597
  628MOL0     C84706   5.399   8.096   2.947  0.1908 -0.5551 -0.0643
  628MOL0     C84707   5.449   8.026   2.819 -0.6133 -0.1749 -0.3457
  628MOL0     C84708   5.403   8.107   2.705 -0.7647  0.0547 -0.2459
  628MOL0     C84709   5.366   8.186   2.620  0.0470 -0.2190  0.2139
  628MOL0     C84710   5.724   8.281   3.216 -0.0750 -0.2499 -0.5217
  628MOL0     C84711   5.860   8.264   3.244 -0.2532  0.0453 -0.1871
  628MOL0     C84712   5.942   8.393   3.210 -0.6065  0.5833  0.3464
  628MOL0     H84713   6.273   8.251   3.467 -1.4114  0.0917 -1.1390
  628MOL0     H84714   6.498   8.295   3.483 -2.4120  0.5684  0.4039
  628MOL0     H84715   6.838   8.178   3.231 -0.0684 -1.6481 -3.5374
  628MOL0     H84716   6.728   8.187   3.099  1.2281 -1.1151  0.9810
  628MOL0     H84717   6.905   8.433   3.182  2.3654  2.4218 -2.4198
  628MOL0     H84718   6.780   8.436   3.058  1.4004  1.2587  0.9270
  628MOL0     H84719   6.912   8.242   2.935  2.5338 -1.1878  0.1618
  628MOL0     H84720   7.043   8.280   3.048  1.3051  0.7801  0.0193
  628MOL0     H84721   6.922   8.460   2.841  0.0146  2.1633  1.2472
  628MOL0     H84722   7.018   8.524   2.964 -0.8018 -1.1194  1.5998
  628MOL0     H84723   7.166   8.492   2.803 -1.3596 -0.5909 -1.7219
  628MOL0     H84724   7.200   8.338   2.889 -0.1267 -0.3334  1.0846
  628MOL0     H84725   7.054   8.216   2.736  2.5157 -1.1486 -1.2981
  628MOL0     H84726   7.009   8.367   2.650  1.0385  1.0524 -0.7517
  628MOL0     H84727   7.282   8.217   2.659  1.3039 -0.8187 -0.1873
  628MOL0     H84728   7.271   8.390   2.609 -1.4772  1.6956  1.5302
  628MOL0     H84729   7.147   8.130   2.501  1.2078  0.7936  1.5786
  628MOL0     H84730   7.077   8.281   2.457 -0.7567 -0.0620  1.7259
  628MOL0     H84731   7.382   8.424   2.402  1.9802  0.2526 -1.3326
  628MOL0     H84732   7.563   8.462   2.188 -0.0830 -0.1113  0.7375
  628MOL0     H84733   7.646   8.304   2.176  1.6113  0.3606 -1.3086
  628MOL0     H84734   7.485   8.260   1.974 -2.8729 -0.6900  1.6410
  628MOL0     H84735   7.439   8.429   1.988  1.2132 -0.5387 -2.7207
  628MOL0     H84736   7.737   8.394   1.997  0.2448 -0.7226  0.0194
  628MOL0     H84737   7.647   8.527   1.922  0.7653 -0.3227  0.8220
  628MOL0     H84738   7.658   8.248   1.832  2.6983 -0.2242  1.2311
  628MOL0     H84739   7.756   8.378   1.750 -1.0261  0.0267 -3.3948
  628MOL0     H84740   7.406   8.176   1.765  2.0104 -1.2289  1.4492
  628MOL0     H84741   7.439   7.952   1.636 -3.1283  1.8584  0.8509
  628MOL0     H84742   7.504   7.583   1.599 -0.4688 -0.6501 -0.3954
  628MOL0     H84743   7.551   7.352   1.534 -0.6726  0.0869  0.4877
  628MOL0     H84744   7.708   7.196   1.459 -1.2766 -0.6506  1.5367
  628MOL0     H84745   7.536   7.174   1.445 -0.1026  1.6257  0.5489
  628MOL0     H84746   7.741   7.033   1.280  1.1779 -0.5318  1.4982
  628MOL0     H84747   7.666   6.972   1.414 -2.3354 -0.9524 -1.0278
  628MOL0     H84748   7.441   6.976   1.328  0.8295 -1.1454  0.5604
  628MOL0     H84749   7.480   7.075   1.202  1.7152  1.8598  1.1883
  628MOL0     H84750   7.554   6.771   1.234 -0.6288  0.7296  0.5457
  628MOL0     H84751   7.625   6.864   1.099 -0.4875  0.3043 -0.1259
  628MOL0     H84752   7.337   6.782   1.152  0.3132  4.2992  1.6844
  628MOL0     H84753   7.451   6.711   1.035  1.9436 -0.8730  3.1364
  628MOL0     H84754   7.335   6.990   1.046  2.2850  1.3946  0.6580
  628MOL0     H84755   7.440   6.937   0.913  0.5650  0.1256  1.4068
  628MOL0     H84756   7.157   6.841   0.964 -0.9625 -1.4656 -0.3880
  628MOL0     H84757   7.279   6.754   0.858 -0.1173  0.4573  0.2007
  628MOL0     H84758   7.284   7.013   0.752 -0.1342  0.5408  0.6060
  628MOL0     H84759   7.179   6.893   0.689 -1.1957  1.1835 -0.9034
  628MOL0     H84760   7.692   7.496   1.142 -0.2985  2.1011 -0.3306
  628MOL0     H84761   7.654   7.726   1.216 -3.7559  3.8153  2.4919
  628MOL0     H84762   7.705   8.159   1.366 -1.5383  0.8536 -1.0626
  628MOL0     H84763   7.674   8.358   1.491  0.5216 -0.5307 -0.5735
  628MOL0     H84764   6.535   8.216   3.049 -0.4122  0.7321 -0.7103
  628MOL0     H84765   6.307   8.144   3.049  0.5985 -1.2214  0.7722
  628MOL0     H84766   5.846   7.959   3.375 -0.7438 -0.0012  1.4577
  628MOL0     H84767   5.617   7.982   3.331 -3.1127  0.9925 -3.4881
  628MOL0     H84768   5.297   8.114   3.198  0.2214 -0.4873  3.5719
  628MOL0     H84769   5.394   8.010   3.284 -1.1509 -2.0484 -1.4363
  628MOL0     H84770   5.389   7.916   3.069  0.2858 -0.4931 -0.3177
  628MOL0     H84771   5.550   7.999   3.070  0.8566  3.3986  0.9313
  628MOL0     H84772   5.456   8.189   2.962  1.1559 -1.4137  1.8666
  628MOL0     H84773   5.294   8.123   2.932  1.2057  2.9766 -2.3356
  628MOL0     H84774   5.558   8.018   2.819 -0.5090  0.6435 -2.1902
  628MOL0     H84775   5.406   7.926   2.827  0.5417 -0.5498  2.0317
  628MOL0     H84776   5.318   8.236   2.539 -3.2943 -0.6278  1.7772
  628MOL0     H84777   5.676   8.366   3.168 -2.3144 -0.6405  0.8988
  628MOL0     H84778   6.036   8.403   3.265 -0.8199 -0.1789  0.8647
  628MOL0     H84779   5.958   8.401   3.102  3.0413 -0.2141  0.6906
  628MOL0     H84780   5.886   8.486   3.226 -1.1325  0.2856  0.2468
  629MOL0     O84781   7.674   2.019   7.208  0.1223  0.0622  0.8397
  629MOL0     C84782   7.766   2.082   7.252  0.0514  0.1303  0.5776
  629MOL0     O84783   7.891   2.097   7.191 -0.2657  0.2625  0.3442
  629MOL0     C84784   7.934   2.029   7.082  0.1025  0.4237 -0.2002
  629MOL0     C84785   8.077   2.011   7.075 -0.1329  0.5054  0.1183
  629MOL0     C84786   8.138   1.927   6.983  0.5016  0.0028 -0.7198
  629MOL0     C84787   8.050   1.859   6.893 -0.1609 -0.2463 -0.2104
  629MOL0     O84788   8.087   1.756   6.810 -0.0419 -0.1407 -0.3387
  629MOL0     C84789   8.109   1.631   6.878 -0.7727  0.1261  0.2894
  629MOL0     C84790   8.217   1.564   6.807  0.1025 -1.1561 -0.2367
  629MOL0     C84791   8.235   1.427   6.866 -0.5872  0.8450 -0.7300
  629MOL0     C84792   8.362   1.424   6.960 -0.7266 -0.6213 -0.5412
  629MOL0     C84793   8.404   1.276   6.988 -0.7064  0.2058  0.6125
  629MOL0     C84794   8.342   1.209   7.110  0.2575 -0.6723  0.3278
  629MOL0     C84795   8.400   1.254   7.245 -0.5020  0.6054 -0.3668
  629MOL0     C84796   8.357   1.159   7.362 -0.3475  0.2559 -0.6105
  629MOL0     N84797   8.369   1.237   7.491  0.5291  0.4233  0.0798
  629MOL0     C84798   8.370   1.183   7.616  0.8075  0.3319 -0.1894
  629MOL0     C84799   8.336   1.282   7.703  1.6288  0.1413 -0.2814
  629MOL0     C84800   8.310   1.279   7.851  0.8492  0.0328 -1.0634
  629MOL0     C84801   8.223   1.156   7.900 -0.4144 -0.0447  0.0298
  629MOL0     C84802   8.171   1.159   8.047  0.2121 -0.0936  0.6787
  629MOL0     C84803   8.279   1.176   8.161  0.1505 -0.3149  0.2942
  629MOL0     O84804   8.364   1.291   8.127  0.4943 -0.7973 -0.3009
  629MOL0     C84805   8.433   1.354   8.226 -0.1268  0.4821  0.1765
  629MOL0     C84806   8.449   1.293   8.354 -0.4555 -0.1942  0.9046
  629MOL0     C84807   8.511   1.375   8.456 -0.9693  0.1363  0.4458
  629MOL0     C84808   8.556   1.509   8.422 -0.6135 -0.3178 -0.0557
  629MOL0     C84809   8.625   1.593   8.522 -0.3442  0.7338  0.1054
  629MOL0     O84810   8.679   1.712   8.476  0.4479 -0.3491  0.7380
  629MOL0     C84811   8.759   1.764   8.571  0.6997 -0.6865 -0.1185
  629MOL0     C84812   8.723   1.896   8.611  0.2949  0.4167  0.1356
  629MOL0     C84813   8.798   1.961   8.703  0.0099 -0.2074  0.3158
  629MOL0     C84814   8.909   1.900   8.754 -0.8627  0.9938  0.2429
  629MOL0     O84815   8.990   1.970   8.830 -0.5655  0.4643 -0.3581
  629MOL0     C84816   9.088   2.050   8.753  0.7194 -0.5357 -0.4628
  629MOL0     C84817   9.226   1.986   8.747 -0.0884  0.4130 -0.8564
  629MOL0     C84818   9.288   1.981   8.891 -0.0359 -0.2462 -0.1061
  629MOL0     C84819   9.217   1.884   8.992 -0.5894 -0.9180  0.2558
  629MOL0     C84820   9.324   1.846   9.096 -0.1205  0.5110 -0.7551
  629MOL0     C84821   9.275   1.773   9.223 -0.6642  0.0532  0.4195
  629MOL0     C84822   9.377   1.787   9.332  0.1974  0.3340 -1.3033
  629MOL0     C84823   9.366   1.671   9.434 -0.2177  0.1025  0.1630
  629MOL0    Cl84824   9.198   1.679   9.487 -0.2678  0.3111 -0.0374
  629MOL0     C84825   8.932   1.760   8.730 -0.1937  0.5933 -0.5549
  629MOL0     C84826   8.859   1.696   8.634  0.7885  0.2466 -0.3085
  629MOL0     O84827   8.621   1.555   8.639  0.3350 -0.8143  0.0854
  629MOL0     C84828   8.535   1.558   8.291  0.2290  0.7088  0.8981
  629MOL0     C84829   8.466   1.477   8.194 -0.0539 -1.1038  0.5892
  629MOL0     N84830   8.321   1.396   7.624 -0.5722 -0.1816  0.3951
  629MOL0     N84831   8.353   1.368   7.497  0.7780 -0.3363 -0.5718
  629MOL0     C84832   7.913   1.893   6.889  1.0221 -0.3128 -1.0099
  629MOL0     C84833   7.854   1.978   6.981 -0.2975  0.0239 -0.5627
  629MOL0     C84834   7.743   2.146   7.383  0.2743 -0.3365  0.8911
  629MOL0     C84835   7.844   2.231   7.426  0.6851  0.5148  1.3133
  629MOL0     C84836   7.828   2.290   7.549  0.5772 -0.2998  0.2847
  629MOL0     C84837   7.726   2.265   7.636 -0.7005 -0.3969 -1.1079
  629MOL0     O84838   7.717   2.355   7.754  0.4144 -0.3980  1.1218
  629MOL0     C84839   7.650   2.320   7.871  1.1853  0.2802  0.6623
  629MOL0     C84840   7.656   2.447   7.951 -0.5589 -0.3668  0.0383
  629MOL0     C84841   7.790   2.529   7.953 -1.0832  0.4216  0.2941
  629MOL0     C84842   7.791   2.636   8.049 -0.0433 -0.4917 -0.4047
  629MOL0     C84843   7.801   2.577   8.184 -0.6687  1.1023  0.4056
  629MOL0     C84844   7.819   2.540   8.302 -0.3060 -0.4874 -0.5942
  629MOL0     C84845   7.633   2.170   7.602  0.3944  0.0617  1.1310
  629MOL0     C84846   7.632   2.114   7.468 -0.7504 -0.9729 -0.2638
  629MOL0     C84847   7.530   2.012   7.444 -0.1557 -0.0596 -0.6760
  629MOL0     H84848   8.128   2.055   7.160 -2.5033  3.2541  0.2705
  629MOL0     H84849   8.245   1.914   6.987  0.4252 -1.1773 -1.8341
  629MOL0     H84850   8.124   1.641   6.986 -0.4420 -3.0757  0.6280
  629MOL0     H84851   8.019   1.571   6.866 -2.5291  2.4475  1.0675
  629MOL0     H84852   8.303   1.632   6.811  0.0595 -1.0615 -0.8921
  629MOL0     H84853   8.198   1.567   6.699  1.3958  3.4810 -0.5588
  629MOL0     H84854   8.252   1.365   6.777  1.2240  0.1809  0.0422
  629MOL0     H84855   8.145   1.387   6.913  0.8471 -1.0706  0.5163
  629MOL0     H84856   8.448   1.461   6.905 -0.1715  1.4853  1.6043
  629MOL0     H84857   8.362   1.483   7.051  0.5126 -2.4855  0.7323
  629MOL0     H84858   8.369   1.221   6.900 -3.5303  1.2331  0.9668
  629MOL0     H84859   8.513   1.274   6.988 -0.6976 -1.4677  0.0414
  629MOL0     H84860   8.233   1.219   7.104  0.2152  0.1078  1.8702
  629MOL0     H84861   8.356   1.101   7.105 -1.8875 -0.9785 -0.0860
  629MOL0     H84862   8.375   1.360   7.262 -2.0063  0.3791 -0.9903
  629MOL0     H84863   8.509   1.248   7.241 -0.5722 -0.9651 -0.4839
  629MOL0     H84864   8.256   1.116   7.355  0.7758 -2.8128  0.4453
  629MOL0     H84865   8.428   1.077   7.358 -0.3484  0.2043  0.2393
  629MOL0     H84866   8.389   1.076   7.623 -3.7080 -0.7752 -1.3200
  629MOL0     H84867   8.410   1.262   7.892  0.3006  0.6388  0.6020
  629MOL0     H84868   8.259   1.370   7.880 -0.6646 -0.9626 -0.5024
  629MOL0     H84869   8.147   1.151   7.822 -0.2495  0.7581 -0.2012
  629MOL0     H84870   8.283   1.065   7.891 -2.8593 -1.5874 -1.7623
  629MOL0     H84871   8.116   1.064   8.056  1.0288 -0.7602 -0.8769
  629MOL0     H84872   8.111   1.250   8.049  0.9031  0.3758  0.3458
  629MOL0     H84873   8.335   1.084   8.174  2.1922  0.9404  0.7984
  629MOL0     H84874   8.236   1.210   8.256 -0.8015 -0.9117  0.0984
  629MOL0     H84875   8.416   1.194   8.383  0.6503 -0.2821  1.9462
  629MOL0     H84876   8.509   1.339   8.558 -1.4193 -0.5861  0.1887
  629MOL0     H84877   8.644   1.949   8.558  1.5328 -0.0443 -2.3278
  629MOL0     H84878   8.775   2.061   8.738  0.1716 -0.2187  0.4522
  629MOL0     H84879   9.047   2.071   8.654  0.5114  2.2952  0.1309
  629MOL0     H84880   9.093   2.147   8.804  2.1012 -0.4269 -0.7782
  629MOL0     H84881   9.221   1.887   8.701 -1.4284  1.9162 -4.2398
  629MOL0     H84882   9.294   2.047   8.688 -0.3199  2.6316  1.0018
  629MOL0     H84883   9.392   1.951   8.876  0.3722  1.2311 -0.4140
  629MOL0     H84884   9.290   2.078   8.942  0.8949 -0.7224  0.8112
  629MOL0     H84885   9.166   1.795   8.952 -2.2437  0.4522 -0.8016
  629MOL0     H84886   9.143   1.949   9.038  1.0130  1.2272 -0.0551
  629MOL0     H84887   9.364   1.940   9.133  0.0673 -0.3222  1.3091
  629MOL0     H84888   9.400   1.784   9.047  1.0594 -0.6992  2.3503
  629MOL0     H84889   9.178   1.818   9.247 -1.8460 -1.4514 -1.2862
  629MOL0     H84890   9.270   1.669   9.189 -0.9540  0.5590 -1.1938
  629MOL0     H84891   9.370   1.883   9.383  0.5615 -0.2091 -0.2073
  629MOL0     H84892   9.479   1.791   9.293  1.9556  1.6654  2.8401
  629MOL0     H84893   9.390   1.577   9.383 -1.0346  1.3266 -2.6469
  629MOL0     H84894   9.442   1.689   9.511  2.0980 -1.6585 -1.5708
  629MOL0     H84895   9.016   1.703   8.768 -0.7897 -1.5740 -2.3359
  629MOL0     H84896   8.880   1.591   8.613  0.1674 -0.4138  2.0938
  629MOL0     H84897   8.567   1.658   8.261  1.6484  0.4610  1.4988
  629MOL0     H84898   8.454   1.506   8.090 -1.0205  0.4996  1.1147
  629MOL0     H84899   7.847   1.831   6.830 -0.8887 -1.4441  2.0851
  629MOL0     H84900   7.748   1.999   6.988 -0.2804 -0.2841  1.3270
  629MOL0     H84901   7.925   2.262   7.360  1.4169 -0.6654  1.6411
  629MOL0     H84902   7.906   2.359   7.578  1.3191 -1.0440  0.0921
  629MOL0     H84903   7.701   2.241   7.927 -1.3485 -0.4882  2.0335
  629MOL0     H84904   7.550   2.289   7.839  1.7029  2.1017 -3.2728
  629MOL0     H84905   7.623   2.428   8.054  0.3777  0.2082  0.4561
  629MOL0     H84906   7.583   2.515   7.908 -0.7675 -0.9701 -0.5738
  629MOL0     H84907   7.795   2.567   7.851  1.6293  1.3111  0.6747
  629MOL0     H84908   7.879   2.467   7.972  0.0461  2.0451  0.4564
  629MOL0     H84909   7.871   2.709   8.034 -1.3573  0.8466 -1.1896
  629MOL0     H84910   7.703   2.700   8.059 -0.0657 -0.7073  1.0102
  629MOL0     H84911   7.843   2.500   8.398 -2.6243 -0.2243  0.1533
  629MOL0     H84912   7.558   2.156   7.680  2.6239 -1.9197  3.0802
  629MOL0     H84913   7.475   1.996   7.537  0.1915 -0.0558 -0.4663
  629MOL0     H84914   7.469   2.052   7.363  2.8785 -1.1570 -3.7639
  629MOL0     H84915   7.567   1.919   7.399  1.3200 -0.2724  0.8440
  630MOL0     O84916   3.524   1.189   4.822 -0.3702  0.3343  0.4234
  630MOL0     C84917   3.457   1.135   4.907  0.5578  0.0498 -0.2983
  630MOL0     O84918   3.404   1.188   5.016  0.7656  0.4440 -0.9212
  630MOL0     C84919   3.419   1.316   5.057  0.2627  0.5694  0.2980
  630MOL0     C84920   3.381   1.420   4.973 -0.1441 -0.4008  0.5252
  630MOL0     C84921   3.400   1.554   5.027  0.0908  1.0012 -0.6967
  630MOL0     C84922   3.438   1.580   5.157 -0.9744  0.4998  0.3104
  630MOL0     O84923   3.424   1.703   5.207 -0.4153  0.3221  0.3833
  630MOL0     C84924   3.524   1.750   5.307 -0.1665 -0.2822 -0.7330
  630MOL0     C84925   3.562   1.895   5.281  0.8707 -0.2593  0.1912
  630MOL0     C84926   3.442   2.000   5.273  1.2192 -0.6780 -0.4417
  630MOL0     C84927   3.453   2.099   5.159 -0.0255  0.0131 -0.1376
  630MOL0     C84928   3.555   2.209   5.187 -0.9893  0.5028 -0.3156
  630MOL0     C84929   3.619   2.278   5.064  0.3466 -0.2725 -0.1398
  630MOL0     C84930   3.513   2.367   4.992  0.0758  0.5388 -0.0164
  630MOL0     C84931   3.578   2.455   4.881 -0.9614 -1.1766 -0.0129
  630MOL0     N84932   3.482   2.510   4.787  0.6992  0.3581  0.5578
  630MOL0     C84933   3.458   2.650   4.762 -0.0361  0.6602 -0.2743
  630MOL0     C84934   3.375   2.654   4.657 -0.4497 -0.0939  0.2312
  630MOL0     C84935   3.322   2.777   4.585 -0.9984  0.6635  0.4343
  630MOL0     C84936   3.297   2.884   4.687  1.1764  0.0494  0.8245
  630MOL0     C84937   3.216   3.005   4.626  0.5694 -0.5095  0.1886
  630MOL0     C84938   3.282   3.066   4.503 -1.1136  0.4464  0.1809
  630MOL0     O84939   3.200   3.182   4.474  0.7337 -0.4243 -0.0543
  630MOL0     C84940   3.228   3.255   4.367  0.0877 -0.3342 -0.4192
  630MOL0     C84941   3.338   3.232   4.280  0.2448  0.5057 -0.3367
  630MOL0     C84942   3.365   3.326   4.181 -0.3605 -0.7281  0.8466
  630MOL0     C84943   3.270   3.423   4.149  0.9198 -0.7580  0.1872
  630MOL0     C84944   3.280   3.508   4.024 -0.0115  0.0935  0.0807
  630MOL0     O84945   3.397   3.503   3.961  0.6223  0.0688 -0.2456
  630MOL0     C84946   3.405   3.545   3.833  0.2284 -0.2231  0.3267
  630MOL0     C84947   3.421   3.455   3.728 -0.4227 -0.9079 -0.3458
  630MOL0     C84948   3.458   3.500   3.596 -1.0465 -0.1757 -0.0852
  630MOL0     C84949   3.479   3.638   3.568 -0.3521 -0.4416 -0.4199
  630MOL0     O84950   3.522   3.684   3.443 -0.2675  0.1863  0.0298
  630MOL0     C84951   3.579   3.588   3.348  0.1389 -0.6154 -0.2740
  630MOL0     C84952   3.635   3.659   3.224  0.7272  0.0507  0.2869
  630MOL0     C84953   3.531   3.714   3.126  0.1637 -0.3187 -0.1884
  630MOL0     C84954   3.581   3.779   2.996 -0.2318  0.6369  0.2338
  630MOL0     C84955   3.476   3.773   2.879  0.3952 -0.7750  0.5865
  630MOL0     C84956   3.509   3.869   2.771  0.2279 -0.0036  0.3173
  630MOL0     C84957   3.405   3.856   2.658  0.6030 -0.2862 -0.0153
  630MOL0     C84958   3.442   3.927   2.522  0.2334 -0.2899  0.4650
  630MOL0    Cl84959   3.354   3.871   2.387 -0.0412 -0.2053 -0.1656
  630MOL0     C84960   3.459   3.733   3.675  0.5665  0.1392  0.1293
  630MOL0     C84961   3.425   3.681   3.806 -0.7059 -0.4069  0.4185
  630MOL0     O84962   3.178   3.566   3.983 -0.0371  0.5826 -0.6223
  630MOL0     C84963   3.156   3.445   4.234 -0.4064 -0.2922  0.9509
  630MOL0     C84964   3.140   3.365   4.344  0.4101  0.4536 -0.0104
  630MOL0     N84965   3.336   2.520   4.636 -0.2827 -0.3033 -0.2851
  630MOL0     N84966   3.397   2.439   4.708  0.5142 -0.1523 -0.1185
  630MOL0     C84967   3.485   1.468   5.228  1.1846  0.1458  0.6702
  630MOL0     C84968   3.467   1.338   5.181 -1.7637 -0.5043 -0.1580
  630MOL0     C84969   3.431   0.994   4.884 -0.3817  0.6146  0.0150
  630MOL0     C84970   3.308   0.952   4.834  0.3477 -0.0232 -0.5553
  630MOL0     C84971   3.285   0.816   4.818  0.1406  0.2439  0.5016
  630MOL0     C84972   3.381   0.719   4.851 -0.2473 -0.1398 -0.2746
  630MOL0     O84973   3.345   0.587   4.814 -0.1348 -0.0509  0.0473
  630MOL0     C84974   3.452   0.505   4.800  0.0574  1.0907 -0.5190
  630MOL0     C84975   3.416   0.376   4.723  0.2125 -0.2507 -0.3648
  630MOL0     C84976   3.395   0.395   4.572  0.7925  0.0566 -0.6270
  630MOL0     C84977   3.394   0.259   4.495  0.6400 -0.9595 -0.3326
  630MOL0     C84978   3.293   0.165   4.541 -0.4056  0.4547  0.2640
  630MOL0     C84979   3.244   0.071   4.594  0.0472  0.2815  0.3445
  630MOL0     C84980   3.513   0.760   4.886  1.0970  0.0281  0.0614
  630MOL0     C84981   3.532   0.896   4.915 -0.1777  0.0939 -0.3621
  630MOL0     C84982   3.671   0.929   4.966 -0.0861  0.2117  0.8432
  630MOL0     H84983   3.349   1.390   4.874 -1.2132 -2.1775  1.3601
  630MOL0     H84984   3.389   1.640   4.961 -0.5321  2.6761  1.4559
  630MOL0     H84985   3.470   1.752   5.403 -2.9645  2.4896 -2.1818
  630MOL0     H84986   3.618   1.695   5.305  0.8262  1.3511 -0.1796
  630MOL0     H84987   3.618   1.900   5.187  1.9276 -1.9660  0.7068
  630MOL0     H84988   3.629   1.921   5.363 -1.4181 -1.2873  2.5352
  630MOL0     H84989   3.437   2.064   5.361  3.4818 -0.7236 -0.2066
  630MOL0     H84990   3.349   1.946   5.254 -1.6250  4.1389 -1.7997
  630MOL0     H84991   3.467   2.050   5.062 -5.4165  0.7190 -1.6046
  630MOL0     H84992   3.360   2.152   5.136 -0.3977  0.1409  1.5036
  630MOL0     H84993   3.518   2.278   5.264 -2.1573 -0.6358  0.1821
  630MOL0     H84994   3.640   2.158   5.232 -2.3671 -3.0706 -1.4142
  630MOL0     H84995   3.700   2.342   5.100 -0.1541  2.2555 -3.0876
  630MOL0     H84996   3.659   2.203   4.995  1.0166  0.7458 -0.8782
  630MOL0     H84997   3.464   2.429   5.069 -1.5659  2.2542 -2.3036
  630MOL0     H84998   3.456   2.289   4.943  1.9438 -1.6633  1.1189
  630MOL0     H84999   3.637   2.532   4.932  2.1628 -3.4099  0.0341
  630MOL0     H85000   3.657   2.401   4.828  1.6328  0.5862  1.7756
  630MOL0     H85001   3.503   2.731   4.819  0.4757  0.7484 -0.8014
  630MOL0     H85002   3.397   2.795   4.507  0.3859 -1.1907  1.2755
  630MOL0     H85003   3.227   2.760   4.533 -1.3550  5.7571 -1.1695
  630MOL0     H85004   3.234   2.833   4.761  0.9285  2.7197  2.6026
  630MOL0     H85005   3.390   2.914   4.736  1.0914 -1.6571  2.1328
  630MOL0     H85006   3.208   3.092   4.691 -1.8581  1.0574 -2.0022
  630MOL0     H85007   3.113   2.985   4.593  1.0124  0.2410 -1.7897
  630MOL0     H85008   3.287   2.994   4.421 -3.2059 -0.3000  0.6441
  630MOL0     H85009   3.385   3.096   4.521 -1.2273  2.2743 -1.8211
  630MOL0     H85010   3.407   3.155   4.313  1.3069  2.0979  1.3792
  630MOL0     H85011   3.457   3.317   4.124  0.4539  0.8800  1.8280
  630MOL0     H85012   3.396   3.350   3.738 -1.7049 -0.9851 -3.3362
  630MOL0     H85013   3.470   3.432   3.513  0.7902  0.2691 -0.2287
  630MOL0     H85014   3.665   3.524   3.371 -0.2440 -1.1767 -0.4211
  630MOL0     H85015   3.495   3.523   3.324  0.6871 -1.4096 -0.0911
  630MOL0     H85016   3.694   3.740   3.268  0.3894  0.6170 -0.2932
  630MOL0     H85017   3.699   3.593   3.165  2.8016  1.5122  0.7916
  630MOL0     H85018   3.462   3.635   3.096  0.4904  0.8370 -4.7043
  630MOL0     H85019   3.470   3.788   3.178  1.6151  1.0235 -0.3102
  630MOL0     H85020   3.673   3.727   2.970 -0.8369 -0.0528 -0.5911
  630MOL0     H85021   3.608   3.882   3.019  1.1178  0.1379  0.9906
  630MOL0     H85022   3.373   3.796   2.905  0.7126  0.5395  0.7530
  630MOL0     H85023   3.486   3.669   2.844  1.1685 -0.4182 -0.2834
  630MOL0     H85024   3.492   3.972   2.803 -1.6668  0.0872 -0.8065
  630MOL0     H85025   3.608   3.856   2.726 -0.5990  0.9216 -1.9081
  630MOL0     H85026   3.307   3.898   2.684  0.5645 -0.3673 -0.0295
  630MOL0     H85027   3.398   3.750   2.634  0.7911 -0.5810  1.1755
  630MOL0     H85028   3.413   4.033   2.521  0.2313 -0.2540  2.2223
  630MOL0     H85029   3.549   3.912   2.500  0.2240  0.6684 -0.3224
  630MOL0     H85030   3.468   3.840   3.662 -2.3406  0.5912  1.0809
  630MOL0     H85031   3.424   3.744   3.894  3.9335 -2.4394  2.2566
  630MOL0     H85032   3.080   3.519   4.212  1.9577  1.7163 -1.1043
  630MOL0     H85033   3.054   3.365   4.410  2.0272 -0.0962  2.2140
  630MOL0     H85034   3.511   1.482   5.332 -0.9337 -0.1284  1.2668
  630MOL0     H85035   3.510   1.254   5.235  0.0247  0.6522  0.3110
  630MOL0     H85036   3.225   1.016   4.807 -1.1454 -0.9341  1.5786
  630MOL0     H85037   3.194   0.790   4.764  1.5336  1.0463 -2.4542
  630MOL0     H85038   3.485   0.468   4.898  0.6324 -0.0518 -1.1275
  630MOL0     H85039   3.536   0.558   4.754 -0.0656  0.6753 -1.2305
  630MOL0     H85040   3.326   0.335   4.769  0.1267  1.9620  1.6413
  630MOL0     H85041   3.490   0.296   4.732 -1.7993 -2.1084  0.5511
  630MOL0     H85042   3.491   0.436   4.539  3.8663 -3.5232  2.7808
  630MOL0     H85043   3.310   0.461   4.555 -0.0303 -0.3238  1.6787
  630MOL0     H85044   3.391   0.283   4.389  3.6283  3.3199  0.3174
  630MOL0     H85045   3.492   0.211   4.505  2.4166  2.3786 -0.3664
  630MOL0     H85046   3.210  -0.026   4.625  3.0719 -1.0083  0.0583
  630MOL0     H85047   3.594   0.689   4.905 -0.5724 -1.7579  0.8050
  630MOL0     H85048   3.718   1.007   4.906  2.0128 -1.2860  0.4088
  630MOL0     H85049   3.675   0.956   5.072  1.2767  2.4511  0.2739
  630MOL0     H85050   3.741   0.848   4.942  1.0451  1.4889 -0.3562
  631MOL0     O85051   6.290  10.420   1.596  0.9543  0.3628  0.2196
  631MOL0     C85052   6.268  10.318   1.666 -0.0767 -0.3379  0.5815
  631MOL0     O85053   6.147  10.261   1.676 -0.0431  0.1987 -0.3661
  631MOL0     C85054   6.038  10.335   1.653  0.5527 -0.8169 -0.0454
  631MOL0     C85055   5.952  10.381   1.760 -1.2694  0.4666  1.0331
  631MOL0     C85056   5.838  10.447   1.743  0.5489  0.3500  0.6198
  631MOL0     C85057   5.801  10.488   1.617 -0.2976 -0.2676  0.2950
  631MOL0     O85058   5.684  10.550   1.588 -0.3414 -0.0535  0.3246
  631MOL0     C85059   5.660  10.685   1.641 -0.4377  0.3350  0.4092
  631MOL0     C85060   5.510  10.695   1.620 -0.7107 -1.0159 -0.2356
  631MOL0     C85061   5.454  10.836   1.611 -1.0580 -0.1642 -0.1271
  631MOL0     C85062   5.307  10.840   1.559 -0.0046 -0.4784  0.4235
  631MOL0     C85063   5.251  10.990   1.560  0.3585  0.2833  0.3524
  631MOL0     C85064   5.097  10.993   1.522  0.4776 -0.2366 -0.4592
  631MOL0     C85065   5.050  11.137   1.494 -0.8921  0.6426  0.5652
  631MOL0     C85066   4.899  11.163   1.531 -0.0301 -0.7303  0.0561
  631MOL0     N85067   4.807  11.073   1.467 -0.1039  0.6671 -0.0439
  631MOL0     C85068   4.734  10.983   1.541 -0.0689  0.1080  0.0171
  631MOL0     C85069   4.625  10.950   1.470 -0.1723 -0.1050  0.0201
  631MOL0     C85070   4.525  10.845   1.491  0.2911 -1.3620 -1.1813
  631MOL0     C85071   4.455  10.869   1.630 -0.5384 -0.6652 -1.0700
  631MOL0     C85072   4.325  10.789   1.635  0.0839  0.6556  0.5867
  631MOL0     C85073   4.265  10.795   1.783  0.0483 -0.1607  0.1598
  631MOL0     O85074   4.152  10.711   1.792 -0.2100  0.6568  0.0190
  631MOL0     C85075   4.118  10.643   1.896  0.3711 -0.3847 -1.2181
  631MOL0     C85076   4.163  10.663   2.028 -0.2831 -0.1678 -0.1396
  631MOL0     C85077   4.095  10.604   2.135 -1.0157 -0.9044 -0.9854
  631MOL0     C85078   3.998  10.503   2.118  0.2366 -0.0223  0.4469
  631MOL0     C85079   3.938  10.420   2.226  0.2611  1.1141  0.0893
  631MOL0     O85080   3.848  10.326   2.173  0.1911 -0.3252  0.9667
  631MOL0     C85081   3.765  10.254   2.253  0.5208  0.3803  0.8423
  631MOL0     C85082   3.701  10.138   2.195  0.1334 -0.1091  0.1366
  631MOL0     C85083   3.616  10.057   2.273 -0.6106  1.0270  0.4512
  631MOL0     C85084   3.597  10.081   2.412  0.4050  0.3422  0.6285
  631MOL0     O85085   3.532   9.987   2.494  0.0084 -0.4938  0.2629
  631MOL0     C85086   3.538   9.848   2.454  0.5673  0.7224 -0.6551
  631MOL0     C85087   3.489   9.777   2.580 -0.1915  1.4961 -0.3350
  631MOL0     C85088   3.338   9.798   2.606 -0.3845  0.0223 -0.8267
  631MOL0     C85089   3.298   9.750   2.744 -0.6193 -0.1045  1.1204
  631MOL0     C85090   3.163   9.687   2.742  0.1834  0.6559  0.6435
  631MOL0     C85091   3.138   9.579   2.849 -0.4330 -0.0615  0.4552
  631MOL0     C85092   2.985   9.544   2.838 -0.5750  1.2465 -0.2920
  631MOL0     C85093   2.938   9.479   2.972  0.2008  0.3722  0.1427
  631MOL0    Cl85094   3.008   9.321   2.973 -0.3262 -0.1535 -0.0379
  631MOL0     C85095   3.634  10.204   2.458 -0.2333  0.3822  0.5178
  631MOL0     C85096   3.717  10.297   2.382 -0.4064  0.7866  1.2160
  631MOL0     O85097   3.968  10.431   2.343  0.6907  0.4242  0.6689
  631MOL0     C85098   3.943  10.493   1.993 -0.5764  0.1936  0.4311
  631MOL0     C85099   4.003  10.562   1.887 -0.1898  1.0812  0.7667
  631MOL0     N85100   4.617  11.036   1.363 -0.1587 -0.0108  0.2632
  631MOL0     N85101   4.722  11.111   1.364  0.2127  0.2892  0.0925
  631MOL0     C85102   5.887  10.465   1.503  0.6316  0.2559  0.3552
  631MOL0     C85103   6.006  10.383   1.517  0.0216  0.3348 -0.1739
  631MOL0     C85104   6.369  10.247   1.759 -0.6659 -0.2813 -0.1628
  631MOL0     C85105   6.335  10.126   1.816  0.0286 -0.6811 -0.2540
  631MOL0     C85106   6.427  10.048   1.890  0.4248 -0.2497 -0.3678
  631MOL0     C85107   6.557  10.089   1.899 -0.5774  0.5534  0.0523
  631MOL0     O85108   6.644  10.003   1.976  0.1268 -0.0019 -0.0982
  631MOL0     C85109   6.777   9.990   1.944 -0.0017 -0.1195  0.4116
  631MOL0     C85110   6.818   9.937   1.800  0.3417 -0.0828  0.1345
  631MOL0     C85111   6.973   9.956   1.784 -0.6145  0.2431 -0.2875
  631MOL0     C85112   7.018   9.945   1.639 -0.3576 -0.4797  0.0703
  631MOL0     C85113   6.981  10.058   1.554 -0.4864 -0.1307  0.0084
  631MOL0     C85114   6.960  10.155   1.476 -0.3758  0.6082 -0.4077
  631MOL0     C85115   6.597  10.208   1.837  0.7090  0.5604  0.1982
  631MOL0     C85116   6.504  10.288   1.772  0.3704  0.4298 -0.4295
  631MOL0     C85117   6.548  10.418   1.717 -0.3902 -0.1358 -0.4197
  631MOL0     H85118   5.979  10.357   1.862 -1.7721 -1.7141  0.7037
  631MOL0     H85119   5.768  10.475   1.822  0.8220 -0.5903  1.2167
  631MOL0     H85120   5.687  10.694   1.747  0.5555 -1.3032  0.3330
  631MOL0     H85121   5.710  10.763   1.583 -0.9670  1.6112  1.6069
  631MOL0     H85122   5.469  10.651   1.712  0.6789  2.6262  2.3870
  631MOL0     H85123   5.469  10.645   1.532  0.2246  0.5483 -1.6065
  631MOL0     H85124   5.517  10.910   1.563 -2.5862  1.1103 -0.2480
  631MOL0     H85125   5.451  10.871   1.715  1.7568 -3.4121  1.2531
  631MOL0     H85126   5.300  10.793   1.461  0.8174 -2.8527  1.4477
  631MOL0     H85127   5.250  10.784   1.633 -1.6814  0.3714 -0.1674
  631MOL0     H85128   5.269  11.031   1.660  0.4620 -0.0167  0.4558
  631MOL0     H85129   5.299  11.046   1.478 -0.3583 -0.6857 -0.7485
  631MOL0     H85130   5.091  10.929   1.434  0.9809 -0.3636 -0.3994
  631MOL0     H85131   5.029  10.956   1.600  0.8211  0.9828  0.4674
  631MOL0     H85132   5.065  11.153   1.387  0.8734  0.1052  0.7054
  631MOL0     H85133   5.115  11.206   1.549  0.7511 -1.8772  2.0010
  631MOL0     H85134   4.889  11.157   1.640  1.0382  0.5673  0.2501
  631MOL0     H85135   4.878  11.269   1.518  4.6058  0.1374 -2.5246
  631MOL0     H85136   4.764  10.932   1.633  1.1993  1.5546  0.4411
  631MOL0     H85137   4.442  10.870   1.425 -0.5518 -0.8451  0.0456
  631MOL0     H85138   4.550  10.739   1.487 -0.7311 -1.7707  1.5388
  631MOL0     H85139   4.517  10.836   1.715 -1.5026 -1.9263 -0.8210
  631MOL0     H85140   4.441  10.975   1.653 -2.4078 -1.6045  3.0717
  631MOL0     H85141   4.353  10.685   1.618  0.7223  0.5689  2.0206
  631MOL0     H85142   4.263  10.818   1.550  1.8903 -2.0499 -1.8557
  631MOL0     H85143   4.232  10.898   1.802  1.3601  0.3522 -0.2384
  631MOL0     H85144   4.341  10.779   1.860  0.6287  1.4715 -0.0311
  631MOL0     H85145   4.233  10.744   2.045 -1.6385  1.1914 -0.7494
  631MOL0     H85146   4.138  10.620   2.233 -1.3933  3.0308 -1.3271
  631MOL0     H85147   3.704  10.112   2.089 -4.4776 -1.3618  0.0969
  631MOL0     H85148   3.579   9.965   2.229  1.9322 -1.1362  2.5240
  631MOL0     H85149   3.474   9.813   2.373 -1.5111 -1.2761  1.6856
  631MOL0     H85150   3.645   9.828   2.436  0.5504  1.5319 -1.7465
  631MOL0     H85151   3.492   9.669   2.564 -1.2396  1.3075  0.6166
  631MOL0     H85152   3.557   9.810   2.659  0.1473 -1.6228  0.8266
  631MOL0     H85153   3.291   9.894   2.581  0.1622  0.6534  0.4629
  631MOL0     H85154   3.297   9.737   2.525 -1.7949 -0.5246  0.2642
  631MOL0     H85155   3.302   9.835   2.813 -0.6365 -0.8785  2.0896
  631MOL0     H85156   3.373   9.677   2.775  0.2302  0.9980  1.7249
  631MOL0     H85157   3.146   9.637   2.646 -1.1394 -1.0466  1.7103
  631MOL0     H85158   3.087   9.766   2.750 -1.9300 -1.2997  0.9453
  631MOL0     H85159   3.203   9.493   2.826  1.0841  0.8344  1.2196
  631MOL0     H85160   3.154   9.624   2.947 -3.3178 -0.0427  1.0052
  631MOL0     H85161   2.974   9.470   2.757  0.9268  0.7193 -0.0420
  631MOL0     H85162   2.919   9.629   2.822 -0.4003  1.5617  0.6277
  631MOL0     H85163   2.972   9.538   3.058  0.4402  0.3134  0.0884
  631MOL0     H85164   2.829   9.473   2.983  0.0145  1.5565 -0.7927
  631MOL0     H85165   3.609  10.228   2.561 -2.8565  1.2699 -0.2439
  631MOL0     H85166   3.749  10.391   2.424  0.4998  0.5309  1.1205
  631MOL0     H85167   3.862  10.424   1.969  0.9827 -0.9991 -1.8403
  631MOL0     H85168   3.961  10.552   1.787 -0.4665  2.4860  0.7275
  631MOL0     H85169   5.861  10.500   1.404 -1.2476 -0.9177  0.3930
  631MOL0     H85170   6.068  10.363   1.430  0.7932  0.9567  0.2124
  631MOL0     H85171   6.235  10.084   1.812  0.1578 -1.5101  2.6693
  631MOL0     H85172   6.399   9.955   1.939 -0.7402  0.1495 -0.2394
  631MOL0     H85173   6.824   9.928   2.021 -1.6443 -2.7948 -0.6001
  631MOL0     H85174   6.821  10.088   1.961 -3.2130  1.0491  2.9654
  631MOL0     H85175   6.763   9.991   1.722  0.6649  0.7606  0.4846
  631MOL0     H85176   6.787   9.832   1.792  0.9014 -0.1291 -2.0125
  631MOL0     H85177   7.024   9.873   1.833  3.3283  2.2533 -0.5899
  631MOL0     H85178   7.017  10.046   1.829  6.3032 -1.4858 -2.4570
  631MOL0     H85179   7.126   9.936   1.645 -0.2247 -0.0839 -1.3876
  631MOL0     H85180   6.991   9.848   1.595 -1.4681  1.2580 -3.5182
  631MOL0     H85181   6.950  10.230   1.400 -2.3368  0.9078  0.1051
  631MOL0     H85182   6.701  10.238   1.845  0.9508  0.3404 -1.6076
  631MOL0     H85183   6.481  10.502   1.738  2.1711  1.2267  3.4695
  631MOL0     H85184   6.641  10.447   1.767 -2.9873  1.4657  4.1147
  631MOL0     H85185   6.560  10.419   1.609 -1.5409  3.1609 -0.6277
  632MOL0     O85186   7.969  10.930   7.144 -0.0870  0.1872 -0.0437
  632MOL0     C85187   8.021  10.849   7.063 -0.1049  0.0382 -0.2496
  632MOL0     O85188   8.146  10.789   7.066  0.3952  0.5856 -0.1744
  632MOL0     C85189   8.193  10.797   7.197  0.7630 -0.0625 -0.1599
  632MOL0     C85190   8.179  10.685   7.285  0.5066 -0.1089 -1.1355
  632MOL0     C85191   8.227  10.683   7.414  0.4453 -0.3454  0.0148
  632MOL0     C85192   8.274  10.797   7.468  0.8104  0.1715  0.3322
  632MOL0     O85193   8.321  10.800   7.587  0.5230  0.1055 -0.4058
  632MOL0     C85194   8.268  10.712   7.690  0.4634 -0.1281 -0.3763
  632MOL0     C85195   8.313  10.746   7.832  0.3008 -0.5724 -0.2819
  632MOL0     C85196   8.242  10.653   7.940  0.5790  0.0290  0.6104
  632MOL0     C85197   8.161  10.728   8.055  0.6109 -0.0549  0.3384
  632MOL0     C85198   8.126  10.647   8.174 -0.3423  0.0292  1.0644
  632MOL0     C85199   8.248  10.581   8.231 -0.3889  0.4750  0.7069
  632MOL0     C85200   8.252  10.537   8.379  0.1644  0.3839 -0.5545
  632MOL0     C85201   8.384  10.495   8.438 -0.5207  0.0906 -0.4638
  632MOL0     N85202   8.443  10.385   8.362 -0.1516  0.1840  0.2764
  632MOL0     C85203   8.541  10.384   8.269 -0.3293  0.6130 -0.2021
  632MOL0     C85204   8.557  10.255   8.228 -0.9870  0.5012 -0.0314
  632MOL0     C85205   8.655  10.203   8.128  0.7290  0.2993 -0.1372
  632MOL0     C85206   8.769  10.107   8.185 -0.3412  0.6450 -0.5848
  632MOL0     C85207   8.821  10.166   8.321 -0.4756  0.0724 -0.3803
  632MOL0     C85208   8.951  10.098   8.362 -0.5739 -0.9805 -0.7012
  632MOL0     O85209   8.948   9.967   8.365  0.0493  0.4233 -0.0828
  632MOL0     C85210   9.060   9.901   8.421 -0.3843  0.2722  0.3915
  632MOL0     C85211   9.044   9.762   8.410  1.0515 -0.7223 -0.4322
  632MOL0     C85212   9.149   9.676   8.453  0.7178 -0.1780  0.3644
  632MOL0     C85213   9.273   9.729   8.492  0.8757 -0.6982 -0.4592
  632MOL0     C85214   9.375   9.643   8.552 -1.0895 -0.1259  0.8138
  632MOL0     O85215   9.476   9.707   8.616  0.1221 -0.4245 -0.2660
  632MOL0     C85216   9.598   9.636   8.638 -0.2924  0.5593 -0.3498
  632MOL0     C85217   9.665   9.562   8.547  0.3240 -0.6125  0.3153
  632MOL0     C85218   9.784   9.497   8.574  0.5420 -0.1476 -0.5856
  632MOL0     C85219   9.845   9.524   8.697  0.3715  0.1873 -0.2561
  632MOL0     O85220   9.958   9.445   8.732  0.7216 -0.3004  0.0140
  632MOL0     C85221  10.040   9.479   8.845  0.7371 -0.2369 -0.4787
  632MOL0     C85222  10.185   9.501   8.803  0.6894  0.7801  0.7601
  632MOL0     C85223  10.271   9.375   8.771  0.8582 -0.6129 -0.5997
  632MOL0     C85224  10.409   9.412   8.719  0.5092 -0.6076 -0.2849
  632MOL0     C85225  10.486   9.282   8.679  0.0622  0.6497  0.4764
  632MOL0     C85226  10.565   9.201   8.784 -1.2295  0.4013 -0.6072
  632MOL0     C85227  10.663   9.093   8.730 -0.5715 -0.1219 -0.1702
  632MOL0     C85228  10.586   8.966   8.686 -0.3038 -0.1453  0.4655
  632MOL0    Cl85229  10.513   8.883   8.832  0.1271  0.0820 -0.0762
  632MOL0     C85230   9.768   9.591   8.796 -1.1032 -0.4966  0.5082
  632MOL0     C85231   9.643   9.643   8.768  0.8914 -0.3571 -0.1062
  632MOL0     O85232   9.367   9.521   8.536  0.0369 -0.3490  0.6634
  632MOL0     C85233   9.286   9.869   8.498  0.5511  0.3614  0.1652
  632MOL0     C85234   9.181   9.961   8.460  0.0624  0.3531 -0.4641
  632MOL0     N85235   8.471  10.173   8.292 -1.1927  0.3788  1.0721
  632MOL0     N85236   8.405  10.252   8.374  0.0367  0.5952  0.5443
  632MOL0     C85237   8.287  10.915   7.388 -0.0870  0.6724  0.3737
  632MOL0     C85238   8.252  10.910   7.251 -0.2019 -0.2977  0.1581
  632MOL0     C85239   7.919  10.813   6.967 -0.0356 -0.6417  1.1464
  632MOL0     C85240   7.821  10.718   6.998  0.5028 -0.3276 -0.2072
  632MOL0     C85241   7.723  10.678   6.906 -0.0776  0.4347  0.7169
  632MOL0     C85242   7.739  10.713   6.771 -1.1427 -0.7001  0.9899
  632MOL0     O85243   7.654  10.653   6.679 -0.1257 -0.0008  0.2541
  632MOL0     C85244   7.703  10.653   6.543 -0.2220  0.3570 -0.8533
  632MOL0     C85245   7.638  10.531   6.488  0.4067 -0.0871 -0.2964
  632MOL0     C85246   7.693  10.482   6.354  0.4358  0.5404 -0.1936
  632MOL0     C85247   7.845  10.456   6.366  0.1945  1.0673 -0.7277
  632MOL0     C85248   7.895  10.353   6.267  0.9099 -0.5916  0.5335
  632MOL0     C85249   7.914  10.264   6.194 -0.1506 -1.3312  1.2744
  632MOL0     C85250   7.845  10.798   6.738  0.4953  0.4393 -0.4279
  632MOL0     C85251   7.939  10.849   6.832 -0.9098  0.2845  0.6765
  632MOL0     C85252   8.047  10.939   6.782  0.4115 -0.0436 -0.2191
  632MOL0     H85253   8.119  10.605   7.241 -3.6682  0.0111  3.4481
  632MOL0     H85254   8.228  10.589   7.468 -2.0644  0.8706  2.4216
  632MOL0     H85255   8.159  10.707   7.686  0.2949  2.4961 -3.6117
  632MOL0     H85256   8.311  10.613   7.672  0.0177 -0.5809  0.9474
  632MOL0     H85257   8.281  10.850   7.836 -3.8535 -1.6237 -1.7672
  632MOL0     H85258   8.422  10.745   7.836  0.3565  0.6918 -1.1016
  632MOL0     H85259   8.311  10.578   7.980 -1.4653 -0.8532  2.7155
  632MOL0     H85260   8.167  10.593   7.887  1.9921 -0.2136 -1.2100
  632MOL0     H85261   8.215  10.818   8.084 -1.1617  0.7789  1.2524
  632MOL0     H85262   8.070  10.781   8.025 -0.8828 -0.6709  3.3952
  632MOL0     H85263   8.077  10.707   8.251 -0.9388 -0.0078  0.7213
  632MOL0     H85264   8.051  10.575   8.141 -1.9095  2.4502 -1.0597
  632MOL0     H85265   8.265  10.487   8.178 -0.9132  0.8819 -0.2045
  632MOL0     H85266   8.327  10.655   8.216  0.5964 -0.6321  0.2564
  632MOL0     H85267   8.183  10.455   8.399  1.0762 -1.0067 -2.7131
  632MOL0     H85268   8.220  10.623   8.438 -2.2637 -1.0260  0.3229
  632MOL0     H85269   8.455  10.577   8.426  0.0294 -0.6387 -3.0122
  632MOL0     H85270   8.375  10.463   8.542  0.6087 -0.7634 -0.6090
  632MOL0     H85271   8.604  10.465   8.232  1.7227  0.3344  2.3317
  632MOL0     H85272   8.593  10.147   8.058 -1.3049  0.2934  1.5976
  632MOL0     H85273   8.703  10.284   8.072  1.9205 -1.2280 -1.4238
  632MOL0     H85274   8.731  10.006   8.201 -1.8300  1.4320  1.2284
  632MOL0     H85275   8.863  10.100   8.130  0.1004 -1.6626  0.3526
  632MOL0     H85276   8.748  10.166   8.402  1.0238 -0.5888  1.0370
  632MOL0     H85277   8.840  10.274   8.317  0.4931  0.0424  1.7607
  632MOL0     H85278   8.968  10.145   8.459  0.0311  1.5838 -1.9350
  632MOL0     H85279   9.034  10.119   8.294 -0.2654 -0.2320 -0.1073
  632MOL0     H85280   8.958   9.713   8.365  1.4282 -2.1493  0.3143
  632MOL0     H85281   9.140   9.572   8.425 -2.8734 -0.3865  1.8059
  632MOL0     H85282   9.618   9.559   8.450  1.6001 -2.4794 -0.3041
  632MOL0     H85283   9.843   9.431   8.510  3.2034  2.6025 -1.2289
  632MOL0     H85284  10.013   9.570   8.898  1.2615 -0.1684 -0.3241
  632MOL0     H85285  10.022   9.394   8.911 -2.4092  1.7553  1.4464
  632MOL0     H85286  10.178   9.557   8.710  2.6020  1.4373  0.9748
  632MOL0     H85287  10.235   9.565   8.876 -0.2513 -0.7664  2.8720
  632MOL0     H85288  10.277   9.315   8.862  1.6687 -2.5731 -1.8941
  632MOL0     H85289  10.221   9.323   8.689  0.6298  3.0603 -3.0342
  632MOL0     H85290  10.471   9.475   8.781  0.5695 -3.2624  2.5810
  632MOL0     H85291  10.391   9.488   8.642  3.4188  0.9374  0.4208
  632MOL0     H85292  10.570   9.300   8.611  1.8372  1.0349  2.6500
  632MOL0     H85293  10.416   9.221   8.622  1.3633  1.9400 -2.7237
  632MOL0     H85294  10.628   9.276   8.833  2.2267 -1.8690 -1.2247
  632MOL0     H85295  10.503   9.150   8.858 -0.7469  0.5237 -0.1184
  632MOL0     H85296  10.727   9.054   8.810 -2.0489 -1.1454  0.5671
  632MOL0     H85297  10.720   9.131   8.645 -0.8771  0.7021 -0.0105
  632MOL0     H85298  10.500   9.006   8.632 -1.4371  1.0426  2.9735
  632MOL0     H85299  10.633   8.892   8.620 -2.2053  0.4491 -1.6981
  632MOL0     H85300   9.798   9.599   8.900 -0.3743  2.1945  0.1600
  632MOL0     H85301   9.580   9.693   8.841 -2.7898 -2.4296 -1.6047
  632MOL0     H85302   9.379   9.910   8.534  1.2935 -1.3138  0.2502
  632MOL0     H85303   9.208  10.066   8.474 -2.3710  0.8972  0.8590
  632MOL0     H85304   8.337  11.004   7.427 -0.2984  0.8468  0.2470
  632MOL0     H85305   8.258  10.996   7.186 -0.8565 -1.5773 -1.6683
  632MOL0     H85306   7.810  10.679   7.099 -2.4185 -3.1974 -1.4488
  632MOL0     H85307   7.641  10.612   6.934 -2.8482  2.8029 -1.3148
  632MOL0     H85308   7.811  10.650   6.523  0.3823  1.5583  1.7051
  632MOL0     H85309   7.667  10.738   6.484  1.7767 -0.0742 -2.8416
  632MOL0     H85310   7.531  10.550   6.479  0.4385  0.3261  0.1148
  632MOL0     H85311   7.658  10.450   6.559  2.0853 -0.3079 -0.9611
  632MOL0     H85312   7.664  10.546   6.271  0.2422 -0.0249 -0.5732
  632MOL0     H85313   7.635  10.396   6.319  0.1577  1.4804 -2.1319
  632MOL0     H85314   7.890  10.555   6.350 -1.4923  1.6721 -2.1093
  632MOL0     H85315   7.876  10.420   6.464  0.6643  3.0392 -0.0959
  632MOL0     H85316   7.957  10.205   6.115 -0.2115  1.9822 -1.4882
  632MOL0     H85317   7.849  10.836   6.637 -1.2822  0.3751 -0.5601
  632MOL0     H85318   8.031  11.042   6.814  2.7094 -0.3402  2.2539
  632MOL0     H85319   8.146  10.923   6.826  1.0653  3.1693 -0.2764
  632MOL0     H85320   8.060  10.944   6.673  1.2482  1.9939 -0.0694
  633MOL0     O85321   2.720   1.468   7.805  0.2683 -0.1640  0.5945
  633MOL0     C85322   2.714   1.353   7.765  0.0087  0.1004  1.1548
  633MOL0     O85323   2.747   1.246   7.834 -0.5890 -0.7954 -0.4785
  633MOL0     C85324   2.833   1.263   7.934 -1.4121  0.3889 -0.5800
  633MOL0     C85325   2.965   1.240   7.909  0.0408  0.8082  0.5757
  633MOL0     C85326   3.062   1.244   8.010 -0.1328 -0.2931  0.2857
  633MOL0     C85327   3.025   1.284   8.140 -0.2546  0.0717 -0.7395
  633MOL0     O85328   3.115   1.286   8.248  0.8053 -0.3564  0.2233
  633MOL0     C85329   3.254   1.275   8.226  0.6400  0.3132 -0.0841
  633MOL0     C85330   3.307   1.135   8.247  0.7024  0.0867  0.1791
  633MOL0     C85331   3.457   1.131   8.235  0.8209 -0.0171 -0.3950
  633MOL0     C85332   3.491   0.998   8.183  0.0144  0.1746 -0.4404
  633MOL0     C85333   3.637   0.993   8.162 -0.5362  0.7875 -0.5188
  633MOL0     C85334   3.672   0.843   8.130 -0.7652  0.2517  0.4061
  633MOL0     C85335   3.817   0.827   8.136  0.0322 -0.4822 -0.2198
  633MOL0     C85336   3.891   0.820   8.001  0.2079 -0.2771  0.8133
  633MOL0     N85337   3.896   0.950   7.937 -0.4962  0.7546 -0.0429
  633MOL0     C85338   3.997   1.050   7.942 -0.6601  0.1884 -0.0581
  633MOL0     C85339   3.960   1.142   7.854 -0.8843 -0.5314  0.0308
  633MOL0     C85340   4.039   1.264   7.818  0.2887  0.2484 -0.0991
  633MOL0     C85341   4.056   1.280   7.668 -0.1613  0.0615 -0.8137
  633MOL0     C85342   4.136   1.396   7.604  0.7145 -0.0072 -0.3692
  633MOL0     C85343   4.158   1.510   7.707 -0.0501 -0.0958  0.1043
  633MOL0     O85344   4.256   1.585   7.644 -0.3665 -0.3960  0.0218
  633MOL0     C85345   4.286   1.716   7.684  0.7430 -0.7279 -0.9713
  633MOL0     C85346   4.422   1.740   7.673  0.4822 -0.7937 -0.9691
  633MOL0     C85347   4.482   1.863   7.716 -0.3834 -0.0596  0.8956
  633MOL0     C85348   4.395   1.969   7.745 -0.5060  1.0447  0.4608
  633MOL0     C85349   4.450   2.102   7.767 -0.1808  0.7448  0.5982
  633MOL0     O85350   4.581   2.120   7.768  0.1899  0.1119  0.7826
  633MOL0     C85351   4.631   2.244   7.805  0.2244 -0.4283  0.1545
  633MOL0     C85352   4.614   2.309   7.926 -0.8761  0.1749  0.0139
  633MOL0     C85353   4.678   2.426   7.964  0.9150  0.4366  0.3901
  633MOL0     C85354   4.781   2.483   7.881 -0.0105 -0.2475  0.1508
  633MOL0     O85355   4.852   2.603   7.907 -0.2950 -0.2565  0.0309
  633MOL0     C85356   4.822   2.677   8.030 -0.3897  0.2814 -0.7084
  633MOL0     C85357   4.911   2.805   8.024 -1.5286  0.5557 -0.0540
  633MOL0     C85358   4.907   2.860   8.166  0.9623 -0.5329 -0.4008
  633MOL0     C85359   4.967   3.002   8.183  0.9463  0.3888  0.3718
  633MOL0     C85360   4.962   3.032   8.338  0.4986 -0.1078  0.2336
  633MOL0     C85361   5.027   3.169   8.365 -0.6002 -0.0083  0.8764
  633MOL0     C85362   5.025   3.210   8.519 -0.4707 -0.0554 -0.0975
  633MOL0     C85363   5.126   3.313   8.569 -0.3165 -0.4066  0.9065
  633MOL0    Cl85364   5.297   3.264   8.542  0.0027  0.5749 -0.1777
  633MOL0     C85365   4.792   2.424   7.750  0.6282 -0.2056  1.3201
  633MOL0     C85366   4.723   2.305   7.719 -0.8457 -0.0439  0.9691
  633MOL0     O85367   4.365   2.191   7.797 -0.2107  0.4960 -0.2048
  633MOL0     C85368   4.255   1.944   7.747 -0.4754 -0.8768 -0.4202
  633MOL0     C85369   4.200   1.825   7.710 -0.4714  0.2375 -0.0087
  633MOL0     N85370   3.838   1.112   7.801  0.1132  0.8204  0.1718
  633MOL0     N85371   3.802   0.995   7.850 -0.1135 -0.6530  0.1749
  633MOL0     C85372   2.888   1.301   8.172 -0.0123 -0.0346 -0.0754
  633MOL0     C85373   2.797   1.284   8.070  0.1051  0.2328  0.6355
  633MOL0     C85374   2.658   1.324   7.628  0.4763 -0.5010 -0.0751
  633MOL0     C85375   2.613   1.193   7.593  0.3061  0.2667 -0.7969
  633MOL0     C85376   2.553   1.159   7.474 -0.1275 -0.5058  0.1206
  633MOL0     C85377   2.521   1.257   7.384  0.0041 -0.7045  0.5689
  633MOL0     O85378   2.453   1.218   7.273 -0.0809  0.4397  0.3408
  633MOL0     C85379   2.422   1.310   7.175 -0.5838  0.1135 -0.1622
  633MOL0     C85380   2.359   1.243   7.056  0.2553 -1.3621 -0.4263
  633MOL0     C85381   2.215   1.189   7.095  0.0238  0.4830  1.2258
  633MOL0     C85382   2.195   1.040   7.101 -0.2255  0.8766 -0.5768
  633MOL0     C85383   2.276   0.967   7.207  0.1620 -0.2907  0.1402
  633MOL0     C85384   2.321   0.929   7.312  0.5841  0.7773 -0.1483
  633MOL0     C85385   2.562   1.394   7.408 -0.4431 -0.2738  0.6749
  633MOL0     C85386   2.640   1.426   7.525  0.2920  0.5717  0.2060
  633MOL0     C85387   2.684   1.566   7.525  0.2418  0.1349 -0.4546
  633MOL0     H85388   2.999   1.219   7.808 -0.9077  0.5389  0.3000
  633MOL0     H85389   3.167   1.223   7.992  0.0018 -0.7924  1.5168
  633MOL0     H85390   3.286   1.322   8.133  5.6552 -2.1092  0.0810
  633MOL0     H85391   3.306   1.318   8.312  2.5993 -0.9124 -0.5904
  633MOL0     H85392   3.265   1.067   8.171  1.7928  0.2418 -0.5863
  633MOL0     H85393   3.266   1.091   8.338  0.0936 -0.8738 -0.5331
  633MOL0     H85394   3.505   1.166   8.327  0.7579  0.8868 -0.6950
  633MOL0     H85395   3.485   1.205   8.159  3.0765 -1.0749 -0.6568
  633MOL0     H85396   3.463   0.924   8.258 -0.2146  0.9096  0.2059
  633MOL0     H85397   3.426   0.983   8.096 -2.9417  1.5169  1.3703
  633MOL0     H85398   3.668   1.078   8.102 -2.2426  2.3746  0.7322
  633MOL0     H85399   3.684   1.021   8.256 -0.3397 -1.4013  0.1072
  633MOL0     H85400   3.619   0.773   8.194 -0.0780 -0.7431 -0.0922
  633MOL0     H85401   3.632   0.823   8.030  1.2141  1.2621 -0.6758
  633MOL0     H85402   3.832   0.749   8.211 -1.5110 -0.9592 -0.3787
  633MOL0     H85403   3.868   0.912   8.182  1.5609  0.1137 -2.8009
  633MOL0     H85404   3.992   0.788   8.028  0.2272  0.2339  1.3558
  633MOL0     H85405   3.848   0.741   7.938 -1.8038  1.5868 -0.3070
  633MOL0     H85406   4.086   1.061   8.004  0.9162  3.8368 -2.6279
  633MOL0     H85407   3.985   1.351   7.857  1.4827  2.3729 -2.8068
  633MOL0     H85408   4.136   1.259   7.868 -0.7589  1.3609  2.1950
  633MOL0     H85409   4.118   1.194   7.642 -1.2100 -2.0595  2.9158
  633MOL0     H85410   3.956   1.270   7.627 -0.8504  1.5631  0.3883
  633MOL0     H85411   4.091   1.427   7.509  0.1929  0.2455 -0.0464
  633MOL0     H85412   4.235   1.364   7.574 -0.6635 -1.5919 -3.7386
  633MOL0     H85413   4.184   1.466   7.804  4.0726  1.3275 -0.1815
  633MOL0     H85414   4.073   1.579   7.719  0.2133  0.1225  0.7666
  633MOL0     H85415   4.479   1.656   7.634 -2.0031 -2.3752 -1.4914
  633MOL0     H85416   4.590   1.874   7.717 -0.5202  1.9264  0.0906
  633MOL0     H85417   4.541   2.265   7.994  1.6567 -0.5062  2.4876
  633MOL0     H85418   4.657   2.464   8.063  0.5472 -0.1612  0.5475
  633MOL0     H85419   4.716   2.698   8.047 -0.1153  2.5251 -1.4480
  633MOL0     H85420   4.851   2.605   8.106  1.2143  0.6523 -0.9323
  633MOL0     H85421   5.012   2.776   7.993 -1.6182 -2.2756  1.9127
  633MOL0     H85422   4.864   2.876   7.955 -0.2022  0.1371 -1.4548
  633MOL0     H85423   4.801   2.870   8.189  1.5115  1.5177  1.6966
  633MOL0     H85424   4.942   2.786   8.238 -0.2078 -1.4254 -0.7122
  633MOL0     H85425   4.913   3.076   8.123  1.8136 -0.7299 -1.8767
  633MOL0     H85426   5.069   2.999   8.145  0.7633 -3.6099 -0.2391
  633MOL0     H85427   5.009   2.942   8.380 -0.9989 -0.9075  0.2776
  633MOL0     H85428   4.861   3.033   8.381  0.4013 -0.0251  0.0081
  633MOL0     H85429   5.130   3.166   8.329  0.2053  1.8568  2.8437
  633MOL0     H85430   4.982   3.249   8.306  4.9194  3.7186  0.9619
  633MOL0     H85431   5.045   3.120   8.579  0.5454  1.1568  1.4548
  633MOL0     H85432   4.926   3.249   8.543  0.2770 -0.0916  3.6100
  633MOL0     H85433   5.107   3.407   8.517 -4.4668 -1.1917  0.6851
  633MOL0     H85434   5.109   3.338   8.674 -0.8340  0.3310  0.6497
  633MOL0     H85435   4.863   2.466   7.678 -2.7185  0.8263 -1.6695
  633MOL0     H85436   4.733   2.266   7.618 -2.7552  2.3916 -0.2713
  633MOL0     H85437   4.184   2.023   7.769  1.8872  1.4190 -0.5138
  633MOL0     H85438   4.093   1.811   7.700 -0.6666  1.1615  0.6854
  633MOL0     H85439   2.845   1.323   8.269  0.1576 -1.5843  0.3729
  633MOL0     H85440   2.693   1.311   8.084 -0.1393 -0.2624 -0.1626
  633MOL0     H85441   2.620   1.118   7.671 -3.3545  1.9498  1.4487
  633MOL0     H85442   2.515   1.059   7.455 -0.5968 -0.4784  0.8600
  633MOL0     H85443   2.516   1.353   7.138 -1.6817  0.7276 -2.3764
  633MOL0     H85444   2.367   1.401   7.202 -0.5747  0.7585 -2.1726
  633MOL0     H85445   2.430   1.166   7.024  0.8977  0.0749 -2.7068
  633MOL0     H85446   2.356   1.311   6.970  2.9164 -0.2501  0.2364
  633MOL0     H85447   2.141   1.236   7.031  2.6083  0.3396 -2.1470
  633MOL0     H85448   2.197   1.225   7.197  0.2679  1.6447  0.8708
  633MOL0     H85449   2.092   1.018   7.129  0.2365  0.5345  0.9537
  633MOL0     H85450   2.219   1.007   6.999  1.9490  2.2705 -0.5789
  633MOL0     H85451   2.354   0.897   7.409 -0.1745  3.2577  1.0001
  633MOL0     H85452   2.552   1.472   7.333  1.1947  0.4765  1.1866
  633MOL0     H85453   2.666   1.629   7.438  0.1843  1.8004  0.7057
  633MOL0     H85454   2.630   1.624   7.601  1.0711 -0.5695  0.7247
  633MOL0     H85455   2.789   1.567   7.556 -0.2964  0.9667  1.4915
  634MOL0     O85456   5.456   6.636   0.581 -0.1003  0.1225  0.2489
  634MOL0     C85457   5.485   6.679   0.470  0.1005  0.3135  0.7943
  634MOL0     O85458   5.394   6.700   0.374 -0.3308  0.0614  0.3518
  634MOL0     C85459   5.259   6.697   0.393 -0.6158 -0.2284 -1.3995
  634MOL0     C85460   5.177   6.618   0.317  0.6157 -0.6520 -0.1251
  634MOL0     C85461   5.035   6.625   0.325 -0.7524  0.4327 -0.6861
  634MOL0     C85462   4.976   6.713   0.423  0.7126  0.2794 -0.2574
  634MOL0     O85463   4.842   6.708   0.441  0.5555 -0.4674 -0.4340
  634MOL0     C85464   4.768   6.802   0.359  0.4601 -0.3978  0.3938
  634MOL0     C85465   4.624   6.804   0.416 -0.9630  0.3528  0.4732
  634MOL0     C85466   4.536   6.870   0.304 -0.8443 -0.1825 -0.3885
  634MOL0     C85467   4.415   6.912   0.387 -0.8016 -0.6426 -0.0555
  634MOL0     C85468   4.318   6.966   0.290  0.0221 -0.2660 -0.2001
  634MOL0     C85469   4.259   6.867   0.186 -0.7145 -0.5409 -0.1038
  634MOL0     C85470   4.138   6.930   0.108 -0.3995  0.3536  0.5026
  634MOL0     C85471   4.072   6.823   0.011 -0.2635  0.2728 -0.3335
  634MOL0     N85472   3.934   6.845  -0.035  0.1556  0.5843 -0.3754
  634MOL0     C85473   3.889   6.959  -0.096  0.5805  0.6312  0.8679
  634MOL0     C85474   3.756   6.942  -0.121  0.2608  0.0063 -0.2769
  634MOL0     C85475   3.682   7.047  -0.212 -0.1088  0.7748  0.1876
  634MOL0     C85476   3.539   7.075  -0.173  0.3503 -0.0517  0.2239
  634MOL0     C85477   3.483   7.219  -0.205  0.5512 -0.4889  0.4116
  634MOL0     C85478   3.441   7.293  -0.076 -0.6476 -0.2443 -0.0916
  634MOL0     O85479   3.339   7.231   0.003  0.2339  0.8392 -0.8790
  634MOL0     C85480   3.203   7.240  -0.022  0.7190  0.2364 -0.1082
  634MOL0     C85481   3.109   7.157   0.048 -1.1341  0.0320  0.1491
  634MOL0     C85482   2.975   7.172   0.013 -0.7337  0.2495  0.5225
  634MOL0     C85483   2.932   7.248  -0.099  0.2497 -0.1458  1.1476
  634MOL0     C85484   2.776   7.254  -0.123  0.2321 -0.0940  0.1551
  634MOL0     O85485   2.723   7.361  -0.191  0.0806 -0.2123  0.0465
  634MOL0     C85486   2.596   7.337  -0.240 -0.2369  0.3867 -0.1687
  634MOL0     C85487   2.581   7.287  -0.369  0.5090 -0.5435 -0.9579
  634MOL0     C85488   2.449   7.255  -0.417 -0.3518  0.7897  0.0358
  634MOL0     C85489   2.336   7.275  -0.339  0.0417 -0.1089  0.2637
  634MOL0     O85490   2.210   7.248  -0.388  0.4377 -0.1213 -0.1143
  634MOL0     C85491   2.175   7.289  -0.517  0.0269 -0.3470  0.1869
  634MOL0     C85492   2.098   7.421  -0.517 -0.6999 -0.3463  0.7389
  634MOL0     C85493   2.197   7.528  -0.533 -0.5585  0.4680  0.3171
  634MOL0     C85494   2.139   7.668  -0.521 -0.8818 -0.4778  0.2613
  634MOL0     C85495   2.233   7.756  -0.588  0.0565 -0.3666 -0.6954
  634MOL0     C85496   2.189   7.902  -0.568 -0.7270 -0.5453  0.1835
  634MOL0     C85497   2.242   8.009  -0.669 -0.1970 -0.1796  0.1333
  634MOL0     C85498   2.187   8.141  -0.639  0.6431 -0.2940  0.0090
  634MOL0    Cl85499   2.313   8.234  -0.548  0.1478 -0.3986  0.1043
  634MOL0     C85500   2.349   7.331  -0.210 -0.4515 -0.4448  0.9936
  634MOL0     C85501   2.480   7.370  -0.164  0.7599  0.3809  0.0195
  634MOL0     O85502   2.711   7.164  -0.075 -0.0533 -0.0772  0.4481
  634MOL0     C85503   3.028   7.322  -0.167  0.2640 -0.2968 -0.4093
  634MOL0     C85504   3.161   7.318  -0.122 -0.0976  0.1941 -0.5266
  634MOL0     N85505   3.716   6.830  -0.060  0.5324 -0.4956  0.2687
  634MOL0     N85506   3.820   6.768  -0.011 -0.0047  0.4011 -0.5166
  634MOL0     C85507   5.063   6.790   0.504 -0.1438 -0.7576 -0.2900
  634MOL0     C85508   5.204   6.779   0.493 -0.5956 -0.1665 -0.8631
  634MOL0     C85509   5.631   6.713   0.445 -0.1241 -0.0388 -0.1869
  634MOL0     C85510   5.711   6.709   0.559  0.0970 -0.7082 -0.3747
  634MOL0     C85511   5.846   6.746   0.550 -0.1397 -0.5701 -0.4587
  634MOL0     C85512   5.908   6.801   0.422  0.6210  0.3513  0.3701
  634MOL0     O85513   6.033   6.846   0.406  0.0897 -0.1826  0.1104
  634MOL0     C85514   6.087   6.933   0.497  0.2978  0.7043  0.3242
  634MOL0     C85515   6.006   7.056   0.533 -0.8363 -0.4387  0.1868
  634MOL0     C85516   5.957   7.118   0.402  0.2391  1.1358 -0.0439
  634MOL0     C85517   5.887   7.254   0.414 -0.5003 -0.4769  0.2230
  634MOL0     C85518   5.818   7.276   0.283 -0.2051  0.3207 -0.6601
  634MOL0     C85519   5.743   7.291   0.193  0.6905 -1.2412  0.5436
  634MOL0     C85520   5.826   6.783   0.302 -1.1792  0.2564 -0.2501
  634MOL0     C85521   5.683   6.751   0.318 -0.4558  0.1482  0.0507
  634MOL0     C85522   5.616   6.759   0.185 -0.2280  0.1724  1.0045
  634MOL0     H85523   5.222   6.559   0.237 -3.5150  0.8955 -4.0725
  634MOL0     H85524   4.970   6.568   0.260  0.1465 -0.0263 -1.1989
  634MOL0     H85525   4.817   6.899   0.351 -1.5932  0.6052 -0.7448
  634MOL0     H85526   4.772   6.762   0.258  1.2024 -0.9189  0.6186
  634MOL0     H85527   4.613   6.848   0.516 -2.3881 -0.6619  0.8013
  634MOL0     H85528   4.595   6.699   0.424  2.6251 -0.7725  0.4548
  634MOL0     H85529   4.516   6.791   0.232 -0.0681 -1.6573  0.9656
  634MOL0     H85530   4.589   6.955   0.259 -0.1741  0.5027  1.5663
  634MOL0     H85531   4.376   6.817   0.425  0.0032 -1.6551 -1.6170
  634MOL0     H85532   4.447   6.989   0.457  1.7397  0.3494 -2.1175
  634MOL0     H85533   4.234   7.006   0.348  1.3228  0.3314  1.3361
  634MOL0     H85534   4.364   7.055   0.246 -0.7638 -0.7821 -2.1656
  634MOL0     H85535   4.331   6.845   0.107  0.4582  0.1553  0.7314
  634MOL0     H85536   4.221   6.778   0.237  2.6003 -1.5504  0.8380
  634MOL0     H85537   4.181   7.016   0.056 -2.0887  1.1196  0.2956
  634MOL0     H85538   4.054   6.960   0.171 -1.4334 -1.9350  0.3247
  634MOL0     H85539   4.138   6.805  -0.074 -1.2093 -2.5607 -0.5905
  634MOL0     H85540   4.065   6.729   0.066 -2.9924 -0.0398 -1.0691
  634MOL0     H85541   3.941   7.048  -0.128 -1.2346  0.4568 -3.0667
  634MOL0     H85542   3.734   7.143  -0.216 -0.2076  0.7894 -1.1135
  634MOL0     H85543   3.676   7.003  -0.312  0.6094  1.8124 -0.3196
  634MOL0     H85544   3.475   7.003  -0.224  1.5126 -0.6208 -0.4572
  634MOL0     H85545   3.522   7.055  -0.067  2.1977  1.9243  0.9667
  634MOL0     H85546   3.405   7.204  -0.280  3.3476 -1.9751 -2.4469
  634MOL0     H85547   3.558   7.285  -0.249 -0.9790  1.0458  0.0134
  634MOL0     H85548   3.404   7.395  -0.087 -1.4571 -0.3768  1.2223
  634MOL0     H85549   3.528   7.308  -0.012 -1.9347  0.0739  1.6423
  634MOL0     H85550   3.148   7.087   0.121 -0.8204  2.6325  2.6646
  634MOL0     H85551   2.898   7.123   0.071 -4.4844  3.9381 -0.8395
  634MOL0     H85552   2.668   7.274  -0.433  0.6644  0.9410 -1.0819
  634MOL0     H85553   2.445   7.204  -0.514  0.8408  1.1298 -0.2027
  634MOL0     H85554   2.259   7.297  -0.587  0.8044  2.5158  1.3126
  634MOL0     H85555   2.102   7.214  -0.552 -2.7824  0.9189  2.8165
  634MOL0     H85556   2.020   7.423  -0.593 -1.7717  3.2086  1.7205
  634MOL0     H85557   2.066   7.441  -0.414 -2.0276  1.7109 -0.0062
  634MOL0     H85558   2.273   7.515  -0.456 -0.0172 -0.4431 -0.3517
  634MOL0     H85559   2.236   7.522  -0.635  0.1900 -0.6088  0.6518
  634MOL0     H85560   2.129   7.707  -0.419  2.5789  1.8840 -0.1041
  634MOL0     H85561   2.041   7.671  -0.567 -2.1678  0.0593  2.8448
  634MOL0     H85562   2.242   7.746  -0.697  1.1489  0.3453 -0.6928
  634MOL0     H85563   2.334   7.748  -0.546 -0.7804  1.5889  1.9860
  634MOL0     H85564   2.080   7.908  -0.574 -0.6061  0.3458 -1.5096
  634MOL0     H85565   2.225   7.924  -0.467  0.1578 -2.2759  0.2900
  634MOL0     H85566   2.201   7.982  -0.767  1.2423 -2.8322  0.1892
  634MOL0     H85567   2.351   8.009  -0.681  0.2586  1.8314  3.1663
  634MOL0     H85568   2.154   8.178  -0.736 -0.6559 -0.9811  0.1699
  634MOL0     H85569   2.100   8.143  -0.574  2.9860  2.4773  3.4744
  634MOL0     H85570   2.269   7.353  -0.140 -0.0152  1.2729  0.9956
  634MOL0     H85571   2.495   7.418  -0.068 -0.9486  2.6545 -0.7517
  634MOL0     H85572   3.011   7.389  -0.250  3.0902  0.2798 -0.6376
  634MOL0     H85573   3.227   7.359  -0.198 -2.5638  0.6542 -2.5503
  634MOL0     H85574   5.020   6.855   0.579  1.1848 -0.0433 -0.1103
  634MOL0     H85575   5.274   6.842   0.547 -0.9124 -0.9472  0.5089
  634MOL0     H85576   5.678   6.662   0.651  1.4416 -0.9665  0.0040
  634MOL0     H85577   5.908   6.750   0.639 -1.1318  0.5040  0.2234
  634MOL0     H85578   6.186   6.958   0.458  0.2642  2.4399  1.2713
  634MOL0     H85579   6.109   6.877   0.589  4.8801  1.6478  0.0370
  634MOL0     H85580   6.056   7.126   0.601 -0.0581 -0.8956  0.0999
  634MOL0     H85581   5.926   7.018   0.597  0.5120  0.6598  2.6690
  634MOL0     H85582   5.888   7.053   0.349 -0.7654  3.8338 -2.2452
  634MOL0     H85583   6.043   7.129   0.336  1.1287  0.7885  1.0084
  634MOL0     H85584   5.810   7.258   0.491 -0.6503 -0.6408  0.0842
  634MOL0     H85585   5.964   7.330   0.424 -3.2690  2.3255  2.0613
  634MOL0     H85586   5.673   7.292   0.112 -2.4976  2.5021  2.9338
  634MOL0     H85587   5.873   6.814   0.209  2.1064  0.1886  1.2419
  634MOL0     H85588   5.567   6.664   0.162 -0.8485  0.6175  0.4897
  634MOL0     H85589   5.543   6.839   0.191  0.0951  0.3704  2.9618
  634MOL0     H85590   5.684   6.776   0.101  1.5009 -1.2130  2.0433
  635MOL0     O85591   8.827   9.167   1.745 -0.5365 -0.4036 -0.5567
  635MOL0     C85592   8.904   9.071   1.775 -0.4056 -0.1437 -0.5859
  635MOL0     O85593   8.892   8.982   1.876 -0.2293  0.1602  0.8648
  635MOL0     C85594   8.796   8.986   1.966  0.3178  0.6570 -0.0547
  635MOL0     C85595   8.793   8.874   2.051  0.6412  0.7703  0.0392
  635MOL0     C85596   8.707   8.864   2.159 -0.3323 -0.4909 -0.3817
  635MOL0     C85597   8.603   8.958   2.175  0.3549 -0.1484  1.0525
  635MOL0     O85598   8.510   8.948   2.274 -0.5835  0.2144 -0.0807
  635MOL0     C85599   8.574   8.923   2.402 -0.1233  0.5497  1.4971
  635MOL0     C85600   8.475   8.954   2.512 -0.3354 -0.5049 -0.2725
  635MOL0     C85601   8.417   8.825   2.578  1.0304 -0.0372 -0.4257
  635MOL0     C85602   8.289   8.854   2.663 -0.7464 -0.6934  0.3218
  635MOL0     C85603   8.189   8.743   2.694 -1.3832  0.0386  0.2568
  635MOL0     C85604   8.052   8.792   2.740 -0.0549  0.4086 -0.4443
  635MOL0     C85605   8.038   8.880   2.865 -0.3727 -0.0234 -0.3921
  635MOL0     C85606   7.887   8.901   2.895  0.6422  0.3742 -0.1584
  635MOL0     N85607   7.866   8.988   3.016  0.6136 -0.3530  0.9195
  635MOL0     C85608   7.930   8.980   3.138 -1.2439  0.1772  0.4797
  635MOL0     C85609   7.893   9.088   3.211 -0.5905 -0.2302  0.8353
  635MOL0     C85610   7.940   9.120   3.352 -0.3075  0.2380 -1.3053
  635MOL0     C85611   7.840   9.076   3.466 -0.2723 -0.1625  0.2724
  635MOL0     C85612   7.808   8.931   3.447 -1.0780 -0.5210  0.4430
  635MOL0     C85613   7.720   8.900   3.564  0.0710 -0.3711 -0.3020
  635MOL0     O85614   7.582   8.956   3.546 -0.5291 -0.6051 -0.8087
  635MOL0     C85615   7.473   8.902   3.621  0.1246  0.2244 -0.3798
  635MOL0     C85616   7.338   8.932   3.580 -0.1666  0.3811  0.9102
  635MOL0     C85617   7.230   8.883   3.651 -0.5396  0.2909 -0.2169
  635MOL0     C85618   7.249   8.783   3.741  0.0896 -0.3414  0.3372
  635MOL0     C85619   7.125   8.722   3.796  0.2457 -0.0304 -0.9016
  635MOL0     O85620   7.141   8.599   3.840  0.2333  0.8442  0.5697
  635MOL0     C85621   7.049   8.527   3.919 -0.0220 -0.3812 -0.4516
  635MOL0     C85622   7.108   8.446   4.021  0.2623  0.1772  0.0467
  635MOL0     C85623   7.015   8.360   4.091  0.0480 -0.3857  0.3780
  635MOL0     C85624   6.874   8.357   4.077  0.6011 -0.0154 -0.2849
  635MOL0     O85625   6.801   8.277   4.166 -0.5473  0.2575  0.2155
  635MOL0     C85626   6.694   8.316   4.236 -0.6055  0.8838 -0.2118
  635MOL0     C85627   6.622   8.192   4.285 -0.1883 -0.1006  0.3737
  635MOL0     C85628   6.675   8.136   4.411 -0.3391  0.1609  0.6883
  635MOL0     C85629   6.824   8.099   4.401 -0.7496 -0.2918  0.0340
  635MOL0     C85630   6.915   8.218   4.468 -0.1641 -0.1823 -0.0733
  635MOL0     C85631   7.063   8.174   4.484 -0.0628 -0.0988 -0.8177
  635MOL0     C85632   7.157   8.287   4.550  0.1959 -0.4072 -0.5127
  635MOL0     C85633   7.299   8.274   4.507  0.4532 -0.6025 -0.1399
  635MOL0    Cl85634   7.385   8.388   4.606 -0.0170 -0.6042 -0.1038
  635MOL0     C85635   6.818   8.441   3.978 -0.3074 -0.2240  0.5827
  635MOL0     C85636   6.905   8.517   3.895 -0.1446 -0.5394  0.2585
  635MOL0     O85637   7.017   8.786   3.804  0.4969 -0.0706 -0.2575
  635MOL0     C85638   7.379   8.745   3.788 -0.0489  0.1317  0.3989
  635MOL0     C85639   7.488   8.814   3.736 -0.3138 -0.6397  0.1710
  635MOL0     N85640   7.806   9.161   3.130 -0.1379  0.3229 -1.1880
  635MOL0     N85641   7.792   9.098   3.020  0.1860  0.4437  0.2000
  635MOL0     C85642   8.600   9.065   2.082 -0.0525 -0.4070  0.0071
  635MOL0     C85643   8.700   9.085   1.988  0.6655  0.5335  0.8276
  635MOL0     C85644   9.022   9.041   1.695 -0.6876  0.9524  1.0038
  635MOL0     C85645   9.146   9.000   1.748 -0.0364  0.7672  0.0731
  635MOL0     C85646   9.258   8.982   1.661 -0.6129 -0.5364 -0.2654
  635MOL0     C85647   9.255   9.012   1.526 -0.2315  0.2683  0.8772
  635MOL0     O85648   9.366   9.009   1.434 -0.1855  1.3883  0.5247
  635MOL0     C85649   9.491   8.954   1.489  0.3174 -0.5018 -0.0474
  635MOL0     C85650   9.564   8.868   1.378  0.3494 -0.1451 -0.1725
  635MOL0     C85651   9.684   8.803   1.423 -0.1291 -0.0358 -0.9600
  635MOL0     C85652   9.810   8.893   1.451 -0.2055  0.2218  0.4102
  635MOL0     C85653   9.826   8.963   1.575 -0.3523  0.1259  0.1238
  635MOL0     C85654   9.819   9.031   1.679  0.6022  0.4050  0.5508
  635MOL0     C85655   9.135   9.060   1.473 -1.0021 -0.3065 -0.3272
  635MOL0     C85656   9.019   9.069   1.551 -0.0118  0.6297 -0.0086
  635MOL0     C85657   8.897   9.124   1.470  0.0819  0.0327  0.0195
  635MOL0     H85658   8.865   8.797   2.023 -1.2591 -0.5289 -1.6298
  635MOL0     H85659   8.705   8.775   2.222 -0.3907 -0.3359 -0.1594
  635MOL0     H85660   8.613   8.821   2.403 -0.2929  0.2963 -2.5645
  635MOL0     H85661   8.664   8.981   2.425  0.6247 -0.5049  1.3022
  635MOL0     H85662   8.398   9.017   2.468  0.4966  0.6502 -0.1054
  635MOL0     H85663   8.533   9.003   2.591 -0.8677 -0.0271 -0.1764
  635MOL0     H85664   8.486   8.771   2.643  3.2511  2.7171 -0.3173
  635MOL0     H85665   8.389   8.764   2.491 -3.0907  1.3310 -0.2789
  635MOL0     H85666   8.327   8.895   2.757  4.7822  2.0109 -2.5481
  635MOL0     H85667   8.224   8.927   2.613 -0.8854 -0.2464  1.1290
  635MOL0     H85668   8.183   8.675   2.609  0.1166 -3.0477  2.4505
  635MOL0     H85669   8.234   8.683   2.773 -1.5281 -0.4398 -0.0237
  635MOL0     H85670   8.007   8.838   2.651 -2.8445  3.2321  2.1469
  635MOL0     H85671   7.993   8.700   2.747  0.4809  0.1572  0.9495
  635MOL0     H85672   8.083   8.978   2.847  0.2678 -0.2519 -0.0496
  635MOL0     H85673   8.073   8.834   2.958  2.9558  1.9225 -0.5236
  635MOL0     H85674   7.841   8.951   2.809 -3.2076  0.9682  1.9653
  635MOL0     H85675   7.831   8.807   2.903  1.2065 -0.1573 -2.0782
  635MOL0     H85676   7.983   8.891   3.170  1.4936  2.0158  1.4716
  635MOL0     H85677   8.036   9.071   3.371  1.1738  3.7908  1.5874
  635MOL0     H85678   7.967   9.226   3.360 -0.5300  0.4043 -2.5844
  635MOL0     H85679   7.877   9.113   3.563  1.8669  1.4199 -1.0391
  635MOL0     H85680   7.749   9.132   3.442 -0.6884 -1.0676 -0.2907
  635MOL0     H85681   7.886   8.855   3.450  1.2516  1.7089 -0.4101
  635MOL0     H85682   7.754   8.908   3.354 -1.4236 -1.5082  0.8701
  635MOL0     H85683   7.758   8.933   3.661 -1.6070  0.6404  0.0638
  635MOL0     H85684   7.710   8.791   3.571 -1.9351 -0.1663  1.0492
  635MOL0     H85685   7.321   8.989   3.489  0.3785 -3.6750 -1.9982
  635MOL0     H85686   7.134   8.926   3.625 -1.5528 -1.2406  0.8290
  635MOL0     H85687   7.214   8.457   4.041  0.0774  1.2309  0.5011
  635MOL0     H85688   7.058   8.289   4.160  1.3777 -1.9802 -1.9507
  635MOL0     H85689   6.708   8.379   4.324 -2.5798 -0.7242  1.3642
  635MOL0     H85690   6.631   8.371   4.165 -1.4496 -2.6113 -2.4492
  635MOL0     H85691   6.518   8.222   4.301 -0.6249 -1.5391  0.4337
  635MOL0     H85692   6.620   8.122   4.201  1.5165  1.7028 -1.2912
  635MOL0     H85693   6.653   8.209   4.490 -0.6450 -1.4528  2.1538
  635MOL0     H85694   6.620   8.044   4.431 -1.9917  0.3533 -2.4321
  635MOL0     H85695   6.851   8.078   4.297 -1.1663  1.4328 -0.4572
  635MOL0     H85696   6.854   8.018   4.468  1.5161  1.3776  1.1779
  635MOL0     H85697   6.869   8.242   4.564 -1.3036  0.5882 -0.7929
  635MOL0     H85698   6.911   8.314   4.416  0.4407  0.2923  0.7261
  635MOL0     H85699   7.071   8.082   4.541 -2.3871  1.3865  2.1758
  635MOL0     H85700   7.094   8.147   4.382  0.2942  2.0062 -1.3205
  635MOL0     H85701   7.158   8.271   4.658 -0.0602  1.6679 -0.1589
  635MOL0     H85702   7.122   8.385   4.518  1.5843  0.8889  1.7123
  635MOL0     H85703   7.327   8.170   4.527 -3.3969 -1.3823  2.4801
  635MOL0     H85704   7.308   8.295   4.400  2.3767 -2.0037 -0.2976
  635MOL0     H85705   6.710   8.433   3.967 -0.2497 -2.2058  1.0542
  635MOL0     H85706   6.861   8.568   3.810 -0.4639  1.5067  1.5929
  635MOL0     H85707   7.402   8.672   3.864 -0.7421 -0.0802  0.4147
  635MOL0     H85708   7.585   8.816   3.784  0.4370 -0.4290 -1.2807
  635MOL0     H85709   8.524   9.141   2.094  1.2549  1.2477 -1.6313
  635MOL0     H85710   8.697   9.179   1.934  0.6139  0.1893  0.2188
  635MOL0     H85711   9.147   8.975   1.854 -1.5760  1.1249  0.1946
  635MOL0     H85712   9.349   8.958   1.715 -0.1590  1.8213  0.1032
  635MOL0     H85713   9.466   8.877   1.562 -4.1214 -1.4958 -2.2519
  635MOL0     H85714   9.556   9.033   1.528  0.0768  0.2488 -1.1191
  635MOL0     H85715   9.588   8.931   1.292  0.3990 -0.6697 -0.5440
  635MOL0     H85716   9.497   8.790   1.340  0.7537 -0.9919  0.8064
  635MOL0     H85717   9.710   8.723   1.353 -1.5392  0.4875 -2.1288
  635MOL0     H85718   9.659   8.747   1.514  0.2154  1.5989  0.1758
  635MOL0     H85719   9.897   8.837   1.417 -0.8841 -0.1104 -0.8481
  635MOL0     H85720   9.801   8.969   1.372  0.0905 -1.0810 -0.9149
  635MOL0     H85721   9.834   9.065   1.779 -0.5529 -3.9087  2.4364
  635MOL0     H85722   9.142   9.096   1.371 -0.7635 -0.9144 -0.5278
  635MOL0     H85723   8.885   9.230   1.493  0.5277  0.0781  0.0517
  635MOL0     H85724   8.905   9.098   1.364 -0.1401 -0.2510  0.0701
  635MOL0     H85725   8.818   9.063   1.515  0.4420  1.8567  3.4248
  636MOL0     O85726   6.680   9.812   9.962 -0.7504  0.7333 -0.0621
  636MOL0     C85727   6.631   9.817   9.847  0.0686  0.2509 -0.4456
  636MOL0     O85728   6.515   9.759   9.821  0.0849 -0.0158 -0.2467
  636MOL0     C85729   6.472   9.665   9.915  1.5935  0.1938  0.6391
  636MOL0     C85730   6.508   9.530   9.899  0.4474  0.6977 -0.3002
  636MOL0     C85731   6.469   9.442  10.002  0.0709 -0.1473  0.1968
  636MOL0     C85732   6.382   9.475  10.110  0.1782 -0.8551 -0.5589
  636MOL0     O85733   6.347   9.392  10.211 -0.6803  0.4288  0.2932
  636MOL0     C85734   6.376   9.428  10.346  0.5532 -0.0798  0.7642
  636MOL0     C85735   6.511   9.490  10.365 -0.8066 -0.2101  0.4620
  636MOL0     C85736   6.621   9.385  10.329 -0.1040 -0.2983 -0.1280
  636MOL0     C85737   6.751   9.470  10.323  0.8930  0.1193  0.4232
  636MOL0     C85738   6.777   9.534  10.184 -0.2952 -0.8927  0.1571
  636MOL0     C85739   6.908   9.614  10.180  0.2108  0.3286  0.5083
  636MOL0     C85740   7.024   9.525  10.142  0.3583  0.2794 -0.2645
  636MOL0     C85741   7.159   9.572  10.208 -0.3321 -0.1982 -0.2257
  636MOL0     N85742   7.207   9.691  10.141 -0.7213  0.1216  0.1015
  636MOL0     C85743   7.151   9.816  10.144  1.3153 -0.2312 -0.4631
  636MOL0     C85744   7.239   9.896  10.090  0.5603 -0.4850  0.3915
  636MOL0     C85745   7.221  10.044  10.077 -0.1328  0.0111 -0.5494
  636MOL0     C85746   7.202  10.092   9.930  0.0859 -0.5681  0.5440
  636MOL0     C85747   7.112  10.211   9.911 -0.1677 -0.4838  0.5956
  636MOL0     C85748   7.101  10.248   9.761 -0.9912 -0.0163 -0.9177
  636MOL0     O85749   6.987  10.320   9.737 -0.1486 -0.2350 -0.5223
  636MOL0     C85750   6.981  10.392   9.612 -0.4146 -0.2642 -0.8852
  636MOL0     C85751   7.079  10.385   9.510  0.3336 -0.4439  0.4145
  636MOL0     C85752   7.066  10.467   9.394 -0.1720  0.4207 -0.3206
  636MOL0     C85753   6.953  10.541   9.366  0.7464  0.1670 -0.1569
  636MOL0     C85754   6.930  10.606   9.230 -0.5584  0.0106  0.0862
  636MOL0     O85755   6.846  10.716   9.230  0.1851  0.1039 -0.5794
  636MOL0     C85756   6.813  10.769   9.112  0.6768 -0.7002 -0.2859
  636MOL0     C85757   6.775  10.905   9.127  0.5782  0.3291  0.1523
  636MOL0     C85758   6.739  10.985   9.021  0.0318  0.4974 -1.1222
  636MOL0     C85759   6.735  10.930   8.892 -0.1536  0.4275  0.0129
  636MOL0     O85760   6.679  10.999   8.780 -0.0449 -0.3713  0.2797
  636MOL0     C85761   6.580  11.099   8.809  1.1021  0.0709 -0.0202
  636MOL0     C85762   6.494  11.144   8.689 -0.3775 -0.0158  0.4720
  636MOL0     C85763   6.572  11.204   8.577  0.1485  0.3070  0.3364
  636MOL0     C85764   6.680  11.304   8.622 -0.2639 -0.2906  0.3546
  636MOL0     C85765   6.748  11.352   8.502  0.4317  0.0844 -0.2153
  636MOL0     C85766   6.652  11.448   8.412 -0.0660  0.1322 -0.3958
  636MOL0     C85767   6.728  11.541   8.320  0.1620 -0.5365 -0.0699
  636MOL0     C85768   6.642  11.639   8.253 -0.1271  0.4401  0.2500
  636MOL0    Cl85769   6.556  11.563   8.120 -0.1383  0.2183 -0.0252
  636MOL0     C85770   6.788  10.806   8.865  0.6255  0.6378  0.3008
  636MOL0     C85771   6.823  10.725   8.973  0.1072 -0.5685 -0.7602
  636MOL0     O85772   7.000  10.567   9.135 -0.4234 -0.9591 -0.8292
  636MOL0     C85773   6.851  10.536   9.461 -0.3602 -0.0331  0.1871
  636MOL0     C85774   6.873  10.475   9.591 -0.4364 -0.1760 -1.0819
  636MOL0     N85775   7.347   9.823  10.057  0.2816  0.1778  0.3489
  636MOL0     N85776   7.321   9.702  10.073  0.7182  0.1607 -0.1184
  636MOL0     C85777   6.336   9.610  10.116 -0.5859  0.1600  0.2586
  636MOL0     C85778   6.382   9.701  10.017 -0.3417  0.2279  0.3225
  636MOL0     C85779   6.702   9.887   9.733  0.2377 -0.1412  0.0439
  636MOL0     C85780   6.634   9.923   9.628 -0.0156 -0.0775  1.0984
  636MOL0     C85781   6.692   9.985   9.513 -0.9616  0.0965  0.3818
  636MOL0     C85782   6.836  10.009   9.505 -0.8715 -0.3281 -0.1161
  636MOL0     O85783   6.905  10.075   9.411  0.0949 -0.6044  0.4831
  636MOL0     C85784   6.843  10.111   9.285 -0.4898 -0.9745  0.3049
  636MOL0     C85785   6.760  10.242   9.275 -0.4410 -0.1718  0.1909
  636MOL0     C85786   6.666  10.255   9.153  0.1313  0.0574 -0.1292
  636MOL0     C85787   6.725  10.327   9.026 -0.2353  0.2100 -0.9659
  636MOL0     C85788   6.825  10.242   8.957  0.1345 -0.0708  0.5267
  636MOL0     C85789   6.911  10.177   8.905  0.9051 -0.4935 -0.5141
  636MOL0     C85790   6.905   9.972   9.621 -0.6385 -0.5479 -0.4312
  636MOL0     C85791   6.841   9.904   9.731  0.2351  0.1809  0.8648
  636MOL0     C85792   6.933   9.839   9.826 -0.2918  1.2701 -0.6530
  636MOL0     H85793   6.569   9.502   9.814 -0.1857 -1.1837 -0.1782
  636MOL0     H85794   6.487   9.337   9.985 -3.6177 -1.0031  0.6722
  636MOL0     H85795   6.295   9.498  10.370  0.2449  1.4004 -3.6464
  636MOL0     H85796   6.376   9.343  10.415 -2.3121  0.8460  2.0943
  636MOL0     H85797   6.519   9.499  10.473 -0.8797 -3.2276  0.7879
  636MOL0     H85798   6.519   9.586  10.311 -1.2284  0.7455  2.0483
  636MOL0     H85799   6.595   9.336  10.235  2.2849 -0.9347 -0.5263
  636MOL0     H85800   6.634   9.316  10.412  1.2710  1.4752  1.2294
  636MOL0     H85801   6.764   9.541  10.405  1.8985 -1.2167  1.4847
  636MOL0     H85802   6.825   9.390  10.336  0.6223 -0.2011  0.0081
  636MOL0     H85803   6.771   9.474  10.092  1.1859  1.2245 -1.4401
  636MOL0     H85804   6.700   9.611  10.174 -0.0708 -0.4399  1.6829
  636MOL0     H85805   6.891   9.690  10.103 -2.5390 -1.3582 -0.7010
  636MOL0     H85806   6.935   9.658  10.276  2.3822  0.8417 -0.2808
  636MOL0     H85807   7.040   9.506  10.036 -0.8423 -2.4567 -0.0361
  636MOL0     H85808   7.007   9.424  10.181  2.5393  1.1351  3.3085
  636MOL0     H85809   7.147   9.593  10.315  0.1071  0.9070 -0.3836
  636MOL0     H85810   7.229   9.490  10.190 -1.7980 -2.4910  3.3295
  636MOL0     H85811   7.054   9.845  10.183  1.5294  0.8879 -0.7264
  636MOL0     H85812   7.140  10.074  10.143 -0.7911 -1.0823 -0.8303
  636MOL0     H85813   7.315  10.084  10.115  0.0058 -0.7099 -0.1183
  636MOL0     H85814   7.303  10.118   9.896 -1.3260  0.8895 -2.9866
  636MOL0     H85815   7.176  10.012   9.860 -0.2544  1.0063 -1.1943
  636MOL0     H85816   7.153  10.293   9.970 -0.6927 -0.7536  1.3487
  636MOL0     H85817   7.014  10.176   9.944  0.7175 -1.9701  1.8285
  636MOL0     H85818   7.092  10.156   9.703  1.6524 -2.6008  2.3466
  636MOL0     H85819   7.195  10.296   9.733 -0.1151 -2.4154 -2.3334
  636MOL0     H85820   7.172  10.328   9.518 -0.3962 -1.6376  0.5592
  636MOL0     H85821   7.151  10.472   9.326 -0.4705 -4.1124 -1.3491
  636MOL0     H85822   6.777  10.943   9.229  0.4774 -1.3109  0.7858
  636MOL0     H85823   6.709  11.087   9.039 -0.1159  0.3461 -0.5047
  636MOL0     H85824   6.518  11.048   8.882 -0.1537  0.0868 -1.0380
  636MOL0     H85825   6.626  11.189   8.851  0.5327 -0.2951  1.4405
  636MOL0     H85826   6.454  11.051   8.648 -2.7296 -0.0240  2.4948
  636MOL0     H85827   6.414  11.216   8.712 -2.1597 -2.0114  0.9063
  636MOL0     H85828   6.624  11.121   8.527 -1.4131  1.2837 -3.2501
  636MOL0     H85829   6.493  11.247   8.516 -0.4389 -2.0545 -0.6819
  636MOL0     H85830   6.751  11.257   8.691  2.2757 -0.0702 -1.9649
  636MOL0     H85831   6.633  11.383   8.681 -1.3876 -1.3120  0.8984
  636MOL0     H85832   6.782  11.263   8.448 -0.3338 -2.2855  2.8855
  636MOL0     H85833   6.842  11.405   8.520  2.2181 -3.7752  3.7798
  636MOL0     H85834   6.581  11.387   8.356 -1.9584  2.5595 -0.8312
  636MOL0     H85835   6.592  11.504   8.485 -1.1919 -0.9809 -0.4261
  636MOL0     H85836   6.774  11.480   8.242 -0.3242 -0.8576 -0.1142
  636MOL0     H85837   6.806  11.595   8.373 -2.4050  1.9345  1.4683
  636MOL0     H85838   6.570  11.678   8.326  1.8075 -0.5158  2.8477
  636MOL0     H85839   6.716  11.713   8.221 -0.3325  1.1303  1.3100
  636MOL0     H85840   6.781  10.764   8.765  0.5847 -0.5353  0.7735
  636MOL0     H85841   6.868  10.631   8.943  1.8422  0.3321 -1.0644
  636MOL0     H85842   6.766  10.598   9.435  0.1318  0.6664  0.1992
  636MOL0     H85843   6.796  10.483   9.667 -0.9234 -1.6981 -1.3748
  636MOL0     H85844   6.264   9.652  10.185 -3.1648 -0.8350 -1.6252
  636MOL0     H85845   6.333   9.794   9.988  1.9232  0.8544 -1.8725
  636MOL0     H85846   6.526   9.911   9.625 -0.0431 -0.1810 -3.0475
  636MOL0     H85847   6.640  10.007   9.420 -0.5024 -1.1078 -0.1841
  636MOL0     H85848   6.784  10.022   9.260  1.2153 -1.4959 -2.2556
  636MOL0     H85849   6.917  10.104   9.204  0.8031  0.2420  1.3416
  636MOL0     H85850   6.821  10.332   9.287  0.8339 -1.1142  1.0391
  636MOL0     H85851   6.696  10.244   9.364 -0.1680  0.2356  0.3837
  636MOL0     H85852   6.583  10.313   9.193  0.2396  1.4077 -1.7249
  636MOL0     H85853   6.623  10.157   9.132 -1.8277  1.2925 -2.4192
  636MOL0     H85854   6.637  10.341   8.962 -0.0035  0.6814 -1.1846
  636MOL0     H85855   6.768  10.419   9.065  0.3777 -1.0935  1.6657
  636MOL0     H85856   7.000  10.132   8.868 -0.2773 -1.2518 -2.5708
  636MOL0     H85857   7.013   9.983   9.623 -0.7045  0.3651 -1.1454
  636MOL0     H85858   6.902   9.736   9.846  3.1045 -0.2125 -2.1960
  636MOL0     H85859   7.040   9.839   9.801 -0.0246  2.4306  0.3584
  636MOL0     H85860   6.925   9.891   9.922  0.1349 -0.3805  0.3211
  637MOL0     O85861   7.295   6.080   8.800  0.1993  0.1086  0.1084
  637MOL0     C85862   7.323   6.153   8.714  0.2180 -0.1401  0.2752
  637MOL0     O85863   7.432   6.233   8.726  0.4982  0.1076  0.2739
  637MOL0     C85864   7.492   6.251   8.844  0.4914 -0.3977 -0.9194
  637MOL0     C85865   7.429   6.294   8.961  0.2545  0.1766 -0.2546
  637MOL0     C85866   7.497   6.341   9.080 -0.2053  0.4158  0.2995
  637MOL0     C85867   7.643   6.337   9.070  0.2855  0.3447 -0.1450
  637MOL0     O85868   7.713   6.384   9.178  0.6215  0.0975  0.8907
  637MOL0     C85869   7.822   6.293   9.225  1.0203  0.3294  0.4452
  637MOL0     C85870   7.853   6.320   9.369 -0.0056  0.5569 -0.1338
  637MOL0     C85871   7.742   6.249   9.466 -0.8719 -0.2167  0.2543
  637MOL0     C85872   7.783   6.258   9.612  0.9710  0.0987  0.2053
  637MOL0     C85873   7.720   6.145   9.702 -1.0617 -0.2283  0.8321
  637MOL0     C85874   7.736   6.168   9.849  0.1088  0.5900  0.4825
  637MOL0     C85875   7.686   6.038   9.923 -0.4680 -0.1335 -0.3930
  637MOL0     C85876   7.544   6.010   9.919  0.2487 -0.4394 -0.7819
  637MOL0     N85877   7.464   6.096  10.007 -0.2128  0.4661 -0.5078
  637MOL0     C85878   7.390   6.051  10.123 -0.0373  0.3845 -0.4761
  637MOL0     C85879   7.328   6.167  10.167 -0.2779  0.3255 -0.2509
  637MOL0     C85880   7.239   6.184  10.289  0.4901  0.0407  0.4172
  637MOL0     C85881   7.309   6.225  10.422 -0.6745  0.5993 -0.7419
  637MOL0     C85882   7.406   6.113  10.465 -1.1780  0.1167 -0.0710
  637MOL0     C85883   7.467   6.106  10.606 -0.9546  0.3524 -0.2161
  637MOL0     O85884   7.531   6.236  10.616 -0.1454  0.3584 -0.4928
  637MOL0     C85885   7.573   6.281  10.743  0.1608  0.0769  0.7701
  637MOL0     C85886   7.561   6.196  10.854 -0.3726 -1.0087 -0.2467
  637MOL0     C85887   7.572   6.238  10.988 -0.3730 -0.3739  0.0333
  637MOL0     C85888   7.598   6.375  11.012 -1.1244  0.3551  0.5303
  637MOL0     C85889   7.626   6.430  11.149  0.8252 -0.6331  0.1939
  637MOL0     O85890   7.645   6.565  11.152  0.1970 -0.2201 -0.4718
  637MOL0     C85891   7.667   6.636  11.266 -0.3632 -0.7426 -0.5134
  637MOL0     C85892   7.797   6.690  11.281 -0.4578 -0.2053 -0.2404
  637MOL0     C85893   7.830   6.739  11.410  0.4144  0.2046 -0.2798
  637MOL0     C85894   7.735   6.748  11.518  0.1511  0.1189 -0.9290
  637MOL0     O85895   7.772   6.797  11.646 -0.0693 -0.9717  0.2900
  637MOL0     C85896   7.895   6.863  11.679 -0.3842 -0.2197  0.2639
  637MOL0     C85897   7.884   7.007  11.629 -0.6624  0.9264  0.2749
  637MOL0     C85898   7.775   7.078  11.705  0.0183  0.2556  0.6437
  637MOL0     C85899   7.822   7.152  11.827 -0.6454  1.0311 -1.1712
  637MOL0     C85900   7.702   7.163  11.921 -0.2895 -0.8006  0.3681
  637MOL0     C85901   7.763   7.224  12.051 -0.1801 -0.3769 -0.2913
  637MOL0     C85902   7.656   7.291  12.136 -0.0957 -0.5702 -0.6080
  637MOL0     C85903   7.721   7.365  12.259  0.6361 -0.5490 -0.1282
  637MOL0    Cl85904   7.823   7.254  12.358 -0.1926 -0.0132  0.1033
  637MOL0     C85905   7.610   6.708  11.491  0.9854  0.3916 -0.4532
  637MOL0     C85906   7.572   6.650  11.367 -0.1361 -0.1527  0.5395
  637MOL0     O85907   7.640   6.347  11.245  0.0608 -0.4451 -0.0203
  637MOL0     C85908   7.617   6.463  10.900 -0.7517  0.0185 -0.1002
  637MOL0     C85909   7.616   6.410  10.766  0.4187 -0.0395  0.3860
  637MOL0     N85910   7.352   6.268  10.072 -0.0769 -0.3416  0.0639
  637MOL0     N85911   7.434   6.223   9.978  0.6240 -0.3386 -0.0425
  637MOL0     C85912   7.710   6.298   8.953  0.4734 -0.1645 -0.4439
  637MOL0     C85913   7.632   6.256   8.842  0.3787 -0.0009  0.2297
  637MOL0     C85914   7.236   6.174   8.591  0.3123  0.7541 -0.7425
  637MOL0     C85915   7.253   6.290   8.514  0.3089  0.9470 -0.0435
  637MOL0     C85916   7.166   6.329   8.412  0.1835 -0.9477  0.4671
  637MOL0     C85917   7.059   6.257   8.385 -0.4794  0.6783 -0.4874
  637MOL0     O85918   6.982   6.280   8.278  0.5953  0.6111 -0.3316
  637MOL0     C85919   6.860   6.339   8.319  0.0123  0.7494 -1.0681
  637MOL0     C85920   6.757   6.258   8.255  0.5294 -0.8724 -1.1543
  637MOL0     C85921   6.617   6.318   8.267 -0.4216  0.5437  0.1789
  637MOL0     C85922   6.557   6.336   8.408  0.4008  0.0362  0.0986
  637MOL0     C85923   6.625   6.443   8.482  0.5578 -0.0920 -0.2034
  637MOL0     C85924   6.671   6.536   8.552  0.0061  0.4791  0.6030
  637MOL0     C85925   7.040   6.141   8.452  0.1835  0.7647  0.1208
  637MOL0     C85926   7.121   6.097   8.562  0.6728 -0.5154 -0.4967
  637MOL0     C85927   7.080   5.977   8.653 -0.4472  0.4142  0.3110
  637MOL0     H85928   7.321   6.291   8.953  0.3107 -0.9258 -0.7478
  637MOL0     H85929   7.453   6.376   9.173  4.4735  1.0223  2.6003
  637MOL0     H85930   7.794   6.191   9.198  0.8635  0.6717 -0.7538
  637MOL0     H85931   7.916   6.306   9.171  0.9022 -1.5904 -0.3038
  637MOL0     H85932   7.877   6.426   9.384  1.1709  0.1376  1.2511
  637MOL0     H85933   7.951   6.274   9.387 -0.7517 -2.1813 -2.4530
  637MOL0     H85934   7.739   6.144   9.434 -2.0172 -0.5478  1.3873
  637MOL0     H85935   7.642   6.289   9.446  0.0820  0.3012 -4.7951
  637MOL0     H85936   7.890   6.250   9.634  1.2735 -2.9048 -1.8332
  637MOL0     H85937   7.767   6.354   9.663  2.5070 -0.5243  2.0168
  637MOL0     H85938   7.613   6.146   9.680 -0.6983  0.9610 -1.1328
  637MOL0     H85939   7.763   6.050   9.668 -1.7934 -0.7455  1.3228
  637MOL0     H85940   7.843   6.179   9.869  0.5286 -0.9126 -0.7001
  637MOL0     H85941   7.684   6.260   9.874 -0.5419 -0.2136  2.2136
  637MOL0     H85942   7.723   6.040  10.026  0.1164  3.0748 -0.5831
  637MOL0     H85943   7.730   5.952   9.872 -0.6808  0.0115 -0.8234
  637MOL0     H85944   7.501   6.026   9.820 -0.2351  0.4554 -0.4417
  637MOL0     H85945   7.530   5.902   9.927  0.4182 -0.7288 -3.4486
  637MOL0     H85946   7.384   5.953  10.168 -1.3812  0.7284  0.1814
  637MOL0     H85947   7.159   6.252  10.260  0.0039 -1.9975 -3.8746
  637MOL0     H85948   7.195   6.086  10.307  0.4105  0.0940  0.5124
  637MOL0     H85949   7.368   6.315  10.400 -3.6479  2.4753 -1.7661
  637MOL0     H85950   7.238   6.252  10.501 -0.6249  0.2923 -0.5908
  637MOL0     H85951   7.491   6.123  10.397 -0.0035  4.2227  1.7098
  637MOL0     H85952   7.350   6.019  10.460  0.3324 -0.9821  2.3068
  637MOL0     H85953   7.549   6.035  10.623  2.1345  3.5651 -0.4090
  637MOL0     H85954   7.396   6.095  10.688  0.5858 -1.2743  0.9733
  637MOL0     H85955   7.538   6.090  10.848 -2.1551 -0.6958  0.5753
  637MOL0     H85956   7.538   6.163  11.059  0.2229 -0.9483 -0.2778
  637MOL0     H85957   7.882   6.689  11.214  0.8465  2.8114  1.1748
  637MOL0     H85958   7.935   6.763  11.426  0.2653  1.4455 -1.0572
  637MOL0     H85959   7.901   6.854  11.788  0.0847  0.6042  0.3216
  637MOL0     H85960   7.981   6.813  11.634  0.1511  0.0561  0.9658
  637MOL0     H85961   7.981   7.057  11.632  1.4691 -2.5693 -2.5672
  637MOL0     H85962   7.854   7.015  11.524 -1.0426  0.4513  0.3441
  637MOL0     H85963   7.743   7.155  11.635  1.6024  0.9310  0.6023
  637MOL0     H85964   7.691   7.008  11.711 -0.8688  1.2709  0.2898
  637MOL0     H85965   7.873   7.246  11.803 -1.2818  1.5339 -0.6156
  637MOL0     H85966   7.887   7.084  11.882 -0.9369  1.3198 -0.4511
  637MOL0     H85967   7.646   7.071  11.943 -1.8916  0.3660  1.3541
  637MOL0     H85968   7.618   7.214  11.873 -0.3447 -0.3071  0.9797
  637MOL0     H85969   7.824   7.153  12.108  1.4543 -0.1459 -1.6612
  637MOL0     H85970   7.830   7.306  12.022 -2.9677  1.3044 -2.5273
  637MOL0     H85971   7.593   7.213  12.178 -1.2008  0.0198 -1.1282
  637MOL0     H85972   7.597   7.362  12.077 -1.0163 -2.1881 -1.6880
  637MOL0     H85973   7.778   7.454  12.231 -2.2830  0.5489 -3.3415
  637MOL0     H85974   7.645   7.412  12.324  1.6858  1.2048 -0.1122
  637MOL0     H85975   7.542   6.729  11.573  1.9382  1.8512 -0.0079
  637MOL0     H85976   7.468   6.619  11.369  0.5774 -2.8375  3.2393
  637MOL0     H85977   7.632   6.569  10.914  0.3635  0.4443 -3.4395
  637MOL0     H85978   7.621   6.482  10.685 -4.9556 -0.9126 -1.1155
  637MOL0     H85979   7.818   6.298   8.942  0.3358 -0.3023 -2.1182
  637MOL0     H85980   7.704   6.224   8.768  2.2234  2.5411  0.8100
  637MOL0     H85981   7.339   6.350   8.541  0.2566  0.4306  1.4069
  637MOL0     H85982   7.202   6.418   8.362  0.4036 -0.7326  0.9994
  637MOL0     H85983   6.847   6.445   8.296 -1.4734  1.6848  3.2500
  637MOL0     H85984   6.844   6.341   8.427 -0.3892  2.2400 -1.1217
  637MOL0     H85985   6.757   6.161   8.306 -0.1965  2.2168  5.9064
  637MOL0     H85986   6.770   6.266   8.146 -3.5792 -0.8238 -1.8038
  637MOL0     H85987   6.546   6.249   8.220  1.6552 -1.0454 -0.8038
  637MOL0     H85988   6.603   6.410   8.210  0.0565 -0.0270 -0.8930
  637MOL0     H85989   6.452   6.357   8.388  0.9469  0.1703 -3.1533
  637MOL0     H85990   6.562   6.242   8.464 -5.1458 -1.1261 -0.8221
  637MOL0     H85991   6.685   6.616   8.623 -0.3780 -1.3077  2.8125
  637MOL0     H85992   6.959   6.076   8.419  0.0125  1.4671 -0.8992
  637MOL0     H85993   7.060   6.005   8.757  1.6913  1.3208  0.5130
  637MOL0     H85994   6.989   5.930   8.615 -1.2945  1.8878  0.4399
  637MOL0     H85995   7.160   5.902   8.647 -2.7884 -2.1798 -3.1003
  638MOL0     O85996   6.441   5.625   5.821 -0.0109 -0.1329 -0.0494
  638MOL0     C85997   6.332   5.587   5.858  0.2169  0.0185 -0.1503
  638MOL0     O85998   6.299   5.560   5.988  0.3995  0.5124  0.1293
  638MOL0     C85999   6.383   5.595   6.085 -0.1275  1.0486 -0.4306
  638MOL0     C86000   6.462   5.712   6.076  0.1599 -0.3021  0.2940
  638MOL0     C86001   6.557   5.737   6.174 -0.6325  0.3924  0.5744
  638MOL0     C86002   6.581   5.649   6.279 -0.6857 -0.9259 -0.0090
  638MOL0     O86003   6.676   5.672   6.373 -0.2639 -0.8288  0.2618
  638MOL0     C86004   6.756   5.790   6.356 -0.5521 -0.3820 -0.4333
  638MOL0     C86005   6.866   5.781   6.463 -0.3383  0.6100  0.9577
  638MOL0     C86006   6.954   5.909   6.468 -0.2377 -0.1328 -0.8287
  638MOL0     C86007   7.031   5.905   6.594 -0.5401  0.2412 -0.4796
  638MOL0     C86008   7.091   6.045   6.628 -0.3401  0.1875 -0.5403
  638MOL0     C86009   7.165   6.122   6.515  1.0891 -0.0548  0.1615
  638MOL0     C86010   7.193   6.261   6.570 -0.3140 -0.2535  0.4360
  638MOL0     C86011   7.292   6.345   6.472  0.2163  0.0165 -0.2417
  638MOL0     N86012   7.315   6.480   6.528  0.1820  0.2074 -0.4082
  638MOL0     C86013   7.383   6.576   6.450  0.6412 -0.4447  0.0875
  638MOL0     C86014   7.424   6.672   6.547 -0.6565  0.1217 -0.2429
  638MOL0     C86015   7.505   6.796   6.536  0.1770  0.0015 -0.0972
  638MOL0     C86016   7.447   6.894   6.431  0.4382  0.1250  0.7359
  638MOL0     C86017   7.527   7.032   6.434  0.1913  0.0334 -0.3842
  638MOL0     C86018   7.677   7.014   6.392  0.2224 -0.1008 -0.4337
  638MOL0     O86019   7.723   7.113   6.299 -0.3958 -0.6208 -0.2768
  638MOL0     C86020   7.849   7.168   6.315 -0.6008 -0.3489 -0.1851
  638MOL0     C86021   7.877   7.308   6.289  0.0836 -0.5637 -0.1673
  638MOL0     C86022   8.013   7.360   6.293 -0.2227 -0.0399  0.4327
  638MOL0     C86023   8.118   7.273   6.328 -0.5572  0.9899 -1.3021
  638MOL0     C86024   8.262   7.314   6.315 -1.1903  0.1318  0.5147
  638MOL0     O86025   8.280   7.440   6.268 -0.1205 -0.1804  0.6243
  638MOL0     C86026   8.409   7.488   6.268 -0.8542 -1.2700 -0.3021
  638MOL0     C86027   8.444   7.578   6.155 -0.1974 -0.0265 -1.3014
  638MOL0     C86028   8.574   7.647   6.151 -0.7396 -0.1728 -0.5271
  638MOL0     C86029   8.668   7.617   6.249  0.6207  0.4538  0.1357
  638MOL0     O86030   8.787   7.676   6.246 -0.9269  0.6090 -0.5791
  638MOL0     C86031   8.908   7.598   6.255  0.9639  0.7602 -0.4523
  638MOL0     C86032   9.006   7.609   6.132  0.2563 -0.9192  0.0346
  638MOL0     C86033   9.045   7.756   6.113  0.1975  0.7029  0.3075
  638MOL0     C86034   9.155   7.784   6.008  0.7374  0.1506  0.6743
  638MOL0     C86035   9.292   7.737   6.049  0.2717  0.3956 -0.0200
  638MOL0     C86036   9.389   7.779   5.947 -0.1720 -0.5298 -0.1152
  638MOL0     C86037   9.513   7.687   5.924  0.0655  0.2026  0.4800
  638MOL0     C86038   9.471   7.557   5.850  0.6695 -0.0437  0.0713
  638MOL0    Cl86039   9.470   7.585   5.668 -0.1034  0.1438 -0.4239
  638MOL0     C86040   8.631   7.532   6.354 -0.2544 -0.3771 -0.8271
  638MOL0     C86041   8.512   7.465   6.363  0.0345 -0.9020 -0.4061
  638MOL0     O86042   8.349   7.228   6.342  0.4000  0.4454 -0.0194
  638MOL0     C86043   8.088   7.139   6.357 -0.9008  0.4419 -0.4922
  638MOL0     C86044   7.958   7.083   6.347 -0.5730  0.0230  0.6218
  638MOL0     N86045   7.389   6.624   6.667 -0.1252 -0.4651  0.4448
  638MOL0     N86046   7.321   6.514   6.661  0.0559  0.1787  0.0886
  638MOL0     C86047   6.493   5.543   6.296 -0.2853  0.5038 -0.3457
  638MOL0     C86048   6.391   5.516   6.203  0.3955  0.7719 -0.0384
  638MOL0     C86049   6.229   5.585   5.746 -0.4173  0.2541  0.3885
  638MOL0     C86050   6.278   5.643   5.627 -0.2639 -0.7550 -0.0981
  638MOL0     C86051   6.194   5.667   5.518 -0.9362  0.3470 -0.5423
  638MOL0     C86052   6.061   5.618   5.529 -0.0662 -0.7729  0.5452
  638MOL0     O86053   5.992   5.645   5.411  0.1880  0.5154  0.9683
  638MOL0     C86054   5.877   5.557   5.394  0.3844  0.1146 -0.7680
  638MOL0     C86055   5.792   5.598   5.276  0.2816 -1.0369 -0.4117
  638MOL0     C86056   5.741   5.747   5.303 -0.6067 -0.7400  0.9663
  638MOL0     C86057   5.640   5.765   5.419 -0.4812  0.4787  0.3037
  638MOL0     C86058   5.555   5.886   5.441 -0.9709 -0.1949  0.3829
  638MOL0     C86059   5.497   5.998   5.438 -0.3491 -0.5379 -1.0972
  638MOL0     C86060   6.026   5.545   5.632 -0.3509 -0.8330 -0.2023
  638MOL0     C86061   6.106   5.532   5.746 -0.1710 -0.1578 -0.1627
  638MOL0     C86062   6.056   5.446   5.860 -0.4365 -0.1521  1.7667
  638MOL0     H86063   6.437   5.790   6.004 -0.4007  0.8855  1.7161
  638MOL0     H86064   6.605   5.827   6.136 -3.0673  0.5508 -2.5990
  638MOL0     H86065   6.790   5.780   6.253 -0.1931 -1.5340 -0.2103
  638MOL0     H86066   6.712   5.890   6.362  0.5689  0.4015 -3.3508
  638MOL0     H86067   6.920   5.691   6.431 -2.0288 -0.8061  1.9798
  638MOL0     H86068   6.816   5.761   6.558 -0.2272 -1.8496  0.5672
  638MOL0     H86069   6.891   5.998   6.460 -0.3764  0.1294  2.0328
  638MOL0     H86070   7.027   5.917   6.387 -1.1402 -3.4273 -2.1329
  638MOL0     H86071   6.967   5.869   6.675  1.6631  0.4176  1.4533
  638MOL0     H86072   7.113   5.833   6.579 -0.0586  0.5903  0.4064
  638MOL0     H86073   7.007   6.106   6.665 -0.9292 -1.1304  0.3748
  638MOL0     H86074   7.155   6.015   6.711 -0.4728 -2.9621 -1.4338
  638MOL0     H86075   7.247   6.053   6.493  1.1072  0.5105 -1.7780
  638MOL0     H86076   7.113   6.138   6.420  2.2222  1.3984 -0.2397
  638MOL0     H86077   7.230   6.264   6.673  2.3427  2.3678 -0.4603
  638MOL0     H86078   7.101   6.318   6.589  0.5292  0.6052  2.1020
  638MOL0     H86079   7.385   6.290   6.453  0.1102 -0.0172 -0.6883
  638MOL0     H86080   7.235   6.347   6.378 -1.0245  2.4788  0.4872
  638MOL0     H86081   7.405   6.575   6.344  0.0326  2.5069 -0.1416
  638MOL0     H86082   7.514   6.852   6.629  0.7531  1.4453 -0.9924
  638MOL0     H86083   7.609   6.782   6.505  1.2570 -1.3416  3.5585
  638MOL0     H86084   7.441   6.839   6.336 -0.0009  3.3248 -1.2361
  638MOL0     H86085   7.347   6.929   6.460  0.2214  2.1811 -2.0513
  638MOL0     H86086   7.521   7.071   6.536  0.6962  0.4679 -0.5192
  638MOL0     H86087   7.478   7.106   6.369  1.3551  1.7534  0.6031
  638MOL0     H86088   7.682   6.916   6.345  0.2728 -2.2740  3.6744
  638MOL0     H86089   7.745   7.014   6.477  1.8673  0.5784 -1.6846
  638MOL0     H86090   7.793   7.376   6.270  0.0941  0.1497  2.0933
  638MOL0     H86091   8.023   7.464   6.263  1.8725  0.5804  2.9299
  638MOL0     H86092   8.364   7.600   6.085  0.3263 -0.9169 -2.2032
  638MOL0     H86093   8.593   7.733   6.088 -2.9589 -0.5006 -1.7540
  638MOL0     H86094   8.946   7.635   6.351  0.9249  1.4790 -0.7134
  638MOL0     H86095   8.868   7.496   6.263 -2.2629  2.0220  1.8857
  638MOL0     H86096   9.088   7.545   6.166  1.2482 -0.6847 -1.7902
  638MOL0     H86097   8.952   7.555   6.054 -4.3121  1.8317  0.9183
  638MOL0     H86098   8.955   7.815   6.094 -1.5467 -0.9767  2.7678
  638MOL0     H86099   9.074   7.769   6.217  0.5899 -0.7007  0.3970
  638MOL0     H86100   9.158   7.893   5.998  0.2133 -0.0707 -3.5697
  638MOL0     H86101   9.127   7.740   5.912 -3.3121  0.3897  1.5688
  638MOL0     H86102   9.287   7.628   6.054 -1.6913  0.5347  3.2554
  638MOL0     H86103   9.316   7.774   6.149 -0.3277 -3.8451  1.9339
  638MOL0     H86104   9.342   7.797   5.850 -0.2719  5.5109  0.6996
  638MOL0     H86105   9.428   7.876   5.979  0.9204 -0.5561 -1.2619
  638MOL0     H86106   9.552   7.642   6.015  2.0511  1.6663  0.4179
  638MOL0     H86107   9.599   7.736   5.877 -0.7218 -1.5196 -3.1465
  638MOL0     H86108   9.534   7.473   5.880  0.4985 -0.3391 -0.3697
  638MOL0     H86109   9.367   7.528   5.871  0.1039  1.0839 -1.0274
  638MOL0     H86110   8.702   7.514   6.434 -0.5512 -0.5170 -0.5936
  638MOL0     H86111   8.482   7.421   6.458 -1.7442 -0.7486 -0.8669
  638MOL0     H86112   8.165   7.065   6.374 -0.8701  0.2350 -1.4684
  638MOL0     H86113   7.944   6.975   6.356  1.2203 -0.1341  2.1394
  638MOL0     H86114   6.512   5.465   6.368 -2.1527 -1.1335 -1.5394
  638MOL0     H86115   6.321   5.434   6.212  1.5875 -0.1816  0.8431
  638MOL0     H86116   6.370   5.696   5.605 -2.0366  1.9999 -1.4571
  638MOL0     H86117   6.224   5.726   5.432 -0.2986  1.6970  0.5660
  638MOL0     H86118   5.821   5.562   5.487  1.1935 -0.4542 -0.2304
  638MOL0     H86119   5.912   5.456   5.372  1.4971  1.0743 -3.9576
  638MOL0     H86120   5.715   5.523   5.258  0.3636 -1.1336 -0.3667
  638MOL0     H86121   5.863   5.591   5.193 -1.3971  0.4339 -2.0290
  638MOL0     H86122   5.690   5.782   5.213 -0.5621 -0.8516  0.8968
  638MOL0     H86123   5.826   5.815   5.313 -0.7107  0.4641 -3.9213
  638MOL0     H86124   5.563   5.690   5.403  0.9806 -0.7675 -1.2535
  638MOL0     H86125   5.680   5.738   5.517  1.6264  1.9716 -0.0893
  638MOL0     H86126   5.450   6.094   5.441  0.4825 -0.1269  1.4058
  638MOL0     H86127   5.938   5.483   5.644  0.4270 -1.9272  0.0674
  638MOL0     H86128   5.988   5.502   5.924  1.8156  3.6150  1.1944
  638MOL0     H86129   6.001   5.365   5.811 -0.5145  0.4600  0.8177
  638MOL0     H86130   6.136   5.394   5.913  0.3870  0.5366  1.2312
  639MOL0     O86131   9.424   5.753   1.324  0.8147 -0.4002  0.0881
  639MOL0     C86132   9.511   5.700   1.265  0.9580  0.8494 -0.1989
  639MOL0     O86133   9.507   5.567   1.223 -0.1935  0.4278  0.4140
  639MOL0     C86134   9.406   5.470   1.254 -0.0829  0.6942 -0.2209
  639MOL0     C86135   9.425   5.335   1.210 -0.7470  0.3009 -0.9087
  639MOL0     C86136   9.328   5.247   1.221  0.1501  0.4284 -0.8937
  639MOL0     C86137   9.211   5.268   1.289 -0.2981  0.0277  0.7736
  639MOL0     O86138   9.121   5.163   1.307  0.2294 -0.6868  0.3699
  639MOL0     C86139   9.074   5.144   1.443  0.0337  0.4392 -0.1739
  639MOL0     C86140   8.971   5.043   1.446  1.0191  0.0418  0.2731
  639MOL0     C86141   8.861   5.064   1.338  0.6297 -0.1477 -0.9787
  639MOL0     C86142   8.751   4.967   1.360  0.2563  0.6492 -0.5625
  639MOL0     C86143   8.636   4.987   1.254 -0.2378  0.4966  0.1029
  639MOL0     C86144   8.506   4.957   1.328  0.5383 -0.3035 -0.0494
  639MOL0     C86145   8.384   4.995   1.245  0.2555  0.0611  0.1239
  639MOL0     C86146   8.254   4.984   1.322  0.7366 -0.3266  0.0794
  639MOL0     N86147   8.156   5.022   1.223  0.2929  0.3619  0.2035
  639MOL0     C86148   8.102   4.940   1.129  0.5730 -0.6179 -0.3434
  639MOL0     C86149   7.992   5.012   1.090  0.0311 -0.0800  0.1154
  639MOL0     C86150   7.903   4.967   0.980  0.2315  0.5549 -0.5094
  639MOL0     C86151   7.788   5.063   0.957 -0.0831 -0.2698  0.0414
  639MOL0     C86152   7.713   5.017   0.826 -0.1166  0.6034  0.2549
  639MOL0     C86153   7.611   5.129   0.784 -0.3980 -0.0389 -0.0770
  639MOL0     O86154   7.503   5.077   0.717 -0.0424  0.0787  0.2389
  639MOL0     C86155   7.403   5.168   0.677 -0.6294  0.0443  0.6234
  639MOL0     C86156   7.276   5.118   0.646  1.2889 -0.0566  0.3134
  639MOL0     C86157   7.172   5.202   0.615  0.8218  0.3946  0.9059
  639MOL0     C86158   7.179   5.343   0.634 -0.1044 -0.3936 -0.8226
  639MOL0     C86159   7.053   5.425   0.606  0.1055  0.3120  0.5721
  639MOL0     O86160   6.941   5.351   0.577  0.3105  0.5519  0.7646
  639MOL0     C86161   6.821   5.412   0.579 -0.4450  0.0880 -1.0975
  639MOL0     C86162   6.775   5.504   0.490 -0.0701  0.7474  0.4357
  639MOL0     C86163   6.646   5.568   0.505  0.7327 -0.5970 -0.0339
  639MOL0     C86164   6.565   5.537   0.613  0.0384 -0.6261  1.0325
  639MOL0     O86165   6.461   5.617   0.627  0.0754 -0.0005 -0.7099
  639MOL0     C86166   6.353   5.569   0.714  1.0692 -0.1134  0.8213
  639MOL0     C86167   6.253   5.683   0.735  0.0929  0.9511 -0.5433
  639MOL0     C86168   6.130   5.626   0.813 -1.0875  0.4201 -0.1029
  639MOL0     C86169   6.036   5.745   0.857 -0.1235 -0.0364 -0.1435
  639MOL0     C86170   5.944   5.709   0.973 -0.1123  0.3375  0.2658
  639MOL0     C86171   5.798   5.727   0.942 -0.0195  0.0791 -0.1964
  639MOL0     C86172   5.740   5.638   0.834 -0.0927  0.7669  0.3033
  639MOL0     C86173   5.603   5.684   0.784  0.1322 -0.0156 -0.3583
  639MOL0    Cl86174   5.606   5.783   0.632  0.0276  0.0113 -0.2779
  639MOL0     C86175   6.609   5.420   0.687  0.0451 -0.3591 -0.3855
  639MOL0     C86176   6.737   5.370   0.681 -0.2577 -0.2247 -0.3296
  639MOL0     O86177   7.067   5.546   0.582 -0.0223  0.2181 -0.8046
  639MOL0     C86178   7.307   5.396   0.660 -0.0097  0.4376 -0.4188
  639MOL0     C86179   7.419   5.311   0.680 -0.5072  0.4063 -0.6147
  639MOL0     N86180   7.982   5.126   1.154 -0.2754  0.3800  0.2105
  639MOL0     N86181   8.084   5.143   1.233 -1.1510 -0.0035  0.1513
  639MOL0     C86182   9.184   5.401   1.329 -0.4762  0.8966  0.9018
  639MOL0     C86183   9.286   5.495   1.317 -0.3339 -0.1535 -0.2919
  639MOL0     C86184   9.632   5.774   1.219  0.3485  0.8780  0.5891
  639MOL0     C86185   9.660   5.767   1.079  0.0297  0.7517  1.4418
  639MOL0     C86186   9.756   5.841   1.024 -0.7264 -0.5302  0.3206
  639MOL0     C86187   9.831   5.930   1.102  0.1836  0.7514 -0.0052
  639MOL0     O86188   9.923   6.015   1.057  0.8525  0.0588 -0.2328
  639MOL0     C86189  10.013   5.965   0.953  0.4251  0.0450  0.1388
  639MOL0     C86190  10.153   6.028   0.969  0.6097 -0.6176  0.6312
  639MOL0     C86191  10.239   5.990   1.094 -0.1463 -0.2322 -0.3347
  639MOL0     C86192  10.387   6.030   1.069 -0.4108  0.0980 -0.3485
  639MOL0     C86193  10.470   6.052   1.186 -0.5407  1.0855  0.1264
  639MOL0     C86194  10.529   6.072   1.286 -0.1957  0.4079 -0.0194
  639MOL0     C86195   9.808   5.936   1.236 -0.5341  0.2371 -0.3687
  639MOL0     C86196   9.708   5.855   1.293 -0.1435 -0.6746 -0.7420
  639MOL0     C86197   9.683   5.876   1.441 -0.0203 -0.4946  0.2163
  639MOL0     H86198   9.514   5.317   1.151 -1.0121  2.3527 -2.0437
  639MOL0     H86199   9.351   5.146   1.187  1.2230  0.3035  0.1570
  639MOL0     H86200   9.159   5.113   1.505  0.4230 -0.5362 -1.1678
  639MOL0     H86201   9.017   5.228   1.484 -2.4205 -0.2075 -2.0154
  639MOL0     H86202   8.929   5.038   1.547  1.4145 -1.1331  0.4006
  639MOL0     H86203   9.014   4.945   1.423 -0.3172 -0.7219  0.8747
  639MOL0     H86204   8.897   5.049   1.235 -1.1812  2.8789 -2.1866
  639MOL0     H86205   8.827   5.167   1.347  1.8813  0.2414 -0.5163
  639MOL0     H86206   8.788   4.864   1.362 -0.7842  0.0798 -3.9195
  639MOL0     H86207   8.709   4.982   1.460 -0.6960 -0.4300 -0.7748
  639MOL0     H86208   8.629   5.090   1.217 -1.8625  0.5272  0.4424
  639MOL0     H86209   8.667   4.930   1.166 -0.9487 -0.8733  0.7095
  639MOL0     H86210   8.499   4.855   1.367 -0.9333  0.5062  1.9976
  639MOL0     H86211   8.498   5.030   1.408 -2.3050 -1.6659  1.0731
  639MOL0     H86212   8.375   4.921   1.165 -0.6850 -0.0818  0.3489
  639MOL0     H86213   8.392   5.098   1.210 -3.5041 -0.2203 -2.1546
  639MOL0     H86214   8.248   4.877   1.347  0.8136 -0.6093 -1.0421
  639MOL0     H86215   8.252   5.054   1.406  0.9255  1.8562 -1.6511
  639MOL0     H86216   8.144   4.854   1.078 -0.4521 -0.9048 -0.7304
  639MOL0     H86217   7.964   4.956   0.890  2.6476 -1.1453  1.2193
  639MOL0     H86218   7.875   4.867   1.013  2.3896  0.7648  2.3777
  639MOL0     H86219   7.719   5.061   1.042 -2.7970  4.8689 -1.6181
  639MOL0     H86220   7.823   5.166   0.946 -1.0159  0.0557 -0.0319
  639MOL0     H86221   7.675   4.925   0.870 -1.2185  1.7619  1.8460
  639MOL0     H86222   7.782   4.984   0.748 -0.7249 -3.1734  1.0982
  639MOL0     H86223   7.663   5.202   0.721  0.8919 -0.2991  0.6431
  639MOL0     H86224   7.570   5.179   0.873 -0.7112  2.4200 -1.4949
  639MOL0     H86225   7.276   5.009   0.641  1.5157  0.0037 -2.1675
  639MOL0     H86226   7.074   5.160   0.594  0.2866  0.2364  3.3561
  639MOL0     H86227   6.830   5.520   0.398 -0.8196  2.9755  0.3036
  639MOL0     H86228   6.610   5.634   0.427  1.9963 -2.3169 -2.1916
  639MOL0     H86229   6.317   5.483   0.656  2.0321 -0.3354  0.5378
  639MOL0     H86230   6.384   5.539   0.815 -0.4628 -1.5161  0.9363
  639MOL0     H86231   6.308   5.757   0.793 -0.0508  1.5111 -1.1063
  639MOL0     H86232   6.214   5.741   0.651 -4.0769  2.6382  2.2288
  639MOL0     H86233   6.069   5.559   0.751 -0.9245 -0.5592  0.7751
  639MOL0     H86234   6.167   5.563   0.894  1.0387  2.5166  0.6434
  639MOL0     H86235   5.981   5.799   0.780  0.9850  2.0058  0.4188
  639MOL0     H86236   6.110   5.816   0.896 -0.3699 -1.7030  3.9337
  639MOL0     H86237   5.967   5.778   1.055  0.8237  1.2741 -0.7508
  639MOL0     H86238   5.971   5.610   1.010  2.2465  1.1103  0.7832
  639MOL0     H86239   5.742   5.700   1.032 -1.0419  0.5721 -0.6770
  639MOL0     H86240   5.773   5.830   0.918 -4.3336 -0.9456 -1.0315
  639MOL0     H86241   5.723   5.533   0.859 -1.5854  1.0847  0.7727
  639MOL0     H86242   5.807   5.628   0.748 -2.6569  1.5118 -1.9450
  639MOL0     H86243   5.538   5.598   0.769 -0.6725  0.9235 -2.7309
  639MOL0     H86244   5.553   5.746   0.858 -3.4767  0.1480 -2.7080
  639MOL0     H86245   6.537   5.394   0.764 -1.0635  1.1422 -0.8685
  639MOL0     H86246   6.769   5.294   0.752 -2.9116 -0.5390  0.6381
  639MOL0     H86247   7.321   5.504   0.664 -2.7599  0.8247  2.5211
  639MOL0     H86248   7.515   5.350   0.711 -1.4776  2.0684  0.4833
  639MOL0     H86249   9.087   5.425   1.372 -0.4415 -1.7722  2.6799
  639MOL0     H86250   9.252   5.595   1.342  1.2990 -0.2043  2.6491
  639MOL0     H86251   9.600   5.705   1.013 -1.3956  4.1113 -0.6790
  639MOL0     H86252   9.780   5.845   0.918  2.1625  0.0093  0.9091
  639MOL0     H86253   9.974   5.985   0.853  1.8388  1.6219 -0.1534
  639MOL0     H86254  10.026   5.857   0.960  3.0127  0.3397  1.1854
  639MOL0     H86255  10.139   6.137   0.975 -1.7540 -0.8622  0.5188
  639MOL0     H86256  10.220   6.013   0.883 -0.3303  0.6837 -0.3763
  639MOL0     H86257  10.232   5.889   1.134  0.0823 -0.1460 -0.0728
  639MOL0     H86258  10.188   6.050   1.170  0.3171 -1.4778  0.9863
  639MOL0     H86259  10.437   5.948   1.017  1.5284 -0.0520  1.6340
  639MOL0     H86260  10.398   6.116   1.002  1.9133  0.5465  0.5345
  639MOL0     H86261  10.589   6.071   1.374  0.1957  3.5262 -0.1408
  639MOL0     H86262   9.870   5.993   1.305 -2.4251  1.9473 -0.0088
  639MOL0     H86263   9.575   5.872   1.460  0.3386  1.7272  3.4341
  639MOL0     H86264   9.726   5.796   1.502  0.5940 -1.0253 -0.8699
  639MOL0     H86265   9.711   5.973   1.483 -0.0555 -0.8483  1.0767
  640MOL0     O86266   2.686  11.439   4.839 -0.3624 -0.1641  0.2028
  640MOL0     C86267   2.588  11.377   4.873 -0.0788 -0.3475  0.5169
  640MOL0     O86268   2.498  11.320   4.787 -0.3968  0.0136  0.3568
  640MOL0     C86269   2.503  11.347   4.652 -0.3860 -0.9016 -1.3627
  640MOL0     C86270   2.429  11.255   4.579  0.5077  0.9078 -0.2241
  640MOL0     C86271   2.427  11.262   4.440  1.2862 -0.0037 -0.3155
  640MOL0     C86272   2.466  11.379   4.384 -0.3970  0.4839 -0.6283
  640MOL0     O86273   2.436  11.397   4.260 -0.0903  0.5794 -0.0848
  640MOL0     C86274   2.550  11.385   4.164  0.4374  0.9671  0.2236
  640MOL0     C86275   2.490  11.392   4.028 -0.5723  0.3346 -0.4873
  640MOL0     C86276   2.588  11.369   3.905  0.1875  0.4309 -0.0593
  640MOL0     C86277   2.503  11.366   3.776 -0.2433 -0.3505  0.0059
  640MOL0     C86278   2.600  11.379   3.654 -0.3704 -0.8614 -0.5194
  640MOL0     C86279   2.644  11.531   3.632  0.4617  0.4225  0.8106
  640MOL0     C86280   2.687  11.558   3.481  0.0705 -0.3808  0.4230
  640MOL0     C86281   2.767  11.702   3.464  0.2893 -0.1393 -1.0192
  640MOL0     N86282   2.776  11.742   3.328 -1.0072  0.2843  0.4625
  640MOL0     C86283   2.739  11.863   3.275  0.8629  0.9812 -1.4551
  640MOL0     C86284   2.763  11.848   3.144 -0.4367  0.9326 -0.3084
  640MOL0     C86285   2.738  11.950   3.040  0.0641  0.2935  0.0630
  640MOL0     C86286   2.706  11.874   2.913 -0.7487  0.5645  0.9190
  640MOL0     C86287   2.650  11.972   2.806 -0.0037  0.0780  0.0436
  640MOL0     C86288   2.638  11.901   2.664  0.7381  0.2265 -0.0448
  640MOL0     O86289   2.571  11.999   2.585 -0.0048  0.5228 -0.7771
  640MOL0     C86290   2.541  11.974   2.456  0.5314  0.5974 -0.5498
  640MOL0     C86291   2.611  11.887   2.371  0.1714  0.2691  0.1060
  640MOL0     C86292   2.558  11.868   2.244  0.3765 -0.0725  0.6188
  640MOL0     C86293   2.446  11.951   2.195 -0.3310  0.9585  0.3694
  640MOL0     C86294   2.390  11.939   2.057 -0.4284  0.6452  0.2331
  640MOL0     O86295   2.284  12.015   2.010 -0.6377 -0.8796  0.3703
  640MOL0     C86296   2.238  11.995   1.879 -0.2681 -0.3466 -0.7924
  640MOL0     C86297   2.145  11.892   1.846  0.0505 -1.0392 -0.0581
  640MOL0     C86298   2.107  11.864   1.712 -1.4472  0.7003  0.0769
  640MOL0     C86299   2.164  11.933   1.605  0.9651  0.1441  0.0404
  640MOL0     O86300   2.160  11.876   1.479 -0.2234 -0.2505  0.0286
  640MOL0     C86301   2.192  11.962   1.371 -0.2661 -0.5707 -0.7151
  640MOL0     C86302   2.190  11.871   1.248  1.4583 -0.1096 -0.2576
  640MOL0     C86303   2.050  11.809   1.217 -0.4944  0.2774  0.7420
  640MOL0     C86304   2.055  11.708   1.100 -1.1342 -0.1456  0.5554
  640MOL0     C86305   1.910  11.659   1.054  0.1272  0.2426 -0.6223
  640MOL0     C86306   1.902  11.575   0.926 -0.0156  0.4194  0.7261
  640MOL0     C86307   1.762  11.532   0.905  0.5714 -0.5252 -0.5838
  640MOL0     C86308   1.766  11.417   0.798  0.3767  0.0148  0.0037
  640MOL0    Cl86309   1.594  11.403   0.752 -0.2880  0.6624  0.1004
  640MOL0     C86310   2.258  12.035   1.642 -0.0732  0.2816  0.5130
  640MOL0     C86311   2.292  12.065   1.771  0.4022 -0.1483  0.7766
  640MOL0     O86312   2.451  11.853   1.990  0.3603  0.6989  0.0481
  640MOL0     C86313   2.380  12.037   2.285  1.0873 -0.3301  0.4144
  640MOL0     C86314   2.431  12.045   2.412  0.1031  0.3783  0.0388
  640MOL0     N86315   2.820  11.722   3.131  0.2861  0.8839 -0.9070
  640MOL0     N86316   2.831  11.653   3.242  0.0104 -0.2409  0.9750
  640MOL0     C86317   2.531  11.479   4.456  0.1414  0.4196 -0.3444
  640MOL0     C86318   2.553  11.463   4.588 -0.2926 -0.2419 -0.0920
  640MOL0     C86319   2.577  11.358   5.023  0.1744 -0.5494  0.6566
  640MOL0     C86320   2.686  11.405   5.107 -1.2002 -0.2333 -0.7055
  640MOL0     C86321   2.686  11.383   5.244 -0.2905  0.0147 -0.7905
  640MOL0     C86322   2.590  11.308   5.310 -0.7122  0.8405 -0.0427
  640MOL0     O86323   2.616  11.281   5.446 -0.6644  0.8055 -0.4814
  640MOL0     C86324   2.516  11.209   5.512 -0.0937 -1.1486 -0.1276
  640MOL0     C86325   2.395  11.301   5.552  0.4617  0.3567  0.6057
  640MOL0     C86326   2.436  11.440   5.599 -0.4571  0.7241  0.6673
  640MOL0     C86327   2.341  11.504   5.699  0.0127  0.1734 -0.3728
  640MOL0     C86328   2.211  11.515   5.635  0.9620  0.0158 -0.0775
  640MOL0     C86329   2.103  11.536   5.579 -0.2175 -0.0786 -0.0236
  640MOL0     C86330   2.486  11.255   5.230 -0.6602 -0.0087 -0.5550
  640MOL0     C86331   2.473  11.279   5.089 -0.1696  0.4076  0.0765
  640MOL0     C86332   2.344  11.240   5.017 -0.5434  0.1712 -0.4787
  640MOL0     H86333   2.374  11.181   4.636 -1.5330  1.9752 -0.7170
  640MOL0     H86334   2.385  11.180   4.383  2.8711 -0.2781 -1.1593
  640MOL0     H86335   2.629  11.456   4.189  0.9729 -0.1481  1.9508
  640MOL0     H86336   2.599  11.288   4.176 -4.3886 -1.8434 -0.0736
  640MOL0     H86337   2.432  11.484   4.014 -0.2713  0.1856 -3.1613
  640MOL0     H86338   2.414  11.313   4.022 -0.7511  0.4353  0.3259
  640MOL0     H86339   2.642  11.275   3.921 -0.6303  0.0908  0.8126
  640MOL0     H86340   2.657  11.453   3.917 -0.8039  1.5435 -1.7843
  640MOL0     H86341   2.461  11.265   3.771 -0.0534 -0.7915  3.9133
  640MOL0     H86342   2.425  11.442   3.768  0.1769 -0.1080 -3.2443
  640MOL0     H86343   2.690  11.318   3.672 -0.0108 -0.4238 -0.8124
  640MOL0     H86344   2.549  11.354   3.561  0.0397 -1.6014 -0.5571
  640MOL0     H86345   2.553  11.589   3.652 -1.5104 -1.4507 -2.0333
  640MOL0     H86346   2.726  11.553   3.701  0.7982 -0.4881  0.7130
  640MOL0     H86347   2.604  11.561   3.410  0.8754 -1.3154 -0.6126
  640MOL0     H86348   2.760  11.483   3.448 -0.2398 -0.4534 -0.1226
  640MOL0     H86349   2.717  11.777   3.525 -2.5789 -1.2439 -1.8877
  640MOL0     H86350   2.871  11.695   3.499  0.4932  0.9097 -1.3650
  640MOL0     H86351   2.708  11.953   3.327 -3.3288 -1.8820  1.7794
  640MOL0     H86352   2.670  12.032   3.064  0.1972  0.7185 -0.9462
  640MOL0     H86353   2.835  11.995   3.015 -0.0826  0.1493 -0.8078
  640MOL0     H86354   2.796  11.822   2.878 -0.2565  1.8362  0.2021
  640MOL0     H86355   2.635  11.794   2.936  2.5006 -2.2056  2.1834
  640MOL0     H86356   2.708  12.064   2.794  0.5418 -0.0784  1.3351
  640MOL0     H86357   2.546  11.997   2.830 -0.2334  0.4198 -1.2407
  640MOL0     H86358   2.593  11.802   2.662 -1.9136  1.3439  0.7175
  640MOL0     H86359   2.740  11.892   2.624  0.3432  0.1146 -1.0566
  640MOL0     H86360   2.693  11.823   2.401 -0.6788 -1.4256 -1.0094
  640MOL0     H86361   2.609  11.794   2.184  2.0065  0.3589  1.4245
  640MOL0     H86362   2.100  11.830   1.924 -2.0087 -1.3162 -1.3778
  640MOL0     H86363   2.037  11.783   1.694 -1.8528 -0.4185  5.0737
  640MOL0     H86364   2.123  12.046   1.363 -0.7498 -0.3667  3.4510
  640MOL0     H86365   2.293  12.003   1.385  0.3979 -2.2791 -0.2813
  640MOL0     H86366   2.214  11.934   1.161  0.4632 -0.3632 -0.7294
  640MOL0     H86367   2.259  11.787   1.256  2.7368  0.7720 -1.4312
  640MOL0     H86368   2.002  11.774   1.309 -0.0399  1.5155  1.4742
  640MOL0     H86369   2.007  11.903   1.183  0.2336  0.6464  0.8280
  640MOL0     H86370   2.117  11.621   1.119 -1.7981 -2.1443 -4.7700
  640MOL0     H86371   2.115  11.747   1.017  0.4554 -3.3239  0.0838
  640MOL0     H86372   1.848  11.748   1.040  1.0945  0.6350 -2.7014
  640MOL0     H86373   1.868  11.600   1.137  2.1408  1.5337  1.4278
  640MOL0     H86374   1.948  11.621   0.837  0.8391  0.5302  1.2142
  640MOL0     H86375   1.965  11.490   0.954  0.3246  0.7834  1.0869
  640MOL0     H86376   1.703  11.613   0.862 -0.9885 -1.6657 -0.6759
  640MOL0     H86377   1.710  11.522   1.000 -0.3223  2.1748 -0.6931
  640MOL0     H86378   1.819  11.442   0.706 -0.6435 -0.9739 -0.8908
  640MOL0     H86379   1.797  11.319   0.836 -2.0872 -2.0719 -2.8492
  640MOL0     H86380   2.294  12.094   1.559  2.2835  1.8109  2.4840
  640MOL0     H86381   2.361  12.145   1.794 -0.5714  0.8693  0.2407
  640MOL0     H86382   2.296  12.096   2.251  0.2824 -0.9395  1.2895
  640MOL0     H86383   2.381  12.109   2.485 -1.1324 -2.1010  1.4955
  640MOL0     H86384   2.556  11.559   4.387 -1.8270 -0.7944 -2.5964
  640MOL0     H86385   2.620  11.529   4.642  3.7060 -3.6666 -0.3954
  640MOL0     H86386   2.780  11.453   5.080  1.1517 -3.8939  0.2252
  640MOL0     H86387   2.769  11.426   5.300  0.0348 -1.0583 -0.4176
  640MOL0     H86388   2.563  11.177   5.605 -0.0839 -1.6456 -0.3036
  640MOL0     H86389   2.489  11.116   5.461  3.3446 -2.1562 -0.3865
  640MOL0     H86390   2.333  11.250   5.626 -2.0082 -0.1733 -1.6439
  640MOL0     H86391   2.331  11.311   5.463  1.3341  0.7855  0.0036
  640MOL0     H86392   2.441  11.508   5.513 -1.7146 -1.5853 -1.3581
  640MOL0     H86393   2.536  11.434   5.645  0.3167  1.3394 -0.8755
  640MOL0     H86394   2.334  11.458   5.798 -2.9021 -1.1522 -1.0856
  640MOL0     H86395   2.383  11.604   5.710  0.0484  0.3133 -1.6192
  640MOL0     H86396   2.005  11.539   5.536  0.7236 -0.6214 -2.3654
  640MOL0     H86397   2.409  11.193   5.274 -2.5792  1.8813 -1.0827
  640MOL0     H86398   2.368  11.155   4.953  1.3452 -0.4812  0.9986
  640MOL0     H86399   2.260  11.205   5.079 -0.7862 -0.5019 -1.1823
  640MOL0     H86400   2.308  11.332   4.970  2.7912  0.4761 -2.7384
  641MOL0     O86401   5.745   4.661   9.288 -0.1720 -0.2869 -1.2710
  641MOL0     C86402   5.655   4.577   9.288 -0.3993 -0.3031 -0.0168
  641MOL0     O86403   5.518   4.601   9.254 -0.0133  0.4547 -1.2666
  641MOL0     C86404   5.485   4.700   9.159 -0.5948  0.1267  0.4642
  641MOL0     C86405   5.572   4.755   9.070 -0.3677 -0.8649  0.4570
  641MOL0     C86406   5.523   4.850   8.982 -0.0775 -1.1521 -0.0628
  641MOL0     C86407   5.393   4.892   8.978 -0.2658  0.4831 -0.2787
  641MOL0     O86408   5.363   4.993   8.887  0.2654 -0.3007 -0.0222
  641MOL0     C86409   5.231   5.008   8.827  0.9579 -0.0152 -0.7899
  641MOL0     C86410   5.234   5.133   8.742  0.6108 -0.3000  1.3074
  641MOL0     C86411   5.248   5.260   8.823 -0.3562 -0.6546 -0.2704
  641MOL0     C86412   5.262   5.387   8.741  0.1099  0.0113 -0.3305
  641MOL0     C86413   5.296   5.513   8.830  0.2129 -0.1511  0.4393
  641MOL0     C86414   5.319   5.642   8.745  0.1398  0.1439 -0.3123
  641MOL0     C86415   5.191   5.730   8.744  0.9302 -0.7402 -0.5871
  641MOL0     C86416   5.167   5.773   8.599 -0.0694 -0.0782  0.0915
  641MOL0     N86417   5.086   5.901   8.589  0.5216 -0.0770 -0.5345
  641MOL0     C86418   5.005   5.951   8.685 -0.0450 -0.6211 -0.9150
  641MOL0     C86419   4.920   6.032   8.618 -0.2357  0.1102 -0.2818
  641MOL0     C86420   4.812   6.119   8.680 -1.0166 -0.6790  0.0902
  641MOL0     C86421   4.871   6.230   8.775  0.5690 -0.0667  0.6973
  641MOL0     C86422   4.829   6.211   8.925 -0.1075  0.1045  0.4701
  641MOL0     C86423   4.901   6.104   9.005  0.9556  0.5774 -0.2752
  641MOL0     O86424   4.820   5.984   8.968 -0.6462  0.1610 -0.0577
  641MOL0     C86425   4.875   5.867   8.998 -0.4899  1.0490 -0.3846
  641MOL0     C86426   4.827   5.752   8.942 -0.0503 -0.1957 -0.4996
  641MOL0     C86427   4.865   5.623   8.982 -0.2079 -0.3150  1.1728
  641MOL0     C86428   4.980   5.609   9.058 -0.5682  0.8438  0.0001
  641MOL0     C86429   5.027   5.476   9.099  1.0640 -0.1287  0.1685
  641MOL0     O86430   5.134   5.472   9.175 -0.2409 -0.6505 -1.1503
  641MOL0     C86431   5.216   5.365   9.198 -0.5344  0.1736 -0.4797
  641MOL0     C86432   5.352   5.403   9.218 -0.8806  0.6780 -0.9076
  641MOL0     C86433   5.460   5.312   9.251 -0.0423 -0.6571 -0.0619
  641MOL0     C86434   5.426   5.186   9.287 -0.6712  0.3184 -0.3275
  641MOL0     O86435   5.532   5.112   9.330 -0.0572 -0.0236  0.1607
  641MOL0     C86436   5.508   5.013   9.433  0.3677  0.3300  0.1301
  641MOL0     C86437   5.644   4.944   9.451  0.0926  0.8004  0.0930
  641MOL0     C86438   5.734   5.015   9.541  0.5468  0.2515  0.3130
  641MOL0     C86439   5.869   4.950   9.559 -0.1702  0.4191 -0.6390
  641MOL0     C86440   5.859   4.846   9.668  0.4017  0.6807  0.6632
  641MOL0     C86441   5.985   4.775   9.688 -0.6407  0.2487  0.2025
  641MOL0     C86442   6.110   4.866   9.709  0.3982  0.0385  1.5158
  641MOL0     C86443   6.223   4.771   9.720  0.2843  0.0990  0.9703
  641MOL0    Cl86444   6.354   4.877   9.701 -0.1006 -0.4987 -0.0860
  641MOL0     C86445   5.298   5.141   9.268 -0.1230 -0.5366 -0.7121
  641MOL0     C86446   5.191   5.234   9.217  0.1195  0.6221  0.3140
  641MOL0     O86447   4.978   5.386   9.035  0.4837 -0.0193 -0.2389
  641MOL0     C86448   5.049   5.719   9.092 -0.0879 -0.0665  0.7137
  641MOL0     C86449   4.998   5.845   9.063 -0.0287 -0.1249 -0.7358
  641MOL0     N86450   4.943   6.026   8.486 -0.5745  0.6367  0.2006
  641MOL0     N86451   5.044   5.944   8.469 -0.4091 -0.7249 -0.1994
  641MOL0     C86452   5.303   4.825   9.067  0.1797 -0.4144 -0.1014
  641MOL0     C86453   5.355   4.732   9.159  0.1379  0.2757  0.3546
  641MOL0     C86454   5.687   4.435   9.347 -0.1053 -0.8930  0.3428
  641MOL0     C86455   5.579   4.358   9.390 -0.3912  0.4099  0.2059
  641MOL0     C86456   5.589   4.235   9.451  0.7193 -0.7016  1.0361
  641MOL0     C86457   5.715   4.179   9.461  0.5853  0.1437 -0.0647
  641MOL0     O86458   5.741   4.042   9.482 -0.1465 -0.3051 -0.8312
  641MOL0     C86459   5.632   3.963   9.525  0.5816  0.5515 -0.4341
  641MOL0     C86460   5.689   3.859   9.614  0.4476  0.0030  0.1513
  641MOL0     C86461   5.760   3.751   9.541  0.3156 -0.6673  0.1228
  641MOL0     C86462   5.767   3.626   9.634 -0.8936 -0.2979  0.2173
  641MOL0     C86463   5.885   3.642   9.723  0.9388  0.5478  0.2271
  641MOL0     C86464   5.995   3.648   9.784  0.7037  1.0595  0.4154
  641MOL0     C86465   5.832   4.255   9.441 -0.4169  0.4612  0.2500
  641MOL0     C86466   5.818   4.388   9.384  0.1515  0.6123 -0.1932
  641MOL0     C86467   5.944   4.462   9.350 -0.1839 -0.4074 -0.0927
  641MOL0     H86468   5.677   4.733   9.056 -0.2755  0.2005 -0.6868
  641MOL0     H86469   5.596   4.901   8.920 -1.2484  0.3166 -0.3055
  641MOL0     H86470   5.192   4.920   8.775  2.4585 -0.9089 -0.4769
  641MOL0     H86471   5.149   5.020   8.897 -0.6265 -1.5582 -2.2819
  641MOL0     H86472   5.133   5.141   8.701  1.0165  0.6599  0.4672
  641MOL0     H86473   5.310   5.140   8.663  1.3261 -1.8017  1.8152
  641MOL0     H86474   5.342   5.252   8.878  0.7384  3.3451 -1.2234
  641MOL0     H86475   5.171   5.268   8.900  3.1133 -3.5321  3.9879
  641MOL0     H86476   5.332   5.373   8.658  0.9075  0.5455  0.2331
  641MOL0     H86477   5.162   5.400   8.699  0.0551  2.3197  0.3864
  641MOL0     H86478   5.220   5.527   8.907  0.9243  0.0873  1.1179
  641MOL0     H86479   5.393   5.496   8.878  1.0461 -1.0889 -1.4984
  641MOL0     H86480   5.402   5.710   8.767 -0.6891  1.0786  0.0070
  641MOL0     H86481   5.338   5.600   8.646  1.3385 -4.6464  1.6887
  641MOL0     H86482   5.218   5.818   8.804 -0.6688  0.3616 -1.3985
  641MOL0     H86483   5.102   5.681   8.783  1.5184  1.3656  4.0574
  641MOL0     H86484   5.265   5.799   8.556 -0.0980  0.8020  0.5249
  641MOL0     H86485   5.121   5.689   8.547  1.2580 -1.8095  1.5878
  641MOL0     H86486   4.993   5.919   8.788  0.0139  1.1572 -0.3151
  641MOL0     H86487   4.770   6.181   8.600 -0.0704  1.0181  0.8542
  641MOL0     H86488   4.738   6.052   8.725 -0.1769  0.8228  4.0682
  641MOL0     H86489   4.980   6.239   8.769  0.6526 -1.8281 -2.0499
  641MOL0     H86490   4.830   6.327   8.746  0.4356 -0.3206  0.0287
  641MOL0     H86491   4.722   6.193   8.930 -0.0423 -0.1922  0.7935
  641MOL0     H86492   4.842   6.306   8.979 -1.8333  1.9329 -2.0829
  641MOL0     H86493   4.902   6.125   9.113  1.3253  2.3900 -0.6045
  641MOL0     H86494   5.003   6.107   8.965  0.3967 -0.2208 -1.8369
  641MOL0     H86495   4.740   5.758   8.878  0.3367 -0.9790 -1.1192
  641MOL0     H86496   4.809   5.537   8.947  3.7478 -1.8678 -2.1506
  641MOL0     H86497   5.383   5.507   9.213 -4.5401  2.1635  2.5148
  641MOL0     H86498   5.559   5.356   9.251 -0.1189 -0.4844  0.0205
  641MOL0     H86499   5.469   5.053   9.526 -0.0357  0.0803  0.0714
  641MOL0     H86500   5.433   4.941   9.398 -0.1428  1.6117 -1.5840
  641MOL0     H86501   5.621   4.843   9.487 -3.3441 -0.1473 -3.9274
  641MOL0     H86502   5.686   4.913   9.355 -1.2373 -2.6388  0.4561
  641MOL0     H86503   5.756   5.110   9.491 -0.4631 -0.3343 -1.3217
  641MOL0     H86504   5.671   5.028   9.630 -1.6576  0.8879 -1.2750
  641MOL0     H86505   5.937   5.030   9.588 -2.0112  1.0972  2.2187
  641MOL0     H86506   5.911   4.908   9.467  2.0602 -0.8111  0.8572
  641MOL0     H86507   5.786   4.768   9.645  2.2287 -1.2785  1.2292
  641MOL0     H86508   5.815   4.885   9.760 -2.4811 -1.0967  0.1598
  641MOL0     H86509   5.968   4.718   9.780 -0.8380 -2.8011 -1.6028
  641MOL0     H86510   6.004   4.715   9.599  2.6116  4.3302 -2.2009
  641MOL0     H86511   6.106   4.928   9.799  0.6269  1.2347  0.7229
  641MOL0     H86512   6.131   4.929   9.622  0.1179  1.0542  2.1657
  641MOL0     H86513   6.230   4.724   9.818 -2.1705  0.6251  1.4710
  641MOL0     H86514   6.209   4.692   9.646  1.0565 -0.6261  1.5914
  641MOL0     H86515   5.261   5.040   9.287  0.7065 -0.5774  0.7547
  641MOL0     H86516   5.090   5.204   9.192  0.2875  0.9477 -0.7926
  641MOL0     H86517   5.142   5.737   9.146 -0.1835  0.5700  0.6797
  641MOL0     H86518   5.068   5.922   9.095 -1.8158  1.4345 -0.4129
  641MOL0     H86519   5.200   4.860   9.069 -0.3974 -2.0281  1.9713
  641MOL0     H86520   5.290   4.686   9.233 -0.1342 -0.1926 -0.1684
  641MOL0     H86521   5.479   4.397   9.374 -0.3571  0.9260  1.1330
  641MOL0     H86522   5.497   4.183   9.476 -1.0003  2.6834  2.4219
  641MOL0     H86523   5.587   3.918   9.436 -1.4871 -0.0626  0.8443
  641MOL0     H86524   5.549   4.014   9.576 -0.3435  0.4421 -1.7959
  641MOL0     H86525   5.613   3.807   9.673  0.6095 -0.4311 -0.0189
  641MOL0     H86526   5.753   3.908   9.688  3.6343 -1.0675 -1.6812
  641MOL0     H86527   5.856   3.791   9.506  0.2914 -2.5165 -2.3505
  641MOL0     H86528   5.700   3.729   9.452  2.0863  0.0217 -1.3167
  641MOL0     H86529   5.679   3.601   9.694 -1.5492 -1.0055 -0.9866
  641MOL0     H86530   5.779   3.538   9.569  2.1403  1.9654 -2.6263
  641MOL0     H86531   6.087   3.640   9.839  0.6836 -0.3037  0.2894
  641MOL0     H86532   5.932   4.216   9.452 -0.8507 -0.1166  2.8020
  641MOL0     H86533   5.966   4.536   9.427  2.0220 -1.4448  0.3404
  641MOL0     H86534   6.033   4.400   9.343  1.3776  1.7109  0.0779
  641MOL0     H86535   5.931   4.498   9.247 -1.6418 -1.0937 -0.1863
  642MOL0     O86536   2.603   8.971   9.336  0.2245  0.2235  0.5520
  642MOL0     C86537   2.698   8.889   9.337  1.0014 -0.2187  0.7020
  642MOL0     O86538   2.825   8.921   9.371 -0.3880 -0.1828  0.8856
  642MOL0     C86539   2.844   9.038   9.439 -0.8656  0.2107 -0.2993
  642MOL0     C86540   2.843   9.039   9.578 -1.6617 -0.0683  0.0777
  642MOL0     C86541   2.887   9.154   9.638  0.7451 -0.5655  0.6187
  642MOL0     C86542   2.923   9.268   9.567 -0.3875 -0.6311 -0.1871
  642MOL0     O86543   2.987   9.378   9.621 -0.4646  0.4527  0.4804
  642MOL0     C86544   3.043   9.376   9.750 -0.4010  0.1756  0.0297
  642MOL0     C86545   3.198   9.412   9.739  0.4065 -0.1973 -0.7387
  642MOL0     C86546   3.264   9.393   9.877 -0.3408 -0.3319 -0.3901
  642MOL0     C86547   3.219   9.493   9.990 -0.6520  0.5872 -0.8308
  642MOL0     C86548   3.283   9.451  10.118  0.5037  0.8328 -0.1900
  642MOL0     C86549   3.288   9.552  10.227  0.8143 -0.2382 -0.3939
  642MOL0     C86550   3.156   9.529  10.309  0.4039 -0.1463  0.2723
  642MOL0     C86551   3.158   9.621  10.440 -0.1584  0.9319 -0.1006
  642MOL0     N86552   3.121   9.764  10.425 -0.4995 -0.1381 -0.3749
  642MOL0     C86553   3.002   9.807  10.492  0.8243 -0.1999 -0.7452
  642MOL0     C86554   3.025   9.943  10.509  0.7444  0.2617 -0.4906
  642MOL0     C86555   2.953  10.052  10.575  1.0351 -0.2573 -0.5416
  642MOL0     C86556   2.905  10.174  10.480 -0.4733  1.4272 -0.1057
  642MOL0     C86557   2.818  10.277  10.556  0.8619  0.6212 -0.3971
  642MOL0     C86558   2.877  10.328  10.691 -0.5573  0.0171  0.1138
  642MOL0     O86559   2.776  10.413  10.744 -0.4762  0.6863  0.2075
  642MOL0     C86560   2.811  10.506  10.839 -0.6575 -0.7263  0.2715
  642MOL0     C86561   2.923  10.497  10.923 -0.3304 -0.5747 -0.1297
  642MOL0     C86562   2.948  10.602  11.011 -0.8503 -0.4328  0.9737
  642MOL0     C86563   2.873  10.728  11.013 -0.4629  0.4070  0.7662
  642MOL0     C86564   2.913  10.831  11.102 -0.0859 -1.3735  0.2617
  642MOL0     O86565   2.834  10.941  11.108  0.5039 -0.0549  0.0028
  642MOL0     C86566   2.894  11.051  11.156  0.1879 -0.4921 -0.1534
  642MOL0     C86567   2.886  11.162  11.067  0.8234 -0.6229 -0.1391
  642MOL0     C86568   2.931  11.291  11.108 -0.4607  1.0694 -0.2402
  642MOL0     C86569   2.988  11.309  11.241  0.2155 -0.4377  0.5644
  642MOL0     O86570   3.056  11.430  11.272  0.7805  0.7358  0.0670
  642MOL0     C86571   2.998  11.551  11.226 -0.3180 -0.6529 -0.6002
  642MOL0     C86572   3.048  11.677  11.306  0.3523 -1.1571 -0.6248
  642MOL0     C86573   3.012  11.676  11.452 -0.2315  0.1206 -0.2323
  642MOL0     C86574   2.853  11.687  11.465  0.5894  0.7039  0.5570
  642MOL0     C86575   2.796  11.656  11.607  0.0403 -0.6840 -0.6280
  642MOL0     C86576   2.643  11.621  11.606  0.1215 -0.3996 -0.3192
  642MOL0     C86577   2.590  11.625  11.747  0.2116 -0.3462  0.4502
  642MOL0     C86578   2.491  11.735  11.755 -0.6137  0.5072  0.4294
  642MOL0    Cl86579   2.574  11.884  11.754 -0.3107 -0.4160 -0.0669
  642MOL0     C86580   2.991  11.209  11.336 -0.2725  0.3269 -0.4484
  642MOL0     C86581   2.938  11.082  11.288 -0.1875  0.2809 -0.3616
  642MOL0     O86582   3.024  10.824  11.156  0.5593 -0.6129 -0.0131
  642MOL0     C86583   2.758  10.729  10.931  0.5909 -0.1484 -0.3261
  642MOL0     C86584   2.735  10.623  10.835  0.6234  0.2010  0.0027
  642MOL0     N86585   3.148   9.976  10.448 -0.2108  0.6582 -0.9607
  642MOL0     N86586   3.209   9.870  10.407  0.3135 -0.6540  0.7704
  642MOL0     C86587   2.902   9.264   9.435  0.1095 -0.8978 -0.3049
  642MOL0     C86588   2.853   9.154   9.363 -0.2729  0.1318 -0.6279
  642MOL0     C86589   2.663   8.744   9.305 -0.6018  0.1520  0.0987
  642MOL0     C86590   2.543   8.681   9.339 -0.3156 -0.3023  0.5384
  642MOL0     C86591   2.506   8.553   9.315 -0.3478  0.8251 -0.4257
  642MOL0     C86592   2.598   8.463   9.261 -0.0133 -0.5119  0.3735
  642MOL0     O86593   2.572   8.333   9.241 -1.0216  0.6752  0.5359
  642MOL0     C86594   2.478   8.267   9.329 -0.0200  0.3886  0.4555
  642MOL0     C86595   2.525   8.118   9.358 -0.4585  0.0857  0.0197
  642MOL0     C86596   2.420   8.036   9.433  1.2487  0.0168 -1.0079
  642MOL0     C86597   2.454   7.888   9.465 -0.1668 -0.8181  0.4234
  642MOL0     C86598   2.340   7.802   9.462  0.3478  0.0518  0.1125
  642MOL0     C86599   2.249   7.722   9.455 -0.5840 -0.4454  0.1956
  642MOL0     C86600   2.723   8.517   9.233  0.3471  0.1030  0.6929
  642MOL0     C86601   2.760   8.651   9.254  0.3018  0.9791 -0.5473
  642MOL0     C86602   2.888   8.691   9.201 -0.4660 -0.4466 -0.0445
  642MOL0     H86603   2.817   8.949   9.633  0.1307  0.5814  2.1261
  642MOL0     H86604   2.907   9.143   9.744  0.8552  2.3311  0.9860
  642MOL0     H86605   2.981   9.446   9.808 -1.6484  0.2804 -1.3578
  642MOL0     H86606   3.026   9.277   9.794 -3.8562  1.3846  1.8317
  642MOL0     H86607   3.200   9.517   9.711  0.7261  0.0327  0.1034
  642MOL0     H86608   3.249   9.343   9.672 -0.1984 -2.4536  0.9807
  642MOL0     H86609   3.373   9.395   9.867 -0.2914  2.1226 -0.0361
  642MOL0     H86610   3.248   9.294   9.921 -2.0411  1.0132  2.2769
  642MOL0     H86611   3.235   9.599   9.966  2.5007  0.0785 -1.5198
  642MOL0     H86612   3.112   9.470   9.989 -0.4238 -0.5876 -0.0426
  642MOL0     H86613   3.254   9.350  10.147  0.6843  1.3714  2.0288
  642MOL0     H86614   3.391   9.442  10.106  0.4428 -0.6626  0.2480
  642MOL0     H86615   3.365   9.510  10.293 -0.1755 -0.7025  0.5157
  642MOL0     H86616   3.305   9.654  10.194 -1.5794  1.1738  2.2499
  642MOL0     H86617   3.117   9.430  10.330 -1.5414 -0.1587 -2.8331
  642MOL0     H86618   3.073   9.559  10.244 -1.6170 -2.7749  1.4811
  642MOL0     H86619   3.083   9.571  10.501  0.4280 -0.8434 -0.7745
  642MOL0     H86620   3.252   9.590  10.487  0.7501  0.6496 -1.9850
  642MOL0     H86621   2.923   9.749  10.537  0.9490 -1.7800 -2.4336
  642MOL0     H86622   2.866   9.998  10.613  1.8732 -0.9037  0.4955
  642MOL0     H86623   3.032  10.077  10.646  1.9810 -2.8516 -0.5755
  642MOL0     H86624   2.995  10.224  10.442 -0.5816  1.4275 -0.3634
  642MOL0     H86625   2.845  10.140  10.395 -0.1668 -0.2848  0.3303
  642MOL0     H86626   2.720  10.236  10.581  0.4027  0.9608 -1.5738
  642MOL0     H86627   2.790  10.360  10.491 -1.7555 -1.7957 -2.6585
  642MOL0     H86628   2.968  10.384  10.669  1.6832 -4.1766 -2.7802
  642MOL0     H86629   2.902  10.242  10.754 -1.2820 -0.6210 -0.4337
  642MOL0     H86630   2.995  10.416  10.913  0.4579  0.0251  0.4845
  642MOL0     H86631   3.037  10.586  11.072  0.9750  0.8508 -1.1857
  642MOL0     H86632   2.870  11.159  10.960 -0.2360 -0.7040  0.0147
  642MOL0     H86633   2.940  11.366  11.030  1.7065  0.6772 -0.4307
  642MOL0     H86634   3.017  11.576  11.121 -0.1659  0.6179 -0.2866
  642MOL0     H86635   2.890  11.549  11.242  0.0454  0.5056  2.6195
  642MOL0     H86636   3.156  11.691  11.293  0.2911  0.9823  0.6610
  642MOL0     H86637   3.002  11.767  11.265  1.9676 -0.3128 -0.6786
  642MOL0     H86638   3.047  11.583  11.498 -0.9040  1.7942  4.1511
  642MOL0     H86639   3.062  11.755  11.510 -1.3927  2.1166 -1.8073
  642MOL0     H86640   2.791  11.627  11.398  0.8291 -0.7608  1.6139
  642MOL0     H86641   2.843  11.791  11.430 -1.8865 -0.0907 -1.4185
  642MOL0     H86642   2.813  11.745  11.668 -2.0376  0.5626 -1.7437
  642MOL0     H86643   2.853  11.576  11.654  1.2081  0.2574 -0.3807
  642MOL0     H86644   2.592  11.698  11.548  1.8666  0.9205 -0.1963
  642MOL0     H86645   2.632  11.524  11.556 -2.2716 -0.5469  0.3912
  642MOL0     H86646   2.668  11.635  11.823 -0.7796 -3.6221  2.0837
  642MOL0     H86647   2.547  11.526  11.767  1.6430 -1.2101 -0.5067
  642MOL0     H86648   2.408  11.732  11.683 -1.1630  0.4359  1.0507
  642MOL0     H86649   2.447  11.720  11.854 -0.4216  2.2918  0.8263
  642MOL0     H86650   3.023  11.219  11.439  0.8852 -0.4779 -0.7098
  642MOL0     H86651   2.926  11.008  11.367 -1.3143  0.0761 -0.7079
  642MOL0     H86652   2.691  10.814  10.922  3.0238  1.7727 -1.8173
  642MOL0     H86653   2.639  10.619  10.786  1.7929  3.7780 -3.0050
  642MOL0     H86654   2.915   9.355   9.378  1.5391 -1.0945 -0.3350
  642MOL0     H86655   2.820   9.147   9.260 -0.7233 -0.8276 -0.4365
  642MOL0     H86656   2.467   8.743   9.385  0.3318  1.6587 -0.8677
  642MOL0     H86657   2.402   8.531   9.340 -0.9007  0.0248 -3.1422
  642MOL0     H86658   2.384   8.273   9.275  0.9090  0.5481 -1.2053
  642MOL0     H86659   2.460   8.324   9.421 -3.7503 -0.1278  0.1966
  642MOL0     H86660   2.628   8.115   9.395 -0.7718 -2.8996  0.9084
  642MOL0     H86661   2.539   8.068   9.262  1.1696  0.1957  0.1818
  642MOL0     H86662   2.324   8.037   9.380  0.6591  1.0287  0.0333
  642MOL0     H86663   2.394   8.090   9.525  0.8276  0.7971 -1.5642
  642MOL0     H86664   2.521   7.863   9.382 -1.7887  1.8676 -1.9044
  642MOL0     H86665   2.503   7.887   9.563 -2.0091 -0.5229  1.3982
  642MOL0     H86666   2.160   7.662   9.453  0.4107 -2.0269 -2.7995
  642MOL0     H86667   2.794   8.445   9.194 -2.8323 -2.1029 -1.6040
  642MOL0     H86668   2.888   8.792   9.159  3.8483 -0.3592 -0.3221
  642MOL0     H86669   2.968   8.704   9.274 -2.1327  2.9210  1.3814
  642MOL0     H86670   2.913   8.618   9.123  1.7193 -1.2760  1.3216
  643MOL0     O86671   1.111   5.408   5.950 -0.4233 -0.7422  0.6594
  643MOL0     C86672   0.998   5.434   5.922 -0.1809 -0.8427  0.3059
  643MOL0     O86673   0.916   5.487   6.005  0.2022  0.5940  0.3652
  643MOL0     C86674   0.962   5.580   6.089  0.5099  0.5445 -0.1812
  643MOL0     C86675   0.961   5.546   6.225  0.3328 -0.5432 -0.1822
  643MOL0     C86676   1.005   5.644   6.319 -0.6581  0.3439  0.1551
  643MOL0     C86677   1.068   5.766   6.271 -0.2883  0.9129 -0.5256
  643MOL0     O86678   1.100   5.856   6.370 -0.4166 -0.4005  0.2880
  643MOL0     C86679   1.140   5.989   6.355 -0.5988 -0.2248  0.3233
  643MOL0     C86680   1.146   6.065   6.494  0.4781  0.5319 -0.1660
  643MOL0     C86681   0.995   6.085   6.550  0.1362  0.1570  0.4209
  643MOL0     C86682   0.992   6.048   6.704 -0.5142 -1.0203 -0.3209
  643MOL0     C86683   0.968   5.907   6.733 -0.3810  0.6109  0.6219
  643MOL0     C86684   0.948   5.880   6.881 -0.7101  0.4604  0.3622
  643MOL0     C86685   0.937   5.740   6.928 -0.2091  0.5012 -0.0067
  643MOL0     C86686   0.897   5.746   7.080 -0.8046 -0.2893  0.1769
  643MOL0     N86687   0.870   5.612   7.136  0.8789 -0.1362  0.4102
  643MOL0     C86688   0.752   5.540   7.110  0.4771 -0.1708 -0.9325
  643MOL0     C86689   0.762   5.432   7.192 -0.8386  0.0190 -0.3200
  643MOL0     C86690   0.646   5.341   7.205 -0.2382 -0.0497  0.1281
  643MOL0     C86691   0.530   5.416   7.274 -0.3163  0.0051 -0.9150
  643MOL0     C86692   0.412   5.332   7.313 -0.0763 -0.3520  0.8852
  643MOL0     C86693   0.455   5.232   7.423 -0.0211 -0.0263  0.2223
  643MOL0     O86694   0.353   5.142   7.454  0.0973 -0.6421  0.5299
  643MOL0     C86695   0.363   5.037   7.550  0.5479 -0.8010  0.2900
  643MOL0     C86696   0.467   5.030   7.631 -0.5890 -0.4377 -0.0724
  643MOL0     C86697   0.491   4.932   7.721 -0.1650  0.3089  0.3667
  643MOL0     C86698   0.400   4.824   7.731 -0.0473 -0.4658  0.0251
  643MOL0     C86699   0.430   4.695   7.803 -0.3817 -0.3786 -0.7044
  643MOL0     O86700   0.330   4.622   7.862  0.1347 -0.4501  0.2493
  643MOL0     C86701   0.369   4.497   7.905 -0.3582 -0.0622 -0.0247
  643MOL0     C86702   0.408   4.395   7.822 -0.2546 -0.4400  0.1818
  643MOL0     C86703   0.436   4.264   7.872 -0.3109  0.1759  0.0885
  643MOL0     C86704   0.427   4.243   8.008  0.4881  0.0784  0.2220
  643MOL0     O86705   0.440   4.113   8.044  0.1724  0.2485  0.6188
  643MOL0     C86706   0.518   4.093   8.157  0.1997 -0.6406  0.1415
  643MOL0     C86707   0.515   3.935   8.184  0.3771  0.1006 -0.1056
  643MOL0     C86708   0.366   3.895   8.221  0.0707 -1.1326 -0.4638
  643MOL0     C86709   0.364   3.743   8.259  0.8150 -0.6117 -0.3106
  643MOL0     C86710   0.227   3.705   8.315 -0.6143 -1.3928 -0.3817
  643MOL0     C86711   0.108   3.744   8.225 -1.1404  0.2013  0.0918
  643MOL0     C86712  -0.030   3.711   8.271 -0.5580  0.7726  0.0552
  643MOL0     C86713  -0.133   3.701   8.154  0.2147 -0.6487 -0.4273
  643MOL0    Cl86714  -0.158   3.863   8.081 -0.2400  0.3158  0.3999
  643MOL0     C86715   0.379   4.339   8.096  0.1474 -0.2357  0.2709
  643MOL0     C86716   0.354   4.467   8.043 -0.1043 -0.0733 -0.8858
  643MOL0     O86717   0.551   4.658   7.805  0.8021 -0.3499 -0.2669
  643MOL0     C86718   0.282   4.831   7.653  0.5970 -0.3909 -0.8527
  643MOL0     C86719   0.255   4.949   7.582 -0.2527  0.4674  0.2634
  643MOL0     N86720   0.880   5.451   7.267 -0.3495 -0.7070  0.0617
  643MOL0     N86721   0.937   5.561   7.237  0.2023  0.1417 -0.5048
  643MOL0     C86722   1.081   5.792   6.144  0.1540  0.2044  1.2523
  643MOL0     C86723   1.018   5.699   6.050  0.2805  0.5079  0.0094
  643MOL0     C86724   0.947   5.392   5.786 -0.2161 -0.3821 -0.2411
  643MOL0     C86725   1.025   5.429   5.673 -0.4845  0.0527  0.5836
  643MOL0     C86726   0.988   5.383   5.544  0.4042 -0.1458  0.8484
  643MOL0     C86727   0.872   5.303   5.534 -0.8986 -0.4436 -0.1481
  643MOL0     O86728   0.829   5.255   5.413 -0.4934  0.6381 -0.3667
  643MOL0     C86729   0.847   5.116   5.386 -0.5836  0.2630 -0.3345
  643MOL0     C86730   0.946   5.100   5.274  0.9348  0.2546 -0.7685
  643MOL0     C86731   0.898   5.167   5.142  0.0197  0.0931  0.3301
  643MOL0     C86732   0.754   5.128   5.101  0.3034  0.3141 -0.5750
  643MOL0     C86733   0.729   4.985   5.104 -0.1172  0.4847  0.3780
  643MOL0     C86734   0.695   4.872   5.091  0.7003  0.6675  1.0912
  643MOL0     C86735   0.795   5.270   5.641 -0.0283 -0.4659  0.3377
  643MOL0     C86736   0.825   5.317   5.769  0.0611 -0.1941 -0.1162
  643MOL0     C86737   0.732   5.277   5.869 -0.4120 -0.1596  0.3014
  643MOL0     H86738   0.917   5.448   6.244 -0.7793 -0.3940 -1.7991
  643MOL0     H86739   0.988   5.639   6.426  0.7745 -1.2404  0.3380
  643MOL0     H86740   1.232   6.005   6.299 -1.4604  2.5843 -0.4607
  643MOL0     H86741   1.068   6.030   6.284 -2.1282 -1.7660  0.8842
  643MOL0     H86742   1.211   6.152   6.478  4.0060 -1.1783  3.2388
  643MOL0     H86743   1.190   5.992   6.563 -0.5802  3.8019  4.4904
  643MOL0     H86744   0.912   6.025   6.512 -0.9428 -0.1427  3.0592
  643MOL0     H86745   0.954   6.185   6.535  1.1561  0.2297 -2.4763
  643MOL0     H86746   1.083   6.083   6.753  0.6858 -1.4967 -2.1119
  643MOL0     H86747   0.903   6.098   6.744 -0.6376 -0.3763 -1.3601
  643MOL0     H86748   0.895   5.865   6.663  1.8098  2.6279 -3.2293
  643MOL0     H86749   1.062   5.856   6.707  0.5675  0.7818  3.4006
  643MOL0     H86750   1.023   5.935   6.939 -0.3708 -0.5544  0.9137
  643MOL0     H86751   0.854   5.930   6.905 -1.9247 -1.7192  0.4483
  643MOL0     H86752   1.028   5.682   6.911  2.0526  4.5066 -3.4676
  643MOL0     H86753   0.860   5.692   6.866  0.2622  0.4566 -0.5748
  643MOL0     H86754   0.981   5.791   7.135  1.3688 -3.0639 -0.5866
  643MOL0     H86755   0.807   5.807   7.089  0.9996  2.3798  1.5621
  643MOL0     H86756   0.658   5.568   7.062  0.4091 -1.2017 -1.4220
  643MOL0     H86757   0.606   5.306   7.109  2.4671 -1.2830 -0.6522
  643MOL0     H86758   0.672   5.250   7.259  0.3391 -0.2988 -0.5607
  643MOL0     H86759   0.559   5.476   7.361 -0.4233 -0.4351 -0.5688
  643MOL0     H86760   0.484   5.481   7.199 -1.1952 -0.0965 -0.4832
  643MOL0     H86761   0.378   5.276   7.225 -0.2435 -2.6779  2.3233
  643MOL0     H86762   0.332   5.384   7.366 -0.4444 -2.4168  2.5187
  643MOL0     H86763   0.480   5.281   7.517  1.9673 -0.3261 -0.1127
  643MOL0     H86764   0.533   5.163   7.389  1.8873  1.1759  1.9497
  643MOL0     H86765   0.549   5.097   7.605  1.3837 -3.2740 -1.7297
  643MOL0     H86766   0.575   4.913   7.787 -0.5383  0.2518  0.8289
  643MOL0     H86767   0.414   4.412   7.715 -1.4306  2.7978  0.5325
  643MOL0     H86768   0.465   4.198   7.791 -0.3506  1.1795 -0.7620
  643MOL0     H86769   0.619   4.132   8.141 -0.0222 -0.1437 -0.0639
  643MOL0     H86770   0.489   4.150   8.246 -0.3701  1.8765 -1.5536
  643MOL0     H86771   0.546   3.880   8.095  0.1210  1.8669 -1.3303
  643MOL0     H86772   0.576   3.906   8.270 -2.5028 -2.5400  1.2624
  643MOL0     H86773   0.334   3.962   8.301 -1.3483  0.3705 -2.2192
  643MOL0     H86774   0.305   3.919   8.134  0.9754  4.5804  0.0813
  643MOL0     H86775   0.449   3.720   8.324  2.9652  0.3795 -2.5618
  643MOL0     H86776   0.382   3.688   8.166 -2.2331 -2.7119  0.2100
  643MOL0     H86777   0.214   3.756   8.411  1.9425 -0.5605 -0.3918
  643MOL0     H86778   0.231   3.600   8.345  0.3709 -0.9451  1.1922
  643MOL0     H86779   0.102   3.854   8.220 -2.6167  0.1679  0.6270
  643MOL0     H86780   0.135   3.694   8.132  3.9287 -1.3217  2.0681
  643MOL0     H86781  -0.071   3.777   8.348  1.4789  0.7452  1.2160
  643MOL0     H86782  -0.035   3.612   8.319 -0.1891  1.2865  1.1984
  643MOL0     H86783  -0.099   3.623   8.085  0.2702 -0.1976 -0.9169
  643MOL0     H86784  -0.229   3.668   8.195 -0.7720  3.2359  0.8135
  643MOL0     H86785   0.352   4.316   8.199 -1.3915 -0.8713 -0.2358
  643MOL0     H86786   0.320   4.552   8.101 -1.9263 -0.4124 -1.3962
  643MOL0     H86787   0.214   4.747   7.646  1.8515 -1.4449 -0.7869
  643MOL0     H86788   0.162   4.952   7.525 -0.8794  0.7943  1.2781
  643MOL0     H86789   1.121   5.882   6.100 -2.5072  0.6812 -0.4868
  643MOL0     H86790   1.019   5.732   5.947 -0.9364  0.1874 -0.1275
  643MOL0     H86791   1.101   5.506   5.677  0.2440 -0.2053 -3.6237
  643MOL0     H86792   1.030   5.407   5.447 -2.2623 -0.7598 -0.5535
  643MOL0     H86793   0.753   5.061   5.370  0.7327 -2.4749  0.6034
  643MOL0     H86794   0.887   5.084   5.483  0.9385  0.1715 -0.9767
  643MOL0     H86795   0.966   4.995   5.251  1.4235 -0.6717  3.1168
  643MOL0     H86796   1.038   5.147   5.310  0.9680  0.9089 -1.6681
  643MOL0     H86797   0.969   5.157   5.060  0.2295  1.4549  0.3184
  643MOL0     H86798   0.892   5.273   5.170  1.2689  0.8291 -1.9052
  643MOL0     H86799   0.686   5.166   5.177 -1.1926  0.6321 -2.0238
  643MOL0     H86800   0.717   5.174   5.009 -1.7622 -3.0578 -1.5850
  643MOL0     H86801   0.666   4.769   5.097 -1.1419  1.1328  0.7626
  643MOL0     H86802   0.700   5.219   5.630 -1.3507  1.9978 -0.4147
  643MOL0     H86803   0.639   5.251   5.818  0.6135  1.6327 -2.6913
  643MOL0     H86804   0.767   5.188   5.923 -1.1077 -3.3244 -3.8704
  643MOL0     H86805   0.712   5.361   5.936  1.1691 -0.2852  0.9728
  644MOL0     O86806   5.639  11.310   8.002  0.1484  0.2990 -0.0264
  644MOL0     C86807   5.527  11.300   8.058  0.1164 -0.6330 -0.3458
  644MOL0     O86808   5.423  11.216   8.020 -0.6887  0.6357  0.4143
  644MOL0     C86809   5.456  11.123   7.926  0.0833  0.1812 -0.5179
  644MOL0     C86810   5.349  11.086   7.837 -0.3024 -1.2147 -0.2580
  644MOL0     C86811   5.371  10.998   7.731 -0.2153  0.9795 -0.3838
  644MOL0     C86812   5.491  10.922   7.719  0.8114  0.7715  0.3935
  644MOL0     O86813   5.509  10.833   7.611 -0.0994 -0.1146 -0.2888
  644MOL0     C86814   5.559  10.700   7.646 -0.8730  0.3153  0.2442
  644MOL0     C86815   5.571  10.625   7.511 -0.8426 -1.0048 -0.7217
  644MOL0     C86816   5.701  10.667   7.437 -0.1846  0.1616  0.1260
  644MOL0     C86817   5.707  10.583   7.309 -0.0128 -1.0563  0.4728
  644MOL0     C86818   5.822  10.614   7.219 -0.2228 -0.1038  1.0103
  644MOL0     C86819   5.957  10.554   7.248  0.7277  0.3407  0.3994
  644MOL0     C86820   6.071  10.629   7.177 -0.1122  0.1012  0.4865
  644MOL0     C86821   6.195  10.549   7.201  0.1712 -0.3239 -0.1277
  644MOL0     N86822   6.303  10.595   7.109  0.2527  0.5694  0.0492
  644MOL0     C86823   6.393  10.696   7.149 -0.8457  0.4435  0.1145
  644MOL0     C86824   6.483  10.698   7.048  0.0777  0.3570  0.0960
  644MOL0     C86825   6.606  10.791   7.044  0.0209 -0.8910 -0.8936
  644MOL0     C86826   6.741  10.736   7.074 -0.5701  0.3935 -0.0973
  644MOL0     C86827   6.803  10.673   6.944  0.0826  0.3464 -0.2994
  644MOL0     C86828   6.900  10.569   6.977 -0.0942 -0.5701 -0.3401
  644MOL0     O86829   7.005  10.643   7.041 -0.3501 -0.2144 -0.5043
  644MOL0     C86830   7.121  10.579   7.083 -0.9250  0.0702  0.8389
  644MOL0     C86831   7.146  10.443   7.070 -0.0807 -0.4576 -0.5721
  644MOL0     C86832   7.276  10.395   7.107 -0.1526 -0.4102 -0.1563
  644MOL0     C86833   7.373  10.483   7.161  0.7118 -0.8074 -0.8502
  644MOL0     C86834   7.502  10.435   7.198 -0.8246  0.7570 -0.7025
  644MOL0     O86835   7.580  10.535   7.246 -0.5079 -0.0638 -0.3787
  644MOL0     C86836   7.697  10.499   7.299  0.1411  0.9228 -0.9127
  644MOL0     C86837   7.731  10.491   7.435  1.0925  1.3204  0.0675
  644MOL0     C86838   7.852  10.455   7.480  0.5116 -0.0186 -0.0789
  644MOL0     C86839   7.954  10.413   7.396  0.5330  0.3950 -0.3081
  644MOL0     O86840   8.070  10.372   7.447 -0.0200 -0.6244 -0.1257
  644MOL0     C86841   8.152  10.289   7.366 -0.0989 -0.4836  0.3807
  644MOL0     C86842   8.274  10.241   7.434 -0.2947  0.6097 -0.0240
  644MOL0     C86843   8.361  10.143   7.343 -0.7310  1.1775  0.1964
  644MOL0     C86844   8.424  10.050   7.444 -1.0031 -0.3875 -0.4071
  644MOL0     C86845   8.535  10.118   7.512  0.0510 -1.1769  0.0080
  644MOL0     C86846   8.606  10.019   7.608 -0.4943 -0.4718 -0.2184
  644MOL0     C86847   8.560  10.021   7.762 -0.5152 -0.3876 -0.5145
  644MOL0     C86848   8.642   9.922   7.835 -0.6715 -0.0290  0.8508
  644MOL0    Cl86849   8.805   9.993   7.855 -0.3795  0.0417  0.4245
  644MOL0     C86850   7.927  10.416   7.260  0.3000 -0.0578  0.0643
  644MOL0     C86851   7.801  10.463   7.215 -0.0576  0.7292  0.6330
  644MOL0     O86852   7.528  10.312   7.205 -0.3879  0.0069 -0.7697
  644MOL0     C86853   7.337  10.622   7.176  0.0854  0.1523 -0.2243
  644MOL0     C86854   7.213  10.661   7.138  0.2306 -0.0586  0.1515
  644MOL0     N86855   6.447  10.594   6.956 -0.3544 -0.2470  0.1060
  644MOL0     N86856   6.341  10.537   6.983 -0.2986 -0.1548 -0.1258
  644MOL0     C86857   5.582  10.935   7.828  0.6084 -0.5025  0.4313
  644MOL0     C86858   5.565  11.032   7.926  0.3876  1.9271  0.3193
  644MOL0     C86859   5.507  11.398   8.176  0.1290 -0.8376 -0.5814
  644MOL0     C86860   5.435  11.359   8.291 -0.2128  0.3736 -0.3601
  644MOL0     C86861   5.400  11.432   8.397 -0.3642  0.4237 -0.3435
  644MOL0     C86862   5.424  11.574   8.403 -0.4419 -0.5100  1.1511
  644MOL0     O86863   5.399  11.651   8.510  0.0736  0.6559  0.3253
  644MOL0     C86864   5.301  11.750   8.492  0.7388 -0.2586  0.9550
  644MOL0     C86865   5.268  11.830   8.630  0.9972 -0.1252 -0.4191
  644MOL0     C86866   5.384  11.924   8.667  0.8199 -0.6723  0.2986
  644MOL0     C86867   5.358  11.998   8.799  0.2537  0.9339  0.2506
  644MOL0     C86868   5.474  12.077   8.834  0.4897  0.3329 -0.5021
  644MOL0     C86869   5.565  12.136   8.876  0.2586 -0.6015  0.2477
  644MOL0     C86870   5.482  11.628   8.283  0.3409 -0.4656 -0.2360
  644MOL0     C86871   5.523  11.535   8.174  0.8098  0.4846  0.4759
  644MOL0     C86872   5.575  11.612   8.059  0.1937 -0.1410  0.6115
  644MOL0     H86873   5.253  11.134   7.827  0.2318 -0.6098 -3.5775
  644MOL0     H86874   5.296  10.994   7.653  1.3532  0.4071 -1.9247
  644MOL0     H86875   5.650  10.707   7.708 -0.8756  3.8197  0.0394
  644MOL0     H86876   5.488  10.647   7.710  0.8035 -1.2619  0.8952
  644MOL0     H86877   5.487  10.642   7.443  0.5961  3.5882 -1.6850
  644MOL0     H86878   5.581  10.521   7.544  0.3244 -0.1248  2.0342
  644MOL0     H86879   5.787  10.637   7.497 -0.6019 -0.5590  0.3748
  644MOL0     H86880   5.712  10.770   7.402  1.3995 -0.3842 -1.1043
  644MOL0     H86881   5.703  10.477   7.334  0.9639 -0.7106  2.3297
  644MOL0     H86882   5.615  10.606   7.255 -0.4686 -1.6371  0.9817
  644MOL0     H86883   5.793  10.572   7.122  0.3290  0.7575  0.4554
  644MOL0     H86884   5.830  10.720   7.195 -0.4536  0.3011  2.6168
  644MOL0     H86885   5.974  10.561   7.356 -0.9170  3.6389  0.5667
  644MOL0     H86886   5.949  10.451   7.213 -1.5288  0.0168  1.6884
  644MOL0     H86887   6.082  10.731   7.215 -2.0191 -0.3666  2.4849
  644MOL0     H86888   6.061  10.636   7.068  0.1538 -1.1207  0.3676
  644MOL0     H86889   6.223  10.568   7.305 -0.5195  2.2314 -0.3330
  644MOL0     H86890   6.175  10.443   7.183 -0.6778 -0.7993  2.9797
  644MOL0     H86891   6.393  10.747   7.245  1.3856 -0.9987  0.9792
  644MOL0     H86892   6.611  10.839   6.946 -2.4094  0.3670 -0.4928
  644MOL0     H86893   6.573  10.872   7.109 -2.2447 -1.2516 -1.4790
  644MOL0     H86894   6.817  10.805   7.110  2.0662 -2.2548 -0.1915
  644MOL0     H86895   6.728  10.663   7.154  0.7811 -0.5026 -0.6578
  644MOL0     H86896   6.845  10.754   6.883 -1.3374  0.4188 -1.2281
  644MOL0     H86897   6.734  10.620   6.878 -0.1879  0.4841 -0.1282
  644MOL0     H86898   6.937  10.506   6.896  2.8186 -0.7012  0.9843
  644MOL0     H86899   6.864  10.501   7.055 -1.9479  0.7101  0.0027
  644MOL0     H86900   7.067  10.386   7.023  0.7427 -1.8679 -0.2782
  644MOL0     H86901   7.296  10.289   7.116 -1.8666 -0.9678 -2.0320
  644MOL0     H86902   7.653  10.521   7.505 -1.9991  0.0486 -2.5822
  644MOL0     H86903   7.881  10.474   7.583 -0.8853 -1.2451  0.5709
  644MOL0     H86904   8.089  10.204   7.341 -0.8181 -1.0336  3.6227
  644MOL0     H86905   8.184  10.353   7.283  0.6782 -0.2847  0.8215
  644MOL0     H86906   8.343  10.324   7.452  1.7155 -0.6718 -1.5046
  644MOL0     H86907   8.240  10.195   7.527 -0.6918  0.3641 -0.2879
  644MOL0     H86908   8.282  10.095   7.285 -0.9085  2.7516 -0.9025
  644MOL0     H86909   8.426  10.195   7.272  0.1688  1.4386  1.1843
  644MOL0     H86910   8.463   9.964   7.389  2.1168  0.5911  0.0967
  644MOL0     H86911   8.345  10.020   7.514 -1.5721  2.7942  0.4925
  644MOL0     H86912   8.504  10.209   7.563 -2.2748  0.1485 -3.4429
  644MOL0     H86913   8.613  10.141   7.439 -0.1742  1.5600  0.5273
  644MOL0     H86914   8.599   9.915   7.572 -1.0643 -0.5095 -0.0133
  644MOL0     H86915   8.710  10.053   7.609  0.3276 -2.8023  0.0511
  644MOL0     H86916   8.458   9.984   7.772 -0.4598 -0.1423  1.3560
  644MOL0     H86917   8.563  10.118   7.812 -0.6835 -0.1687 -0.9239
  644MOL0     H86918   8.588   9.896   7.927  1.1906 -1.0878  1.7053
  644MOL0     H86919   8.649   9.830   7.777  0.7301  1.7190 -1.9680
  644MOL0     H86920   8.004  10.402   7.185 -1.9437 -2.1860 -2.0186
  644MOL0     H86921   7.780  10.456   7.108 -0.0261 -1.5265  0.7212
  644MOL0     H86922   7.408  10.690   7.222  0.3227 -1.0618  1.2945
  644MOL0     H86923   7.200  10.768   7.147 -0.3114 -0.2416  1.8792
  644MOL0     H86924   5.675  10.879   7.826 -1.5080 -4.3403  0.4310
  644MOL0     H86925   5.644  11.038   8.001 -0.2443 -0.5926  1.3105
  644MOL0     H86926   5.397  11.258   8.308  1.8673 -0.4580 -0.3142
  644MOL0     H86927   5.352  11.374   8.476 -0.6245 -1.9344 -2.1143
  644MOL0     H86928   5.213  11.687   8.472  1.0859 -0.2427 -0.7279
  644MOL0     H86929   5.308  11.822   8.410 -2.2770 -1.2617 -0.3376
  644MOL0     H86930   5.239  11.761   8.710  3.3504  0.3130  0.9087
  644MOL0     H86931   5.180  11.893   8.613  1.2461  1.2820  2.8475
  644MOL0     H86932   5.406  11.984   8.579 -1.5600 -3.3362 -2.3425
  644MOL0     H86933   5.470  11.859   8.684  0.7985 -1.8765 -3.3163
  644MOL0     H86934   5.272  12.065   8.789  1.3454  2.2644 -0.5748
  644MOL0     H86935   5.345  11.921   8.875  4.0186 -1.4498 -1.2770
  644MOL0     H86936   5.651  12.199   8.883  0.8745 -1.5061  1.1743
  644MOL0     H86937   5.488  11.736   8.272 -1.1435 -0.3866 -0.5928
  644MOL0     H86938   5.654  11.551   8.014 -0.0199  0.1887 -0.2301
  644MOL0     H86939   5.490  11.620   7.991 -0.5854 -0.0926  1.5797
  644MOL0     H86940   5.615  11.708   8.094 -2.1990  1.6384 -1.2102
  645MOL0     O86941   4.025  11.165   7.056 -0.2549 -0.3250  0.1047
  645MOL0     C86942   4.108  11.227   6.995 -0.0534  0.5515  0.2648
  645MOL0     O86943   4.108  11.365   6.989  0.5864 -1.0591 -0.7475
  645MOL0     C86944   4.009  11.434   7.069 -0.6679 -0.7999  0.4288
  645MOL0     C86945   4.047  11.488   7.189 -1.0350  0.8946 -0.2328
  645MOL0     C86946   3.954  11.559   7.265 -0.6162 -0.7982 -0.8838
  645MOL0     C86947   3.823  11.575   7.224 -1.0674 -0.4802 -0.0204
  645MOL0     O86948   3.739  11.642   7.312  0.4866  0.2014 -0.3274
  645MOL0     C86949   3.595  11.642   7.303 -0.6305  0.1835  0.1439
  645MOL0     C86950   3.539  11.680   7.443  0.3851 -0.5955 -1.7114
  645MOL0     C86951   3.391  11.619   7.464  0.5144 -0.3933 -0.4306
  645MOL0     C86952   3.309  11.659   7.584 -0.1886  0.3171 -0.7329
  645MOL0     C86953   3.379  11.647   7.721  0.0341 -0.4604 -0.3745
  645MOL0     C86954   3.443  11.511   7.743 -0.0286  0.3996  0.3666
  645MOL0     C86955   3.486  11.487   7.892  0.3314  0.4218  0.0722
  645MOL0     C86956   3.584  11.357   7.920  1.0844  0.2426 -0.1050
  645MOL0     N86957   3.715  11.365   7.845  0.5613  1.3890 -0.7492
  645MOL0     C86958   3.751  11.296   7.728 -0.3472 -0.6884 -0.4878
  645MOL0     C86959   3.879  11.342   7.717 -0.0092  0.2869 -0.8072
  645MOL0     C86960   3.980  11.332   7.603 -0.6298 -0.8267 -0.2896
  645MOL0     C86961   4.085  11.210   7.613 -0.6655 -0.3478  1.3020
  645MOL0     C86962   4.137  11.176   7.468 -0.2141  0.7958  0.3202
  645MOL0     C86963   4.026  11.120   7.375 -1.0097 -0.1350 -0.0533
  645MOL0     O86964   3.952  11.027   7.444  0.2531 -0.0833 -0.5791
  645MOL0     C86965   3.870  10.926   7.395 -0.0045  0.4430  0.3628
  645MOL0     C86966   3.816  10.841   7.490  0.3704 -0.4706  0.4725
  645MOL0     C86967   3.719  10.745   7.449  0.3211  0.2973 -0.1566
  645MOL0     C86968   3.675  10.734   7.313 -0.1533  0.0236 -0.2577
  645MOL0     C86969   3.562  10.650   7.289  0.2896 -1.3114 -0.4551
  645MOL0     O86970   3.477  10.646   7.391  0.3274  0.6069  0.3429
  645MOL0     C86971   3.352  10.574   7.387  0.6925  0.5134  0.8557
  645MOL0     C86972   3.314  10.441   7.348 -0.4076  0.3574  0.6791
  645MOL0     C86973   3.183  10.388   7.346 -0.9819  0.1674  0.5891
  645MOL0     C86974   3.085  10.464   7.405 -0.0243 -0.4268  0.7568
  645MOL0     O86975   2.960  10.419   7.426 -0.2220 -0.5103 -0.9630
  645MOL0     C86976   2.905  10.298   7.375 -0.1325 -0.9294 -0.8017
  645MOL0     C86977   2.869  10.301   7.228 -0.3842  0.1539  0.5771
  645MOL0     C86978   2.768  10.405   7.178  0.3417 -0.2855 -0.8927
  645MOL0     C86979   2.683  10.357   7.056  0.1440  0.1097  0.1393
  645MOL0     C86980   2.571  10.449   7.012 -0.2292 -0.3819 -0.1815
  645MOL0     C86981   2.489  10.383   6.904  0.2906  0.0017  0.3442
  645MOL0     C86982   2.383  10.486   6.843 -0.2660 -0.1015 -0.4991
  645MOL0     C86983   2.323  10.458   6.702 -1.0028 -0.0493  0.3844
  645MOL0    Cl86984   2.436  10.495   6.564  0.1750 -0.3105 -0.0846
  645MOL0     C86985   3.120  10.592   7.466 -1.1921 -0.5864  0.1010
  645MOL0     C86986   3.250  10.639   7.450  0.2598  0.0546 -0.3702
  645MOL0     O86987   3.546  10.602   7.185  0.7344 -0.4914  0.2539
  645MOL0     C86988   3.732  10.822   7.218 -0.0910  0.8505  0.6670
  645MOL0     C86989   3.829  10.912   7.259  0.1087 -0.2536 -0.2825
  645MOL0     N86990   3.912  11.424   7.821 -0.4473  0.9054 -0.2374
  645MOL0     N86991   3.809  11.446   7.888  0.0838  0.3743 -0.9295
  645MOL0     C86992   3.781  11.515   7.104 -0.2790 -0.7614 -0.5468
  645MOL0     C86993   3.883  11.445   7.025  0.2584 -0.8210  0.0808
  645MOL0     C86994   4.230  11.150   6.959 -0.7646  0.5859 -1.3755
  645MOL0     C86995   4.338  11.233   6.968  0.6638 -0.5047  0.0300
  645MOL0     C86996   4.463  11.185   6.940 -0.2599  0.2745 -0.0761
  645MOL0     C86997   4.484  11.048   6.908 -0.0720  0.6633  0.8779
  645MOL0     O86998   4.609  10.989   6.877  0.9373  0.2978  0.2861
  645MOL0     C86999   4.713  11.077   6.840 -0.9422  0.6695  0.8280
  645MOL0     C87000   4.844  11.007   6.886 -0.7992 -1.0291 -0.6958
  645MOL0     C87001   4.860  10.856   6.879  0.4213  0.9692  0.0313
  645MOL0     C87002   4.990  10.804   6.930  0.2918 -1.4661  0.5641
  645MOL0     C87003   5.113  10.852   6.851  0.0771 -1.4040 -0.3376
  645MOL0     C87004   5.208  10.896   6.786 -0.5263 -0.4311  0.4661
  645MOL0     C87005   4.367  10.965   6.906 -0.5594 -1.2474  0.0674
  645MOL0     C87006   4.242  11.008   6.921 -0.8742  0.1491  0.1773
  645MOL0     C87007   4.121  10.908   6.907  0.8901  0.6235 -0.6559
  645MOL0     H87008   4.151  11.473   7.217 -0.8686 -2.7394 -2.2066
  645MOL0     H87009   3.978  11.596   7.364 -2.2711 -2.9471  0.4219
  645MOL0     H87010   3.553  11.715   7.234 -1.5909  2.5589  3.0362
  645MOL0     H87011   3.566  11.540   7.278 -0.4765 -0.3121  1.8416
  645MOL0     H87012   3.521  11.788   7.451 -4.6281 -1.3393  2.2973
  645MOL0     H87013   3.609  11.650   7.521 -1.0351  1.2313  0.4193
  645MOL0     H87014   3.399  11.510   7.461  1.3074 -0.4047  1.1924
  645MOL0     H87015   3.325  11.635   7.377  1.6068 -0.5627 -1.3115
  645MOL0     H87016   3.287  11.766   7.574  1.4316  0.9213  1.3481
  645MOL0     H87017   3.211  11.611   7.582 -2.4192  4.3841  0.3856
  645MOL0     H87018   3.454  11.726   7.723 -0.3326 -0.0987 -0.6730
  645MOL0     H87019   3.310  11.671   7.803  1.5174  1.1427  0.4860
  645MOL0     H87020   3.373  11.436   7.706  1.8167  0.2090 -3.1399
  645MOL0     H87021   3.535  11.510   7.684 -0.9698 -1.8956 -1.2020
  645MOL0     H87022   3.395  11.452   7.940  1.2703 -0.9903  0.8917
  645MOL0     H87023   3.524  11.579   7.938  4.7127 -0.5991 -1.0472
  645MOL0     H87024   3.588  11.352   8.029 -1.4455  2.6000  0.1851
  645MOL0     H87025   3.535  11.261   7.903  1.2291  0.6629 -3.8261
  645MOL0     H87026   3.691  11.231   7.665  0.5824  0.7406 -2.9935
  645MOL0     H87027   3.918  11.326   7.514 -2.1016  0.9759  0.5282
  645MOL0     H87028   4.038  11.424   7.599  1.4286 -1.6323  4.2987
  645MOL0     H87029   4.173  11.256   7.660  1.6184 -0.2448 -2.6504
  645MOL0     H87030   4.053  11.129   7.679  0.4636 -0.4151  1.7916
  645MOL0     H87031   4.211  11.097   7.487 -1.7042 -0.9092 -0.6907
  645MOL0     H87032   4.190  11.262   7.424  1.5803  0.5186  1.8013
  645MOL0     H87033   4.067  11.072   7.285  3.2836 -0.2409  1.7528
  645MOL0     H87034   3.962  11.200   7.335 -2.8327 -1.5973 -0.1751
  645MOL0     H87035   3.840  10.853   7.595 -0.0621 -1.8885  0.7587
  645MOL0     H87036   3.697  10.687   7.539  2.1028  1.8640  1.3920
  645MOL0     H87037   3.391  10.373   7.314  2.6670  4.7247 -2.1933
  645MOL0     H87038   3.164  10.293   7.297  0.3824  1.3187 -2.4062
  645MOL0     H87039   2.968  10.208   7.382 -1.7272 -2.0871 -0.7891
  645MOL0     H87040   2.827  10.263   7.443  2.9253 -2.0130  2.4506
  645MOL0     H87041   2.963  10.313   7.174 -0.3097  0.1624  0.7094
  645MOL0     H87042   2.823  10.205   7.204 -1.3505  0.5894  0.6323
  645MOL0     H87043   2.698  10.425   7.259  3.0159  0.9855  1.2674
  645MOL0     H87044   2.825  10.497   7.159  0.7647 -0.3354  0.0587
  645MOL0     H87045   2.625  10.267   7.079  0.8217 -0.9347 -1.9946
  645MOL0     H87046   2.751  10.333   6.974  1.5658  1.3644  0.8967
  645MOL0     H87047   2.614  10.543   6.976 -0.4954 -0.1831  0.0137
  645MOL0     H87048   2.505  10.469   7.097  0.6788 -2.2325  1.0150
  645MOL0     H87049   2.540  10.348   6.814 -1.4441 -0.8319 -0.3678
  645MOL0     H87050   2.445  10.295   6.951  0.4715 -0.5285 -0.4809
  645MOL0     H87051   2.429  10.585   6.837 -1.9340  0.7210 -0.3026
  645MOL0     H87052   2.295  10.487   6.907 -0.5642 -0.8927 -0.8837
  645MOL0     H87053   2.289  10.354   6.696  1.2628 -0.9665  1.9621
  645MOL0     H87054   2.235  10.524   6.701 -1.0573 -0.1106 -1.1172
  645MOL0     H87055   3.043  10.647   7.519 -0.7692 -0.3698  0.5029
  645MOL0     H87056   3.286  10.732   7.493  0.3628 -0.0742 -0.1790
  645MOL0     H87057   3.684  10.818   7.120 -1.3157 -2.1886  1.3050
  645MOL0     H87058   3.874  10.973   7.181 -0.8579  0.0878 -0.5875
  645MOL0     H87059   3.676  11.522   7.079 -0.2032 -1.6589 -1.1840
  645MOL0     H87060   3.867  11.403   6.926 -0.8500  1.6948 -0.8801
  645MOL0     H87061   4.330  11.341   6.981 -1.6193 -0.7863  1.3989
  645MOL0     H87062   4.545  11.255   6.954 -1.7640  1.8016  1.5596
  645MOL0     H87063   4.714  11.178   6.881 -1.1519  1.1254 -0.2552
  645MOL0     H87064   4.717  11.087   6.731  0.1790  0.9570  0.8784
  645MOL0     H87065   4.865  11.047   6.986  2.3311 -0.0306 -1.6295
  645MOL0     H87066   4.929  11.054   6.835 -0.9850  2.1910  1.6108
  645MOL0     H87067   4.843  10.825   6.775 -0.1648  3.5230 -0.7212
  645MOL0     H87068   4.777  10.812   6.934  0.2930  2.4400  1.0893
  645MOL0     H87069   5.001  10.817   7.038  1.1338  2.1191  0.1867
  645MOL0     H87070   4.991  10.697   6.909  2.2802 -1.4137  0.1402
  645MOL0     H87071   5.296  10.921   6.732 -1.6778 -1.7182 -2.1653
  645MOL0     H87072   4.396  10.862   6.885 -1.9845 -1.9778  1.5080
  645MOL0     H87073   4.141  10.825   6.838 -1.4636 -1.7119  1.2889
  645MOL0     H87074   4.112  10.859   7.004  2.4489  1.4067 -0.0831
  645MOL0     H87075   4.030  10.963   6.883  0.5389 -0.4939 -2.0466
  646MOL0     O87076  11.113   0.090   1.824  0.4239 -0.0531 -0.3752
  646MOL0     C87077  11.003   0.144   1.822 -0.2917 -0.1737 -1.4879
  646MOL0     O87078  10.973   0.249   1.895  0.2398 -0.2313  0.2232
  646MOL0     C87079  11.073   0.310   1.975 -0.0260 -1.0758 -0.1167
  646MOL0     C87080  11.193   0.355   1.923 -0.1260 -0.2232 -0.1969
  646MOL0     C87081  11.288   0.427   1.990 -1.2675 -0.1467 -0.2741
  646MOL0     C87082  11.280   0.430   2.132 -0.0031 -0.3331 -0.5599
  646MOL0     O87083  11.365   0.489   2.218 -0.4650 -0.0217 -0.2756
  646MOL0     C87084  11.497   0.423   2.224 -0.2562 -0.5706 -0.1670
  646MOL0     C87085  11.605   0.506   2.300 -0.2081  0.8263  0.2480
  646MOL0     C87086  11.582   0.518   2.454  0.2915 -1.0021 -0.2548
  646MOL0     C87087  11.702   0.591   2.514 -0.6275 -0.2103  0.6099
  646MOL0     C87088  11.680   0.602   2.664 -0.1079  0.4865  0.9003
  646MOL0     C87089  11.797   0.690   2.707  0.9682 -0.5866  0.1415
  646MOL0     C87090  11.918   0.624   2.755  0.3076 -0.2092 -0.8742
  646MOL0     C87091  11.891   0.557   2.897 -0.5318  0.4207 -0.2980
  646MOL0     N87092  12.018   0.504   2.944 -0.5881  0.6970 -0.6887
  646MOL0     C87093  12.047   0.375   2.982 -0.4570  0.1896 -0.1843
  646MOL0     C87094  12.179   0.385   3.030 -0.4786 -0.3746  0.0601
  646MOL0     C87095  12.268   0.279   3.085 -0.3085  0.3100  0.4035
  646MOL0     C87096  12.210   0.135   3.117  0.3767  0.7074  0.3214
  646MOL0     C87097  12.318   0.030   3.152  0.3133  0.0649 -0.4579
  646MOL0     C87098  12.408  -0.005   3.030  0.4654 -0.3229 -0.9116
  646MOL0     O87099  12.515  -0.096   3.074  0.2186 -0.6170 -0.1082
  646MOL0     C87100  12.628  -0.083   2.994 -0.6079 -0.1613 -0.0597
  646MOL0     C87101  12.751  -0.056   3.059  0.3977 -0.0911  0.2249
  646MOL0     C87102  12.879  -0.060   2.985  1.3217 -0.5485 -0.3351
  646MOL0     C87103  12.872  -0.072   2.842 -0.0357  0.4863  0.6713
  646MOL0     C87104  12.984  -0.075   2.754 -0.0299  0.4591 -0.1221
  646MOL0     O87105  12.981  -0.158   2.645 -0.0762  0.6699  0.0198
  646MOL0     C87106  13.104  -0.197   2.602  0.2798 -0.6081 -0.8039
  646MOL0     C87107  13.197  -0.114   2.542  0.0978  0.0622 -0.8227
  646MOL0     C87108  13.320  -0.170   2.489  1.0920  0.5807 -0.1027
  646MOL0     C87109  13.347  -0.308   2.491  0.9739  0.1337 -0.4016
  646MOL0     O87110  13.465  -0.354   2.455  0.8585 -0.5154  0.7244
  646MOL0     C87111  13.447  -0.448   2.348  0.7332 -0.6627  0.0588
  646MOL0     C87112  13.574  -0.507   2.289  0.0275  0.5988  0.7725
  646MOL0     C87113  13.677  -0.404   2.227  0.1148 -0.5796 -0.4447
  646MOL0     C87114  13.775  -0.491   2.162  0.1670  0.0826 -0.1906
  646MOL0     C87115  13.881  -0.417   2.081 -0.3734 -0.3585  0.0674
  646MOL0     C87116  13.974  -0.518   2.007  0.1082  0.2786  0.3101
  646MOL0     C87117  14.086  -0.587   2.088 -0.3635 -0.3445 -0.0338
  646MOL0     C87118  14.180  -0.478   2.149  0.1264 -0.1093 -1.0139
  646MOL0    Cl87119  14.315  -0.574   2.206 -0.0883 -0.0486  0.0186
  646MOL0     C87120  13.252  -0.384   2.565 -0.5284  0.5386 -0.6406
  646MOL0     C87121  13.136  -0.328   2.615  0.3695  0.0524 -0.1477
  646MOL0     O87122  13.080  -0.006   2.797  0.1335 -0.1956 -0.0966
  646MOL0     C87123  12.745  -0.085   2.785 -0.0312 -0.4539 -0.4969
  646MOL0     C87124  12.626  -0.084   2.859  0.6056  0.7711  0.3866
  646MOL0     N87125  12.221   0.517   3.006  0.3770  0.2757 -0.0241
  646MOL0     N87126  12.124   0.585   2.956 -0.4394 -0.1237 -0.6260
  646MOL0     C87127  11.156   0.382   2.190 -0.2588  1.0925  0.6334
  646MOL0     C87128  11.054   0.322   2.111 -0.2269  0.2942 -0.6877
  646MOL0     C87129  10.894   0.085   1.734  0.7715 -0.3967 -0.3839
  646MOL0     C87130  10.768   0.064   1.790 -0.7271  0.2913  0.1852
  646MOL0     C87131  10.665   0.018   1.715  0.8524 -0.5809 -0.7956
  646MOL0     C87132  10.683  -0.007   1.581 -0.6370 -0.3271 -0.2209
  646MOL0     O87133  10.587  -0.052   1.492 -0.3328 -0.2745 -0.1366
  646MOL0     C87134  10.460  -0.087   1.543  0.0892  0.3523  1.3553
  646MOL0     C87135  10.373  -0.140   1.435 -0.4284 -0.5124  0.8063
  646MOL0     C87136  10.359  -0.056   1.305  0.0614  0.4614  0.4803
  646MOL0     C87137  10.235  -0.091   1.216  0.4240  0.5786 -0.0977
  646MOL0     C87138  10.124  -0.032   1.288 -0.0263 -1.0641 -0.4930
  646MOL0     C87139  10.029  -0.017   1.363  0.5682 -0.1480  0.6059
  646MOL0     C87140  10.812   0.010   1.520  0.9537 -0.2438  0.8811
  646MOL0     C87141  10.915   0.061   1.596 -0.0620 -0.0064 -1.1459
  646MOL0     C87142  11.048   0.079   1.526  0.2506 -0.2464  0.9326
  646MOL0     H87143  11.191   0.343   1.815 -3.8038  0.8394 -0.3975
  646MOL0     H87144  11.366   0.479   1.936 -0.0748 -1.1835  0.3716
  646MOL0     H87145  11.487   0.326   2.274  1.2364 -0.9386 -0.5400
  646MOL0     H87146  11.542   0.409   2.126 -1.0467  1.2739 -0.8261
  646MOL0     H87147  11.603   0.604   2.252 -0.5809  0.6393 -0.1157
  646MOL0     H87148  11.704   0.464   2.278 -0.0463  1.6954 -0.7397
  646MOL0     H87149  11.575   0.421   2.504 -1.5956 -1.7665 -1.8812
  646MOL0     H87150  11.491   0.577   2.468 -0.7951 -2.6382 -0.2712
  646MOL0     H87151  11.792   0.529   2.509  0.0018  0.6544  0.9160
  646MOL0     H87152  11.698   0.682   2.454 -1.6824 -1.6617 -1.6563
  646MOL0     H87153  11.579   0.636   2.687 -1.1049 -1.1742 -0.6912
  646MOL0     H87154  11.692   0.500   2.703 -0.4855  0.6191  1.3651
  646MOL0     H87155  11.826   0.763   2.631  0.9825 -0.8257 -0.0830
  646MOL0     H87156  11.759   0.739   2.797  0.4392  0.2224 -0.5104
  646MOL0     H87157  11.995   0.702   2.762  0.0191  0.3255 -2.9996
  646MOL0     H87158  11.947   0.549   2.682 -2.0544  1.2562 -3.4797
  646MOL0     H87159  11.863   0.633   2.971  5.6323 -0.3896  3.6255
  646MOL0     H87160  11.814   0.481   2.889 -0.2480  0.3349 -3.8355
  646MOL0     H87161  11.975   0.294   2.976 -0.8296  0.5327 -0.3964
  646MOL0     H87162  12.343   0.277   3.006  1.5539 -0.1278  2.0921
  646MOL0     H87163  12.302   0.316   3.183 -2.0623 -2.0322  2.0114
  646MOL0     H87164  12.151   0.154   3.207 -0.3769  0.3259 -0.0802
  646MOL0     H87165  12.146   0.090   3.040  1.5890 -2.4712  1.0084
  646MOL0     H87166  12.258  -0.060   3.169 -1.8668  0.9261 -2.9397
  646MOL0     H87167  12.375   0.051   3.243  2.4815 -4.4393 -0.5007
  646MOL0     H87168  12.461   0.078   2.983  0.9813 -1.7409 -2.9609
  646MOL0     H87169  12.350  -0.060   2.955  0.8990  0.4784 -1.8584
  646MOL0     H87170  12.746  -0.051   3.167 -1.7485  0.6172  0.1522
  646MOL0     H87171  12.970  -0.025   3.035  1.4271  1.4080 -1.7447
  646MOL0     H87172  13.174  -0.012   2.515 -0.9487  0.9838  2.9391
  646MOL0     H87173  13.382  -0.097   2.438  0.3408  0.8185 -0.6800
  646MOL0     H87174  13.392  -0.531   2.394 -0.7769  0.4708  0.3749
  646MOL0     H87175  13.387  -0.402   2.270  0.9600  1.6512  1.1620
  646MOL0     H87176  13.611  -0.574   2.367 -2.2222 -5.6598 -2.8326
  646MOL0     H87177  13.549  -0.576   2.208  1.1636  1.3459 -0.2535
  646MOL0     H87178  13.624  -0.329   2.168 -0.5062  0.0820  0.8947
  646MOL0     H87179  13.721  -0.351   2.312  0.2834 -0.0527 -0.8564
  646MOL0     H87180  13.715  -0.545   2.088  1.6914  1.0192 -2.2002
  646MOL0     H87181  13.802  -0.564   2.238 -0.6958 -1.3065 -1.1697
  646MOL0     H87182  13.944  -0.361   2.152  1.9849 -1.1937 -1.2562
  646MOL0     H87183  13.823  -0.352   2.014 -0.7144  0.1878  0.8660
  646MOL0     H87184  13.916  -0.598   1.960 -2.2596  2.9888 -1.6716
  646MOL0     H87185  14.019  -0.455   1.931 -1.3818  1.4841  0.3902
  646MOL0     H87186  14.135  -0.649   2.013 -1.6543 -1.7293  0.2232
  646MOL0     H87187  14.055  -0.663   2.161  1.3863 -1.2862 -0.2304
  646MOL0     H87188  14.222  -0.409   2.075 -0.0153  0.8434 -0.2224
  646MOL0     H87189  14.131  -0.411   2.220  0.3924 -1.2620  0.2800
  646MOL0     H87190  13.276  -0.489   2.579 -1.3637  0.3114 -0.8551
  646MOL0     H87191  13.060  -0.394   2.657 -1.1708  1.5751 -0.4295
  646MOL0     H87192  12.736  -0.101   2.678  1.6298  0.0927 -0.7619
  646MOL0     H87193  12.529  -0.095   2.810  0.7880 -4.6864  0.5478
  646MOL0     H87194  11.144   0.392   2.298  0.7066 -1.0738  0.9950
  646MOL0     H87195  10.968   0.286   2.168 -1.0112  2.2754 -0.5552
  646MOL0     H87196  10.757   0.092   1.894  2.8486  3.9991 -0.1815
  646MOL0     H87197  10.573  -0.002   1.767 -0.0492 -0.5207 -2.3081
  646MOL0     H87198  10.410   0.002   1.582 -2.5301  0.4176 -1.6975
  646MOL0     H87199  10.469  -0.170   1.614  2.3714 -1.4346 -0.8345
  646MOL0     H87200  10.275  -0.157   1.480 -0.5340  0.4649  0.9589
  646MOL0     H87201  10.419  -0.236   1.410 -1.0642 -0.5667 -0.1910
  646MOL0     H87202  10.456  -0.067   1.256  1.0818 -1.5732  2.7304
  646MOL0     H87203  10.354   0.051   1.328  0.5168  0.9155 -1.3813
  646MOL0     H87204  10.245  -0.049   1.116 -0.1847 -1.3869 -1.0277
  646MOL0     H87205  10.226  -0.199   1.206  0.4935  0.8030 -3.9470
  646MOL0     H87206   9.947  -0.002   1.431 -0.8949  0.2412 -1.1381
  646MOL0     H87207  10.825  -0.002   1.413 -2.2750  0.1515  0.3347
  646MOL0     H87208  11.038   0.043   1.423 -0.8515  0.0521  0.9278
  646MOL0     H87209  11.066   0.186   1.522 -1.0614  0.0633  2.3390
  646MOL0     H87210  11.127   0.020   1.574  0.5984 -0.3490  0.2436
  647MOL0     O87211   8.990  10.418   3.247  0.1956 -0.3968  0.2124
  647MOL0     C87212   8.959  10.313   3.193  0.1016  0.6905 -0.5818
  647MOL0     O87213   8.895  10.203   3.255 -0.1289 -0.1973  0.9651
  647MOL0     C87214   8.915  10.160   3.384 -0.4653 -0.5081 -0.2554
  647MOL0     C87215   8.857  10.047   3.436 -0.4037  0.3260 -0.0121
  647MOL0     C87216   8.868  10.012   3.570 -0.3936 -0.5336 -0.4407
  647MOL0     C87217   8.960  10.071   3.651 -0.8187 -0.8204  0.2605
  647MOL0     O87218   8.970  10.000   3.766 -0.0204 -0.4096 -0.4832
  647MOL0     C87219   8.968  10.089   3.877 -0.0551 -0.4120 -0.5336
  647MOL0     C87220   8.839  10.167   3.883 -0.0112 -0.0583  0.4634
  647MOL0     C87221   8.749  10.100   3.990 -0.3670  0.7701  0.3469
  647MOL0     C87222   8.628  10.188   4.000 -0.0783 -0.0422  0.1328
  647MOL0     C87223   8.515  10.137   4.096 -0.8149  0.3532  1.0861
  647MOL0     C87224   8.393  10.221   4.090  0.1503 -0.3963 -0.2232
  647MOL0     C87225   8.419  10.364   4.146  0.1093  0.7005  0.4223
  647MOL0     C87226   8.300  10.449   4.150  0.2435 -0.1156  0.4557
  647MOL0     N87227   8.194  10.414   4.248  0.1603 -0.9682  0.7459
  647MOL0     C87228   8.062  10.443   4.229  0.2333  0.4971  0.0100
  647MOL0     C87229   8.004  10.417   4.344 -0.1421  1.2049 -0.1051
  647MOL0     C87230   7.869  10.456   4.371  0.1373 -0.1620  0.7373
  647MOL0     C87231   7.854  10.607   4.418  0.1892  0.3759 -0.2183
  647MOL0     C87232   7.711  10.662   4.384  0.3531  1.2171  0.4527
  647MOL0     C87233   7.611  10.617   4.488  0.2234  0.9011 -0.0843
  647MOL0     O87234   7.487  10.633   4.419 -0.1225  0.2853  0.3808
  647MOL0     C87235   7.371  10.625   4.494  0.2618 -1.3703  0.9027
  647MOL0     C87236   7.253  10.635   4.426 -0.6493  0.0245 -0.4760
  647MOL0     C87237   7.128  10.618   4.487  0.1841  0.0501 -0.7591
  647MOL0     C87238   7.112  10.563   4.609  0.0313 -0.0081 -0.5103
  647MOL0     C87239   6.983  10.498   4.643  0.2904  0.0451 -0.8307
  647MOL0     O87240   6.870  10.523   4.567 -0.8726 -0.6001 -0.2436
  647MOL0     C87241   6.750  10.470   4.609  0.0183 -0.6219  1.1488
  647MOL0     C87242   6.655  10.553   4.669  0.4914  0.3347  0.6404
  647MOL0     C87243   6.534  10.496   4.714  1.1004 -0.4306 -0.0707
  647MOL0     C87244   6.504  10.367   4.684 -0.7871  0.6031  0.0158
  647MOL0     O87245   6.379  10.320   4.718  0.2495 -0.2017  0.1425
  647MOL0     C87246   6.358  10.308   4.859 -0.2370  0.0854  0.0721
  647MOL0     C87247   6.228  10.226   4.890  0.8060 -0.6696  0.0511
  647MOL0     C87248   6.264  10.092   4.958  0.3712  0.1926 -0.0771
  647MOL0     C87249   6.217   9.972   4.871 -0.1334  0.7858  0.5739
  647MOL0     C87250   6.058   9.957   4.843 -0.2182  0.0465  0.8799
  647MOL0     C87251   5.983   9.877   4.946  0.0417 -1.0795  0.0141
  647MOL0     C87252   5.834   9.857   4.925 -0.2750  0.6652  0.0894
  647MOL0     C87253   5.765   9.762   5.024  0.2140  0.5088  0.1025
  647MOL0    Cl87254   5.597   9.732   4.967  0.4236 -0.4361  0.1585
  647MOL0     C87255   6.599  10.286   4.625 -0.1585  0.9416 -1.3824
  647MOL0     C87256   6.722  10.339   4.591  0.7960  0.0214 -0.4843
  647MOL0     O87257   6.986  10.432   4.750 -0.7190 -0.5961 -0.2376
  647MOL0     C87258   7.230  10.573   4.691 -0.3204  0.1285  0.2394
  647MOL0     C87259   7.353  10.590   4.628  0.5357 -0.1373 -0.2304
  647MOL0     N87260   8.085  10.338   4.420 -0.8789 -0.1360  0.5026
  647MOL0     N87261   8.208  10.335   4.360  0.2281  0.3539 -0.3038
  647MOL0     C87262   9.041  10.173   3.598  0.4546  0.0650 -0.8782
  647MOL0     C87263   9.010  10.222   3.468  1.0424 -0.0656 -0.4363
  647MOL0     C87264   8.980  10.299   3.051 -0.4155  0.7351  0.7032
  647MOL0     C87265   8.882  10.232   2.985 -0.5283 -0.8431 -0.6135
  647MOL0     C87266   8.874  10.215   2.853  0.6589  0.4132 -0.4790
  647MOL0     C87267   8.972  10.275   2.766  0.1297 -0.3351 -0.8838
  647MOL0     O87268   8.954  10.250   2.632 -0.0948 -0.2205  0.4202
  647MOL0     C87269   9.037  10.315   2.535  0.4612  0.1637 -0.2045
  647MOL0     C87270   8.998  10.268   2.396  0.8057 -0.2226 -0.4246
  647MOL0     C87271   9.086  10.325   2.277 -0.1212  0.7324 -0.0190
  647MOL0     C87272   9.076  10.472   2.252 -0.2478 -0.5068  0.0177
  647MOL0     C87273   9.172  10.554   2.337 -0.2317 -0.0347  0.3466
  647MOL0     C87274   9.261  10.616   2.395  0.2420 -0.1839  1.2690
  647MOL0     C87275   9.080  10.356   2.831  0.7984  0.4180  0.0315
  647MOL0     C87276   9.088  10.358   2.972 -0.4865 -0.5115 -1.1998
  647MOL0     C87277   9.195  10.444   3.037  0.5324 -0.3750 -0.1388
  647MOL0     H87278   8.806   9.982   3.366  1.0179 -2.1317  1.0929
  647MOL0     H87279   8.837   9.914   3.605 -1.1305  0.2535  1.2336
  647MOL0     H87280   8.984  10.030   3.967  0.1859 -3.2024 -2.2848
  647MOL0     H87281   9.046  10.166   3.881 -2.5444  2.2392  1.8758
  647MOL0     H87282   8.795  10.166   3.783 -0.6915 -0.0900  0.7578
  647MOL0     H87283   8.872  10.267   3.912 -1.2205 -0.2215  2.6133
  647MOL0     H87284   8.806  10.080   4.081 -1.5471 -1.5134  0.6592
  647MOL0     H87285   8.727  10.002   3.948  1.4754  0.5939 -0.3213
  647MOL0     H87286   8.665  10.287   4.031  1.3381  0.0705 -1.7295
  647MOL0     H87287   8.589  10.212   3.901  1.9896 -0.7111 -0.9056
  647MOL0     H87288   8.501  10.039   4.050  1.0798 -0.2439  1.6783
  647MOL0     H87289   8.555  10.121   4.196 -0.1842 -0.5198  0.7044
  647MOL0     H87290   8.353  10.238   3.990 -4.2913  2.9024  1.7357
  647MOL0     H87291   8.319  10.165   4.148  0.6828  1.2661  2.2192
  647MOL0     H87292   8.500  10.406   4.085  0.3473 -2.0105 -1.2814
  647MOL0     H87293   8.453  10.357   4.250 -2.3085 -0.3668  1.2054
  647MOL0     H87294   8.337  10.550   4.171  0.0612  1.1986 -4.4025
  647MOL0     H87295   8.264  10.447   4.047  1.0898  3.6648 -0.0552
  647MOL0     H87296   8.019  10.488   4.141 -0.1700 -0.2245 -0.1659
  647MOL0     H87297   7.813  10.457   4.277  0.4509  1.2980  0.5452
  647MOL0     H87298   7.829  10.376   4.435  1.3566 -2.2333 -0.9363
  647MOL0     H87299   7.881  10.632   4.521 -3.6902  0.7660  0.8757
  647MOL0     H87300   7.919  10.668   4.356  4.0251 -2.7259  0.3161
  647MOL0     H87301   7.695  10.619   4.285  3.3664  4.2891 -1.6091
  647MOL0     H87302   7.718  10.771   4.393 -0.9404  1.2358  1.6109
  647MOL0     H87303   7.616  10.673   4.581 -1.0091  3.0126 -1.2130
  647MOL0     H87304   7.618  10.511   4.515 -0.3542  0.9710  0.3655
  647MOL0     H87305   7.257  10.659   4.320 -0.2053  1.0718 -0.2353
  647MOL0     H87306   7.043  10.612   4.420  1.0286 -3.9155 -1.7521
  647MOL0     H87307   6.669  10.660   4.679  1.8785  0.6307 -2.9577
  647MOL0     H87308   6.460  10.553   4.768  1.4344 -0.4726  0.4306
  647MOL0     H87309   6.451  10.265   4.899 -0.3197  0.5556  0.7772
  647MOL0     H87310   6.342  10.404   4.908  3.6215  1.5821 -1.1823
  647MOL0     H87311   6.155  10.280   4.952 -0.2895  0.3339 -2.0288
  647MOL0     H87312   6.174  10.224   4.795  1.4841  1.1641 -0.4154
  647MOL0     H87313   6.370  10.081   4.982  0.2723 -0.2662  0.1425
  647MOL0     H87314   6.218  10.091   5.057  0.5439 -2.0100  0.0196
  647MOL0     H87315   6.247   9.879   4.920 -6.4925 -0.9408  2.0833
  647MOL0     H87316   6.261   9.982   4.771 -0.9176  2.1277  0.3401
  647MOL0     H87317   6.046   9.906   4.747  0.9417 -0.4110  0.9584
  647MOL0     H87318   6.009  10.054   4.833 -1.8358 -0.9238 -1.3379
  647MOL0     H87319   6.033   9.781   4.961  0.4894 -0.3899  4.2048
  647MOL0     H87320   5.996   9.911   5.049  0.6558 -3.4105  0.7706
  647MOL0     H87321   5.835   9.807   4.828 -0.4628  1.1990 -0.1915
  647MOL0     H87322   5.785   9.955   4.916 -0.2159  0.7778  0.8791
  647MOL0     H87323   5.808   9.662   5.037 -1.4829 -0.1285  1.0857
  647MOL0     H87324   5.766   9.801   5.126  0.5373 -2.0599  1.1748
  647MOL0     H87325   6.577  10.179   4.628  1.0018  0.6160  3.4838
  647MOL0     H87326   6.787  10.260   4.555 -0.4008 -1.4430  0.4195
  647MOL0     H87327   7.235  10.525   4.789  1.6569 -0.7284 -0.2160
  647MOL0     H87328   7.442  10.562   4.685 -0.1155 -1.7886  0.0336
  647MOL0     H87329   9.136  10.204   3.641 -0.3607  0.0648  1.0389
  647MOL0     H87330   9.068  10.306   3.431  1.2731 -0.1488 -0.2699
  647MOL0     H87331   8.807  10.187   3.049 -2.0997  2.7028  0.3212
  647MOL0     H87332   8.798  10.150   2.813  1.2065 -0.2909 -0.4082
  647MOL0     H87333   9.141  10.293   2.562  0.9394  0.9784 -1.3099
  647MOL0     H87334   9.028  10.423   2.546 -3.1300  0.0183 -0.6436
  647MOL0     H87335   8.889  10.270   2.389  0.5268 -0.5419  2.3720
  647MOL0     H87336   9.017  10.161   2.398  1.7178 -0.0664  0.2040
  647MOL0     H87337   9.047  10.268   2.192  0.0184  1.5179 -0.6227
  647MOL0     H87338   9.193  10.305   2.293 -0.4877  0.3210  2.1838
  647MOL0     H87339   9.091  10.499   2.147 -0.8568  3.9778  0.8642
  647MOL0     H87340   8.969  10.494   2.256 -0.9343 -2.0383 -4.2608
  647MOL0     H87341   9.323  10.689   2.444 -1.8608  2.4852  0.1675
  647MOL0     H87342   9.151  10.410   2.768  0.9888  0.2579  0.1070
  647MOL0     H87343   9.155  10.546   3.047  2.9204  0.8165 -1.7087
  647MOL0     H87344   9.234  10.407   3.132 -2.8180  0.3981  1.6999
  647MOL0     H87345   9.283  10.462   2.974 -0.3244 -0.1464 -1.3012
  648MOL0     O87346   3.131   4.715   0.558 -0.5224  0.4569  0.1567
  648MOL0     C87347   3.157   4.611   0.491  0.4420 -0.0919  0.1139
  648MOL0     O87348   3.279   4.594   0.432  1.2927  0.4624 -0.5636
  648MOL0     C87349   3.392   4.664   0.460  0.2879  0.4281  0.4439
  648MOL0     C87350   3.461   4.720   0.349 -0.3079 -0.3658 -0.3654
  648MOL0     C87351   3.560   4.818   0.373  0.2146 -0.3747 -0.2692
  648MOL0     C87352   3.598   4.850   0.508  0.2374  0.3309  0.1015
  648MOL0     O87353   3.680   4.951   0.537  0.1096 -0.0846 -0.2997
  648MOL0     C87354   3.732   4.973   0.667 -0.7553 -0.2950 -0.6982
  648MOL0     C87355   3.858   5.064   0.668 -0.7292 -0.1454 -0.3732
  648MOL0     C87356   3.913   5.111   0.806  0.1178  0.5130 -0.2208
  648MOL0     C87357   3.986   5.244   0.793  0.4409 -0.4906  0.7297
  648MOL0     C87358   4.062   5.287   0.914  0.0551 -0.2042  0.3026
  648MOL0     C87359   4.101   5.435   0.902  0.0355 -0.1892 -0.1319
  648MOL0     C87360   4.159   5.501   1.026  0.1531  0.2244  0.2613
  648MOL0     C87361   4.288   5.455   1.077  0.0199 -0.2012 -0.2596
  648MOL0     N87362   4.327   5.553   1.181  0.0176 -0.2156 -0.3446
  648MOL0     C87363   4.399   5.663   1.155 -0.2570  0.4674  0.5595
  648MOL0     C87364   4.407   5.724   1.277  0.4619 -0.9375 -0.3825
  648MOL0     C87365   4.481   5.857   1.297 -0.7368 -0.0954 -0.5951
  648MOL0     C87366   4.558   5.846   1.432 -0.7660  0.3047  0.2281
  648MOL0     C87367   4.624   5.984   1.481  0.4467  0.7737 -0.0331
  648MOL0     C87368   4.717   5.954   1.590  0.7024 -0.5386  0.0081
  648MOL0     O87369   4.757   6.076   1.665 -0.5011 -0.0538  0.0367
  648MOL0     C87370   4.859   6.154   1.629 -0.8859 -0.7696  0.7380
  648MOL0     C87371   4.879   6.264   1.711 -0.2625  0.0357 -0.1981
  648MOL0     C87372   4.991   6.345   1.691 -0.6408  0.5906  0.5173
  648MOL0     C87373   5.078   6.327   1.578 -0.4061 -0.7747  0.3862
  648MOL0     C87374   5.191   6.420   1.568  0.3813  0.1619  1.0334
  648MOL0     O87375   5.282   6.388   1.471 -0.1083  0.1267 -0.5257
  648MOL0     C87376   5.395   6.463   1.462  0.5131  1.0683 -0.2488
  648MOL0     C87377   5.391   6.588   1.405  0.3193 -0.4498 -0.3432
  648MOL0     C87378   5.516   6.660   1.388 -0.2769  0.0607  0.1194
  648MOL0     C87379   5.637   6.611   1.425 -0.4957  0.4570  0.2368
  648MOL0     O87380   5.753   6.671   1.377  0.9991  0.5430 -0.6902
  648MOL0     C87381   5.876   6.595   1.379  0.3109 -0.2955  0.1647
  648MOL0     C87382   5.975   6.661   1.280 -0.1887 -0.3297 -0.8014
  648MOL0     C87383   6.108   6.575   1.271  0.1850  0.0151 -0.7031
  648MOL0     C87384   6.198   6.597   1.395 -0.0505  0.0009 -0.0691
  648MOL0     C87385   6.353   6.618   1.358  0.3014  0.1889 -0.1425
  648MOL0     C87386   6.435   6.488   1.309  0.0922  0.2253 -0.2755
  648MOL0     C87387   6.582   6.516   1.298  0.0204 -0.2347 -0.3311
  648MOL0     C87388   6.657   6.387   1.287  0.1730  0.3349  0.2569
  648MOL0    Cl87389   6.652   6.354   1.114 -0.5307  0.4787  0.0823
  648MOL0     C87390   5.626   6.480   1.488  0.2473 -0.1176  0.3329
  648MOL0     C87391   5.512   6.408   1.516  0.3137 -0.7992 -0.2646
  648MOL0     O87392   5.201   6.517   1.642  0.4551 -0.6852  0.4476
  648MOL0     C87393   5.062   6.215   1.505  0.2837  0.1939 -0.2236
  648MOL0     C87394   4.955   6.124   1.528 -0.1555  0.0227 -0.8474
  648MOL0     N87395   4.329   5.646   1.368 -0.4678 -0.2035 -0.2380
  648MOL0     N87396   4.293   5.540   1.310  0.1106 -0.3458 -0.0372
  648MOL0     C87397   3.534   4.774   0.619  0.1969  0.0723 -0.6071
  648MOL0     C87398   3.431   4.685   0.590 -0.3010 -0.2041 -0.1375
  648MOL0     C87399   3.054   4.501   0.474  0.0435 -0.6608 -0.0405
  648MOL0     C87400   3.089   4.392   0.392 -0.0421 -0.3641  0.2441
  648MOL0     C87401   3.015   4.280   0.379 -0.4933  0.4902 -0.1254
  648MOL0     C87402   2.892   4.278   0.432 -0.7904  1.0948 -0.6516
  648MOL0     O87403   2.807   4.171   0.418  0.6077 -0.2187  0.7078
  648MOL0     C87404   2.857   4.048   0.363  0.3295  0.2426  0.2441
  648MOL0     C87405   2.737   3.963   0.324  0.4554 -0.4269  1.3780
  648MOL0     C87406   2.660   3.904   0.444  0.7495 -0.0372 -0.0213
  648MOL0     C87407   2.541   3.818   0.394  0.4750  0.1705 -0.5616
  648MOL0     C87408   2.434   3.895   0.323  0.0570  0.3359 -0.0946
  648MOL0     C87409   2.325   3.947   0.294  0.6360 -0.5245  0.3003
  648MOL0     C87410   2.845   4.391   0.502 -0.7524  0.3731 -0.8749
  648MOL0     C87411   2.930   4.499   0.540  0.9879 -0.5910 -0.3653
  648MOL0     C87412   2.873   4.614   0.626 -0.5432  0.9899  0.2266
  648MOL0     H87413   3.435   4.700   0.246  0.4575 -3.2064 -0.0949
  648MOL0     H87414   3.593   4.866   0.281  0.3638  0.5708  0.2642
  648MOL0     H87415   3.658   5.024   0.729 -0.3916  0.5113 -0.9200
  648MOL0     H87416   3.760   4.881   0.718 -1.4902 -0.2324 -0.1670
  648MOL0     H87417   3.833   5.145   0.600 -2.7013  0.6077  1.1631
  648MOL0     H87418   3.933   5.004   0.616 -2.4554 -2.6052 -0.1956
  648MOL0     H87419   3.984   5.034   0.838  1.7731  1.9392 -0.3026
  648MOL0     H87420   3.833   5.107   0.881  1.6053  1.0776  1.4708
  648MOL0     H87421   4.053   5.236   0.707 -3.1105  0.6317 -2.4112
  648MOL0     H87422   3.916   5.318   0.754  2.5090  1.6307  0.8634
  648MOL0     H87423   3.994   5.281   0.999  2.7957  1.9024  2.8492
  648MOL0     H87424   4.142   5.219   0.945  1.3356  2.6078  3.7821
  648MOL0     H87425   4.167   5.464   0.820 -1.0682  0.4683 -0.8186
  648MOL0     H87426   4.013   5.496   0.878  0.8629  1.7715  1.4764
  648MOL0     H87427   4.096   5.488   1.115 -1.5054 -1.0198 -1.0052
  648MOL0     H87428   4.160   5.606   0.997  3.0222  0.1559 -0.1712
  648MOL0     H87429   4.287   5.358   1.127 -1.5239  1.5302  3.4756
  648MOL0     H87430   4.366   5.457   1.000  0.0103 -1.7183 -0.3240
  648MOL0     H87431   4.446   5.700   1.064 -1.0005  0.9056  0.3494
  648MOL0     H87432   4.548   5.869   1.211 -1.4747  1.3812 -1.0075
  648MOL0     H87433   4.409   5.938   1.310 -0.2515  0.1990  0.3378
  648MOL0     H87434   4.487   5.811   1.507 -0.5483 -1.4714 -0.3427
  648MOL0     H87435   4.641   5.777   1.416  0.5945  1.5343  1.5946
  648MOL0     H87436   4.557   6.063   1.516  0.2748 -0.7287  3.3913
  648MOL0     H87437   4.692   6.023   1.404 -1.8122  1.5948 -1.7535
  648MOL0     H87438   4.796   5.883   1.563 -3.5347 -5.8166 -0.2892
  648MOL0     H87439   4.653   5.893   1.655  0.0792 -0.1363 -0.2197
  648MOL0     H87440   4.813   6.276   1.796  0.5299 -0.3227  0.4883
  648MOL0     H87441   5.012   6.418   1.768 -0.6656  2.0407 -0.8073
  648MOL0     H87442   5.298   6.637   1.379  0.6107  0.2943 -0.0273
  648MOL0     H87443   5.507   6.752   1.332 -1.0152  0.2565  0.5456
  648MOL0     H87444   5.905   6.602   1.485  2.6024 -0.7166 -0.3787
  648MOL0     H87445   5.856   6.491   1.352 -3.0516  0.6416 -1.5813
  648MOL0     H87446   5.933   6.666   1.179 -0.9245 -1.1031 -0.5428
  648MOL0     H87447   5.990   6.765   1.311  1.7638 -0.4530 -1.2155
  648MOL0     H87448   6.099   6.466   1.267  1.8943 -0.2655  1.1891
  648MOL0     H87449   6.160   6.613   1.183  1.2949 -1.7667 -0.8757
  648MOL0     H87450   6.174   6.526   1.475 -4.3873  2.0089  0.6823
  648MOL0     H87451   6.162   6.685   1.449  0.2091  0.5356 -0.7567
  648MOL0     H87452   6.403   6.666   1.443  3.5827 -1.5457 -0.9483
  648MOL0     H87453   6.349   6.690   1.276  0.6981  2.0888  1.4357
  648MOL0     H87454   6.426   6.407   1.382  0.0146  0.2658 -0.2405
  648MOL0     H87455   6.398   6.454   1.212 -0.8544 -1.8958  0.7770
  648MOL0     H87456   6.611   6.560   1.394 -0.1634  0.3610 -0.5399
  648MOL0     H87457   6.612   6.591   1.224  0.1844 -0.4752 -0.5090
  648MOL0     H87458   6.762   6.397   1.318  0.2198 -0.3719  0.3534
  648MOL0     H87459   6.614   6.306   1.346 -0.2206 -0.7523 -1.4464
  648MOL0     H87460   5.711   6.421   1.521  0.3774 -1.9701 -2.8864
  648MOL0     H87461   5.509   6.312   1.566 -5.3648 -1.1411 -0.5744
  648MOL0     H87462   5.124   6.202   1.416 -0.2517 -1.6458 -0.3636
  648MOL0     H87463   4.939   6.053   1.447  4.1494 -3.0787  0.6334
  648MOL0     H87464   3.568   4.783   0.721  2.9340 -1.5367 -1.2780
  648MOL0     H87465   3.382   4.625   0.667 -1.1483  0.3930 -0.1991
  648MOL0     H87466   3.185   4.384   0.342 -1.9503 -0.3876 -3.8161
  648MOL0     H87467   3.065   4.202   0.323 -2.3978  0.3993 -1.7661
  648MOL0     H87468   2.916   4.002   0.443  3.1325  1.9717 -0.6935
  648MOL0     H87469   2.910   4.065   0.269 -0.4926  1.2988 -0.0541
  648MOL0     H87470   2.772   3.887   0.253  1.2509  2.4174 -1.4894
  648MOL0     H87471   2.672   4.023   0.259  0.5373 -1.2195  0.5376
  648MOL0     H87472   2.611   3.986   0.498 -1.0629 -1.5022  0.6501
  648MOL0     H87473   2.725   3.835   0.500  0.9428 -0.6165 -0.9386
  648MOL0     H87474   2.590   3.747   0.327  0.9947 -0.4710  0.4676
  648MOL0     H87475   2.504   3.765   0.482 -0.2135  1.4481 -0.0577
  648MOL0     H87476   2.233   3.995   0.265  0.5717 -0.8732 -0.0853
  648MOL0     H87477   2.742   4.393   0.539 -0.0137  2.0784  1.2990
  648MOL0     H87478   2.876   4.707   0.569 -1.7895 -1.0569 -3.4530
  648MOL0     H87479   2.768   4.607   0.656 -0.8654 -1.7502 -1.2103
  648MOL0     H87480   2.926   4.622   0.722 -1.9540 -0.5370  1.1808
  649MOL0     O87481   4.524   4.945   2.134 -0.5902  0.4044 -0.0091
  649MOL0     C87482   4.472   4.835   2.101 -0.1243 -0.9936  0.9734
  649MOL0     O87483   4.518   4.708   2.129  0.1417  0.3928 -0.0162
  649MOL0     C87484   4.650   4.690   2.167  0.0765 -0.2274  0.5438
  649MOL0     C87485   4.712   4.756   2.271  0.4375  0.3327 -0.4490
  649MOL0     C87486   4.846   4.733   2.302  0.4556 -0.3765  0.1245
  649MOL0     C87487   4.926   4.649   2.226 -0.5787  0.5454  0.2132
  649MOL0     O87488   5.056   4.624   2.260  0.4950 -0.2901  0.2283
  649MOL0     C87489   5.113   4.499   2.229  0.2104  0.2347 -0.6998
  649MOL0     C87490   5.252   4.506   2.300  0.1995 -0.2748  0.5921
  649MOL0     C87491   5.245   4.447   2.442  0.0214 -1.0687  0.2433
  649MOL0     C87492   5.387   4.438   2.505 -0.3913  0.4135  0.9292
  649MOL0     C87493   5.384   4.380   2.641 -0.0541 -0.1055 -0.8105
  649MOL0     C87494   5.367   4.223   2.643  0.0075  0.8559  0.3684
  649MOL0     C87495   5.223   4.192   2.688  0.2663  1.3120 -0.3920
  649MOL0     C87496   5.210   4.041   2.706 -0.2550 -1.0097 -1.4075
  649MOL0     N87497   5.068   3.995   2.738 -0.4551  0.3343  0.5236
  649MOL0     C87498   4.973   4.043   2.828  0.0824  0.1341 -0.0421
  649MOL0     C87499   4.866   3.968   2.796 -0.3657  0.9077 -1.0640
  649MOL0     C87500   4.736   3.979   2.869  0.0483 -0.7265  0.4725
  649MOL0     C87501   4.640   4.072   2.793  0.4014  0.6862  0.4801
  649MOL0     C87502   4.599   3.993   2.666 -0.1229  0.9847  0.7419
  649MOL0     C87503   4.468   4.044   2.603 -0.1321 -1.6174 -0.1291
  649MOL0     O87504   4.358   4.007   2.687 -0.2562  0.3160 -0.5672
  649MOL0     C87505   4.237   4.062   2.661  0.1839  0.3487  0.2780
  649MOL0     C87506   4.208   4.164   2.571 -0.1070 -0.6548  0.1334
  649MOL0     C87507   4.080   4.200   2.545  0.5793 -1.0461 -0.7526
  649MOL0     C87508   3.975   4.146   2.618  0.0341 -0.0585  0.0924
  649MOL0     C87509   3.837   4.169   2.587 -0.1779  0.3439 -0.0249
  649MOL0     O87510   3.810   4.223   2.471  0.1171  0.7274  0.3426
  649MOL0     C87511   3.690   4.283   2.450  0.1712  0.8683  0.1392
  649MOL0     C87512   3.600   4.250   2.347  1.3531 -0.6997  0.7465
  649MOL0     C87513   3.479   4.325   2.334 -1.1142 -0.2011 -0.2900
  649MOL0     C87514   3.444   4.424   2.421  0.9872  0.2419 -0.7819
  649MOL0     O87515   3.331   4.506   2.398 -0.3580  0.3049  0.7695
  649MOL0     C87516   3.218   4.525   2.492  0.4228  0.9692  1.1551
  649MOL0     C87517   3.147   4.393   2.501 -1.1393  0.2552 -0.3407
  649MOL0     C87518   3.086   4.331   2.381  0.5099 -0.4067 -0.2676
  649MOL0     C87519   3.049   4.191   2.412 -0.8016  0.5761  0.3699
  649MOL0     C87520   2.972   4.117   2.301  0.3091  0.0359  0.2767
  649MOL0     C87521   2.909   3.983   2.342 -0.6122 -0.7620  0.2249
  649MOL0     C87522   2.893   3.895   2.215  0.0237 -0.0795  0.4257
  649MOL0     C87523   2.776   3.802   2.216 -0.7504 -0.3878  0.7493
  649MOL0    Cl87524   2.784   3.690   2.060  0.2310  0.2495  0.0543
  649MOL0     C87525   3.532   4.453   2.525  0.3332  0.3883 -0.2551
  649MOL0     C87526   3.649   4.381   2.542  0.0868 -0.7987  0.5099
  649MOL0     O87527   3.748   4.120   2.658  1.0406  0.0496 -0.4209
  649MOL0     C87528   4.008   4.045   2.719  0.9907  0.5323  0.1993
  649MOL0     C87529   4.134   3.993   2.726  0.0048 -0.0566  0.9220
  649MOL0     N87530   4.899   3.875   2.715 -0.0043  0.3182  0.2402
  649MOL0     N87531   5.018   3.888   2.665  1.5722  0.4558 -0.4094
  649MOL0     C87532   4.860   4.565   2.133 -0.6142 -0.6148 -0.1647
  649MOL0     C87533   4.725   4.584   2.108  0.2870 -0.6863 -0.9894
  649MOL0     C87534   4.342   4.836   2.030 -0.5789 -0.0297  0.6187
  649MOL0     C87535   4.308   4.728   1.954 -0.1380  0.9882  0.4804
  649MOL0     C87536   4.190   4.722   1.885  0.4272  0.2923 -0.5375
  649MOL0     C87537   4.101   4.813   1.875  0.5857 -0.1896 -0.5898
  649MOL0     O87538   3.977   4.783   1.809 -0.2377 -0.0584 -0.8782
  649MOL0     C87539   3.880   4.898   1.807 -1.0389  1.0269 -0.4115
  649MOL0     C87540   3.893   4.974   1.670 -0.8744 -0.2559 -0.0395
  649MOL0     C87541   3.772   5.067   1.645 -0.4353 -0.0558  0.2065
  649MOL0     C87542   3.670   5.107   1.756  0.5263 -0.0962 -0.6766
  649MOL0     C87543   3.731   5.219   1.826  0.4036  0.8017  0.3461
  649MOL0     C87544   3.781   5.309   1.879  0.0724 -1.0652  0.2197
  649MOL0     C87545   4.133   4.930   1.951 -1.0353 -0.7419  0.3654
  649MOL0     C87546   4.250   4.940   2.037 -0.6719 -0.7288 -0.3064
  649MOL0     C87547   4.260   5.056   2.138  0.4161 -0.0910  0.5717
  649MOL0     H87548   4.656   4.833   2.323 -1.7689  0.8164 -3.2377
  649MOL0     H87549   4.898   4.798   2.372  0.6771  1.0369 -1.2893
  649MOL0     H87550   5.054   4.418   2.271  2.3192 -1.3481 -0.6206
  649MOL0     H87551   5.122   4.478   2.122  2.0271 -0.6209 -0.4297
  649MOL0     H87552   5.280   4.611   2.307  2.4933 -0.6664 -1.5006
  649MOL0     H87553   5.332   4.464   2.238  0.2260 -0.6534  0.8822
  649MOL0     H87554   5.207   4.345   2.436 -1.8413 -0.3176 -2.2198
  649MOL0     H87555   5.182   4.511   2.504  0.1368 -0.3901 -0.3183
  649MOL0     H87556   5.441   4.370   2.438 -2.1716  1.8730 -2.2189
  649MOL0     H87557   5.439   4.534   2.490 -0.7658  0.1775 -2.9526
  649MOL0     H87558   5.477   4.409   2.692 -0.0062 -2.3378  0.4718
  649MOL0     H87559   5.308   4.443   2.688  3.2606  3.6026  0.1747
  649MOL0     H87560   5.393   4.197   2.540  0.5039  4.1258 -0.4463
  649MOL0     H87561   5.430   4.167   2.712 -3.1650 -1.9442  1.2435
  649MOL0     H87562   5.149   4.222   2.614 -1.5684 -1.0398  0.3677
  649MOL0     H87563   5.196   4.242   2.781 -0.1297 -0.1793  0.3340
  649MOL0     H87564   5.239   3.981   2.619 -1.7575 -0.6992 -2.1628
  649MOL0     H87565   5.273   4.015   2.791  2.3403  2.0188 -2.2096
  649MOL0     H87566   4.967   4.117   2.906 -1.3846 -0.5706  0.5580
  649MOL0     H87567   4.691   3.880   2.878  0.3717 -1.0198 -0.8830
  649MOL0     H87568   4.747   4.031   2.964 -1.4996 -0.2605  0.4118
  649MOL0     H87569   4.553   4.075   2.859 -0.3213  2.5686 -0.4812
  649MOL0     H87570   4.678   4.173   2.778  0.7305  0.5523  0.4016
  649MOL0     H87571   4.597   3.886   2.688  2.8545  0.3177 -1.5345
  649MOL0     H87572   4.679   4.004   2.592 -0.0842  0.5077  0.7098
  649MOL0     H87573   4.455   4.029   2.495 -0.1155 -0.1416 -0.3611
  649MOL0     H87574   4.487   4.152   2.610 -0.1124 -1.6973  1.2059
  649MOL0     H87575   4.290   4.210   2.517  3.0754 -3.7948  1.8384
  649MOL0     H87576   4.052   4.277   2.474  1.8651 -0.1335 -0.3152
  649MOL0     H87577   3.634   4.184   2.268  2.2941 -0.8513  1.2722
  649MOL0     H87578   3.412   4.304   2.251 -0.1089 -0.2413 -1.1084
  649MOL0     H87579   3.264   4.544   2.590  3.6983  3.7739 -0.6789
  649MOL0     H87580   3.149   4.605   2.466 -0.7765 -1.1996 -3.4107
  649MOL0     H87581   3.213   4.310   2.527 -1.1810 -1.3279 -4.6099
  649MOL0     H87582   3.077   4.412   2.583  1.6205  1.4685  1.9024
  649MOL0     H87583   2.997   4.389   2.359  1.1061 -0.2218 -2.4227
  649MOL0     H87584   3.157   4.338   2.298 -0.5421  1.2562 -1.0605
  649MOL0     H87585   3.000   4.188   2.510  0.1001  2.5335  0.9305
  649MOL0     H87586   3.140   4.131   2.416 -1.6075 -0.7373 -0.6008
  649MOL0     H87587   3.029   4.107   2.209 -0.9675 -1.2892 -0.4106
  649MOL0     H87588   2.880   4.174   2.282  0.3978  0.3519  0.7657
  649MOL0     H87589   2.975   3.939   2.417  0.4209  0.2407 -0.0747
  649MOL0     H87590   2.813   4.003   2.391 -0.6962 -1.2663  0.2690
  649MOL0     H87591   2.979   3.829   2.209 -0.9264 -1.3261  0.0761
  649MOL0     H87592   2.876   3.957   2.127  0.9338 -0.2570  0.1154
  649MOL0     H87593   2.781   3.745   2.310  4.2441 -2.8703 -0.6460
  649MOL0     H87594   2.677   3.847   2.203 -0.8480 -1.0420 -1.0276
  649MOL0     H87595   3.495   4.531   2.590  0.0756  0.5055 -0.5408
  649MOL0     H87596   3.714   4.409   2.624 -0.1631 -2.3597  1.2736
  649MOL0     H87597   3.928   4.005   2.781  1.2517 -0.2441  0.0428
  649MOL0     H87598   4.167   3.916   2.795 -0.5248  0.1346  1.3953
  649MOL0     H87599   4.913   4.488   2.079 -1.8711 -0.1928 -2.1369
  649MOL0     H87600   4.671   4.533   2.028  1.0126 -3.3591  0.1167
  649MOL0     H87601   4.374   4.642   1.957 -0.1686  0.9867  1.7832
  649MOL0     H87602   4.164   4.634   1.827  3.1785 -0.3997 -0.8392
  649MOL0     H87603   3.898   4.965   1.892  1.7932 -2.9381  2.5120
  649MOL0     H87604   3.787   4.841   1.815  2.2192 -5.2433 -0.5513
  649MOL0     H87605   3.899   4.908   1.583 -0.2658  1.5436 -1.4270
  649MOL0     H87606   3.985   5.032   1.674  1.0362 -3.0941 -0.0473
  649MOL0     H87607   3.717   5.009   1.570  0.4575 -0.5428 -0.0980
  649MOL0     H87608   3.813   5.157   1.598 -0.5881 -1.4708 -2.8759
  649MOL0     H87609   3.572   5.139   1.719  0.8061  2.3352  0.4932
  649MOL0     H87610   3.657   5.026   1.828  3.9529 -0.7530 -0.6435
  649MOL0     H87611   3.817   5.399   1.925 -0.5288 -0.8746  0.3242
  649MOL0     H87612   4.066   5.014   1.963 -1.0628 -0.8814  1.3270
  649MOL0     H87613   4.162   5.106   2.135  0.6188  0.2974  0.3110
  649MOL0     H87614   4.264   5.024   2.242 -2.1306  3.4997  1.9672
  649MOL0     H87615   4.332   5.129   2.101 -1.2381  0.3953 -1.9705
  650MOL0     O87616   3.810   7.242   0.050  0.3810 -0.0506  0.3367
  650MOL0     C87617   3.904   7.255   0.126 -0.2097 -0.3192  0.9188
  650MOL0     O87618   3.913   7.196   0.244 -0.2409 -0.5161 -0.3170
  650MOL0     C87619   3.790   7.136   0.285 -0.0940  0.3671 -0.3903
  650MOL0     C87620   3.713   7.177   0.390  0.0875 -0.3551  0.4016
  650MOL0     C87621   3.599   7.101   0.430 -0.7004  0.0848  0.3963
  650MOL0     C87622   3.562   6.992   0.354  0.4702 -0.1560 -0.9403
  650MOL0     O87623   3.445   6.936   0.401 -0.4144 -0.9244  0.1426
  650MOL0     C87624   3.316   6.998   0.363 -0.3653 -0.9365 -0.3680
  650MOL0     C87625   3.240   7.050   0.478  0.6163 -0.6149 -0.6333
  650MOL0     C87626   3.098   7.084   0.423  0.8021 -0.0377  0.1166
  650MOL0     C87627   2.996   7.133   0.527 -0.5760  0.9175  0.3043
  650MOL0     C87628   2.860   7.161   0.456 -0.2700 -1.7401 -0.0712
  650MOL0     C87629   2.795   7.055   0.369  0.4021  0.4036 -0.5082
  650MOL0     C87630   2.646   7.085   0.351 -0.6114  0.4532  0.6229
  650MOL0     C87631   2.622   7.220   0.264 -0.7998  0.3329  0.9422
  650MOL0     N87632   2.483   7.210   0.215  0.1518  0.7082  0.3529
  650MOL0     C87633   2.447   7.118   0.116  0.5890  0.3325  0.2014
  650MOL0     C87634   2.312   7.102   0.133 -0.2459 -0.1466 -0.8671
  650MOL0     C87635   2.241   6.997   0.048  0.8940 -1.1394  0.3717
  650MOL0     C87636   2.272   6.858   0.115 -0.4089 -0.4243 -0.1005
  650MOL0     C87637   2.234   6.744   0.025  0.9625 -0.0262  0.5694
  650MOL0     C87638   2.250   6.619   0.097 -0.1343  0.4377 -0.0043
  650MOL0     O87639   2.214   6.488   0.043  0.1134  0.3158 -0.3195
  650MOL0     C87640   2.086   6.472   0.010 -0.4711 -0.8351 -0.3175
  650MOL0     C87641   2.007   6.399   0.100  0.1475  0.4008  0.9863
  650MOL0     C87642   1.875   6.390   0.064 -1.4886 -0.6128 -1.0013
  650MOL0     C87643   1.819   6.414  -0.066  0.7193 -1.3936  0.0139
  650MOL0     C87644   1.682   6.405  -0.102  0.2330 -1.3196 -0.4358
  650MOL0     O87645   1.647   6.422  -0.231  0.1994 -0.3111 -0.2675
  650MOL0     C87646   1.523   6.410  -0.291 -0.4831 -0.1886 -0.4703
  650MOL0     C87647   1.418   6.329  -0.240 -0.0792 -0.5496  0.6608
  650MOL0     C87648   1.296   6.319  -0.297  0.1268 -0.0328  0.4697
  650MOL0     C87649   1.268   6.387  -0.410  0.5838 -0.0061 -1.1176
  650MOL0     O87650   1.145   6.361  -0.466 -0.2762 -0.4865 -0.2682
  650MOL0     C87651   1.116   6.445  -0.582 -0.4222  0.4782 -0.8938
  650MOL0     C87652   0.986   6.386  -0.633  0.7166  0.0686 -0.1397
  650MOL0     C87653   0.945   6.450  -0.764  0.2011 -0.4252  0.2076
  650MOL0     C87654   0.810   6.397  -0.814 -0.5821  0.3149 -0.9422
  650MOL0     C87655   0.771   6.460  -0.949 -0.7948 -0.4097 -1.1910
  650MOL0     C87656   0.732   6.611  -0.928  0.0768  0.6281  0.8768
  650MOL0     C87657   0.671   6.679  -1.055 -0.2668  1.7319  0.0797
  650MOL0     C87658   0.650   6.825  -1.050 -0.2407 -0.3509 -0.4283
  650MOL0    Cl87659   0.494   6.874  -0.977 -0.0417 -0.1564 -0.0235
  650MOL0     C87660   1.370   6.462  -0.471  0.8925  0.6749  0.3160
  650MOL0     C87661   1.493   6.476  -0.410  0.4453 -0.1161  0.5385
  650MOL0     O87662   1.607   6.359  -0.017 -0.0083  0.1163  0.1692
  650MOL0     C87663   1.911   6.481  -0.153  0.8751 -0.1277  0.6538
  650MOL0     C87664   2.042   6.495  -0.122 -0.0021 -0.2541 -0.6246
  650MOL0     N87665   2.265   7.190   0.223  0.1577  1.4862 -0.0528
  650MOL0     N87666   2.365   7.254   0.274  0.5286 -0.4589 -0.0885
  650MOL0     C87667   3.632   6.957   0.247 -0.7156 -0.3101 -0.3628
  650MOL0     C87668   3.748   7.020   0.213  1.5247 -0.9706  0.0214
  650MOL0     C87669   4.025   7.320   0.064  0.4456 -0.5073 -0.3757
  650MOL0     C87670   4.148   7.314   0.149  0.5989  0.3616 -0.3718
  650MOL0     C87671   4.261   7.381   0.107  0.3398  0.2125 -0.2491
  650MOL0     C87672   4.272   7.440  -0.018  0.3658 -0.1108 -0.0594
  650MOL0     O87673   4.405   7.489  -0.050  0.2998 -0.3514 -0.4331
  650MOL0     C87674   4.438   7.549  -0.176 -0.5098  0.3241 -0.1784
  650MOL0     C87675   4.596   7.570  -0.172  0.5741 -0.2957 -0.0474
  650MOL0     C87676   4.664   7.604  -0.307 -0.3067 -0.0593 -0.5976
  650MOL0     C87677   4.814   7.643  -0.283  0.1001  0.0782 -0.0604
  650MOL0     C87678   4.891   7.525  -0.268  1.0921 -0.1971  0.0496
  650MOL0     C87679   4.956   7.421  -0.257  0.3957  0.8141 -0.1245
  650MOL0     C87680   4.161   7.442  -0.107  0.1970  0.3843 -0.0503
  650MOL0     C87681   4.035   7.392  -0.060 -1.1280 -1.0120 -0.0517
  650MOL0     C87682   3.912   7.398  -0.150  0.5916 -0.8805  0.4234
  650MOL0     H87683   3.741   7.272   0.435  0.3800 -0.7644  1.0939
  650MOL0     H87684   3.526   7.138   0.501  0.4524 -0.9330  2.1699
  650MOL0     H87685   3.330   7.081   0.293 -2.5386  1.7736  2.1626
  650MOL0     H87686   3.262   6.921   0.307 -1.9030  1.5872 -2.6192
  650MOL0     H87687   3.284   7.143   0.516 -2.0231  1.0640 -1.3697
  650MOL0     H87688   3.242   6.984   0.565  1.9027  0.8872  0.5343
  650MOL0     H87689   3.065   6.988   0.384 -1.8989  1.9526 -3.0339
  650MOL0     H87690   3.099   7.149   0.335 -2.8942 -1.8191 -1.4514
  650MOL0     H87691   2.984   7.057   0.604 -3.8565 -0.9346 -1.8053
  650MOL0     H87692   3.047   7.216   0.577 -1.3041 -0.0903  2.8471
  650MOL0     H87693   2.799   7.181   0.545  1.5887  1.7592  0.5745
  650MOL0     H87694   2.868   7.255   0.401 -1.1611  0.0541  2.6835
  650MOL0     H87695   2.835   7.051   0.267  1.1525  2.3251 -0.3303
  650MOL0     H87696   2.812   6.960   0.422  1.6897  0.8686 -0.0438
  650MOL0     H87697   2.607   7.109   0.451  2.8380  2.1221  1.7336
  650MOL0     H87698   2.594   6.997   0.312  1.2101 -1.7426  2.8049
  650MOL0     H87699   2.643   7.311   0.321  0.1761  0.6109  0.1842
  650MOL0     H87700   2.686   7.219   0.175 -2.6514  0.4994 -0.4477
  650MOL0     H87701   2.511   7.052   0.059  0.5739  1.0411 -0.6540
  650MOL0     H87702   2.134   7.018   0.052  0.8533 -1.3654  0.4661
  650MOL0     H87703   2.271   7.010  -0.056 -2.0556  4.0607 -0.1851
  650MOL0     H87704   2.378   6.841   0.133  0.0078 -0.6543 -2.4532
  650MOL0     H87705   2.228   6.847   0.214 -1.8795 -1.4491 -0.8105
  650MOL0     H87706   2.296   6.746  -0.065  3.0699  1.3625  1.9635
  650MOL0     H87707   2.133   6.765  -0.012  1.0245  0.3660  0.6128
  650MOL0     H87708   2.206   6.620   0.197  0.3676  1.4190  0.2195
  650MOL0     H87709   2.357   6.617   0.120 -0.2846 -1.1364  0.7045
  650MOL0     H87710   2.043   6.361   0.195 -0.3122  1.7324  1.7266
  650MOL0     H87711   1.814   6.353   0.145  0.7298 -3.1549 -0.3546
  650MOL0     H87712   1.429   6.274  -0.147 -2.4329  0.2024  1.4494
  650MOL0     H87713   1.219   6.255  -0.256  1.0936 -0.5642  1.4851
  650MOL0     H87714   1.106   6.549  -0.549 -1.6488 -0.2277  1.1847
  650MOL0     H87715   1.188   6.434  -0.664 -1.9228 -1.2121 -2.0496
  650MOL0     H87716   1.012   6.280  -0.644 -0.6694 -0.6642  2.6819
  650MOL0     H87717   0.897   6.390  -0.568 -1.1075 -2.3453 -2.2604
  650MOL0     H87718   0.932   6.559  -0.760  0.2363 -0.3986 -0.3747
  650MOL0     H87719   1.018   6.425  -0.841  0.8932  1.7420  0.0853
  650MOL0     H87720   0.739   6.430  -0.737  0.7916 -1.5313  1.2078
  650MOL0     H87721   0.813   6.290  -0.833  0.4488  0.4861 -1.8437
  650MOL0     H87722   0.686   6.411  -0.998  1.5136 -1.9416 -3.9605
  650MOL0     H87723   0.846   6.459  -1.029  2.2805  0.3955  1.5059
  650MOL0     H87724   0.661   6.634  -0.848 -2.1385  1.6913 -1.2675
  650MOL0     H87725   0.826   6.666  -0.926  0.6741 -0.2428 -0.9142
  650MOL0     H87726   0.574   6.630  -1.069 -0.2836  1.9472 -0.5826
  650MOL0     H87727   0.735   6.652  -1.139 -1.1585 -0.4827  0.0263
  650MOL0     H87728   0.730   6.869  -0.990 -0.4461 -1.6187  0.8322
  650MOL0     H87729   0.658   6.871  -1.149  0.4555  1.2628  0.3522
  650MOL0     H87730   1.354   6.521  -0.562 -1.4842  0.8602  0.8000
  650MOL0     H87731   1.567   6.530  -0.468  0.5016 -1.7666 -1.0261
  650MOL0     H87732   1.869   6.507  -0.250 -2.7045 -0.8115  1.8866
  650MOL0     H87733   2.105   6.537  -0.200 -0.7119 -0.6372 -1.4294
  650MOL0     H87734   3.614   6.864   0.194 -2.6280  0.2667 -0.7961
  650MOL0     H87735   3.813   6.971   0.140  0.2480 -0.2710 -1.6589
  650MOL0     H87736   4.144   7.264   0.245 -0.9260  2.3787  0.7064
  650MOL0     H87737   4.346   7.378   0.175  1.2513 -0.0971 -1.3766
  650MOL0     H87738   4.381   7.642  -0.193  0.2989  0.8676  0.0431
  650MOL0     H87739   4.417   7.487  -0.264 -3.3917  1.1007 -0.1602
  650MOL0     H87740   4.637   7.473  -0.143 -3.0866 -1.5198  1.7204
  650MOL0     H87741   4.625   7.644  -0.096 -1.2570 -1.4107  1.8721
  650MOL0     H87742   4.616   7.695  -0.346 -3.8189 -1.6309 -0.3273
  650MOL0     H87743   4.662   7.526  -0.383  0.3780 -0.6189 -0.0483
  650MOL0     H87744   4.853   7.714  -0.357  3.2116 -0.2513  1.1083
  650MOL0     H87745   4.850   7.691  -0.192 -0.4392 -1.6709  1.1154
  650MOL0     H87746   5.021   7.336  -0.254 -1.9194 -1.0696  0.3601
  650MOL0     H87747   4.157   7.480  -0.208 -0.1926  0.8897  0.1545
  650MOL0     H87748   3.873   7.299  -0.174  0.9827 -0.5182 -1.9746
  650MOL0     H87749   3.842   7.466  -0.101  2.2991  1.3867 -0.0683
  650MOL0     H87750   3.929   7.446  -0.247 -0.0841 -2.2395 -0.3940
  651MOL0     O87751   0.900   8.740   3.033  0.1855 -0.3413 -0.1850
  651MOL0     C87752   0.913   8.863   3.016 -0.2333 -0.3558  0.0224
  651MOL0     O87753   1.023   8.934   3.054 -0.6884  0.0798  0.1424
  651MOL0     C87754   1.114   8.873   3.139 -0.3052  0.4609 -0.0722
  651MOL0     C87755   1.211   8.785   3.096  0.0186  0.0010  0.1818
  651MOL0     C87756   1.319   8.743   3.171  0.7415  0.0225  0.2997
  651MOL0     C87757   1.325   8.783   3.312  0.3553 -1.0046  0.1564
  651MOL0     O87758   1.418   8.729   3.393 -0.4572 -0.0450 -0.9123
  651MOL0     C87759   1.537   8.667   3.341 -0.5108  0.0206  0.1703
  651MOL0     C87760   1.658   8.688   3.440  0.2202 -0.0290  0.4798
  651MOL0     C87761   1.653   8.602   3.575 -0.1609  0.3253 -0.2903
  651MOL0     C87762   1.778   8.647   3.656 -0.9068 -0.0275 -0.1382
  651MOL0     C87763   1.814   8.547   3.763  0.3109  0.6866 -0.4035
  651MOL0     C87764   1.939   8.585   3.843  0.5591 -0.1109 -0.4022
  651MOL0     C87765   1.962   8.483   3.954 -0.7469  0.2550 -0.4206
  651MOL0     C87766   2.100   8.530   4.002  0.9156  1.2520  0.2909
  651MOL0     N87767   2.148   8.468   4.128 -0.1494  0.7213 -0.2689
  651MOL0     C87768   2.085   8.469   4.248  0.4564 -0.0859 -0.6311
  651MOL0     C87769   2.170   8.402   4.330 -0.2939 -0.4090  0.3090
  651MOL0     C87770   2.154   8.371   4.479  0.2890 -0.8114  0.1291
  651MOL0     C87771   2.213   8.472   4.582  0.1034 -0.1821  0.6740
  651MOL0     C87772   2.186   8.429   4.722  0.1331 -0.5293  1.0251
  651MOL0     C87773   2.278   8.479   4.833  0.1141 -0.7275 -0.3599
  651MOL0     O87774   2.393   8.391   4.823  0.0754  0.4492  0.3888
  651MOL0     C87775   2.515   8.442   4.856 -0.4332 -0.7583  1.2020
  651MOL0     C87776   2.622   8.364   4.815 -0.2748 -0.3234 -0.5848
  651MOL0     C87777   2.760   8.392   4.861 -0.5495 -0.4220 -0.1798
  651MOL0     C87778   2.780   8.500   4.943  0.1074  0.0862 -0.1105
  651MOL0     C87779   2.916   8.522   4.996 -0.2391 -0.8787  0.1529
  651MOL0     O87780   3.013   8.426   4.977 -0.0741 -0.0033 -0.2547
  651MOL0     C87781   3.142   8.438   5.025 -0.1164 -0.1073  0.5016
  651MOL0     C87782   3.234   8.375   4.937 -0.1757 -0.6910  0.0217
  651MOL0     C87783   3.372   8.395   4.957 -0.3355  0.7348  0.5766
  651MOL0     C87784   3.418   8.461   5.071  0.6605 -0.2261  0.5034
  651MOL0     O87785   3.544   8.484   5.101 -0.1374 -0.2762 -0.5378
  651MOL0     C87786   3.591   8.455   5.228 -0.4214  0.5369 -0.2542
  651MOL0     C87787   3.738   8.415   5.221  0.4541  0.4908  0.3559
  651MOL0     C87788   3.818   8.487   5.332  0.1773 -0.0273 -0.0795
  651MOL0     C87789   3.974   8.457   5.345  0.5483  0.0161 -0.0517
  651MOL0     C87790   4.064   8.565   5.275  0.6982 -0.1830  0.5950
  651MOL0     C87791   4.213   8.526   5.273  0.1742 -0.8873  0.3572
  651MOL0     C87792   4.296   8.631   5.193  0.3760  0.9451  1.1127
  651MOL0     C87793   4.433   8.587   5.149  0.1953  0.0609  0.0755
  651MOL0    Cl87794   4.543   8.549   5.278  0.3677 -0.7461 -0.4113
  651MOL0     C87795   3.318   8.517   5.165 -1.0158  0.1091 -0.0086
  651MOL0     C87796   3.182   8.510   5.139 -0.0984 -0.7992 -1.1006
  651MOL0     O87797   2.936   8.636   5.037  0.7022 -0.4200 -0.1781
  651MOL0     C87798   2.670   8.590   4.977 -0.2397 -0.3736 -0.3353
  651MOL0     C87799   2.545   8.563   4.923 -0.7021  0.2470  1.2517
  651MOL0     N87800   2.275   8.350   4.262  0.0949 -0.0939 -0.0168
  651MOL0     N87801   2.265   8.395   4.144  0.7324  0.2250  0.2960
  651MOL0     C87802   1.225   8.869   3.352 -0.3156 -0.5143 -0.0357
  651MOL0     C87803   1.123   8.906   3.276 -0.1216 -0.2786 -0.2362
  651MOL0     C87804   0.820   8.911   2.908 -0.2757 -0.1715  0.1363
  651MOL0     C87805   0.695   8.839   2.897 -0.4180 -0.1893  0.4507
  651MOL0     C87806   0.602   8.869   2.792 -0.5575 -0.7987 -0.2675
  651MOL0     C87807   0.620   8.984   2.719 -0.0668 -0.1151 -0.7288
  651MOL0     O87808   0.528   9.023   2.622  1.0018 -0.7050  0.2696
  651MOL0     C87809   0.413   8.932   2.585  1.0046  0.1808  0.3129
  651MOL0     C87810   0.290   9.006   2.637 -0.2470  0.9913  1.1668
  651MOL0     C87811   0.258   9.133   2.545  0.7221 -1.0652 -0.6156
  651MOL0     C87812   0.141   9.220   2.590 -0.2053 -0.1654 -0.7192
  651MOL0     C87813   0.009   9.138   2.576 -0.0931  0.2702  1.2903
  651MOL0     C87814  -0.091   9.068   2.557 -0.3908 -0.1988  0.4049
  651MOL0     C87815   0.730   9.058   2.742 -0.2047 -0.1395  0.8330
  651MOL0     C87816   0.834   9.025   2.833  0.5276 -0.0809  0.1810
  651MOL0     C87817   0.948   9.118   2.839 -0.5994 -0.2032  0.8447
  651MOL0     H87818   1.213   8.760   2.991 -0.1784 -5.1597  1.1760
  651MOL0     H87819   1.392   8.692   3.109  0.5636  1.0734 -0.8137
  651MOL0     H87820   1.527   8.559   3.327  2.1131 -0.1849 -0.5581
  651MOL0     H87821   1.558   8.719   3.247 -1.9581  2.1806  0.9742
  651MOL0     H87822   1.652   8.795   3.460 -0.4490  0.1824 -0.7886
  651MOL0     H87823   1.754   8.669   3.391 -0.1619  1.3535 -0.8727
  651MOL0     H87824   1.660   8.495   3.557  1.6805  0.5060 -0.8216
  651MOL0     H87825   1.562   8.612   3.635 -0.8620 -3.5937 -0.4711
  651MOL0     H87826   1.867   8.654   3.594  1.2666  0.1752  2.7996
  651MOL0     H87827   1.774   8.744   3.707 -1.1699  0.7116 -1.5081
  651MOL0     H87828   1.737   8.540   3.841  0.8019  0.3515  0.0579
  651MOL0     H87829   1.829   8.448   3.720 -0.5575  0.1217  0.5559
  651MOL0     H87830   2.026   8.601   3.778  0.2256  1.6444 -0.4670
  651MOL0     H87831   1.922   8.680   3.895  4.3799  1.3407 -1.4473
  651MOL0     H87832   1.970   8.378   3.923 -1.8314  0.1782 -0.4569
  651MOL0     H87833   1.881   8.494   4.026 -0.0362 -1.1646  0.6475
  651MOL0     H87834   2.170   8.515   3.919  0.6112  2.3767 -0.1837
  651MOL0     H87835   2.098   8.639   4.015 -1.8434  1.0209  3.0223
  651MOL0     H87836   1.987   8.511   4.268  1.2910  2.7115 -1.9348
  651MOL0     H87837   2.047   8.373   4.504  0.3164  2.6994  0.4945
  651MOL0     H87838   2.206   8.277   4.498 -0.1966 -1.7204 -2.6402
  651MOL0     H87839   2.321   8.473   4.566  0.1307 -1.4690  0.7079
  651MOL0     H87840   2.159   8.566   4.564  2.3182  0.8039 -1.3724
  651MOL0     H87841   2.174   8.320   4.714 -0.8025 -0.3005 -1.4802
  651MOL0     H87842   2.087   8.465   4.749  0.2382  0.3771  0.2513
  651MOL0     H87843   2.227   8.474   4.930  2.2400  0.2387  0.8795
  651MOL0     H87844   2.301   8.585   4.821 -0.3746 -0.7906 -1.9618
  651MOL0     H87845   2.607   8.274   4.756  1.2564  0.9407 -3.0719
  651MOL0     H87846   2.843   8.330   4.830  0.1802  0.0070  0.8700
  651MOL0     H87847   3.205   8.319   4.849 -2.0581  1.1836 -0.6180
  651MOL0     H87848   3.441   8.362   4.880 -0.9115  0.0272  0.3435
  651MOL0     H87849   3.574   8.534   5.301  0.2287  0.7845 -0.3616
  651MOL0     H87850   3.535   8.366   5.257  1.4619 -0.0203  2.0275
  651MOL0     H87851   3.760   8.308   5.216  0.6696  0.5924 -1.6720
  651MOL0     H87852   3.778   8.448   5.125 -1.2966  2.1427  0.1427
  651MOL0     H87853   3.799   8.595   5.326 -0.7538  0.0084  2.3973
  651MOL0     H87854   3.772   8.461   5.428 -0.5142  1.1638 -0.0738
  651MOL0     H87855   3.992   8.356   5.307 -1.7016 -0.6466  0.4748
  651MOL0     H87856   4.002   8.455   5.450 -0.9337 -1.4774  0.3674
  651MOL0     H87857   4.048   8.668   5.310  0.0721 -0.2862  0.6288
  651MOL0     H87858   4.040   8.570   5.168 -1.7309 -0.4690  1.0670
  651MOL0     H87859   4.253   8.530   5.375  4.5656 -0.2442 -1.1762
  651MOL0     H87860   4.219   8.427   5.228  2.6182 -1.2723  1.3497
  651MOL0     H87861   4.317   8.711   5.265  3.2277 -1.3166  3.0271
  651MOL0     H87862   4.238   8.660   5.105 -0.4840 -0.3230  1.2408
  651MOL0     H87863   4.421   8.495   5.090 -1.3319 -1.1596  2.1384
  651MOL0     H87864   4.472   8.664   5.082  0.4059  0.3998  0.5808
  651MOL0     H87865   3.346   8.564   5.258 -1.2209 -2.3565  1.3942
  651MOL0     H87866   3.112   8.543   5.214  1.1986 -1.9434  0.7103
  651MOL0     H87867   2.682   8.676   5.042 -2.4940  0.4137 -0.8722
  651MOL0     H87868   2.463   8.633   4.938 -0.7940  0.7051 -0.9381
  651MOL0     H87869   1.230   8.911   3.452  2.4018  0.2256 -0.3914
  651MOL0     H87870   1.052   8.969   3.330 -0.8851 -1.4635  0.1777
  651MOL0     H87871   0.671   8.758   2.965  1.2745 -3.1259 -2.1732
  651MOL0     H87872   0.514   8.806   2.783 -2.3130  0.7658  3.5480
  651MOL0     H87873   0.414   8.828   2.618  0.0396  0.8594  2.6647
  651MOL0     H87874   0.400   8.938   2.476  0.0626  1.3800  0.4703
  651MOL0     H87875   0.304   9.033   2.742  1.2967 -0.6996  1.4538
  651MOL0     H87876   0.211   8.931   2.631  1.3746 -0.7310 -3.4414
  651MOL0     H87877   0.233   9.108   2.442 -1.4354 -0.0164 -0.3991
  651MOL0     H87878   0.347   9.197   2.551  1.4607 -2.1596  3.0947
  651MOL0     H87879   0.164   9.253   2.692 -1.0892  1.1512 -0.9250
  651MOL0     H87880   0.138   9.309   2.527 -1.3675 -1.1393 -2.1020
  651MOL0     H87881  -0.183   9.019   2.532 -1.5410  1.3464  1.4409
  651MOL0     H87882   0.752   9.151   2.691  2.6800 -1.6661 -0.9743
  651MOL0     H87883   0.968   9.146   2.943 -0.0641  0.9926  0.4404
  651MOL0     H87884   1.035   9.065   2.798  0.5687  0.5530  2.2679
  651MOL0     H87885   0.940   9.199   2.766 -2.2432 -1.1064 -0.0340
  652MOL0     O87886   3.246   4.022   3.568  0.4984 -0.0806 -0.0890
  652MOL0     C87887   3.240   4.005   3.449 -1.0088  0.1134  0.6863
  652MOL0     O87888   3.352   4.006   3.357 -0.8971 -0.4513  0.7369
  652MOL0     C87889   3.477   4.046   3.389  0.1820 -0.8440  1.0925
  652MOL0     C87890   3.520   4.083   3.513  0.9194  0.2675 -0.0343
  652MOL0     C87891   3.650   4.131   3.536  0.1574 -0.5460  0.4272
  652MOL0     C87892   3.737   4.147   3.428  0.6012 -0.5411 -0.6564
  652MOL0     O87893   3.857   4.220   3.435 -0.1966  0.5754  0.2137
  652MOL0     C87894   3.890   4.281   3.555 -0.0709  0.5753  0.6780
  652MOL0     C87895   3.984   4.396   3.510  0.2282  0.4250  0.3520
  652MOL0     C87896   4.017   4.487   3.629  0.2672 -0.6920  0.0897
  652MOL0     C87897   4.137   4.446   3.697 -0.9574  0.2857  1.7077
  652MOL0     C87898   4.177   4.539   3.815  0.5364  0.1113  0.2114
  652MOL0     C87899   4.131   4.491   3.948 -1.0432  0.3228 -0.2998
  652MOL0     C87900   4.201   4.551   4.062 -0.7744  0.0174 -0.2769
  652MOL0     C87901   4.350   4.525   4.061 -0.8734  0.1968 -0.0437
  652MOL0     N87902   4.416   4.539   4.193  0.0597  0.3029  0.0488
  652MOL0     C87903   4.445   4.428   4.274 -0.2494  0.2530 -0.5550
  652MOL0     C87904   4.505   4.486   4.386 -0.2501  0.2020 -0.5040
  652MOL0     C87905   4.566   4.385   4.487  0.3348 -0.4133 -0.5622
  652MOL0     C87906   4.572   4.437   4.639 -0.1249 -0.2735  0.1673
  652MOL0     C87907   4.680   4.539   4.673  0.3090  0.8317 -0.5247
  652MOL0     C87908   4.691   4.556   4.825 -0.7039 -0.5481 -0.1794
  652MOL0     O87909   4.813   4.629   4.851  0.0364  0.4459  0.2356
  652MOL0     C87910   4.846   4.662   4.978  0.2628 -0.0996  0.4092
  652MOL0     C87911   4.971   4.724   4.990  0.0500 -0.3267  1.1340
  652MOL0     C87912   5.022   4.770   5.115  0.0546 -0.3152 -0.2141
  652MOL0     C87913   4.946   4.751   5.234 -0.2909  0.0590 -0.7608
  652MOL0     C87914   4.998   4.807   5.365 -0.1351 -0.4063 -0.5118
  652MOL0     O87915   5.097   4.915   5.367  0.1529  0.3040  0.1335
  652MOL0     C87916   5.152   4.936   5.489 -0.3810 -0.4472  0.2412
  652MOL0     C87917   5.222   4.835   5.553 -0.7361 -0.5917  0.0899
  652MOL0     C87918   5.287   4.863   5.675 -0.7411  0.2284  0.1594
  652MOL0     C87919   5.280   4.983   5.738 -0.0908  0.5112 -0.1789
  652MOL0     O87920   5.336   5.008   5.860 -0.2743 -0.2888  0.4391
  652MOL0     C87921   5.464   4.948   5.903  0.2126  0.1329 -0.9145
  652MOL0     C87922   5.513   5.020   6.029 -0.6543  0.8914 -1.0038
  652MOL0     C87923   5.637   4.964   6.083 -0.8116  0.5458 -0.2089
  652MOL0     C87924   5.749   5.055   6.045  0.2589  0.3147 -0.9819
  652MOL0     C87925   5.886   5.020   6.111 -0.2900 -1.1831 -0.5235
  652MOL0     C87926   5.983   5.124   6.073 -0.1325 -1.1053  0.3162
  652MOL0     C87927   6.130   5.125   6.128  0.7056  0.3034  0.1921
  652MOL0     C87928   6.213   5.014   6.067  0.2324  0.5828 -0.0425
  652MOL0    Cl87929   6.375   5.042   6.132  0.1056 -0.1590 -0.0869
  652MOL0     C87930   5.212   5.084   5.679  0.2807  0.7667 -1.0106
  652MOL0     C87931   5.149   5.061   5.553  0.2832  0.8331 -0.1920
  652MOL0     O87932   4.941   4.771   5.465 -0.4495 -0.5745  0.4688
  652MOL0     C87933   4.826   4.678   5.225 -0.0555 -0.0461 -0.4953
  652MOL0     C87934   4.769   4.645   5.097 -0.2477  0.4483  0.0033
  652MOL0     N87935   4.514   4.623   4.368  0.6556  0.1277 -0.0634
  652MOL0     N87936   4.449   4.652   4.261  0.1096  0.9274 -0.0751
  652MOL0     C87937   3.702   4.101   3.299  0.5759 -0.1294  0.0067
  652MOL0     C87938   3.564   4.059   3.275 -0.1816  0.3874 -0.3337
  652MOL0     C87939   3.109   4.003   3.378  0.0502  0.1564 -0.1305
  652MOL0     C87940   3.117   3.974   3.238 -0.3693 -0.0990  0.1203
  652MOL0     C87941   2.998   3.954   3.168  0.3308 -1.2978  1.0540
  652MOL0     C87942   2.872   3.966   3.230 -0.2735 -0.7921  0.2084
  652MOL0     O87943   2.753   3.942   3.184  0.5081 -0.4209  0.7010
  652MOL0     C87944   2.741   3.922   3.040  1.1699 -0.1069  0.3436
  652MOL0     C87945   2.599   3.873   3.004 -0.5329 -0.4831 -0.2072
  652MOL0     C87946   2.577   3.731   3.062 -0.5530  0.4408 -0.5241
  652MOL0     C87947   2.460   3.658   2.991 -0.7409 -0.1264 -0.3282
  652MOL0     C87948   2.495   3.623   2.855  0.0347  1.1559  0.5914
  652MOL0     C87949   2.509   3.609   2.735 -0.0732 -0.3866  0.1379
  652MOL0     C87950   2.873   4.013   3.360  0.2138  0.6409  0.5775
  652MOL0     C87951   2.983   4.030   3.435  0.4969  0.8086 -0.4066
  652MOL0     C87952   2.954   4.087   3.570 -1.6277 -0.4660  0.1875
  652MOL0     H87953   3.464   4.077   3.606 -1.9429 -0.9182 -1.7101
  652MOL0     H87954   3.674   4.157   3.639  2.1673  2.8156 -0.6945
  652MOL0     H87955   3.804   4.324   3.607  0.8809  2.2270  0.9640
  652MOL0     H87956   3.937   4.204   3.617 -0.6375  0.3993  0.8944
  652MOL0     H87957   3.942   4.442   3.420 -0.1474 -1.8652 -0.7159
  652MOL0     H87958   4.078   4.349   3.480 -0.4108 -0.4859 -0.3018
  652MOL0     H87959   3.942   4.497   3.708 -1.9014 -0.0875 -1.9324
  652MOL0     H87960   4.037   4.588   3.592 -0.1113  0.5595  3.0090
  652MOL0     H87961   4.134   4.341   3.728 -3.1330 -1.2937 -2.9223
  652MOL0     H87962   4.212   4.467   3.620 -3.5313  0.2710 -0.9619
  652MOL0     H87963   4.286   4.529   3.816  0.4236 -1.4845  1.0282
  652MOL0     H87964   4.145   4.643   3.806  0.5477 -0.0265 -2.0156
  652MOL0     H87965   4.024   4.506   3.963 -1.3470 -3.1314  2.2087
  652MOL0     H87966   4.150   4.383   3.955  1.0782  0.6841  0.1758
  652MOL0     H87967   4.167   4.491   4.148 -0.5439 -0.9161 -0.8211
  652MOL0     H87968   4.175   4.657   4.068  1.1641  0.7437 -3.0612
  652MOL0     H87969   4.371   4.425   4.023 -0.1474  1.2928 -2.7302
  652MOL0     H87970   4.391   4.595   3.988 -0.9704 -0.5875 -0.8599
  652MOL0     H87971   4.427   4.322   4.259  0.9510 -0.0532  0.0434
  652MOL0     H87972   4.508   4.293   4.480  1.5581 -1.1604 -1.3524
  652MOL0     H87973   4.667   4.366   4.450  0.4246 -0.6534 -0.2037
  652MOL0     H87974   4.473   4.479   4.662  0.0647  1.1896 -1.4923
  652MOL0     H87975   4.608   4.354   4.701  2.2111 -0.5443 -1.4231
  652MOL0     H87976   4.652   4.634   4.628 -0.7833  0.7294 -0.0911
  652MOL0     H87977   4.778   4.510   4.633  1.0461 -1.9543  2.8404
  652MOL0     H87978   4.699   4.459   4.875 -2.1340  0.1755  1.5509
  652MOL0     H87979   4.608   4.616   4.864 -1.1768 -0.3317 -1.4729
  652MOL0     H87980   5.032   4.763   4.909  0.0420  1.1544  1.8121
  652MOL0     H87981   5.116   4.823   5.129 -1.3943  2.3051  0.3481
  652MOL0     H87982   5.239   4.737   5.509  1.4633 -1.4259  2.5425
  652MOL0     H87983   5.349   4.784   5.716 -0.5024 -1.3231 -2.9037
  652MOL0     H87984   5.438   4.844   5.925 -4.2451  1.4946  1.5605
  652MOL0     H87985   5.544   4.947   5.829  2.0761 -3.0024  0.9613
  652MOL0     H87986   5.519   5.128   6.016 -0.4917  1.2897  1.7312
  652MOL0     H87987   5.440   4.994   6.106  0.3875 -2.3701 -0.9557
  652MOL0     H87988   5.638   4.949   6.192  0.2172 -0.8299 -0.3805
  652MOL0     H87989   5.658   4.866   6.038  1.5226  2.1160 -2.8226
  652MOL0     H87990   5.719   5.153   6.083  0.3205  1.2498 -3.2073
  652MOL0     H87991   5.752   5.059   5.936 -1.2464 -2.7951 -1.2615
  652MOL0     H87992   5.927   4.930   6.065 -0.4261 -1.7282  0.3921
  652MOL0     H87993   5.870   5.015   6.220 -0.9603  1.7373 -0.3947
  652MOL0     H87994   5.994   5.123   5.964 -0.4127  0.4364  0.2526
  652MOL0     H87995   5.939   5.221   6.096 -1.2952 -0.8471 -2.5792
  652MOL0     H87996   6.122   5.112   6.237 -1.4593 -0.1945  0.0196
  652MOL0     H87997   6.178   5.220   6.105 -0.0302  0.8986  1.0462
  652MOL0     H87998   6.187   4.909   6.084 -0.2894  0.6354 -0.5072
  652MOL0     H87999   6.224   5.031   5.960 -0.7641  2.0127  0.0542
  652MOL0     H88000   5.188   5.182   5.719  1.2281  0.7588 -0.3929
  652MOL0     H88001   5.094   5.141   5.505 -1.8300 -1.1930 -1.3771
  652MOL0     H88002   4.775   4.652   5.317  3.0652 -2.4086  0.7250
  652MOL0     H88003   4.673   4.593   5.097  0.4755 -1.0508 -2.0909
  652MOL0     H88004   3.760   4.122   3.210 -4.6265  1.9108 -3.3617
  652MOL0     H88005   3.532   4.021   3.178 -0.7344 -5.5155  1.7588
  652MOL0     H88006   3.210   3.976   3.183 -1.0180 -0.3173 -1.0264
  652MOL0     H88007   3.008   3.932   3.062  0.4749  3.2964 -0.0989
  652MOL0     H88008   2.809   3.856   2.986  1.4880  1.2097 -0.9245
  652MOL0     H88009   2.753   4.022   2.999 -1.7954  0.0255 -0.4118
  652MOL0     H88010   2.600   3.862   2.895 -0.7446  0.4377 -0.3130
  652MOL0     H88011   2.516   3.935   3.039  1.1006  1.2477  0.7876
  652MOL0     H88012   2.559   3.741   3.169  2.4430  1.6490 -0.0506
  652MOL0     H88013   2.670   3.673   3.055  0.0104  1.3896 -1.0201
  652MOL0     H88014   2.445   3.565   3.048  1.2815 -0.0586  0.3798
  652MOL0     H88015   2.370   3.719   3.002  0.5994  1.8018  0.4758
  652MOL0     H88016   2.532   3.607   2.630 -0.9652  0.7293 -0.0931
  652MOL0     H88017   2.775   4.014   3.406  0.5423 -1.0123  1.3855
  652MOL0     H88018   2.940   4.195   3.564 -1.2509 -0.4894 -1.7900
  652MOL0     H88019   2.867   4.042   3.620  0.0106 -3.5703  0.4589
  652MOL0     H88020   3.039   4.064   3.634 -1.1979 -2.1019 -0.8990
  653MOL0     O88021   6.917   9.074   5.046  0.5895  0.6619  0.2165
  653MOL0     C88022   7.012   9.012   4.999  0.0293 -0.0396 -0.4277
  653MOL0     O88023   7.019   8.938   4.877 -1.2030 -0.3572  0.6688
  653MOL0     C88024   6.904   8.957   4.797 -0.4372 -0.2396  0.4232
  653MOL0     C88025   6.784   8.885   4.840 -0.0387 -0.3967 -0.2556
  653MOL0     C88026   6.671   8.904   4.760  0.3149 -0.2135 -0.4385
  653MOL0     C88027   6.668   8.982   4.648 -1.0418 -0.0287  0.3507
  653MOL0     O88028   6.559   8.973   4.565 -0.5144  0.5715  0.5979
  653MOL0     C88029   6.494   9.097   4.545  1.1211  0.8543  0.4720
  653MOL0     C88030   6.401   9.077   4.427  0.1113  0.1854 -0.2736
  653MOL0     C88031   6.309   9.204   4.413 -0.1577 -0.3819 -0.7841
  653MOL0     C88032   6.241   9.223   4.284 -0.7841  0.8915 -0.0083
  653MOL0     C88033   6.169   9.361   4.286  0.4695  0.1099  0.4926
  653MOL0     C88034   6.095   9.369   4.152 -0.6021  0.3744 -0.1810
  653MOL0     C88035   6.023   9.512   4.144 -0.1984  0.6336  0.5956
  653MOL0     C88036   5.953   9.513   4.009 -0.5514 -0.2467 -0.0347
  653MOL0     N88037   5.839   9.420   4.000  0.1329  0.5974 -0.5088
  653MOL0     C88038   5.716   9.439   4.062  0.1383 -0.4661 -0.3554
  653MOL0     C88039   5.637   9.343   4.001  0.3874 -0.5718  0.3503
  653MOL0     C88040   5.498   9.292   4.046 -0.4094  0.0422  0.0614
  653MOL0     C88041   5.452   9.343   4.184 -0.2742  0.0319 -0.6894
  653MOL0     C88042   5.531   9.285   4.297 -0.2023  0.8741 -0.2431
  653MOL0     C88043   5.497   9.323   4.439  1.2974 -0.5672  0.1204
  653MOL0     O88044   5.527   9.464   4.447 -0.0637  0.0113 -0.1532
  653MOL0     C88045   5.642   9.478   4.520  0.1850 -0.3999 -1.1193
  653MOL0     C88046   5.755   9.521   4.452  0.6022 -0.0582  0.4157
  653MOL0     C88047   5.876   9.541   4.518  0.7807 -0.7882  0.1142
  653MOL0     C88048   5.882   9.523   4.657 -0.9814  0.0523  0.2280
  653MOL0     C88049   6.013   9.527   4.736  0.2770 -0.4896  0.0721
  653MOL0     O88050   6.118   9.548   4.657  0.3281 -0.6063 -0.0297
  653MOL0     C88051   6.241   9.514   4.696 -0.6770 -0.3655  0.0140
  653MOL0     C88052   6.275   9.406   4.791  0.6802 -0.2817  0.1391
  653MOL0     C88053   6.403   9.357   4.809  0.0122  0.0560  0.0423
  653MOL0     C88054   6.510   9.405   4.733 -1.0077 -0.2184  0.7982
  653MOL0     O88055   6.621   9.343   4.761  0.1005  0.5083  0.3845
  653MOL0     C88056   6.746   9.389   4.703  0.6663 -0.3278 -1.2122
  653MOL0     C88057   6.866   9.374   4.795  0.4221 -0.6942  0.0291
  653MOL0     C88058   7.003   9.409   4.729  0.1308  0.7418  0.1866
  653MOL0     C88059   7.119   9.399   4.826  0.5307 -0.4787  0.1305
  653MOL0     C88060   7.252   9.445   4.769  0.6548 -0.0863  0.1064
  653MOL0     C88061   7.363   9.434   4.877  0.2612 -0.6800 -0.3102
  653MOL0     C88062   7.508   9.493   4.835  0.5310 -0.6038  0.5288
  653MOL0     C88063   7.592   9.539   4.948  0.4638  0.1712  0.3110
  653MOL0    Cl88064   7.632   9.399   5.053  0.3718  0.0501  0.0976
  653MOL0     C88065   6.487   9.511   4.642  0.0265  0.4665  0.0054
  653MOL0     C88066   6.351   9.560   4.620 -0.9609 -0.2675 -0.7698
  653MOL0     O88067   6.006   9.483   4.854 -0.4906 -0.2826  0.0121
  653MOL0     C88068   5.767   9.484   4.729  0.4670 -0.2914  0.5010
  653MOL0     C88069   5.646   9.467   4.660 -0.0815  0.4351 -0.0085
  653MOL0     N88070   5.708   9.277   3.908 -0.3386 -0.0215 -0.1125
  653MOL0     N88071   5.825   9.321   3.907 -0.3773  0.1790 -1.0660
  653MOL0     C88072   6.786   9.045   4.603  0.2628  0.7751  1.2128
  653MOL0     C88073   6.900   9.033   4.677 -0.4553  0.2612  0.4112
  653MOL0     C88074   7.144   9.026   5.072 -0.2408  0.5756 -0.0227
  653MOL0     C88075   7.172   9.153   5.136  1.1756 -0.2132 -0.6629
  653MOL0     C88076   7.296   9.180   5.195  0.6616  0.9522  0.1036
  653MOL0     C88077   7.393   9.069   5.205  0.0321 -0.4756 -0.4817
  653MOL0     O88078   7.526   9.085   5.247  0.3127  0.5159  0.3490
  653MOL0     C88079   7.553   9.198   5.331  0.8507  0.3808  0.3954
  653MOL0     C88080   7.626   9.147   5.452 -0.3352 -0.7608  0.3947
  653MOL0     C88081   7.534   9.092   5.565  0.9012  0.6535  0.0979
  653MOL0     C88082   7.616   9.060   5.697  0.5085  0.4523 -0.2480
  653MOL0     C88083   7.557   8.972   5.801  0.7553 -0.5747 -0.5324
  653MOL0     C88084   7.542   8.886   5.887  0.2458 -0.0814  0.0010
  653MOL0     C88085   7.358   8.945   5.155  0.3638 -0.2401 -0.2888
  653MOL0     C88086   7.235   8.916   5.091  0.4775  0.1206 -0.2960
  653MOL0     C88087   7.218   8.772   5.039 -0.0450  0.5954  0.3912
  653MOL0     H88088   6.774   8.829   4.932 -0.6345 -0.8918 -0.6147
  653MOL0     H88089   6.578   8.859   4.794  0.1216  0.5248  0.0435
  653MOL0     H88090   6.435   9.132   4.630 -2.6294  0.6551 -1.7719
  653MOL0     H88091   6.567   9.176   4.531 -0.6055  3.0048  2.7939
  653MOL0     H88092   6.343   8.984   4.429 -0.2581  0.3274 -2.1609
  653MOL0     H88093   6.464   9.053   4.341  1.6841 -0.6438  1.0584
  653MOL0     H88094   6.363   9.295   4.441  1.1053 -1.1508 -0.6413
  653MOL0     H88095   6.222   9.200   4.479 -0.0843  0.0840 -0.6582
  653MOL0     H88096   6.315   9.228   4.203  0.0634 -1.0924  0.5899
  653MOL0     H88097   6.174   9.139   4.266  0.0832  0.2527 -0.3567
  653MOL0     H88098   6.088   9.367   4.359 -2.0734  2.3297 -2.2493
  653MOL0     H88099   6.236   9.446   4.298 -0.5049  1.2513 -1.6183
  653MOL0     H88100   6.170   9.352   4.074 -0.9086 -0.8823 -0.2324
  653MOL0     H88101   6.007   9.304   4.156 -0.8122  0.6955  0.4258
  653MOL0     H88102   6.111   9.576   4.153  0.5935 -0.6047  2.2390
  653MOL0     H88103   5.950   9.515   4.226 -4.7997 -1.2620 -3.0199
  653MOL0     H88104   5.915   9.616   3.999 -3.0882 -0.9229  1.5655
  653MOL0     H88105   6.026   9.474   3.938  1.2237 -1.8548  2.5210
  653MOL0     H88106   5.681   9.494   4.148  0.5428  0.9513 -1.0592
  653MOL0     H88107   5.419   9.293   3.970  1.1876 -3.4310 -1.8746
  653MOL0     H88108   5.514   9.186   4.063 -1.0892  0.0017  0.5092
  653MOL0     H88109   5.479   9.449   4.196  0.2854 -0.2567  0.8232
  653MOL0     H88110   5.345   9.327   4.200 -0.4716 -1.1220 -2.8069
  653MOL0     H88111   5.636   9.310   4.279  0.8237 -3.0353 -0.5221
  653MOL0     H88112   5.524   9.177   4.287 -0.8263  0.8447  0.4346
  653MOL0     H88113   5.543   9.264   4.518  2.1110  1.9175  1.6249
  653MOL0     H88114   5.391   9.308   4.460  1.6311 -1.8854  0.9549
  653MOL0     H88115   5.746   9.541   4.345  1.1691  1.9488  0.7048
  653MOL0     H88116   5.968   9.578   4.474  1.0569  0.5752  1.7098
  653MOL0     H88117   6.188   9.359   4.836  1.4279 -1.3134  0.5264
  653MOL0     H88118   6.430   9.280   4.880  0.7370  0.2702  0.0069
  653MOL0     H88119   6.760   9.324   4.617 -1.9805  0.0748 -2.0419
  653MOL0     H88120   6.737   9.495   4.677 -1.5431 -0.5118 -1.4461
  653MOL0     H88121   6.858   9.430   4.889 -2.2704  0.6198 -0.8604
  653MOL0     H88122   6.860   9.273   4.837 -1.3069 -0.1812  1.1201
  653MOL0     H88123   7.023   9.341   4.645 -0.1654 -1.4210  1.7815
  653MOL0     H88124   7.009   9.512   4.692  0.3113  1.0273  0.9910
  653MOL0     H88125   7.127   9.303   4.878  1.3715  0.2063  1.3357
  653MOL0     H88126   7.096   9.464   4.911  2.0174 -1.4885  1.3593
  653MOL0     H88127   7.249   9.552   4.746 -0.6960 -0.0363  0.4026
  653MOL0     H88128   7.273   9.385   4.681 -0.2624 -1.8913  1.0449
  653MOL0     H88129   7.329   9.491   4.964  1.2353  2.3904 -1.8042
  653MOL0     H88130   7.383   9.330   4.904 -0.1544 -0.6795  0.0011
  653MOL0     H88131   7.476   9.572   4.766 -1.7617 -3.3451 -1.7749
  653MOL0     H88132   7.565   9.422   4.775 -1.3682 -1.1339 -0.7308
  653MOL0     H88133   7.680   9.580   4.897  0.1636 -0.3060 -0.6014
  653MOL0     H88134   7.535   9.606   5.013 -0.5159 -1.1561  0.8639
  653MOL0     H88135   6.561   9.562   4.582  0.2990 -0.5107 -0.5174
  653MOL0     H88136   6.333   9.626   4.535  1.9306  0.8869 -0.6078
  653MOL0     H88137   5.765   9.479   4.838 -0.7217 -2.6378  0.4187
  653MOL0     H88138   5.559   9.434   4.716 -1.8577 -4.1015 -4.6587
  653MOL0     H88139   6.793   9.111   4.516 -0.0445 -1.2840 -0.4408
  653MOL0     H88140   6.980   9.101   4.648  0.3568  0.8439  3.7024
  653MOL0     H88141   7.099   9.232   5.125  0.5526 -0.9547 -2.2966
  653MOL0     H88142   7.322   9.284   5.213 -0.9899  1.4251 -0.0980
  653MOL0     H88143   7.467   9.255   5.367 -1.0682 -1.9169 -0.2929
  653MOL0     H88144   7.609   9.276   5.278  3.5558  1.1880  4.0762
  653MOL0     H88145   7.690   9.221   5.500  0.1029 -1.6618  1.2418
  653MOL0     H88146   7.696   9.070   5.418 -2.0679 -1.3883 -2.0466
  653MOL0     H88147   7.484   8.998   5.539  0.0123  1.1131  0.1203
  653MOL0     H88148   7.449   9.159   5.573 -1.6538 -1.7960 -3.5307
  653MOL0     H88149   7.692   8.993   5.657 -2.0289 -1.5598 -2.0295
  653MOL0     H88150   7.668   9.149   5.734  2.6268 -1.5189  1.8394
  653MOL0     H88151   7.537   8.807   5.959  1.9509 -0.0697  0.1699
  653MOL0     H88152   7.431   8.865   5.146  1.0924  0.6237 -2.9317
  653MOL0     H88153   7.277   8.698   5.094 -1.2528  1.0357  2.3811
  653MOL0     H88154   7.113   8.745   5.051  0.1419  0.2450  1.3432
  653MOL0     H88155   7.239   8.771   4.932 -3.1432 -1.7151 -0.3523
  654MOL0     O88156   5.736   6.736   3.674 -0.4450 -0.2253 -0.1986
  654MOL0     C88157   5.719   6.853   3.712  0.9368  0.0156 -0.0424
  654MOL0     O88158   5.817   6.945   3.748  0.1220  0.4771 -0.0285
  654MOL0     C88159   5.934   6.919   3.694 -0.6313 -0.0275 -0.7601
  654MOL0     C88160   5.989   7.010   3.601 -0.8431 -0.1976  0.0229
  654MOL0     C88161   6.127   7.001   3.565 -0.5236 -0.0794 -0.2766
  654MOL0     C88162   6.207   6.887   3.604  0.1621 -1.3962  0.4585
  654MOL0     O88163   6.330   6.851   3.558 -0.9176  0.1369 -0.1484
  654MOL0     C88164   6.396   6.931   3.449  0.0617 -1.0021  0.8854
  654MOL0     C88165   6.475   7.037   3.527 -1.5548 -0.6009  0.8453
  654MOL0     C88166   6.551   7.123   3.421  0.2950  0.1831 -0.4869
  654MOL0     C88167   6.703   7.081   3.403 -0.6578 -0.3647  0.2050
  654MOL0     C88168   6.778   7.153   3.292  0.1725 -0.2662 -0.1583
  654MOL0     C88169   6.929   7.153   3.320 -0.1134  0.7756 -0.0258
  654MOL0     C88170   6.998   7.284   3.300  0.2021 -0.2147  0.3006
  654MOL0     C88171   6.954   7.398   3.393  0.5682 -0.1106  0.2624
  654MOL0     N88172   6.974   7.357   3.539  0.3245 -0.0729 -0.0384
  654MOL0     C88173   7.098   7.338   3.586 -0.2729  0.7359 -0.1908
  654MOL0     C88174   7.080   7.334   3.723  0.0308  0.0491 -0.4671
  654MOL0     C88175   7.191   7.297   3.819 -0.1677  0.1451  0.6946
  654MOL0     C88176   7.295   7.405   3.848  0.1614 -0.3550  0.3712
  654MOL0     C88177   7.354   7.383   3.991  0.2889 -0.7786 -0.5211
  654MOL0     C88178   7.468   7.466   4.032 -1.0138 -0.5256  0.1481
  654MOL0     O88179   7.552   7.390   4.126  0.2275  0.4214  0.0498
  654MOL0     C88180   7.661   7.458   4.179 -0.1728 -0.8281 -0.1572
  654MOL0     C88181   7.680   7.461   4.311 -0.4523  0.1000 -1.2898
  654MOL0     C88182   7.785   7.534   4.372  0.1101 -1.1336  0.2506
  654MOL0     C88183   7.887   7.586   4.295  0.0533 -0.1861 -0.4453
  654MOL0     C88184   8.005   7.670   4.358 -0.3550 -0.5442  0.0403
  654MOL0     O88185   8.095   7.725   4.267  0.1057 -0.0901 -0.0004
  654MOL0     C88186   8.216   7.776   4.318 -0.2383 -0.5115  0.5310
  654MOL0     C88187   8.328   7.693   4.333 -0.2924  0.1848 -0.6072
  654MOL0     C88188   8.449   7.738   4.391  0.3740 -0.6340  0.7934
  654MOL0     C88189   8.463   7.871   4.430  0.4176  0.1658  0.0656
  654MOL0     O88190   8.581   7.905   4.496 -0.7078 -0.6019  0.0717
  654MOL0     C88191   8.565   7.960   4.624 -0.0063  0.2413 -1.7772
  654MOL0     C88192   8.671   7.924   4.721  0.5925  0.3940 -0.4940
  654MOL0     C88193   8.662   8.005   4.849  0.3362  0.5660 -0.2407
  654MOL0     C88194   8.789   8.027   4.928 -0.1175  0.1962 -1.0384
  654MOL0     C88195   8.844   7.898   4.979 -0.2044  0.2436 -0.0137
  654MOL0     C88196   8.968   7.919   5.078 -0.4552  1.5213  0.0688
  654MOL0     C88197   9.057   7.788   5.098  0.5318 -1.0769 -0.2647
  654MOL0     C88198   9.201   7.817   5.146  0.1287 -0.5205 -0.1266
  654MOL0    Cl88199   9.268   7.658   5.197 -0.4831 -0.0119 -0.0692
  654MOL0     C88200   8.352   7.956   4.421 -0.3399 -0.1437  0.1638
  654MOL0     C88201   8.228   7.908   4.377 -0.4809 -0.0003  0.3503
  654MOL0     O88202   8.014   7.681   4.476  0.0001 -0.2006 -0.4854
  654MOL0     C88203   7.865   7.587   4.160  0.0891  0.5082 -0.4279
  654MOL0     C88204   7.760   7.525   4.099  0.3050 -0.0382  0.5096
  654MOL0     N88205   6.954   7.367   3.760  0.1088 -0.0907  0.8413
  654MOL0     N88206   6.893   7.388   3.639 -0.4034 -0.1840  0.5000
  654MOL0     C88207   6.142   6.791   3.679  0.7337 -0.7729  1.2806
  654MOL0     C88208   6.012   6.803   3.728 -0.0175  0.0444 -0.2193
  654MOL0     C88209   5.588   6.911   3.751 -0.7284  0.4201 -0.0260
  654MOL0     C88210   5.576   6.987   3.869  0.4012  0.4951 -0.4595
  654MOL0     C88211   5.453   7.036   3.914 -0.9013  0.4943 -0.8275
  654MOL0     C88212   5.341   7.027   3.839  0.3774  0.2460 -0.4859
  654MOL0     O88213   5.218   7.067   3.881  0.2320 -0.3727 -0.3442
  654MOL0     C88214   5.209   7.169   3.982  0.5693  0.1650 -0.9718
  654MOL0     C88215   5.062   7.184   4.015  0.0621  1.2555  0.5643
  654MOL0     C88216   5.051   7.293   4.121  0.4469 -0.4651 -0.2229
  654MOL0     C88217   4.903   7.336   4.157  0.7034  0.8896 -0.5962
  654MOL0     C88218   4.891   7.478   4.166 -0.1211  0.3953  1.2986
  654MOL0     C88219   4.888   7.593   4.206 -0.1448 -0.0108  0.7451
  654MOL0     C88220   5.355   6.960   3.718 -0.3900  1.0834 -0.6502
  654MOL0     C88221   5.477   6.897   3.672  0.4614 -0.4965  0.3036
  654MOL0     C88222   5.486   6.828   3.536  0.0814  0.5126 -0.2543
  654MOL0     H88223   5.946   7.099   3.556 -0.2135 -0.1399 -0.4722
  654MOL0     H88224   6.164   7.091   3.517 -1.7126 -1.0111 -3.1424
  654MOL0     H88225   6.467   6.877   3.385  0.0470 -0.0748  0.0488
  654MOL0     H88226   6.322   6.964   3.375  1.8313  0.9132 -0.1536
  654MOL0     H88227   6.551   6.991   3.590 -0.3255  0.5128  0.2011
  654MOL0     H88228   6.415   7.086   3.604 -2.7656  0.0968 -0.4936
  654MOL0     H88229   6.548   7.230   3.445 -0.7667 -0.0587  0.5367
  654MOL0     H88230   6.501   7.128   3.324  1.5062 -1.5660 -1.2595
  654MOL0     H88231   6.748   7.110   3.499 -1.5577 -1.1367  0.8815
  654MOL0     H88232   6.719   6.974   3.388  1.1133 -0.0720 -0.2930
  654MOL0     H88233   6.752   7.106   3.196 -1.7580  0.1644  0.1086
  654MOL0     H88234   6.743   7.256   3.292  0.9220 -0.0100  0.9093
  654MOL0     H88235   6.953   7.103   3.414  0.0381  4.2140  1.9306
  654MOL0     H88236   6.969   7.098   3.234  1.1691  2.4240 -0.5401
  654MOL0     H88237   6.983   7.322   3.199 -2.4609  1.9451  1.3919
  654MOL0     H88238   7.106   7.267   3.313  0.6290  2.3860  0.7069
  654MOL0     H88239   7.020   7.485   3.383 -0.2247  0.2710 -2.1926
  654MOL0     H88240   6.850   7.426   3.375  0.7899 -0.7939 -2.5069
  654MOL0     H88241   7.193   7.316   3.538  0.4861  3.3017 -0.0215
  654MOL0     H88242   7.144   7.260   3.910 -1.7932  0.5144  0.0382
  654MOL0     H88243   7.245   7.213   3.775  1.4735  0.9527  1.0667
  654MOL0     H88244   7.369   7.384   3.770  0.1709 -3.5479  1.0692
  654MOL0     H88245   7.253   7.505   3.839 -0.9951 -0.9498 -1.3613
  654MOL0     H88246   7.373   7.276   4.005 -0.1093 -0.5143  2.5669
  654MOL0     H88247   7.276   7.422   4.056  0.8812  0.1820 -0.3685
  654MOL0     H88248   7.441   7.559   4.082 -2.8241 -2.1357  2.3612
  654MOL0     H88249   7.535   7.487   3.948  2.0756  2.8968  3.1225
  654MOL0     H88250   7.605   7.415   4.373  0.8507 -0.4170 -0.0481
  654MOL0     H88251   7.792   7.538   4.480  1.6002 -1.6252  0.2023
  654MOL0     H88252   8.329   7.594   4.287  1.0462 -0.2319  0.2430
  654MOL0     H88253   8.519   7.656   4.401  1.2513 -0.6714 -3.5436
  654MOL0     H88254   8.571   8.066   4.600  1.2689  0.0812 -2.2468
  654MOL0     H88255   8.473   7.925   4.673  1.3523  0.2320  1.0079
  654MOL0     H88256   8.665   7.818   4.748  0.1143  0.7560  0.9275
  654MOL0     H88257   8.766   7.951   4.675  2.0752  1.1969  2.7030
  654MOL0     H88258   8.619   8.104   4.828  1.0827  0.8076 -0.6989
  654MOL0     H88259   8.594   7.954   4.917 -1.4374  0.9206 -1.6841
  654MOL0     H88260   8.761   8.080   5.019 -1.2971 -0.7535 -0.8208
  654MOL0     H88261   8.856   8.091   4.870  0.8052  1.4170  1.2359
  654MOL0     H88262   8.872   7.839   4.891 -3.1951 -2.1758  0.5321
  654MOL0     H88263   8.773   7.856   5.051 -0.0134  1.4246  0.8940
  654MOL0     H88264   9.032   7.999   5.040  0.4970  0.5651 -0.3855
  654MOL0     H88265   8.934   7.955   5.175 -0.7319  2.4667 -0.3707
  654MOL0     H88266   9.066   7.714   5.018 -1.4843 -0.8403 -0.7666
  654MOL0     H88267   8.998   7.737   5.173  0.1149  0.8003  0.7454
  654MOL0     H88268   9.260   7.865   5.068  0.1889  0.2855  0.4104
  654MOL0     H88269   9.198   7.887   5.230 -0.8121  0.4289 -0.9121
  654MOL0     H88270   8.373   8.054   4.462 -2.5809  0.5077 -0.1170
  654MOL0     H88271   8.142   7.972   4.393  1.7840  3.2523  0.6212
  654MOL0     H88272   7.931   7.646   4.096 -0.6810 -0.0105 -1.7416
  654MOL0     H88273   7.751   7.529   3.991 -0.6385  0.6301  0.6030
  654MOL0     H88274   6.201   6.703   3.700  1.4821 -0.4927  0.4520
  654MOL0     H88275   5.976   6.727   3.798 -4.6212  1.3999 -0.7870
  654MOL0     H88276   5.661   7.004   3.935  1.4263  2.6963 -2.2244
  654MOL0     H88277   5.451   7.081   4.013  0.3195  0.4824 -0.7760
  654MOL0     H88278   5.255   7.264   3.953  0.7664  0.4035  0.0638
  654MOL0     H88279   5.263   7.133   4.070 -0.9419 -3.6388 -1.4260
  654MOL0     H88280   5.028   7.085   4.047  0.9023  0.0558 -2.0314
  654MOL0     H88281   5.000   7.215   3.930  1.7733 -0.1410 -1.2806
  654MOL0     H88282   5.100   7.382   4.081  0.2284  0.1851  0.9344
  654MOL0     H88283   5.116   7.286   4.208  3.6525  2.9655 -2.0491
  654MOL0     H88284   4.830   7.309   4.080  0.0986 -0.8294  0.4991
  654MOL0     H88285   4.871   7.292   4.253  2.9148  2.4634  0.9359
  654MOL0     H88286   4.870   7.697   4.228  1.9324  0.2581  1.4269
  654MOL0     H88287   5.260   6.952   3.665 -2.2055  0.6063  2.4025
  654MOL0     H88288   5.416   6.878   3.468  0.6633  1.1819 -0.3647
  654MOL0     H88289   5.589   6.841   3.501  0.2854  1.1156  0.5378
  654MOL0     H88290   5.466   6.721   3.544 -0.1112  0.5391 -0.3651
  655MOL0     O88291   9.911   6.495   0.724 -0.8359  0.5801 -0.0567
  655MOL0     C88292   9.906   6.475   0.842  0.1109  0.4245  0.2695
  655MOL0     O88293  10.018   6.450   0.923 -0.0948 -0.1295  0.3692
  655MOL0     C88294  10.138   6.429   0.850  0.7838 -0.6274 -0.3997
  655MOL0     C88295  10.246   6.507   0.879 -0.3623  0.5504 -0.3608
  655MOL0     C88296  10.364   6.484   0.809 -0.3513 -0.2322  0.5991
  655MOL0     C88297  10.368   6.389   0.705 -1.4734  0.8060 -0.5355
  655MOL0     O88298  10.478   6.371   0.622  0.0756 -0.5498 -1.0447
  655MOL0     C88299  10.532   6.486   0.559 -0.2910  0.0676  1.8146
  655MOL0     C88300  10.526   6.466   0.406  0.7659 -0.7860 -0.9804
  655MOL0     C88301  10.585   6.333   0.356 -0.2585  0.0572 -0.1644
  655MOL0     C88302  10.720   6.297   0.400  0.9505  0.2313  0.0209
  655MOL0     C88303  10.775   6.194   0.314  0.5877 -0.1807 -0.0791
  655MOL0     C88304  10.903   6.120   0.358 -0.7210 -0.3986 -0.1218
  655MOL0     C88305  11.022   6.220   0.362 -1.0049  0.3224  1.0006
  655MOL0     C88306  11.163   6.168   0.357  1.0715  0.5284  0.5244
  655MOL0     N88307  11.196   6.059   0.263  0.1282 -0.2572  0.4530
  655MOL0     C88308  11.183   6.068   0.124 -0.8316 -0.6091 -0.3062
  655MOL0     C88309  11.276   5.975   0.085  1.5770  0.2051 -0.5103
  655MOL0     C88310  11.325   5.972  -0.058 -0.2442 -1.0492 -0.7848
  655MOL0     C88311  11.227   5.901  -0.155  0.5625  0.5720  0.0806
  655MOL0     C88312  11.308   5.771  -0.200 -0.7823  0.2197  0.2214
  655MOL0     C88313  11.220   5.679  -0.281 -0.4700  0.1358  0.4665
  655MOL0     O88314  11.119   5.626  -0.194 -0.2369 -0.2642  0.2589
  655MOL0     C88315  11.043   5.510  -0.217 -0.2225  0.3707 -0.8318
  655MOL0     C88316  11.094   5.400  -0.289 -0.9334 -0.2237  0.8058
  655MOL0     C88317  11.022   5.278  -0.289 -0.2338  1.0637 -0.9821
  655MOL0     C88318  10.894   5.270  -0.228  0.1640  0.5254 -0.6192
  655MOL0     C88319  10.832   5.135  -0.217 -0.0468  0.0798 -0.5849
  655MOL0     O88320  10.910   5.035  -0.252  0.2508 -0.2337 -0.1169
  655MOL0     C88321  10.861   4.913  -0.290 -0.5252  0.3047  0.6413
  655MOL0     C88322  10.763   4.912  -0.394  0.3109  0.4291 -0.5634
  655MOL0     C88323  10.705   4.798  -0.440 -0.1139  0.0426 -0.8932
  655MOL0     C88324  10.753   4.674  -0.387 -0.4333  0.4955 -0.4363
  655MOL0     O88325  10.709   4.554  -0.441 -0.2808  0.1691 -0.5902
  655MOL0     C88326  10.656   4.454  -0.350 -0.2527  0.0798  0.1153
  655MOL0     C88327  10.619   4.343  -0.440 -0.6764  0.5771  0.1344
  655MOL0     C88328  10.482   4.357  -0.489 -0.5791 -0.0834  0.0590
  655MOL0     C88329  10.441   4.231  -0.568 -0.4670 -0.0758  0.2847
  655MOL0     C88330  10.306   4.248  -0.640 -0.0026 -0.1437 -0.3474
  655MOL0     C88331  10.260   4.134  -0.727 -1.1417  0.0340 -0.2960
  655MOL0     C88332  10.346   4.112  -0.845 -0.0782  0.1181 -1.3597
  655MOL0     C88333  10.292   4.004  -0.946  0.3531 -0.1304  0.1688
  655MOL0    Cl88334  10.418   3.926  -1.062  0.1859  0.5896 -0.3627
  655MOL0     C88335  10.852   4.666  -0.286 -0.4495  0.3235 -0.9614
  655MOL0     C88336  10.904   4.791  -0.233 -0.2260  0.8380  0.0376
  655MOL0     O88337  10.716   5.110  -0.179 -0.6721 -0.1423  0.0372
  655MOL0     C88338  10.843   5.384  -0.159 -0.0530 -0.4200 -0.5383
  655MOL0     C88339  10.919   5.497  -0.153  0.0003  0.1761  1.1479
  655MOL0     N88340  11.329   5.902   0.189 -0.4768 -0.0101 -0.3014
  655MOL0     N88341  11.278   5.952   0.295  0.5127 -0.0750  0.7331
  655MOL0     C88342  10.260   6.296   0.696  0.0138 -1.3542 -0.7265
  655MOL0     C88343  10.140   6.326   0.763 -0.5252 -0.1989  0.2500
  655MOL0     C88344   9.770   6.480   0.900  0.0162 -1.3642 -0.1223
  655MOL0     C88345   9.667   6.537   0.830  0.1309 -0.5077  0.9334
  655MOL0     C88346   9.542   6.563   0.879 -0.3419  0.0668  0.2946
  655MOL0     C88347   9.508   6.512   0.996  0.0337  0.2369  0.4187
  655MOL0     O88348   9.381   6.493   1.035  0.1184 -0.4233 -0.8714
  655MOL0     C88349   9.273   6.478   0.951 -0.5278 -0.8934 -0.8821
  655MOL0     C88350   9.156   6.426   1.027  0.0510 -0.4247  0.7608
  655MOL0     C88351   9.155   6.281   1.079 -0.4053  0.2122  0.3654
  655MOL0     C88352   9.265   6.226   1.174  0.6535 -0.2079 -0.3709
  655MOL0     C88353   9.231   6.082   1.180 -0.0179 -0.7939 -0.2708
  655MOL0     C88354   9.216   5.961   1.183  0.8099  0.0269 -0.3945
  655MOL0     C88355   9.605   6.454   1.075 -0.3905 -0.1264  0.1068
  655MOL0     C88356   9.736   6.445   1.032  0.2570  0.5552  0.4587
  655MOL0     C88357   9.834   6.396   1.132 -0.6539  0.4210  0.2156
  655MOL0     H88358  10.233   6.573   0.964 -2.3675  0.1414 -0.3137
  655MOL0     H88359  10.441   6.554   0.839 -0.2854 -0.5631  1.2152
  655MOL0     H88360  10.480   6.572   0.601 -0.5096  1.0847 -0.3861
  655MOL0     H88361  10.636   6.493   0.593  0.7472 -3.8133 -0.0061
  655MOL0     H88362  10.585   6.538   0.349  1.5451 -1.0025 -0.4639
  655MOL0     H88363  10.421   6.487   0.385  0.3827  1.2992  2.3360
  655MOL0     H88364  10.585   6.339   0.247  1.2716 -0.7079 -0.2370
  655MOL0     H88365  10.512   6.256   0.383 -1.6159  0.5166 -2.2633
  655MOL0     H88366  10.792   6.380   0.398  1.8846 -0.5309  0.9707
  655MOL0     H88367  10.713   6.274   0.507  3.5476 -1.3134 -0.0515
  655MOL0     H88368  10.701   6.115   0.296 -0.1760  0.7885 -1.2930
  655MOL0     H88369  10.783   6.235   0.213 -1.1002  0.1553 -0.1153
  655MOL0     H88370  10.890   6.098   0.464 -1.5150 -0.4436 -0.2279
  655MOL0     H88371  10.915   6.022   0.310  1.9055 -1.2718  2.0490
  655MOL0     H88372  11.019   6.261   0.463  1.1476  0.0835  1.1996
  655MOL0     H88373  11.021   6.304   0.292  3.4863  0.0739  0.3427
  655MOL0     H88374  11.225   6.255   0.332 -0.2813  0.6622 -2.8630
  655MOL0     H88375  11.184   6.127   0.456  0.5197 -0.3070  0.3080
  655MOL0     H88376  11.134   6.138   0.058 -1.0135 -1.6165 -1.2619
  655MOL0     H88377  11.336   6.072  -0.101 -2.7924  0.6155  2.0432
  655MOL0     H88378  11.416   5.914  -0.043 -0.6333 -1.2075  1.1289
  655MOL0     H88379  11.135   5.868  -0.106 -1.2288  1.7980 -2.2895
  655MOL0     H88380  11.214   5.966  -0.242 -0.3731  1.4469  0.8489
  655MOL0     H88381  11.347   5.700  -0.127 -0.1692 -1.5895 -1.7529
  655MOL0     H88382  11.402   5.801  -0.248  1.9702 -2.3202  3.5416
  655MOL0     H88383  11.290   5.602  -0.314  0.6972  1.1656  0.4533
  655MOL0     H88384  11.183   5.732  -0.370 -1.2345  1.1633  1.3621
  655MOL0     H88385  11.197   5.395  -0.324 -1.4412 -1.5393 -0.6390
  655MOL0     H88386  11.059   5.186  -0.333 -1.3751 -1.0846  2.2137
  655MOL0     H88387  10.727   5.008  -0.431  1.1283  1.2746  0.7590
  655MOL0     H88388  10.620   4.802  -0.507 -0.2566  0.0170 -0.7133
  655MOL0     H88389  10.725   4.420  -0.272 -0.3074  1.0058  0.5682
  655MOL0     H88390  10.565   4.490  -0.303 -0.1682  1.3470 -0.6564
  655MOL0     H88391  10.693   4.337  -0.521  0.3809 -2.8502  1.1894
  655MOL0     H88392  10.633   4.246  -0.392 -1.7899 -0.8301 -2.1769
  655MOL0     H88393  10.414   4.378  -0.406  0.2009  0.6997  0.5224
  655MOL0     H88394  10.484   4.447  -0.551 -1.0282 -1.3091 -1.8255
  655MOL0     H88395  10.427   4.144  -0.503 -2.6446  1.3442  1.8163
  655MOL0     H88396  10.519   4.208  -0.642 -0.5508 -2.1864  0.7923
  655MOL0     H88397  10.301   4.343  -0.694  3.7615  1.3982  1.6543
  655MOL0     H88398  10.233   4.251  -0.559 -0.0390 -0.5901 -0.3631
  655MOL0     H88399  10.272   4.042  -0.669 -0.2622  0.2155 -0.1792
  655MOL0     H88400  10.158   4.153  -0.763 -1.1083 -0.8588 -0.9153
  655MOL0     H88401  10.448   4.080  -0.821  1.1246  1.9481 -3.5717
  655MOL0     H88402  10.373   4.205  -0.896  1.3525  0.0074 -0.8648
  655MOL0     H88403  10.239   3.930  -0.885  2.7836 -0.8291  1.5417
  655MOL0     H88404  10.230   4.056  -1.020  3.3006  2.2882 -0.7987
  655MOL0     H88405  10.894   4.569  -0.261 -2.3459 -0.8590 -2.1346
  655MOL0     H88406  10.985   4.803  -0.162 -1.1643 -2.5836  1.9352
  655MOL0     H88407  10.742   5.377  -0.120 -0.8060 -2.5058 -2.6244
  655MOL0     H88408  10.871   5.579  -0.101 -0.4618 -0.0484  1.0726
  655MOL0     H88409  10.269   6.222   0.617  0.0970  0.0878 -2.1333
  655MOL0     H88410  10.052   6.262   0.753 -0.3133 -0.1406 -3.1169
  655MOL0     H88411   9.684   6.573   0.729 -0.4135  1.2540  1.4375
  655MOL0     H88412   9.465   6.603   0.813 -0.8517 -1.6183 -0.2072
  655MOL0     H88413   9.288   6.417   0.862  0.3628 -0.1523 -1.2617
  655MOL0     H88414   9.256   6.580   0.916  1.6848  0.2712  1.1160
  655MOL0     H88415   9.067   6.439   0.964  0.2557  2.8916  0.9579
  655MOL0     H88416   9.124   6.488   1.111 -2.6218  0.3822 -0.7052
  655MOL0     H88417   9.153   6.224   0.986 -1.5453  0.8222 -0.0052
  655MOL0     H88418   9.060   6.264   1.131 -0.4114 -0.5046  0.1329
  655MOL0     H88419   9.369   6.234   1.141 -0.0344 -0.0241 -2.6388
  655MOL0     H88420   9.261   6.278   1.270  1.9898 -1.3171  0.3188
  655MOL0     H88421   9.198   5.857   1.198 -2.6696 -0.0983 -3.7412
  655MOL0     H88422   9.578   6.414   1.172  0.7039 -0.4965  0.2728
  655MOL0     H88423   9.898   6.317   1.093 -2.4830 -1.8034  1.4736
  655MOL0     H88424   9.903   6.467   1.180  2.3592  0.1999 -3.3534
  655MOL0     H88425   9.777   6.359   1.218 -2.3339  0.5543 -0.7942
  656MOL0     O88426   1.817   2.415  11.385  0.5890 -0.1786 -0.4228
  656MOL0     C88427   1.918   2.465  11.337  0.6600 -0.4377  0.0950
  656MOL0     O88428   1.930   2.598  11.314 -0.3358  0.3831  0.5131
  656MOL0     C88429   1.814   2.674  11.320  0.5283 -0.6409  0.0315
  656MOL0     C88430   1.714   2.688  11.422 -0.1864 -0.4745  0.4760
  656MOL0     C88431   1.609   2.777  11.412 -0.5745 -0.0012 -0.1431
  656MOL0     C88432   1.599   2.861  11.300 -0.1746 -0.1101  0.1134
  656MOL0     O88433   1.496   2.936  11.267  0.2621 -0.4188  0.5991
  656MOL0     C88434   1.379   2.863  11.284  0.1854  0.4264  0.1615
  656MOL0     C88435   1.258   2.919  11.206 -0.1623 -0.0710 -0.3178
  656MOL0     C88436   1.143   2.818  11.181  0.6026 -0.5599  0.2591
  656MOL0     C88437   1.046   2.874  11.070 -0.0716  0.7079  0.1939
  656MOL0     C88438   0.934   2.953  11.130 -0.1739 -0.2917 -0.0894
  656MOL0     C88439   0.817   2.904  11.217  0.0013 -0.4208 -0.0234
  656MOL0     C88440   0.725   2.797  11.143 -0.4247 -0.3154  0.8616
  656MOL0     C88441   0.577   2.801  11.170  0.2789 -0.2053 -0.5481
  656MOL0     N88442   0.530   2.922  11.112  0.0175  0.0879 -0.2175
  656MOL0     C88443   0.444   3.010  11.170 -1.0841 -0.0035  0.7961
  656MOL0     C88444   0.443   3.116  11.080 -0.6925  0.0411  0.6001
  656MOL0     C88445   0.375   3.237  11.107  0.0271 -0.0312 -0.5147
  656MOL0     C88446   0.448   3.326  11.199 -0.1133  0.1168 -0.4790
  656MOL0     C88447   0.422   3.285  11.349  0.1420  0.4660  0.7850
  656MOL0     C88448   0.450   3.394  11.464 -0.2996  0.7242  0.9396
  656MOL0     O88449   0.403   3.350  11.590  0.9139 -0.0376  0.5945
  656MOL0     C88450   0.466   3.250  11.654  0.8965  0.0713  0.5427
  656MOL0     C88451   0.587   3.188  11.622  0.1260 -0.1901  0.1201
  656MOL0     C88452   0.646   3.088  11.709  0.2234  0.2482  0.6224
  656MOL0     C88453   0.564   3.028  11.805  0.4932 -0.1961 -0.1918
  656MOL0     C88454   0.615   2.933  11.907  0.2544 -0.6052  0.4047
  656MOL0     O88455   0.749   2.930  11.911  0.9110 -0.3755 -0.4853
  656MOL0     C88456   0.821   2.850  12.002  0.1088  0.1341 -0.4060
  656MOL0     C88457   0.955   2.853  11.987 -0.2076 -1.1137  0.0419
  656MOL0     C88458   1.041   2.807  12.083 -0.5540  0.7979 -0.2223
  656MOL0     C88459   1.000   2.725  12.193 -0.3544  0.1813  0.0464
  656MOL0     O88460   1.081   2.682  12.293  0.4747 -0.2413  0.4133
  656MOL0     C88461   1.166   2.777  12.353  0.4410 -0.4029 -0.0591
  656MOL0     C88462   1.085   2.854  12.455  0.3277  0.5687  0.6025
  656MOL0     C88463   1.152   2.980  12.513 -0.0777 -0.4795  0.6771
  656MOL0     C88464   1.059   3.065  12.597  0.5656 -0.3621 -0.9508
  656MOL0     C88465   1.103   3.216  12.593  0.2391 -0.6516  0.8269
  656MOL0     C88466   1.008   3.316  12.667  0.5532 -0.3733 -0.3340
  656MOL0     C88467   1.068   3.447  12.656  0.0974  0.0895 -0.0528
  656MOL0     C88468   0.989   3.567  12.717 -0.2961  0.4247 -0.3734
  656MOL0    Cl88469   0.804   3.554  12.696  0.2871 -0.2055  0.5107
  656MOL0     C88470   0.861   2.704  12.202  0.2078  0.2364 -0.3751
  656MOL0     C88471   0.774   2.777  12.108  0.2777  0.0125 -0.5538
  656MOL0     O88472   0.535   2.854  11.966 -0.7290  0.4856 -0.9741
  656MOL0     C88473   0.428   3.081  11.823  1.1466  0.5923  0.1366
  656MOL0     C88474   0.388   3.186  11.746  0.0136 -0.1227  0.4717
  656MOL0     N88475   0.541   3.088  10.975  0.0780  0.9497  0.4181
  656MOL0     N88476   0.582   2.967  10.989 -0.4107 -0.2919 -0.6977
  656MOL0     C88477   1.700   2.856  11.199  0.3327 -0.3759 -0.0104
  656MOL0     C88478   1.802   2.767  11.216  0.2698  0.7906  0.3202
  656MOL0     C88479   2.037   2.386  11.305 -0.4975  0.4420  0.0197
  656MOL0     C88480   2.158   2.449  11.298 -0.4344  0.4498 -0.0104
  656MOL0     C88481   2.277   2.380  11.278 -0.6011  0.1046  0.9617
  656MOL0     C88482   2.272   2.234  11.276 -0.4876  0.2318  0.0697
  656MOL0     O88483   2.388   2.158  11.262 -0.1322 -0.4140  0.2792
  656MOL0     C88484   2.519   2.212  11.281 -1.1592 -0.3655 -0.1717
  656MOL0     C88485   2.620   2.107  11.231 -0.2099  0.1186 -1.1857
  656MOL0     C88486   2.629   2.069  11.080  0.1851 -0.4612 -0.9846
  656MOL0     C88487   2.701   2.177  10.999 -1.0204  0.1495  0.8782
  656MOL0     C88488   2.628   2.291  10.940 -1.0611  0.0292 -0.0061
  656MOL0     C88489   2.580   2.387  10.894 -0.6866 -0.5296 -0.3154
  656MOL0     C88490   2.152   2.171  11.268  0.4091 -0.2267 -0.0410
  656MOL0     C88491   2.032   2.249  11.282  0.8858 -0.2494  0.3007
  656MOL0     C88492   1.903   2.181  11.249 -0.5813  0.4544  0.0061
  656MOL0     H88493   1.736   2.644  11.519 -1.2058 -1.8015  0.1418
  656MOL0     H88494   1.534   2.803  11.486  0.4647  1.7963  0.3493
  656MOL0     H88495   1.398   2.760  11.251  2.1395  0.3781  1.3181
  656MOL0     H88496   1.341   2.860  11.386 -3.4328  1.8511 -0.9814
  656MOL0     H88497   1.303   2.957  11.114 -0.0593  0.3694 -0.0914
  656MOL0     H88498   1.216   3.001  11.266  3.1114 -0.6813  3.2092
  656MOL0     H88499   1.091   2.794  11.274 -0.7737  0.0094 -0.3489
  656MOL0     H88500   1.185   2.725  11.140 -2.1165 -1.4481 -0.7703
  656MOL0     H88501   1.100   2.939  11.001  1.9018  0.6667  1.6122
  656MOL0     H88502   1.006   2.789  11.013  0.7131 -0.6816  1.6175
  656MOL0     H88503   0.973   3.043  11.178 -0.3106  0.8292 -1.9691
  656MOL0     H88504   0.889   3.006  11.045  2.6635  1.8002 -0.4406
  656MOL0     H88505   0.859   2.865  11.311 -0.5385 -1.1908 -0.0983
  656MOL0     H88506   0.755   2.992  11.240 -0.4058 -1.1510  1.8986
  656MOL0     H88507   0.757   2.699  11.178  0.1163  0.1251  1.6319
  656MOL0     H88508   0.741   2.788  11.035  2.9256 -4.5762  1.4179
  656MOL0     H88509   0.532   2.715  11.121  1.0811 -2.4078  2.2637
  656MOL0     H88510   0.564   2.799  11.279 -1.2233  0.7474 -0.6764
  656MOL0     H88511   0.396   3.005  11.267 -0.1657  1.0943  1.3426
  656MOL0     H88512   0.377   3.295  11.014  2.0958  2.4075  0.8982
  656MOL0     H88513   0.269   3.231  11.135 -0.0811 -1.6558 -1.1608
  656MOL0     H88514   0.554   3.315  11.174 -0.3845 -2.0809 -0.8642
  656MOL0     H88515   0.407   3.425  11.178 -3.1513 -1.0717 -0.5651
  656MOL0     H88516   0.488   3.199  11.367  0.5050 -0.4040 -3.5947
  656MOL0     H88517   0.319   3.248  11.350  0.6110 -0.9763  2.5636
  656MOL0     H88518   0.407   3.491  11.435 -3.2839 -1.1114 -1.4296
  656MOL0     H88519   0.557   3.415  11.476  0.0709  0.2843 -1.2388
  656MOL0     H88520   0.650   3.237  11.548 -0.6098 -0.2933 -0.5900
  656MOL0     H88521   0.741   3.043  11.681  0.3616 -0.8411  2.6615
  656MOL0     H88522   0.989   2.901  11.895 -0.1044 -0.3292  0.4781
  656MOL0     H88523   1.144   2.830  12.055 -0.7559  2.2418  0.1292
  656MOL0     H88524   1.240   2.727  12.415  0.7252 -0.4674 -0.4479
  656MOL0     H88525   1.216   2.840  12.279 -1.3319 -0.1624 -1.1239
  656MOL0     H88526   0.988   2.880  12.411  0.0156  0.7295  1.3535
  656MOL0     H88527   1.060   2.798  12.546  0.4929  0.0152  0.3060
  656MOL0     H88528   1.229   2.949  12.584  1.3409 -0.1420 -0.6710
  656MOL0     H88529   1.202   3.032  12.431 -0.7188  1.0742  1.2372
  656MOL0     H88530   1.064   3.037  12.702  0.0863  0.9943 -0.5402
  656MOL0     H88531   0.953   3.063  12.569 -0.0924 -2.5381  1.3486
  656MOL0     H88532   1.101   3.242  12.487 -1.9744 -1.0614  0.7111
  656MOL0     H88533   1.203   3.216  12.636  0.3204  0.1215  0.6535
  656MOL0     H88534   0.909   3.300  12.621  1.3059 -1.4862 -1.6341
  656MOL0     H88535   1.008   3.291  12.773  0.2024 -1.4814 -0.5820
  656MOL0     H88536   1.052   3.475  12.551 -3.3482  2.9552  1.0275
  656MOL0     H88537   1.172   3.441  12.689  1.1873  1.5277 -2.8938
  656MOL0     H88538   1.012   3.567  12.824  0.0845  0.7565 -0.4578
  656MOL0     H88539   1.026   3.662  12.680  1.4896 -0.4831 -1.0428
  656MOL0     H88540   0.813   2.647  12.281  1.3053 -1.1889 -0.6940
  656MOL0     H88541   0.667   2.770  12.125  0.5300  1.4628  2.2577
  656MOL0     H88542   0.358   3.034  11.892  0.2223 -0.7203 -1.6031
  656MOL0     H88543   0.285   3.217  11.754 -0.3613 -1.3440  0.6067
  656MOL0     H88544   1.692   2.908  11.104 -1.6192  0.3852  0.5047
  656MOL0     H88545   1.877   2.782  11.139  0.8774 -0.0760  0.7281
  656MOL0     H88546   2.168   2.557  11.302 -1.1123  0.4984  0.7141
  656MOL0     H88547   2.368   2.439  11.281  0.1771 -1.1017  2.7586
  656MOL0     H88548   2.531   2.224  11.389 -3.7281  2.4838 -0.0796
  656MOL0     H88549   2.541   2.306  11.230  5.5975 -3.1171 -3.7122
  656MOL0     H88550   2.603   2.018  11.292  3.0054 -0.3120 -0.7654
  656MOL0     H88551   2.721   2.135  11.261 -0.3920  0.1107 -0.5426
  656MOL0     H88552   2.527   2.052  11.045  0.7455  2.9094 -5.1489
  656MOL0     H88553   2.676   1.971  11.077 -1.1655 -1.1877  0.3750
  656MOL0     H88554   2.770   2.239  11.056  0.3686  0.2404 -0.8314
  656MOL0     H88555   2.750   2.138  10.910 -0.4624  0.1034  1.2032
  656MOL0     H88556   2.519   2.472  10.868 -0.0377 -0.0531 -0.3026
  656MOL0     H88557   2.156   2.072  11.223 -0.3000 -0.3116  0.0716
  656MOL0     H88558   1.915   2.075  11.224 -0.3967  0.5718 -0.3971
  656MOL0     H88559   1.824   2.186  11.325 -0.2192 -0.6228  0.4706
  656MOL0     H88560   1.851   2.220  11.161 -0.9048  2.0511  0.8734
  657MOL0     O88561   3.799   9.945   9.584  0.3604 -0.6313  1.1024
  657MOL0     C88562   3.882  10.036   9.603 -0.6519  0.2586 -0.1433
  657MOL0     O88563   3.972  10.079   9.515 -0.3423 -0.3847  0.2607
  657MOL0     C88564   3.998  10.009   9.399 -0.4950  0.7165 -0.6825
  657MOL0     C88565   3.941  10.052   9.279 -0.2712  0.2351  0.2932
  657MOL0     C88566   3.972  10.002   9.154  0.2206 -0.4781  0.0405
  657MOL0     C88567   4.073   9.907   9.146  0.1604 -0.2826  1.4433
  657MOL0     O88568   4.087   9.862   9.017  0.4161  0.5692  0.2090
  657MOL0     C88569   4.187   9.764   8.996  0.2229  0.7392 -0.3668
  657MOL0     C88570   4.183   9.692   8.868 -0.4350  0.6681 -0.3126
  657MOL0     C88571   4.302   9.601   8.836 -0.2447 -0.4978 -0.7557
  657MOL0     C88572   4.288   9.464   8.898 -0.3006  0.2740 -0.4135
  657MOL0     C88573   4.397   9.359   8.867  0.5773  1.1320 -0.4394
  657MOL0     C88574   4.535   9.407   8.915  0.4624  0.5076 -0.1372
  657MOL0     C88575   4.638   9.296   8.906  1.3847 -0.4621 -0.6678
  657MOL0     C88576   4.751   9.337   8.998  0.3769 -0.1898  1.2728
  657MOL0     N88577   4.871   9.407   8.936 -1.3426  0.7745  0.1751
  657MOL0     C88578   4.961   9.340   8.851 -0.5894 -0.7654  0.1695
  657MOL0     C88579   5.035   9.439   8.797 -1.1197  0.4625 -0.6650
  657MOL0     C88580   5.172   9.428   8.728 -0.6937 -0.5413 -0.1753
  657MOL0     C88581   5.285   9.383   8.820  0.0209  0.1661 -0.0754
  657MOL0     C88582   5.420   9.460   8.785  0.8540 -0.1284 -0.0253
  657MOL0     C88583   5.527   9.435   8.886  0.2809  0.9123 -0.1511
  657MOL0     O88584   5.628   9.524   8.852 -0.4336  0.1742 -0.2370
  657MOL0     C88585   5.748   9.472   8.854 -0.1515  0.5094  0.4015
  657MOL0     C88586   5.830   9.485   8.958  0.3066  0.1343 -0.0440
  657MOL0     C88587   5.959   9.422   8.951  0.4060 -0.9678  0.2775
  657MOL0     C88588   5.993   9.335   8.846 -0.3202  0.4176 -0.0052
  657MOL0     C88589   6.130   9.268   8.833 -0.3344 -0.0193  0.5622
  657MOL0     O88590   6.145   9.163   8.749 -1.0800 -0.2203 -0.6248
  657MOL0     C88591   6.258   9.075   8.750  0.5282 -0.1768 -0.1517
  657MOL0     C88592   6.248   8.942   8.745 -0.0765  1.1354 -0.0208
  657MOL0     C88593   6.356   8.865   8.776  0.9506  0.0000 -0.5643
  657MOL0     C88594   6.488   8.915   8.779  0.1604 -0.6418 -0.8974
  657MOL0     O88595   6.598   8.831   8.820  0.0495  0.0078 -0.0731
  657MOL0     C88596   6.604   8.822   8.962 -0.1155  0.6293  0.1467
  657MOL0     C88597   6.684   8.690   9.000 -0.2053 -0.8595  0.3354
  657MOL0     C88598   6.661   8.557   8.936 -0.3256  0.1333  0.3550
  657MOL0     C88599   6.768   8.459   8.984 -1.0280  1.0327  0.2431
  657MOL0     C88600   6.758   8.314   8.918  0.3602  0.8683  0.3067
  657MOL0     C88601   6.625   8.240   8.970 -0.0197 -0.6591 -0.4308
  657MOL0     C88602   6.622   8.114   8.877  0.0273 -0.7937  0.0255
  657MOL0     C88603   6.531   7.994   8.924 -0.1165  0.4822  0.6741
  657MOL0    Cl88604   6.516   7.892   8.778 -0.1763 -0.4211 -0.3246
  657MOL0     C88605   6.508   9.053   8.766 -0.3236  1.2838  0.5359
  657MOL0     C88606   6.388   9.125   8.762 -0.7508  0.4539 -0.5502
  657MOL0     O88607   6.219   9.322   8.896  0.3808 -0.3735  0.4376
  657MOL0     C88608   5.896   9.310   8.745 -0.0367 -0.0422 -0.2543
  657MOL0     C88609   5.778   9.384   8.755  0.2629 -0.8623 -0.7712
  657MOL0     N88610   4.985   9.552   8.840  0.5832 -0.4950 -0.6524
  657MOL0     N88611   4.890   9.538   8.927  0.0160  0.4269 -0.1371
  657MOL0     C88612   4.135   9.862   9.260 -0.2243 -0.2865 -0.3717
  657MOL0     C88613   4.106   9.921   9.392  0.0388  1.6143 -1.2711
  657MOL0     C88614   3.891  10.109   9.735 -0.5159  0.1929  0.2884
  657MOL0     C88615   3.917  10.249   9.726 -0.9290 -0.2605 -0.4244
  657MOL0     C88616   3.909  10.320   9.846  0.7527 -0.9534  0.1797
  657MOL0     C88617   3.883  10.262   9.964 -0.0692  0.0991  0.0673
  657MOL0     O88618   3.900  10.351  10.065  0.1902 -0.3616  0.1529
  657MOL0     C88619   3.784  10.363  10.150  0.7901 -0.4188  0.0311
  657MOL0     C88620   3.829  10.427  10.279 -0.3071  0.4931 -0.5442
  657MOL0     C88621   3.925  10.343  10.369  0.4453 -0.6141  0.0708
  657MOL0     C88622   4.072  10.357  10.320  1.6294 -0.8822 -0.1133
  657MOL0     C88623   4.165  10.315  10.425  0.1543 -0.9594  0.4535
  657MOL0     C88624   4.215  10.286  10.530 -0.2558  0.3992 -1.5970
  657MOL0     C88625   3.884  10.126   9.976  0.9838 -0.4682 -0.0065
  657MOL0     C88626   3.881  10.044   9.862 -0.0006  0.3044  0.1583
  657MOL0     C88627   3.857   9.890   9.888  0.5826 -0.9134  0.7087
  657MOL0     H88628   3.871  10.135   9.284  0.2592  0.6701  0.7790
  657MOL0     H88629   3.913  10.027   9.067  0.1902  1.8428  0.6644
  657MOL0     H88630   4.289   9.803   9.002  1.7049 -2.4797 -1.9207
  657MOL0     H88631   4.182   9.691   9.077 -1.0161 -0.1676 -1.2104
  657MOL0     H88632   4.175   9.773   8.794 -0.0037  0.0816 -1.0080
  657MOL0     H88633   4.092   9.632   8.858  0.0222 -0.1488  0.3860
  657MOL0     H88634   4.398   9.649   8.857 -1.0038  0.1764  1.3743
  657MOL0     H88635   4.296   9.587   8.727  0.4107  0.0382 -0.8669
  657MOL0     H88636   4.289   9.488   9.004 -0.5511  0.4287 -0.4442
  657MOL0     H88637   4.188   9.430   8.869 -0.6437  0.8892  0.0145
  657MOL0     H88638   4.358   9.268   8.913  0.4202  1.4169 -0.0109
  657MOL0     H88639   4.392   9.341   8.759 -0.3741 -0.5787 -0.1401
  657MOL0     H88640   4.588   9.484   8.858  3.1331 -0.7227  0.4915
  657MOL0     H88641   4.523   9.437   9.020  0.9963 -0.4448  0.2145
  657MOL0     H88642   4.669   9.270   8.804  1.1714  0.2270 -0.9094
  657MOL0     H88643   4.595   9.200   8.934 -0.4560 -0.0647 -1.9432
  657MOL0     H88644   4.715   9.424   9.053 -0.9753  1.5880 -2.1160
  657MOL0     H88645   4.780   9.250   9.056 -1.3528 -1.7802 -0.1321
  657MOL0     H88646   4.968   9.233   8.837 -0.9484 -1.1282  2.3697
  657MOL0     H88647   5.167   9.354   8.648 -2.5365 -0.3921 -0.2322
  657MOL0     H88648   5.208   9.517   8.674  1.1887 -0.7838  0.5869
  657MOL0     H88649   5.263   9.412   8.923 -2.2958 -0.3109 -0.3749
  657MOL0     H88650   5.306   9.276   8.818  1.0196  0.3717 -0.9671
  657MOL0     H88651   5.399   9.566   8.764  2.2806 -0.3483 -3.1337
  657MOL0     H88652   5.457   9.426   8.688 -1.3304  0.4758 -1.1446
  657MOL0     H88653   5.560   9.330   8.889 -0.3467  0.7185  0.1244
  657MOL0     H88654   5.507   9.467   8.988 -3.1008  0.8896 -0.6882
  657MOL0     H88655   5.787   9.542   9.039  1.4668  1.8435 -0.5699
  657MOL0     H88656   6.036   9.462   9.016  1.1538  2.8453 -2.6200
  657MOL0     H88657   6.152   8.893   8.731 -0.5967  1.6543  1.5207
  657MOL0     H88658   6.347   8.757   8.766  3.2591 -0.2278 -0.7134
  657MOL0     H88659   6.665   8.906   8.998  1.5428 -0.1858 -0.6081
  657MOL0     H88660   6.500   8.823   8.995 -0.4303  0.4828 -0.7920
  657MOL0     H88661   6.790   8.715   8.988  0.0388 -2.6723 -2.0512
  657MOL0     H88662   6.668   8.685   9.108  2.7859 -2.5311  0.8045
  657MOL0     H88663   6.559   8.517   8.936 -1.2851  2.3858  0.3580
  657MOL0     H88664   6.680   8.574   8.829  1.9413  1.4310  0.8948
  657MOL0     H88665   6.762   8.458   9.094  1.5512  2.4397  0.4689
  657MOL0     H88666   6.860   8.511   8.957 -0.2904 -0.7768 -0.9222
  657MOL0     H88667   6.846   8.251   8.935  1.9934  1.9442 -3.0748
  657MOL0     H88668   6.761   8.336   8.811 -0.0634 -1.4234 -0.2351
  657MOL0     H88669   6.639   8.210   9.075 -0.6911 -0.6288 -0.3271
  657MOL0     H88670   6.532   8.294   8.949 -1.3034 -2.0547  1.3229
  657MOL0     H88671   6.721   8.071   8.862  0.0649 -1.8494  2.8515
  657MOL0     H88672   6.585   8.146   8.779  2.4269 -1.2270 -1.1056
  657MOL0     H88673   6.568   7.939   9.011 -0.1588  1.1559  1.1262
  657MOL0     H88674   6.433   8.033   8.952 -0.4326  1.1167 -1.1504
  657MOL0     H88675   6.604   9.104   8.765  1.0617 -1.0231  3.1823
  657MOL0     H88676   6.407   9.229   8.784  1.2861 -0.1818  0.9290
  657MOL0     H88677   5.919   9.236   8.669 -1.4289 -0.9744  0.1746
  657MOL0     H88678   5.691   9.354   8.697 -1.0337 -1.3355  1.3148
  657MOL0     H88679   4.187   9.767   9.255 -1.5210 -1.0630  0.2111
  657MOL0     H88680   4.160   9.898   9.484  0.7256  0.1703 -1.9954
  657MOL0     H88681   3.931  10.299   9.631 -2.3455 -1.4378 -1.3064
  657MOL0     H88682   3.920  10.428   9.846 -1.3051 -0.7086  0.2868
  657MOL0     H88683   3.736  10.269  10.179  1.6341  0.0014  3.2599
  657MOL0     H88684   3.708  10.418  10.094 -1.5283 -2.3415  1.0635
  657MOL0     H88685   3.739  10.425  10.342 -0.7088 -2.1498 -1.1200
  657MOL0     H88686   3.866  10.530  10.267  2.4468 -0.6086 -2.3456
  657MOL0     H88687   3.906  10.235  10.378 -3.1396 -0.1429 -0.2620
  657MOL0     H88688   3.909  10.381  10.470 -1.7959  1.2332 -0.8657
  657MOL0     H88689   4.087  10.304  10.225 -1.3455  1.8603 -2.3526
  657MOL0     H88690   4.091  10.461  10.292  1.0382 -1.1230 -1.5274
  657MOL0     H88691   4.253  10.267  10.628  0.9053  0.3805 -2.0358
  657MOL0     H88692   3.864  10.094  10.078  1.4626 -0.3302  0.1325
  657MOL0     H88693   3.779   9.859   9.818  1.3992 -4.3644  1.1635
  657MOL0     H88694   3.954   9.846   9.862  1.0269  0.6553 -0.4702
  657MOL0     H88695   3.825   9.871   9.991 -2.3424 -2.3079 -0.3552
  658MOL0     O88696   4.441   3.459  10.810 -0.1342  1.1712  0.8712
  658MOL0     C88697   4.372   3.551  10.778 -0.8991  0.0269  0.1234
  658MOL0     O88698   4.417   3.675  10.734 -0.0389  1.0007  0.8862
  658MOL0     C88699   4.552   3.684  10.699 -0.2105 -0.5729 -0.8446
  658MOL0     C88700   4.652   3.701  10.802  0.0156  0.7541  0.5485
  658MOL0     C88701   4.789   3.705  10.778  0.1165  1.2151  0.6284
  658MOL0     C88702   4.839   3.702  10.645 -0.3443 -1.0640  0.4267
  658MOL0     O88703   4.978   3.710  10.614  0.5407  0.2591  0.1179
  658MOL0     C88704   5.070   3.706  10.723  0.4406  0.7313 -0.1861
  658MOL0     C88705   5.210   3.666  10.676  0.1931  0.1497 -0.9545
  658MOL0     C88706   5.316   3.778  10.684 -0.0820  0.5077  0.4392
  658MOL0     C88707   5.455   3.722  10.735 -1.0176  0.2741 -0.1916
  658MOL0     C88708   5.559   3.832  10.735  0.8894  1.1487 -0.8723
  658MOL0     C88709   5.556   3.923  10.855 -0.9191  0.1101 -0.0628
  658MOL0     C88710   5.681   4.022  10.854  0.2537  0.1158 -0.7447
  658MOL0     C88711   5.732   4.036  10.996  0.0243 -0.2091  0.6884
  658MOL0     N88712   5.849   4.125  11.003  0.1363  0.3938 -0.7309
  658MOL0     C88713   5.979   4.075  11.002  0.7850 -0.6895  0.8926
  658MOL0     C88714   6.054   4.194  11.017 -0.2519 -0.1179  0.2695
  658MOL0     C88715   6.205   4.191  11.030 -0.2513 -0.5811 -0.8305
  658MOL0     C88716   6.280   4.131  10.905 -0.0676 -0.2371  0.0003
  658MOL0     C88717   6.279   4.215  10.784  0.5293  1.0162  0.4594
  658MOL0     C88718   6.424   4.213  10.726  0.0776 -0.5845  0.1485
  658MOL0     O88719   6.475   4.092  10.664  0.1424 -0.2152 -0.1713
  658MOL0     C88720   6.597   4.086  10.610  0.4530 -0.2504  0.8275
  658MOL0     C88721   6.682   4.204  10.592 -0.7078  0.4291  0.3873
  658MOL0     C88722   6.810   4.183  10.525 -1.2361 -0.3424 -0.4636
  658MOL0     C88723   6.864   4.063  10.500  0.1022 -0.6102 -0.1777
  658MOL0     C88724   7.005   4.052  10.447  0.3818 -0.8666  0.1219
  658MOL0     O88725   7.061   3.931  10.457  0.7039  0.9197 -0.1498
  658MOL0     C88726   7.189   3.897  10.415 -0.2005 -0.3440 -0.2853
  658MOL0     C88727   7.243   3.786  10.479  0.1725  0.1328 -0.9308
  658MOL0     C88728   7.380   3.741  10.455  0.2700 -0.6717 -0.4607
  658MOL0     C88729   7.441   3.813  10.346  0.8001 -0.0029  0.2607
  658MOL0     O88730   7.555   3.753  10.292  0.1104  0.0185 -0.2578
  658MOL0     C88731   7.642   3.702  10.394 -0.4906  0.0489 -1.3180
  658MOL0     C88732   7.775   3.692  10.324 -0.9067 -1.0315  0.3999
  658MOL0     C88733   7.831   3.827  10.278 -0.4729 -0.2034 -0.2927
  658MOL0     C88734   7.963   3.807  10.194  0.4704 -0.1468 -0.6603
  658MOL0     C88735   7.996   3.950  10.158  0.7751 -0.2532 -0.4405
  658MOL0     C88736   8.123   3.968  10.066  0.5672  0.6951  0.3294
  658MOL0     C88737   8.159   4.117  10.037 -0.7067  0.4227  0.7748
  658MOL0     C88738   8.095   4.173   9.904 -0.2831 -0.7097  0.1865
  658MOL0    Cl88739   7.924   4.188   9.918  0.0286 -0.2371 -0.2738
  658MOL0     C88740   7.382   3.916  10.282  0.8653 -0.2805 -0.6187
  658MOL0     C88741   7.257   3.963  10.318 -0.4859 -0.6110  0.3522
  658MOL0     O88742   7.060   4.157  10.410 -0.4836 -0.4326  0.3398
  658MOL0     C88743   6.778   3.950  10.528 -0.2178  0.2508 -0.2448
  658MOL0     C88744   6.645   3.956  10.577  0.1083 -0.0564  0.6305
  658MOL0     N88745   5.972   4.299  11.030  0.6261 -1.0962 -0.7300
  658MOL0     N88746   5.847   4.257  11.034 -0.3406  0.2728 -0.1479
  658MOL0     C88747   4.750   3.679  10.537  0.1505 -0.0813 -0.2449
  658MOL0     C88748   4.609   3.662  10.568 -0.8453 -0.3118 -0.4661
  658MOL0     C88749   4.220   3.537  10.776 -0.1975 -0.6344 -0.1377
  658MOL0     C88750   4.142   3.658  10.785  0.2907  0.9310  0.1393
  658MOL0     C88751   4.005   3.662  10.796 -0.9177 -0.4751  0.2904
  658MOL0     C88752   3.938   3.538  10.764 -0.1947 -1.1985  0.0395
  658MOL0     O88753   3.805   3.518  10.763 -0.8083 -0.2730  0.0705
  658MOL0     C88754   3.739   3.565  10.879 -0.7340 -0.0110 -0.3811
  658MOL0     C88755   3.593   3.543  10.865  0.2929 -0.3105  0.6033
  658MOL0     C88756   3.545   3.396  10.845  0.3429 -0.5953 -0.5864
  658MOL0     C88757   3.395   3.399  10.876  0.3375 -0.7766  0.6355
  658MOL0     C88758   3.329   3.278  10.817  0.3747 -0.0277 -0.8292
  658MOL0     C88759   3.284   3.181  10.771  0.0533 -0.0987 -0.0916
  658MOL0     C88760   4.010   3.421  10.740  0.5414  0.5430 -0.6077
  658MOL0     C88761   4.151   3.418  10.754  0.6632  0.0498 -0.5101
  658MOL0     C88762   4.219   3.287  10.723 -0.0019 -0.5012  0.6330
  658MOL0     H88763   4.616   3.713  10.904 -1.9390  0.3569 -0.0314
  658MOL0     H88764   4.858   3.718  10.861  2.5455  1.3898 -1.2910
  658MOL0     H88765   5.076   3.808  10.762 -2.9661  0.0486  2.6542
  658MOL0     H88766   5.033   3.645  10.806 -2.9245  0.9260 -1.4093
  658MOL0     H88767   5.208   3.626  10.574 -0.1364  0.6723 -1.1544
  658MOL0     H88768   5.245   3.589  10.745  2.0026  2.2919  0.6502
  658MOL0     H88769   5.276   3.865  10.736 -1.4670  1.8224 -2.5698
  658MOL0     H88770   5.328   3.815  10.582  4.3192 -1.6865 -0.0702
  658MOL0     H88771   5.439   3.681  10.834  1.9499 -0.5055  0.0735
  658MOL0     H88772   5.495   3.636  10.680  0.0315 -0.1294  1.1364
  658MOL0     H88773   5.652   3.775  10.738 -1.9187 -4.0450 -0.6959
  658MOL0     H88774   5.546   3.895  10.647 -0.9241  0.6364 -1.0114
  658MOL0     H88775   5.469   3.990  10.857 -0.8253  0.3236  3.6758
  658MOL0     H88776   5.546   3.861  10.944 -1.9972  0.3105 -0.0276
  658MOL0     H88777   5.646   4.117  10.813 -0.0302  0.0884 -0.5689
  658MOL0     H88778   5.763   3.993  10.788 -0.9446 -0.5848 -1.9844
  658MOL0     H88779   5.649   4.072  11.058 -1.9199 -0.3387 -1.6887
  658MOL0     H88780   5.746   3.936  11.039 -1.4851 -0.2372  1.1590
  658MOL0     H88781   6.019   3.975  10.993  0.9056 -0.8406  2.7547
  658MOL0     H88782   6.242   4.291  11.052 -0.5297 -0.0698 -2.5707
  658MOL0     H88783   6.229   4.133  11.120 -0.9105  2.0187  1.1377
  658MOL0     H88784   6.383   4.107  10.935  0.9850 -0.9823 -3.6807
  658MOL0     H88785   6.220   4.043  10.880  0.2184 -0.5316  0.3315
  658MOL0     H88786   6.257   4.322  10.797 -1.7681  0.7562 -0.8222
  658MOL0     H88787   6.208   4.174  10.712  2.0737 -1.9698  0.5020
  658MOL0     H88788   6.493   4.247  10.805 -0.7780 -0.0379  0.6768
  658MOL0     H88789   6.417   4.288  10.647  3.9296 -0.5097 -0.3081
  658MOL0     H88790   6.656   4.308  10.607  1.5145  1.7095 -3.2979
  658MOL0     H88791   6.875   4.264  10.495 -0.4130 -1.2816 -1.2992
  658MOL0     H88792   7.186   3.722  10.547  4.3623 -3.2595 -0.1039
  658MOL0     H88793   7.410   3.643  10.490 -0.0755  0.1580  2.3825
  658MOL0     H88794   7.652   3.778  10.472  0.4773  1.3462 -2.6528
  658MOL0     H88795   7.611   3.607  10.439  0.4724 -0.4601 -1.6924
  658MOL0     H88796   7.843   3.662  10.404  0.8999 -0.9143 -1.0282
  658MOL0     H88797   7.775   3.627  10.236 -3.6099  1.4214 -1.6420
  658MOL0     H88798   7.753   3.879  10.222 -0.6549  0.0678  0.2088
  658MOL0     H88799   7.848   3.892  10.365 -0.1742 -4.0424  2.8188
  658MOL0     H88800   7.950   3.741  10.108 -0.3251  2.6153 -2.8007
  658MOL0     H88801   8.045   3.768  10.255 -0.3313 -0.8615  0.0069
  658MOL0     H88802   8.020   4.003  10.251  2.1240  0.2211 -1.0324
  658MOL0     H88803   7.906   3.993  10.114  0.8203  4.1764  3.0158
  658MOL0     H88804   8.207   3.922  10.118  1.8226  0.0944 -2.1034
  658MOL0     H88805   8.120   3.904   9.977  1.9396 -0.8880  1.3804
  658MOL0     H88806   8.268   4.120  10.022 -0.6977  0.7689  0.8951
  658MOL0     H88807   8.123   4.172  10.124  0.0889  1.0563  0.7248
  658MOL0     H88808   8.139   4.273   9.897  1.5045 -1.1067  3.5642
  658MOL0     H88809   8.121   4.112   9.816  0.9762 -1.7961  1.2599
  658MOL0     H88810   7.420   3.973  10.198 -0.7478  0.4165 -0.9116
  658MOL0     H88811   7.219   4.047  10.260  1.9015  1.6650  1.8634
  658MOL0     H88812   6.827   3.854  10.515 -0.7204 -0.3076  1.6735
  658MOL0     H88813   6.585   3.866  10.585  1.6434 -1.0555  1.3388
  658MOL0     H88814   4.792   3.675  10.437 -0.7634 -0.0224 -0.6400
  658MOL0     H88815   4.552   3.646  10.477 -0.6195  0.6167 -0.7826
  658MOL0     H88816   4.184   3.757  10.803  0.4742  0.3836  3.3560
  658MOL0     H88817   3.953   3.756  10.812  0.9571  0.4128  1.4792
  658MOL0     H88818   3.751   3.673  10.894  1.4888 -0.4792  1.9521
  658MOL0     H88819   3.777   3.522  10.973  1.3667  2.8074  0.1872
  658MOL0     H88820   3.559   3.599  10.777  0.6135  1.7677  1.7437
  658MOL0     H88821   3.547   3.590  10.953  1.2708  2.1221 -0.0800
  658MOL0     H88822   3.589   3.346  10.932  1.4090  1.5419  0.1540
  658MOL0     H88823   3.571   3.347  10.751  0.9589 -0.3592 -0.5401
  658MOL0     H88824   3.379   3.409  10.983 -1.6894 -3.1885  0.6666
  658MOL0     H88825   3.347   3.485  10.829  0.8384 -1.7782 -1.9426
  658MOL0     H88826   3.242   3.099  10.715 -3.2351  1.0870  0.4138
  658MOL0     H88827   3.964   3.327  10.712  1.4123 -0.3187  0.7155
  658MOL0     H88828   4.163   3.193  10.730 -2.0926  0.5615 -0.8828
  658MOL0     H88829   4.253   3.285  10.619 -0.8610 -0.1532  0.3393
  658MOL0     H88830   4.314   3.271  10.776 -0.5619 -3.1614  0.9746
  659MOL0     O88831   4.086   7.436   8.451 -0.8501  0.3319 -0.2382
  659MOL0     C88832   4.128   7.323   8.479 -0.2967 -1.2835  0.8573
  659MOL0     O88833   4.245   7.265   8.423  1.0050  0.0576 -0.1431
  659MOL0     C88834   4.301   7.335   8.320  0.3893  0.2748 -0.0014
  659MOL0     C88835   4.272   7.296   8.191 -0.1978  0.9690 -0.4987
  659MOL0     C88836   4.322   7.363   8.080 -0.1025  0.4036 -0.5278
  659MOL0     C88837   4.407   7.473   8.095  0.3396 -1.1608  0.2623
  659MOL0     O88838   4.459   7.523   7.979  0.0417 -0.2658 -0.8105
  659MOL0     C88839   4.588   7.583   7.991 -1.3034 -0.5435 -0.4573
  659MOL0     C88840   4.669   7.546   7.869  0.5394 -0.4396  0.5875
  659MOL0     C88841   4.764   7.651   7.806  1.0440 -0.3739  0.1708
  659MOL0     C88842   4.717   7.801   7.806  0.2150  0.0306  0.0631
  659MOL0     C88843   4.790   7.870   7.684  0.2089 -0.4991 -1.2820
  659MOL0     C88844   4.762   8.016   7.699  0.3356 -0.4443  0.6637
  659MOL0     C88845   4.793   8.085   7.563  0.3802  0.4707 -0.3688
  659MOL0     C88846   4.775   8.235   7.557  0.0637 -0.7265  0.4044
  659MOL0     N88847   4.879   8.304   7.633 -0.4386  0.4767 -0.2009
  659MOL0     C88848   5.016   8.317   7.601 -0.2176 -0.5625 -0.0011
  659MOL0     C88849   5.068   8.407   7.685  0.1003  0.0591  0.0355
  659MOL0     C88850   5.205   8.446   7.707 -0.6996  1.2666 -0.1503
  659MOL0     C88851   5.288   8.328   7.766  0.1981 -0.5112  0.6714
  659MOL0     C88852   5.259   8.291   7.907 -0.1872 -1.2485  0.9723
  659MOL0     C88853   5.292   8.144   7.953  0.0599  0.1360  0.4644
  659MOL0     O88854   5.257   8.134   8.103  0.2928 -0.4565  0.8261
  659MOL0     C88855   5.144   8.080   8.139  0.6412  0.7885 -0.5518
  659MOL0     C88856   5.086   8.127   8.258 -0.9295 -0.2422  1.0389
  659MOL0     C88857   4.970   8.076   8.312 -0.3289  0.0526  0.5912
  659MOL0     C88858   4.907   7.972   8.253  0.8986 -0.8376  0.6089
  659MOL0     C88859   4.790   7.893   8.319  0.5508  1.2606 -0.2784
  659MOL0     O88860   4.795   7.889   8.451  0.5866 -0.3607  0.1914
  659MOL0     C88861   4.700   7.806   8.523 -0.6553 -0.6287  0.6758
  659MOL0     C88862   4.567   7.797   8.490  0.1463 -0.8398 -0.7571
  659MOL0     C88863   4.485   7.711   8.560  0.1330  0.3987  0.7058
  659MOL0     C88864   4.532   7.639   8.670  0.4642  1.0137 -0.1878
  659MOL0     O88865   4.453   7.566   8.760  0.0253  0.6916  0.4103
  659MOL0     C88866   4.318   7.576   8.757 -0.0246 -0.2093  0.2113
  659MOL0     C88867   4.273   7.504   8.884 -0.0568 -0.2528 -0.3174
  659MOL0     C88868   4.118   7.503   8.910  1.0283 -0.2993 -0.8171
  659MOL0     C88869   4.073   7.423   9.035 -0.0175  0.1448  0.3016
  659MOL0     C88870   3.924   7.447   9.058  0.1482  0.4486  0.2246
  659MOL0     C88871   3.888   7.396   9.199 -0.2657 -0.3605  0.2619
  659MOL0     C88872   3.741   7.400   9.214  0.4123 -1.1559  0.5997
  659MOL0     C88873   3.672   7.381   9.350 -0.0764 -0.1415  0.4744
  659MOL0    Cl88874   3.723   7.513   9.469  0.4028  0.4029  0.3165
  659MOL0     C88875   4.661   7.661   8.708 -0.5917  0.6815  0.7755
  659MOL0     C88876   4.747   7.743   8.636  0.7297  0.4081 -0.1542
  659MOL0     O88877   4.719   7.814   8.245 -0.6940 -0.4239 -0.1465
  659MOL0     C88878   4.958   7.923   8.124  0.5653 -0.7739 -0.8292
  659MOL0     C88879   5.067   7.981   8.073 -0.2067 -0.4844  0.8248
  659MOL0     N88880   4.969   8.447   7.773  0.2815  0.0013 -0.3544
  659MOL0     N88881   4.857   8.378   7.747  0.7486 -0.7180 -0.2754
  659MOL0     C88882   4.441   7.517   8.223 -0.1665 -0.0619 -0.1100
  659MOL0     C88883   4.384   7.449   8.328  0.0148 -0.1407 -0.3461
  659MOL0     C88884   4.069   7.259   8.593  0.0743  0.3051  0.5400
  659MOL0     C88885   4.154   7.211   8.687 -0.3767 -0.3105 -1.2618
  659MOL0     C88886   4.115   7.120   8.790 -0.9577 -0.8821  0.2837
  659MOL0     C88887   3.982   7.090   8.794 -0.5515  0.3311 -0.6105
  659MOL0     O88888   3.961   7.002   8.892 -0.3359 -0.2949 -0.6235
  659MOL0     C88889   3.833   6.966   8.925 -0.7239  0.6058 -0.7259
  659MOL0     C88890   3.822   6.885   9.063 -0.3792  0.1403 -1.4986
  659MOL0     C88891   3.679   6.838   9.101 -0.4110 -0.4864 -0.2962
  659MOL0     C88892   3.662   6.787   9.245  0.3038 -0.0075  0.0486
  659MOL0     C88893   3.738   6.667   9.275  0.4843 -0.3079 -0.2416
  659MOL0     C88894   3.803   6.573   9.303  0.1415  0.9025  0.6838
  659MOL0     C88895   3.887   7.153   8.710 -0.1472  1.0839  0.3160
  659MOL0     C88896   3.928   7.237   8.606 -0.0458  0.3032  0.1600
  659MOL0     C88897   3.827   7.308   8.522 -0.7039  0.0946  0.5216
  659MOL0     H88898   4.205   7.212   8.180 -0.6216  1.3784 -1.0376
  659MOL0     H88899   4.302   7.324   7.980 -1.3154 -2.7027  0.8141
  659MOL0     H88900   4.566   7.690   7.999  0.6137 -0.2564  3.7109
  659MOL0     H88901   4.637   7.549   8.083 -3.2860 -0.2172  0.7920
  659MOL0     H88902   4.588   7.521   7.799 -0.6130  2.2008  0.8601
  659MOL0     H88903   4.726   7.455   7.888  0.5497 -0.2420  1.5338
  659MOL0     H88904   4.767   7.616   7.703 -1.4850  0.9628 -0.4459
  659MOL0     H88905   4.860   7.636   7.856  0.4323  0.2879  1.6164
  659MOL0     H88906   4.610   7.796   7.784 -0.0525 -0.0664  1.3238
  659MOL0     H88907   4.730   7.844   7.905  0.5794 -3.1301  1.5170
  659MOL0     H88908   4.897   7.853   7.692  0.1375 -0.0684  2.1137
  659MOL0     H88909   4.739   7.823   7.599  0.6119 -2.4561 -0.5016
  659MOL0     H88910   4.658   8.031   7.727  1.3656  3.0903  3.3950
  659MOL0     H88911   4.829   8.046   7.781 -2.5408  1.2133  2.5767
  659MOL0     H88912   4.722   8.045   7.491 -0.0523  1.5194 -0.5410
  659MOL0     H88913   4.899   8.060   7.548  0.8705  2.9291 -1.3951
  659MOL0     H88914   4.770   8.268   7.453  0.0382 -2.1784 -0.0771
  659MOL0     H88915   4.674   8.255   7.594 -0.0024 -2.3921  1.2083
  659MOL0     H88916   5.061   8.271   7.514 -0.8035 -1.2157  0.0266
  659MOL0     H88917   5.257   8.468   7.614 -5.0774 -0.4707 -3.3355
  659MOL0     H88918   5.209   8.524   7.784  2.4749  1.8313 -0.7285
  659MOL0     H88919   5.284   8.238   7.703 -0.1359  0.7206 -1.1601
  659MOL0     H88920   5.393   8.359   7.758 -0.4820  1.4958 -3.4385
  659MOL0     H88921   5.150   8.298   7.921 -0.3696  4.0391 -1.0160
  659MOL0     H88922   5.297   8.373   7.969 -0.2216 -0.3713 -0.1353
  659MOL0     H88923   5.397   8.115   7.942  0.0364  0.3081 -0.2786
  659MOL0     H88924   5.231   8.081   7.888 -0.3148  2.0842 -1.1683
  659MOL0     H88925   5.134   8.213   8.302  1.7984  0.5048 -2.8899
  659MOL0     H88926   4.953   8.099   8.417  1.6488  1.0543  0.7288
  659MOL0     H88927   4.519   7.858   8.414  1.3594  1.0470 -0.0784
  659MOL0     H88928   4.380   7.699   8.537  0.3554 -0.2610  0.0013
  659MOL0     H88929   4.282   7.679   8.760  1.2635  0.4532 -3.2242
  659MOL0     H88930   4.276   7.532   8.666 -2.9939 -1.1489  1.8794
  659MOL0     H88931   4.320   7.405   8.880  1.8895  0.5844  0.3132
  659MOL0     H88932   4.323   7.559   8.964  0.6627 -1.9570  0.4475
  659MOL0     H88933   4.089   7.606   8.936 -0.8562 -1.1225  0.6138
  659MOL0     H88934   4.072   7.464   8.819  1.5729 -1.2670 -0.6939
  659MOL0     H88935   4.117   7.473   9.122 -1.0665  0.9540  0.3822
  659MOL0     H88936   4.116   7.323   9.025 -0.7538  0.0083 -2.1887
  659MOL0     H88937   3.862   7.399   8.982 -0.4587 -2.8238  2.5546
  659MOL0     H88938   3.916   7.556   9.065 -0.2857  0.3321  2.3406
  659MOL0     H88939   3.921   7.294   9.218  0.3368 -0.0653  0.8592
  659MOL0     H88940   3.931   7.456   9.280  0.7009 -2.2388  1.2070
  659MOL0     H88941   3.687   7.326   9.154 -3.1513  0.6694  1.3104
  659MOL0     H88942   3.707   7.499   9.184  2.5979 -1.2524 -2.6897
  659MOL0     H88943   3.563   7.382   9.344 -0.0158 -0.3117 -2.5531
  659MOL0     H88944   3.709   7.290   9.396  1.5048  0.4417  0.4101
  659MOL0     H88945   4.692   7.621   8.804 -0.9780  1.4189  1.2204
  659MOL0     H88946   4.844   7.767   8.676  0.0172 -0.2325  2.1020
  659MOL0     H88947   4.909   7.836   8.080  0.4349 -0.0383 -2.1963
  659MOL0     H88948   5.091   7.944   7.974  0.0570 -0.7575  0.9886
  659MOL0     H88949   4.506   7.602   8.241 -1.0331  0.8315 -1.0141
  659MOL0     H88950   4.405   7.479   8.430 -0.5189 -0.6665 -0.0726
  659MOL0     H88951   4.256   7.247   8.686 -1.2900  3.2196  2.4823
  659MOL0     H88952   4.188   7.074   8.855  3.1009 -0.5405 -3.5747
  659MOL0     H88953   3.782   6.920   8.840 -0.6043  0.4743 -0.7270
  659MOL0     H88954   3.770   7.054   8.937 -0.7431  0.7170 -1.5503
  659MOL0     H88955   3.857   6.955   9.139 -1.2396 -2.8202  1.8891
  659MOL0     H88956   3.891   6.800   9.062 -0.4525  0.0440 -0.1133
  659MOL0     H88957   3.651   6.759   9.030 -4.1536  0.9235 -0.6147
  659MOL0     H88958   3.610   6.921   9.088 -1.6721 -1.6771 -1.6602
  659MOL0     H88959   3.679   6.860   9.325 -0.3597 -0.9425  1.0705
  659MOL0     H88960   3.557   6.759   9.255  0.7252 -1.9565 -0.5278
  659MOL0     H88961   3.851   6.478   9.316 -2.4883 -0.7427 -0.6536
  659MOL0     H88962   3.781   7.134   8.728  0.1244 -1.6155 -0.4780
  659MOL0     H88963   3.726   7.280   8.555 -0.6972 -0.8476 -0.2139
  659MOL0     H88964   3.836   7.416   8.515 -1.0677 -0.0104 -2.8924
  659MOL0     H88965   3.836   7.274   8.419  0.7556 -1.9841  1.2508
  660MOL0     O88966   6.707   3.645   0.490 -0.5366 -0.4153 -0.3271
  660MOL0     C88967   6.653   3.650   0.599  0.5966 -0.0375  0.2829
  660MOL0     O88968   6.679   3.568   0.706  0.3473  0.0090  0.7581
  660MOL0     C88969   6.727   3.444   0.677  0.2447  0.6722 -0.6890
  660MOL0     C88970   6.817   3.380   0.759 -0.6871  0.1754  0.0130
  660MOL0     C88971   6.854   3.247   0.743  0.0527 -0.4202  0.6571
  660MOL0     C88972   6.813   3.175   0.636  0.0526  0.3324  0.0250
  660MOL0     O88973   6.855   3.045   0.628  0.1967 -0.1671 -0.6263
  660MOL0     C88974   6.866   2.996   0.500 -0.2427 -0.8002 -0.7958
  660MOL0     C88975   6.920   2.858   0.505  0.7648 -0.5830  0.0868
  660MOL0     C88976   7.060   2.853   0.542  0.2150 -0.2530  0.2868
  660MOL0     C88977   7.087   2.729   0.632 -0.7113  0.0381 -0.4789
  660MOL0     C88978   7.082   2.594   0.553  0.8398 -0.1652 -0.8568
  660MOL0     C88979   7.073   2.468   0.645  0.1364  0.6873 -0.7208
  660MOL0     C88980   6.933   2.452   0.720 -0.2255 -0.2074  1.3933
  660MOL0     C88981   6.920   2.324   0.799 -0.5437 -0.0234 -0.8489
  660MOL0     N88982   6.793   2.319   0.868 -0.4895 -0.5098  0.1611
  660MOL0     C88983   6.688   2.257   0.803 -0.4684 -0.3695  0.0912
  660MOL0     C88984   6.581   2.268   0.885  0.0580 -0.1716  0.0702
  660MOL0     C88985   6.444   2.216   0.853  1.1070  0.4676 -0.7936
  660MOL0     C88986   6.354   2.334   0.810  0.2582  0.0081 -0.3336
  660MOL0     C88987   6.210   2.279   0.775 -0.7111 -0.2889  0.0596
  660MOL0     C88988   6.109   2.386   0.785 -0.0614 -0.5658 -1.0307
  660MOL0     O88989   6.133   2.489   0.689  0.3690  0.0501  0.9444
  660MOL0     C88990   6.045   2.598   0.689 -0.0006  0.3680  1.2387
  660MOL0     C88991   6.019   2.665   0.568  1.5234  0.2314  0.9977
  660MOL0     C88992   5.938   2.784   0.566 -0.0445 -0.1341  0.7377
  660MOL0     C88993   5.871   2.832   0.681 -0.3172  0.1081  0.6967
  660MOL0     C88994   5.790   2.957   0.680 -0.4599  0.6277 -0.0842
  660MOL0     O88995   5.729   2.992   0.558 -0.1674  0.2940 -0.3932
  660MOL0     C88996   5.679   3.119   0.529 -0.4007 -0.1649  0.4925
  660MOL0     C88997   5.556   3.126   0.472  0.2128  0.6121 -0.0529
  660MOL0     C88998   5.506   3.253   0.432  0.4841  0.3072  0.6441
  660MOL0     C88999   5.593   3.363   0.419 -0.1437 -0.7537  0.4299
  660MOL0     O89000   5.549   3.480   0.375  0.2802 -0.1854 -0.6317
  660MOL0     C89001   5.426   3.487   0.303 -0.3641  0.8371  0.2120
  660MOL0     C89002   5.401   3.632   0.245 -0.1014  0.2255 -0.1835
  660MOL0     C89003   5.252   3.657   0.219 -1.0540 -0.3363 -0.2310
  660MOL0     C89004   5.224   3.789   0.150  0.3141 -0.8414  1.3371
  660MOL0     C89005   5.067   3.817   0.162 -0.3754 -0.0656  0.3807
  660MOL0     C89006   4.983   3.728   0.068 -0.2553  0.3618  0.8154
  660MOL0     C89007   4.990   3.767  -0.078 -0.5570  0.2534 -0.4409
  660MOL0     C89008   4.904   3.687  -0.164  0.4029  0.7310 -0.5115
  660MOL0    Cl89009   4.897   3.760  -0.312  0.0812 -0.2604  0.0303
  660MOL0     C89010   5.719   3.357   0.467  0.6127  0.4296 -0.5826
  660MOL0     C89011   5.770   3.235   0.517  0.0009 -1.2868 -0.5816
  660MOL0     O89012   5.784   3.023   0.787  0.0236 -0.6463 -0.0381
  660MOL0     C89013   5.891   2.763   0.801 -0.9148  0.2581  1.1083
  660MOL0     C89014   5.980   2.651   0.807 -0.7464 -0.6475  0.5650
  660MOL0     N89015   6.636   2.325   1.001 -0.3916 -0.5822  0.0361
  660MOL0     N89016   6.762   2.345   0.993 -0.6661 -0.1206 -0.3323
  660MOL0     C89017   6.715   3.238   0.547 -0.0770 -0.7173  0.0504
  660MOL0     C89018   6.682   3.376   0.562  0.4785 -0.1690  0.2183
  660MOL0     C89019   6.544   3.751   0.614  0.2530 -0.4593  0.6502
  660MOL0     C89020   6.479   3.761   0.732  0.0200 -0.4910 -1.0894
  660MOL0     C89021   6.381   3.853   0.760 -0.8979  0.4393  0.2771
  660MOL0     C89022   6.347   3.953   0.670  0.1133 -0.2092  0.0006
  660MOL0     O89023   6.252   4.057   0.689  0.2759  0.5557 -0.3812
  660MOL0     C89024   6.138   4.012   0.766  0.4945 -0.0954  0.5726
  660MOL0     C89025   6.045   4.131   0.804  0.2578  0.2893  0.2546
  660MOL0     C89026   6.038   4.244   0.707 -0.4780 -0.4970 -0.0426
  660MOL0     C89027   5.934   4.348   0.741 -0.6225  0.4802 -0.2570
  660MOL0     C89028   5.945   4.407   0.870 -0.0752 -0.3919 -0.6869
  660MOL0     C89029   5.951   4.464   0.980 -0.6853  1.5413 -0.1664
  660MOL0     C89030   6.412   3.948   0.550  0.6650 -0.7243 -0.0453
  660MOL0     C89031   6.502   3.851   0.518  0.1518 -0.0388  1.2563
  660MOL0     C89032   6.548   3.862   0.374 -0.1701  0.3165 -0.2745
  660MOL0     H89033   6.847   3.429   0.851  0.1008 -3.0108  1.5904
  660MOL0     H89034   6.918   3.211   0.823  0.4763 -2.9523 -0.7108
  660MOL0     H89035   6.770   3.007   0.449 -0.7001  1.5755  0.4329
  660MOL0     H89036   6.935   3.058   0.442 -0.0967 -0.1306  0.0723
  660MOL0     H89037   6.918   2.816   0.404  4.4555 -0.5091 -0.1406
  660MOL0     H89038   6.852   2.803   0.571  2.2097  0.9815  3.1251
  660MOL0     H89039   7.086   2.944   0.595 -0.7870  1.1606 -1.5186
  660MOL0     H89040   7.124   2.856   0.453 -0.6973 -0.3094 -0.3796
  660MOL0     H89041   7.191   2.741   0.663 -0.6383 -0.8150 -0.3740
  660MOL0     H89042   7.008   2.724   0.707  0.2313 -2.6606  0.4388
  660MOL0     H89043   6.998   2.594   0.483  1.5237  1.5458 -1.7500
  660MOL0     H89044   7.177   2.598   0.500  0.3245 -3.2618 -2.2172
  660MOL0     H89045   7.078   2.377   0.583 -3.5997 -0.9499  1.0643
  660MOL0     H89046   7.163   2.462   0.707 -0.2375 -0.9859 -0.2656
  660MOL0     H89047   6.851   2.455   0.648  1.8905  0.1547 -1.1517
  660MOL0     H89048   6.917   2.534   0.791 -2.8744  0.0804  0.5874
  660MOL0     H89049   6.949   2.248   0.726  1.4270  0.8864 -1.0618
  660MOL0     H89050   7.003   2.325   0.871 -1.4855 -0.0876  0.2829
  660MOL0     H89051   6.703   2.191   0.718  3.6547 -0.5061  0.7049
  660MOL0     H89052   6.446   2.147   0.768 -0.3946 -0.3768 -0.1747
  660MOL0     H89053   6.393   2.166   0.936  0.7136 -1.2886 -2.0432
  660MOL0     H89054   6.359   2.407   0.891  1.2724  0.5718 -0.8785
  660MOL0     H89055   6.390   2.386   0.720 -0.7250 -1.9378 -1.9143
  660MOL0     H89056   6.178   2.194   0.836 -0.3709  1.2394  2.5020
  660MOL0     H89057   6.202   2.254   0.669  1.7892  0.2753 -0.3363
  660MOL0     H89058   6.106   2.429   0.885 -1.5120  0.5638 -1.5219
  660MOL0     H89059   6.016   2.329   0.770 -2.3899  2.6769  0.0359
  660MOL0     H89060   6.058   2.625   0.475 -1.8814 -1.0614 -0.0200
  660MOL0     H89061   5.923   2.840   0.475 -1.6845 -1.3614  0.1904
  660MOL0     H89062   5.496   3.036   0.478  0.2858  0.2775 -2.8524
  660MOL0     H89063   5.399   3.263   0.418 -0.2834 -1.8422  3.8473
  660MOL0     H89064   5.436   3.411   0.225  2.3048  0.3074  0.9816
  660MOL0     H89065   5.342   3.467   0.370 -2.3624 -0.1323 -2.3718
  660MOL0     H89066   5.446   3.694   0.323  3.1191  1.2282 -2.6010
  660MOL0     H89067   5.458   3.649   0.153  1.4863 -1.2282  0.4744
  660MOL0     H89068   5.204   3.580   0.159 -2.5081 -0.0335  0.4952
  660MOL0     H89069   5.200   3.663   0.315 -2.6809  2.6765 -1.1824
  660MOL0     H89070   5.257   3.784   0.046 -0.8021 -0.8672  0.9684
  660MOL0     H89071   5.284   3.864   0.203 -1.3383  0.8807  0.8733
  660MOL0     H89072   5.057   3.923   0.137  0.0168  0.2761  1.6304
  660MOL0     H89073   5.043   3.808   0.268  0.4265  0.6702  0.6314
  660MOL0     H89074   4.999   3.622   0.088  1.0458  0.9029  3.0208
  660MOL0     H89075   4.878   3.743   0.096 -0.2360  1.9291  0.1677
  660MOL0     H89076   5.096   3.765  -0.106  0.3967 -1.5634  2.8110
  660MOL0     H89077   4.957   3.869  -0.100 -0.6995 -0.3094 -3.2633
  660MOL0     H89078   4.945   3.586  -0.165  5.3178  2.4009  0.7967
  660MOL0     H89079   4.813   3.669  -0.106  0.2676  0.1122 -0.9112
  660MOL0     H89080   5.773   3.448   0.443  0.6837  0.2461 -1.1511
  660MOL0     H89081   5.870   3.209   0.550 -0.4895 -0.7002  1.5517
  660MOL0     H89082   5.838   2.801   0.888 -2.0091  1.2663  0.0463
  660MOL0     H89083   6.003   2.604   0.902 -0.3197 -0.6529  0.4588
  660MOL0     H89084   6.669   3.186   0.464  0.7427  1.8290 -2.1579
  660MOL0     H89085   6.617   3.420   0.488  1.4399  1.7466  0.4540
  660MOL0     H89086   6.504   3.703   0.820  0.9590  0.5048 -0.6727
  660MOL0     H89087   6.332   3.850   0.856 -0.1897  1.5163  0.6892
  660MOL0     H89088   6.166   3.962   0.859  3.6354  2.2504  1.0314
  660MOL0     H89089   6.082   3.941   0.704 -0.2738  0.6186  0.4362
  660MOL0     H89090   6.080   4.181   0.894 -1.2322  0.6021  0.6754
  660MOL0     H89091   5.943   4.095   0.820  0.8007 -2.9394 -2.3848
  660MOL0     H89092   6.021   4.199   0.609 -1.4510  0.5549 -0.3823
  660MOL0     H89093   6.132   4.300   0.707 -0.7566 -0.0221  0.6613
  660MOL0     H89094   5.932   4.431   0.669 -0.9286 -0.3467 -1.2193
  660MOL0     H89095   5.839   4.294   0.733  0.2668 -1.4666  1.3845
  660MOL0     H89096   5.972   4.504   1.077  0.4171  0.5653  0.0179
  660MOL0     H89097   6.404   4.027   0.477 -2.0342 -0.5749  0.3117
  660MOL0     H89098   6.647   3.901   0.348  0.5849 -1.1788  0.2331
  660MOL0     H89099   6.537   3.765   0.323 -2.2444  0.7446 -0.7528
  660MOL0     H89100   6.472   3.921   0.322 -2.4989  0.7310  3.2741
  661MOL0     O89101   3.879   0.134   8.970  0.1515  0.2247  0.9038
  661MOL0     C89102   3.822   0.134   8.862 -0.8494  1.0215 -0.4578
  661MOL0     O89103   3.844   0.026   8.772  0.5027  0.0257  0.1409
  661MOL0     C89104   3.941  -0.063   8.808 -0.2268  0.5410 -0.5745
  661MOL0     C89105   4.080  -0.042   8.810 -0.3302  0.4079  0.5159
  661MOL0     C89106   4.167  -0.136   8.862 -0.8352 -0.3489  0.1745
  661MOL0     C89107   4.130  -0.269   8.894  0.4856  0.0937 -0.2347
  661MOL0     O89108   4.198  -0.377   8.941 -0.2674 -0.6531 -0.2806
  661MOL0     C89109   4.336  -0.349   8.962 -0.6849 -0.4751  0.7034
  661MOL0     C89110   4.366  -0.425   9.088  0.3099  0.5466 -0.1282
  661MOL0     C89111   4.282  -0.374   9.209  0.7857 -0.5297 -0.6919
  661MOL0     C89112   4.182  -0.466   9.277  0.1297 -0.3403  0.0269
  661MOL0     C89113   4.259  -0.564   9.375  0.0545 -0.3160 -0.6739
  661MOL0     C89114   4.286  -0.498   9.515 -0.3964  0.1283  0.8653
  661MOL0     C89115   4.163  -0.442   9.589  0.1241 -0.1103 -0.4879
  661MOL0     C89116   4.206  -0.396   9.735 -0.0944 -0.2482  0.7967
  661MOL0     N89117   4.275  -0.494   9.810 -0.5370  0.3820 -0.5296
  661MOL0     C89118   4.230  -0.617   9.834  0.2064 -0.2063  0.0827
  661MOL0     C89119   4.318  -0.665   9.915 -0.2093  0.7206 -0.7318
  661MOL0     C89120   4.303  -0.800   9.973 -0.3765 -0.4147  0.1168
  661MOL0     C89121   4.208  -0.815  10.084 -0.4425  0.1270 -1.1394
  661MOL0     C89122   4.238  -0.736  10.218 -0.7809  0.6382 -0.3661
  661MOL0     C89123   4.385  -0.741  10.267 -0.2487  0.1941 -1.3028
  661MOL0     O89124   4.422  -0.875  10.295  0.9249  0.3167 -0.0489
  661MOL0     C89125   4.524  -0.917  10.379  0.7741  0.1709 -0.1937
  661MOL0     C89126   4.624  -0.843  10.449  0.5707 -0.3698 -0.2097
  661MOL0     C89127   4.713  -0.898  10.537 -1.0141  0.1530 -0.3288
  661MOL0     C89128   4.719  -1.032  10.569 -0.1999  0.0306 -1.0441
  661MOL0     C89129   4.821  -1.086  10.662  0.7520  0.0224  0.1912
  661MOL0     O89130   4.871  -1.001  10.748  0.0513 -0.1453 -0.0824
  661MOL0     C89131   4.970  -1.030  10.839 -0.1170  0.6332 -0.1404
  661MOL0     C89132   4.956  -1.117  10.953  0.1301 -0.5193  1.0073
  661MOL0     C89133   5.053  -1.132  11.050  0.0721  0.0956 -0.5115
  661MOL0     C89134   5.173  -1.066  11.030 -0.0314 -0.0142  0.2802
  661MOL0     O89135   5.263  -1.060  11.131 -0.4582 -0.1666 -0.1169
  661MOL0     C89136   5.290  -1.156  11.233  0.5114  0.1627 -0.4488
  661MOL0     C89137   5.372  -1.093  11.354  0.0925 -0.4293  0.3840
  661MOL0     C89138   5.514  -1.046  11.295 -0.9615 -0.2161  0.0292
  661MOL0     C89139   5.612  -1.006  11.411  0.7646 -0.0101  0.2574
  661MOL0     C89140   5.755  -1.006  11.369 -0.9721 -0.2146 -0.1444
  661MOL0     C89141   5.780  -0.883  11.267  0.4307 -0.4182  0.2218
  661MOL0     C89142   5.928  -0.882  11.220  0.5469 -0.5961  0.2162
  661MOL0     C89143   5.934  -0.831  11.083 -0.2771  0.7908 -0.5058
  661MOL0    Cl89144   6.101  -0.834  11.020  0.1555 -0.1161  0.1598
  661MOL0     C89145   5.196  -0.969  10.924 -0.1521  0.5514  0.7750
  661MOL0     C89146   5.092  -0.948  10.835  0.0937  0.5518 -0.5402
  661MOL0     O89147   4.854  -1.205  10.651  0.8965 -0.5401  0.7258
  661MOL0     C89148   4.617  -1.109  10.519 -0.0221 -0.3634  0.7515
  661MOL0     C89149   4.524  -1.059  10.419  0.5934 -0.3905 -0.1876
  661MOL0     N89150   4.424  -0.580   9.935  0.5737 -0.0729 -0.2224
  661MOL0     N89151   4.388  -0.467   9.879  0.5064  0.8298 -0.1639
  661MOL0     C89152   3.989  -0.286   8.878  0.0339  0.4499 -0.0415
  661MOL0     C89153   3.897  -0.184   8.855  0.4270  0.2985 -0.1017
  661MOL0     C89154   3.750   0.256   8.810  0.5591 -0.4155  0.3566
  661MOL0     C89155   3.761   0.287   8.678  0.6196 -0.4697 -0.0647
  661MOL0     C89156   3.681   0.390   8.620  0.3834  0.1120  0.9147
  661MOL0     C89157   3.598   0.476   8.702  0.2101  0.1912  0.9160
  661MOL0     O89158   3.525   0.566   8.632  0.4224  0.3237 -0.1031
  661MOL0     C89159   3.436   0.653   8.699  0.1652 -0.1317  0.8928
  661MOL0     C89160   3.358   0.721   8.581  0.3532  0.7926  1.0248
  661MOL0     C89161   3.228   0.796   8.617 -0.1628 -0.2313 -0.9371
  661MOL0     C89162   3.106   0.707   8.618  1.4272 -1.2678  0.6196
  661MOL0     C89163   3.078   0.682   8.471 -0.7125  0.1381 -0.2889
  661MOL0     C89164   3.063   0.656   8.357  0.3154 -0.0974  0.2634
  661MOL0     C89165   3.590   0.456   8.841 -0.6250  0.6941 -0.6315
  661MOL0     C89166   3.671   0.343   8.891  0.3654 -1.0162  0.3129
  661MOL0     C89167   3.649   0.306   9.031  0.5662 -0.8990  0.4148
  661MOL0     H89168   4.114   0.058   8.786 -0.1353  0.1036 -0.5271
  661MOL0     H89169   4.267  -0.096   8.876 -0.6201 -0.4142 -1.0067
  661MOL0     H89170   4.391  -0.392   8.878  0.1068  0.7887  0.5458
  661MOL0     H89171   4.363  -0.245   8.979 -1.1717 -0.2518  0.1022
  661MOL0     H89172   4.469  -0.422   9.125 -0.6765 -1.5747  3.3069
  661MOL0     H89173   4.349  -0.531   9.068 -0.2612  0.7292 -0.6341
  661MOL0     H89174   4.225  -0.286   9.180  2.3814  0.9378  0.4013
  661MOL0     H89175   4.348  -0.335   9.287 -0.5421  1.8311 -0.6582
  661MOL0     H89176   4.111  -0.405   9.332 -0.1715  0.8120 -1.5491
  661MOL0     H89177   4.121  -0.522   9.205 -0.3189 -0.4984  0.5289
  661MOL0     H89178   4.198  -0.651   9.400  0.0609 -0.5001 -1.2835
  661MOL0     H89179   4.353  -0.596   9.330 -1.7797 -0.5945 -4.7432
  661MOL0     H89180   4.331  -0.585   9.564  1.3757  0.5669  0.0701
  661MOL0     H89181   4.368  -0.426   9.508  0.5606 -0.7868  2.1805
  661MOL0     H89182   4.079  -0.513   9.586  0.6606 -0.7294 -1.1693
  661MOL0     H89183   4.134  -0.352   9.533  3.2016  0.1415 -1.8576
  661MOL0     H89184   4.264  -0.303   9.730 -0.7828  0.2117  1.1778
  661MOL0     H89185   4.118  -0.369   9.793 -0.9347 -2.4835  0.6540
  661MOL0     H89186   4.140  -0.671   9.807 -1.6983  2.2993  1.1044
  661MOL0     H89187   4.270  -0.874   9.899 -1.5782 -0.0612  0.2796
  661MOL0     H89188   4.403  -0.822  10.010 -0.9098  1.1222  2.6965
  661MOL0     H89189   4.111  -0.783  10.047 -1.4115 -0.3271  0.8846
  661MOL0     H89190   4.204  -0.922  10.105  2.6053  0.5167  2.8116
  661MOL0     H89191   4.168  -0.772  10.294 -0.8363 -0.0148 -0.7189
  661MOL0     H89192   4.210  -0.634  10.188  1.8921  1.2395 -1.0179
  661MOL0     H89193   4.382  -0.686  10.362 -0.3092 -0.0041 -1.1898
  661MOL0     H89194   4.453  -0.696  10.194 -1.3398  2.3476 -1.0636
  661MOL0     H89195   4.638  -0.736  10.443 -0.3055 -0.2764 -0.8407
  661MOL0     H89196   4.791  -0.838  10.583 -0.4503 -1.1367  0.4589
  661MOL0     H89197   4.863  -1.173  10.945 -0.4859  0.8160 -3.0737
  661MOL0     H89198   5.046  -1.197  11.136 -0.9862  2.2182  1.1000
  661MOL0     H89199   5.196  -1.192  11.276  0.7277  0.6962  0.4883
  661MOL0     H89200   5.341  -1.241  11.187 -0.4958 -0.4104 -0.5363
  661MOL0     H89201   5.318  -1.004  11.388  1.8009  0.3279  1.2495
  661MOL0     H89202   5.387  -1.172  11.427 -1.0792  0.6526  1.8600
  661MOL0     H89203   5.561  -1.133  11.247  3.1608  0.6498  2.0060
  661MOL0     H89204   5.502  -0.961  11.227 -0.5600 -1.1085 -1.1970
  661MOL0     H89205   5.592  -1.075  11.493 -0.3517 -0.9710 -0.7789
  661MOL0     H89206   5.587  -0.905  11.444  0.7981  0.1844 -0.2955
  661MOL0     H89207   5.789  -1.102  11.329  0.6084  0.8173 -1.4233
  661MOL0     H89208   5.815  -0.983  11.458 -2.8827 -0.2557  1.2123
  661MOL0     H89209   5.718  -0.916  11.183 -2.2994 -1.6107  2.5520
  661MOL0     H89210   5.738  -0.791  11.307 -1.8301 -1.7328  1.0793
  661MOL0     H89211   5.970  -0.983  11.208  2.4037  0.1845 -0.2417
  661MOL0     H89212   5.991  -0.828  11.291  1.4655 -3.7156  1.9576
  661MOL0     H89213   5.886  -0.904  11.018  0.2226 -0.2676  0.2624
  661MOL0     H89214   5.892  -0.731  11.079  0.2348  1.2753  2.8665
  661MOL0     H89215   5.287  -0.911  10.914  0.9312 -1.2495 -0.3974
  661MOL0     H89216   5.104  -0.870  10.761 -2.9543  0.5940 -1.1072
  661MOL0     H89217   4.605  -1.213  10.546 -1.2993 -0.3248  0.4172
  661MOL0     H89218   4.442  -1.112  10.371  0.3672 -1.9030  1.7365
  661MOL0     H89219   3.929  -0.376   8.889 -0.4254  0.7934  0.2482
  661MOL0     H89220   3.790  -0.202   8.859  0.3355  0.4509 -1.4615
  661MOL0     H89221   3.817   0.226   8.608 -0.2807 -3.3533  1.5417
  661MOL0     H89222   3.680   0.405   8.513 -1.3231  1.8915  1.1185
  661MOL0     H89223   3.477   0.725   8.771 -1.0750  1.2594  0.2539
  661MOL0     H89224   3.362   0.593   8.751  0.2637  0.0829  1.2846
  661MOL0     H89225   3.351   0.644   8.504  1.4132 -0.9796  2.5986
  661MOL0     H89226   3.428   0.793   8.536  0.0547  1.6152  1.8388
  661MOL0     H89227   3.215   0.880   8.548  1.1918  0.1000 -0.8011
  661MOL0     H89228   3.245   0.830   8.719 -1.2987  1.5426 -1.2870
  661MOL0     H89229   3.137   0.610   8.656  1.6008 -0.3138  3.1032
  661MOL0     H89230   3.021   0.748   8.673  2.4868 -0.7728  1.9561
  661MOL0     H89231   3.043   0.622   8.257  1.3399  1.1697 -0.3840
  661MOL0     H89232   3.520   0.504   8.909 -0.9450 -2.1115  1.1706
  661MOL0     H89233   3.688   0.379   9.102 -3.3199  0.0030  1.9010
  661MOL0     H89234   3.540   0.309   9.041  0.3519  0.3114 -1.6722
  661MOL0     H89235   3.675   0.208   9.071  0.8006  0.8300  5.2066
  662MOL0     O89236   6.802   6.929   6.017  1.0648  0.1869  0.2892
  662MOL0     C89237   6.768   7.004   6.111  0.8298  0.2980 -0.5245
  662MOL0     O89238   6.845   7.090   6.171 -0.1214  0.4040 -0.3735
  662MOL0     C89239   6.979   7.061   6.160 -0.4528  0.0611 -0.1888
  662MOL0     C89240   7.054   7.126   6.057 -0.0639 -0.6601 -0.4726
  662MOL0     C89241   7.181   7.087   6.023 -0.1156 -0.7923  0.5818
  662MOL0     C89242   7.232   6.977   6.089  0.5115  0.3918  0.1680
  662MOL0     O89243   7.348   6.909   6.053 -0.3047  0.3708 -0.4371
  662MOL0     C89244   7.435   6.954   5.950 -0.1852 -0.4512 -0.4309
  662MOL0     C89245   7.549   6.865   5.897 -0.3337 -0.6337 -0.4405
  662MOL0     C89246   7.674   6.886   5.989 -1.5126  0.7833 -0.2367
  662MOL0     C89247   7.803   6.859   5.907  0.2224 -0.3647 -0.0946
  662MOL0     C89248   7.930   6.914   5.958  0.9329  0.6333  0.3053
  662MOL0     C89249   8.031   6.962   5.846  1.5410 -0.1975 -0.8750
  662MOL0     C89250   8.150   7.006   5.920 -0.6065 -0.3378  0.0368
  662MOL0     C89251   8.255   7.076   5.825  0.1667  0.4105  0.1998
  662MOL0     N89252   8.188   7.185   5.754  0.3126 -0.0622 -0.2856
  662MOL0     C89253   8.146   7.297   5.825 -0.6679 -0.0092  0.3242
  662MOL0     C89254   8.093   7.372   5.729  0.4311  0.3439 -0.0361
  662MOL0     C89255   8.031   7.504   5.748 -0.4894 -0.5585  0.6577
  662MOL0     C89256   7.898   7.489   5.844 -0.9677  0.1806  0.0098
  662MOL0     C89257   7.852   7.637   5.882  0.0931  0.4941 -0.2715
  662MOL0     C89258   7.852   7.738   5.763 -0.0580 -0.5836  0.9969
  662MOL0     O89259   7.778   7.681   5.653  0.7662 -0.9921 -0.1857
  662MOL0     C89260   7.640   7.691   5.660 -0.5899  1.1289 -0.2021
  662MOL0     C89261   7.560   7.758   5.750  0.8343 -0.8412  0.0833
  662MOL0     C89262   7.421   7.741   5.762 -0.3520  0.2080  0.1925
  662MOL0     C89263   7.364   7.653   5.673 -0.2285  0.0837 -0.5406
  662MOL0     C89264   7.218   7.632   5.683 -0.0828  0.3882 -0.3816
  662MOL0     O89265   7.148   7.746   5.720  0.3951  0.3747 -0.7671
  662MOL0     C89266   7.018   7.747   5.714  0.9412  0.3881  0.0336
  662MOL0     C89267   6.954   7.699   5.829 -0.5184  0.7724  0.3102
  662MOL0     C89268   6.812   7.690   5.828 -0.6397 -0.1715  0.2148
  662MOL0     C89269   6.746   7.714   5.704  0.5304  0.3364  0.4303
  662MOL0     O89270   6.610   7.682   5.680 -0.2275 -0.7770  0.0575
  662MOL0     C89271   6.527   7.696   5.795 -0.0771  0.2997 -0.6938
  662MOL0     C89272   6.388   7.682   5.742 -0.6011  0.1449  1.3858
  662MOL0     C89273   6.301   7.661   5.859  0.3811  0.7661  0.3402
  662MOL0     C89274   6.189   7.573   5.820 -0.9255  0.2495  0.2641
  662MOL0     C89275   6.113   7.647   5.714 -0.6949  0.2001 -0.2205
  662MOL0     C89276   6.004   7.561   5.657 -0.8279 -0.6694  0.2421
  662MOL0     C89277   5.954   7.611   5.527 -0.1423  0.9245  0.1861
  662MOL0     C89278   5.822   7.547   5.487 -0.5548 -0.0434  0.1426
  662MOL0    Cl89279   5.849   7.377   5.454 -0.0656  0.0127  0.1266
  662MOL0     C89280   6.817   7.752   5.584  0.3129 -1.1301 -0.4923
  662MOL0     C89281   6.959   7.774   5.590 -0.4346 -0.0923 -0.7243
  662MOL0     O89282   7.176   7.516   5.673  0.4102  0.4632  0.8244
  662MOL0     C89283   7.441   7.572   5.587  0.0958 -0.8043 -0.6679
  662MOL0     C89284   7.578   7.592   5.580 -0.5008  0.0007  0.0635
  662MOL0     N89285   8.098   7.310   5.609  0.1398 -0.6003  0.2108
  662MOL0     N89286   8.166   7.203   5.621  0.4234  0.3281 -0.5139
  662MOL0     C89287   7.166   6.929   6.202 -0.1088  0.5530 -0.5645
  662MOL0     C89288   7.047   6.972   6.240  0.6141  0.0276  0.1852
  662MOL0     C89289   6.632   6.990   6.166 -0.0781  0.2007 -0.3255
  662MOL0     C89290   6.587   7.085   6.265 -0.9443 -0.1547  0.3529
  662MOL0     C89291   6.463   7.085   6.329 -0.1983  0.5361 -0.2523
  662MOL0     C89292   6.375   6.981   6.295  0.0347 -0.3989  0.8615
  662MOL0     O89293   6.259   6.938   6.365 -0.0101  0.0286  0.5131
  662MOL0     C89294   6.213   7.023   6.476 -0.2628 -0.2502 -0.2660
  662MOL0     C89295   6.143   6.938   6.578  0.6979 -0.3274  0.1316
  662MOL0     C89296   6.081   7.025   6.696 -0.1618  0.4307 -0.6224
  662MOL0     C89297   6.009   6.944   6.801 -0.1014  0.5081  0.1109
  662MOL0     C89298   6.098   6.856   6.887  1.3275 -0.0986  0.0124
  662MOL0     C89299   6.156   6.785   6.964 -0.6734  0.0899  0.8426
  662MOL0     C89300   6.405   6.898   6.184 -0.4101 -0.3712  0.3499
  662MOL0     C89301   6.531   6.897   6.122  0.3861 -0.2767 -0.2168
  662MOL0     C89302   6.554   6.803   6.017 -0.1170  0.5185  0.3325
  662MOL0     H89303   7.010   7.199   5.990 -0.0580  0.8057  1.0528
  662MOL0     H89304   7.233   7.142   5.945 -0.2215  1.0486  1.7393
  662MOL0     H89305   7.366   6.973   5.868 -2.6722 -0.9839  1.4205
  662MOL0     H89306   7.478   7.049   5.983 -2.0368  0.7722 -1.3387
  662MOL0     H89307   7.569   6.909   5.799 -0.2284 -1.5782 -0.8600
  662MOL0     H89308   7.519   6.761   5.877  0.0631 -0.4448 -2.1799
  662MOL0     H89309   7.670   6.815   6.072  0.7569  1.6525  0.6893
  662MOL0     H89310   7.688   6.987   6.027 -0.3245  0.5485 -0.0095
  662MOL0     H89311   7.811   6.750   5.910 -0.3976 -0.5634 -3.1671
  662MOL0     H89312   7.782   6.876   5.801 -0.2149 -1.4075 -0.1820
  662MOL0     H89313   7.901   6.999   6.020 -2.6733 -0.3177  0.1158
  662MOL0     H89314   7.977   6.842   6.027  1.5973  2.3182  1.6854
  662MOL0     H89315   8.062   6.880   5.782  4.3574  1.4050 -1.7497
  662MOL0     H89316   7.988   7.052   5.799  2.1947  0.7468  0.2772
  662MOL0     H89317   8.209   6.919   5.949  1.9977  1.2391 -0.1971
  662MOL0     H89318   8.117   7.057   6.011 -2.3560 -0.8832 -0.2501
  662MOL0     H89319   8.332   7.129   5.881 -0.2274  2.2394 -0.9251
  662MOL0     H89320   8.294   6.992   5.767  2.4904  0.1928  1.9227
  662MOL0     H89321   8.166   7.315   5.930 -1.4652 -0.9794  0.6498
  662MOL0     H89322   8.102   7.567   5.801 -0.2196  0.8505 -1.2554
  662MOL0     H89323   7.996   7.548   5.654  0.9691  0.7105  0.6764
  662MOL0     H89324   7.808   7.448   5.799 -1.3468  1.3083 -0.3091
  662MOL0     H89325   7.923   7.439   5.938  2.5881  1.0477 -0.3377
  662MOL0     H89326   7.930   7.677   5.947  1.0715 -0.7649 -0.6330
  662MOL0     H89327   7.754   7.643   5.930 -1.5035  1.3659 -3.3627
  662MOL0     H89328   7.953   7.740   5.721  0.6486  2.8948  2.5515
  662MOL0     H89329   7.827   7.842   5.786 -3.2000 -0.3875 -2.3096
  662MOL0     H89330   7.620   7.815   5.821  1.2347 -1.0206 -0.1090
  662MOL0     H89331   7.348   7.799   5.817 -2.6058  0.0284 -2.3947
  662MOL0     H89332   7.006   7.675   5.921 -0.7320 -1.2704 -0.0374
  662MOL0     H89333   6.748   7.648   5.905  0.7305  0.5935  1.8676
  662MOL0     H89334   6.547   7.606   5.853  0.9445  1.0938  0.2215
  662MOL0     H89335   6.536   7.788   5.853  0.8754 -1.1163  1.5680
  662MOL0     H89336   6.363   7.774   5.687  0.4431  0.8590  2.0640
  662MOL0     H89337   6.391   7.600   5.671 -0.7622  2.3292 -1.3168
  662MOL0     H89338   6.361   7.615   5.938  0.1120 -0.7361 -0.2816
  662MOL0     H89339   6.253   7.752   5.897 -3.4371 -1.7808  2.3904
  662MOL0     H89340   6.128   7.531   5.900 -1.9231 -0.3835 -0.8043
  662MOL0     H89341   6.225   7.484   5.767 -1.7546 -0.3710  0.7151
  662MOL0     H89342   6.168   7.659   5.621 -2.7599 -0.9641 -1.6547
  662MOL0     H89343   6.079   7.746   5.747  0.6458  0.1629  1.4335
  662MOL0     H89344   6.053   7.469   5.624  0.9214  0.6054 -0.9071
  662MOL0     H89345   5.924   7.555   5.731 -0.4236  0.5340  0.8115
  662MOL0     H89346   6.037   7.598   5.457  2.5620 -0.9544  3.4604
  662MOL0     H89347   5.938   7.719   5.524  1.0330  1.1471 -3.5652
  662MOL0     H89348   5.755   7.569   5.572  0.2663  1.7235  0.3881
  662MOL0     H89349   5.771   7.588   5.399  0.3437  0.2546 -0.2471
  662MOL0     H89350   6.765   7.752   5.489  2.9502  1.8093 -2.1442
  662MOL0     H89351   7.023   7.791   5.504  1.4684 -0.3492  0.5597
  662MOL0     H89352   7.411   7.476   5.546  2.6904 -2.9828  2.0976
  662MOL0     H89353   7.638   7.532   5.512  2.0976 -2.0192  3.7722
  662MOL0     H89354   7.204   6.843   6.257 -1.7995 -0.2300 -0.5544
  662MOL0     H89355   6.978   6.931   6.313  0.6805 -1.6867 -0.6690
  662MOL0     H89356   6.658   7.152   6.312  0.5528 -2.6013  1.7722
  662MOL0     H89357   6.426   7.161   6.396 -1.9442  1.4576 -2.1564
  662MOL0     H89358   6.156   7.106   6.435 -0.8042  0.5507  1.9460
  662MOL0     H89359   6.296   7.070   6.528 -1.2800  1.2056  0.1020
  662MOL0     H89360   6.207   6.860   6.621 -0.8516 -2.2101 -0.8442
  662MOL0     H89361   6.064   6.876   6.534  1.3270 -1.3595  0.4032
  662MOL0     H89362   6.009   7.100   6.661  1.0801  1.3994 -1.1873
  662MOL0     H89363   6.160   7.070   6.758 -1.0947 -1.1612  1.8848
  662MOL0     H89364   5.955   7.011   6.868 -0.2525  0.7841 -0.2765
  662MOL0     H89365   5.932   6.879   6.760 -0.6389  1.1058  0.1487
  662MOL0     H89366   6.219   6.726   7.026  1.0789  2.0992  1.1047
  662MOL0     H89367   6.334   6.820   6.158  3.0505 -2.1988 -5.7069
  662MOL0     H89368   6.646   6.746   6.031 -0.0735 -0.6796 -3.6992
  662MOL0     H89369   6.473   6.729   6.012 -0.2524  0.4653  2.3274
  662MOL0     H89370   6.554   6.859   5.923 -0.0310  1.5251  0.9127
  663MOL0     O89371   4.557   7.746   6.768 -0.0790  0.1171 -0.1770
  663MOL0     C89372   4.436   7.732   6.794 -0.2941  0.3153 -0.0890
  663MOL0     O89373   4.344   7.836   6.813 -0.0812  0.6914  0.5028
  663MOL0     C89374   4.371   7.961   6.774 -0.2819  0.2486  0.7617
  663MOL0     C89375   4.331   8.071   6.853 -0.1793  0.8319 -0.1099
  663MOL0     C89376   4.351   8.201   6.811  0.0880 -1.0680 -1.0703
  663MOL0     C89377   4.408   8.232   6.686  0.3481 -0.5525 -0.0541
  663MOL0     O89378   4.421   8.361   6.628 -0.1846 -0.4316  0.0544
  663MOL0     C89379   4.453   8.459   6.723 -0.3082 -0.6926  0.2046
  663MOL0     C89380   4.531   8.575   6.655  0.7155  0.2016  0.6812
  663MOL0     C89381   4.582   8.692   6.734  0.4573 -0.4493 -0.8400
  663MOL0     C89382   4.478   8.796   6.792 -0.1152  0.4486  0.2457
  663MOL0     C89383   4.531   8.878   6.919 -0.0951 -0.0786 -0.2514
  663MOL0     C89384   4.679   8.916   6.893  0.6957 -0.2163 -0.7667
  663MOL0     C89385   4.744   9.003   6.999 -0.8452 -0.4143  1.3025
  663MOL0     C89386   4.770   8.931   7.128 -0.3644 -0.1029 -0.8103
  663MOL0     N89387   4.841   9.007   7.231 -0.0863 -0.0129  0.5244
  663MOL0     C89388   4.965   8.988   7.262  0.2667 -0.1939 -0.4896
  663MOL0     C89389   4.992   9.074   7.356 -0.1478 -0.6198 -0.2279
  663MOL0     C89390   5.119   9.093   7.427  0.0989  0.5365  0.8074
  663MOL0     C89391   5.184   9.231   7.422 -0.9980 -0.0005 -0.1578
  663MOL0     C89392   5.223   9.269   7.274 -0.4657 -0.5831  0.7133
  663MOL0     C89393   5.306   9.402   7.291 -0.7668 -1.5063  0.2781
  663MOL0     O89394   5.220   9.529   7.311 -0.3840  0.5283  0.1531
  663MOL0     C89395   5.276   9.636   7.374 -0.1105  0.3053  0.5025
  663MOL0     C89396   5.188   9.728   7.429 -0.9089 -0.6412 -0.6131
  663MOL0     C89397   5.241   9.845   7.493 -0.9840 -0.3319  0.8543
  663MOL0     C89398   5.386   9.852   7.508  0.7775  0.0305  0.5236
  663MOL0     C89399   5.436   9.963   7.588 -1.1232  0.6254  0.6626
  663MOL0     O89400   5.357  10.041   7.648  0.5941  0.0303 -0.1006
  663MOL0     C89401   5.418  10.150   7.707 -0.1451 -0.5464 -0.5157
  663MOL0     C89402   5.500  10.139   7.819 -0.5076  0.4542 -0.2561
  663MOL0     C89403   5.537  10.244   7.902 -0.1114 -0.8635 -0.6408
  663MOL0     C89404   5.478  10.373   7.861  0.2788 -0.1364 -0.2243
  663MOL0     O89405   5.491  10.485   7.938  0.3850 -0.3999  0.4448
  663MOL0     C89406   5.605  10.500   8.024  0.1359 -0.2838  0.4021
  663MOL0     C89407   5.638  10.642   8.052  0.3814  1.2643  0.4642
  663MOL0     C89408   5.747  10.651   8.153 -0.6221 -0.7284  0.1270
  663MOL0     C89409   5.814  10.792   8.158  0.0674 -1.3201  0.3812
  663MOL0     C89410   5.830  10.852   8.302  0.1258 -0.8031 -0.5369
  663MOL0     C89411   5.921  10.980   8.312 -0.3748 -0.3270  0.2704
  663MOL0     C89412   5.949  11.008   8.461 -0.5040  0.3982  0.0986
  663MOL0     C89413   6.037  11.126   8.471  0.4606 -0.0252 -0.3161
  663MOL0    Cl89414   6.214  11.065   8.453  0.0043  0.4348 -0.0351
  663MOL0     C89415   5.402  10.386   7.747 -0.5861  0.7012  0.7155
  663MOL0     C89416   5.367  10.269   7.675  1.2165 -1.1457  0.3633
  663MOL0     O89417   5.559   9.978   7.584  0.1362  0.4707  0.2640
  663MOL0     C89418   5.470   9.762   7.449  0.5669  0.1243  0.4028
  663MOL0     C89419   5.413   9.658   7.368  0.2320  0.6798  0.7769
  663MOL0     N89420   4.886   9.157   7.375  0.3384 -0.3456  0.5235
  663MOL0     N89421   4.794   9.115   7.294 -0.3081  0.2503  0.2770
  663MOL0     C89422   4.441   8.127   6.603 -0.6449  0.6041 -0.3367
  663MOL0     C89423   4.427   7.996   6.646  0.6301  0.2875 -0.9165
  663MOL0     C89424   4.376   7.592   6.820 -0.3248 -0.4689 -0.1576
  663MOL0     C89425   4.242   7.577   6.784  0.2434 -0.7665 -0.5805
  663MOL0     C89426   4.171   7.465   6.818 -0.2057 -0.5919 -0.7625
  663MOL0     C89427   4.237   7.357   6.879 -0.0786 -0.1834 -0.3246
  663MOL0     O89428   4.163   7.252   6.913  0.6039  0.8822 -0.2098
  663MOL0     C89429   4.173   7.147   6.809  0.3105  0.5985  0.3730
  663MOL0     C89430   4.033   7.130   6.744 -1.2778 -0.3580  0.3731
  663MOL0     C89431   3.917   7.103   6.849 -0.2782 -0.7891 -0.0237
  663MOL0     C89432   3.841   6.975   6.839  0.3220  0.0422 -0.2327
  663MOL0     C89433   3.817   6.905   6.975  0.4975 -0.8411 -0.4966
  663MOL0     C89434   3.794   6.850   7.083 -0.0985 -0.3765  0.1245
  663MOL0     C89435   4.370   7.365   6.907  0.0822  0.0575 -0.4871
  663MOL0     C89436   4.446   7.480   6.871  1.2784  1.1117  0.1886
  663MOL0     C89437   4.588   7.488   6.909 -0.3325 -0.6545  0.6232
  663MOL0     H89438   4.271   8.044   6.939 -1.3622  1.0594 -0.8391
  663MOL0     H89439   4.329   8.281   6.882  0.6502  0.2837 -2.3629
  663MOL0     H89440   4.358   8.493   6.767 -0.0904  4.1065 -2.3333
  663MOL0     H89441   4.510   8.412   6.803  0.6793  1.8819  1.1118
  663MOL0     H89442   4.477   8.605   6.565  1.0062  1.7477  0.9890
  663MOL0     H89443   4.627   8.543   6.614  0.6473 -0.8384  1.2867
  663MOL0     H89444   4.655   8.755   6.683  2.1223  0.0764  1.9669
  663MOL0     H89445   4.634   8.651   6.822  3.0159 -1.5789 -2.7569
  663MOL0     H89446   4.444   8.860   6.709  0.3158 -2.0628 -1.9867
  663MOL0     H89447   4.387   8.739   6.812  0.0246  0.6355  1.5454
  663MOL0     H89448   4.473   8.970   6.930 -1.8635 -1.0273 -1.2618
  663MOL0     H89449   4.521   8.819   7.011  0.9216  2.1700  1.3831
  663MOL0     H89450   4.752   8.841   6.863  2.8170  1.1453  0.6478
  663MOL0     H89451   4.681   8.978   6.803 -1.3860 -0.5964 -1.1169
  663MOL0     H89452   4.685   9.094   7.015  2.4610  2.1224  0.0718
  663MOL0     H89453   4.832   9.039   6.946 -0.5724  0.5715  2.3971
  663MOL0     H89454   4.675   8.908   7.177 -1.0421  2.0757 -1.0228
  663MOL0     H89455   4.815   8.832   7.116  1.9495  1.0993 -2.9150
  663MOL0     H89456   5.033   8.914   7.220 -0.9603 -0.7709 -1.5351
  663MOL0     H89457   5.099   9.069   7.532 -5.1219 -0.8587 -0.2433
  663MOL0     H89458   5.193   9.023   7.387  0.2782  1.0707  0.1896
  663MOL0     H89459   5.111   9.302   7.461 -1.2394 -0.3759  0.0815
  663MOL0     H89460   5.277   9.220   7.479  0.7888 -2.6121 -3.1514
  663MOL0     H89461   5.145   9.288   7.199 -0.3010  2.2762  1.1652
  663MOL0     H89462   5.291   9.192   7.236 -3.2414 -1.8784 -2.0272
  663MOL0     H89463   5.369   9.431   7.206  0.8605  1.6409  2.3372
  663MOL0     H89464   5.379   9.406   7.372  1.5289  2.2211 -1.6473
  663MOL0     H89465   5.080   9.729   7.440 -0.7721  3.1346  2.1996
  663MOL0     H89466   5.166   9.918   7.521 -2.8392 -0.7741 -2.4620
  663MOL0     H89467   5.534  10.038   7.836 -0.6374  0.6435  1.2366
  663MOL0     H89468   5.592  10.240   7.996  1.2842 -0.6311 -1.4114
  663MOL0     H89469   5.585  10.447   8.117  2.0579 -3.2379 -0.7472
  663MOL0     H89470   5.696  10.463   7.976  0.1267 -1.3394  1.1894
  663MOL0     H89471   5.672  10.671   7.952 -4.8154 -2.3775 -2.8648
  663MOL0     H89472   5.540  10.684   8.076 -1.2804 -1.4419 -1.0142
  663MOL0     H89473   5.699  10.637   8.251  2.3395 -0.4559  1.7416
  663MOL0     H89474   5.822  10.575   8.130  1.1363  0.9343  0.0904
  663MOL0     H89475   5.748  10.866   8.111 -1.2177 -0.4946  3.2223
  663MOL0     H89476   5.907  10.793   8.102 -0.4026  2.9772 -0.6297
  663MOL0     H89477   5.881  10.774   8.359  0.6220 -1.0846 -1.3651
  663MOL0     H89478   5.735  10.871   8.354  1.8311 -0.8536  2.9215
  663MOL0     H89479   6.012  10.956   8.258  0.6403 -3.2808  2.9814
  663MOL0     H89480   5.865  11.063   8.267 -0.5212 -1.1626 -1.1169
  663MOL0     H89481   5.991  10.916   8.502 -1.5802 -2.7454 -4.8991
  663MOL0     H89482   5.857  11.027   8.518 -2.1236  0.3594 -2.3338
  663MOL0     H89483   6.005  11.197   8.395 -0.1615 -0.9265 -0.9225
  663MOL0     H89484   6.015  11.175   8.567  0.6529 -1.7842  0.6848
  663MOL0     H89485   5.352  10.475   7.711 -0.2188  0.0126 -1.6810
  663MOL0     H89486   5.314  10.275   7.580  1.1137 -2.3182  0.3280
  663MOL0     H89487   5.576   9.767   7.473  1.6909 -0.9981 -3.4670
  663MOL0     H89488   5.479   9.591   7.313  0.0524 -1.0559  2.5449
  663MOL0     H89489   4.479   8.155   6.505 -0.7984  1.4919 -0.1507
  663MOL0     H89490   4.464   7.920   6.578 -1.6592 -0.3956 -1.4751
  663MOL0     H89491   4.191   7.659   6.734  0.6301 -0.4902 -0.5291
  663MOL0     H89492   4.065   7.461   6.795  0.0367  1.0867 -2.3585
  663MOL0     H89493   4.211   7.056   6.856 -0.5215  0.1755  0.2357
  663MOL0     H89494   4.247   7.169   6.731 -0.0702  0.7703  0.0548
  663MOL0     H89495   4.046   7.038   6.687  0.5287  0.1344 -0.0954
  663MOL0     H89496   4.020   7.215   6.677  0.7232  0.0039  0.3883
  663MOL0     H89497   3.840   7.175   6.820  0.8734 -0.0265 -1.2970
  663MOL0     H89498   3.945   7.131   6.951  1.3464 -2.2359 -0.0281
  663MOL0     H89499   3.746   7.003   6.792 -0.4432 -0.1295  1.1670
  663MOL0     H89500   3.898   6.902   6.781 -2.3756 -2.4682  0.0515
  663MOL0     H89501   3.781   6.791   7.172 -0.7993  3.3726  2.7633
  663MOL0     H89502   4.411   7.275   6.951 -4.5743 -1.3807  1.5640
  663MOL0     H89503   4.653   7.526   6.829  0.2321 -4.2332 -0.7926
  663MOL0     H89504   4.600   7.548   7.000  2.2180 -1.4322  0.8809
  663MOL0     H89505   4.620   7.385   6.924  3.5198  0.5191  1.4133
  664MOL0     O89506   5.840   9.809   7.234  0.0774  0.2796 -0.0198
  664MOL0     C89507   5.917   9.724   7.199 -1.0759 -0.5905 -0.9057
  664MOL0     O89508   6.044   9.745   7.130  0.1804  0.8914 -0.2794
  664MOL0     C89509   6.090   9.876   7.105  1.8983  0.7849  0.7046
  664MOL0     C89510   6.159   9.885   6.985 -0.0036 -0.3067  0.2971
  664MOL0     C89511   6.206  10.010   6.935  0.5517  0.1212  0.4526
  664MOL0     C89512   6.173  10.122   7.013 -0.3736 -0.4211  0.1903
  664MOL0     O89513   6.207  10.246   6.968  0.4075  0.4236 -0.3833
  664MOL0     C89514   6.088  10.320   6.937 -0.3014  0.7531  0.5108
  664MOL0     C89515   6.026  10.266   6.803  0.4864 -0.4071  0.3433
  664MOL0     C89516   5.942  10.376   6.747  0.4246  0.1448  0.2447
  664MOL0     C89517   5.890  10.346   6.600 -0.4026  0.3611 -0.5990
  664MOL0     C89518   5.790  10.452   6.550  0.9170 -0.6288 -0.6157
  664MOL0     C89519   5.857  10.586   6.526 -0.0057 -0.3939 -0.2189
  664MOL0     C89520   5.759  10.683   6.454  0.6351  0.1739  0.1725
  664MOL0     C89521   5.636  10.725   6.529 -0.4556  0.4086 -0.2218
  664MOL0     N89522   5.535  10.813   6.470 -0.0058 -0.1145 -0.0712
  664MOL0     C89523   5.462  10.777   6.352  0.4417 -0.6360 -0.0051
  664MOL0     C89524   5.351  10.848   6.348  0.5891 -0.3636  0.6854
  664MOL0     C89525   5.238  10.845   6.251 -1.2573  0.2072 -0.3121
  664MOL0     C89526   5.281  10.883   6.100 -0.2504 -0.0786  0.1773
  664MOL0     C89527   5.333  11.029   6.078 -0.3148  1.0553 -0.5372
  664MOL0     C89528   5.324  11.086   5.933 -0.0388  0.6297 -0.4577
  664MOL0     O89529   5.358  10.999   5.825 -0.4308 -0.3552 -0.3226
  664MOL0     C89530   5.492  11.004   5.785 -0.2548 -0.2887  0.0230
  664MOL0     C89531   5.600  10.939   5.864 -0.6353 -0.0174  0.3742
  664MOL0     C89532   5.737  10.945   5.824 -0.4126  0.4568  0.5033
  664MOL0     C89533   5.771  10.997   5.701  0.8482  0.2737 -0.8625
  664MOL0     C89534   5.904  10.989   5.648 -0.7144 -0.1151  1.2239
  664MOL0     O89535   6.009  10.998   5.734  0.7251  0.3750 -0.9641
  664MOL0     C89536   6.142  10.989   5.713 -0.3015 -0.2806  0.6164
  664MOL0     C89537   6.205  10.913   5.610 -0.3581  0.2794 -0.3156
  664MOL0     C89538   6.346  10.901   5.603  0.8375 -0.4588  0.3402
  664MOL0     C89539   6.420  10.953   5.708 -1.0983 -0.4244  0.7224
  664MOL0     O89540   6.553  10.957   5.698  0.0527 -0.0241 -0.6013
  664MOL0     C89541   6.627  11.075   5.722 -0.3223  0.0195 -0.1180
  664MOL0     C89542   6.773  11.046   5.699  0.5563  0.1470  0.3759
  664MOL0     C89543   6.879  11.146   5.753 -0.0050 -0.6430 -0.5859
  664MOL0     C89544   7.011  11.076   5.721  0.2563 -1.0647 -0.1565
  664MOL0     C89545   7.135  11.165   5.740  0.8529  0.1541 -0.0513
  664MOL0     C89546   7.145  11.282   5.632 -0.8131 -0.8852 -0.3828
  664MOL0     C89547   7.098  11.412   5.704 -0.9733  0.1910  0.3697
  664MOL0     C89548   7.060  11.525   5.606 -0.4345  0.0948 -0.0517
  664MOL0    Cl89549   7.187  11.537   5.479 -0.4735 -0.2406 -0.2465
  664MOL0     C89550   6.356  11.016   5.812 -0.9620  0.4212  0.6767
  664MOL0     C89551   6.221  11.024   5.823  0.5209 -0.2784  0.9164
  664MOL0     O89552   5.926  10.984   5.525  0.2357 -1.2980 -0.5160
  664MOL0     C89553   5.666  11.068   5.625 -0.6107  1.1473  0.3372
  664MOL0     C89554   5.532  11.057   5.664 -1.1035  0.3943 -0.5254
  664MOL0     N89555   5.363  10.931   6.456 -0.8546 -0.4819 -0.4641
  664MOL0     N89556   5.466  10.916   6.536  0.7508  0.6132  0.0835
  664MOL0     C89557   6.108  10.119   7.140 -0.4163  1.0760  0.0779
  664MOL0     C89558   6.061   9.989   7.181 -0.8320 -0.5088  0.0702
  664MOL0     C89559   5.869   9.587   7.206 -0.7872  0.6421  0.1162
  664MOL0     C89560   5.812   9.534   7.330  0.2751 -0.4073  0.2868
  664MOL0     C89561   5.755   9.412   7.331  0.8736 -0.3066 -0.8830
  664MOL0     C89562   5.735   9.332   7.213 -0.1422 -0.3733 -0.9985
  664MOL0     O89563   5.653   9.227   7.234 -0.0484  0.3546  0.1840
  664MOL0     C89564   5.637   9.133   7.128 -0.1732  0.4658  0.6248
  664MOL0     C89565   5.769   9.056   7.096 -0.9957 -0.5936 -0.4922
  664MOL0     C89566   5.815   8.972   7.208  0.6848 -0.2999  0.8156
  664MOL0     C89567   5.951   8.899   7.177  0.0237 -0.2204 -0.1835
  664MOL0     C89568   5.985   8.833   7.299  0.7775  0.5359 -0.5971
  664MOL0     C89569   6.021   8.765   7.397  0.3892  0.9204 -0.2528
  664MOL0     C89570   5.793   9.385   7.096 -0.2934 -0.9969  0.2062
  664MOL0     C89571   5.857   9.503   7.090 -0.1874  0.2627  0.6381
  664MOL0     C89572   5.913   9.554   6.955  0.2187 -0.1145 -0.1433
  664MOL0     H89573   6.185   9.797   6.927 -2.0066  0.0662 -1.2897
  664MOL0     H89574   6.256  10.018   6.839 -0.2930 -3.3089 -0.4078
  664MOL0     H89575   6.019  10.341   7.019 -2.3445 -0.2086 -0.8533
  664MOL0     H89576   6.123  10.420   6.912 -0.0912  0.5382 -0.0822
  664MOL0     H89577   5.966  10.179   6.829 -0.5810 -0.5798 -2.4190
  664MOL0     H89578   6.103  10.236   6.731  0.0268 -0.1125 -0.2699
  664MOL0     H89579   5.994  10.473   6.748 -3.3832  2.4078  0.0134
  664MOL0     H89580   5.845  10.378   6.797 -0.3845  0.6833 -1.2564
  664MOL0     H89581   5.979  10.341   6.537  1.3463 -1.0173  1.7834
  664MOL0     H89582   5.844  10.247   6.592  1.3686 -0.7639  1.8460
  664MOL0     H89583   5.749  10.418   6.454  1.4789 -0.9593 -0.7459
  664MOL0     H89584   5.707  10.470   6.618  0.6010  0.1067 -1.1742
  664MOL0     H89585   5.881  10.635   6.621  0.8248 -3.7785  1.4625
  664MOL0     H89586   5.950  10.583   6.469 -0.9009  1.3434 -1.9121
  664MOL0     H89587   5.737  10.635   6.359 -2.3144  3.1855 -0.8499
  664MOL0     H89588   5.798  10.782   6.428 -0.9792  0.6792 -0.3981
  664MOL0     H89589   5.579  10.636   6.556 -0.6580  0.5680 -0.1140
  664MOL0     H89590   5.673  10.773   6.620 -0.5540  0.0331  0.0172
  664MOL0     H89591   5.487  10.701   6.278 -2.7663  0.0485 -1.9977
  664MOL0     H89592   5.208  10.739   6.251 -1.7836  0.3015  2.0944
  664MOL0     H89593   5.147  10.900   6.278 -1.0304  0.2003  0.4674
  664MOL0     H89594   5.350  10.807   6.061  0.3426 -0.6840  2.2353
  664MOL0     H89595   5.193  10.877   6.036  1.2636 -1.8699 -1.8973
  664MOL0     H89596   5.438  11.012   6.105 -0.1397  3.0016  0.1434
  664MOL0     H89597   5.288  11.106   6.141  1.5689  3.2539 -1.7283
  664MOL0     H89598   5.397  11.165   5.949  1.0695 -1.0300  4.0180
  664MOL0     H89599   5.218  11.113   5.922 -0.0815  1.3461  1.3511
  664MOL0     H89600   5.575  10.889   5.958  2.3433  0.3017  1.4543
  664MOL0     H89601   5.818  10.899   5.881  0.0187  2.3092  1.4415
  664MOL0     H89602   6.137  10.868   5.539  2.0083 -0.5594 -2.1715
  664MOL0     H89603   6.394  10.852   5.519 -0.9479 -0.5454 -0.6915
  664MOL0     H89604   6.595  11.155   5.655 -1.2347  0.0807  0.3715
  664MOL0     H89605   6.612  11.110   5.825  2.1465  1.6263 -0.2205
  664MOL0     H89606   6.795  10.944   5.734  2.6389  1.1031  2.0714
  664MOL0     H89607   6.773  11.025   5.591 -3.8427 -2.1806  0.6151
  664MOL0     H89608   6.860  11.241   5.701 -1.1987 -0.7035 -0.3004
  664MOL0     H89609   6.858  11.159   5.859 -1.0572 -0.1484 -0.8348
  664MOL0     H89610   7.004  11.050   5.615 -0.9515 -0.1152 -0.3387
  664MOL0     H89611   7.018  10.979   5.771 -1.7993 -2.9181 -3.1265
  664MOL0     H89612   7.232  11.115   5.753 -0.5747 -1.9292  4.9941
  664MOL0     H89613   7.112  11.202   5.840  1.5229  0.6571 -0.0764
  664MOL0     H89614   7.245  11.290   5.589  1.5929  2.1392  4.8560
  664MOL0     H89615   7.075  11.262   5.550  1.0480  0.5351 -2.4453
  664MOL0     H89616   7.172  11.451   5.774 -1.2984  0.2393  0.6868
  664MOL0     H89617   7.014  11.401   5.774 -1.0606 -0.1962  0.2065
  664MOL0     H89618   6.966  11.483   5.571 -0.0237 -2.1578  1.3627
  664MOL0     H89619   7.042  11.625   5.648  2.5684  1.0838 -0.8293
  664MOL0     H89620   6.397  11.072   5.896 -1.9317  2.0207  0.1070
  664MOL0     H89621   6.184  11.076   5.911  0.1524  2.1895 -0.6174
  664MOL0     H89622   5.683  11.114   5.528 -2.6912  0.1954 -0.5385
  664MOL0     H89623   5.463  11.106   5.596 -1.7650 -1.2012 -1.0653
  664MOL0     H89624   6.089  10.207   7.202 -1.1957  0.3123  0.9509
  664MOL0     H89625   6.013   9.977   7.277  2.1940 -0.3791  1.6891
  664MOL0     H89626   5.814   9.594   7.420 -0.0033  2.0868 -1.2597
  664MOL0     H89627   5.711   9.372   7.422  0.9486 -1.2677 -1.2615
  664MOL0     H89628   5.601   9.192   7.043  0.8666 -0.2937 -0.3494
  664MOL0     H89629   5.567   9.051   7.147  0.2343 -0.1645 -0.5404
  664MOL0     H89630   5.857   9.119   7.080 -1.7772  0.9486  0.9551
  664MOL0     H89631   5.744   8.985   7.017 -0.7872 -0.6398 -0.5167
  664MOL0     H89632   5.743   8.894   7.234 -0.7035  1.3254  2.1228
  664MOL0     H89633   5.829   9.041   7.291 -0.1644  0.6265  0.2070
  664MOL0     H89634   5.940   8.823   7.099  2.8128 -2.9350  1.8364
  664MOL0     H89635   6.034   8.962   7.144  1.6644 -2.5405 -0.7274
  664MOL0     H89636   6.035   8.710   7.488 -2.9456  0.3029  0.0261
  664MOL0     H89637   5.768   9.329   7.007 -3.2042  1.0349 -0.4122
  664MOL0     H89638   5.861   9.647   6.932 -3.9383 -2.1998 -0.1232
  664MOL0     H89639   6.021   9.562   6.966  0.0587  2.7705  0.1415
  664MOL0     H89640   5.886   9.478   6.881  3.4757 -2.7089  1.0847
  665MOL0     O89641   8.697   7.438   0.090  0.7882 -0.0246  0.3432
  665MOL0     C89642   8.666   7.335   0.148 -0.1437 -0.2838 -0.1371
  665MOL0     O89643   8.574   7.238   0.109  0.7613 -0.4078  0.5324
  665MOL0     C89644   8.492   7.277   0.003 -0.1907 -0.0807 -0.0600
  665MOL0     C89645   8.535   7.241  -0.131 -0.3232 -0.1757  0.4736
  665MOL0     C89646   8.459   7.280  -0.244 -0.8714  0.3429 -0.4650
  665MOL0     C89647   8.342   7.346  -0.236  0.8182  0.3349  0.0826
  665MOL0     O89648   8.259   7.373  -0.345 -0.8065  0.0425  0.0307
  665MOL0     C89649   8.214   7.252  -0.417 -0.3730 -0.5725 -0.0824
  665MOL0     C89650   8.082   7.212  -0.366  0.1179 -0.1361 -0.0629
  665MOL0     C89651   7.978   7.313  -0.415 -0.1297 -0.1022  0.2935
  665MOL0     C89652   7.841   7.276  -0.358 -0.8286  0.4957  0.5867
  665MOL0     C89653   7.793   7.133  -0.385 -0.5137  0.9435 -0.0666
  665MOL0     C89654   7.640   7.115  -0.393  0.3846  0.2842 -0.0436
  665MOL0     C89655   7.560   7.117  -0.262  0.7866 -0.0197 -0.1833
  665MOL0     C89656   7.565   6.995  -0.166  0.2907 -0.1510  0.1567
  665MOL0     N89657   7.455   6.996  -0.068 -0.7358 -1.3205  0.2445
  665MOL0     C89658   7.456   7.060   0.053 -0.1409  0.2840  0.4316
  665MOL0     C89659   7.338   7.035   0.108  0.0575  0.3149 -0.3256
  665MOL0     C89660   7.279   7.069   0.242 -0.1530 -0.8722  0.1789
  665MOL0     C89661   7.318   7.207   0.301  0.9208 -0.9131 -0.4061
  665MOL0     C89662   7.251   7.245   0.434 -0.6865 -0.1285  0.3490
  665MOL0     C89663   7.105   7.219   0.455 -0.0192 -0.1657 -0.4972
  665MOL0     O89664   7.078   7.074   0.463  1.0108 -1.0925 -0.7726
  665MOL0     C89665   6.950   7.031   0.477 -0.4716 -0.2779  0.0321
  665MOL0     C89666   6.934   6.894   0.496 -0.0108  0.4128 -0.4817
  665MOL0     C89667   6.823   6.832   0.538 -0.2473  0.1226  0.1596
  665MOL0     C89668   6.706   6.908   0.558 -0.4697 -0.5370  0.1106
  665MOL0     C89669   6.582   6.847   0.603  0.8675 -0.9445  0.7203
  665MOL0     O89670   6.589   6.713   0.627 -0.2678 -0.1796  0.5286
  665MOL0     C89671   6.482   6.644   0.681  0.5426 -1.2952 -0.1161
  665MOL0     C89672   6.511   6.529   0.768  0.7543 -0.1233  0.0922
  665MOL0     C89673   6.408   6.440   0.806  0.4754  0.1241  0.1462
  665MOL0     C89674   6.278   6.466   0.751  0.0816 -1.0824 -0.0406
  665MOL0     O89675   6.179   6.391   0.796  0.4919  0.4649  0.0212
  665MOL0     C89676   6.051   6.374   0.719 -0.1697  0.3432 -0.3770
  665MOL0     C89677   5.944   6.472   0.769 -0.7403 -0.3317 -0.3535
  665MOL0     C89678   5.930   6.439   0.918  0.7663 -0.0918  0.2756
  665MOL0     C89679   5.779   6.476   0.966  0.8329  0.4269  0.5064
  665MOL0     C89680   5.659   6.411   0.889  0.2804  0.7506  0.0057
  665MOL0     C89681   5.524   6.397   0.976  0.0783 -1.9734  0.9707
  665MOL0     C89682   5.478   6.544   0.999 -0.6001  0.4388 -0.7532
  665MOL0     C89683   5.339   6.554   1.065  0.1581 -0.0460  0.3252
  665MOL0    Cl89684   5.222   6.473   0.954 -0.5871 -0.0183  0.1816
  665MOL0     C89685   6.250   6.567   0.660  0.1003  0.8348  0.0503
  665MOL0     C89686   6.355   6.652   0.627  0.1952 -1.2063 -0.3714
  665MOL0     O89687   6.483   6.922   0.601  0.2112 -0.4614  0.2707
  665MOL0     C89688   6.714   7.048   0.530 -0.9205 -0.5633  0.1764
  665MOL0     C89689   6.838   7.110   0.496 -0.5818  0.2519  0.2159
  665MOL0     N89690   7.273   6.944   0.028 -1.1408 -0.0294  0.1652
  665MOL0     N89691   7.342   6.929  -0.081 -0.0191 -0.5054 -0.1991
  665MOL0     C89692   8.305   7.387  -0.111 -0.4363  0.8008 -0.5239
  665MOL0     C89693   8.381   7.360   0.006  0.3156  0.7825  0.0472
  665MOL0     C89694   8.753   7.303   0.266 -0.2818  0.1960  0.0138
  665MOL0     C89695   8.765   7.397   0.371 -0.5066  0.0965  0.5495
  665MOL0     C89696   8.850   7.366   0.481 -0.0291  0.5065  0.9157
  665MOL0     C89697   8.932   7.252   0.479 -0.1524 -0.2187 -0.3173
  665MOL0     O89698   9.019   7.215   0.581  0.4418  0.1627 -0.9029
  665MOL0     C89699   9.074   7.322   0.655 -0.6210 -0.0512 -0.0811
  665MOL0     C89700   9.209   7.291   0.729 -0.9247  0.2468 -0.5365
  665MOL0     C89701   9.280   7.418   0.766 -0.1909 -0.5697 -0.1287
  665MOL0     C89702   9.388   7.415   0.880  0.1284  0.0672  0.0155
  665MOL0     C89703   9.520   7.389   0.829 -0.2765 -0.0504  0.4733
  665MOL0     C89704   9.640   7.373   0.795  0.9909 -0.2511  1.0046
  665MOL0     C89705   8.930   7.164   0.375 -1.1364 -0.0159  0.5137
  665MOL0     C89706   8.836   7.180   0.270 -0.8229  0.4121 -0.6097
  665MOL0     C89707   8.831   7.073   0.162 -0.0011  0.5431  0.7627
  665MOL0     H89708   8.622   7.179  -0.151  0.5638  1.4442 -0.9535
  665MOL0     H89709   8.502   7.258  -0.342  0.3974  2.6686 -0.5021
  665MOL0     H89710   8.204   7.269  -0.525  2.5880 -0.1900 -0.3937
  665MOL0     H89711   8.281   7.166  -0.422 -1.1241 -1.0961 -1.6428
  665MOL0     H89712   8.084   7.214  -0.257 -1.8311  1.3719  0.0024
  665MOL0     H89713   8.059   7.109  -0.394 -0.5068 -0.2450  0.8148
  665MOL0     H89714   7.974   7.315  -0.524  1.7780  2.7709  0.1765
  665MOL0     H89715   7.996   7.419  -0.396  1.3520  0.6218 -4.0286
  665MOL0     H89716   7.834   7.302  -0.252  0.0475 -0.3494  0.8663
  665MOL0     H89717   7.771   7.343  -0.409  2.1696  3.6268  0.2078
  665MOL0     H89718   7.837   7.099  -0.479 -2.9015  1.2217 -1.3667
  665MOL0     H89719   7.829   7.076  -0.299 -0.5680 -2.4617 -2.1495
  665MOL0     H89720   7.603   7.182  -0.471 -1.0419  0.0135  0.3616
  665MOL0     H89721   7.612   7.020  -0.440  1.6787  0.3244 -0.9416
  665MOL0     H89722   7.454   7.116  -0.289 -0.0966 -2.4646  2.7397
  665MOL0     H89723   7.589   7.207  -0.207 -1.1812 -0.4673  1.7464
  665MOL0     H89724   7.535   6.916  -0.235 -1.6766  0.4356  0.2767
  665MOL0     H89725   7.666   6.977  -0.128  0.1907 -2.1301 -0.3692
  665MOL0     H89726   7.539   7.105   0.107 -2.8418  2.3603  3.1833
  665MOL0     H89727   7.170   7.074   0.234 -0.2017  2.2002  1.6430
  665MOL0     H89728   7.287   6.990   0.318  0.9771 -1.6605 -0.7385
  665MOL0     H89729   7.426   7.226   0.308  0.2679  3.3051  0.6213
  665MOL0     H89730   7.276   7.282   0.233  1.1354 -1.2281 -0.8903
  665MOL0     H89731   7.270   7.351   0.455  3.7448 -0.3883 -1.2431
  665MOL0     H89732   7.303   7.192   0.514  1.6268  0.2269 -0.8192
  665MOL0     H89733   7.037   7.259   0.379 -2.8323 -1.7459  1.0254
  665MOL0     H89734   7.071   7.265   0.549  0.1996 -2.5497  0.8128
  665MOL0     H89735   7.015   6.826   0.470 -1.3072 -0.9761 -1.0762
  665MOL0     H89736   6.828   6.725   0.559  0.8053  0.3889  1.4163
  665MOL0     H89737   6.612   6.511   0.803  0.4984 -2.0941 -0.1128
  665MOL0     H89738   6.431   6.355   0.870  0.9856  0.1660  0.0217
  665MOL0     H89739   6.060   6.399   0.612  0.2571  1.8078 -0.0255
  665MOL0     H89740   6.022   6.269   0.717  0.3933  0.1761 -2.7181
  665MOL0     H89741   5.981   6.572   0.746  0.8707 -1.3245 -2.5001
  665MOL0     H89742   5.852   6.452   0.712 -0.3570 -1.5814 -0.5598
  665MOL0     H89743   5.951   6.332   0.922 -0.0134 -0.3195 -1.0466
  665MOL0     H89744   5.999   6.506   0.970  2.3075 -3.0781  2.3639
  665MOL0     H89745   5.770   6.583   0.949 -0.4430 -0.2308 -4.1524
  665MOL0     H89746   5.760   6.438   1.067  0.9163  1.6767  1.0087
  665MOL0     H89747   5.691   6.312   0.854 -0.1735  1.1146 -1.5228
  665MOL0     H89748   5.641   6.472   0.799 -3.7941  0.9291  0.7498
  665MOL0     H89749   5.454   6.329   0.925  1.3942 -1.9200 -1.0049
  665MOL0     H89750   5.550   6.352   1.072  2.5008 -0.4983  1.0933
  665MOL0     H89751   5.469   6.585   0.898 -1.3701 -0.8756 -1.2525
  665MOL0     H89752   5.558   6.601   1.047  0.3952  0.1306 -1.9970
  665MOL0     H89753   5.334   6.504   1.162 -0.5282 -1.1156 -0.2475
  665MOL0     H89754   5.301   6.656   1.069  0.5475  0.1097  0.1171
  665MOL0     H89755   6.152   6.578   0.613 -0.7281 -2.4705  0.7028
  665MOL0     H89756   6.325   6.729   0.557 -0.9472  1.1122  2.4686
  665MOL0     H89757   6.622   7.106   0.529  0.5700  2.0046 -1.6202
  665MOL0     H89758   6.839   7.215   0.470  2.1461  0.2977  0.2118
  665MOL0     H89759   8.208   7.438  -0.114 -0.1445  1.3361 -2.0540
  665MOL0     H89760   8.328   7.389   0.096 -2.8149 -2.1808 -0.6297
  665MOL0     H89761   8.711   7.491   0.378 -0.7692  0.0314 -0.3779
  665MOL0     H89762   8.867   7.440   0.558  1.3870  0.3986  0.7421
  665MOL0     H89763   9.001   7.362   0.727  0.9969  0.8466  1.1224
  665MOL0     H89764   9.099   7.408   0.592  0.5187  0.6255  1.2318
  665MOL0     H89765   9.282   7.241   0.665  0.8536  1.3288  0.5567
  665MOL0     H89766   9.187   7.224   0.812  1.4292 -2.2395 -1.7503
  665MOL0     H89767   9.203   7.483   0.808  1.5998  1.0391  0.8470
  665MOL0     H89768   9.327   7.467   0.680 -0.6884 -2.2895 -1.4160
  665MOL0     H89769   9.397   7.505   0.941 -1.9328  0.0726  0.4107
  665MOL0     H89770   9.363   7.343   0.958 -0.7859  1.4850  1.0691
  665MOL0     H89771   9.744   7.362   0.772  1.7840  1.7845  3.0894
  665MOL0     H89772   8.983   7.070   0.379 -0.3490  0.3712 -0.3561
  665MOL0     H89773   8.921   7.010   0.153 -1.2410 -1.0592 -1.8811
  665MOL0     H89774   8.751   6.999   0.174 -0.2397  0.7804  0.6323
  665MOL0     H89775   8.810   7.124   0.068 -1.5458 -0.2096  0.6794
  666MOL0     O89776  10.110   0.054   4.632 -0.1023  0.2208  0.0231
  666MOL0     C89777  10.009   0.123   4.596 -1.6846 -0.5256 -0.2737
  666MOL0     O89778   9.900   0.074   4.539 -0.1408  0.3334 -0.2727
  666MOL0     C89779   9.851  -0.052   4.564 -0.6043  0.4071 -0.7140
  666MOL0     C89780   9.712  -0.077   4.588 -0.5983 -0.1398  0.0890
  666MOL0     C89781   9.657  -0.206   4.589 -1.0543 -0.2217  0.3408
  666MOL0     C89782   9.735  -0.314   4.566  0.8993 -0.1087  0.4552
  666MOL0     O89783   9.666  -0.430   4.545 -0.3964 -0.8150  0.0690
  666MOL0     C89784   9.715  -0.550   4.469 -0.8127 -0.5946  0.7558
  666MOL0     C89785   9.594  -0.638   4.446  1.0590 -0.4720  0.6383
  666MOL0     C89786   9.476  -0.568   4.367 -0.4011  0.3563 -0.5175
  666MOL0     C89787   9.518  -0.498   4.240  0.1370  1.6446  1.1892
  666MOL0     C89788   9.392  -0.442   4.158 -0.9376 -0.5543 -0.4875
  666MOL0     C89789   9.434  -0.366   4.026  0.2212 -0.6508 -0.2082
  666MOL0     C89790   9.452  -0.464   3.908  0.2995  0.6700 -0.2202
  666MOL0     C89791   9.310  -0.470   3.845  1.0845 -0.0043  0.2059
  666MOL0     N89792   9.305  -0.542   3.718 -0.0983  0.0609  0.8143
  666MOL0     C89793   9.342  -0.672   3.700 -0.2471  0.3459 -0.3093
  666MOL0     C89794   9.310  -0.702   3.571  0.3137 -0.2768 -0.7356
  666MOL0     C89795   9.341  -0.832   3.509 -0.3759  0.2646  0.0969
  666MOL0     C89796   9.481  -0.858   3.452 -0.3139  0.3658  0.2855
  666MOL0     C89797   9.485  -0.987   3.358  1.0746  0.3991  0.5898
  666MOL0     C89798   9.607  -1.067   3.371  0.5135  0.7655  0.3854
  666MOL0     O89799   9.594  -1.184   3.291  0.0474 -0.0377 -0.3400
  666MOL0     C89800   9.530  -1.305   3.318 -0.1701  0.3314 -0.2337
  666MOL0     C89801   9.464  -1.319   3.438  0.5514 -0.4111 -0.8262
  666MOL0     C89802   9.384  -1.428   3.456  0.3577  0.0139 -0.0726
  666MOL0     C89803   9.390  -1.540   3.369 -0.2755  0.1103 -0.0480
  666MOL0     C89804   9.323  -1.666   3.399  0.3558  0.4541 -0.0344
  666MOL0     O89805   9.381  -1.773   3.356  0.7245  1.0201 -0.5475
  666MOL0     C89806   9.313  -1.894   3.389  0.0986  0.5084  0.6259
  666MOL0     C89807   9.311  -1.963   3.517 -0.6666 -0.5105 -0.3027
  666MOL0     C89808   9.223  -2.069   3.539 -0.4412  0.4650  0.5686
  666MOL0     C89809   9.152  -2.126   3.434  0.9129  0.1545 -0.1504
  666MOL0     O89810   9.078  -2.245   3.455  0.3403  0.7529 -0.3261
  666MOL0     C89811   8.936  -2.233   3.423 -0.0025  0.6155 -1.3964
  666MOL0     C89812   8.852  -2.335   3.509 -0.1850  0.3267 -0.0277
  666MOL0     C89813   8.876  -2.316   3.660 -0.1118  0.3634  0.0845
  666MOL0     C89814   8.797  -2.419   3.739 -0.3465  0.1050 -0.4167
  666MOL0     C89815   8.828  -2.416   3.896  0.8140  0.0702  0.2571
  666MOL0     C89816   8.775  -2.534   3.970  0.1364  0.0724  0.1431
  666MOL0     C89817   8.627  -2.518   4.022  0.5348 -0.1158 -0.2877
  666MOL0     C89818   8.522  -2.449   3.925  0.4675 -0.4300 -0.3069
  666MOL0    Cl89819   8.388  -2.378   4.016 -0.3402 -0.3814  0.1051
  666MOL0     C89820   9.170  -2.065   3.310  0.2523 -0.2303  0.9134
  666MOL0     C89821   9.255  -1.959   3.281 -0.4625 -0.4066 -0.7866
  666MOL0     O89822   9.218  -1.663   3.456 -0.0117  0.3257 -0.2374
  666MOL0     C89823   9.472  -1.533   3.250 -0.9876 -0.1285 -0.4230
  666MOL0     C89824   9.537  -1.413   3.223 -0.1783 -0.1230 -1.0470
  666MOL0     N89825   9.270  -0.591   3.508 -0.5730 -0.3990  1.3701
  666MOL0     N89826   9.284  -0.489   3.592  0.2856  0.0825 -0.4965
  666MOL0     C89827   9.871  -0.300   4.560 -0.7597 -0.3403 -1.0895
  666MOL0     C89828   9.933  -0.174   4.556  0.4100 -0.6017  0.9324
  666MOL0     C89829  10.010   0.270   4.583  0.3591 -0.7559  0.1166
  666MOL0     C89830   9.893   0.332   4.632 -0.4379  0.2575  0.0361
  666MOL0     C89831   9.879   0.470   4.621 -0.1881  0.2089 -0.4964
  666MOL0     C89832   9.985   0.548   4.569 -0.1084 -0.2297  0.0566
  666MOL0     O89833   9.994   0.689   4.551  0.3484  0.4991  0.8583
  666MOL0     C89834   9.866   0.755   4.524 -0.1702 -0.3336 -1.1692
  666MOL0     C89835   9.889   0.872   4.413 -0.2622 -1.1905 -1.0740
  666MOL0     C89836   9.859   0.832   4.266 -0.9188  0.0454 -0.7040
  666MOL0     C89837   9.902   0.920   4.147  0.2903  0.1762 -0.3205
  666MOL0     C89838   9.790   1.012   4.125 -1.5581  0.7030  0.2781
  666MOL0     C89839   9.688   1.074   4.104 -0.2901  0.8519 -0.6237
  666MOL0     C89840  10.107   0.487   4.536  0.3097 -0.4493 -0.9127
  666MOL0     C89841  10.118   0.346   4.542 -1.1236 -0.8571 -0.2232
  666MOL0     C89842  10.261   0.289   4.518  0.7330  0.1003 -0.1981
  666MOL0     H89843   9.649   0.012   4.581 -0.2753  0.4686  3.3784
  666MOL0     H89844   9.549  -0.212   4.589 -1.0783  0.1301 -0.2830
  666MOL0     H89845   9.756  -0.526   4.371  0.4569  2.9585  1.9748
  666MOL0     H89846   9.798  -0.589   4.528 -0.9345 -1.5675  0.2946
  666MOL0     H89847   9.565  -0.680   4.543 -0.9675 -0.1384  0.2172
  666MOL0     H89848   9.629  -0.723   4.386 -1.1231 -0.5232 -0.6623
  666MOL0     H89849   9.433  -0.496   4.437  0.9675  0.6333  0.0634
  666MOL0     H89850   9.400  -0.643   4.346  1.2525 -1.3183 -0.8071
  666MOL0     H89851   9.592  -0.419   4.259  0.0672  1.5436  1.8995
  666MOL0     H89852   9.558  -0.569   4.167 -2.6715 -1.1367  2.1243
  666MOL0     H89853   9.335  -0.532   4.132 -0.2952 -0.8514 -0.9212
  666MOL0     H89854   9.342  -0.368   4.220 -0.2448 -0.3060 -0.2138
  666MOL0     H89855   9.347  -0.300   4.015 -1.9996 -2.8221  2.5040
  666MOL0     H89856   9.523  -0.304   4.039 -0.1003 -0.6217  2.4119
  666MOL0     H89857   9.484  -0.558   3.952  0.2019  0.3190 -0.8868
  666MOL0     H89858   9.538  -0.431   3.849 -0.0156  0.3373 -0.8735
  666MOL0     H89859   9.240  -0.525   3.909  2.4403 -0.9860  0.9192
  666MOL0     H89860   9.270  -0.370   3.829  1.5284 -0.2364 -3.1389
  666MOL0     H89861   9.377  -0.740   3.778 -0.0729  0.9884  0.1866
  666MOL0     H89862   9.338  -0.913   3.583 -0.6489 -2.3283 -2.5629
  666MOL0     H89863   9.264  -0.846   3.432  1.1693 -1.1150 -1.2864
  666MOL0     H89864   9.509  -0.765   3.402 -1.2216  0.3384 -0.2894
  666MOL0     H89865   9.546  -0.875   3.538  3.0717  3.3017 -1.4433
  666MOL0     H89866   9.460  -0.968   3.254 -0.2805 -1.2729  0.5628
  666MOL0     H89867   9.400  -1.048   3.390 -0.1430  2.1441  0.8300
  666MOL0     H89868   9.642  -1.091   3.472  0.1084 -1.4068  0.0431
  666MOL0     H89869   9.676  -0.996   3.324 -1.1255  3.5238  1.8379
  666MOL0     H89870   9.468  -1.237   3.510 -0.3152 -0.2359 -0.9722
  666MOL0     H89871   9.318  -1.433   3.542  0.1737 -0.7888 -0.2537
  666MOL0     H89872   9.354  -1.912   3.602 -0.4660 -0.9211 -0.1539
  666MOL0     H89873   9.219  -2.102   3.642 -0.3795 -1.6581 -0.0756
  666MOL0     H89874   8.897  -2.131   3.438  1.1670  0.7480  1.3943
  666MOL0     H89875   8.921  -2.268   3.321 -0.6942 -2.2032 -0.4011
  666MOL0     H89876   8.747  -2.328   3.481 -0.4788 -0.9805  0.6653
  666MOL0     H89877   8.891  -2.435   3.484 -2.6551 -0.5420 -0.6732
  666MOL0     H89878   8.982  -2.327   3.684  0.0741  1.5528 -0.1224
  666MOL0     H89879   8.838  -2.220   3.698 -1.1840 -0.0259  0.0251
  666MOL0     H89880   8.817  -2.523   3.711 -0.6742 -0.0181 -0.2031
  666MOL0     H89881   8.691  -2.415   3.712  0.0549 -2.1435 -2.6277
  666MOL0     H89882   8.777  -2.329   3.940 -0.0238 -0.9527  1.3589
  666MOL0     H89883   8.934  -2.400   3.917  0.6747  0.8855  0.3787
  666MOL0     H89884   8.772  -2.627   3.912 -2.7586 -1.1241  1.9919
  666MOL0     H89885   8.850  -2.555   4.047 -1.5417 -0.9977  1.5564
  666MOL0     H89886   8.640  -2.458   4.112  5.1096 -1.2155  0.0249
  666MOL0     H89887   8.592  -2.617   4.051  1.4938 -1.2080 -2.5829
  666MOL0     H89888   8.562  -2.359   3.878  0.4341  1.2378  2.6716
  666MOL0     H89889   8.497  -2.521   3.846  6.4730 -1.5800 -1.7077
  666MOL0     H89890   9.114  -2.098   3.222  1.4255  1.3650 -0.5125
  666MOL0     H89891   9.273  -1.920   3.181  1.1009  0.0407 -0.3574
  666MOL0     H89892   9.465  -1.614   3.177  2.2615  0.5124 -1.6279
  666MOL0     H89893   9.582  -1.392   3.127  0.8318 -1.4134 -0.8737
  666MOL0     H89894   9.937  -0.385   4.546 -2.4273 -2.0137  0.6899
  666MOL0     H89895  10.041  -0.173   4.542  0.8086  2.5691  3.0266
  666MOL0     H89896   9.797   0.286   4.653 -1.7365  1.0482 -3.4852
  666MOL0     H89897   9.786   0.518   4.647  0.4677  0.5042  1.5294
  666MOL0     H89898   9.822   0.799   4.614  0.6138  2.5936 -2.1103
  666MOL0     H89899   9.790   0.694   4.475  1.0785 -1.9376 -1.1980
  666MOL0     H89900   9.989   0.914   4.422  0.8271 -3.1542 -3.1575
  666MOL0     H89901   9.817   0.952   4.435  1.4521 -0.6608  3.6226
  666MOL0     H89902   9.753   0.808   4.268 -1.2727  1.5506  1.2225
  666MOL0     H89903   9.907   0.735   4.252  2.2173  0.6820  3.5884
  666MOL0     H89904   9.998   0.970   4.161  0.8605 -1.1005  0.5071
  666MOL0     H89905   9.928   0.867   4.056  1.3109 -0.2334  0.1991
  666MOL0     H89906   9.597   1.130   4.109 -0.1547  1.1777 -1.6450
  666MOL0     H89907  10.191   0.551   4.510  0.3082  0.0647  0.3056
  666MOL0     H89908  10.263   0.201   4.453  1.3045 -1.5610  1.9591
  666MOL0     H89909  10.319   0.352   4.450  0.4947 -2.3848 -2.8726
  666MOL0     H89910  10.301   0.243   4.609 -0.3114  0.1897  0.3142
  667MOL0     O89911   7.230   5.921   2.347 -0.8609  0.4276 -0.7776
  667MOL0     C89912   7.140   5.837   2.360 -0.2846  0.2578  0.1500
  667MOL0     O89913   7.017   5.858   2.399 -0.1674  0.3136 -0.7321
  667MOL0     C89914   6.982   5.985   2.437  0.3384  0.1847 -0.2240
  667MOL0     C89915   6.885   6.060   2.358  0.0836 -0.0598  0.4029
  667MOL0     C89916   6.846   6.187   2.403 -0.0975 -0.1842 -0.2309
  667MOL0     C89917   6.900   6.232   2.525 -0.6216  0.1981  0.4061
  667MOL0     O89918   6.879   6.362   2.561 -0.2779  0.8747  0.2539
  667MOL0     C89919   6.834   6.389   2.694 -0.7417  1.0285 -0.0058
  667MOL0     C89920   6.807   6.534   2.728 -0.4521 -0.0148 -1.0208
  667MOL0     C89921   6.661   6.578   2.741  0.0409  0.7449  1.2534
  667MOL0     C89922   6.625   6.724   2.786  0.2204  0.5458  0.5500
  667MOL0     C89923   6.472   6.744   2.800 -0.7227  0.6154  0.2098
  667MOL0     C89924   6.438   6.883   2.822 -0.1309  0.2999 -0.7679
  667MOL0     C89925   6.294   6.919   2.832  0.2457  0.2041  1.0269
  667MOL0     C89926   6.251   7.015   2.722  0.3169  0.5632 -0.7218
  667MOL0     N89927   6.246   6.964   2.581 -0.1433 -0.4359  0.1648
  667MOL0     C89928   6.356   6.963   2.499  0.1154 -1.3214  1.0080
  667MOL0     C89929   6.334   6.859   2.415  0.0591 -0.4878 -0.0371
  667MOL0     C89930   6.445   6.810   2.334 -0.8043  0.4763 -0.3885
  667MOL0     C89931   6.418   6.822   2.187  0.6632 -0.7729  0.4843
  667MOL0     C89932   6.335   6.708   2.133  0.2533  0.4322  0.2828
  667MOL0     C89933   6.306   6.737   1.983 -0.4367 -0.4669 -0.9086
  667MOL0     O89934   6.168   6.755   1.949 -0.2217 -0.0581 -0.3459
  667MOL0     C89935   6.087   6.644   1.949  0.4396  0.8105  0.4752
  667MOL0     C89936   6.115   6.514   2.005  0.3441 -0.2949 -1.1942
  667MOL0     C89937   6.034   6.404   1.964 -0.3159 -0.9531  0.7342
  667MOL0     C89938   5.919   6.421   1.884  0.6441  0.5820  0.8653
  667MOL0     C89939   5.829   6.301   1.867  0.1341  0.8749 -0.3162
  667MOL0     O89940   5.707   6.323   1.807  0.4417 -0.2120  0.3852
  667MOL0     C89941   5.622   6.222   1.805  0.9683 -0.5949 -0.2381
  667MOL0     C89942   5.504   6.236   1.875  0.7375 -0.1290 -0.8404
  667MOL0     C89943   5.406   6.137   1.865  0.0930  0.3944  0.0454
  667MOL0     C89944   5.423   6.019   1.783 -0.6921 -1.0946  0.9325
  667MOL0     O89945   5.344   5.910   1.763 -0.1449  0.6880 -0.8735
  667MOL0     C89946   5.203   5.932   1.787 -0.1781 -0.3600 -0.0239
  667MOL0     C89947   5.119   5.804   1.763 -0.1895 -0.1622  0.1563
  667MOL0     C89948   4.969   5.838   1.793 -0.7878  0.3233 -0.7763
  667MOL0     C89949   4.937   5.841   1.945  1.0670 -1.2712 -0.1553
  667MOL0     C89950   4.788   5.862   1.957 -0.3154 -0.4935  0.5573
  667MOL0     C89951   4.743   5.792   2.077  0.2060  0.0683 -0.3537
  667MOL0     C89952   4.619   5.872   2.142  0.4365 -0.2789 -0.6869
  667MOL0     C89953   4.543   5.772   2.230  0.5579 -0.1532 -0.7371
  667MOL0    Cl89954   4.371   5.810   2.237  0.3022  0.1994 -0.1468
  667MOL0     C89955   5.551   5.998   1.730 -0.2446  0.1499  1.1177
  667MOL0     C89956   5.641   6.105   1.737  0.2286 -0.5105  0.0922
  667MOL0     O89957   5.869   6.193   1.911 -0.0713  0.0362  0.2552
  667MOL0     C89958   5.888   6.550   1.833  0.0181 -0.4379  0.9441
  667MOL0     C89959   5.966   6.661   1.875  0.6408  0.1727 -0.4119
  667MOL0     N89960   6.211   6.805   2.444  0.3088  1.1549  0.2413
  667MOL0     N89961   6.158   6.864   2.543  0.9563 -0.9434 -0.6351
  667MOL0     C89962   6.998   6.164   2.592  0.2252 -0.9799 -0.5214
  667MOL0     C89963   7.037   6.038   2.555 -0.0670  0.2325  0.9794
  667MOL0     C89964   7.164   5.706   2.298  0.0904 -0.2777  0.2095
  667MOL0     C89965   7.055   5.646   2.235  0.9395  0.1308  0.6576
  667MOL0     C89966   7.056   5.508   2.183  0.8460 -0.1548 -0.3839
  667MOL0     C89967   7.177   5.435   2.192  0.8812 -0.1114 -0.3310
  667MOL0     O89968   7.190   5.314   2.138  0.1698  0.4962 -0.6394
  667MOL0     C89969   7.090   5.219   2.175 -0.6761  0.0308  0.1174
  667MOL0     C89970   7.141   5.086   2.219  0.1847 -0.4356  0.3203
  667MOL0     C89971   7.245   5.014   2.136 -0.7510  0.6145 -0.1753
  667MOL0     C89972   7.322   4.914   2.224 -0.7758  0.0529 -0.4928
  667MOL0     C89973   7.244   4.800   2.280 -0.9644 -0.1170  0.0856
  667MOL0     C89974   7.184   4.697   2.302  0.8762 -0.6263  0.7112
  667MOL0     C89975   7.290   5.504   2.239 -0.3673  0.4101 -0.0351
  667MOL0     C89976   7.289   5.632   2.290 -0.5763 -0.8298  0.1026
  667MOL0     C89977   7.405   5.685   2.358 -0.0956 -0.8769  0.4845
  667MOL0     H89978   6.837   6.019   2.269  2.6404 -3.6461  0.4538
  667MOL0     H89979   6.771   6.235   2.341 -0.4006  2.9050  2.2801
  667MOL0     H89980   6.745   6.333   2.723 -0.7570  2.0615  2.2045
  667MOL0     H89981   6.913   6.354   2.762 -0.5053 -0.3677 -0.9688
  667MOL0     H89982   6.856   6.595   2.652 -1.2687 -1.2821 -2.6312
  667MOL0     H89983   6.853   6.561   2.823 -0.0024 -2.8308 -0.3422
  667MOL0     H89984   6.620   6.506   2.812  1.1419 -3.6125 -2.0673
  667MOL0     H89985   6.610   6.557   2.646  0.8667 -0.6761  1.0842
  667MOL0     H89986   6.657   6.727   2.890 -4.9992 -0.8039  2.5047
  667MOL0     H89987   6.670   6.802   2.723  0.4008  0.3606  0.4478
  667MOL0     H89988   6.438   6.718   2.700  1.9297 -3.3665  0.1437
  667MOL0     H89989   6.418   6.666   2.855 -2.2320  2.1557  1.0288
  667MOL0     H89990   6.487   6.910   2.916  1.8057 -0.8538 -1.3894
  667MOL0     H89991   6.483   6.945   2.744  0.5733 -1.2436 -1.6339
  667MOL0     H89992   6.271   6.982   2.918  2.9600  0.4031  1.6957
  667MOL0     H89993   6.236   6.827   2.824  0.5927  0.1160 -0.8653
  667MOL0     H89994   6.148   7.032   2.754 -0.4338 -4.8225  0.6791
  667MOL0     H89995   6.304   7.110   2.734 -1.5330  1.2826  3.9145
  667MOL0     H89996   6.450   7.011   2.523 -1.6030  2.2391  1.1560
  667MOL0     H89997   6.534   6.869   2.359 -0.6913  0.0322  0.2839
  667MOL0     H89998   6.473   6.705   2.350  3.2283  1.2891 -0.8717
  667MOL0     H89999   6.371   6.918   2.167  1.3518 -0.9906 -2.6909
  667MOL0     H90000   6.513   6.826   2.132  1.0655  1.3438  1.2505
  667MOL0     H90001   6.236   6.696   2.178  1.2181  0.3059  2.5130
  667MOL0     H90002   6.378   6.611   2.158  0.6834  0.4302 -0.4395
  667MOL0     H90003   6.344   6.659   1.917  0.8805 -0.7841  0.1570
  667MOL0     H90004   6.342   6.837   1.955 -1.0243  0.5761  1.6852
  667MOL0     H90005   6.197   6.496   2.074 -0.8233  2.2524  1.0502
  667MOL0     H90006   6.052   6.309   2.013 -1.4780 -2.7711 -2.1269
  667MOL0     H90007   5.477   6.315   1.944  1.2414 -2.3566  2.1121
  667MOL0     H90008   5.317   6.143   1.926 -0.4922 -0.9549 -0.6344
  667MOL0     H90009   5.187   5.962   1.891 -0.2026  1.8566 -0.5974
  667MOL0     H90010   5.153   6.013   1.733 -1.1737 -1.6061 -1.0426
  667MOL0     H90011   5.129   5.769   1.659 -0.6546 -2.0088  0.6970
  667MOL0     H90012   5.162   5.717   1.814  2.3377  0.4411 -0.7612
  667MOL0     H90013   4.952   5.940   1.755  0.0308  1.1179  0.8921
  667MOL0     H90014   4.915   5.762   1.737 -1.2508  2.0298 -2.8104
  667MOL0     H90015   4.998   5.915   1.996 -2.5492  2.7616 -1.0874
  667MOL0     H90016   4.955   5.739   1.981  1.0744 -1.4547 -0.6815
  667MOL0     H90017   4.736   5.820   1.870 -0.1907  0.9264 -0.2326
  667MOL0     H90018   4.761   5.968   1.956 -2.1455 -0.9196  0.9634
  667MOL0     H90019   4.722   5.688   2.051 -1.4663  0.4554 -0.6998
  667MOL0     H90020   4.819   5.795   2.155  0.2395  0.7457 -0.4045
  667MOL0     H90021   4.553   5.904   2.061  3.4687 -0.7702 -3.5589
  667MOL0     H90022   4.662   5.957   2.195  0.8844 -1.1254  0.3655
  667MOL0     H90023   4.547   5.674   2.183  1.9086  1.5279 -4.4684
  667MOL0     H90024   4.589   5.761   2.329  2.7655 -0.8051 -1.7721
  667MOL0     H90025   5.588   5.907   1.683  1.4986  0.2830  2.1448
  667MOL0     H90026   5.742   6.103   1.697  0.2386  1.3733 -0.0659
  667MOL0     H90027   5.805   6.581   1.770  1.6436  2.0524 -0.1449
  667MOL0     H90028   5.938   6.764   1.853  0.5699  0.7619  2.0433
  667MOL0     H90029   7.050   6.212   2.674  1.7836  1.1016 -2.5631
  667MOL0     H90030   7.115   5.981   2.604  0.9863  2.0811  1.5437
  667MOL0     H90031   6.956   5.686   2.219  0.5007 -1.8540 -2.2845
  667MOL0     H90032   6.971   5.459   2.136 -0.0707 -0.7507  1.7898
  667MOL0     H90033   7.034   5.195   2.084  0.7812  0.0314 -0.8197
  667MOL0     H90034   7.015   5.264   2.241  0.4670  3.1058 -0.5178
  667MOL0     H90035   7.053   5.020   2.218  1.7318 -2.8353 -3.9202
  667MOL0     H90036   7.168   5.096   2.324  0.4346  0.2405  0.1979
  667MOL0     H90037   7.312   5.084   2.087  1.2702  0.5174  2.2293
  667MOL0     H90038   7.198   4.949   2.062  2.0635 -0.1983 -1.3502
  667MOL0     H90039   7.416   4.886   2.176  1.6336  3.6786  1.5903
  667MOL0     H90040   7.345   4.973   2.313 -2.1211  0.9729 -0.7114
  667MOL0     H90041   7.132   4.606   2.325  1.2629 -1.1878 -0.5179
  667MOL0     H90042   7.381   5.445   2.236  0.0199  1.0344 -0.9808
  667MOL0     H90043   7.380   5.692   2.465 -2.1043 -1.7206  0.1210
  667MOL0     H90044   7.481   5.607   2.352 -0.1550 -0.8173 -1.3757
  667MOL0     H90045   7.433   5.776   2.305  0.9510 -2.6353 -2.1414
  668MOL0     O90046   0.503   0.195   9.465  0.5614 -0.3612  0.0378
  668MOL0     C90047   0.385   0.149   9.484 -1.2822 -0.0053 -0.4619
  668MOL0     O90048   0.265   0.228   9.479 -0.4538  0.2898 -0.5578
  668MOL0     C90049   0.281   0.363   9.474 -0.1768  0.0416  0.8037
  668MOL0     C90050   0.251   0.435   9.590 -0.3570  0.2450 -0.5931
  668MOL0     C90051   0.246   0.572   9.588 -0.0349 -0.2161  0.3190
  668MOL0     C90052   0.262   0.640   9.467 -0.0636  0.0627 -0.0706
  668MOL0     O90053   0.267   0.771   9.459 -0.2456  0.4329  0.4981
  668MOL0     C90054   0.150   0.852   9.422 -0.6786  0.2016 -0.3627
  668MOL0     C90055   0.071   0.873   9.549 -0.1270  0.3219 -0.2367
  668MOL0     C90056  -0.065   0.936   9.532  0.1316  0.2722 -0.6070
  668MOL0     C90057  -0.039   1.076   9.477  0.1404  0.5112  1.0813
  668MOL0     C90058  -0.145   1.166   9.533  0.6693  0.4662 -0.8738
  668MOL0     C90059  -0.142   1.301   9.463  0.4601  0.1774  0.4474
  668MOL0     C90060  -0.276   1.378   9.493  0.0963 -0.1037 -0.0958
  668MOL0     C90061  -0.256   1.473   9.610 -0.3028  0.0308 -0.0976
  668MOL0     N90062  -0.386   1.529   9.663  0.3448  0.5464 -0.4340
  668MOL0     C90063  -0.470   1.614   9.599 -0.6456 -1.4204  0.6886
  668MOL0     C90064  -0.545   1.679   9.695  0.7120  0.7985  0.1972
  668MOL0     C90065  -0.663   1.767   9.660  0.7251  0.1881 -0.7406
  668MOL0     C90066  -0.794   1.696   9.696  0.2080  0.4301  0.3808
  668MOL0     C90067  -0.925   1.781   9.693 -0.0950  0.4146  0.3621
  668MOL0     C90068  -0.927   1.880   9.583  0.3061 -0.0243 -0.1096
  668MOL0     O90069  -0.934   1.817   9.454  1.0432 -1.2381 -0.6578
  668MOL0     C90070  -1.013   1.869   9.352  0.7412 -0.4760 -0.6086
  668MOL0     C90071  -1.042   1.780   9.252  0.5703 -0.7351 -0.6308
  668MOL0     C90072  -1.094   1.822   9.126  0.6836 -0.5723  0.3456
  668MOL0     C90073  -1.126   1.958   9.103 -0.3274 -0.3981 -1.0575
  668MOL0     C90074  -1.170   1.997   8.973  0.3834  0.3337 -0.4799
  668MOL0     O90075  -1.210   1.898   8.891  0.2785 -0.4082 -0.4821
  668MOL0     C90076  -1.247   1.936   8.764  0.4611 -0.1733 -0.2593
  668MOL0     C90077  -1.385   1.919   8.739 -0.3221  0.7334 -0.7456
  668MOL0     C90078  -1.442   1.967   8.615  0.1455 -0.3044 -0.4865
  668MOL0     C90079  -1.364   2.011   8.513 -0.3286 -0.6685 -0.6664
  668MOL0     O90080  -1.431   2.061   8.403 -0.2573 -0.0120  0.4557
  668MOL0     C90081  -1.367   2.132   8.294  0.8280 -0.5306 -0.1593
  668MOL0     C90082  -1.354   2.286   8.319 -0.0302 -0.1585 -0.2274
  668MOL0     C90083  -1.378   2.344   8.177 -0.2752  0.8330  0.6466
  668MOL0     C90084  -1.337   2.483   8.161  0.3578  0.8436 -0.4061
  668MOL0     C90085  -1.358   2.554   8.034  0.3434  0.7491 -0.9301
  668MOL0     C90086  -1.507   2.610   8.026 -0.7826 -0.2567  0.2542
  668MOL0     C90087  -1.526   2.738   8.108 -0.0715 -1.1007  0.3123
  668MOL0     C90088  -1.683   2.765   8.121 -0.8311  0.0718  0.4305
  668MOL0    Cl90089  -1.718   2.873   7.976  0.1985  0.3338 -0.4000
  668MOL0     C90090  -1.229   2.023   8.535 -0.5334 -0.3132 -0.3472
  668MOL0     C90091  -1.168   1.991   8.655  0.3878  0.0731  0.0920
  668MOL0     O90092  -1.166   2.111   8.946 -0.4436  0.0978  0.6910
  668MOL0     C90093  -1.076   2.043   9.196  0.0693 -0.1343  0.2184
  668MOL0     C90094  -1.038   2.002   9.322 -0.1336  0.2778  0.0382
  668MOL0     N90095  -0.508   1.625   9.818 -0.6180  0.0000  0.2235
  668MOL0     N90096  -0.415   1.541   9.797  0.4637 -0.2322 -0.7165
  668MOL0     C90097   0.289   0.572   9.351  0.0744  0.0722  0.0875
  668MOL0     C90098   0.307   0.430   9.355 -0.3722  0.2893 -0.4800
  668MOL0     C90099   0.374   0.010   9.535  0.3876  1.3493  0.1317
  668MOL0     C90100   0.352   0.004   9.666  1.1123  0.2298 -0.1363
  668MOL0     C90101   0.319  -0.117   9.729 -0.5545 -0.0635  0.5936
  668MOL0     C90102   0.329  -0.234   9.654 -0.8451  0.3721  0.7210
  668MOL0     O90103   0.297  -0.361   9.702 -0.2224  0.4029  0.2221
  668MOL0     C90104   0.293  -0.396   9.843  0.5413  0.5456  0.5356
  668MOL0     C90105   0.421  -0.392   9.926  0.5371 -0.3754  0.2749
  668MOL0     C90106   0.393  -0.369  10.075  0.3114  0.5524  0.5081
  668MOL0     C90107   0.358  -0.223  10.099  0.1534 -0.5383 -0.9574
  668MOL0     C90108   0.470  -0.132  10.073 -1.4122  0.6332  0.8795
  668MOL0     C90109   0.542  -0.037  10.056 -0.1148 -0.1335  0.7945
  668MOL0     C90110   0.370  -0.228   9.517 -0.0744 -0.5336 -0.1717
  668MOL0     C90111   0.378  -0.102   9.453  0.3324 -0.2826  0.0982
  668MOL0     C90112   0.416  -0.098   9.306 -0.1642 -0.8331 -0.3302
  668MOL0     H90113   0.234   0.380   9.683 -0.0423  1.6737  0.3446
  668MOL0     H90114   0.229   0.633   9.676 -1.6974  1.6515 -1.1956
  668MOL0     H90115   0.197   0.945   9.386 -1.1446  0.7133  0.3135
  668MOL0     H90116   0.093   0.804   9.342  1.4651 -0.0110 -1.8597
  668MOL0     H90117   0.134   0.941   9.608  0.5350  0.3954 -1.0129
  668MOL0     H90118   0.063   0.778   9.601 -2.5473 -0.0774 -1.2194
  668MOL0     H90119  -0.111   0.948   9.631 -1.7419 -0.1724 -1.3805
  668MOL0     H90120  -0.130   0.877   9.467 -0.8028 -0.2959  0.8009
  668MOL0     H90121   0.053   1.124   9.510 -1.1869  2.5043  2.0628
  668MOL0     H90122  -0.036   1.072   9.367  4.3308 -0.1378  1.0681
  668MOL0     H90123  -0.240   1.112   9.527  1.1649 -0.6108  0.4826
  668MOL0     H90124  -0.121   1.194   9.636  1.3778  0.9639 -1.1649
  668MOL0     H90125  -0.062   1.369   9.495 -0.7705  1.9871 -0.1477
  668MOL0     H90126  -0.140   1.285   9.355 -1.7009 -2.5185  0.7095
  668MOL0     H90127  -0.356   1.307   9.514  0.4256  0.3705  3.2782
  668MOL0     H90128  -0.301   1.429   9.399  0.5688 -0.5503 -0.4714
  668MOL0     H90129  -0.202   1.420   9.688  3.0588  2.3532 -0.6432
  668MOL0     H90130  -0.185   1.550   9.579  0.3827 -0.8871 -0.8749
  668MOL0     H90131  -0.484   1.624   9.491 -2.4767 -1.0085  0.9327
  668MOL0     H90132  -0.651   1.865   9.707 -3.5831  0.8044 -0.5818
  668MOL0     H90133  -0.658   1.775   9.551  1.6808  3.9149 -0.5552
  668MOL0     H90134  -0.806   1.615   9.623 -0.4028  2.8194 -2.3314
  668MOL0     H90135  -0.777   1.629   9.781  3.2185  0.6496  0.0603
  668MOL0     H90136  -0.909   1.836   9.786  3.3559 -2.1459  1.5150
  668MOL0     H90137  -1.017   1.721   9.691  1.3272 -1.8687 -1.1398
  668MOL0     H90138  -0.845   1.952   9.587 -0.5227  0.8833  1.2583
  668MOL0     H90139  -1.021   1.937   9.595  1.1195  1.3633 -0.0642
  668MOL0     H90140  -1.023   1.674   9.266 -1.6421 -1.6364 -3.3484
  668MOL0     H90141  -1.087   1.745   9.050  1.9158  0.8081 -1.0099
  668MOL0     H90142  -1.438   1.877   8.824  0.1561  2.0499  0.2420
  668MOL0     H90143  -1.549   1.953   8.599  0.2234 -0.8064 -0.5795
  668MOL0     H90144  -1.269   2.094   8.264  1.6454  1.0445  0.3641
  668MOL0     H90145  -1.433   2.117   8.207 -0.1231  2.7731 -0.1710
  668MOL0     H90146  -1.425   2.332   8.388  0.5715  1.4087 -0.6016
  668MOL0     H90147  -1.252   2.319   8.345  0.8765 -2.7961 -0.1746
  668MOL0     H90148  -1.324   2.282   8.104  0.2367 -2.2068  3.3781
  668MOL0     H90149  -1.482   2.340   8.142  1.0761  0.0953 -3.9516
  668MOL0     H90150  -1.228   2.484   8.166  0.4740 -0.9374 -1.5459
  668MOL0     H90151  -1.389   2.532   8.244 -1.4934 -0.2815 -0.8390
  668MOL0     H90152  -1.341   2.492   7.946 -1.6993 -0.7597 -0.3382
  668MOL0     H90153  -1.279   2.629   8.023  1.5221 -0.6301 -2.2725
  668MOL0     H90154  -1.529   2.636   7.922  0.9297 -0.9110 -0.2970
  668MOL0     H90155  -1.578   2.536   8.063  0.7761 -0.4732  3.0705
  668MOL0     H90156  -1.466   2.819   8.066 -1.5324  0.0527  0.3912
  668MOL0     H90157  -1.486   2.714   8.207  1.1786  1.8035  0.6137
  668MOL0     H90158  -1.737   2.671   8.111  0.0902 -0.3533 -0.8376
  668MOL0     H90159  -1.708   2.819   8.213  1.1605  1.0102  0.4905
  668MOL0     H90160  -1.167   2.063   8.456  0.6015  0.0539  0.7001
  668MOL0     H90161  -1.064   2.002   8.681 -0.2819 -1.3344  4.0845
  668MOL0     H90162  -1.072   2.145   9.159  0.1447 -0.6837 -1.3718
  668MOL0     H90163  -0.994   2.074   9.391 -2.3691  0.7493  1.0524
  668MOL0     H90164   0.299   0.630   9.260 -5.2903  0.3783 -0.6144
  668MOL0     H90165   0.318   0.369   9.266 -0.8312 -1.2592  0.4916
  668MOL0     H90166   0.364   0.088   9.734 -1.8450 -2.1989  3.7840
  668MOL0     H90167   0.298  -0.134   9.834  0.1478 -1.3285  0.5432
  668MOL0     H90168   0.273  -0.503   9.832  1.0701  0.6152 -1.6671
  668MOL0     H90169   0.200  -0.348   9.875 -1.8386 -1.0514 -3.2859
  668MOL0     H90170   0.474  -0.305   9.887  0.6656 -0.8636 -0.6691
  668MOL0     H90171   0.475  -0.486   9.913  0.1001 -0.4329 -1.4282
  668MOL0     H90172   0.479  -0.402  10.133  0.7125  2.1184  0.8611
  668MOL0     H90173   0.297  -0.416  10.097 -0.7741  1.3299 -2.1407
  668MOL0     H90174   0.278  -0.201  10.029 -0.4715  0.2069 -0.0425
  668MOL0     H90175   0.310  -0.207  10.196 -1.0184  0.3870 -1.6754
  668MOL0     H90176   0.618   0.031  10.023  0.7234 -0.9657  0.9661
  668MOL0     H90177   0.386  -0.325   9.470  2.5085 -1.7174  2.7429
  668MOL0     H90178   0.336  -0.050   9.249  0.5382 -0.8600 -1.3527
  668MOL0     H90179   0.499  -0.033   9.277 -1.9261  1.0804 -1.3965
  668MOL0     H90180   0.433  -0.200   9.271 -0.7493 -1.0462 -0.0124
  669MOL0     O90181   5.130   1.146   0.232 -0.3244  0.0393  0.2889
  669MOL0     C90182   5.223   1.119   0.312  0.3928 -0.6630  0.5186
  669MOL0     O90183   5.262   0.993   0.351 -0.2181 -0.2835 -1.1398
  669MOL0     C90184   5.221   0.880   0.277  0.1958 -0.7815  0.0230
  669MOL0     C90185   5.197   0.766   0.351 -0.2256  1.1413  0.1706
  669MOL0     C90186   5.156   0.645   0.292 -0.0139  0.4330  0.0804
  669MOL0     C90187   5.125   0.642   0.159  0.5544  0.6031 -0.0368
  669MOL0     O90188   5.078   0.526   0.110  0.1174  0.4303 -0.6384
  669MOL0     C90189   4.979   0.537  -0.004 -0.2276 -1.5701  0.5910
  669MOL0     C90190   4.901   0.418   0.010 -0.3457 -0.4429  1.0074
  669MOL0     C90191   4.784   0.410  -0.092 -0.1616 -0.5118  0.3279
  669MOL0     C90192   4.743   0.263  -0.130 -0.5924 -0.7632 -0.7938
  669MOL0     C90193   4.714   0.177  -0.003 -0.0220  0.1685  0.7347
  669MOL0     C90194   4.621   0.067  -0.040  1.4863  0.1839  0.2321
  669MOL0     C90195   4.592  -0.015   0.078  0.2473 -0.1561  0.5621
  669MOL0     C90196   4.501  -0.138   0.051  0.2087 -0.0569 -0.3091
  669MOL0     N90197   4.459  -0.180   0.183  0.0778 -0.4741 -0.1292
  669MOL0     C90198   4.520  -0.270   0.270 -0.2445 -0.0722 -0.2673
  669MOL0     C90199   4.420  -0.294   0.359  0.5466 -0.3125  1.3367
  669MOL0     C90200   4.447  -0.388   0.478  0.0523 -0.6029 -0.1091
  669MOL0     C90201   4.526  -0.324   0.595 -0.9761  0.7258 -0.2292
  669MOL0     C90202   4.444  -0.205   0.652 -0.5185  0.2613 -0.1333
  669MOL0     C90203   4.517  -0.138   0.767 -0.1929  0.5910 -0.5195
  669MOL0     O90204   4.519  -0.234   0.880  0.2634 -0.9214 -0.1408
  669MOL0     C90205   4.413  -0.251   0.966  0.6890 -0.8843  0.5504
  669MOL0     C90206   4.286  -0.192   0.970 -0.6172  0.1174  0.4532
  669MOL0     C90207   4.197  -0.235   1.060  0.7764 -0.0751 -0.4182
  669MOL0     C90208   4.231  -0.307   1.176  0.5043  0.1126 -0.7526
  669MOL0     C90209   4.128  -0.340   1.273 -1.0287 -0.5015 -0.5340
  669MOL0     O90210   4.179  -0.385   1.392 -0.3888  0.0037 -0.4394
  669MOL0     C90211   4.097  -0.442   1.487 -0.7594  0.0559  0.1872
  669MOL0     C90212   4.028  -0.564   1.461  0.0083 -0.0726  0.0250
  669MOL0     C90213   3.933  -0.607   1.559 -0.3811  0.3104  0.4306
  669MOL0     C90214   3.924  -0.558   1.686  0.1174  0.7599 -0.2332
  669MOL0     O90215   3.838  -0.623   1.767 -0.1243  0.2660 -0.8021
  669MOL0     C90216   3.826  -0.580   1.901  0.0304 -0.1474  0.7935
  669MOL0     C90217   3.687  -0.632   1.966 -0.0488 -0.3702 -0.9895
  669MOL0     C90218   3.648  -0.547   2.094  1.2893 -0.0656 -0.1155
  669MOL0     C90219   3.722  -0.595   2.223 -0.1381  0.3635  0.4239
  669MOL0     C90220   3.764  -0.485   2.313 -0.4309  0.2953  0.4922
  669MOL0     C90221   3.832  -0.524   2.435 -1.3771  0.1900  0.7234
  669MOL0     C90222   3.964  -0.588   2.397  0.7716 -0.2668  0.0158
  669MOL0     C90223   4.049  -0.572   2.518 -1.0390 -0.8382 -0.3136
  669MOL0    Cl90224   4.210  -0.642   2.483 -0.5664  0.1132  0.2005
  669MOL0     C90225   4.000  -0.445   1.711  0.6249 -0.7513 -0.9095
  669MOL0     C90226   4.083  -0.378   1.611 -0.3258  0.5342  0.1264
  669MOL0     O90227   4.008  -0.335   1.241  0.1563 -0.0561 -0.2930
  669MOL0     C90228   4.359  -0.357   1.186  0.6673  1.0766 -0.4323
  669MOL0     C90229   4.446  -0.329   1.082 -0.2579 -0.5248  1.1872
  669MOL0     N90230   4.312  -0.210   0.338 -0.7059 -0.5864 -0.3990
  669MOL0     N90231   4.345  -0.135   0.234 -0.0058  0.7929 -0.4341
  669MOL0     C90232   5.155   0.752   0.077 -0.8826 -0.0090  0.0487
  669MOL0     C90233   5.206   0.872   0.139 -0.5186  0.7949  0.9840
  669MOL0     C90234   5.296   1.251   0.343  0.2950  0.1852 -0.8386
  669MOL0     C90235   5.241   1.372   0.303  0.2743  0.3393  0.2219
  669MOL0     C90236   5.292   1.502   0.343  0.7877 -0.4283 -0.6451
  669MOL0     C90237   5.413   1.515   0.421  0.2327 -0.3026 -1.2525
  669MOL0     O90238   5.488   1.627   0.436 -0.3491  0.3627  0.0886
  669MOL0     C90239   5.528   1.693   0.323 -0.5993 -0.6870  0.1763
  669MOL0     C90240   5.677   1.659   0.309  0.4002 -0.8504 -1.0080
  669MOL0     C90241   5.734   1.728   0.176  0.1994  0.5140 -0.1510
  669MOL0     C90242   5.690   1.880   0.179 -0.6357 -0.7749  0.4050
  669MOL0     C90243   5.760   1.959   0.072  0.0204  0.2584  0.7216
  669MOL0     C90244   5.817   2.029  -0.010 -0.0885  0.1884 -0.9084
  669MOL0     C90245   5.468   1.390   0.466  0.8591 -0.1696  0.7429
  669MOL0     C90246   5.416   1.261   0.429  0.3062  0.9185 -0.6304
  669MOL0     C90247   5.490   1.133   0.481  0.5103  0.4926  0.5947
  669MOL0     H90248   5.233   0.775   0.453  1.2310  1.0942 -0.3167
  669MOL0     H90249   5.138   0.551   0.343 -1.0811 -0.0342 -1.0839
  669MOL0     H90250   4.916   0.626   0.002  0.4480 -1.0820  0.5875
  669MOL0     H90251   5.036   0.523  -0.096 -0.9115  1.1942 -0.3474
  669MOL0     H90252   4.854   0.420   0.109 -0.6830  1.7608  0.8487
  669MOL0     H90253   4.969   0.333  -0.002  0.8380  0.5109  0.7693
  669MOL0     H90254   4.812   0.460  -0.186 -0.1245  4.3252  2.6232
  669MOL0     H90255   4.699   0.464  -0.051  0.8304  0.6626  0.9056
  669MOL0     H90256   4.657   0.272  -0.196  0.7013  3.3533 -2.2136
  669MOL0     H90257   4.827   0.227  -0.190  0.9150  1.3982 -0.0948
  669MOL0     H90258   4.807   0.134   0.036 -0.6048 -1.3595  0.5002
  669MOL0     H90259   4.672   0.230   0.082  0.8000  0.2571  1.0959
  669MOL0     H90260   4.527   0.110  -0.075  0.2083 -1.7027  1.1365
  669MOL0     H90261   4.662   0.008  -0.122  1.8737  2.0322 -0.9403
  669MOL0     H90262   4.552   0.034   0.167 -1.3077  0.0837 -0.2237
  669MOL0     H90263   4.688  -0.061   0.105 -0.7862 -2.6388  0.2815
  669MOL0     H90264   4.412  -0.112  -0.007  1.8456  2.0059 -2.0873
  669MOL0     H90265   4.560  -0.217   0.004 -0.0399  0.3310 -1.3105
  669MOL0     H90266   4.611  -0.328   0.269 -0.3088 -0.3304  2.3136
  669MOL0     H90267   4.357  -0.438   0.516  0.5010 -1.0211  0.4321
  669MOL0     H90268   4.513  -0.466   0.439  2.8964  0.4598  2.1824
  669MOL0     H90269   4.551  -0.400   0.670 -0.1727  1.0727 -0.1370
  669MOL0     H90270   4.619  -0.280   0.558 -1.1881  2.0280  0.7145
  669MOL0     H90271   4.343  -0.225   0.689  0.1842 -0.5008  1.4829
  669MOL0     H90272   4.434  -0.130   0.573  0.1875 -1.1890 -1.6415
  669MOL0     H90273   4.463  -0.046   0.790 -0.2525  0.1634  1.2258
  669MOL0     H90274   4.619  -0.113   0.738  0.1772 -0.1996  0.0596
  669MOL0     H90275   4.260  -0.121   0.893  2.3060 -0.1595 -0.9342
  669MOL0     H90276   4.095  -0.199   1.052  0.7820  0.0318 -0.0641
  669MOL0     H90277   4.034  -0.623   1.370  0.9647 -1.6719  1.0862
  669MOL0     H90278   3.876  -0.699   1.558 -0.8183  0.5288  2.0537
  669MOL0     H90279   3.911  -0.626   1.951 -1.3358 -1.4735  1.9952
  669MOL0     H90280   3.828  -0.471   1.914 -2.1808  0.0857 -0.4075
  669MOL0     H90281   3.608  -0.636   1.890  0.2974 -3.2594 -1.3171
  669MOL0     H90282   3.706  -0.736   1.994  0.0838 -0.3264 -0.9211
  669MOL0     H90283   3.670  -0.441   2.078  0.5372  0.2400  0.7956
  669MOL0     H90284   3.540  -0.553   2.104  1.4358 -0.7007  1.4709
  669MOL0     H90285   3.811  -0.641   2.179  0.9992  3.8093 -1.2753
  669MOL0     H90286   3.661  -0.669   2.276  0.5184  1.8211  3.4615
  669MOL0     H90287   3.678  -0.427   2.350 -1.2417 -0.0967 -0.7071
  669MOL0     H90288   3.836  -0.427   2.255  3.0991 -1.1200  3.1472
  669MOL0     H90289   3.846  -0.429   2.487 -0.2110  0.1932  0.4483
  669MOL0     H90290   3.779  -0.606   2.484 -0.7733 -0.3558  0.4922
  669MOL0     H90291   4.012  -0.536   2.314 -1.4678  0.5372 -0.8298
  669MOL0     H90292   3.962  -0.695   2.373  1.3970 -0.6801  1.6408
  669MOL0     H90293   4.057  -0.466   2.541  0.7649 -0.7000 -1.4041
  669MOL0     H90294   4.007  -0.619   2.608 -0.7054  0.4900  0.5663
  669MOL0     H90295   3.998  -0.405   1.812  0.4633  0.4027 -1.3607
  669MOL0     H90296   4.143  -0.290   1.630  0.6787 -0.4275  1.5569
  669MOL0     H90297   4.396  -0.420   1.267  2.4382 -0.6343 -2.4385
  669MOL0     H90298   4.544  -0.376   1.078 -0.1574 -0.3216  1.2374
  669MOL0     H90299   5.127   0.740  -0.027 -2.5418 -3.9165  0.7847
  669MOL0     H90300   5.210   0.960   0.074  1.1442  1.7594  2.3061
  669MOL0     H90301   5.144   1.374   0.255 -1.8986  0.9496  4.1793
  669MOL0     H90302   5.245   1.598   0.330 -2.2042 -1.7903 -0.7522
  669MOL0     H90303   5.518   1.800   0.346 -0.5046 -0.4121 -1.0173
  669MOL0     H90304   5.474   1.668   0.231 -1.3484  0.7669  0.1822
  669MOL0     H90305   5.686   1.550   0.300  3.4490 -1.0205  1.9873
  669MOL0     H90306   5.734   1.676   0.401  0.2759 -1.9825 -0.7005
  669MOL0     H90307   5.700   1.669   0.090 -0.8770 -2.8362  2.3477
  669MOL0     H90308   5.843   1.723   0.177  0.1640 -0.7462  1.4196
  669MOL0     H90309   5.582   1.895   0.170 -0.3686  0.7115 -0.7865
  669MOL0     H90310   5.730   1.936   0.263  1.3503 -0.9058 -0.3753
  669MOL0     H90311   5.849   2.091  -0.091  2.2214  0.5416  0.2239
  669MOL0     H90312   5.559   1.382   0.525  0.2584 -2.4143  1.4557
  669MOL0     H90313   5.528   1.077   0.396  1.4959 -0.5615  1.7009
  669MOL0     H90314   5.575   1.155   0.546  1.8812  0.6155 -1.1776
  669MOL0     H90315   5.416   1.076   0.538 -1.7561  1.4088 -1.2605
  670MOL0     O90316   4.970   9.732   3.396  0.3197 -0.2205  0.0099
  670MOL0     C90317   4.899   9.803   3.320  0.7917 -1.5018 -0.1440
  670MOL0     O90318   4.777   9.773   3.272  0.3319  0.6700 -0.3603
  670MOL0     C90319   4.708   9.667   3.322 -0.1610 -0.5304 -0.1482
  670MOL0     C90320   4.580   9.689   3.377  1.3179  0.0317  0.3746
  670MOL0     C90321   4.507   9.579   3.431  1.0509 -0.1345 -0.6895
  670MOL0     C90322   4.570   9.446   3.448  0.3462 -0.5962  0.1682
  670MOL0     O90323   4.521   9.344   3.520  0.1400 -0.1743 -0.0657
  670MOL0     C90324   4.380   9.336   3.556  0.3909 -1.3397 -0.2850
  670MOL0     C90325   4.369   9.224   3.654 -0.2786  0.9043  0.0829
  670MOL0     C90326   4.236   9.247   3.742  0.9587 -0.3681 -0.5307
  670MOL0     C90327   4.213   9.159   3.873 -0.8069 -0.2845  0.5618
  670MOL0     C90328   4.237   9.010   3.849 -0.9269 -0.1957  0.2171
  670MOL0     C90329   4.159   8.965   3.718 -0.1366  0.1871  0.6827
  670MOL0     C90330   4.176   8.814   3.698  1.3487 -0.6590  0.0482
  670MOL0     C90331   4.126   8.765   3.558  0.1977 -0.3033 -0.5364
  670MOL0     N90332   4.128   8.615   3.548  0.0811  0.5686 -0.1504
  670MOL0     C90333   4.068   8.521   3.628 -0.6439 -0.5486 -0.6047
  670MOL0     C90334   4.102   8.400   3.582 -0.2699 -0.8399 -0.8578
  670MOL0     C90335   4.058   8.270   3.638  0.3603 -0.7283 -0.0724
  670MOL0     C90336   3.930   8.214   3.578 -0.5293  0.4792 -0.3250
  670MOL0     C90337   3.914   8.071   3.618 -0.4488 -0.0984 -0.6490
  670MOL0     C90338   3.785   8.008   3.565  0.3522  0.2686 -0.2579
  670MOL0     O90339   3.762   7.877   3.605 -0.1034  0.2191 -0.2095
  670MOL0     C90340   3.644   7.815   3.567 -0.4548 -0.2932 -1.2932
  670MOL0     C90341   3.629   7.688   3.605 -0.9161  0.1459 -0.6677
  670MOL0     C90342   3.519   7.619   3.565 -0.0985 -0.4022  1.0177
  670MOL0     C90343   3.416   7.674   3.480 -0.5371  0.0136 -0.4681
  670MOL0     C90344   3.306   7.591   3.423 -0.3128 -0.8606 -0.1349
  670MOL0     O90345   3.223   7.659   3.342  0.7262  0.5571 -0.2362
  670MOL0     C90346   3.168   7.602   3.227  0.6941  0.5032 -0.1599
  670MOL0     C90347   3.062   7.671   3.166 -0.5835  0.3922  0.0833
  670MOL0     C90348   2.995   7.621   3.051  0.2613  0.5042 -0.4147
  670MOL0     C90349   3.042   7.502   2.998 -0.2486  0.6064  0.3498
  670MOL0     O90350   2.972   7.466   2.892 -0.0998  0.1575  0.4770
  670MOL0     C90351   3.009   7.343   2.815  0.4381 -0.9193  0.2686
  670MOL0     C90352   2.915   7.351   2.696  0.0271  0.5007 -0.0397
  670MOL0     C90353   2.769   7.344   2.719 -0.0396 -0.4693 -0.3861
  670MOL0     C90354   2.690   7.390   2.594 -0.6451  0.0119  0.3604
  670MOL0     C90355   2.549   7.427   2.637 -0.4093  0.4096 -0.2835
  670MOL0     C90356   2.485   7.302   2.702 -0.0681 -0.1675  0.3506
  670MOL0     C90357   2.349   7.325   2.776 -0.0288  0.0347  0.2097
  670MOL0     C90358   2.286   7.196   2.804 -0.0627 -0.0338 -0.8464
  670MOL0    Cl90359   2.248   7.104   2.657 -0.2218 -0.2618  0.2442
  670MOL0     C90360   3.158   7.437   3.053 -0.3031  0.0981 -0.1882
  670MOL0     C90361   3.214   7.480   3.175  1.1553 -0.4603  0.3731
  670MOL0     O90362   3.306   7.476   3.453 -0.4314 -0.1057 -0.5371
  670MOL0     C90363   3.441   7.811   3.441  0.7519  0.0459 -0.5648
  670MOL0     C90364   3.545   7.882   3.495  0.0963 -0.4385  0.4847
  670MOL0     N90365   4.182   8.414   3.473 -0.2680 -0.1558  0.5118
  670MOL0     N90366   4.195   8.545   3.457  0.7069 -0.0092  0.5613
  670MOL0     C90367   4.696   9.433   3.390  1.1017  0.0338 -0.3196
  670MOL0     C90368   4.761   9.543   3.327 -0.1699  0.5165  0.7253
  670MOL0     C90369   4.967   9.894   3.234  0.2348 -0.1869 -0.8280
  670MOL0     C90370   4.974  10.031   3.263 -0.5459  0.7492  0.1377
  670MOL0     C90371   5.055  10.119   3.194  0.7740 -0.4068 -0.1015
  670MOL0     C90372   5.117  10.077   3.071  0.7402 -0.5127 -0.3946
  670MOL0     O90373   5.166  10.181   2.999  0.4051 -0.3901  0.3525
  670MOL0     C90374   5.311  10.201   3.005  1.1775  0.1178  0.2202
  670MOL0     C90375   5.364  10.119   2.890  0.5368  0.9227 -0.5448
  670MOL0     C90376   5.513  10.163   2.853 -0.1590 -0.2538  0.8495
  670MOL0     C90377   5.617  10.120   2.946 -0.1607 -0.7063 -0.2253
  670MOL0     C90378   5.606   9.973   2.984  0.0303  0.3633 -0.5946
  670MOL0     C90379   5.590   9.856   3.017 -0.0864 -0.3900  0.0784
  670MOL0     C90380   5.112   9.943   3.033 -0.0326  0.4457 -0.3919
  670MOL0     C90381   5.031   9.852   3.111 -0.0198 -0.4877 -0.6203
  670MOL0     C90382   5.024   9.705   3.066 -0.8550  0.0438 -0.1905
  670MOL0     H90383   4.543   9.791   3.377 -1.3051 -0.6889 -3.6112
  670MOL0     H90384   4.407   9.607   3.461  0.2916 -0.3724 -2.7700
  670MOL0     H90385   4.352   9.429   3.606 -2.2798 -0.3736 -3.2311
  670MOL0     H90386   4.312   9.315   3.473  1.4273  0.3767 -1.6478
  670MOL0     H90387   4.453   9.218   3.724 -1.6988 -0.7986  1.7595
  670MOL0     H90388   4.354   9.132   3.595  1.4607  0.7558 -0.1997
  670MOL0     H90389   4.147   9.231   3.681  1.1707 -1.5507 -0.5512
  670MOL0     H90390   4.235   9.348   3.785  1.4528 -1.2214  1.6157
  670MOL0     H90391   4.283   9.190   3.951  2.0257 -3.1863 -0.5778
  670MOL0     H90392   4.115   9.183   3.915  0.0372  0.6529  2.0983
  670MOL0     H90393   4.340   8.979   3.828 -0.4896 -0.8765  3.0519
  670MOL0     H90394   4.218   8.949   3.938  0.3727  0.6599  1.1087
  670MOL0     H90395   4.054   8.988   3.740  0.7274  5.2945  0.6161
  670MOL0     H90396   4.199   9.015   3.630  4.6829  0.2146  2.6002
  670MOL0     H90397   4.120   8.761   3.775  0.2948 -0.8674 -0.8460
  670MOL0     H90398   4.284   8.800   3.709  0.9418 -2.7046  2.2753
  670MOL0     H90399   4.026   8.805   3.538  0.1241 -0.0273  0.3587
  670MOL0     H90400   4.194   8.808   3.484 -3.0886  2.8241 -2.0396
  670MOL0     H90401   4.007   8.544   3.714 -3.2095  0.9644 -2.6780
  670MOL0     H90402   4.137   8.198   3.614  1.7619  0.7939 -0.1299
  670MOL0     H90403   4.039   8.284   3.744 -2.1873  2.9137 -0.8274
  670MOL0     H90404   3.847   8.277   3.612 -0.4887  1.3528 -1.8095
  670MOL0     H90405   3.937   8.212   3.469  3.7479 -0.1549 -0.2131
  670MOL0     H90406   3.937   8.067   3.725 -0.3625 -1.2347 -0.6978
  670MOL0     H90407   4.001   8.018   3.579  0.4963  2.7569 -2.7283
  670MOL0     H90408   3.767   8.023   3.458  2.6130 -0.1283 -0.7422
  670MOL0     H90409   3.712   8.052   3.634  1.5614 -0.9225  1.8762
  670MOL0     H90410   3.703   7.643   3.670 -1.7489  0.1047  0.2768
  670MOL0     H90411   3.494   7.520   3.601  0.1859 -1.6293 -1.8959
  670MOL0     H90412   3.026   7.763   3.211  2.3712  1.2402  0.9482
  670MOL0     H90413   2.914   7.665   2.994  0.6395 -3.3022 -4.4927
  670MOL0     H90414   3.111   7.324   2.779 -0.0145 -1.4877 -0.7757
  670MOL0     H90415   2.993   7.251   2.873  1.9298 -2.8589 -2.1798
  670MOL0     H90416   2.944   7.440   2.640  0.7192 -0.3067 -1.0016
  670MOL0     H90417   2.947   7.266   2.635  2.0498 -0.0174  1.6293
  670MOL0     H90418   2.758   7.237   2.743 -2.9871 -0.2199 -0.2911
  670MOL0     H90419   2.745   7.404   2.807  3.0670 -1.1390  1.0848
  670MOL0     H90420   2.685   7.301   2.530 -0.2057  0.6453 -0.5773
  670MOL0     H90421   2.746   7.466   2.538  0.1444 -1.4339 -0.8929
  670MOL0     H90422   2.498   7.454   2.544 -1.3335 -1.4320 -0.3683
  670MOL0     H90423   2.546   7.507   2.711 -0.0044 -0.4994  0.7353
  670MOL0     H90424   2.470   7.235   2.616 -1.4235  0.3060  0.1844
  670MOL0     H90425   2.558   7.249   2.764 -1.1921 -1.2303  0.8271
  670MOL0     H90426   2.277   7.392   2.729 -0.4945  0.1427  1.0521
  670MOL0     H90427   2.373   7.377   2.870 -3.8177  3.7255 -0.5799
  670MOL0     H90428   2.355   7.133   2.860  1.0216  0.8429 -1.1534
  670MOL0     H90429   2.191   7.211   2.856 -1.3654 -1.6315 -2.6007
  670MOL0     H90430   3.191   7.343   3.011  0.7992 -1.7169  4.1721
  670MOL0     H90431   3.281   7.421   3.236  1.4412  0.7078  1.2328
  670MOL0     H90432   3.373   7.856   3.369 -0.8127 -2.4742 -0.7892
  670MOL0     H90433   3.547   7.986   3.464 -0.0695 -1.1818 -2.2717
  670MOL0     H90434   4.737   9.333   3.392 -0.9928 -1.1100 -4.0667
  670MOL0     H90435   4.857   9.530   3.278 -1.2303  0.6158 -1.5205
  670MOL0     H90436   4.926  10.052   3.358 -2.1309 -1.2185 -0.1479
  670MOL0     H90437   5.064  10.222   3.225 -1.0821 -0.3555  0.3489
  670MOL0     H90438   5.357  10.173   3.101  1.0073  2.7464  1.1546
  670MOL0     H90439   5.330  10.307   2.989 -0.4188  0.2770 -0.7679
  670MOL0     H90440   5.307  10.138   2.798  0.8993  0.5251 -0.8558
  670MOL0     H90441   5.344  10.015   2.915 -3.2049  1.5090 -0.4487
  670MOL0     H90442   5.517  10.271   2.837  2.9007 -0.3795  0.2693
  670MOL0     H90443   5.545  10.118   2.759 -0.7398  0.6471  0.2033
  670MOL0     H90444   5.716  10.144   2.906  0.0644  0.9110  1.2279
  670MOL0     H90445   5.611  10.171   3.042  1.8478 -2.8530  1.1555
  670MOL0     H90446   5.598   9.754   3.050  0.3616 -0.8701 -1.3988
  670MOL0     H90447   5.147   9.907   2.937 -0.7787  1.3829 -1.0328
  670MOL0     H90448   5.091   9.693   2.980 -0.0263  1.3819  0.2364
  670MOL0     H90449   5.061   9.639   3.145  1.2170 -0.0267 -1.1443
  670MOL0     H90450   4.921   9.682   3.040 -0.8142 -2.0798  1.3239
  671MOL0     O90451   1.413   4.448   2.874  0.4005 -0.2062 -0.6774
  671MOL0     C90452   1.477   4.347   2.863 -0.8163 -0.5196  0.3618
  671MOL0     O90453   1.588   4.328   2.781 -0.1671 -0.6812  0.3125
  671MOL0     C90454   1.624   4.437   2.709  0.6374  0.2522  0.3199
  671MOL0     C90455   1.721   4.532   2.744  0.2124 -0.6845  0.1515
  671MOL0     C90456   1.762   4.627   2.645 -0.2066 -0.4539  0.1147
  671MOL0     C90457   1.686   4.653   2.526  0.7286 -0.3199 -0.3184
  671MOL0     O90458   1.725   4.735   2.420 -0.1712 -0.0888  0.1440
  671MOL0     C90459   1.822   4.832   2.454 -0.5142 -0.1870 -0.2084
  671MOL0     C90460   1.871   4.924   2.342  0.2640  0.6276  0.3170
  671MOL0     C90461   1.758   5.006   2.269  0.4354 -0.3433  0.1255
  671MOL0     C90462   1.816   5.052   2.140 -0.4972  0.5596  0.1079
  671MOL0     C90463   1.730   5.127   2.042  0.2509  0.0483  0.1961
  671MOL0     C90464   1.704   5.265   2.095 -0.3713 -0.8657 -0.2455
  671MOL0     C90465   1.643   5.363   1.991  0.7779 -0.6715 -0.2281
  671MOL0     C90466   1.488   5.343   1.974 -0.3917 -0.3695  0.1847
  671MOL0     N90467   1.424   5.455   1.899  0.3609  0.6584  0.0044
  671MOL0     C90468   1.430   5.489   1.769 -0.6858  0.0995 -0.1655
  671MOL0     C90469   1.346   5.588   1.747 -0.4071  0.3517  0.2790
  671MOL0     C90470   1.344   5.674   1.630 -0.3700  0.0485 -0.3913
  671MOL0     C90471   1.480   5.747   1.613  0.4415  0.1384 -0.8442
  671MOL0     C90472   1.466   5.832   1.493  0.0376 -0.8853  0.0426
  671MOL0     C90473   1.599   5.900   1.461 -0.6307  0.6884  0.1371
  671MOL0     O90474   1.601   5.999   1.351  0.2950 -1.0421  1.3890
  671MOL0     C90475   1.602   5.951   1.217  0.4692  0.3241  0.2223
  671MOL0     C90476   1.601   5.813   1.181  0.3929  0.1243  1.2741
  671MOL0     C90477   1.609   5.775   1.049  0.0758 -0.5097 -0.5445
  671MOL0     C90478   1.609   5.868   0.938 -0.2736 -0.4334 -0.6235
  671MOL0     C90479   1.605   5.828   0.797 -0.0152  0.1975 -0.0790
  671MOL0     O90480   1.625   5.914   0.701 -0.7186 -0.4207 -0.6060
  671MOL0     C90481   1.628   5.873   0.569  0.6231  0.9195  0.5186
  671MOL0     C90482   1.748   5.856   0.505  0.1177  0.0237  0.3716
  671MOL0     C90483   1.747   5.826   0.367 -0.3417 -0.5813 -0.4360
  671MOL0     C90484   1.621   5.815   0.297 -0.4749 -0.7602  0.2027
  671MOL0     O90485   1.614   5.763   0.163  0.3626 -0.4094 -0.4003
  671MOL0     C90486   1.701   5.650   0.144 -0.9278 -0.8616 -0.3887
  671MOL0     C90487   1.676   5.591   0.010 -0.3828 -0.2264  1.0946
  671MOL0     C90488   1.731   5.675  -0.108 -0.0758  0.0866 -1.3989
  671MOL0     C90489   1.676   5.596  -0.230 -0.5124  0.1533 -0.2653
  671MOL0     C90490   1.714   5.661  -0.359  0.3715 -0.8607  0.4911
  671MOL0     C90491   1.638   5.601  -0.472  0.4778  0.2710 -0.0753
  671MOL0     C90492   1.659   5.680  -0.606 -0.5605  0.5096 -0.5349
  671MOL0     C90493   1.584   5.613  -0.716  0.2212  0.2448 -1.0994
  671MOL0    Cl90494   1.404   5.577  -0.690  0.2936  0.5378  0.5587
  671MOL0     C90495   1.511   5.820   0.365  1.2401  0.1762 -0.4927
  671MOL0     C90496   1.506   5.838   0.500 -0.2174 -0.0664 -1.6527
  671MOL0     O90497   1.565   5.714   0.788 -0.3228  0.2850  0.2008
  671MOL0     C90498   1.627   5.998   0.978 -0.5345  0.5892 -0.0520
  671MOL0     C90499   1.624   6.050   1.111 -0.4541  0.9507 -0.4692
  671MOL0     N90500   1.282   5.615   1.869  0.1070 -0.2505  0.0387
  671MOL0     N90501   1.337   5.538   1.959  0.1488 -0.4647 -0.2063
  671MOL0     C90502   1.575   4.575   2.507 -0.9947  0.7720  0.0148
  671MOL0     C90503   1.550   4.468   2.587  0.1811 -0.1916  0.0980
  671MOL0     C90504   1.423   4.231   2.930  0.5380 -0.8669 -0.3638
  671MOL0     C90505   1.396   4.104   2.869  0.2047 -0.1176  0.3983
  671MOL0     C90506   1.338   3.995   2.934  0.5361 -0.1966 -0.3093
  671MOL0     C90507   1.295   4.015   3.071  0.1101 -0.0689  0.3343
  671MOL0     O90508   1.243   3.903   3.127 -0.7664  0.3205 -0.1001
  671MOL0     C90509   1.325   3.839   3.230  0.6304 -0.6319 -0.1904
  671MOL0     C90510   1.241   3.751   3.321  0.0467  0.2720  0.6045
  671MOL0     C90511   1.178   3.630   3.251 -0.0955 -0.2983  0.6750
  671MOL0     C90512   1.124   3.525   3.349 -0.1606 -0.9975  0.2353
  671MOL0     C90513   1.004   3.577   3.418  0.1447 -0.5527  0.5799
  671MOL0     C90514   0.907   3.584   3.482  0.3232  0.1989  0.2706
  671MOL0     C90515   1.309   4.141   3.134  0.0298 -0.1879 -0.3219
  671MOL0     C90516   1.377   4.240   3.061  0.1480 -0.4959 -0.1478
  671MOL0     C90517   1.401   4.370   3.138  0.1096 -0.0532 -0.3090
  671MOL0     H90518   1.779   4.525   2.835 -3.1988  1.2993  2.7261
  671MOL0     H90519   1.848   4.690   2.667 -0.7080  0.0868  0.5489
  671MOL0     H90520   1.784   4.885   2.541 -0.8073 -0.2202 -0.3140
  671MOL0     H90521   1.912   4.783   2.492 -0.3068  0.7852  0.5746
  671MOL0     H90522   1.939   4.873   2.273  0.6374 -0.2360  1.3038
  671MOL0     H90523   1.936   4.997   2.391 -3.4977  2.1762  3.5585
  671MOL0     H90524   1.738   5.089   2.337  1.3500  0.4451 -0.5340
  671MOL0     H90525   1.673   4.944   2.240  0.4309  0.0919 -0.8485
  671MOL0     H90526   1.908   5.110   2.154 -1.4516  2.0909  0.2689
  671MOL0     H90527   1.850   4.964   2.085 -1.1923  1.2412 -1.4663
  671MOL0     H90528   1.786   5.146   1.950 -0.3388  1.3705  0.0875
  671MOL0     H90529   1.639   5.073   2.017  1.9106 -2.5349 -0.7236
  671MOL0     H90530   1.637   5.261   2.181 -1.4038 -0.3843 -1.0172
  671MOL0     H90531   1.798   5.313   2.125  0.7931 -1.4504 -2.6902
  671MOL0     H90532   1.693   5.355   1.895  0.9203 -0.6277 -0.1571
  671MOL0     H90533   1.664   5.464   2.026  0.0891 -0.3030 -0.8388
  671MOL0     H90534   1.466   5.254   1.913  0.2177  0.0989 -0.7481
  671MOL0     H90535   1.439   5.310   2.066 -1.4161 -1.6310 -0.7637
  671MOL0     H90536   1.504   5.470   1.692 -1.9553  3.2011 -2.3644
  671MOL0     H90537   1.330   5.613   1.540  1.4775  1.1441 -1.4910
  671MOL0     H90538   1.259   5.742   1.630 -0.5026 -0.1145 -0.1361
  671MOL0     H90539   1.497   5.795   1.710  0.2994 -2.5489  0.6114
  671MOL0     H90540   1.562   5.675   1.605  1.0328  0.3409  2.0974
  671MOL0     H90541   1.400   5.915   1.519  0.8414 -0.0270 -0.5957
  671MOL0     H90542   1.427   5.779   1.406  1.0845 -1.9317  0.1740
  671MOL0     H90543   1.679   5.825   1.454  1.8697  3.0169  1.7565
  671MOL0     H90544   1.624   5.959   1.549  0.4345 -0.0299  0.3334
  671MOL0     H90545   1.579   5.736   1.254  1.0883 -1.1024  0.2292
  671MOL0     H90546   1.613   5.668   1.031  2.4765 -1.2937  3.5024
  671MOL0     H90547   1.850   5.878   0.536  1.6769 -2.1842 -2.6810
  671MOL0     H90548   1.839   5.815   0.311 -1.0981  1.9668 -2.3735
  671MOL0     H90549   1.802   5.693   0.145 -1.0842 -0.4808  1.0240
  671MOL0     H90550   1.703   5.572   0.221  0.0441 -1.4507 -0.9987
  671MOL0     H90551   1.721   5.492   0.006 -1.9901 -1.0059  1.4523
  671MOL0     H90552   1.567   5.587   0.005 -0.3172 -1.1803 -2.3540
  671MOL0     H90553   1.699   5.780  -0.112 -0.4528  0.2028  1.7834
  671MOL0     H90554   1.839   5.672  -0.089 -0.4307  0.6614  1.0325
  671MOL0     H90555   1.567   5.591  -0.223 -0.3684 -1.2355  1.3918
  671MOL0     H90556   1.721   5.497  -0.237  0.9335  0.5586  2.1008
  671MOL0     H90557   1.823   5.664  -0.370  0.5567 -2.6317  1.4792
  671MOL0     H90558   1.683   5.765  -0.364  2.9499 -0.0028  0.7984
  671MOL0     H90559   1.681   5.501  -0.482  2.1176  0.7672  1.4238
  671MOL0     H90560   1.531   5.592  -0.453  0.4796 -2.1174 -0.8903
  671MOL0     H90561   1.766   5.680  -0.627 -0.1635 -3.5271  0.6362
  671MOL0     H90562   1.634   5.786  -0.613  0.1442  0.6375 -1.1610
  671MOL0     H90563   1.599   5.670  -0.808  1.2346  3.1955  0.7658
  671MOL0     H90564   1.631   5.515  -0.719 -1.2612 -0.6226  1.1007
  671MOL0     H90565   1.422   5.800   0.306  0.8413  1.8970 -0.5319
  671MOL0     H90566   1.413   5.847   0.555  1.9361  1.8786  2.0510
  671MOL0     H90567   1.641   6.064   0.893  0.5124 -1.8584 -1.8961
  671MOL0     H90568   1.629   6.157   1.129 -0.6019  1.8745 -4.7869
  671MOL0     H90569   1.520   4.589   2.415  0.6829  0.8997 -0.9961
  671MOL0     H90570   1.469   4.410   2.543  0.8335  0.2762 -1.8254
  671MOL0     H90571   1.429   4.086   2.767 -0.1952  0.0156  0.2441
  671MOL0     H90572   1.328   3.900   2.882  0.2769  0.8206 -2.1998
  671MOL0     H90573   1.379   3.909   3.295  1.2650  0.9448 -2.2630
  671MOL0     H90574   1.398   3.765   3.197  0.5861 -0.3426 -0.9730
  671MOL0     H90575   1.152   3.792   3.370 -1.9297 -4.1470  1.2333
  671MOL0     H90576   1.302   3.724   3.407 -2.7265  1.7876  3.2079
  671MOL0     H90577   1.259   3.575   3.202 -1.8159 -1.6117 -0.8348
  671MOL0     H90578   1.109   3.663   3.174  0.7483 -1.4477 -0.6164
  671MOL0     H90579   1.103   3.434   3.293 -3.8023 -1.4266  1.9965
  671MOL0     H90580   1.200   3.497   3.423  0.1677 -1.3818 -0.2448
  671MOL0     H90581   0.815   3.584   3.537 -1.0749  0.8046 -1.9663
  671MOL0     H90582   1.270   4.149   3.234  2.7798 -0.1831  0.8318
  671MOL0     H90583   1.480   4.434   3.097  0.4033  0.3582  0.8487
  671MOL0     H90584   1.311   4.431   3.136  0.5866  1.0730  3.6562
  671MOL0     H90585   1.420   4.339   3.241  1.3750  0.8085 -0.2629
  672MOL0     O90586   0.882   5.885   5.808  1.4329 -0.4429 -0.3464
  672MOL0     C90587   0.928   5.812   5.718  0.0562 -1.2468  0.0242
  672MOL0     O90588   1.058   5.827   5.671 -0.4842 -0.0525  0.6295
  672MOL0     C90589   1.143   5.917   5.736 -0.3062  0.4990  0.4977
  672MOL0     C90590   1.119   6.052   5.724 -0.8520  0.0845 -0.3012
  672MOL0     C90591   1.188   6.147   5.797 -0.0846  0.6645 -0.4114
  672MOL0     C90592   1.291   6.108   5.878 -1.5734  0.0986  0.0045
  672MOL0     O90593   1.374   6.206   5.942  0.2480 -0.1524  0.3329
  672MOL0     C90594   1.485   6.166   6.019  0.1252 -0.4648 -0.9079
  672MOL0     C90595   1.581   6.280   6.036  0.1704  0.0070  0.4511
  672MOL0     C90596   1.675   6.264   6.153  0.0309 -1.1037  0.7805
  672MOL0     C90597   1.779   6.377   6.151 -0.0590  1.0412  0.4776
  672MOL0     C90598   1.861   6.352   6.285 -1.1940  0.5953  0.0658
  672MOL0     C90599   1.973   6.448   6.313 -0.4589  0.4318  0.4950
  672MOL0     C90600   2.083   6.384   6.395  0.3772 -0.6399  0.4275
  672MOL0     C90601   2.204   6.474   6.403  0.2682 -0.1128 -0.1650
  672MOL0     N90602   2.307   6.387   6.468  0.1085  0.4920 -0.6790
  672MOL0     C90603   2.342   6.386   6.598  0.5538 -0.5636  0.3181
  672MOL0     C90604   2.434   6.289   6.603 -0.1454  0.0452 -0.2133
  672MOL0     C90605   2.530   6.254   6.711 -0.4401 -1.0718  0.5013
  672MOL0     C90606   2.523   6.107   6.761  0.3923  0.3585 -0.0785
  672MOL0     C90607   2.387   6.090   6.842 -0.4904 -0.8645  0.0186
  672MOL0     C90608   2.381   5.960   6.927 -0.0886 -0.6403  0.1482
  672MOL0     O90609   2.508   5.923   6.979 -0.6762 -0.1250 -0.6025
  672MOL0     C90610   2.518   5.882   7.109  0.2930 -0.4911 -0.2235
  672MOL0     C90611   2.453   5.953   7.213  0.0785  0.7831 -0.7109
  672MOL0     C90612   2.462   5.902   7.346  0.2975  0.3897  0.9845
  672MOL0     C90613   2.541   5.789   7.378 -0.5552  0.4658 -0.7483
  672MOL0     C90614   2.572   5.749   7.518 -0.1159  0.5555 -0.7931
  672MOL0     O90615   2.654   5.634   7.543 -0.8506 -0.1558 -0.0220
  672MOL0     C90616   2.725   5.635   7.657 -0.3178  0.3233 -0.3953
  672MOL0     C90617   2.830   5.726   7.671  0.2028  0.1547 -0.3624
  672MOL0     C90618   2.911   5.730   7.783  0.8418 -0.0016  0.4985
  672MOL0     C90619   2.908   5.633   7.879 -0.0553 -0.3490 -0.1184
  672MOL0     O90620   3.007   5.627   7.966 -0.0501 -0.1625  0.7907
  672MOL0     C90621   3.001   5.542   8.081 -0.0549 -0.4639  0.4001
  672MOL0     C90622   3.041   5.402   8.036 -0.5266  0.7104  0.1655
  672MOL0     C90623   3.082   5.329   8.164 -0.3586  0.7168 -0.2235
  672MOL0     C90624   3.221   5.366   8.220 -0.5694 -0.0438  0.4798
  672MOL0     C90625   3.286   5.245   8.286  0.0833 -0.9408  0.0741
  672MOL0     C90626   3.213   5.200   8.418 -0.0637 -0.0648  0.5500
  672MOL0     C90627   3.311   5.115   8.502  0.7147 -0.1474 -0.2982
  672MOL0     C90628   3.250   5.070   8.651 -0.3869  0.6098 -0.9992
  672MOL0    Cl90629   3.367   4.957   8.745  0.2169 -0.2164  0.3394
  672MOL0     C90630   2.793   5.554   7.876  0.5856  0.2614 -0.5270
  672MOL0     C90631   2.706   5.547   7.766  0.3940  0.0226  0.4057
  672MOL0     O90632   2.521   5.813   7.604  0.3989  0.3239  0.5089
  672MOL0     C90633   2.612   5.725   7.273  0.3896 -0.3804 -0.2005
  672MOL0     C90634   2.602   5.767   7.139  1.2057  1.0055  0.0853
  672MOL0     N90635   2.450   6.232   6.478  0.4214  0.3823 -0.0411
  672MOL0     N90636   2.384   6.298   6.394 -0.3562  0.0857 -0.5448
  672MOL0     C90637   1.330   5.974   5.876  0.0791  0.1475 -0.4705
  672MOL0     C90638   1.261   5.872   5.800  0.3637 -0.2953 -0.5469
  672MOL0     C90639   0.838   5.725   5.648  0.6245  1.3526  0.3086
  672MOL0     C90640   0.744   5.645   5.727 -0.3041  0.4691  0.2137
  672MOL0     C90641   0.649   5.566   5.659 -1.2568 -1.0328 -0.4329
  672MOL0     C90642   0.641   5.569   5.520 -0.2067  1.0843 -0.0945
  672MOL0     O90643   0.532   5.494   5.467 -0.2700 -0.2643  0.2249
  672MOL0     C90644   0.513   5.493   5.319 -1.2350 -0.1102  0.0967
  672MOL0     C90645   0.428   5.615   5.273  1.2952  0.5608 -0.5436
  672MOL0     C90646   0.281   5.617   5.317 -0.8339  0.3577 -0.2624
  672MOL0     C90647   0.212   5.746   5.273  0.1445  0.4505 -0.0504
  672MOL0     C90648   0.104   5.721   5.167 -0.1215  0.3713  0.9004
  672MOL0     C90649   0.028   5.686   5.085  0.7770 -0.5829  0.6018
  672MOL0     C90650   0.730   5.653   5.447  0.3888  0.3945 -0.1577
  672MOL0     C90651   0.827   5.726   5.505 -0.4274  0.8438 -0.4020
  672MOL0     C90652   0.916   5.813   5.416  0.0542 -0.3187 -0.6676
  672MOL0     H90653   1.053   6.099   5.653 -2.1966  1.2446  1.6360
  672MOL0     H90654   1.166   6.253   5.796 -1.7057  0.3504 -0.9217
  672MOL0     H90655   1.443   6.142   6.117 -1.2573  1.6133 -0.9219
  672MOL0     H90656   1.545   6.084   5.977  0.7710  1.4309 -4.0547
  672MOL0     H90657   1.524   6.373   6.040 -0.4292 -0.4064  2.3792
  672MOL0     H90658   1.642   6.287   5.945 -1.3863 -1.9770 -0.8470
  672MOL0     H90659   1.726   6.168   6.142 -1.3367 -1.5431 -2.5360
  672MOL0     H90660   1.630   6.258   6.253 -1.2203 -0.3191  0.2734
  672MOL0     H90661   1.853   6.361   6.072  2.3737  2.4657  2.3217
  672MOL0     H90662   1.718   6.468   6.148 -0.4978  0.7455 -2.5540
  672MOL0     H90663   1.798   6.368   6.373 -0.5897  0.1371  0.5958
  672MOL0     H90664   1.909   6.253   6.288  1.1877  1.5761 -1.7054
  672MOL0     H90665   2.012   6.453   6.211 -0.3008 -3.0574  0.2737
  672MOL0     H90666   1.939   6.542   6.358  0.7410  2.0334 -1.7386
  672MOL0     H90667   2.113   6.286   6.356 -3.4989 -1.8720  0.1729
  672MOL0     H90668   2.040   6.375   6.495  1.4299 -1.0736  0.8532
  672MOL0     H90669   2.230   6.507   6.301 -1.9535 -2.4098 -1.6100
  672MOL0     H90670   2.181   6.567   6.456 -1.7299 -0.8247  0.3036
  672MOL0     H90671   2.323   6.455   6.679 -0.9345 -0.3967 -0.1254
  672MOL0     H90672   2.629   6.265   6.665  0.0534  2.1930  2.1022
  672MOL0     H90673   2.527   6.327   6.793 -0.6862  0.6483 -0.9895
  672MOL0     H90674   2.547   6.036   6.681  3.8153  1.9109 -0.6412
  672MOL0     H90675   2.606   6.104   6.832 -0.8308 -0.6231  1.3749
  672MOL0     H90676   2.298   6.095   6.780 -1.1924  3.0389  1.0882
  672MOL0     H90677   2.384   6.180   6.903 -1.3227 -1.6171  1.1351
  672MOL0     H90678   2.367   5.877   6.856  0.7897 -1.8711  1.3723
  672MOL0     H90679   2.299   5.969   6.998 -3.3322 -3.9362 -2.7494
  672MOL0     H90680   2.406   6.050   7.203  0.0140  0.7024 -1.1920
  672MOL0     H90681   2.418   5.961   7.426 -0.1277  3.5612 -1.3882
  672MOL0     H90682   2.836   5.800   7.591 -0.0990 -0.3040 -0.8120
  672MOL0     H90683   2.997   5.796   7.783  0.0981  0.9949 -0.0090
  672MOL0     H90684   3.067   5.591   8.153  0.9606 -0.7545 -0.3073
  672MOL0     H90685   2.899   5.556   8.116 -0.0887 -0.7458  0.4162
  672MOL0     H90686   2.959   5.347   7.989 -0.2303 -0.1669  0.6519
  672MOL0     H90687   3.116   5.395   7.957  0.5592 -3.7908  1.2678
  672MOL0     H90688   3.004   5.349   8.237  0.0423 -1.6312  0.9433
  672MOL0     H90689   3.071   5.226   8.126 -2.2216  0.9910 -0.4897
  672MOL0     H90690   3.208   5.446   8.293 -3.7956 -0.6328  0.6626
  672MOL0     H90691   3.283   5.396   8.135 -0.7483  1.0532  0.7240
  672MOL0     H90692   3.388   5.262   8.322  1.0389 -1.4871 -2.2171
  672MOL0     H90693   3.287   5.163   8.215  1.5715 -1.4132  0.6155
  672MOL0     H90694   3.175   5.288   8.470  1.1675  0.7358  0.1332
  672MOL0     H90695   3.118   5.148   8.404 -1.1331  2.2675 -1.6948
  672MOL0     H90696   3.404   5.167   8.526  0.8831 -1.7227  2.9288
  672MOL0     H90697   3.345   5.030   8.442  1.3450 -1.4364  1.7839
  672MOL0     H90698   3.249   5.159   8.714  0.7440  0.7295 -1.1224
  672MOL0     H90699   3.153   5.019   8.643 -0.3943  0.5452 -0.5202
  672MOL0     H90700   2.768   5.480   7.951  1.1927 -1.8379 -2.2885
  672MOL0     H90701   2.622   5.479   7.773 -0.6325  1.0173 -1.4607
  672MOL0     H90702   2.680   5.643   7.294  1.2017 -0.1649 -1.8127
  672MOL0     H90703   2.669   5.719   7.069 -2.6335 -1.7137 -2.1104
  672MOL0     H90704   1.398   5.930   5.949 -2.1019  0.4343  1.8920
  672MOL0     H90705   1.280   5.768   5.823  0.6603  0.0090  0.6703
  672MOL0     H90706   0.742   5.652   5.836 -2.3816  0.5781  0.2129
  672MOL0     H90707   0.588   5.499   5.720  0.7831 -1.2005  1.5480
  672MOL0     H90708   0.463   5.398   5.300  0.4588 -1.3187  1.3658
  672MOL0     H90709   0.610   5.491   5.269 -0.9105  0.2183  0.6986
  672MOL0     H90710   0.439   5.638   5.167  3.6042  1.4344 -0.1538
  672MOL0     H90711   0.468   5.702   5.326  0.6804 -1.0492  2.8658
  672MOL0     H90712   0.281   5.627   5.426  0.7819 -0.8414 -0.1208
  672MOL0     H90713   0.235   5.530   5.268  1.3418 -2.0552  1.6935
  672MOL0     H90714   0.162   5.790   5.360  1.3388  0.8892  0.4341
  672MOL0     H90715   0.284   5.816   5.230 -1.6018  2.7843  0.6171
  672MOL0     H90716  -0.049   5.647   5.022  2.1718  0.4297 -1.8831
  672MOL0     H90717   0.709   5.654   5.341 -2.2953  1.4293  0.3025
  672MOL0     H90718   1.016   5.770   5.428 -0.3900 -0.7574  2.0624
  672MOL0     H90719   0.899   5.791   5.310  1.8236  3.1931 -1.8470
  672MOL0     H90720   0.911   5.919   5.445 -0.6942 -0.8416  1.2482
  673MOL0     O90721   3.782   8.806   7.404 -0.2124  1.0483  0.3361
  673MOL0     C90722   3.819   8.775   7.520 -0.3963  0.4905  0.4119
  673MOL0     O90723   3.867   8.857   7.612 -0.0036  0.0668  0.4209
  673MOL0     C90724   3.872   8.989   7.572  0.3411 -0.3655 -0.0813
  673MOL0     C90725   3.973   9.028   7.481  1.1752 -0.6086  0.9545
  673MOL0     C90726   3.994   9.165   7.458  0.4680  0.1390 -0.7115
  673MOL0     C90727   3.913   9.267   7.515 -0.2445 -0.0969 -0.3731
  673MOL0     O90728   3.928   9.406   7.494  0.6208  0.3134  0.4450
  673MOL0     C90729   4.058   9.447   7.456  0.6969 -0.4895  1.0900
  673MOL0     C90730   4.056   9.590   7.436  0.1830 -0.4748  0.5575
  673MOL0     C90731   4.079   9.671   7.568  0.7223 -0.5531  0.3529
  673MOL0     C90732   4.107   9.824   7.541 -0.0850  0.3911  0.2232
  673MOL0     C90733   4.155   9.894   7.672 -1.2339  0.7749 -0.9098
  673MOL0     C90734   4.306   9.930   7.685  0.3502 -0.0668 -0.3839
  673MOL0     C90735   4.403   9.829   7.636 -0.1877  0.5933  0.6059
  673MOL0     C90736   4.547   9.887   7.646 -0.3686  1.2482  0.4374
  673MOL0     N90737   4.650   9.782   7.622  0.4533  0.3375  0.0639
  673MOL0     C90738   4.651   9.687   7.525  0.4182 -0.1297 -0.4837
  673MOL0     C90739   4.775   9.628   7.529 -0.3729 -0.1123  0.0666
  673MOL0     C90740   4.828   9.503   7.454  0.1599 -0.4826 -0.4279
  673MOL0     C90741   4.840   9.511   7.294  0.5140  0.2984 -0.6081
  673MOL0     C90742   4.705   9.531   7.223 -1.0119  0.3657  0.2643
  673MOL0     C90743   4.604   9.415   7.252 -0.1139  0.1239  0.5270
  673MOL0     O90744   4.509   9.450   7.355  0.4588 -0.3329 -0.3556
  673MOL0     C90745   4.457   9.346   7.436 -0.8697 -1.1951  0.6009
  673MOL0     C90746   4.450   9.213   7.393  0.9976 -0.6013 -0.3705
  673MOL0     C90747   4.389   9.125   7.475 -0.2358  0.6328  0.1674
  673MOL0     C90748   4.337   9.159   7.601  0.2362  0.7747 -0.2964
  673MOL0     C90749   4.263   9.061   7.689 -0.2281  0.4983  0.0752
  673MOL0     O90750   4.234   9.110   7.814 -0.8236 -0.1445  0.3442
  673MOL0     C90751   4.191   9.030   7.916  0.0469 -0.6084  0.5148
  673MOL0     C90752   4.098   8.919   7.899 -0.2191 -0.0723  0.3070
  673MOL0     C90753   4.030   8.860   8.008 -0.4020 -1.8017  0.4312
  673MOL0     C90754   4.058   8.907   8.140 -0.1585 -0.2891  0.1475
  673MOL0     O90755   3.974   8.863   8.240  0.3149 -0.8274  0.2257
  673MOL0     C90756   3.843   8.910   8.230  0.5249 -0.0173  0.7596
  673MOL0     C90757   3.759   8.790   8.292 -0.3803 -0.5985  0.2538
  673MOL0     C90758   3.606   8.815   8.307 -0.7254 -0.9475  0.6664
  673MOL0     C90759   3.573   8.905   8.431  0.2452 -0.2258  0.8312
  673MOL0     C90760   3.591   9.051   8.387  0.0851 -0.0732 -0.2252
  673MOL0     C90761   3.497   9.132   8.482  0.3530  0.0456 -0.3252
  673MOL0     C90762   3.531   9.110   8.635  0.3572 -0.4825 -0.4853
  673MOL0     C90763   3.451   9.211   8.716 -0.2450  0.5274 -0.7148
  673MOL0    Cl90764   3.494   9.202   8.889  0.1323  0.1832  0.3551
  673MOL0     C90765   4.151   9.007   8.155  0.3997 -0.3201 -0.5436
  673MOL0     C90766   4.224   9.065   8.049  1.1344 -0.2906  0.1491
  673MOL0     O90767   4.270   8.946   7.652  0.0994 -0.1341 -0.0745
  673MOL0     C90768   4.348   9.291   7.639 -0.2145  0.4251 -0.3206
  673MOL0     C90769   4.398   9.389   7.560  0.3001 -0.7027 -0.1801
  673MOL0     N90770   4.844   9.687   7.632 -0.0249 -0.3318  0.1198
  673MOL0     N90771   4.768   9.785   7.682  0.8845  0.3083  0.3251
  673MOL0     C90772   3.806   9.223   7.591  0.3895 -0.0550  0.8830
  673MOL0     C90773   3.785   9.089   7.621 -0.1622 -0.4876 -0.1320
  673MOL0     C90774   3.837   8.636   7.556  1.1354  0.1854  0.0345
  673MOL0     C90775   3.948   8.600   7.626 -0.1134 -0.0162  0.5351
  673MOL0     C90776   3.976   8.463   7.645  0.3971 -0.4475 -0.0021
  673MOL0     C90777   3.886   8.362   7.615  0.1355 -0.0306  0.7214
  673MOL0     O90778   3.917   8.237   7.645 -0.9654  0.6339 -0.4092
  673MOL0     C90779   4.031   8.191   7.566  0.8916 -0.4848  0.2414
  673MOL0     C90780   3.972   8.070   7.488 -0.0647 -0.5368  0.1389
  673MOL0     C90781   4.083   7.987   7.412  0.3787 -0.7243  0.0696
  673MOL0     C90782   4.026   7.858   7.360  0.3045 -0.2124  0.1239
  673MOL0     C90783   4.119   7.792   7.266 -0.5879 -0.6326  0.1208
  673MOL0     C90784   4.199   7.744   7.189 -0.1097  0.7851 -0.1605
  673MOL0     C90785   3.783   8.403   7.544  1.3314 -0.1257  1.4058
  673MOL0     C90786   3.749   8.534   7.511 -0.2922 -1.4132  0.6375
  673MOL0     C90787   3.618   8.553   7.426 -0.1279 -0.0243  0.1763
  673MOL0     H90788   4.029   8.959   7.419 -2.4214 -1.7220 -1.3818
  673MOL0     H90789   4.069   9.191   7.384 -0.4850 -1.0907 -2.1646
  673MOL0     H90790   4.123   9.421   7.540  2.8607  0.1870 -0.2878
  673MOL0     H90791   4.086   9.401   7.361 -0.9785  0.8710 -0.1437
  673MOL0     H90792   3.965   9.635   7.396  0.7615 -0.4259 -0.7647
  673MOL0     H90793   4.139   9.618   7.370 -0.7309  0.3553 -0.2817
  673MOL0     H90794   4.170   9.634   7.615  0.8490  0.6138  1.0574
  673MOL0     H90795   3.994   9.655   7.635  0.2551 -1.2588 -0.3869
  673MOL0     H90796   4.178   9.842   7.460  1.9573 -0.8533  1.6503
  673MOL0     H90797   4.011   9.865   7.510 -1.0140  0.8223  3.2894
  673MOL0     H90798   4.094   9.984   7.686 -0.7327  1.1352 -0.9813
  673MOL0     H90799   4.130   9.830   7.757  0.8295  2.2958  0.9608
  673MOL0     H90800   4.326  10.016   7.619  0.4448 -1.3527 -2.1238
  673MOL0     H90801   4.335   9.974   7.780  1.8174 -2.9712  0.6392
  673MOL0     H90802   4.376   9.824   7.531 -0.3260  3.3123  0.4357
  673MOL0     H90803   4.390   9.737   7.693  0.2908  0.0194 -0.2013
  673MOL0     H90804   4.568   9.966   7.573 -0.2073  0.0049 -0.9141
  673MOL0     H90805   4.562   9.935   7.743  0.1535 -1.0682  1.5681
  673MOL0     H90806   4.569   9.649   7.466  0.6435 -0.0444 -0.8567
  673MOL0     H90807   4.930   9.500   7.494 -0.9890  0.6617  2.9306
  673MOL0     H90808   4.770   9.418   7.493  3.6451 -2.3941  1.0238
  673MOL0     H90809   4.904   9.596   7.269 -0.9063  1.5735 -0.0357
  673MOL0     H90810   4.893   9.422   7.258 -0.6687 -0.2681 -1.0118
  673MOL0     H90811   4.724   9.542   7.115  0.6743 -3.6285 -0.0059
  673MOL0     H90812   4.656   9.625   7.250 -0.9640  0.1204  1.2289
  673MOL0     H90813   4.657   9.321   7.275 -1.9834 -1.4615 -1.3139
  673MOL0     H90814   4.549   9.384   7.163  0.1203  1.3759 -0.0648
  673MOL0     H90815   4.503   9.172   7.308  0.9620 -0.0543 -0.6617
  673MOL0     H90816   4.397   9.025   7.433  0.2532  0.8457 -0.2499
  673MOL0     H90817   4.071   8.888   7.799  0.1928 -2.6022  0.9161
  673MOL0     H90818   3.940   8.798   8.007 -4.5597  3.3610  3.3895
  673MOL0     H90819   3.825   9.004   8.283  1.1639  0.4501  0.1622
  673MOL0     H90820   3.814   8.939   8.129 -1.1012  1.8631  1.6991
  673MOL0     H90821   3.789   8.705   8.230 -0.1731 -1.3409  1.3463
  673MOL0     H90822   3.787   8.773   8.397  3.0211  2.1894 -0.0142
  673MOL0     H90823   3.572   8.861   8.213  1.4460 -0.2544  0.1705
  673MOL0     H90824   3.554   8.720   8.322 -4.4030  0.9681  1.1459
  673MOL0     H90825   3.645   8.868   8.504  2.5507 -0.3962 -1.3724
  673MOL0     H90826   3.470   8.881   8.459 -0.1937 -2.3365 -2.1251
  673MOL0     H90827   3.575   9.071   8.280 -3.3373 -0.9850 -0.0031
  673MOL0     H90828   3.690   9.090   8.411 -1.5534  2.7045  2.8179
  673MOL0     H90829   3.488   9.238   8.459 -0.3539 -0.4875 -2.9564
  673MOL0     H90830   3.392   9.107   8.464  0.1594  1.1892 -0.8127
  673MOL0     H90831   3.637   9.130   8.655  0.5591 -3.7439  2.9009
  673MOL0     H90832   3.508   9.007   8.664  1.1697 -0.1368  1.5883
  673MOL0     H90833   3.484   9.309   8.680 -1.3846  0.9472 -0.6500
  673MOL0     H90834   3.342   9.215   8.710 -0.2460  3.4178 -0.1857
  673MOL0     H90835   4.152   9.046   8.256 -1.0651  2.7096 -1.5520
  673MOL0     H90836   4.289   9.147   8.077 -1.8412  1.6385  1.9463
  673MOL0     H90837   4.302   9.331   7.729  0.2536 -1.2443  0.6949
  673MOL0     H90838   4.397   9.495   7.584 -1.3377 -0.4714 -1.1120
  673MOL0     H90839   3.750   9.314   7.615 -1.1242 -1.2566  2.1250
  673MOL0     H90840   3.705   9.048   7.681  1.0198 -0.9500  1.1843
  673MOL0     H90841   4.019   8.665   7.676  1.2028 -1.8828  1.1928
  673MOL0     H90842   4.068   8.424   7.688 -0.6339 -2.3778  0.5274
  673MOL0     H90843   4.114   8.162   7.630  1.1997 -1.4015 -0.5516
  673MOL0     H90844   4.062   8.261   7.488 -0.4697 -0.7232 -0.5628
  673MOL0     H90845   3.901   8.105   7.412  1.3283  0.4754 -0.7599
  673MOL0     H90846   3.924   8.014   7.568  1.3890 -0.6074  0.9966
  673MOL0     H90847   4.169   7.957   7.472  2.1971 -0.5408 -2.2906
  673MOL0     H90848   4.129   8.045   7.332  0.2943  0.2003  0.6748
  673MOL0     H90849   3.994   7.794   7.442 -2.2520  1.4644  0.5321
  673MOL0     H90850   3.935   7.864   7.300  1.5996  1.6013 -1.8490
  673MOL0     H90851   4.266   7.699   7.118  2.1910 -1.3232  3.0372
  673MOL0     H90852   3.716   8.320   7.523  1.3730 -0.1543  1.3863
  673MOL0     H90853   3.555   8.463   7.421 -0.5728  0.3560 -2.7009
  673MOL0     H90854   3.572   8.652   7.437  1.9923  0.8251  2.0962
  673MOL0     H90855   3.664   8.545   7.327  1.8099  0.1351  1.0208
  674MOL0     O90856   4.728   7.890   0.576 -0.0147 -0.6575  0.1015
  674MOL0     C90857   4.686   8.000   0.620  0.4319 -0.2154 -0.3204
  674MOL0     O90858   4.565   8.048   0.593  0.0403 -0.2823 -0.8583
  674MOL0     C90859   4.473   7.957   0.574  0.1534  0.8330 -0.0113
  674MOL0     C90860   4.370   7.931   0.661  0.9010  0.2921  0.0569
  674MOL0     C90861   4.290   7.819   0.641  0.2820 -0.6325  0.8298
  674MOL0     C90862   4.301   7.749   0.519 -0.5401 -0.5429 -0.4856
  674MOL0     O90863   4.213   7.651   0.502  0.1188  0.8657 -0.1234
  674MOL0     C90864   4.153   7.651   0.378  1.2403 -0.8655  0.1243
  674MOL0     C90865   3.999   7.606   0.399  0.9842  0.2553  0.3862
  674MOL0     C90866   3.919   7.603   0.266  0.2660 -0.3429  1.1042
  674MOL0     C90867   3.799   7.708   0.268 -0.2255  0.0773  0.9307
  674MOL0     C90868   3.680   7.662   0.351 -0.1748  0.7540 -0.1553
  674MOL0     C90869   3.598   7.542   0.299 -0.7818  0.3561 -1.4205
  674MOL0     C90870   3.452   7.562   0.339  0.2937  0.1818 -0.9440
  674MOL0     C90871   3.372   7.433   0.312  0.2256 -0.2778 -0.1428
  674MOL0     N90872   3.238   7.449   0.362  0.0865  0.3257 -0.0268
  674MOL0     C90873   3.204   7.493   0.488 -0.1835 -0.8247 -0.1055
  674MOL0     C90874   3.067   7.521   0.475 -0.7572 -0.6637 -0.0759
  674MOL0     C90875   2.970   7.576   0.577  0.6587 -0.3666 -0.4798
  674MOL0     C90876   3.033   7.688   0.656  0.0969  0.6704  0.7160
  674MOL0     C90877   2.916   7.750   0.738 -0.6368 -1.3598  0.1512
  674MOL0     C90878   2.964   7.879   0.824  0.2373  1.6334  0.2161
  674MOL0     O90879   3.055   7.833   0.924  0.2513 -1.1086 -0.2928
  674MOL0     C90880   3.021   7.827   1.055 -0.0187  0.1328  0.0686
  674MOL0     C90881   3.107   7.756   1.140  0.1946 -0.6659 -0.1193
  674MOL0     C90882   3.086   7.747   1.274  0.1019 -0.0523  0.0164
  674MOL0     C90883   2.974   7.804   1.339  0.9460 -0.5567  0.8501
  674MOL0     C90884   2.963   7.806   1.478 -0.3660  0.0114 -0.5195
  674MOL0     O90885   3.074   7.828   1.550  0.3518  0.1390  0.4181
  674MOL0     C90886   3.089   7.811   1.686  0.3222  0.6577  0.8108
  674MOL0     C90887   3.011   7.727   1.773 -0.0177 -0.3556 -0.9989
  674MOL0     C90888   3.043   7.711   1.911 -0.1074 -0.3612  0.3758
  674MOL0     C90889   3.155   7.781   1.969  0.8513  0.0578  0.3490
  674MOL0     O90890   3.196   7.768   2.095  0.0052  0.0662 -0.8260
  674MOL0     C90891   3.120   7.677   2.182 -0.0102  0.5274  0.1021
  674MOL0     C90892   3.170   7.697   2.330 -0.5241 -0.0624  0.8119
  674MOL0     C90893   3.052   7.668   2.422  0.3311 -0.1867  0.3367
  674MOL0     C90894   3.068   7.719   2.572 -0.1107  0.6367 -0.0791
  674MOL0     C90895   3.198   7.682   2.641 -0.1970 -0.8581  0.4380
  674MOL0     C90896   3.230   7.767   2.775  0.0552 -0.1562 -0.8365
  674MOL0     C90897   3.345   7.701   2.850 -0.2526 -0.1682  0.2581
  674MOL0     C90898   3.376   7.764   2.985 -0.0253  0.3856  0.2124
  674MOL0    Cl90899   3.392   7.942   2.950  0.4082  0.0680  0.0753
  674MOL0     C90900   3.222   7.874   1.885 -1.6988 -0.3121  0.4559
  674MOL0     C90901   3.194   7.881   1.748  0.6360 -0.2687  0.6374
  674MOL0     O90902   2.849   7.803   1.522  0.0240 -0.6755 -0.3157
  674MOL0     C90903   2.874   7.849   1.254 -0.8284  0.4904 -0.5732
  674MOL0     C90904   2.901   7.860   1.116 -0.7079 -0.3695 -0.3516
  674MOL0     N90905   3.027   7.484   0.349  0.4639  1.2507  0.1158
  674MOL0     N90906   3.132   7.442   0.289  0.1415  0.3570  0.4073
  674MOL0     C90907   4.390   7.798   0.417 -0.1822  0.2284 -1.4253
  674MOL0     C90908   4.472   7.905   0.445  0.0040  0.3428  1.1040
  674MOL0     C90909   4.782   8.089   0.688 -0.8867 -0.0903  0.2650
  674MOL0     C90910   4.745   8.209   0.732  1.0773  0.6355 -1.3473
  674MOL0     C90911   4.825   8.305   0.790 -0.1309 -0.1373  0.3362
  674MOL0     C90912   4.958   8.270   0.823  0.3931  0.4204  0.7256
  674MOL0     O90913   5.042   8.371   0.858 -0.0597 -0.6820 -0.5135
  674MOL0     C90914   5.163   8.390   0.788 -0.0311  0.2812  0.9729
  674MOL0     C90915   5.241   8.514   0.847  0.3942 -0.1027  0.4367
  674MOL0     C90916   5.156   8.644   0.833 -0.8452 -0.2269 -0.9362
  674MOL0     C90917   5.242   8.769   0.796  0.2726 -0.0574  0.7126
  674MOL0     C90918   5.288   8.764   0.658  0.8016 -1.1987 -0.1421
  674MOL0     C90919   5.351   8.758   0.554  1.0106  0.4971  0.6267
  674MOL0     C90920   4.997   8.143   0.795 -0.2995 -0.7489 -0.3347
  674MOL0     C90921   4.919   8.053   0.727  0.9683  0.3076 -0.3240
  674MOL0     C90922   4.975   7.915   0.713 -0.5128  1.2713  0.8908
  674MOL0     H90923   4.350   7.999   0.743  1.6751  0.1064  0.4134
  674MOL0     H90924   4.214   7.801   0.717 -1.6372  3.9028  0.2894
  674MOL0     H90925   4.157   7.751   0.333  3.7150  1.2375  4.3838
  674MOL0     H90926   4.205   7.580   0.314  1.1992  0.0869 -0.9938
  674MOL0     H90927   3.957   7.664   0.481 -2.8758  0.1054 -1.2975
  674MOL0     H90928   4.008   7.500   0.425  2.2409  0.6672  1.8271
  674MOL0     H90929   3.881   7.502   0.251 -0.3644 -0.3380  2.5133
  674MOL0     H90930   3.981   7.628   0.180  0.0216  0.3477  1.1185
  674MOL0     H90931   3.843   7.802   0.304  0.5223 -1.4709  4.5698
  674MOL0     H90932   3.773   7.731   0.165  1.5504  1.5672  0.7675
  674MOL0     H90933   3.706   7.650   0.457 -0.4562  4.5109  0.4825
  674MOL0     H90934   3.611   7.748   0.357  0.3095  1.1564 -0.2752
  674MOL0     H90935   3.620   7.540   0.191 -0.1359 -3.6011 -1.3487
  674MOL0     H90936   3.631   7.450   0.347 -1.8583  0.1456 -1.0553
  674MOL0     H90937   3.411   7.651   0.291  0.0350 -0.6052 -2.2256
  674MOL0     H90938   3.445   7.571   0.448 -1.4766 -0.9176 -0.9277
  674MOL0     H90939   3.370   7.420   0.204  1.3326  1.6162 -0.4353
  674MOL0     H90940   3.419   7.343   0.353 -1.3665 -0.0051  2.4852
  674MOL0     H90941   3.268   7.510   0.574 -2.0846  1.2464  0.9851
  674MOL0     H90942   2.892   7.620   0.514 -0.1431 -0.5025  0.3917
  674MOL0     H90943   2.915   7.510   0.644 -4.7548  3.3890 -0.6381
  674MOL0     H90944   3.106   7.629   0.712  0.5762  0.0330 -0.5493
  674MOL0     H90945   3.082   7.768   0.600 -2.0444  0.5555 -1.4650
  674MOL0     H90946   2.859   7.683   0.803 -0.4838 -0.4636  1.2281
  674MOL0     H90947   2.855   7.792   0.657 -0.0961  3.0572  1.7611
  674MOL0     H90948   2.881   7.940   0.862 -0.8162  0.5864 -0.3425
  674MOL0     H90949   3.023   7.939   0.755 -0.6939  2.5207  0.1760
  674MOL0     H90950   3.201   7.726   1.095 -0.4562 -1.9257 -0.6902
  674MOL0     H90951   3.167   7.695   1.325  0.6404 -0.0838 -0.8520
  674MOL0     H90952   2.921   7.673   1.744  0.3617 -1.3574 -0.3424
  674MOL0     H90953   2.975   7.646   1.967 -0.8303  0.7395  0.8091
  674MOL0     H90954   3.015   7.708   2.171  0.6374  3.4942  1.2389
  674MOL0     H90955   3.139   7.573   2.156 -0.7615 -0.2946  2.5394
  674MOL0     H90956   3.260   7.637   2.345  0.4381  1.0338 -0.4472
  674MOL0     H90957   3.203   7.800   2.344  1.9188 -0.6231 -0.3365
  674MOL0     H90958   2.967   7.721   2.379 -0.5038 -0.3474  1.7310
  674MOL0     H90959   3.045   7.559   2.425 -0.1332 -0.1435  1.1379
  674MOL0     H90960   2.988   7.667   2.625  0.8142 -0.5093  0.2330
  674MOL0     H90961   3.047   7.827   2.575  0.7076  0.8127 -0.4681
  674MOL0     H90962   3.286   7.698   2.577  0.8238 -0.2243  1.9594
  674MOL0     H90963   3.186   7.578   2.673  1.8799 -0.6787  2.0320
  674MOL0     H90964   3.252   7.868   2.739 -1.3803 -0.5531 -3.0465
  674MOL0     H90965   3.140   7.775   2.836 -0.0777 -0.1875 -1.0275
  674MOL0     H90966   3.436   7.710   2.790 -0.5336 -0.8651 -0.2817
  674MOL0     H90967   3.335   7.593   2.868  2.6148 -0.3842  1.0626
  674MOL0     H90968   3.301   7.732   3.058  2.2760 -0.9489  2.1157
  674MOL0     H90969   3.465   7.722   3.031 -1.8454 -2.1369  1.6562
  674MOL0     H90970   3.303   7.937   1.921 -1.3201  0.0154 -0.9358
  674MOL0     H90971   3.247   7.960   1.696  1.3778 -1.3205 -0.2483
  674MOL0     H90972   2.784   7.887   1.301  0.0239  0.2188  1.4199
  674MOL0     H90973   2.825   7.901   1.050 -2.8669 -0.7831  1.7425
  674MOL0     H90974   4.394   7.763   0.314 -0.7165  3.0688 -2.5181
  674MOL0     H90975   4.541   7.926   0.364  0.3260  0.5200  1.4244
  674MOL0     H90976   4.643   8.242   0.721  0.4140  0.2424  2.4039
  674MOL0     H90977   4.788   8.399   0.829 -2.2377 -0.8756  0.2187
  674MOL0     H90978   5.133   8.408   0.684 -2.6892 -1.3510  1.3626
  674MOL0     H90979   5.221   8.297   0.786  0.8916  0.7910 -2.3075
  674MOL0     H90980   5.337   8.520   0.795  0.3838  1.7706  0.5763
  674MOL0     H90981   5.257   8.499   0.954 -2.2698 -1.1579  0.7601
  674MOL0     H90982   5.108   8.678   0.926  0.1285  0.4329 -0.6513
  674MOL0     H90983   5.068   8.635   0.770 -2.2275 -2.3635  1.1466
  674MOL0     H90984   5.194   8.867   0.806  1.2429  0.6805 -1.2373
  674MOL0     H90985   5.320   8.783   0.872 -1.1054  2.3470  1.8302
  674MOL0     H90986   5.411   8.771   0.466 -0.9533  0.9310 -0.7285
  674MOL0     H90987   5.103   8.135   0.817  0.1097  2.2689 -0.7830
  674MOL0     H90988   4.906   7.846   0.762 -0.9284 -0.3959 -1.8651
  674MOL0     H90989   4.997   7.892   0.609  3.0459  0.3717  1.7060
  674MOL0     H90990   5.069   7.896   0.766  0.3378 -0.0411 -1.0116
  675MOL0     O90991   9.890  11.436   8.995 -0.5164  0.8344 -0.0495
  675MOL0     C90992   9.904  11.480   9.110  0.1671  1.1349 -1.4836
  675MOL0     O90993  10.016  11.461   9.193 -0.7835  0.1002  0.4783
  675MOL0     C90994  10.105  11.378   9.135 -0.2965  0.2098  0.8705
  675MOL0     C90995  10.113  11.241   9.173 -0.1024 -0.1677 -0.1418
  675MOL0     C90996  10.204  11.154   9.109  1.2323 -0.5099 -0.0184
  675MOL0     C90997  10.303  11.208   9.025 -1.3906  0.9331 -0.4842
  675MOL0     O90998  10.388  11.125   8.952 -0.3648 -0.2157  0.4805
  675MOL0     C90999  10.333  11.106   8.819 -0.7639 -0.5286  0.9161
  675MOL0     C91000  10.372  10.969   8.769 -0.1963  0.0215  0.2698
  675MOL0     C91001  10.398  10.862   8.879 -0.4240  0.6657 -0.2918
  675MOL0     C91002  10.467  10.740   8.825  0.1963 -0.0025  0.2717
  675MOL0     C91003  10.358  10.633   8.787 -0.0674 -0.0911 -0.9128
  675MOL0     C91004  10.405  10.550   8.658 -0.4169 -0.6696  0.1536
  675MOL0     C91005  10.471  10.411   8.676 -0.1774 -0.7092  0.3142
  675MOL0     C91006  10.382  10.295   8.632  0.4028 -1.1754  0.2721
  675MOL0     N91007  10.354  10.297   8.481  0.3960  0.6229 -0.3982
  675MOL0     C91008  10.454  10.260   8.392 -0.3899  0.5069 -0.5378
  675MOL0     C91009  10.411  10.299   8.274 -0.0076 -1.4003 -0.0272
  675MOL0     C91010  10.471  10.257   8.138  0.2032 -0.2860  1.0959
  675MOL0     C91011  10.360  10.179   8.061  0.5327  0.0620 -0.3626
  675MOL0     C91012  10.393  10.168   7.913  1.2017 -0.3046 -0.0278
  675MOL0     C91013  10.283  10.094   7.833 -0.0519  0.6739 -0.4098
  675MOL0     O91014  10.314  10.086   7.687 -0.0067 -0.3574 -0.8183
  675MOL0     C91015  10.218  10.112   7.592 -1.3661  0.5786  0.3807
  675MOL0     C91016  10.088  10.064   7.593  1.3360 -0.3667  0.0015
  675MOL0     C91017   9.999  10.084   7.478 -0.0523  0.6486 -0.4779
  675MOL0     C91018  10.045  10.151   7.367 -0.4253 -0.6739 -0.1920
  675MOL0     C91019   9.962  10.165   7.253 -0.8355 -0.6875 -0.8469
  675MOL0     O91020   9.829  10.143   7.284  0.2543  0.8670 -0.4226
  675MOL0     C91021   9.718  10.178   7.217  0.1487 -0.2034 -0.8570
  675MOL0     C91022   9.718  10.250   7.096  0.4995  0.3208  0.1234
  675MOL0     C91023   9.588  10.269   7.028 -0.3605 -1.4778  0.0129
  675MOL0     C91024   9.475  10.248   7.098  0.4570  0.0001  0.8652
  675MOL0     O91025   9.368  10.309   7.031  0.4690 -0.1447  0.3701
  675MOL0     C91026   9.258  10.357   7.110 -0.0365  0.2523  0.2573
  675MOL0     C91027   9.174  10.455   7.035 -0.2059 -0.2439 -0.4089
  675MOL0     C91028   9.129  10.565   7.132 -0.2891  0.6205 -0.3953
  675MOL0     C91029   9.009  10.528   7.218  0.4003  0.0522 -1.0669
  675MOL0     C91030   8.984  10.634   7.326 -0.1225  0.4447 -0.3634
  675MOL0     C91031   8.830  10.641   7.372  0.2069  0.0108 -0.4101
  675MOL0     C91032   8.743  10.696   7.260  0.9083  0.1884 -0.9458
  675MOL0     C91033   8.593  10.708   7.313 -0.5977  0.7386  0.9053
  675MOL0    Cl91034   8.537  10.541   7.356  0.2429 -0.4070 -0.2693
  675MOL0     C91035   9.471  10.172   7.215  0.4126  0.2893  1.2955
  675MOL0     C91036   9.594  10.134   7.276  0.3321  0.6611  0.5925
  675MOL0     O91037  10.008  10.204   7.147 -0.0197  0.6442  0.6085
  675MOL0     C91038  10.173  10.213   7.372  0.7667 -0.1202  0.1185
  675MOL0     C91039  10.260  10.193   7.477  0.7642  0.1077 -0.3620
  675MOL0     N91040  10.292  10.370   8.285  0.0975 -0.3100 -0.6050
  675MOL0     N91041  10.261  10.366   8.407  0.1115 -0.4192 -0.1007
  675MOL0     C91042  10.313  11.344   9.011 -0.0567  0.2307 -0.1303
  675MOL0     C91043  10.216  11.428   9.069  0.6414 -1.2929  1.3084
  675MOL0     C91044   9.809  11.580   9.164  0.6236  0.5733 -0.2405
  675MOL0     C91045   9.673  11.544   9.178 -0.9418  1.0210 -0.2232
  675MOL0     C91046   9.581  11.637   9.223  0.5478 -0.5882 -0.0064
  675MOL0     C91047   9.618  11.763   9.263 -0.2895 -0.3019 -0.5337
  675MOL0     O91048   9.517  11.850   9.306 -0.6683  0.3231 -0.2854
  675MOL0     C91049   9.562  11.964   9.371 -0.7541 -0.7544  0.2294
  675MOL0     C91050   9.448  12.020   9.445 -0.4282  0.2793 -0.0210
  675MOL0     C91051   9.322  12.084   9.363 -0.3413 -0.3368  1.2647
  675MOL0     C91052   9.224  11.980   9.304  0.8026  0.7408 -0.1226
  675MOL0     C91053   9.093  12.041   9.297 -0.0972 -0.3068 -0.3031
  675MOL0     C91054   8.981  12.091   9.293  0.3794  0.1280 -0.6034
  675MOL0     C91055   9.752  11.794   9.263  0.0703  0.2210  0.0307
  675MOL0     C91056   9.846  11.706   9.215 -0.4962  0.5284 -0.6841
  675MOL0     C91057   9.991  11.753   9.211 -0.0919  0.5141 -0.0900
  675MOL0     H91058  10.038  11.201   9.240 -0.9545  2.9591  0.9250
  675MOL0     H91059  10.196  11.051   9.141 -1.3027 -0.5986 -0.7148
  675MOL0     H91060  10.225  11.116   8.810 -0.5680 -0.0601 -2.4171
  675MOL0     H91061  10.381  11.175   8.748  1.5354 -2.7989  0.0825
  675MOL0     H91062  10.462  10.975   8.707 -0.8788  3.2970 -0.6140
  675MOL0     H91063  10.297  10.922   8.704  1.2674 -1.7556 -0.2006
  675MOL0     H91064  10.308  10.824   8.926 -0.2825 -1.6334 -1.7262
  675MOL0     H91065  10.467  10.902   8.955  1.1152  0.4881 -1.5273
  675MOL0     H91066  10.539  10.763   8.745  2.5968 -0.8533  2.0512
  675MOL0     H91067  10.538  10.695   8.895 -0.9712  0.7229  1.9681
  675MOL0     H91068  10.332  10.566   8.870  1.3530  0.9289  0.4145
  675MOL0     H91069  10.261  10.682   8.774 -2.1859 -3.3648  0.9823
  675MOL0     H91070  10.322  10.542   8.587 -0.2274 -0.0800 -0.1410
  675MOL0     H91071  10.468  10.616   8.598 -2.9800  1.5637 -0.2672
  675MOL0     H91072  10.490  10.398   8.783  2.9428  1.1396  0.0973
  675MOL0     H91073  10.561  10.405   8.614 -0.3986 -3.8760  0.1244
  675MOL0     H91074  10.440  10.205   8.652  4.0126 -0.1882 -4.1425
  675MOL0     H91075  10.282  10.297   8.678  0.1813 -0.8258 -0.2157
  675MOL0     H91076  10.542  10.202   8.418 -0.5226  1.4951  2.4739
  675MOL0     H91077  10.506  10.343   8.081 -0.1864 -1.2770 -0.7228
  675MOL0     H91078  10.559  10.193   8.149  1.6549  0.3885 -4.0906
  675MOL0     H91079  10.344  10.081   8.106 -2.3989  1.0801  1.0577
  675MOL0     H91080  10.260  10.222   8.073  0.3952 -0.0062 -1.1990
  675MOL0     H91081  10.490  10.124   7.890  0.5045 -1.1820 -1.4828
  675MOL0     H91082  10.386  10.270   7.874 -1.9531  0.0275  1.1141
  675MOL0     H91083  10.179  10.125   7.840  0.1784  1.5665 -0.7583
  675MOL0     H91084  10.285   9.996   7.883 -1.7819  1.5491  1.4934
  675MOL0     H91085  10.064  10.003   7.680  1.4955 -1.5225 -0.7392
  675MOL0     H91086   9.902  10.036   7.483 -0.0363  0.4695 -1.5857
  675MOL0     H91087   9.808  10.285   7.046 -0.0694 -0.7299 -1.7775
  675MOL0     H91088   9.594  10.294   6.923 -0.3344 -3.2938 -0.4404
  675MOL0     H91089   9.191  10.278   7.145 -1.7861  0.7558 -1.7114
  675MOL0     H91090   9.303  10.405   7.197  0.3566  3.7499 -1.6967
  675MOL0     H91091   9.245  10.496   6.963  0.4978 -4.2017 -2.2205
  675MOL0     H91092   9.085  10.412   6.989  0.3461  0.8039 -2.5969
  675MOL0     H91093   9.215  10.586   7.197  0.2616  1.5428 -1.3956
  675MOL0     H91094   9.095  10.648   7.070 -4.3207  0.1677  0.9086
  675MOL0     H91095   9.019  10.429   7.264  1.6076  0.0757 -1.2289
  675MOL0     H91096   8.932  10.540   7.142  0.3640  1.5543 -0.8102
  675MOL0     H91097   9.005  10.734   7.287 -0.8273  1.0141  0.6593
  675MOL0     H91098   9.062  10.636   7.403  0.4608 -0.3698 -0.9170
  675MOL0     H91099   8.806  10.537   7.398 -1.7117  1.1050  2.9561
  675MOL0     H91100   8.814  10.706   7.459  1.0806  0.6374 -0.7057
  675MOL0     H91101   8.748  10.640   7.166  0.4404 -0.6185 -0.5029
  675MOL0     H91102   8.781  10.798   7.250  1.1183  0.0847 -1.2245
  675MOL0     H91103   8.577  10.767   7.404 -0.4137  2.3394 -0.0577
  675MOL0     H91104   8.533  10.748   7.231 -0.6248 -2.2483 -0.6484
  675MOL0     H91105   9.375  10.145   7.259 -0.0262 -0.3367  0.0179
  675MOL0     H91106   9.592  10.076   7.368 -1.0441 -0.4856 -0.1331
  675MOL0     H91107  10.211  10.259   7.281  4.2937 -5.6189 -1.6894
  675MOL0     H91108  10.357  10.241   7.465  2.1829 -1.6546  2.9119
  675MOL0     H91109  10.397  11.376   8.949  1.0786 -1.3831  0.4963
  675MOL0     H91110  10.217  11.535   9.051  0.5211 -1.4169  0.4950
  675MOL0     H91111   9.642  11.445   9.147  0.3659  0.2035  0.9290
  675MOL0     H91112   9.477  11.608   9.220 -0.5898  3.0827 -2.0248
  675MOL0     H91113   9.609  12.040   9.308  0.6903 -2.7132 -1.1918
  675MOL0     H91114   9.626  11.942   9.458  0.3148 -0.8565 -0.5639
  675MOL0     H91115   9.497  12.093   9.510 -1.1029  0.3438  0.4235
  675MOL0     H91116   9.412  11.946   9.516  1.8364 -4.7058 -3.4413
  675MOL0     H91117   9.351  12.153   9.284 -0.7184 -3.2536 -1.6460
  675MOL0     H91118   9.264  12.141   9.437  2.5102  0.6729  2.8715
  675MOL0     H91119   9.248  11.950   9.202  1.6489  4.2268 -1.1041
  675MOL0     H91120   9.209  11.895   9.372 -0.7096  0.5717 -0.6425
  675MOL0     H91121   8.887  12.138   9.311  1.5073  1.1482  4.5180
  675MOL0     H91122   9.789  11.893   9.288  0.7831  0.6166 -2.3193
  675MOL0     H91123  10.032  11.728   9.113  2.2276  0.1448  0.8979
  675MOL0     H91124  10.002  11.860   9.232  1.5441  0.4457 -0.4867
  675MOL0     H91125  10.039  11.705   9.297 -2.6143  1.3267  1.8838
  676MOL0     O91126   6.600   1.448   9.208  0.1956 -0.4333  0.5621
  676MOL0     C91127   6.494   1.505   9.221  0.6802  0.2368  0.1679
  676MOL0     O91128   6.374   1.474   9.152  0.2650  0.1489  0.7162
  676MOL0     C91129   6.374   1.363   9.069  0.4019  0.1624 -0.0283
  676MOL0     C91130   6.476   1.339   8.975  0.4989  0.1484  0.8411
  676MOL0     C91131   6.463   1.232   8.879  0.3413  0.2617 -0.5482
  676MOL0     C91132   6.350   1.146   8.887 -0.0448 -0.0162  0.0741
  676MOL0     O91133   6.352   1.053   8.783  0.5308 -0.5274 -0.2572
  676MOL0     C91134   6.225   1.014   8.734  0.1816 -0.1124 -0.7528
  676MOL0     C91135   6.239   0.904   8.623 -0.5536 -0.5601 -0.4755
  676MOL0     C91136   6.295   0.964   8.495 -0.4375  0.2535  0.6817
  676MOL0     C91137   6.345   0.858   8.397  0.0258 -0.8112  0.0636
  676MOL0     C91138   6.343   0.881   8.250 -0.3101  0.3487  1.0189
  676MOL0     C91139   6.424   0.997   8.207  0.3549  0.0351 -0.3091
  676MOL0     C91140   6.387   1.052   8.071 -0.3334  0.2647 -0.6614
  676MOL0     C91141   6.247   1.127   8.078  1.2061 -0.0238  0.3009
  676MOL0     N91142   6.224   1.206   7.960 -0.9191  0.1711  0.6696
  676MOL0     C91143   6.305   1.309   7.900  0.0239 -0.0166  0.4596
  676MOL0     C91144   6.227   1.355   7.795  0.0875  0.0205  0.0898
  676MOL0     C91145   6.275   1.463   7.708 -0.3379  0.1082 -0.0997
  676MOL0     C91146   6.258   1.592   7.781  0.0605  0.1560 -0.7455
  676MOL0     C91147   6.291   1.708   7.697 -0.3609 -0.5753  0.8579
  676MOL0     C91148   6.291   1.851   7.776  0.3365  0.9471 -0.1255
  676MOL0     O91149   6.371   1.849   7.900 -0.0360  0.2397  1.2962
  676MOL0     C91150   6.412   1.969   7.940  0.2130 -0.3461 -0.5548
  676MOL0     C91151   6.531   1.972   8.009  0.1782  0.1892 -1.0854
  676MOL0     C91152   6.581   2.093   8.061  0.7358 -0.2441 -0.0538
  676MOL0     C91153   6.514   2.213   8.046 -0.1063  0.2960  0.0617
  676MOL0     C91154   6.576   2.348   8.083  0.3137 -0.5419  0.3674
  676MOL0     O91155   6.528   2.457   8.017  0.0532  0.1551  0.2072
  676MOL0     C91156   6.615   2.518   7.932  0.0740 -0.7935  0.2358
  676MOL0     C91157   6.620   2.471   7.802  0.3505  0.4830  0.1679
  676MOL0     C91158   6.697   2.523   7.703  0.3659  0.4053  0.3950
  676MOL0     C91159   6.774   2.644   7.729  0.5341  0.1553  0.4707
  676MOL0     O91160   6.857   2.717   7.645  0.0851 -0.4467  0.0571
  676MOL0     C91161   6.815   2.707   7.512  0.1754 -0.4047  0.0590
  676MOL0     C91162   6.908   2.605   7.438 -0.0357 -0.3289  0.1846
  676MOL0     C91163   6.881   2.595   7.287  1.0190 -1.1224  0.4818
  676MOL0     C91164   7.005   2.551   7.216 -1.2196 -0.0363 -0.8407
  676MOL0     C91165   7.046   2.406   7.244  0.1013 -1.0733 -0.1025
  676MOL0     C91166   7.169   2.355   7.176  0.1805  0.1469 -0.1666
  676MOL0     C91167   7.244   2.263   7.267 -0.6511 -0.2139 -0.6662
  676MOL0     C91168   7.162   2.144   7.318  0.8357 -0.0078 -0.6765
  676MOL0    Cl91169   7.094   2.061   7.179 -0.0806  0.1473 -0.1798
  676MOL0     C91170   6.770   2.694   7.863  0.3730  0.1544 -0.0327
  676MOL0     C91171   6.696   2.627   7.964  0.4657 -0.5878 -1.1017
  676MOL0     O91172   6.674   2.349   8.164  0.3394  0.3000  0.2097
  676MOL0     C91173   6.399   2.214   7.960 -0.2630  0.5612 -0.9927
  676MOL0     C91174   6.355   2.093   7.909  0.4572 -0.7533 -0.1773
  676MOL0     N91175   6.112   1.282   7.787  0.0647  0.3610  0.0062
  676MOL0     N91176   6.110   1.198   7.886  0.5230  0.1748  0.0399
  676MOL0     C91177   6.252   1.171   8.978 -0.1571  0.7062 -0.5597
  676MOL0     C91178   6.262   1.276   9.066  0.7042 -0.3247  0.0279
  676MOL0     C91179   6.489   1.618   9.319  0.3279 -0.9257  0.1287
  676MOL0     C91180   6.397   1.719   9.294  0.1283  0.3450 -0.2731
  676MOL0     C91181   6.399   1.833   9.370  0.4972 -0.7870  0.2477
  676MOL0     C91182   6.484   1.843   9.477  0.1847  0.1421  0.4917
  676MOL0     O91183   6.467   1.959   9.559 -0.7297 -0.0425  0.5493
  676MOL0     C91184   6.586   1.993   9.631  0.2582  0.0312  0.4294
  676MOL0     C91185   6.576   1.974   9.776  1.5747 -0.2511 -0.2731
  676MOL0     C91186   6.705   1.958   9.844  0.1165  0.2957  0.7519
  676MOL0     C91187   6.693   1.904   9.985 -0.2094 -0.1397  0.5927
  676MOL0     C91188   6.640   1.762   9.991  0.1040  0.5515  0.2019
  676MOL0     C91189   6.580   1.657   9.998 -1.3388 -0.0209  0.3687
  676MOL0     C91190   6.566   1.734   9.511  0.1584  0.3486 -0.0622
  676MOL0     C91191   6.567   1.620   9.432  0.0770 -0.6265  0.3130
  676MOL0     C91192   6.645   1.514   9.476 -0.2479  0.9644 -0.2123
  676MOL0     H91193   6.567   1.397   8.976  0.0496  0.9942  3.5914
  676MOL0     H91194   6.544   1.211   8.809  1.4315  0.0581  0.7196
  676MOL0     H91195   6.176   0.973   8.822 -0.2949  1.2236 -0.3707
  676MOL0     H91196   6.164   1.095   8.692 -1.9253 -0.0748  2.0664
  676MOL0     H91197   6.146   0.850   8.606  0.0539 -2.0446  0.6902
  676MOL0     H91198   6.313   0.833   8.660  2.1113  2.4526  0.4988
  676MOL0     H91199   6.385   1.023   8.517  0.6173 -1.1374  0.2360
  676MOL0     H91200   6.229   1.036   8.445  0.1176 -0.0486 -0.5253
  676MOL0     H91201   6.450   0.845   8.423  0.3576  0.3750 -0.6094
  676MOL0     H91202   6.288   0.769   8.425  3.0737 -1.9209  3.4848
  676MOL0     H91203   6.388   0.794   8.201 -2.0831  0.6947 -1.3932
  676MOL0     H91204   6.241   0.900   8.216  0.3047  1.3081 -0.3948
  676MOL0     H91205   6.411   1.083   8.274 -3.1836 -1.5791  1.3336
  676MOL0     H91206   6.531   0.975   8.209  1.1858  3.1013 -2.7789
  676MOL0     H91207   6.378   0.973   7.996  1.3863 -0.8041  0.1954
  676MOL0     H91208   6.464   1.126   8.046  1.0243 -0.3235  1.4852
  676MOL0     H91209   6.163   1.057   8.083  0.6783  0.4275 -1.3560
  676MOL0     H91210   6.251   1.195   8.164  3.4144 -1.6282  1.5742
  676MOL0     H91211   6.411   1.329   7.911  0.3642 -0.7896 -1.1105
  676MOL0     H91212   6.381   1.450   7.685 -0.2593 -0.4932  0.5762
  676MOL0     H91213   6.219   1.464   7.614  0.3851  1.8201 -0.5504
  676MOL0     H91214   6.153   1.600   7.811  0.0368 -0.9493 -0.5010
  676MOL0     H91215   6.322   1.583   7.869  0.9600  0.6504 -1.3339
  676MOL0     H91216   6.216   1.712   7.617  0.0688 -0.1007  0.4753
  676MOL0     H91217   6.392   1.694   7.658 -0.8005 -0.6014 -0.2874
  676MOL0     H91218   6.193   1.897   7.789  0.2470  0.5366  0.6911
  676MOL0     H91219   6.337   1.923   7.708  0.9669 -1.1998 -2.0999
  676MOL0     H91220   6.591   1.882   8.019 -1.4293 -1.4164 -4.3636
  676MOL0     H91221   6.668   2.087   8.125  2.4211  0.5916 -2.1534
  676MOL0     H91222   6.550   2.393   7.774 -2.4543  3.4406 -1.8341
  676MOL0     H91223   6.687   2.474   7.606  1.7051  1.6425 -0.4147
  676MOL0     H91224   6.712   2.671   7.501 -1.3360  3.5344 -0.0416
  676MOL0     H91225   6.814   2.804   7.462 -2.2755 -0.5838 -0.3523
  676MOL0     H91226   7.008   2.642   7.461  1.1786 -3.0713 -0.2600
  676MOL0     H91227   6.901   2.505   7.482  1.0621 -0.8306 -0.7330
  676MOL0     H91228   6.805   2.520   7.265  2.2245 -1.6960 -2.0920
  676MOL0     H91229   6.847   2.688   7.239  2.5566 -1.7810 -2.0794
  676MOL0     H91230   7.082   2.627   7.233  0.4434 -1.8970  0.4026
  676MOL0     H91231   6.974   2.546   7.111  2.9203 -1.8456 -2.2093
  676MOL0     H91232   6.965   2.341   7.212  1.2599 -2.7349  0.2219
  676MOL0     H91233   7.057   2.399   7.353 -2.0102 -3.1530  0.0401
  676MOL0     H91234   7.139   2.299   7.087  0.1532 -1.5247  0.8505
  676MOL0     H91235   7.236   2.438   7.153 -0.9032  0.4961 -2.3299
  676MOL0     H91236   7.294   2.317   7.348  2.6630  0.4300 -2.9335
  676MOL0     H91237   7.329   2.224   7.211 -0.3022  0.7217 -0.8060
  676MOL0     H91238   7.221   2.082   7.386  1.7086  0.3338 -1.1101
  676MOL0     H91239   7.078   2.187   7.373  0.7606 -0.5973 -0.3177
  676MOL0     H91240   6.823   2.786   7.887 -0.0780  0.0636  1.3989
  676MOL0     H91241   6.689   2.640   8.071 -2.1367 -0.7382 -1.1791
  676MOL0     H91242   6.353   2.308   7.929 -0.1956  0.2166 -2.1833
  676MOL0     H91243   6.263   2.097   7.852 -0.8189 -0.5944  1.8067
  676MOL0     H91244   6.159   1.115   8.978  0.8788 -1.1625  1.4894
  676MOL0     H91245   6.183   1.286   9.140  0.6038  2.6235 -0.3636
  676MOL0     H91246   6.331   1.705   9.210 -1.1253  1.9332  0.3868
  676MOL0     H91247   6.333   1.914   9.341 -2.4399 -3.1942 -0.3393
  676MOL0     H91248   6.591   2.102   9.621  2.5613  0.5442  4.9245
  676MOL0     H91249   6.676   1.951   9.585 -0.3529  0.3100 -1.0976
  676MOL0     H91250   6.512   1.888   9.795 -1.7533  1.7960 -1.4545
  676MOL0     H91251   6.511   2.053   9.814  1.9018  0.6744 -1.5951
  676MOL0     H91252   6.754   2.055   9.852  1.1429 -0.1245 -0.1061
  676MOL0     H91253   6.759   1.878   9.792 -1.1750 -0.0281 -0.1566
  676MOL0     H91254   6.790   1.909  10.035 -0.4776 -1.9698  1.3788
  676MOL0     H91255   6.621   1.966  10.039  0.9321  0.8566  1.0289
  676MOL0     H91256   6.516   1.573  10.020  1.2057 -2.0515  0.5231
  676MOL0     H91257   6.631   1.743   9.597 -2.2429  1.0119  1.7973
  676MOL0     H91258   6.678   1.516   9.580 -1.3790 -3.6690  0.4841
  676MOL0     H91259   6.601   1.416   9.452  0.1409  0.2927  1.6244
  676MOL0     H91260   6.743   1.513   9.427  0.1980 -0.9954  0.6325
  677MOL0     O91261   6.279  11.029   7.160 -1.0227 -0.8427 -0.0051
  677MOL0     C91262   6.300  11.086   7.270 -0.0301 -1.1423 -0.9821
  677MOL0     O91263   6.415  11.140   7.306  0.7366  0.3428 -0.3199
  677MOL0     C91264   6.524  11.120   7.231  0.3775 -0.4467  0.0856
  677MOL0     C91265   6.644  11.090   7.291  0.4371 -0.0227  0.6533
  677MOL0     C91266   6.761  11.066   7.223 -0.0400 -0.8270  0.4019
  677MOL0     C91267   6.774  11.095   7.088  0.1283 -0.9009  0.0176
  677MOL0     O91268   6.895  11.074   7.029 -0.0105  0.3174  0.3775
  677MOL0     C91269   6.911  11.083   6.889 -0.5496  0.5845  0.3346
  677MOL0     C91270   6.909  11.234   6.858  0.0759  1.1795 -0.0831
  677MOL0     C91271   7.049  11.288   6.843  0.0600  0.4042  0.2216
  677MOL0     C91272   7.099  11.262   6.696  0.5172  0.4328 -0.9370
  677MOL0     C91273   7.248  11.286   6.686 -0.5630 -0.1334  0.4440
  677MOL0     C91274   7.282  11.437   6.682  0.9098 -0.5625  1.2078
  677MOL0     C91275   7.440  11.453   6.696 -0.1901  0.1154  0.1932
  677MOL0     C91276   7.472  11.595   6.742  0.8471  0.5990  0.3466
  677MOL0     N91277   7.425  11.707   6.657  0.0185  0.0315 -0.5255
  677MOL0     C91278   7.413  11.696   6.524 -0.4933  0.2615 -0.1477
  677MOL0     C91279   7.359  11.815   6.476 -0.3116  0.2938 -1.6135
  677MOL0     C91280   7.304  11.858   6.342 -0.1277  0.3946  0.8267
  677MOL0     C91281   7.156  11.831   6.328 -0.9666 -0.7634 -0.5989
  677MOL0     C91282   7.063  11.904   6.426 -0.4417 -0.4019 -0.1796
  677MOL0     C91283   6.914  11.860   6.404 -0.9165  0.0480 -0.0590
  677MOL0     O91284   6.858  11.939   6.295 -0.5659 -0.0409  0.1076
  677MOL0     C91285   6.736  11.918   6.244 -1.0473  0.7419  0.1789
  677MOL0     C91286   6.648  11.818   6.283 -0.2128 -0.0858  0.0569
  677MOL0     C91287   6.519  11.809   6.227  0.0236 -0.0265 -0.5714
  677MOL0     C91288   6.466  11.907   6.145 -0.5346 -0.4322 -0.2352
  677MOL0     C91289   6.326  11.907   6.113 -0.4389 -0.0308  0.1697
  677MOL0     O91290   6.275  12.032   6.073 -0.0770  0.2584  0.0151
  677MOL0     C91291   6.144  12.053   6.051 -0.0783  0.7646 -0.3682
  677MOL0     C91292   6.082  12.095   5.934 -0.2367 -0.6812  0.9497
  677MOL0     C91293   5.947  12.149   5.923  0.0581 -0.0107 -0.6157
  677MOL0     C91294   5.870  12.155   6.041  0.2100 -0.1546  0.2970
  677MOL0     O91295   5.739  12.200   6.041  1.0591  0.1076  0.3546
  677MOL0     C91296   5.685  12.276   5.930  0.1325 -0.3134  0.5959
  677MOL0     C91297   5.546  12.342   5.958  0.0543  0.1594 -0.1337
  677MOL0     C91298   5.556  12.463   6.041 -0.3389 -0.0702 -0.1471
  677MOL0     C91299   5.600  12.591   5.958 -0.5483 -0.1782 -0.7061
  677MOL0     C91300   5.564  12.732   6.011 -0.6941  0.5041 -0.5813
  677MOL0     C91301   5.566  12.840   5.899  0.4471 -1.2461 -0.4605
  677MOL0     C91302   5.553  12.984   5.957 -0.7652 -0.0068 -0.1479
  677MOL0     C91303   5.406  13.030   5.972  0.2482  0.8615  0.3907
  677MOL0    Cl91304   5.316  13.001   5.824 -0.2217  0.0767  0.4303
  677MOL0     C91305   5.919  12.107   6.160  0.4326  0.0349  0.4114
  677MOL0     C91306   6.048  12.048   6.163  0.1083  0.3354  0.1474
  677MOL0     O91307   6.255  11.801   6.125  0.0160 -0.3148 -0.2513
  677MOL0     C91308   6.559  12.007   6.097  0.3318 -0.5000 -0.1978
  677MOL0     C91309   6.691  12.009   6.148 -0.0822 -0.0323 -0.3166
  677MOL0     N91310   7.365  11.904   6.582 -0.2876 -0.0491 -0.0786
  677MOL0     N91311   7.384  11.831   6.690  0.0048  0.8264  0.5523
  677MOL0     C91312   6.650  11.134   7.018  0.1347 -0.7104 -0.4401
  677MOL0     C91313   6.534  11.152   7.094 -0.8374 -0.0378 -0.1168
  677MOL0     C91314   6.184  11.069   7.366  0.4121 -0.3479  0.4507
  677MOL0     C91315   6.059  11.033   7.319  0.7747 -0.1565  0.5215
  677MOL0     C91316   5.948  11.051   7.399 -0.4044  0.3227 -0.4226
  677MOL0     C91317   5.957  11.082   7.534 -0.1038 -0.1054 -0.4464
  677MOL0     O91318   5.854  11.094   7.623 -0.4855  0.0019  0.7915
  677MOL0     C91319   5.729  11.155   7.574  0.9004  0.5246 -0.2515
  677MOL0     C91320   5.748  11.308   7.545  0.0506  0.4014  0.0015
  677MOL0     C91321   5.623  11.393   7.509  0.5849  0.8959  0.0011
  677MOL0     C91322   5.551  11.352   7.377  0.8713 -0.1070  0.1729
  677MOL0     C91323   5.641  11.374   7.266 -0.2074  0.2776  0.5626
  677MOL0     C91324   5.722  11.387   7.183  1.2598 -0.1132  1.4207
  677MOL0     C91325   6.080  11.094   7.592 -0.4598  0.2271  0.0387
  677MOL0     C91326   6.193  11.093   7.508 -0.6229  0.0574  1.1573
  677MOL0     C91327   6.327  11.126   7.568  0.1669 -0.4804 -0.3057
  677MOL0     H91328   6.638  11.085   7.399  0.6940 -1.3306  0.6133
  677MOL0     H91329   6.848  11.027   7.275  2.5407 -1.3405 -3.8552
  677MOL0     H91330   7.001  11.040   6.844 -1.6000 -1.2594 -0.1052
  677MOL0     H91331   6.832  11.022   6.844  0.7879 -0.7039 -0.3862
  677MOL0     H91332   6.841  11.283   6.928 -2.0528 -1.9718  0.2263
  677MOL0     H91333   6.861  11.225   6.760 -1.7644 -0.9271  0.9318
  677MOL0     H91334   7.128  11.247   6.906 -0.6126 -0.4835  0.5152
  677MOL0     H91335   7.044  11.397   6.856  3.1565  0.5431  1.0660
  677MOL0     H91336   7.082  11.156   6.675 -2.5260  0.1942  1.8674
  677MOL0     H91337   7.041  11.321   6.624 -0.3222  0.5630 -0.1689
  677MOL0     H91338   7.303  11.249   6.773 -1.2548  1.7502  1.7563
  677MOL0     H91339   7.301  11.247   6.599  3.4698 -1.9351  3.3954
  677MOL0     H91340   7.242  11.474   6.587  1.3694 -4.0000 -0.4867
  677MOL0     H91341   7.223  11.487   6.759 -3.6328 -1.4316 -1.3776
  677MOL0     H91342   7.490  11.418   6.605 -0.0854  2.0540 -0.5510
  677MOL0     H91343   7.481  11.387   6.772  0.7347  0.9263  0.4208
  677MOL0     H91344   7.440  11.614   6.845  1.1158 -2.2104  1.0349
  677MOL0     H91345   7.581  11.593   6.744  0.9169  1.2439 -1.2299
  677MOL0     H91346   7.450  11.611   6.467 -1.9788  1.2146 -2.6625
  677MOL0     H91347   7.331  11.963   6.326  0.9081 -0.1407 -1.2604
  677MOL0     H91348   7.358  11.809   6.261  0.1708  1.2836  0.4755
  677MOL0     H91349   7.128  11.869   6.229 -1.2523 -1.5254 -0.8128
  677MOL0     H91350   7.134  11.725   6.337  1.8185 -1.3194  1.1207
  677MOL0     H91351   7.070  12.012   6.412  1.1951 -0.7839 -2.9919
  677MOL0     H91352   7.096  11.882   6.529  0.0424 -1.9986 -0.6341
  677MOL0     H91353   6.846  11.868   6.489 -0.0039  0.2540  0.6702
  677MOL0     H91354   6.919  11.754   6.379  0.9616 -1.3290  4.8853
  677MOL0     H91355   6.672  11.746   6.360 -1.0926 -1.4852 -0.8988
  677MOL0     H91356   6.458  11.723   6.253  0.4143 -0.2880 -0.5086
  677MOL0     H91357   6.141  12.105   5.843  0.8145 -0.6656  1.6104
  677MOL0     H91358   5.901  12.187   5.832  1.0762 -2.4833 -2.2704
  677MOL0     H91359   5.746  12.362   5.899  2.4339 -1.0962  2.6410
  677MOL0     H91360   5.666  12.212   5.843 -0.6712 -1.5805  1.6650
  677MOL0     H91361   5.498  12.368   5.864  0.7076  2.8708  0.2049
  677MOL0     H91362   5.487  12.262   6.005 -0.5977 -0.4503 -1.8971
  677MOL0     H91363   5.458  12.470   6.089 -0.0095 -4.5281  1.6153
  677MOL0     H91364   5.622  12.456   6.129 -0.2253  1.7720 -0.0448
  677MOL0     H91365   5.539  12.586   5.868  1.0951 -2.0257 -1.7808
  677MOL0     H91366   5.706  12.601   5.933 -0.4396  1.0673  0.1533
  677MOL0     H91367   5.644  12.760   6.081 -0.6625 -2.0406  0.5285
  677MOL0     H91368   5.467  12.722   6.059  0.1768 -2.5889  0.8323
  677MOL0     H91369   5.664  12.829   5.850  1.1066 -3.7400  1.2054
  677MOL0     H91370   5.482  12.815   5.834  1.0376 -2.4670 -0.8007
  677MOL0     H91371   5.604  13.054   5.891  1.6187  2.4488  3.8880
  677MOL0     H91372   5.598  12.991   6.056 -1.8615 -0.5940  0.4194
  677MOL0     H91373   5.357  12.978   6.055 -1.8585 -1.7360 -2.2612
  677MOL0     H91374   5.413  13.137   5.995  0.5297  1.0446 -0.5226
  677MOL0     H91375   5.855  12.097   6.247 -2.5427 -2.5155 -1.8390
  677MOL0     H91376   6.101  11.998   6.243  0.8403 -2.5319 -1.9790
  677MOL0     H91377   6.533  12.081   6.023 -1.6829 -1.1418 -0.2037
  677MOL0     H91378   6.757  12.087   6.111 -0.8544  1.1315  0.6680
  677MOL0     H91379   6.656  11.140   6.910  0.2905 -2.3080 -0.5508
  677MOL0     H91380   6.452  11.191   7.034 -0.2802  0.1203 -0.7923
  677MOL0     H91381   6.039  11.021   7.213  3.1801  0.9369 -0.1313
  677MOL0     H91382   5.848  11.024   7.367  0.0767 -1.8602 -0.2455
  677MOL0     H91383   5.660  11.141   7.657  0.5665  0.6681 -0.5009
  677MOL0     H91384   5.687  11.098   7.491  0.2127  0.5675  0.0643
  677MOL0     H91385   5.828  11.317   7.471  2.1286 -0.6107  1.9906
  677MOL0     H91386   5.795  11.356   7.631 -3.0419  3.3111  0.3030
  677MOL0     H91387   5.640  11.501   7.497  0.9841  0.8502  0.1456
  677MOL0     H91388   5.546  11.383   7.586  0.1421  0.8727 -0.4439
  677MOL0     H91389   5.522  11.247   7.390 -0.9740  0.3546  0.0236
  677MOL0     H91390   5.457  11.406   7.364  0.4478 -1.2809 -2.1330
  677MOL0     H91391   5.794  11.403   7.106  2.5570  0.7768  2.7728
  677MOL0     H91392   6.091  11.122   7.696 -0.2432  0.1029  0.0500
  677MOL0     H91393   6.393  11.038   7.569  3.1346  1.5651 -0.0593
  677MOL0     H91394   6.377  11.212   7.523  0.1149 -0.8176 -1.0121
  677MOL0     H91395   6.297  11.155   7.669  1.9957 -0.6043  0.3287
  678MOL0     O91396   9.746   6.847   8.854 -0.0750 -0.7884  0.1525
  678MOL0     C91397   9.814   6.762   8.802 -0.2171 -0.5400 -0.1281
  678MOL0     O91398   9.928   6.703   8.858  0.3355 -0.0194 -0.1803
  678MOL0     C91399   9.958   6.744   8.985 -0.4610  0.1811 -0.1390
  678MOL0     C91400   9.975   6.646   9.070 -0.4930 -0.1083  0.6185
  678MOL0     C91401  10.003   6.675   9.204  0.6183 -0.3407  0.3472
  678MOL0     C91402  10.035   6.807   9.237 -0.4201  0.3954  0.1853
  678MOL0     O91403  10.067   6.835   9.368  0.4520  1.0865 -0.2438
  678MOL0     C91404   9.998   6.753   9.479  0.9025  0.1210 -0.3938
  678MOL0     C91405  10.035   6.809   9.616  0.0376 -1.4583  0.1792
  678MOL0     C91406   9.957   6.936   9.660 -0.0932 -0.0832  0.0271
  678MOL0     C91407  10.019   7.016   9.775  0.3217  0.3414  0.1017
  678MOL0     C91408   9.927   7.129   9.814 -0.5928 -0.5010  0.4238
  678MOL0     C91409   9.963   7.195   9.945  0.4604  0.4704  0.3222
  678MOL0     C91410   9.821   7.205  10.016  0.8454  0.2817  0.0815
  678MOL0     C91411   9.820   7.299  10.140 -0.1055  0.0203 -0.1724
  678MOL0     N91412   9.931   7.272  10.238 -0.5204 -0.0365  0.5752
  678MOL0     C91413  10.031   7.362  10.276 -0.7431  0.2588  0.3133
  678MOL0     C91414  10.116   7.293  10.352  1.1715 -1.2573  0.0815
  678MOL0     C91415  10.245   7.352  10.408  0.5654 -0.1179 -0.0485
  678MOL0     C91416  10.352   7.324  10.304 -1.1175  0.2598  0.0772
  678MOL0     C91417  10.410   7.190  10.324  0.1824  0.6424  0.1419
  678MOL0     C91418  10.499   7.143  10.215 -1.6695  0.1477 -0.5730
  678MOL0     O91419  10.629   7.207  10.230 -0.7258  0.2685 -0.3148
  678MOL0     C91420  10.743   7.140  10.180 -0.1758 -0.3298 -0.1777
  678MOL0     C91421  10.740   7.027  10.099  0.5703 -0.3456  0.6023
  678MOL0     C91422  10.845   6.959  10.037  0.5257 -0.7631  0.5898
  678MOL0     C91423  10.977   7.009  10.062 -0.2356  1.5588  0.4432
  678MOL0     C91424  11.095   6.941  10.005  0.0179 -0.8485 -0.2712
  678MOL0     O91425  11.205   7.001  10.045 -0.5422  0.4555 -0.4960
  678MOL0     C91426  11.320   6.956   9.993 -0.6870 -0.0462 -0.6716
  678MOL0     C91427  11.410   7.055   9.927  1.1192 -0.1325  0.5282
  678MOL0     C91428  11.534   7.021   9.878 -0.9654 -0.5204  0.7590
  678MOL0     C91429  11.587   6.894   9.897  0.5129  0.1529  0.1763
  678MOL0     O91430  11.708   6.860   9.843 -0.2926 -0.2148  0.3405
  678MOL0     C91431  11.726   6.730   9.785  0.4394  0.3304  0.5398
  678MOL0     C91432  11.850   6.735   9.696  0.5160 -0.1677  0.3818
  678MOL0     C91433  11.866   6.850   9.590 -0.4282  0.0503 -0.3416
  678MOL0     C91434  11.737   6.872   9.516 -0.2274 -0.3548 -0.0741
  678MOL0     C91435  11.731   6.987   9.414  0.2707 -0.1293 -0.4788
  678MOL0     C91436  11.859   6.998   9.331 -0.1152 -1.0927  0.0145
  678MOL0     C91437  11.847   7.104   9.223  0.0614 -0.3515 -0.7892
  678MOL0     C91438  11.987   7.117   9.148  0.2153  0.7574 -0.1538
  678MOL0    Cl91439  11.970   7.249   9.023 -0.1918 -0.3037  0.4766
  678MOL0     C91440  11.509   6.800   9.961  0.3423  0.6769  0.0476
  678MOL0     C91441  11.379   6.831  10.009  0.1205 -0.0143 -0.0871
  678MOL0     O91442  11.082   6.849   9.927  0.5389 -0.3885 -0.4262
  678MOL0     C91443  10.983   7.126  10.139 -0.6431  0.3627 -0.5273
  678MOL0     C91444  10.876   7.188  10.197 -0.1312 -0.0076 -0.4045
  678MOL0     N91445  10.066   7.167  10.353  0.6025  0.2985  0.0965
  678MOL0     N91446   9.955   7.153  10.292 -0.3865 -0.5237  0.9950
  678MOL0     C91447  10.039   6.905   9.141 -0.1776 -0.1679 -0.4560
  678MOL0     C91448  10.003   6.874   9.013  0.5340  0.2250  0.1889
  678MOL0     C91449   9.766   6.700   8.674 -0.3402  0.3971  0.7907
  678MOL0     C91450   9.863   6.636   8.595  1.0491 -0.2250  0.3550
  678MOL0     C91451   9.828   6.564   8.480 -0.3736 -0.7329 -0.3978
  678MOL0     C91452   9.695   6.554   8.449 -1.2634  0.5079  1.1109
  678MOL0     O91453   9.668   6.487   8.331  0.5498  0.0402  0.2811
  678MOL0     C91454   9.701   6.347   8.333 -0.2196 -0.4603 -1.1698
  678MOL0     C91455   9.576   6.257   8.341 -0.0494 -0.1372 -0.4520
  678MOL0     C91456   9.499   6.239   8.202  1.0907  0.5101 -0.3354
  678MOL0     C91457   9.366   6.156   8.216  1.0599 -0.8506 -0.4914
  678MOL0     C91458   9.280   6.176   8.104 -0.3746  0.1394  0.2052
  678MOL0     C91459   9.196   6.192   8.015 -0.6694  0.2166  0.6615
  678MOL0     C91460   9.597   6.626   8.511 -0.0195  0.5398  0.6955
  678MOL0     C91461   9.629   6.692   8.628  0.2520 -0.4073  1.1085
  678MOL0     C91462   9.522   6.748   8.711  1.2780 -0.3545  0.8301
  678MOL0     H91463   9.946   6.551   9.025  1.1241  0.5999 -2.1685
  678MOL0     H91464  10.008   6.593   9.274 -1.2744 -0.2289  0.6579
  678MOL0     H91465   9.890   6.742   9.465  0.8983  2.0649 -2.5206
  678MOL0     H91466  10.046   6.655   9.473  0.6020  0.0378 -2.1245
  678MOL0     H91467  10.139   6.837   9.602 -0.8381  0.7357 -3.2428
  678MOL0     H91468  10.030   6.727   9.689  1.6073 -1.0068  0.8317
  678MOL0     H91469   9.859   6.898   9.691  0.0928 -1.1208 -0.5961
  678MOL0     H91470   9.950   6.997   9.569 -2.5026 -0.4341 -0.0896
  678MOL0     H91471  10.040   6.948   9.858 -0.7963 -0.2184 -0.0650
  678MOL0     H91472  10.118   7.058   9.757  1.0214 -1.5878 -0.8643
  678MOL0     H91473   9.929   7.209   9.739  2.3533 -0.7197  0.1408
  678MOL0     H91474   9.828   7.083   9.813 -1.2563  0.8387 -1.4868
  678MOL0     H91475  10.045   7.147  10.000 -0.4423 -1.7007 -0.1508
  678MOL0     H91476  10.009   7.292   9.925 -0.9317  0.6681 -2.3229
  678MOL0     H91477   9.783   7.105  10.040  0.0468  0.6222  0.2528
  678MOL0     H91478   9.758   7.256   9.942 -3.0032 -3.9993 -0.0546
  678MOL0     H91479   9.816   7.401  10.100  1.0823 -0.0406 -0.5038
  678MOL0     H91480   9.725   7.278  10.189 -0.5839 -1.7540 -1.7250
  678MOL0     H91481  10.020   7.468  10.260  1.1003  0.1658 -2.0306
  678MOL0     H91482  10.251   7.461  10.416  1.8110 -0.2237  0.6840
  678MOL0     H91483  10.260   7.295  10.500 -0.4406  1.9364  1.4600
  678MOL0     H91484  10.307   7.331  10.205 -1.6113 -1.5287  0.1394
  678MOL0     H91485  10.425   7.406  10.312 -2.6772  1.8926 -1.4336
  678MOL0     H91486  10.323   7.125  10.321 -0.5453  1.5394  0.9954
  678MOL0     H91487  10.460   7.189  10.421  0.4303  0.6822  0.0169
  678MOL0     H91488  10.460   7.137  10.113 -1.9549 -4.7877 -0.4037
  678MOL0     H91489  10.512   7.038  10.242 -1.3251  0.7618  1.8595
  678MOL0     H91490  10.647   6.982  10.064  1.4884 -0.8604 -1.3545
  678MOL0     H91491  10.842   6.865   9.983  1.9936  0.9040 -2.6809
  678MOL0     H91492  11.366   7.154   9.929 -4.1771 -2.1307  2.9033
  678MOL0     H91493  11.613   7.082   9.834  0.9160 -0.1047  4.3455
  678MOL0     H91494  11.721   6.646   9.854 -2.5578  0.3237  0.4443
  678MOL0     H91495  11.641   6.712   9.719  1.0797 -0.7909 -0.0083
  678MOL0     H91496  11.934   6.751   9.764  0.4542  2.6256 -0.0850
  678MOL0     H91497  11.861   6.638   9.647  1.0921  0.4532 -0.7547
  678MOL0     H91498  11.907   6.936   9.644  0.8821 -1.8677  1.9458
  678MOL0     H91499  11.944   6.819   9.521  0.7279  0.9084  0.5509
  678MOL0     H91500  11.664   6.885   9.596  2.4284 -0.7760  2.5972
  678MOL0     H91501  11.707   6.779   9.466  0.7207 -0.4531 -0.4870
  678MOL0     H91502  11.714   7.085   9.461 -1.3394 -0.6850  0.1802
  678MOL0     H91503  11.655   6.957   9.341 -1.5812  2.5013  0.1859
  678MOL0     H91504  11.950   7.030   9.382  1.1253 -0.9187 -2.1641
  678MOL0     H91505  11.885   6.899   9.290  1.4590 -1.8438  2.5778
  678MOL0     H91506  11.829   7.206   9.260  3.4537  0.8017 -1.8254
  678MOL0     H91507  11.771   7.080   9.149 -0.8857 -0.2930  0.1533
  678MOL0     H91508  12.073   7.130   9.214  0.3496 -1.7253  0.2582
  678MOL0     H91509  11.993   7.017   9.104  0.9335 -1.0311  3.6642
  678MOL0     H91510  11.549   6.701   9.977 -1.1121  0.0516  0.0073
  678MOL0     H91511  11.328   6.756  10.069 -0.8182  0.2705 -0.5148
  678MOL0     H91512  11.079   7.166  10.168 -0.1621 -0.9641 -0.2129
  678MOL0     H91513  10.886   7.278  10.256  1.8443 -1.6219  1.9165
  678MOL0     H91514  10.079   7.005   9.157 -1.5659  0.5684 -1.3391
  678MOL0     H91515  10.003   6.952   8.938  2.0774 -0.6846 -0.8054
  678MOL0     H91516   9.971   6.643   8.608  1.1072  1.7968 -0.7903
  678MOL0     H91517   9.908   6.522   8.419 -1.8228 -1.7360 -1.6725
  678MOL0     H91518   9.762   6.331   8.422 -0.6324 -0.8592 -0.9568
  678MOL0     H91519   9.772   6.322   8.253  1.7637 -2.8880  1.1862
  678MOL0     H91520   9.502   6.304   8.406  0.2348  2.5540 -1.9308
  678MOL0     H91521   9.605   6.162   8.387  0.3664 -0.0366 -0.4985
  678MOL0     H91522   9.554   6.187   8.123 -0.9069  1.3790 -2.3891
  678MOL0     H91523   9.476   6.340   8.166 -1.2468  0.1694  0.0174
  678MOL0     H91524   9.409   6.055   8.223  0.9489 -0.8034  1.1272
  678MOL0     H91525   9.316   6.187   8.308  2.0103  1.7218 -0.7590
  678MOL0     H91526   9.117   6.194   7.944 -2.7894 -2.4227  2.7176
  678MOL0     H91527   9.501   6.613   8.462  0.2929 -2.3941  0.6939
  678MOL0     H91528   9.426   6.735   8.661  2.0646 -1.2466 -0.5103
  678MOL0     H91529   9.522   6.682   8.799  2.7990 -1.8340 -0.2064
  678MOL0     H91530   9.536   6.853   8.736 -2.1954  0.2963  0.4629
  679MOL0     O91531   3.832   7.700   6.709  0.2257 -0.4684 -0.2843
  679MOL0     C91532   3.783   7.724   6.598  0.0539  0.1235 -0.2493
  679MOL0     O91533   3.802   7.834   6.518 -0.2285  0.5090  0.7745
  679MOL0     C91534   3.858   7.952   6.567  0.4707 -0.6849 -0.5229
  679MOL0     C91535   3.999   7.987   6.557  0.2018 -0.5526  0.4080
  679MOL0     C91536   4.053   8.113   6.608 -0.1272  0.0501 -0.0874
  679MOL0     C91537   3.967   8.195   6.686 -0.6297 -0.7905  0.1059
  679MOL0     O91538   4.011   8.311   6.744  0.5639  0.2666  0.1715
  679MOL0     C91539   3.920   8.398   6.817 -0.8671 -0.0721  0.6437
  679MOL0     C91540   3.976   8.534   6.814  0.0385  0.0031  0.3490
  679MOL0     C91541   4.006   8.580   6.668  0.0901  0.2076  0.0957
  679MOL0     C91542   4.104   8.693   6.665 -0.8419 -0.3358 -0.2692
  679MOL0     C91543   4.137   8.749   6.521 -0.4583  0.5158  0.1857
  679MOL0     C91544   4.013   8.782   6.438  0.3275  0.2476 -0.5400
  679MOL0     C91545   4.062   8.849   6.309 -0.3212 -0.0534  0.2655
  679MOL0     C91546   3.942   8.908   6.238 -0.0392 -0.1979 -1.0839
  679MOL0     N91547   3.968   9.004   6.135 -0.2052 -0.6396  0.4447
  679MOL0     C91548   3.877   9.040   6.038 -0.8009  0.0648  0.5188
  679MOL0     C91549   3.943   9.103   5.930  1.2471 -0.4531  0.2038
  679MOL0     C91550   3.877   9.156   5.809  0.8138  0.6349  0.0949
  679MOL0     C91551   3.750   9.081   5.765 -0.1411  0.0290  0.1370
  679MOL0     C91552   3.713   9.130   5.623  0.2064 -0.0842 -0.1509
  679MOL0     C91553   3.571   9.118   5.596  0.6081  0.4763 -0.1070
  679MOL0     O91554   3.500   9.189   5.703 -0.3269  0.1493 -0.8065
  679MOL0     C91555   3.388   9.143   5.771 -0.4575 -0.6703 -0.1882
  679MOL0     C91556   3.342   9.223   5.876  0.2443 -1.0192 -0.5756
  679MOL0     C91557   3.226   9.190   5.936 -0.4827  1.0510 -1.0356
  679MOL0     C91558   3.153   9.068   5.899 -0.4716  0.4300 -0.5733
  679MOL0     C91559   3.023   9.047   5.957 -0.0659  0.3225  0.1048
  679MOL0     O91560   2.994   9.109   6.079  0.3569 -0.3687  0.3657
  679MOL0     C91561   2.878   9.095   6.133  0.6774  0.9529 -0.2549
  679MOL0     C91562   2.791   9.204   6.135 -0.6035  0.8361  0.5367
  679MOL0     C91563   2.658   9.183   6.188  0.0553  0.5970 -0.1659
  679MOL0     C91564   2.616   9.066   6.259 -0.9437 -0.1088  0.2688
  679MOL0     O91565   2.497   9.032   6.321 -0.2955  0.1188 -0.2907
  679MOL0     C91566   2.405   9.145   6.325 -0.0039 -0.0466  0.2602
  679MOL0     C91567   2.292   9.103   6.418  0.6030 -0.4354 -0.5431
  679MOL0     C91568   2.183   9.005   6.368 -0.1343 -0.4080  0.4742
  679MOL0     C91569   2.085   9.073   6.271  0.3799 -0.5398 -0.1277
  679MOL0     C91570   2.018   8.983   6.165  0.1816 -0.6700  0.0170
  679MOL0     C91571   1.944   8.866   6.235  0.1896  0.1275  0.0887
  679MOL0     C91572   1.850   8.799   6.130 -0.1990 -0.2613 -1.1764
  679MOL0     C91573   1.746   8.693   6.192  0.1534 -1.1258  0.1843
  679MOL0    Cl91574   1.835   8.537   6.239  0.4704 -0.1468  0.6855
  679MOL0     C91575   2.708   8.964   6.259 -0.7374 -0.0122  0.5561
  679MOL0     C91576   2.840   8.982   6.208  0.2295 -0.8019  0.7658
  679MOL0     O91577   2.947   8.980   5.884 -0.1448 -0.2279 -0.4683
  679MOL0     C91578   3.214   8.980   5.811  0.3218  0.8864 -0.3397
  679MOL0     C91579   3.323   9.026   5.732 -0.0749 -0.6209  0.3293
  679MOL0     N91580   4.079   9.100   5.970  0.4657  0.0664 -1.2400
  679MOL0     N91581   4.091   9.046   6.093  0.2468 -0.0026 -0.1149
  679MOL0     C91582   3.832   8.153   6.700  1.0893  0.3071 -0.7773
  679MOL0     C91583   3.778   8.038   6.645  0.3005  0.4221  0.7977
  679MOL0     C91584   3.690   7.621   6.544 -0.3931  0.4891 -0.2109
  679MOL0     C91585   3.580   7.666   6.473  0.5561  0.2126  1.1294
  679MOL0     C91586   3.483   7.569   6.432  0.0392  0.8607  0.0194
  679MOL0     C91587   3.501   7.434   6.443 -0.0972 -0.4079 -0.2881
  679MOL0     O91588   3.426   7.335   6.382  0.0680 -0.1112 -0.0232
  679MOL0     C91589   3.332   7.363   6.283 -0.4555 -0.4462 -0.1124
  679MOL0     C91590   3.386   7.418   6.149 -0.4114  0.1898 -0.7229
  679MOL0     C91591   3.452   7.313   6.059 -0.2024  0.1472  0.2658
  679MOL0     C91592   3.517   7.377   5.939  0.3123 -0.9203  0.9491
  679MOL0     C91593   3.401   7.426   5.857  0.0053 -0.1382 -0.3894
  679MOL0     C91594   3.312   7.444   5.779 -0.0713 -0.0508 -0.1270
  679MOL0     C91595   3.607   7.395   6.527  0.0596 -0.3438  0.5236
  679MOL0     C91596   3.705   7.486   6.573 -0.0089  0.4667 -0.3280
  679MOL0     C91597   3.828   7.415   6.624 -0.8138 -0.1669  0.0192
  679MOL0     H91598   4.047   7.916   6.490 -0.6410 -1.0782  0.3425
  679MOL0     H91599   4.159   8.134   6.602 -0.1541 -0.1030 -1.2078
  679MOL0     H91600   3.825   8.407   6.763 -0.1884 -1.8639 -0.9884
  679MOL0     H91601   3.901   8.358   6.917 -0.1922  3.2044  2.1986
  679MOL0     H91602   4.071   8.536   6.868 -0.4890 -0.4631  1.3312
  679MOL0     H91603   3.905   8.607   6.854 -1.3487  0.1054 -2.1168
  679MOL0     H91604   3.911   8.617   6.628  0.1427  0.4976  0.2373
  679MOL0     H91605   4.035   8.500   6.598 -0.8133  0.1959 -0.2783
  679MOL0     H91606   4.054   8.772   6.720 -0.0835 -0.6645  0.9304
  679MOL0     H91607   4.195   8.671   6.722 -1.4524  3.6954  2.6663
  679MOL0     H91608   4.202   8.838   6.519  0.9023 -0.4409  0.1845
  679MOL0     H91609   4.192   8.672   6.466 -1.8126  0.4275 -1.0837
  679MOL0     H91610   3.957   8.691   6.415 -1.7022  1.4359 -0.5436
  679MOL0     H91611   3.948   8.849   6.496 -2.5864 -1.8944 -1.0920
  679MOL0     H91612   4.113   8.775   6.246  2.0573 -1.0563  3.1164
  679MOL0     H91613   4.122   8.939   6.323 -0.8104 -0.0185  2.5213
  679MOL0     H91614   3.889   8.817   6.210 -1.4889 -0.3177  1.6382
  679MOL0     H91615   3.880   8.961   6.312  0.1953  0.5887 -1.4425
  679MOL0     H91616   3.774   9.006   6.027  0.3140 -2.6396 -4.0661
  679MOL0     H91617   3.830   9.251   5.839 -0.6516 -0.3247  0.9553
  679MOL0     H91618   3.949   9.165   5.727 -0.2323  1.6802 -0.7442
  679MOL0     H91619   3.747   8.972   5.764  0.2979 -0.0116 -2.1655
  679MOL0     H91620   3.670   9.116   5.830 -0.7867 -0.0605 -0.5972
  679MOL0     H91621   3.775   9.093   5.540  1.5538  1.9801 -0.1467
  679MOL0     H91622   3.725   9.239   5.623  1.5588 -0.2112 -0.0353
  679MOL0     H91623   3.531   9.017   5.585  2.3108 -0.5146  2.1785
  679MOL0     H91624   3.538   9.166   5.503  2.4637  0.2990 -0.8983
  679MOL0     H91625   3.398   9.310   5.910 -0.5713 -0.9911  0.7689
  679MOL0     H91626   3.177   9.270   5.991 -0.0545  1.0734 -0.6827
  679MOL0     H91627   2.826   9.290   6.080  0.2562 -1.0881 -2.1299
  679MOL0     H91628   2.593   9.269   6.170  1.6073  1.6817 -0.8385
  679MOL0     H91629   2.453   9.239   6.356 -1.6947  1.1719 -0.6071
  679MOL0     H91630   2.371   9.177   6.226  0.6911  0.7027  0.2539
  679MOL0     H91631   2.330   9.067   6.514 -1.7825  3.9400  2.4179
  679MOL0     H91632   2.243   9.197   6.445  0.5211 -0.7675  0.4903
  679MOL0     H91633   2.234   8.923   6.316  0.9484  0.3021  0.3832
  679MOL0     H91634   2.143   8.954   6.456 -0.6620 -4.9255 -2.0578
  679MOL0     H91635   2.137   9.144   6.206  0.8669 -2.1240 -1.5501
  679MOL0     H91636   2.018   9.132   6.334  0.0228 -0.0583 -0.9423
  679MOL0     H91637   2.091   8.947   6.092  0.3749  1.8989 -1.1679
  679MOL0     H91638   1.945   9.045   6.111  0.0541  0.6820  1.6719
  679MOL0     H91639   2.016   8.793   6.272 -0.1299  0.1946  0.8856
  679MOL0     H91640   1.884   8.916   6.312  1.0186  0.7484  0.3421
  679MOL0     H91641   1.908   8.744   6.056 -0.8210 -2.5006 -0.1247
  679MOL0     H91642   1.788   8.880   6.093 -3.4661 -1.5271  0.9987
  679MOL0     H91643   1.699   8.748   6.274  1.8419  0.5966  0.0616
  679MOL0     H91644   1.666   8.663   6.124  0.8105 -3.7022  0.4415
  679MOL0     H91645   2.687   8.881   6.326 -1.6196  0.8015  1.3208
  679MOL0     H91646   2.908   8.902   6.237  3.5043  1.1327 -1.0256
  679MOL0     H91647   3.162   8.887   5.789  0.6518  0.3268  1.1244
  679MOL0     H91648   3.352   8.954   5.656 -1.8140 -0.4467 -0.5654
  679MOL0     H91649   3.751   8.199   6.754  0.6579  0.5889 -1.6512
  679MOL0     H91650   3.670   8.028   6.648  0.0252  2.6631  5.0408
  679MOL0     H91651   3.559   7.768   6.444  2.0650  0.0614 -0.6336
  679MOL0     H91652   3.396   7.610   6.381 -1.5838 -1.6187  0.5737
  679MOL0     H91653   3.268   7.443   6.322  0.0273  0.0284 -0.2834
  679MOL0     H91654   3.282   7.266   6.271 -0.2327 -0.4036 -1.6949
  679MOL0     H91655   3.464   7.494   6.162 -1.8840  1.3848  1.9078
  679MOL0     H91656   3.299   7.469   6.107  1.2307  1.9252 -2.2504
  679MOL0     H91657   3.381   7.233   6.037 -0.5641  0.9844 -1.7945
  679MOL0     H91658   3.536   7.275   6.118  0.0482  3.6521  2.4906
  679MOL0     H91659   3.584   7.458   5.969  0.4683  0.1552 -1.9672
  679MOL0     H91660   3.577   7.302   5.887 -1.6747 -0.8968 -1.5718
  679MOL0     H91661   3.231   7.488   5.724 -1.5534  1.7325  3.1689
  679MOL0     H91662   3.642   7.293   6.536  0.8686 -0.0912  0.2924
  679MOL0     H91663   3.853   7.326   6.566 -1.2411  0.7890 -1.7216
  679MOL0     H91664   3.915   7.481   6.630 -0.3039 -0.7921 -0.3680
  679MOL0     H91665   3.817   7.373   6.724 -1.3344 -0.3218 -0.0985
  680MOL0     O91666  10.579   7.975   6.782 -0.3973 -0.6226 -0.0742
  680MOL0     C91667  10.668   7.906   6.838 -0.1283  0.2356  0.7458
  680MOL0     O91668  10.666   7.842   6.959 -0.5431 -0.0562  0.0236
  680MOL0     C91669  10.544   7.824   7.018 -0.6969 -0.2859 -0.3208
  680MOL0     C91670  10.425   7.783   6.951  0.4266 -0.4298  0.5043
  680MOL0     C91671  10.315   7.761   7.039 -0.5070 -0.2496 -0.0004
  680MOL0     C91672  10.322   7.761   7.179 -0.3650  0.2686 -0.1421
  680MOL0     O91673  10.219   7.732   7.266 -0.2528 -0.6006  0.0815
  680MOL0     C91674  10.122   7.627   7.232 -0.1884 -0.1396 -0.0642
  680MOL0     C91675   9.986   7.694   7.239  0.3735  0.1311  0.5922
  680MOL0     C91676   9.886   7.593   7.197 -0.3382 -0.4374 -0.8943
  680MOL0     C91677   9.905   7.545   7.048  0.6077 -0.5418 -0.8113
  680MOL0     C91678   9.803   7.440   7.005 -0.1096  0.3796 -0.4837
  680MOL0     C91679   9.683   7.499   6.933 -0.2456 -0.3662  0.1413
  680MOL0     C91680   9.608   7.377   6.869  0.5466 -0.6000 -0.2428
  680MOL0     C91681   9.499   7.415   6.772 -0.1533 -0.5227  0.9619
  680MOL0     N91682   9.371   7.471   6.818  0.3952  0.2468  0.4079
  680MOL0     C91683   9.346   7.603   6.845  0.3097 -0.5257  0.8312
  680MOL0     C91684   9.228   7.605   6.915 -0.8271  0.2405  0.3440
  680MOL0     C91685   9.169   7.716   6.999  0.6071 -0.1700  0.0613
  680MOL0     C91686   9.055   7.783   6.924  0.3506 -0.3942 -0.1763
  680MOL0     C91687   9.028   7.926   6.982 -0.4631  0.0208  0.3369
  680MOL0     C91688   8.916   7.988   6.899  0.2339  0.1697  0.6885
  680MOL0     O91689   8.908   8.120   6.950 -0.7819  1.1149  0.2210
  680MOL0     C91690   8.793   8.185   6.918 -0.6692  0.8219  0.3619
  680MOL0     C91691   8.755   8.296   6.998 -0.0045  0.3172 -0.9153
  680MOL0     C91692   8.649   8.374   6.965  0.5229 -0.3324  0.1329
  680MOL0     C91693   8.581   8.356   6.840 -0.2344 -1.0862 -0.3661
  680MOL0     C91694   8.472   8.443   6.793  0.0057 -0.2421  0.6593
  680MOL0     O91695   8.449   8.447   6.657 -0.2677 -0.3050  0.8833
  680MOL0     C91696   8.377   8.555   6.601  0.3319  0.5265  0.5088
  680MOL0     C91697   8.238   8.544   6.574 -0.3028 -0.1347 -0.8576
  680MOL0     C91698   8.169   8.659   6.534 -0.2559 -0.3471  0.7469
  680MOL0     C91699   8.239   8.781   6.516 -0.1073  0.0522  0.4135
  680MOL0     O91700   8.181   8.888   6.470  0.7724 -0.3395  0.1060
  680MOL0     C91701   8.068   8.882   6.379 -0.1011  1.1291  0.0365
  680MOL0     C91702   8.073   8.999   6.268  0.4503  0.2297  0.6017
  680MOL0     C91703   8.174   8.954   6.157 -0.0824 -0.1164 -0.3226
  680MOL0     C91704   8.314   8.962   6.198 -0.0036 -0.0872 -0.5564
  680MOL0     C91705   8.408   8.955   6.078  0.1893 -0.2951 -0.0311
  680MOL0     C91706   8.555   8.936   6.111  0.9106 -0.9975 -0.8537
  680MOL0     C91707   8.592   8.806   6.175 -0.3622 -0.3335 -0.0355
  680MOL0     C91708   8.736   8.783   6.234 -0.5397 -0.1137  0.1173
  680MOL0    Cl91709   8.772   8.927   6.321  0.0542 -0.2888  0.5714
  680MOL0     C91710   8.380   8.779   6.523  0.5130  0.5693 -0.2153
  680MOL0     C91711   8.448   8.667   6.567  0.4047 -0.3496  0.0783
  680MOL0     O91712   8.419   8.527   6.869  0.2437  0.2490 -0.4514
  680MOL0     C91713   8.610   8.245   6.762 -1.0879  0.0809  0.0250
  680MOL0     C91714   8.719   8.160   6.793  0.3987 -0.4155  0.4537
  680MOL0     N91715   9.182   7.463   6.921  0.4926 -0.6136 -0.4207
  680MOL0     N91716   9.270   7.390   6.859 -0.4413  0.0899 -0.0014
  680MOL0     C91717  10.445   7.796   7.238 -0.4115  0.4580  0.1307
  680MOL0     C91718  10.555   7.828   7.157  0.1106 -0.0823  0.0628
  680MOL0     C91719  10.796   7.915   6.757 -0.2024 -0.0600 -0.4273
  680MOL0     C91720  10.790   7.920   6.617  0.0046  0.6454 -0.5038
  680MOL0     C91721  10.912   7.920   6.539  0.1964 -0.3095  0.3963
  680MOL0     C91722  11.037   7.929   6.597  0.4750  0.5952 -0.3342
  680MOL0     O91723  11.146   7.944   6.518 -0.1554 -0.1153  0.8968
  680MOL0     C91724  11.276   7.968   6.579 -0.3733  0.3663 -0.3094
  680MOL0     C91725  11.389   7.998   6.466  0.9611 -0.2844  0.2480
  680MOL0     C91726  11.373   8.127   6.395 -0.4400  0.2797  0.1948
  680MOL0     C91727  11.500   8.136   6.296 -0.3547  0.1657  0.6204
  680MOL0     C91728  11.499   8.251   6.206 -0.1737  0.7251 -0.6889
  680MOL0     C91729  11.504   8.342   6.121  0.4287 -0.1000  0.2444
  680MOL0     C91730  11.040   7.939   6.739  0.3722  0.2848 -0.6327
  680MOL0     C91731  10.920   7.927   6.820 -0.2616  0.7567  0.3420
  680MOL0     C91732  10.944   7.934   6.967 -0.7147 -0.4301 -0.2438
  680MOL0     H91733  10.416   7.775   6.843 -0.1823 -1.3044  0.6134
  680MOL0     H91734  10.219   7.741   6.993 -1.6221  1.0704  1.6051
  680MOL0     H91735  10.138   7.593   7.129  1.4249 -1.3284  0.5537
  680MOL0     H91736  10.140   7.546   7.302 -2.2689  0.0257  0.7461
  680MOL0     H91737   9.966   7.779   7.173 -3.3065 -0.7476  0.3508
  680MOL0     H91738   9.962   7.732   7.338 -1.9218  2.9096 -0.8861
  680MOL0     H91739   9.786   7.635   7.213  1.1770  2.8964  0.7039
  680MOL0     H91740   9.889   7.514   7.273  3.1496  0.1277 -0.2769
  680MOL0     H91741   9.900   7.637   6.990  0.8124  1.2038  1.7452
  680MOL0     H91742  10.004   7.503   7.026  0.7160 -2.3648  2.4485
  680MOL0     H91743   9.854   7.374   6.934  2.9863  0.6337  1.3222
  680MOL0     H91744   9.777   7.386   7.096  4.2497 -1.2512  0.0686
  680MOL0     H91745   9.609   7.555   6.990 -1.1012 -0.3927 -0.9106
  680MOL0     H91746   9.721   7.563   6.853  0.3792 -0.7268  0.1435
  680MOL0     H91747   9.565   7.321   6.953  2.2495 -0.5604  0.7072
  680MOL0     H91748   9.678   7.313   6.814  1.4611 -0.6461  0.9172
  680MOL0     H91749   9.536   7.494   6.706  0.7414  0.2537  2.3501
  680MOL0     H91750   9.464   7.327   6.717  1.0503 -1.0721  1.0658
  680MOL0     H91751   9.407   7.687   6.815 -3.2598  1.2900 -2.0860
  680MOL0     H91752   9.145   7.685   7.101 -1.6567 -1.3423 -0.7568
  680MOL0     H91753   9.244   7.795   7.003 -0.6942  1.0635  0.7885
  680MOL0     H91754   9.095   7.793   6.822 -0.5543  0.2286 -0.4766
  680MOL0     H91755   8.965   7.721   6.929  0.2786 -0.2109  1.5596
  680MOL0     H91756   9.119   7.985   6.970 -2.3559  3.0599 -0.2377
  680MOL0     H91757   9.004   7.926   7.089  1.7335 -1.1837  0.8950
  680MOL0     H91758   8.821   7.935   6.909 -0.5501  1.5562  0.8901
  680MOL0     H91759   8.957   7.988   6.797  2.9771  0.1005  1.6861
  680MOL0     H91760   8.812   8.308   7.090 -0.6568  2.4142 -0.7358
  680MOL0     H91761   8.636   8.463   7.026  0.6470 -1.4755  1.8915
  680MOL0     H91762   8.183   8.451   6.587 -3.2998  1.3393 -2.0259
  680MOL0     H91763   8.060   8.659   6.529 -0.3634 -1.3514  2.2362
  680MOL0     H91764   8.084   8.790   6.322  1.0044  0.0512  2.0030
  680MOL0     H91765   7.970   8.868   6.425 -0.1427  0.1502 -0.3344
  680MOL0     H91766   7.972   9.005   6.225  0.0955  1.9297  1.5758
  680MOL0     H91767   8.105   9.096   6.307 -0.8960 -0.5081  3.9413
  680MOL0     H91768   8.156   8.857   6.108  1.8695 -0.7994  0.2433
  680MOL0     H91769   8.157   9.028   6.079  0.9008  1.6949  1.1116
  680MOL0     H91770   8.326   8.884   6.274 -1.6303 -0.5756 -0.7676
  680MOL0     H91771   8.331   9.056   6.251  1.5047 -0.6361  0.0006
  680MOL0     H91772   8.396   9.053   6.030 -1.9407 -0.1176  0.7454
  680MOL0     H91773   8.373   8.874   6.014 -3.2444  1.4059 -0.5486
  680MOL0     H91774   8.618   8.964   6.025  0.7249  1.3405 -0.3007
  680MOL0     H91775   8.566   9.012   6.189 -1.2633 -1.5371  0.0376
  680MOL0     H91776   8.560   8.719   6.117 -1.7556 -0.2207  0.5342
  680MOL0     H91777   8.523   8.805   6.260  1.1128  0.4100  1.2263
  680MOL0     H91778   8.733   8.703   6.309 -0.5937 -0.3149 -0.1011
  680MOL0     H91779   8.818   8.768   6.164 -1.3487  1.8299 -1.3583
  680MOL0     H91780   8.440   8.863   6.491 -1.8953  1.5123 -2.6915
  680MOL0     H91781   8.552   8.681   6.596 -0.1242 -0.3000  2.1388
  680MOL0     H91782   8.544   8.226   6.678  0.3232  2.8376 -1.8600
  680MOL0     H91783   8.763   8.095   6.717  1.2647 -0.6859  1.1635
  680MOL0     H91784  10.460   7.790   7.346  0.3128  1.9384  0.1450
  680MOL0     H91785  10.651   7.852   7.200 -0.7398  0.7250  1.6331
  680MOL0     H91786  10.697   7.896   6.568  0.1750 -4.7092  1.1101
  680MOL0     H91787  10.897   7.915   6.432 -2.9821 -2.2601  0.8026
  680MOL0     H91788  11.311   7.881   6.635 -0.6488  0.7333  0.4384
  680MOL0     H91789  11.259   8.055   6.643  2.1472  1.3066 -0.8122
  680MOL0     H91790  11.371   7.920   6.392 -0.1640  3.0415 -3.3216
  680MOL0     H91791  11.487   7.973   6.508  0.5369 -2.3936  0.1097
  680MOL0     H91792  11.377   8.214   6.462  0.1940  0.4637 -0.0769
  680MOL0     H91793  11.277   8.130   6.343  0.3061  1.6725 -1.2024
  680MOL0     H91794  11.587   8.150   6.360  0.0396 -0.7174  0.2907
  680MOL0     H91795  11.521   8.050   6.232 -0.6515  0.9953 -0.6326
  680MOL0     H91796  11.526   8.419   6.050 -0.6101 -0.0256 -0.0133
  680MOL0     H91797  11.140   7.930   6.781  0.7633  2.9691 -0.7785
  680MOL0     H91798  10.900   7.845   7.013  1.6257 -1.1243  0.8757
  680MOL0     H91799  11.052   7.925   6.984 -0.6387  0.8039  0.0478
  680MOL0     H91800  10.910   8.032   7.001 -0.8584 -0.7327  0.5089
  681MOL0     O91801   3.019   9.843   3.001 -0.4138  0.2157 -0.4672
  681MOL0     C91802   2.986   9.941   3.062  0.3053  0.0376 -0.2262
  681MOL0     O91803   3.083  10.039   3.110  0.1694 -0.0152 -0.0046
  681MOL0     C91804   3.218  10.028   3.066 -0.6676 -1.4591 -1.0431
  681MOL0     C91805   3.282  10.148   3.046 -0.1929 -1.0784  0.2973
  681MOL0     C91806   3.419  10.156   3.029 -0.8869 -1.3746  0.3226
  681MOL0     C91807   3.500  10.041   3.039  0.2846  0.4216 -0.0708
  681MOL0     O91808   3.636  10.049   3.012 -0.1475 -0.2812  0.3269
  681MOL0     C91809   3.687   9.945   2.922  0.9778  0.4398 -0.1990
  681MOL0     C91810   3.820   9.987   2.856  0.8277  1.0214 -1.0712
  681MOL0     C91811   3.798  10.040   2.717 -0.3145 -0.1363  0.3690
  681MOL0     C91812   3.932  10.101   2.660  0.2366  0.1000  1.0053
  681MOL0     C91813   3.943  10.262   2.665 -0.3225 -0.2040 -0.1923
  681MOL0     C91814   4.084  10.302   2.693  0.8219 -1.3449 -0.2109
  681MOL0     C91815   4.116  10.453   2.678 -0.1279 -0.1511  0.0133
  681MOL0     C91816   4.264  10.506   2.685  0.1123 -0.2587  0.2089
  681MOL0     N91817   4.308  10.479   2.824 -0.3245  0.2298  0.6960
  681MOL0     C91818   4.402  10.391   2.863  0.0888  0.4725 -0.7709
  681MOL0     C91819   4.424  10.420   3.001 -0.2452  0.5097  0.6206
  681MOL0     C91820   4.524  10.348   3.088 -1.0365 -0.1414 -0.1380
  681MOL0     C91821   4.483  10.205   3.121  0.9423 -0.4835 -0.7588
  681MOL0     C91822   4.593  10.114   3.160 -0.8446 -0.4074  0.1867
  681MOL0     C91823   4.675  10.063   3.036 -0.0681 -0.9137 -0.3704
  681MOL0     O91824   4.573   9.998   2.962  0.1202  0.9018  0.5914
  681MOL0     C91825   4.555   9.867   2.990 -0.4037  0.3735  0.4227
  681MOL0     C91826   4.451   9.820   3.071 -0.3222 -0.2695  1.5451
  681MOL0     C91827   4.430   9.677   3.088  0.7562 -0.7190  0.6108
  681MOL0     C91828   4.520   9.583   3.030  0.5047  0.1281 -0.4458
  681MOL0     C91829   4.503   9.438   3.059 -0.0152 -0.1129  0.4810
  681MOL0     O91830   4.392   9.396   3.121  0.1686 -0.2398 -0.1288
  681MOL0     C91831   4.369   9.262   3.129 -0.3090  0.4646  0.0595
  681MOL0     C91832   4.466   9.168   3.175 -0.5467 -1.1799 -0.1780
  681MOL0     C91833   4.441   9.027   3.178  0.3028 -0.1991  0.1166
  681MOL0     C91834   4.324   8.978   3.119  0.2046 -0.6326  0.9814
  681MOL0     O91835   4.278   8.849   3.102  0.0220  0.1066  0.2137
  681MOL0     C91836   4.365   8.742   3.134 -0.4242  0.2175  0.4836
  681MOL0     C91837   4.286   8.598   3.113 -0.9588 -0.3452  0.0134
  681MOL0     C91838   4.382   8.493   3.154 -0.3813 -0.1764 -0.3082
  681MOL0     C91839   4.310   8.359   3.160  0.1534  0.5944 -0.1334
  681MOL0     C91840   4.254   8.313   3.023  0.0341  0.1279  0.0487
  681MOL0     C91841   4.180   8.186   3.036  0.2336  0.0464  0.1462
  681MOL0     C91842   4.089   8.157   2.922  0.2532  0.0259  0.6037
  681MOL0     C91843   3.946   8.221   2.937 -0.3386  0.7360  0.2891
  681MOL0    Cl91844   3.938   8.402   2.955  0.4010  0.3651 -0.4611
  681MOL0     C91845   4.235   9.061   3.066  0.1759 -0.7034 -0.0522
  681MOL0     C91846   4.249   9.202   3.079 -0.0222  0.7004  0.4822
  681MOL0     O91847   4.577   9.369   2.993 -0.1111 -0.4676 -0.0320
  681MOL0     C91848   4.622   9.632   2.956  0.1926 -0.6507 -0.1218
  681MOL0     C91849   4.637   9.775   2.932 -0.1435 -1.8290  0.0632
  681MOL0     N91850   4.335  10.521   3.042 -0.6476  0.0743 -0.4558
  681MOL0     N91851   4.276  10.561   2.933  0.3751  0.5397 -0.1443
  681MOL0     C91852   3.436   9.917   3.074 -0.3412  0.2843  0.3028
  681MOL0     C91853   3.294   9.914   3.081  0.2554 -0.6316 -0.8087
  681MOL0     C91854   2.844   9.952   3.102  0.2459 -0.3403  0.1295
  681MOL0     C91855   2.816   9.980   3.235  0.6724  0.9485  0.3717
  681MOL0     C91856   2.677   9.978   3.276 -0.0845  0.5176 -0.5978
  681MOL0     C91857   2.577   9.958   3.189  0.2804  0.2810  0.1139
  681MOL0     O91858   2.456   9.951   3.247 -0.4242 -0.1439 -0.0308
  681MOL0     C91859   2.404  10.088   3.277  0.1818  0.3268 -0.6772
  681MOL0     C91860   2.259  10.069   3.341  0.9621  0.2599 -0.5717
  681MOL0     C91861   2.172  10.007   3.238 -0.5250 -0.7391  0.8996
  681MOL0     C91862   2.026   9.983   3.282 -0.1708  0.5264 -0.0224
  681MOL0     C91863   1.950  10.111   3.290  0.1342  0.1086  0.4472
  681MOL0     C91864   1.875  10.201   3.310  0.2012 -0.5174  0.6009
  681MOL0     C91865   2.602   9.926   3.058  0.1531  0.3881  0.3159
  681MOL0     C91866   2.733   9.931   3.012 -0.1996  1.1226 -0.1837
  681MOL0     C91867   2.760   9.909   2.864  0.2480 -0.2191  0.5384
  681MOL0     H91868   3.226  10.240   3.058  0.7267 -0.0923 -2.2547
  681MOL0     H91869   3.476  10.248   3.028  0.8895 -2.4142 -2.1791
  681MOL0     H91870   3.700   9.853   2.980 -2.0220  0.9459  1.4721
  681MOL0     H91871   3.602   9.919   2.860  0.5773 -2.3228  1.3366
  681MOL0     H91872   3.893   9.905   2.851 -0.5220 -0.4288  1.1729
  681MOL0     H91873   3.858  10.063   2.926 -2.3850  1.7797 -0.0046
  681MOL0     H91874   3.712  10.108   2.712 -0.1062  0.0439 -0.9525
  681MOL0     H91875   3.766   9.956   2.656  0.7441  1.1662 -2.1487
  681MOL0     H91876   4.019  10.055   2.708  0.3039 -0.7985  0.0761
  681MOL0     H91877   3.926  10.060   2.558 -5.7485 -0.1077  1.1148
  681MOL0     H91878   3.901  10.300   2.571 -0.5140 -0.9821 -0.4352
  681MOL0     H91879   3.871  10.292   2.741 -2.7981  0.6790 -2.7331
  681MOL0     H91880   4.099  10.270   2.797 -2.8368  2.2722  1.7507
  681MOL0     H91881   4.152  10.251   2.624  2.0320 -0.3130  0.1909
  681MOL0     H91882   4.059  10.522   2.741  0.1366  2.0432 -1.9746
  681MOL0     H91883   4.092  10.475   2.573 -2.7667  2.7428  1.0524
  681MOL0     H91884   4.335  10.461   2.615  0.5084 -0.2478  0.5955
  681MOL0     H91885   4.267  10.614   2.672  2.1057  0.0052  2.1333
  681MOL0     H91886   4.456  10.314   2.810 -3.2523 -2.0908 -0.7787
  681MOL0     H91887   4.613  10.346   3.025 -1.7328  0.3851 -1.1633
  681MOL0     H91888   4.551  10.397   3.182 -1.3024 -1.1602  0.4801
  681MOL0     H91889   4.412  10.223   3.203 -0.2044 -1.0508 -1.6040
  681MOL0     H91890   4.417  10.167   3.043 -1.1935  0.9538  0.2591
  681MOL0     H91891   4.550  10.037   3.224 -1.8583 -0.7503 -0.8744
  681MOL0     H91892   4.667  10.165   3.223 -2.5561  1.3338  0.8751
  681MOL0     H91893   4.750   9.995   3.076 -2.4762 -3.7023 -0.2913
  681MOL0     H91894   4.732  10.133   2.974  1.2217 -0.6343  1.0646
  681MOL0     H91895   4.384   9.895   3.111  2.0865  1.1573  3.1108
  681MOL0     H91896   4.346   9.653   3.153  0.4501  0.7080  0.7627
  681MOL0     H91897   4.564   9.200   3.209  0.9130 -4.0142 -1.4364
  681MOL0     H91898   4.510   8.953   3.219  1.7372  0.6845 -0.6272
  681MOL0     H91899   4.461   8.748   3.082  0.0641  0.7135  1.4250
  681MOL0     H91900   4.382   8.743   3.242 -2.4264 -0.2497  0.8511
  681MOL0     H91901   4.198   8.594   3.177 -0.9109 -0.2577  0.0845
  681MOL0     H91902   4.250   8.585   3.011  1.0463 -0.8265 -0.6950
  681MOL0     H91903   4.470   8.490   3.089  0.8548  1.0130  1.2216
  681MOL0     H91904   4.425   8.515   3.252  3.2942  1.5521 -2.1200
  681MOL0     H91905   4.219   8.369   3.219  0.0367  0.5466 -0.3034
  681MOL0     H91906   4.370   8.275   3.197 -1.9587 -0.6584  0.6275
  681MOL0     H91907   4.337   8.293   2.955  0.3578 -1.1230  0.7603
  681MOL0     H91908   4.188   8.388   2.979  1.5693  0.8168 -1.1363
  681MOL0     H91909   4.257   8.109   3.044 -0.3449 -0.3611  2.6823
  681MOL0     H91910   4.116   8.179   3.124 -0.8619  3.0693 -0.2850
  681MOL0     H91911   4.068   8.050   2.907  0.4493  0.3363 -2.4999
  681MOL0     H91912   4.138   8.197   2.833  0.1560 -0.7216  0.2066
  681MOL0     H91913   3.896   8.197   2.844 -0.2250  0.0624  0.3997
  681MOL0     H91914   3.897   8.163   3.017  0.8166 -2.1466 -0.9648
  681MOL0     H91915   4.147   9.028   3.011 -0.2326  2.1723 -1.2859
  681MOL0     H91916   4.173   9.266   3.037 -0.5305  0.8818  1.6306
  681MOL0     H91917   4.701   9.568   2.917 -0.2604  0.3613 -2.9667
  681MOL0     H91918   4.705   9.811   2.856 -0.1047 -2.4929 -0.2230
  681MOL0     H91919   3.506   9.834   3.068  2.3757  2.5382 -3.2011
  681MOL0     H91920   3.246   9.821   3.112  0.6304 -0.4616  0.3372
  681MOL0     H91921   2.896  10.003   3.305  2.2934 -0.8975 -0.7444
  681MOL0     H91922   2.659   9.995   3.382  5.8329 -1.8549  1.1536
  681MOL0     H91923   2.401  10.153   3.189 -3.0907  1.6754  0.2691
  681MOL0     H91924   2.466  10.143   3.348  0.1258  0.1671 -0.5029
  681MOL0     H91925   2.224  10.170   3.363  0.0935  0.3811 -2.3663
  681MOL0     H91926   2.258  10.012   3.435 -0.1211 -0.5572 -1.0539
  681MOL0     H91927   2.214   9.920   3.188 -0.8215  1.0153 -2.7370
  681MOL0     H91928   2.163  10.085   3.161  0.0780 -0.7192  0.8472
  681MOL0     H91929   1.990   9.903   3.217  2.1827 -2.0582  1.6211
  681MOL0     H91930   2.024   9.939   3.382 -0.2356 -0.1499 -0.3151
  681MOL0     H91931   1.800  10.276   3.323 -0.0324 -0.6556  0.0991
  681MOL0     H91932   2.525   9.908   2.984 -2.0764  0.5259  2.4724
  681MOL0     H91933   2.816   9.994   2.822 -1.0733 -0.2256 -1.3788
  681MOL0     H91934   2.818   9.817   2.856 -1.5459 -1.3922  0.4660
  681MOL0     H91935   2.665   9.891   2.812 -1.0670 -1.2993  3.1539
  682MOL0     O91936   6.645   4.002   7.398  0.3193  0.3695  0.3993
  682MOL0     C91937   6.637   4.105   7.468  0.2139  0.4168  0.3480
  682MOL0     O91938   6.673   4.103   7.599  0.0869 -0.0441  0.8849
  682MOL0     C91939   6.681   3.981   7.654 -0.4641 -0.0870 -0.5056
  682MOL0     C91940   6.556   3.920   7.691  0.2343  0.5208  0.5483
  682MOL0     C91941   6.554   3.791   7.755 -0.1755  0.4657  0.3239
  682MOL0     C91942   6.672   3.729   7.787  0.5942 -1.5664  0.8784
  682MOL0     O91943   6.692   3.603   7.846  0.2026 -0.4722  0.3604
  682MOL0     C91944   6.589   3.512   7.809  0.4278  0.7941  0.2295
  682MOL0     C91945   6.619   3.371   7.854 -0.3771  0.0339 -0.4328
  682MOL0     C91946   6.520   3.265   7.885 -0.0181 -0.4562  0.6343
  682MOL0     C91947   6.587   3.132   7.954  0.3280  0.0525 -0.2826
  682MOL0     C91948   6.699   3.063   7.875  0.5692  1.0593 -0.3816
  682MOL0     C91949   6.660   3.011   7.733 -0.1225 -0.0626 -0.6277
  682MOL0     C91950   6.535   2.924   7.738  0.6896  1.2741 -0.3958
  682MOL0     C91951   6.485   2.885   7.593  0.2517  0.0936 -0.0928
  682MOL0     N91952   6.420   3.001   7.537  0.6937 -0.6094  0.7724
  682MOL0     C91953   6.300   3.050   7.583 -0.3281 -1.1391 -0.1264
  682MOL0     C91954   6.277   3.155   7.493 -0.2979 -0.2530  0.5681
  682MOL0     C91955   6.159   3.237   7.498 -0.7775  0.1018  0.3008
  682MOL0     C91956   6.189   3.368   7.584 -0.2252  0.4858  0.9203
  682MOL0     C91957   6.302   3.451   7.524  0.3257 -0.5501 -0.5399
  682MOL0     C91958   6.287   3.596   7.573 -0.4539 -0.3937  0.4084
  682MOL0     O91959   6.183   3.673   7.511 -0.1309  0.1577  0.6728
  682MOL0     C91960   6.226   3.742   7.404  1.4026  0.2907  0.2458
  682MOL0     C91961   6.305   3.853   7.413  0.2230 -0.1589  0.1738
  682MOL0     C91962   6.360   3.917   7.300  0.7442  0.1181 -0.2324
  682MOL0     C91963   6.320   3.871   7.182  1.4725 -0.1195 -0.0777
  682MOL0     C91964   6.385   3.916   7.057 -0.0464  0.2959 -0.6687
  682MOL0     O91965   6.365   3.847   6.939 -0.4317 -0.2201  0.3403
  682MOL0     C91966   6.419   3.903   6.826 -0.2374  0.1322  0.1295
  682MOL0     C91967   6.538   3.845   6.778 -0.0031  0.4397 -0.0604
  682MOL0     C91968   6.600   3.885   6.661  0.4021 -0.1232 -0.4897
  682MOL0     C91969   6.539   3.988   6.587  0.0772 -0.5849  0.0102
  682MOL0     O91970   6.615   4.014   6.476 -1.0287  0.9947 -0.4110
  682MOL0     C91971   6.683   4.141   6.481  0.5143 -1.1400  0.3132
  682MOL0     C91972   6.726   4.188   6.344  0.0281  0.7448  0.4453
  682MOL0     C91973   6.875   4.190   6.342 -0.0852  0.4900  0.4879
  682MOL0     C91974   6.929   4.290   6.435 -1.0079 -0.0751  0.5710
  682MOL0     C91975   7.071   4.261   6.487 -0.4501 -0.3081 -0.3311
  682MOL0     C91976   7.166   4.265   6.366 -0.3560 -0.0176  0.0040
  682MOL0     C91977   7.310   4.251   6.398 -0.6086 -0.3562  0.0107
  682MOL0     C91978   7.393   4.370   6.365  0.0119 -0.3840  0.8535
  682MOL0    Cl91979   7.549   4.325   6.426 -0.2619  0.1620 -0.2133
  682MOL0     C91980   6.422   4.051   6.626 -0.8344  0.1569  0.3614
  682MOL0     C91981   6.360   4.000   6.742  0.1463 -0.3385  0.4567
  682MOL0     O91982   6.438   4.026   7.066  0.6385 -0.2042  0.1430
  682MOL0     C91983   6.234   3.764   7.165  0.2728  0.0320  0.0559
  682MOL0     C91984   6.192   3.688   7.274  0.0400 -0.3418  0.5154
  682MOL0     N91985   6.382   3.165   7.400  0.4480 -0.9457 -0.2147
  682MOL0     N91986   6.458   3.061   7.421  0.9114 -0.2919 -0.6792
  682MOL0     C91987   6.792   3.802   7.761 -0.0987 -0.6787 -0.3542
  682MOL0     C91988   6.800   3.925   7.696  0.4502 -0.1956 -0.0396
  682MOL0     C91989   6.585   4.238   7.416  0.3984 -0.2959  0.8430
  682MOL0     C91990   6.583   4.259   7.277 -0.1305 -0.1314 -0.4260
  682MOL0     C91991   6.524   4.371   7.218  0.2074 -0.1539 -0.1955
  682MOL0     C91992   6.458   4.467   7.293 -0.6260 -1.0492 -0.7349
  682MOL0     O91993   6.411   4.576   7.220 -0.6507 -0.1171 -0.4342
  682MOL0     C91994   6.355   4.689   7.286 -0.6811 -0.2668  0.2729
  682MOL0     C91995   6.327   4.801   7.179 -0.5859  0.6631 -0.0525
  682MOL0     C91996   6.264   4.925   7.249 -0.5719 -0.8830 -0.2061
  682MOL0     C91997   6.242   5.027   7.142 -0.3981 -1.2102  0.2764
  682MOL0     C91998   6.121   5.010   7.063  1.2510 -0.0605  0.6352
  682MOL0     C91999   6.026   4.988   6.996  0.2732  0.8121 -0.0953
  682MOL0     C92000   6.460   4.453   7.437 -0.1287 -1.1380  0.6421
  682MOL0     C92001   6.523   4.340   7.495  0.0667  0.1981 -0.1419
  682MOL0     C92002   6.525   4.346   7.649 -0.4506  0.1955 -0.2695
  682MOL0     H92003   6.467   3.978   7.669  1.3805  1.8355 -0.8147
  682MOL0     H92004   6.460   3.743   7.779 -1.1864  0.7196 -2.7810
  682MOL0     H92005   6.492   3.550   7.842  0.1787  2.4483 -2.1594
  682MOL0     H92006   6.564   3.513   7.702  0.7587  0.0280  0.1403
  682MOL0     H92007   6.687   3.373   7.940  0.2791 -1.1227 -0.8914
  682MOL0     H92008   6.682   3.332   7.773 -0.7616 -4.3130  1.0970
  682MOL0     H92009   6.471   3.239   7.790 -1.8664  1.2661  1.0521
  682MOL0     H92010   6.447   3.313   7.951  1.9753  1.3214  1.6689
  682MOL0     H92011   6.629   3.162   8.050 -1.7882 -1.1873  1.1107
  682MOL0     H92012   6.512   3.054   7.968  2.8489 -2.1637  1.7895
  682MOL0     H92013   6.779   3.138   7.872 -0.1679  1.8372 -1.6461
  682MOL0     H92014   6.729   2.978   7.937  2.2236  2.1647  0.3771
  682MOL0     H92015   6.638   3.103   7.679  4.0158  1.4359 -0.0967
  682MOL0     H92016   6.749   2.970   7.683  0.3911  0.9252 -0.5344
  682MOL0     H92017   6.452   2.987   7.771 -1.5044 -2.0739  1.0046
  682MOL0     H92018   6.533   2.836   7.802  2.9878  1.3249 -0.1492
  682MOL0     H92019   6.566   2.841   7.533  0.0880  0.7625 -0.8269
  682MOL0     H92020   6.410   2.806   7.601  0.2538 -0.0404 -1.2839
  682MOL0     H92021   6.232   3.011   7.658 -0.6738 -0.1969  0.0587
  682MOL0     H92022   6.135   3.267   7.395  1.4847 -1.4046 -0.7529
  682MOL0     H92023   6.077   3.177   7.539  0.5205 -1.9387  0.0766
  682MOL0     H92024   6.093   3.422   7.584  0.6354  2.0753  1.0984
  682MOL0     H92025   6.210   3.348   7.689  0.2103  2.5925  1.2969
  682MOL0     H92026   6.295   3.449   7.415 -0.8145 -0.9325 -0.4804
  682MOL0     H92027   6.395   3.410   7.565 -0.0246 -0.7566  0.0659
  682MOL0     H92028   6.384   3.644   7.557  0.0857 -1.7970 -0.7819
  682MOL0     H92029   6.270   3.595   7.681  2.6357  0.8455  1.0092
  682MOL0     H92030   6.337   3.873   7.515 -0.9207  1.1505  0.2901
  682MOL0     H92031   6.436   3.994   7.301 -0.1887  1.1430  2.8116
  682MOL0     H92032   6.578   3.763   6.837 -0.0621 -0.7193 -1.6036
  682MOL0     H92033   6.692   3.838   6.631  0.5722 -0.1683  0.0868
  682MOL0     H92034   6.608   4.213   6.517 -3.3762 -2.9334 -3.3489
  682MOL0     H92035   6.766   4.144   6.553 -0.4339  1.2385  1.4205
  682MOL0     H92036   6.692   4.125   6.261 -3.9388  2.1699  0.7380
  682MOL0     H92037   6.697   4.290   6.320  0.7590  1.2175  1.4829
  682MOL0     H92038   6.931   4.098   6.359  1.4976  1.5168  1.0430
  682MOL0     H92039   6.905   4.216   6.240  2.0451 -1.7055  0.4800
  682MOL0     H92040   6.869   4.316   6.523 -0.1585 -2.1453  1.8307
  682MOL0     H92041   6.924   4.383   6.379  2.0387  0.4784  1.0530
  682MOL0     H92042   7.073   4.172   6.551 -1.2042  0.5506  0.9281
  682MOL0     H92043   7.089   4.347   6.552  1.6897  1.5974 -3.1885
  682MOL0     H92044   7.143   4.185   6.295  1.1506 -0.8397  0.3995
  682MOL0     H92045   7.160   4.352   6.300 -0.0683  0.0159  0.0202
  682MOL0     H92046   7.353   4.165   6.345  1.3594 -0.0718  1.0529
  682MOL0     H92047   7.309   4.240   6.507 -2.3232 -1.1365 -0.0559
  682MOL0     H92048   7.386   4.406   6.262 -0.9238 -1.8088  0.3825
  682MOL0     H92049   7.365   4.453   6.430  0.2075  0.5518 -0.2164
  682MOL0     H92050   6.374   4.134   6.575  1.5724 -0.7470 -3.8589
  682MOL0     H92051   6.266   4.049   6.767  1.0769  1.4628  0.6128
  682MOL0     H92052   6.207   3.721   7.069 -0.5517 -1.6372  0.9967
  682MOL0     H92053   6.142   3.592   7.267  2.6941 -2.0366  2.4885
  682MOL0     H92054   6.884   3.749   7.785 -0.7537 -1.5064  0.3879
  682MOL0     H92055   6.892   3.978   7.675 -0.1527  0.7153 -0.4836
  682MOL0     H92056   6.623   4.181   7.213  0.9303  0.9007 -1.0632
  682MOL0     H92057   6.530   4.376   7.109  1.5808  1.1827 -0.0883
  682MOL0     H92058   6.434   4.728   7.350  1.1890 -1.0688 -1.4684
  682MOL0     H92059   6.262   4.664   7.338  0.8547 -1.2489  2.6894
  682MOL0     H92060   6.260   4.765   7.101 -0.1340 -0.3719  0.0082
  682MOL0     H92061   6.418   4.827   7.123 -1.9147  0.1639 -2.5823
  682MOL0     H92062   6.347   4.963   7.308 -1.5190 -1.6052  1.6767
  682MOL0     H92063   6.168   4.902   7.297 -1.8229 -0.3677 -2.2950
  682MOL0     H92064   6.238   5.122   7.196  1.1975 -2.1474  2.1543
  682MOL0     H92065   6.328   5.033   7.074  0.1689 -1.1206  0.9897
  682MOL0     H92066   5.942   4.977   6.931 -2.2854  0.0762  3.0682
  682MOL0     H92067   6.412   4.522   7.505  1.4375 -1.8378  2.5771
  682MOL0     H92068   6.627   4.360   7.686 -0.3577 -1.3446  0.1261
  682MOL0     H92069   6.462   4.422   7.696 -1.0030 -1.2259  1.3814
  682MOL0     H92070   6.498   4.250   7.695  0.2299  0.3371  0.4410
  683MOL0     O92071  11.153   7.187   2.749 -1.1230 -0.2150 -0.5281
  683MOL0     C92072  11.116   7.076   2.758  0.8468 -0.0563  0.6639
  683MOL0     O92073  11.189   6.968   2.809  0.0673  0.0766  0.3307
  683MOL0     C92074  11.300   6.970   2.894  0.1139 -0.0613 -0.1821
  683MOL0     C92075  11.335   7.075   2.982 -1.3301 -0.0320  0.1788
  683MOL0     C92076  11.443   7.063   3.071  0.6136 -0.5045  0.0045
  683MOL0     C92077  11.504   6.936   3.092 -0.2220  0.6297  0.1351
  683MOL0     O92078  11.620   6.931   3.162 -0.1166 -0.2125 -0.5596
  683MOL0     C92079  11.622   6.833   3.265  0.3432  1.5271 -0.1504
  683MOL0     C92080  11.736   6.861   3.371 -0.6169  0.3588 -0.7302
  683MOL0     C92081  11.872   6.844   3.309 -0.4651 -0.2708  0.4295
  683MOL0     C92082  11.979   6.868   3.425 -0.3394  0.1000  0.1065
  683MOL0     C92083  12.129   6.834   3.376  0.2210  0.0304  0.6188
  683MOL0     C92084  12.166   6.912   3.248  0.0065 -0.3870 -0.3392
  683MOL0     C92085  12.295   6.863   3.190 -0.1266 -0.3530  0.4770
  683MOL0     C92086  12.408   6.860   3.289 -0.5550  0.0095 -0.1412
  683MOL0     N92087  12.521   6.807   3.217  0.1434 -0.3053 -0.5866
  683MOL0     C92088  12.625   6.890   3.169  0.7119 -0.8901 -0.0332
  683MOL0     C92089  12.714   6.805   3.126 -0.6109  1.0397  0.1450
  683MOL0     C92090  12.821   6.844   3.031  0.4898  1.0349  0.0061
  683MOL0     C92091  12.925   6.727   3.032  0.4775 -0.7437  0.7742
  683MOL0     C92092  12.989   6.687   3.167  0.5099 -0.6761  0.1084
  683MOL0     C92093  13.028   6.542   3.175 -1.0180 -0.2765 -0.6890
  683MOL0     O92094  13.090   6.534   3.302 -0.3798  0.5358  0.0526
  683MOL0     C92095  13.072   6.420   3.379  0.5777 -0.1158  0.9051
  683MOL0     C92096  12.992   6.309   3.346  1.2471 -0.1274 -0.0711
  683MOL0     C92097  12.987   6.203   3.435 -0.2407  0.0970  0.9208
  683MOL0     C92098  13.040   6.203   3.562 -0.0775  0.2266 -0.2652
  683MOL0     C92099  13.044   6.080   3.647 -0.2216  0.2031 -0.8295
  683MOL0     O92100  13.073   6.097   3.784 -0.4131 -0.0553 -0.3067
  683MOL0     C92101  13.085   5.993   3.878 -0.0496  1.5075  0.0841
  683MOL0     C92102  13.150   6.031   3.995  0.3133  0.4707 -0.1286
  683MOL0     C92103  13.137   5.942   4.102  0.0708  0.4329 -0.1190
  683MOL0     C92104  13.057   5.834   4.102 -0.1212  0.6820  0.2504
  683MOL0     O92105  13.039   5.782   4.225 -0.0839  0.5040  0.1885
  683MOL0     C92106  12.978   5.653   4.241 -0.1312 -0.2663  0.6893
  683MOL0     C92107  12.878   5.655   4.352  0.5980 -0.1215 -0.0708
  683MOL0     C92108  12.748   5.732   4.305  0.3658  0.7341  0.2794
  683MOL0     C92109  12.637   5.743   4.414 -0.8329  0.1823 -0.7539
  683MOL0     C92110  12.618   5.601   4.476 -0.2557  0.1234  0.1973
  683MOL0     C92111  12.478   5.603   4.538  0.3364 -0.5329  0.0504
  683MOL0     C92112  12.363   5.609   4.438 -0.6873 -0.5205  0.6356
  683MOL0     C92113  12.254   5.513   4.468  0.1028 -0.1967 -0.3716
  683MOL0    Cl92114  12.286   5.342   4.417  0.6580 -0.5555  0.0298
  683MOL0     C92115  12.998   5.795   3.979 -0.0987 -0.7630 -0.3468
  683MOL0     C92116  13.008   5.875   3.866  0.2359  0.1570 -0.5923
  683MOL0     O92117  13.028   5.963   3.596 -0.1191 -0.1482  0.3524
  683MOL0     C92118  13.105   6.319   3.602 -1.1630 -0.1224  0.7417
  683MOL0     C92119  13.126   6.423   3.507 -0.0143  0.4491 -1.1744
  683MOL0     N92120  12.672   6.677   3.156 -1.2126  0.7548 -0.0164
  683MOL0     N92121  12.561   6.680   3.219 -0.4960  0.9332  0.6066
  683MOL0     C92122  11.461   6.827   3.013 -0.1269 -0.2343 -0.5853
  683MOL0     C92123  11.357   6.847   2.913 -0.2741 -0.5305 -0.7276
  683MOL0     C92124  10.994   7.045   2.681  0.3747 -0.3154 -0.2218
  683MOL0     C92125  10.875   7.115   2.702  0.1868 -0.3552  0.3124
  683MOL0     C92126  10.758   7.089   2.618 -0.0672 -0.8720  0.5238
  683MOL0     C92127  10.762   7.007   2.506 -0.7068  0.6537  0.3738
  683MOL0     O92128  10.656   6.997   2.422 -0.5095 -0.1878 -0.2174
  683MOL0     C92129  10.547   6.918   2.459  0.7001  0.5727  1.0916
  683MOL0     C92130  10.577   6.772   2.423 -0.5179 -0.6145  0.5574
  683MOL0     C92131  10.650   6.690   2.535 -0.8437  0.6838 -0.4044
  683MOL0     C92132  10.704   6.552   2.494 -0.1261 -0.7025 -0.3431
  683MOL0     C92133  10.604   6.452   2.459 -1.1448  0.6240  0.4208
  683MOL0     C92134  10.515   6.377   2.436  0.0937  0.1713  0.2566
  683MOL0     C92135  10.886   6.945   2.484  0.3678 -0.2595  0.0114
  683MOL0     C92136  11.000   6.953   2.568 -0.3947  0.7450 -0.7500
  683MOL0     C92137  11.121   6.865   2.534 -0.1366 -0.7556  0.0971
  683MOL0     H92138  11.274   7.164   2.972 -1.3275  0.0944  1.1927
  683MOL0     H92139  11.468   7.143   3.140  1.4508  0.2965 -1.1797
  683MOL0     H92140  11.529   6.818   3.321 -0.3649  0.0439 -1.6373
  683MOL0     H92141  11.645   6.739   3.215 -0.1663  1.9194 -1.1521
  683MOL0     H92142  11.713   6.792   3.452 -3.0216  2.6152  0.7058
  683MOL0     H92143  11.726   6.965   3.404  1.6301  0.6885 -0.9432
  683MOL0     H92144  11.886   6.918   3.230 -1.2938  2.3781  2.6168
  683MOL0     H92145  11.885   6.743   3.268 -2.0499 -0.4683  0.3424
  683MOL0     H92146  11.967   6.973   3.453 -2.6568  1.7981 -5.8105
  683MOL0     H92147  11.968   6.797   3.507  1.6268 -2.3370 -1.5699
  683MOL0     H92148  12.199   6.876   3.449  0.7409 -0.4521  0.4064
  683MOL0     H92149  12.148   6.728   3.359 -0.6837  0.2869 -2.5217
  683MOL0     H92150  12.092   6.902   3.168 -0.6247 -0.2763  0.2156
  683MOL0     H92151  12.183   7.019   3.263  0.2146 -0.9016  4.5987
  683MOL0     H92152  12.321   6.921   3.101  0.0045 -2.6825 -1.0973
  683MOL0     H92153  12.267   6.764   3.153  0.4461 -0.7913  1.2009
  683MOL0     H92154  12.416   6.964   3.322  1.7964  0.5136 -2.0279
  683MOL0     H92155  12.379   6.791   3.369  0.5880  1.5389  1.6970
  683MOL0     H92156  12.620   6.996   3.146 -1.5242 -1.3216 -1.9424
  683MOL0     H92157  12.763   6.841   2.938  3.5262  1.2502 -2.0367
  683MOL0     H92158  12.853   6.946   3.054  0.6186  0.6307  1.7609
  683MOL0     H92159  12.876   6.635   3.000  1.4867 -0.6344 -1.2107
  683MOL0     H92160  13.003   6.755   2.960 -0.8830 -0.3716 -0.5982
  683MOL0     H92161  12.926   6.709   3.254 -0.6895 -2.6906 -0.1928
  683MOL0     H92162  13.072   6.754   3.195 -1.8852  2.9095 -0.6076
  683MOL0     H92163  13.088   6.521   3.086  0.4394  2.7775 -0.5642
  683MOL0     H92164  12.932   6.489   3.178 -0.6731 -0.8791  1.4160
  683MOL0     H92165  12.942   6.294   3.251 -1.5677 -1.9028  1.5394
  683MOL0     H92166  12.940   6.109   3.408 -1.8424  1.3400 -0.8741
  683MOL0     H92167  13.200   6.127   4.004  0.1471  0.3723  2.4331
  683MOL0     H92168  13.184   5.984   4.190  1.1270  0.4412 -0.6738
  683MOL0     H92169  12.952   5.605   4.146 -1.2741 -1.9998  1.8104
  683MOL0     H92170  13.065   5.595   4.274  0.2026 -0.1335  0.0554
  683MOL0     H92171  12.853   5.554   4.385  0.3342  0.0696  0.3196
  683MOL0     H92172  12.913   5.709   4.440 -0.3207  0.8105 -0.2524
  683MOL0     H92173  12.778   5.835   4.285 -1.2687  1.2291  0.2612
  683MOL0     H92174  12.712   5.690   4.211  1.1509  2.8483 -1.0350
  683MOL0     H92175  12.545   5.789   4.375  0.5687  2.8895 -1.1283
  683MOL0     H92176  12.675   5.810   4.491  0.4943  0.8263 -1.9243
  683MOL0     H92177  12.700   5.582   4.547  1.5638  0.7873 -1.6198
  683MOL0     H92178  12.625   5.527   4.396  2.3899  1.0401 -0.5266
  683MOL0     H92179  12.464   5.519   4.607  2.7025 -0.7381  0.3496
  683MOL0     H92180  12.482   5.684   4.611  0.2989 -0.5237  0.0430
  683MOL0     H92181  12.395   5.584   4.337  1.3446  2.4930  0.4104
  683MOL0     H92182  12.310   5.704   4.430 -2.0389 -1.2721  0.3167
  683MOL0     H92183  12.242   5.505   4.576 -0.5544 -2.3651 -0.5511
  683MOL0     H92184  12.162   5.555   4.426 -0.7075 -0.5946  0.9444
  683MOL0     H92185  12.924   5.716   3.983  1.0420 -2.0247 -2.4678
  683MOL0     H92186  12.951   5.845   3.779  1.0186  0.6769 -1.3055
  683MOL0     H92187  13.139   6.328   3.704  1.4317  1.3499 -0.1379
  683MOL0     H92188  13.173   6.519   3.530  2.2277 -0.5559 -1.3009
  683MOL0     H92189  11.512   6.731   3.018  0.8029  0.0928 -2.6172
  683MOL0     H92190  11.325   6.765   2.849  3.4094 -2.5428 -0.2446
  683MOL0     H92191  10.862   7.183   2.785  1.3035  1.1028 -0.6711
  683MOL0     H92192  10.665   7.138   2.646  0.1573 -1.8249  3.2653
  683MOL0     H92193  10.456   6.951   2.406 -1.6938 -1.7595  3.4442
  683MOL0     H92194  10.524   6.929   2.565  0.4691  1.4134  0.9621
  683MOL0     H92195  10.637   6.766   2.332  2.5685 -2.0170  2.5408
  683MOL0     H92196  10.488   6.720   2.387 -2.3504  0.0754  3.6437
  683MOL0     H92197  10.583   6.669   2.619  1.2917 -1.4586  0.8863
  683MOL0     H92198  10.734   6.749   2.573 -1.1959  0.0703  1.4170
  683MOL0     H92199  10.758   6.570   2.401  0.2344  0.4468  0.0719
  683MOL0     H92200  10.773   6.507   2.566  0.6433  0.8793 -0.0427
  683MOL0     H92201  10.433   6.315   2.405  1.1076 -1.1203  0.0659
  683MOL0     H92202  10.883   6.881   2.396  0.8916 -1.0306  0.5390
  683MOL0     H92203  11.164   6.802   2.613  1.6945  1.4853  0.9828
  683MOL0     H92204  11.103   6.806   2.444  0.6834 -3.1055  1.3790
  683MOL0     H92205  11.200   6.936   2.510  0.9008 -2.2092 -0.9789
  684MOL0     O92206   8.775   2.225   3.097  0.5002  1.3962  0.4054
  684MOL0     C92207   8.737   2.113   3.095 -0.5574 -0.4079  0.0859
  684MOL0     O92208   8.801   2.004   3.131 -0.7839  0.4140  0.2320
  684MOL0     C92209   8.927   1.980   3.167 -0.3690  0.0416  0.5712
  684MOL0     C92210   8.964   1.861   3.226 -0.4861  0.0949 -0.0114
  684MOL0     C92211   9.094   1.843   3.255 -0.3143 -0.3187  0.9252
  684MOL0     C92212   9.194   1.933   3.245  0.0669  0.2784 -0.0681
  684MOL0     O92213   9.322   1.897   3.278  0.2581  0.1660  0.4432
  684MOL0     C92214   9.428   1.961   3.206 -0.7456  0.4857  0.2256
  684MOL0     C92215   9.550   1.932   3.280 -0.5101  0.1939 -0.3753
  684MOL0     C92216   9.681   1.942   3.198 -0.4569  0.4639  0.3876
  684MOL0     C92217   9.808   1.899   3.265 -0.2553 -0.3565 -0.2674
  684MOL0     C92218   9.948   1.953   3.228  0.0277  0.2260 -0.0660
  684MOL0     C92219   9.986   1.929   3.078 -0.6555  0.6416 -0.0632
  684MOL0     C92220  10.046   1.785   3.059  0.1173  0.0596 -0.2071
  684MOL0     C92221  10.188   1.781   3.115 -0.0449  0.4602 -0.0723
  684MOL0     N92222  10.270   1.689   3.035  0.6583  0.5226 -0.1357
  684MOL0     C92223  10.401   1.694   3.038  0.3316 -0.8824 -0.3361
  684MOL0     C92224  10.453   1.603   2.952 -0.0001 -0.4999  0.0425
  684MOL0     C92225  10.596   1.580   2.912 -0.0824  0.1640  0.6983
  684MOL0     C92226  10.614   1.614   2.758 -0.3439  0.0531 -0.0070
  684MOL0     C92227  10.544   1.508   2.669  0.3575 -1.3077 -0.4249
  684MOL0     C92228  10.613   1.513   2.531  0.1727 -0.6079 -0.6846
  684MOL0     O92229  10.650   1.644   2.477  1.0938 -0.4155 -0.2389
  684MOL0     C92230  10.665   1.647   2.343  0.3950 -0.3727  0.6007
  684MOL0     C92231  10.596   1.751   2.273  0.3114 -0.4365  0.2703
  684MOL0     C92232  10.601   1.758   2.135 -0.3086 -0.8849 -0.1403
  684MOL0     C92233  10.668   1.668   2.056  1.0567  0.0172 -1.3960
  684MOL0     C92234  10.643   1.663   1.911  0.6278  0.2536 -0.2630
  684MOL0     O92235  10.727   1.588   1.826 -0.3310 -0.1167 -0.7593
  684MOL0     C92236  10.702   1.577   1.692 -0.1030 -0.7466 -0.4643
  684MOL0     C92237  10.785   1.648   1.606  0.5073 -0.0924 -0.2114
  684MOL0     C92238  10.767   1.647   1.468 -0.0609  1.4448  1.1178
  684MOL0     C92239  10.666   1.574   1.412 -0.2923 -0.1938 -0.8920
  684MOL0     O92240  10.644   1.589   1.279  0.5238  0.0832  0.2712
  684MOL0     C92241  10.520   1.640   1.239  0.3688  0.7478 -1.3057
  684MOL0     C92242  10.512   1.646   1.097 -0.2497  0.5468 -0.3806
  684MOL0     C92243  10.540   1.783   1.042 -1.1703 -0.5512 -0.1280
  684MOL0     C92244  10.573   1.771   0.891 -0.4697 -0.5181  0.5243
  684MOL0     C92245  10.643   1.893   0.824 -0.8908 -0.5609  0.2954
  684MOL0     C92246  10.746   1.858   0.724 -0.0016 -0.2093 -0.0932
  684MOL0     C92247  10.687   1.793   0.599 -0.4946 -0.0230 -0.4078
  684MOL0     C92248  10.797   1.732   0.513  0.1341 -0.8467  0.0774
  684MOL0    Cl92249  10.917   1.860   0.461 -0.1454  0.4665 -0.1730
  684MOL0     C92250  10.589   1.492   1.497  0.5135  0.5871 -0.4661
  684MOL0     C92251  10.606   1.497   1.643 -0.6853  0.4003  0.5409
  684MOL0     O92252  10.558   1.740   1.875  0.1754 -0.6253  0.3722
  684MOL0     C92253  10.749   1.578   2.125  0.7196 -0.5995 -0.1318
  684MOL0     C92254  10.750   1.575   2.264  0.7424  0.6441 -0.3297
  684MOL0     N92255  10.337   1.536   2.906  0.4758  0.6855 -0.3679
  684MOL0     N92256  10.228   1.596   2.951  0.3771  0.8543 -1.2551
  684MOL0     C92257   9.156   2.054   3.187  0.5745  0.1840 -0.4366
  684MOL0     C92258   9.021   2.080   3.157 -0.1898 -0.0506  0.8097
  684MOL0     C92259   8.591   2.086   3.080 -0.1233  1.4630 -0.0967
  684MOL0     C92260   8.557   1.961   3.034  0.3668  1.2307  1.6649
  684MOL0     C92261   8.431   1.924   2.994 -0.4917  0.1062  0.3758
  684MOL0     C92262   8.327   2.019   3.006  0.2403 -0.3077 -0.3220
  684MOL0     O92263   8.198   1.986   2.970 -0.0583 -0.7054 -0.1349
  684MOL0     C92264   8.190   1.941   2.830 -0.2303  0.4440 -0.9099
  684MOL0     C92265   8.055   1.973   2.763 -0.2314 -0.9287 -0.5250
  684MOL0     C92266   8.030   1.878   2.640 -1.1793  0.3429 -1.2813
  684MOL0     C92267   7.980   1.742   2.693 -0.0861 -0.5615 -0.4667
  684MOL0     C92268   7.965   1.652   2.577 -0.6873  0.8251  0.4074
  684MOL0     C92269   7.970   1.582   2.478  0.4346 -0.8012 -0.3038
  684MOL0     C92270   8.351   2.145   3.069  0.6561  0.9793  0.2088
  684MOL0     C92271   8.487   2.181   3.101  0.4884  0.2445 -0.5022
  684MOL0     C92272   8.504   2.322   3.157 -0.6368 -0.1719 -0.2209
  684MOL0     H92273   8.883   1.789   3.236  0.0944 -0.6641 -0.6723
  684MOL0     H92274   9.124   1.749   3.301  1.8766 -0.6797 -1.0716
  684MOL0     H92275   9.429   1.924   3.103 -1.0247  1.2781 -0.0775
  684MOL0     H92276   9.420   2.070   3.210  1.6875  0.7593 -0.6519
  684MOL0     H92277   9.546   1.831   3.322  0.2792 -0.8321 -2.5952
  684MOL0     H92278   9.559   2.000   3.365  1.9819  2.6768 -2.4189
  684MOL0     H92279   9.679   2.047   3.169  0.1892 -0.1393 -2.1010
  684MOL0     H92280   9.673   1.881   3.108  0.4141 -0.9023  1.2060
  684MOL0     H92281   9.794   1.931   3.368  0.8911 -0.4254 -0.0789
  684MOL0     H92282   9.806   1.790   3.267 -3.7449 -0.4246  1.8426
  684MOL0     H92283   9.948   2.061   3.241  2.4329  0.0460  2.2201
  684MOL0     H92284  10.024   1.908   3.294  0.6113  3.8358  1.9875
  684MOL0     H92285   9.895   1.942   3.019 -0.3344  0.7117 -0.5467
  684MOL0     H92286  10.054   2.003   3.035 -0.1298  0.4604  0.4443
  684MOL0     H92287  10.049   1.770   2.950  1.6426 -0.9264 -0.0543
  684MOL0     H92288   9.984   1.704   3.099  0.7386  0.0038  0.6652
  684MOL0     H92289  10.230   1.881   3.103  1.9211 -0.0165  2.0299
  684MOL0     H92290  10.196   1.747   3.219 -2.9198 -1.3756 -0.3389
  684MOL0     H92291  10.452   1.779   3.083 -0.9806 -0.3408  0.1609
  684MOL0     H92292  10.653   1.653   2.970 -0.3587 -0.5383  1.8660
  684MOL0     H92293  10.630   1.479   2.933  0.4367 -0.2411 -1.7657
  684MOL0     H92294  10.560   1.707   2.735 -0.0973 -0.4371 -3.0106
  684MOL0     H92295  10.720   1.604   2.734  0.4247 -2.9757  3.6537
  684MOL0     H92296  10.443   1.543   2.652  0.7534 -0.8798 -2.0524
  684MOL0     H92297  10.539   1.408   2.714  1.4815 -0.9923  0.4476
  684MOL0     H92298  10.552   1.465   2.453  0.8764  0.6088 -2.0425
  684MOL0     H92299  10.708   1.460   2.545  1.6618  1.5968 -1.8399
  684MOL0     H92300  10.524   1.810   2.328 -2.0917 -2.0508 -0.9609
  684MOL0     H92301  10.539   1.836   2.093 -0.7777 -1.0752  0.1861
  684MOL0     H92302  10.861   1.719   1.635  1.9095 -0.8697 -1.8470
  684MOL0     H92303  10.827   1.708   1.401  0.2095  2.1535  1.9903
  684MOL0     H92304  10.450   1.566   1.278  0.3194  1.6682  0.4920
  684MOL0     H92305  10.490   1.737   1.282  0.3296  0.6810 -1.1812
  684MOL0     H92306  10.587   1.575   1.059 -1.2734 -0.6786 -0.2068
  684MOL0     H92307  10.420   1.604   1.056  0.1891 -1.7842  0.8301
  684MOL0     H92308  10.452   1.849   1.043  0.1480  1.3191 -1.3747
  684MOL0     H92309  10.615   1.839   1.098  0.9044 -1.9242 -1.3917
  684MOL0     H92310  10.482   1.763   0.831  0.4423  2.4104 -1.4869
  684MOL0     H92311  10.636   1.683   0.875  3.4966  1.5366  3.0859
  684MOL0     H92312  10.697   1.953   0.899  2.6670  0.5899 -2.8572
  684MOL0     H92313  10.558   1.948   0.783  0.7706 -0.5490 -3.5264
  684MOL0     H92314  10.798   1.950   0.695  0.4996 -0.7339 -0.8820
  684MOL0     H92315  10.825   1.797   0.769 -0.3095 -0.9159 -0.5068
  684MOL0     H92316  10.629   1.864   0.540  2.5669  0.7762 -2.6728
  684MOL0     H92317  10.624   1.706   0.622  0.2459 -1.4372 -3.2716
  684MOL0     H92318  10.852   1.655   0.568 -0.2508 -1.5798 -0.5516
  684MOL0     H92319  10.745   1.689   0.427 -0.6381 -2.5205  1.3195
  684MOL0     H92320  10.518   1.425   1.450 -0.6005  0.5151  1.2042
  684MOL0     H92321  10.543   1.427   1.696  2.7050 -2.7248  0.8672
  684MOL0     H92322  10.802   1.507   2.062 -0.0430 -0.0091 -1.4574
  684MOL0     H92323  10.828   1.518   2.311  2.4881  3.1380  0.0192
  684MOL0     H92324   9.232   2.130   3.175  2.1325 -1.7009 -3.9739
  684MOL0     H92325   9.001   2.179   3.116  3.4539  1.0541  1.3367
  684MOL0     H92326   8.639   1.897   3.001  0.3222  0.9478  2.0994
  684MOL0     H92327   8.426   1.831   2.939 -1.3363  1.9060 -2.8579
  684MOL0     H92328   8.217   1.836   2.841 -1.4410  0.0017 -1.8886
  684MOL0     H92329   8.265   1.989   2.767 -1.4129  2.1569 -1.0934
  684MOL0     H92330   8.056   2.078   2.730 -0.4192  0.2820  2.9030
  684MOL0     H92331   7.970   1.970   2.832 -0.9697  1.4366 -1.2139
  684MOL0     H92332   8.115   1.876   2.571  0.2343  0.0049  0.3724
  684MOL0     H92333   7.950   1.926   2.584  0.4789  1.8272 -2.5146
  684MOL0     H92334   8.059   1.706   2.760 -0.3936 -3.0749 -1.3361
  684MOL0     H92335   7.881   1.743   2.739  1.0902 -1.0702  2.2405
  684MOL0     H92336   7.983   1.509   2.400 -0.3203 -1.1558 -0.1123
  684MOL0     H92337   8.275   2.221   3.080  1.1066  1.1944  2.2395
  684MOL0     H92338   8.597   2.340   3.212 -1.5561  0.8807  1.0586
  684MOL0     H92339   8.508   2.388   3.070 -3.6170  1.5269  0.7985
  684MOL0     H92340   8.421   2.341   3.225 -0.0167 -2.7824  1.4077
  685MOL0     O92341  11.140   2.261   5.596 -0.3841 -0.1780  0.0296
  685MOL0     C92342  11.177   2.247   5.705 -0.0432  0.3080 -1.0934
  685MOL0     O92343  11.097   2.216   5.809 -0.7145 -0.4574 -0.6205
  685MOL0     C92344  10.965   2.217   5.801  1.5330  0.6419  0.2564
  685MOL0     C92345  10.889   2.146   5.706  0.4602  0.7717 -0.5523
  685MOL0     C92346  10.750   2.156   5.704 -0.5319 -0.5845  0.8563
  685MOL0     C92347  10.677   2.222   5.807 -0.6115 -0.7524  0.1615
  685MOL0     O92348  10.542   2.207   5.820 -0.0096 -1.2683  1.0592
  685MOL0     C92349  10.473   2.263   5.933  0.6027  0.0210 -0.2228
  685MOL0     C92350  10.321   2.237   5.931  0.5612 -0.4853  0.5935
  685MOL0     C92351  10.240   2.312   5.825 -1.0432 -0.1672  0.5051
  685MOL0     C92352  10.091   2.292   5.869  1.2385 -1.1998  0.6924
  685MOL0     C92353  10.010   2.387   5.774 -0.6595  0.1157 -0.6117
  685MOL0     C92354   9.851   2.373   5.808 -0.5355 -0.3959  0.4006
  685MOL0     C92355   9.776   2.470   5.714  0.3267  0.1715 -0.4831
  685MOL0     C92356   9.629   2.470   5.741  0.3362  0.4294 -1.0269
  685MOL0     N92357   9.571   2.592   5.684  0.6179  0.4834 -0.4422
  685MOL0     C92358   9.539   2.612   5.555  0.0796 -0.1637  0.8595
  685MOL0     C92359   9.436   2.699   5.561  0.1323  0.8296 -0.7332
  685MOL0     C92360   9.343   2.742   5.452 -0.8513 -0.1344  0.3227
  685MOL0     C92361   9.342   2.632   5.340 -0.0025 -0.5947 -0.1239
  685MOL0     C92362   9.310   2.488   5.372 -0.0163  0.2497  0.0128
  685MOL0     C92363   9.170   2.455   5.435 -0.7541  0.6501  0.1674
  685MOL0     O92364   9.069   2.548   5.394  0.2515 -0.0678 -0.5834
  685MOL0     C92365   8.993   2.516   5.289  0.3309 -0.0612  0.4662
  685MOL0     C92366   8.863   2.574   5.274 -0.2374  0.9471 -0.4366
  685MOL0     C92367   8.772   2.544   5.172  0.6140  0.0362  0.6818
  685MOL0     C92368   8.815   2.455   5.068  0.6914  0.1481 -0.4728
  685MOL0     C92369   8.727   2.420   4.952  0.1387 -0.3400  0.2417
  685MOL0     O92370   8.621   2.507   4.923 -0.1517 -0.2505  0.2768
  685MOL0     C92371   8.515   2.464   4.845  1.0307 -0.3900  0.3651
  685MOL0     C92372   8.455   2.554   4.751  0.6044 -0.0751  0.1459
  685MOL0     C92373   8.345   2.511   4.670  0.1767 -0.7239  0.5211
  685MOL0     C92374   8.285   2.389   4.681 -0.1107  0.6802  0.1792
  685MOL0     O92375   8.186   2.349   4.603  0.1451  0.2276 -0.0076
  685MOL0     C92376   8.231   2.253   4.509  0.9224  0.0722 -0.7602
  685MOL0     C92377   8.118   2.180   4.445 -0.3858 -0.5912 -0.2095
  685MOL0     C92378   8.169   2.076   4.343 -0.8170 -0.4242  0.8923
  685MOL0     C92379   8.223   2.140   4.215  0.4131  0.6179 -0.3700
  685MOL0     C92380   8.244   2.016   4.124  0.5943 -0.4442 -0.3075
  685MOL0     C92381   8.303   2.063   3.988  0.6101 -0.3927  0.4909
  685MOL0     C92382   8.366   1.946   3.908  0.3828 -0.1533 -0.2834
  685MOL0     C92383   8.272   1.839   3.859 -0.1614  0.2554 -0.4191
  685MOL0    Cl92384   8.351   1.759   3.739  0.0867  0.1317  0.0772
  685MOL0     C92385   8.340   2.303   4.781 -0.0463 -0.5220  0.0626
  685MOL0     C92386   8.454   2.337   4.855  0.1309  0.7060  0.7400
  685MOL0     O92387   8.755   2.323   4.881  0.1001 -0.1100 -0.2699
  685MOL0     C92388   8.932   2.392   5.081  0.6802  0.5177 -0.5618
  685MOL0     C92389   9.021   2.421   5.187  0.4194  0.3920  0.8025
  685MOL0     N92390   9.420   2.743   5.693  1.1184  0.1852  0.4118
  685MOL0     N92391   9.502   2.674   5.768 -0.1239 -0.7883 -0.5008
  685MOL0     C92392  10.757   2.299   5.901 -0.4107 -0.3650 -1.0220
  685MOL0     C92393  10.895   2.287   5.901 -0.4134 -0.1502 -0.1808
  685MOL0     C92394  11.321   2.241   5.737  0.5693  0.2180 -0.0511
  685MOL0     C92395  11.411   2.233   5.632 -0.2105  0.0778 -0.1478
  685MOL0     C92396  11.547   2.238   5.650  0.2968  0.6743 -0.0730
  685MOL0     C92397  11.606   2.232   5.774 -0.3103  0.4029 -2.0748
  685MOL0     O92398  11.741   2.230   5.792  0.7736  0.4530 -0.2753
  685MOL0     C92399  11.825   2.201   5.683 -0.1245  0.4153  0.0517
  685MOL0     C92400  11.963   2.157   5.738 -0.3812 -0.4447  0.3880
  685MOL0     C92401  12.011   2.263   5.842 -0.3850  0.1699  0.3070
  685MOL0     C92402  12.143   2.231   5.912  0.0405 -0.3631 -0.2825
  685MOL0     C92403  12.175   2.338   6.013 -0.1590  0.2057 -0.6159
  685MOL0     C92404  12.214   2.436   6.077  0.7452  0.3642 -0.7077
  685MOL0     C92405  11.522   2.231   5.882  0.5547  0.4202  0.6220
  685MOL0     C92406  11.385   2.228   5.870  0.0640  0.7684 -0.3066
  685MOL0     C92407  11.303   2.220   6.003 -0.8817 -0.5431  0.9668
  685MOL0     H92408  10.943   2.103   5.623  1.2184  2.4016 -0.9508
  685MOL0     H92409  10.688   2.119   5.623  0.6123  0.5111 -0.6003
  685MOL0     H92410  10.506   2.233   6.033 -0.2861  1.1079  0.4278
  685MOL0     H92411  10.485   2.372   5.925 -0.9807  0.1024 -2.5487
  685MOL0     H92412  10.272   2.262   6.026  0.3189  0.0658  0.3256
  685MOL0     H92413  10.297   2.130   5.935  1.9803 -0.7965  1.5845
  685MOL0     H92414  10.270   2.261   5.733  0.2988  3.0123 -0.9692
  685MOL0     H92415  10.275   2.415   5.832 -0.6388 -0.3015  0.4839
  685MOL0     H92416  10.056   2.189   5.858 -1.5876 -0.1829 -1.0635
  685MOL0     H92417  10.083   2.320   5.975  2.3636  0.2387  0.4228
  685MOL0     H92418  10.041   2.490   5.796 -2.1713 -0.0227  2.8626
  685MOL0     H92419  10.028   2.359   5.670  3.2169 -0.3209  0.0419
  685MOL0     H92420   9.821   2.268   5.802 -0.7013 -0.2848 -1.2741
  685MOL0     H92421   9.832   2.405   5.911  1.4919  1.7214  0.1882
  685MOL0     H92422   9.791   2.438   5.610 -0.2985  0.4906 -0.6826
  685MOL0     H92423   9.813   2.572   5.732 -0.2499 -0.0144  2.1584
  685MOL0     H92424   9.590   2.374   5.707  1.9608 -0.5152 -0.3368
  685MOL0     H92425   9.603   2.469   5.847 -1.9074 -0.0904 -1.5178
  685MOL0     H92426   9.566   2.554   5.467  0.2457 -0.4400  1.0884
  685MOL0     H92427   9.239   2.741   5.486 -0.2599 -4.1240  2.6029
  685MOL0     H92428   9.380   2.838   5.415  1.1985 -0.2215  1.9870
  685MOL0     H92429   9.256   2.675   5.287  1.0469  2.4029  0.4299
  685MOL0     H92430   9.431   2.638   5.276 -0.0361  3.4980 -0.0410
  685MOL0     H92431   9.386   2.456   5.444  1.6281 -0.2303 -1.8539
  685MOL0     H92432   9.325   2.436   5.277  2.9519  0.1101  0.4523
  685MOL0     H92433   9.168   2.444   5.544  1.5727 -1.6334  0.0699
  685MOL0     H92434   9.154   2.350   5.413 -0.3657  0.9568 -1.7177
  685MOL0     H92435   8.815   2.623   5.357  0.8378  0.5308  0.4633
  685MOL0     H92436   8.678   2.598   5.179  0.1663 -0.6284 -0.1757
  685MOL0     H92437   8.495   2.652   4.726 -0.5660  0.3105 -0.2940
  685MOL0     H92438   8.295   2.587   4.610  0.9603  0.6727  1.5825
  685MOL0     H92439   8.293   2.303   4.434  1.9399  1.3152  0.8348
  685MOL0     H92440   8.283   2.170   4.558 -2.0779  0.5939  3.8490
  685MOL0     H92441   8.060   2.132   4.524 -0.7610  0.3406  0.0911
  685MOL0     H92442   8.052   2.249   4.393  1.2864  0.4022 -1.1220
  685MOL0     H92443   8.254   2.025   4.390 -0.8039  0.7090  2.1372
  685MOL0     H92444   8.084   2.014   4.312 -0.9104  1.1338 -2.4383
  685MOL0     H92445   8.311   2.205   4.221  1.5862 -1.0009  0.4227
  685MOL0     H92446   8.142   2.195   4.167 -0.4381  0.2789  0.6498
  685MOL0     H92447   8.153   1.957   4.111  0.0671  0.5358 -1.2129
  685MOL0     H92448   8.313   1.944   4.169  0.4451 -1.6807 -1.9301
  685MOL0     H92449   8.238   2.128   3.927  0.9136  1.5983  2.1889
  685MOL0     H92450   8.396   2.118   4.006  0.4240  0.4565 -0.9425
  685MOL0     H92451   8.452   1.909   3.964 -0.9961  0.1489  2.1715
  685MOL0     H92452   8.409   2.000   3.822  1.5675  2.6372  1.8917
  685MOL0     H92453   8.260   1.771   3.944 -0.5053  1.0994  0.2195
  685MOL0     H92454   8.178   1.888   3.829  1.7987  3.0031 -2.5586
  685MOL0     H92455   8.288   2.214   4.812  3.8708 -2.5475  1.5415
  685MOL0     H92456   8.497   2.265   4.924 -1.3548 -0.1949  0.7646
  685MOL0     H92457   8.960   2.317   5.009 -0.5459  1.0912 -1.6767
  685MOL0     H92458   9.114   2.366   5.202  2.0415  2.3109 -1.4749
  685MOL0     H92459  10.721   2.359   5.985  1.1042  1.1499 -1.4021
  685MOL0     H92460  10.961   2.338   5.970  0.1522 -0.8781 -0.1697
  685MOL0     H92461  11.379   2.245   5.529 -2.6361 -4.3570 -0.1508
  685MOL0     H92462  11.603   2.245   5.557 -1.1718  1.5083 -0.9451
  685MOL0     H92463  11.844   2.292   5.624  0.1733  0.6654  0.5253
  685MOL0     H92464  11.780   2.124   5.621 -2.7633  1.6067  0.3607
  685MOL0     H92465  12.039   2.145   5.660  1.6928  0.3008  2.1868
  685MOL0     H92466  11.962   2.066   5.798  4.3001 -0.5266  0.7779
  685MOL0     H92467  11.936   2.252   5.922 -1.0374 -3.4367 -0.5993
  685MOL0     H92468  12.007   2.365   5.804 -1.4379  0.8908  2.1773
  685MOL0     H92469  12.151   2.132   5.958 -0.3272 -1.5446 -2.6038
  685MOL0     H92470  12.228   2.242   5.844  0.2057 -1.0229 -0.1899
  685MOL0     H92471  12.224   2.528   6.129 -3.3687 -1.0312  3.2462
  685MOL0     H92472  11.560   2.222   5.983  0.9199 -0.4924  0.4094
  685MOL0     H92473  11.248   2.125   6.001  0.7238 -1.5177 -1.5590
  685MOL0     H92474  11.366   2.240   6.090 -1.5713 -1.8230  1.8020
  685MOL0     H92475  11.226   2.297   6.015 -1.2994 -0.3890 -2.0509
  686MOL0     O92476  10.755   3.605   8.341  0.5684  0.5099  0.3043
  686MOL0     C92477  10.847   3.556   8.283 -0.2610  0.5858  0.8772
  686MOL0     O92478  10.948   3.472   8.333 -0.0334 -0.0545 -0.3061
  686MOL0     C92479  10.982   3.467   8.471 -0.4706 -0.2325  0.0684
  686MOL0     C92480  10.973   3.344   8.538  0.2647 -1.5395 -0.5020
  686MOL0     C92481  11.019   3.333   8.669 -0.6777  0.0673  1.2651
  686MOL0     C92482  11.077   3.443   8.735  0.7536 -0.1036  0.1989
  686MOL0     O92483  11.115   3.438   8.870 -0.5881  0.1868 -0.3710
  686MOL0     C92484  11.094   3.318   8.941  0.0925  0.1316  0.5460
  686MOL0     C92485  11.205   3.211   8.922  0.5864 -0.1508 -0.8658
  686MOL0     C92486  11.197   3.079   9.008  0.4985 -0.3047  0.0746
  686MOL0     C92487  11.342   3.005   9.018  1.2111 -0.3582 -0.0306
  686MOL0     C92488  11.333   2.875   9.102  0.1959 -0.8107 -0.3406
  686MOL0     C92489  11.259   2.761   9.032  0.3191  1.1047 -0.7758
  686MOL0     C92490  11.337   2.728   8.902 -0.0239  0.3901  0.1739
  686MOL0     C92491  11.244   2.649   8.799 -0.6250  0.0751  0.4479
  686MOL0     N92492  11.130   2.730   8.752 -1.1648 -1.0247 -0.8507
  686MOL0     C92493  10.997   2.710   8.771  0.8811 -0.2695  0.0845
  686MOL0     C92494  10.947   2.830   8.721 -0.2234  0.3082 -0.0899
  686MOL0     C92495  10.801   2.879   8.714  0.3002 -1.3492  0.0980
  686MOL0     C92496  10.739   2.819   8.583  0.6952  0.2261  0.8494
  686MOL0     C92497  10.582   2.838   8.594  0.4575 -0.4164 -0.4658
  686MOL0     C92498  10.524   2.775   8.471  1.1038  0.0436  0.2590
  686MOL0     O92499  10.377   2.763   8.487 -0.1470  0.0098 -0.0972
  686MOL0     C92500  10.283   2.860   8.440  0.5521  0.3772 -0.1450
  686MOL0     C92501  10.147   2.825   8.454  0.2075 -0.7855  1.2570
  686MOL0     C92502  10.052   2.911   8.384  0.4023  0.8231  0.0989
  686MOL0     C92503  10.097   3.024   8.313 -0.0664  0.5074  0.1372
  686MOL0     C92504  10.002   3.108   8.248 -0.2182 -0.2497  0.0745
  686MOL0     O92505  10.028   3.237   8.235  0.1393 -0.4598 -0.4881
  686MOL0     C92506   9.990   3.305   8.123  0.4488 -0.1945  0.0756
  686MOL0     C92507   9.868   3.376   8.123 -0.7011 -0.3441 -0.0931
  686MOL0     C92508   9.814   3.439   8.012  0.6364  0.1337  0.8360
  686MOL0     C92509   9.884   3.426   7.894  0.6438 -0.8361  0.0471
  686MOL0     O92510   9.842   3.480   7.776  0.6941  0.3468 -0.0359
  686MOL0     C92511   9.725   3.563   7.760  0.6114 -1.1918  0.8780
  686MOL0     C92512   9.729   3.619   7.614 -0.5105 -0.5458  0.3977
  686MOL0     C92513   9.732   3.501   7.511 -0.5772  0.8409 -1.0944
  686MOL0     C92514   9.736   3.565   7.373 -0.1319 -0.1157  0.8715
  686MOL0     C92515   9.701   3.453   7.266 -0.1715 -0.5145  0.3902
  686MOL0     C92516   9.747   3.515   7.136 -0.3940 -0.0405 -0.6941
  686MOL0     C92517   9.611   3.570   7.078 -0.5642  0.0937  0.3408
  686MOL0     C92518   9.642   3.705   7.007 -0.2536 -0.0510  0.3751
  686MOL0    Cl92519   9.717   3.691   6.839  0.0740  0.0672  0.2103
  686MOL0     C92520  10.006   3.354   7.889 -0.8617  0.5026  0.2773
  686MOL0     C92521  10.058   3.292   8.007 -0.2540 -0.0312 -0.3970
  686MOL0     O92522   9.910   3.058   8.187  0.3339 -0.0099 -0.2088
  686MOL0     C92523  10.234   3.052   8.305  0.2455  0.1818 -0.1200
  686MOL0     C92524  10.326   2.973   8.369 -0.0158 -0.1957 -0.0401
  686MOL0     N92525  11.042   2.910   8.667 -0.4852 -0.0037  0.5329
  686MOL0     N92526  11.157   2.849   8.686  0.5055 -0.3138 -1.2182
  686MOL0     C92527  11.098   3.562   8.667  0.5220  0.3485  0.3147
  686MOL0     C92528  11.048   3.579   8.534  0.0807  0.7119  0.2599
  686MOL0     C92529  10.843   3.546   8.134  0.7392  0.2944 -0.0639
  686MOL0     C92530  10.774   3.440   8.071 -0.6370  0.6935 -0.0598
  686MOL0     C92531  10.770   3.423   7.929  0.4755 -0.9269 -0.9796
  686MOL0     C92532  10.827   3.520   7.850  0.3710  0.5844  0.6268
  686MOL0     O92533  10.806   3.497   7.720 -0.3950 -1.2027 -0.8804
  686MOL0     C92534  10.896   3.557   7.619 -1.1194 -0.4434 -0.4155
  686MOL0     C92535  10.856   3.508   7.491  0.8868  0.3149  0.3490
  686MOL0     C92536  10.935   3.576   7.382  1.4900 -0.2626  0.6769
  686MOL0     C92537  10.902   3.519   7.241 -0.0157  0.8777  0.2759
  686MOL0     C92538  10.960   3.386   7.233  0.8538  0.3053 -0.1764
  686MOL0     C92539  11.010   3.271   7.203  0.3062 -0.7937  0.2932
  686MOL0     C92540  10.875   3.633   7.909 -0.2914 -0.2563 -0.3177
  686MOL0     C92541  10.885   3.653   8.051 -0.1216 -0.4580  1.0150
  686MOL0     C92542  10.936   3.786   8.108 -0.7636 -0.5044  0.2791
  686MOL0     H92543  10.937   3.246   8.507 -1.4215 -1.0427 -0.2095
  686MOL0     H92544  11.006   3.235   8.714 -3.0591  0.1322  0.8499
  686MOL0     H92545  11.086   3.357   9.043 -4.3475  1.3230 -0.0547
  686MOL0     H92546  10.994   3.276   8.928  0.7740 -1.3224 -0.4007
  686MOL0     H92547  11.294   3.268   8.950  0.3149  0.4460 -1.1853
  686MOL0     H92548  11.208   3.199   8.814  0.4540  3.4082 -1.4041
  686MOL0     H92549  11.133   3.002   8.965  1.2512 -1.7755  1.4794
  686MOL0     H92550  11.166   3.108   9.109 -1.2082 -0.3365 -0.4109
  686MOL0     H92551  11.382   2.986   8.917 -1.7778  1.0016 -1.5914
  686MOL0     H92552  11.407   3.078   9.067 -2.8238  2.6320  1.3726
  686MOL0     H92553  11.436   2.839   9.111  1.0376  0.4092 -3.6975
  686MOL0     H92554  11.302   2.897   9.204 -0.3491 -2.1852 -0.1830
  686MOL0     H92555  11.251   2.667   9.086  1.9165  0.8896 -0.8771
  686MOL0     H92556  11.156   2.791   9.011  0.4770  1.2526 -1.3701
  686MOL0     H92557  11.410   2.654   8.937 -0.6891 -0.3328  0.0598
  686MOL0     H92558  11.387   2.807   8.845  0.8495 -0.7036 -0.6273
  686MOL0     H92559  11.309   2.622   8.715 -0.8915  0.9356 -0.0453
  686MOL0     H92560  11.207   2.557   8.846 -0.9188  0.2316  0.5218
  686MOL0     H92561  10.939   2.629   8.815 -0.0117  2.0346  3.5766
  686MOL0     H92562  10.746   2.839   8.800 -1.1243 -0.9567 -0.6150
  686MOL0     H92563  10.788   2.987   8.715 -2.6372 -1.5860 -1.6671
  686MOL0     H92564  10.786   2.860   8.493 -1.5180 -1.5514 -1.2259
  686MOL0     H92565  10.754   2.710   8.581  3.9731  0.5635 -1.1317
  686MOL0     H92566  10.550   2.938   8.624  2.2497 -0.2060  0.9747
  686MOL0     H92567  10.546   2.773   8.674  0.3207 -0.5289 -0.6187
  686MOL0     H92568  10.570   2.678   8.451 -3.8305 -2.9537  1.5859
  686MOL0     H92569  10.538   2.835   8.380 -2.3245 -1.0837 -1.2002
  686MOL0     H92570  10.125   2.734   8.508 -0.3260 -0.5610  1.4261
  686MOL0     H92571   9.948   2.879   8.379  0.0282  2.0789 -0.8505
  686MOL0     H92572   9.823   3.386   8.221  0.7012 -2.1188  0.7935
  686MOL0     H92573   9.715   3.483   8.007 -0.1802 -1.5982 -3.5339
  686MOL0     H92574   9.648   3.488   7.780 -0.6740 -0.4098 -0.8737
  686MOL0     H92575   9.715   3.651   7.825 -2.5375 -0.4157 -0.4244
  686MOL0     H92576   9.636   3.675   7.604 -1.2878 -1.8269  0.2736
  686MOL0     H92577   9.814   3.687   7.602 -2.1851  1.5661  0.0210
  686MOL0     H92578   9.826   3.446   7.514 -1.4411 -0.8630 -2.9281
  686MOL0     H92579   9.658   3.422   7.525  1.3356 -1.2688 -2.2772
  686MOL0     H92580   9.839   3.598   7.356 -0.2264 -0.2358  0.0437
  686MOL0     H92581   9.676   3.655   7.356  0.2197  0.0714  0.5955
  686MOL0     H92582   9.594   3.429   7.278 -0.2192 -0.9860 -0.8732
  686MOL0     H92583   9.752   3.359   7.288 -1.3076 -1.2351  0.0228
  686MOL0     H92584   9.824   3.592   7.149 -0.1532 -0.6522  2.3815
  686MOL0     H92585   9.787   3.437   7.071  1.1557 -0.5673  0.8105
  686MOL0     H92586   9.530   3.588   7.149 -0.3617  2.0862  0.1208
  686MOL0     H92587   9.572   3.506   6.998 -0.2413 -0.1779  0.3964
  686MOL0     H92588   9.553   3.761   6.976  1.3876  2.6258  0.1978
  686MOL0     H92589   9.702   3.772   7.069  2.1031 -1.4563 -0.2741
  686MOL0     H92590  10.050   3.354   7.790 -0.9056  0.4427  0.2578
  686MOL0     H92591  10.144   3.226   8.012  1.5943  2.0894 -2.2757
  686MOL0     H92592  10.246   3.146   8.252 -1.7749  0.6416  0.1880
  686MOL0     H92593  10.430   3.002   8.371  0.1786 -0.7182  2.9686
  686MOL0     H92594  11.134   3.649   8.721 -1.8258  2.5964 -1.5036
  686MOL0     H92595  11.073   3.664   8.472  1.5984 -0.4245 -0.7909
  686MOL0     H92596  10.743   3.350   8.123  0.2229 -0.1401 -0.9500
  686MOL0     H92597  10.723   3.341   7.877 -0.0695  0.2998 -2.5267
  686MOL0     H92598  10.992   3.507   7.637 -2.7066 -2.3757  4.2528
  686MOL0     H92599  10.914   3.665   7.617  2.8528 -0.8003  3.0802
  686MOL0     H92600  10.749   3.520   7.476  0.6217 -0.7218  1.2768
  686MOL0     H92601  10.865   3.399   7.484  1.5504  0.3935 -0.1067
  686MOL0     H92602  11.043   3.568   7.399  1.9211  4.1841  1.0790
  686MOL0     H92603  10.918   3.684   7.383  3.4072  0.0752  0.7086
  686MOL0     H92604  10.794   3.509   7.223  0.5027 -1.1260 -2.2109
  686MOL0     H92605  10.950   3.579   7.164 -1.3510 -0.6884 -1.8730
  686MOL0     H92606  11.057   3.179   7.175  0.9338  0.0879 -1.7293
  686MOL0     H92607  10.910   3.716   7.849  2.0860  1.5471  3.1614
  686MOL0     H92608  11.034   3.772   8.154  0.2515  1.1235 -1.2916
  686MOL0     H92609  10.940   3.857   8.026  2.2226 -0.8891 -0.0208
  686MOL0     H92610  10.868   3.823   8.186 -2.0459 -1.4815 -0.3386
  687MOL0     O92611  10.190   2.293   3.584  1.1933  0.7446  0.4132
  687MOL0     C92612  10.116   2.273   3.485 -0.6392 -0.0387 -0.0373
  687MOL0     O92613  10.157   2.236   3.369 -0.5756 -0.0431  0.3958
  687MOL0     C92614  10.285   2.267   3.320  0.3394  1.2701 -0.4526
  687MOL0     C92615  10.321   2.403   3.301  0.3924  0.6369 -0.3717
  687MOL0     C92616  10.437   2.437   3.240 -0.6123  0.0549  0.6022
  687MOL0     C92617  10.524   2.338   3.174  0.0426 -0.1572  0.3207
  687MOL0     O92618  10.642   2.392   3.120  0.1559  0.0791  0.1184
  687MOL0     C92619  10.737   2.305   3.054  0.5118 -0.2573  0.5638
  687MOL0     C92620  10.875   2.361   3.011 -0.5888  0.2129 -1.1409
  687MOL0     C92621  10.878   2.500   2.959 -0.4159  0.0152 -0.9175
  687MOL0     C92622  10.805   2.519   2.833  0.2438 -0.9436 -0.3964
  687MOL0     C92623  10.788   2.665   2.797  0.9073 -0.3410  0.8307
  687MOL0     C92624  10.903   2.760   2.817 -0.3926 -0.6647  0.5269
  687MOL0     C92625  10.883   2.890   2.734  0.0843 -0.9963 -0.3919
  687MOL0     C92626  11.008   2.981   2.746  0.4169 -0.0896 -0.0985
  687MOL0     N92627  11.134   2.946   2.678  0.2295 -0.2541 -0.0110
  687MOL0     C92628  11.139   2.841   2.592  0.6086  0.2926 -0.8588
  687MOL0     C92629  11.251   2.775   2.598 -0.1549  0.1729  0.2909
  687MOL0     C92630  11.299   2.653   2.514 -0.8374  0.4276 -0.1573
  687MOL0     C92631  11.200   2.540   2.509 -0.2707  0.1080  0.1488
  687MOL0     C92632  11.161   2.460   2.641  0.3653  0.0987  0.6039
  687MOL0     C92633  11.272   2.377   2.704 -0.0151  0.5073  0.2469
  687MOL0     O92634  11.344   2.303   2.603  0.6682 -0.0817 -0.0992
  687MOL0     C92635  11.455   2.225   2.630  0.2661 -0.0745 -0.4130
  687MOL0     C92636  11.523   2.225   2.751  0.6669  0.1714 -0.1157
  687MOL0     C92637  11.640   2.149   2.765  1.0496  1.8275 -0.3241
  687MOL0     C92638  11.692   2.070   2.659  0.1913  0.0665 -0.2191
  687MOL0     C92639  11.825   2.009   2.671 -0.6734 -0.0651  0.0093
  687MOL0     O92640  11.876   1.945   2.560  0.9816  0.2158 -0.3544
  687MOL0     C92641  12.009   1.899   2.569  0.9124 -0.4605  0.2456
  687MOL0     C92642  12.034   1.765   2.577  0.1199 -0.0266  0.3405
  687MOL0     C92643  12.165   1.726   2.596  0.1179 -0.5379 -0.3932
  687MOL0     C92644  12.277   1.819   2.580 -0.5484  0.2275  0.1870
  687MOL0     O92645  12.404   1.781   2.576 -1.1198 -0.3864  0.1943
  687MOL0     C92646  12.507   1.874   2.634 -0.0479  0.5772 -0.0635
  687MOL0     C92647  12.651   1.811   2.647  1.4986  0.5283 -0.2628
  687MOL0     C92648  12.669   1.704   2.757 -0.0194  0.1373 -0.3871
  687MOL0     C92649  12.821   1.689   2.778  0.2993 -0.4158 -0.0383
  687MOL0     C92650  12.844   1.596   2.898  0.4357 -0.3168 -0.8900
  687MOL0     C92651  12.997   1.573   2.930  0.2401  0.9169  0.4287
  687MOL0     C92652  13.017   1.420   2.939  0.2946 -0.7242  0.0067
  687MOL0     C92653  13.163   1.368   2.953  0.2188 -0.2519  0.8005
  687MOL0    Cl92654  13.183   1.237   3.081  0.1438 -0.5335 -0.4176
  687MOL0     C92655  12.246   1.959   2.558 -0.2688  0.3799 -0.7526
  687MOL0     C92656  12.112   1.999   2.562  0.2505 -0.2105  0.7783
  687MOL0     O92657  11.881   2.016   2.781  0.1725 -0.0424  0.1539
  687MOL0     C92658  11.611   2.058   2.545 -0.3269  0.0766  0.1158
  687MOL0     C92659  11.502   2.139   2.533 -0.7458  1.1423  0.1349
  687MOL0     N92660  11.321   2.846   2.695 -0.4825  0.3069 -0.1564
  687MOL0     N92661  11.261   2.950   2.738 -0.0741 -0.1537 -0.1975
  687MOL0     C92662  10.476   2.211   3.176  0.6056  0.6128  1.1507
  687MOL0     C92663  10.366   2.170   3.253  0.7991  0.3079 -0.0509
  687MOL0     C92664   9.965   2.268   3.511  0.6804  0.3298  0.7484
  687MOL0     C92665   9.926   2.235   3.644  0.9331  1.0270 -0.3252
  687MOL0     C92666   9.784   2.234   3.671 -0.2976 -0.5145  0.4373
  687MOL0     C92667   9.687   2.266   3.576  0.5272  0.0664  1.2128
  687MOL0     O92668   9.556   2.250   3.618 -0.1556 -0.1772 -0.2736
  687MOL0     C92669   9.446   2.290   3.538  0.4808 -0.0484  0.0457
  687MOL0     C92670   9.323   2.213   3.595 -0.1265  0.2010  0.0572
  687MOL0     C92671   9.200   2.257   3.509  0.6525 -0.3871 -0.8123
  687MOL0     C92672   9.070   2.189   3.544  0.2201  0.1775 -0.6662
  687MOL0     C92673   8.960   2.245   3.477  0.2909  0.2870  0.2682
  687MOL0     C92674   8.851   2.265   3.422 -0.8113 -0.4201 -0.3218
  687MOL0     C92675   9.729   2.302   3.442  0.7667 -0.7568  0.2641
  687MOL0     C92676   9.861   2.315   3.415 -0.9329  0.1530 -1.1100
  687MOL0     C92677   9.901   2.361   3.278  0.1901  0.2376  0.5852
  687MOL0     H92678  10.251   2.470   3.349 -3.5431 -0.2496 -4.1981
  687MOL0     H92679  10.462   2.542   3.232 -0.7662 -0.0545 -2.6666
  687MOL0     H92680  10.747   2.217   3.119  0.9232  0.4720  1.5028
  687MOL0     H92681  10.687   2.274   2.962 -0.6075  0.4467  0.9149
  687MOL0     H92682  10.908   2.289   2.936 -1.1138 -0.8172 -0.4142
  687MOL0     H92683  10.931   2.354   3.105 -1.0093 -0.7010 -0.9433
  687MOL0     H92684  10.984   2.515   2.936 -1.0315  1.8056 -2.7972
  687MOL0     H92685  10.853   2.581   3.028 -1.0000 -0.4868 -0.5199
  687MOL0     H92686  10.851   2.474   2.745  2.4698  1.5572 -0.6229
  687MOL0     H92687  10.701   2.487   2.845 -0.4642  1.2672 -0.0788
  687MOL0     H92688  10.764   2.678   2.691  0.3120  3.0198  1.2583
  687MOL0     H92689  10.710   2.699   2.866 -2.2352  1.7398 -3.2836
  687MOL0     H92690  10.914   2.770   2.925 -1.0302 -1.5601  0.6893
  687MOL0     H92691  10.994   2.707   2.786  0.9176 -0.1704  3.2699
  687MOL0     H92692  10.798   2.934   2.786 -1.0775 -1.3298 -1.9573
  687MOL0     H92693  10.856   2.873   2.630 -0.9278 -0.3646 -0.2476
  687MOL0     H92694  10.980   3.079   2.705 -1.7973 -0.6233 -0.0010
  687MOL0     H92695  11.018   3.006   2.853  2.6572 -0.1480 -0.2543
  687MOL0     H92696  11.053   2.797   2.542 -0.6415  0.5302  0.9696
  687MOL0     H92697  11.324   2.679   2.410 -0.2615 -0.1199 -0.1665
  687MOL0     H92698  11.387   2.605   2.559 -0.8015 -0.9780 -1.6112
  687MOL0     H92699  11.107   2.564   2.458 -0.4643 -1.9338 -0.5292
  687MOL0     H92700  11.239   2.460   2.446  4.6537  1.8883  0.5243
  687MOL0     H92701  11.079   2.392   2.616  0.2286  0.1438  0.9174
  687MOL0     H92702  11.114   2.523   2.717 -2.6964  0.8322 -1.6676
  687MOL0     H92703  11.234   2.312   2.783  0.5290  0.7438  0.7034
  687MOL0     H92704  11.335   2.451   2.752  2.6473  0.8595 -3.3503
  687MOL0     H92705  11.494   2.294   2.830  0.2561 -0.1268  0.0004
  687MOL0     H92706  11.695   2.158   2.858 -0.6564 -0.9839  1.1222
  687MOL0     H92707  11.958   1.688   2.585 -0.5640  0.5391 -0.5218
  687MOL0     H92708  12.175   1.619   2.580 -1.0913 -0.9029  1.0018
  687MOL0     H92709  12.507   1.970   2.582  0.7662  1.0895  0.8512
  687MOL0     H92710  12.487   1.898   2.739  1.7786  0.0145  0.4496
  687MOL0     H92711  12.678   1.771   2.548 -1.8537 -0.0872 -1.0541
  687MOL0     H92712  12.707   1.904   2.662 -1.9814  2.5500  1.4512
  687MOL0     H92713  12.619   1.745   2.845 -0.1437 -2.4023  0.8092
  687MOL0     H92714  12.618   1.610   2.733 -1.7672  0.4257  1.9097
  687MOL0     H92715  12.867   1.784   2.804  0.9183  0.1320 -2.8705
  687MOL0     H92716  12.876   1.640   2.698 -0.6461 -1.7731  0.0978
  687MOL0     H92717  12.789   1.503   2.877 -0.9717 -0.4702  2.7964
  687MOL0     H92718  12.794   1.632   2.987  0.7032  3.9042 -2.2516
  687MOL0     H92719  13.054   1.602   2.841  0.6008  0.0643  0.3795
  687MOL0     H92720  13.037   1.617   3.022  0.7039 -2.7547  2.1698
  687MOL0     H92721  12.984   1.368   2.849 -0.8491 -0.0634  0.0234
  687MOL0     H92722  12.952   1.389   3.021 -1.5942  0.1575 -1.0852
  687MOL0     H92723  13.194   1.334   2.854 -2.8842 -0.2856 -0.2713
  687MOL0     H92724  13.222   1.457   2.977  0.6107  0.1856 -1.5693
  687MOL0     H92725  12.315   2.042   2.548  1.5971 -0.9709  0.2540
  687MOL0     H92726  12.090   2.105   2.558 -1.6262 -0.5741 -2.7791
  687MOL0     H92727  11.646   2.001   2.459 -2.6196 -2.9737  1.0659
  687MOL0     H92728  11.459   2.142   2.433  3.7670 -4.0813 -2.5391
  687MOL0     H92729  10.531   2.129   3.132 -1.3730  1.1261 -2.7416
  687MOL0     H92730  10.327   2.068   3.263  1.5255  0.0684  0.4030
  687MOL0     H92731   9.996   2.189   3.714  1.9345 -2.7387 -3.4304
  687MOL0     H92732   9.753   2.195   3.768  1.4116 -1.3911  0.6707
  687MOL0     H92733   9.463   2.266   3.433  0.8504  2.0947 -0.4216
  687MOL0     H92734   9.433   2.398   3.552  0.3729 -0.2009  1.2697
  687MOL0     H92735   9.302   2.238   3.700 -3.1991 -0.6638 -0.2556
  687MOL0     H92736   9.334   2.105   3.581 -2.2615  0.2069 -2.2192
  687MOL0     H92737   9.218   2.240   3.403  1.0579 -0.2846 -0.7616
  687MOL0     H92738   9.190   2.366   3.510  1.0371 -0.3388 -1.6218
  687MOL0     H92739   9.072   2.080   3.544  0.9527  0.1571  1.1255
  687MOL0     H92740   9.051   2.233   3.643 -1.7855  2.3399 -1.9154
  687MOL0     H92741   8.753   2.300   3.397 -1.3038 -0.7204  1.0946
  687MOL0     H92742   9.655   2.325   3.366  2.5287  1.7256 -0.8578
  687MOL0     H92743   9.813   2.388   3.218  1.3387 -1.9350 -2.3504
  687MOL0     H92744   9.946   2.457   3.302  0.5464  0.1867  0.1552
  687MOL0     H92745   9.966   2.301   3.213  0.6581  0.1002  1.1771
  688MOL0     O92746   2.519   8.453   1.660  0.3282 -0.2927  0.2479
  688MOL0     C92747   2.520   8.574   1.683 -0.4014 -0.7262 -0.1688
  688MOL0     O92748   2.417   8.665   1.661 -0.0234  0.0358  0.0706
  688MOL0     C92749   2.303   8.627   1.603 -0.0860 -0.0592 -0.1299
  688MOL0     C92750   2.280   8.642   1.461  0.5157  1.5384  0.0632
  688MOL0     C92751   2.153   8.614   1.406 -0.9007  0.1143 -0.6994
  688MOL0     C92752   2.051   8.558   1.484 -0.5262  0.3866 -0.4165
  688MOL0     O92753   1.932   8.525   1.425  0.1509 -0.1113 -0.2830
  688MOL0     C92754   1.819   8.482   1.504 -0.0694  0.9879 -0.0496
  688MOL0     C92755   1.695   8.470   1.402  0.1391 -0.6121  0.5135
  688MOL0     C92756   1.627   8.605   1.383  1.0812  0.4191 -0.1474
  688MOL0     C92757   1.474   8.568   1.343 -0.5465 -0.8206  0.7702
  688MOL0     C92758   1.405   8.700   1.303 -0.4701  0.0198 -0.6125
  688MOL0     C92759   1.255   8.688   1.305 -0.1774  0.0253  0.0134
  688MOL0     C92760   1.189   8.577   1.221  0.6890 -0.6148 -0.8850
  688MOL0     C92761   1.222   8.584   1.070 -0.4376 -0.1969  0.3669
  688MOL0     N92762   1.097   8.569   0.996 -0.5171  0.2941 -0.4381
  688MOL0     C92763   1.057   8.634   0.881 -0.3081  0.1472 -0.5027
  688MOL0     C92764   0.966   8.544   0.822 -0.0662  0.5889 -1.2328
  688MOL0     C92765   0.894   8.566   0.698 -0.4593 -0.0878 -0.3987
  688MOL0     C92766   0.750   8.515   0.726  0.6360  0.3225  0.1243
  688MOL0     C92767   0.719   8.364   0.697  0.5565 -1.1179  0.2776
  688MOL0     C92768   0.568   8.350   0.701  0.5367 -0.1171 -0.8325
  688MOL0     O92769   0.544   8.207   0.663 -0.5526 -0.1529 -0.5016
  688MOL0     C92770   0.422   8.149   0.661  0.1070  0.1055 -0.0938
  688MOL0     C92771   0.295   8.216   0.654 -0.2411 -0.0175 -0.2922
  688MOL0     C92772   0.175   8.154   0.641  0.6881 -0.5549 -0.4940
  688MOL0     C92773   0.172   8.015   0.620  0.8484  0.0748  0.3197
  688MOL0     C92774   0.047   7.942   0.572 -0.3632 -0.0690 -0.2900
  688MOL0     O92775  -0.070   8.012   0.583 -0.2993  0.0491  0.3656
  688MOL0     C92776  -0.183   7.965   0.532  0.6222  0.2896  0.5668
  688MOL0     C92777  -0.245   7.859   0.573  0.1832  0.3727 -0.4968
  688MOL0     C92778  -0.362   7.807   0.518  0.1853 -0.2549 -0.0355
  688MOL0     C92779  -0.419   7.864   0.406 -0.7741 -0.0235  0.0590
  688MOL0     O92780  -0.534   7.828   0.333  1.0453  0.7744 -0.5274
  688MOL0     C92781  -0.621   7.731   0.398  0.2682  0.1514  0.4176
  688MOL0     C92782  -0.755   7.726   0.320  0.3886  1.5726 -0.6309
  688MOL0     C92783  -0.839   7.619   0.389 -0.4118  0.1068  0.1902
  688MOL0     C92784  -0.936   7.644   0.507 -0.8050 -0.9131 -0.0969
  688MOL0     C92785  -0.875   7.713   0.631  0.7583 -0.5003  0.4575
  688MOL0     C92786  -0.998   7.736   0.727 -0.5915 -0.6668  0.1998
  688MOL0     C92787  -1.068   7.867   0.713 -0.9145  0.0468 -0.2376
  688MOL0     C92788  -1.212   7.865   0.790 -0.4594  0.0260 -0.5653
  688MOL0    Cl92789  -1.185   7.797   0.954  0.1200 -0.3081 -0.0145
  688MOL0     C92790  -0.341   7.977   0.359  0.1430 -0.3365 -0.1841
  688MOL0     C92791  -0.228   8.023   0.420  0.0097 -0.1140 -0.0464
  688MOL0     O92792   0.056   7.839   0.513 -0.1317  0.9286 -0.8901
  688MOL0     C92793   0.294   7.945   0.633 -1.1131  0.5265  0.2707
  688MOL0     C92794   0.421   8.007   0.643  0.3313  0.7666 -0.7822
  688MOL0     N92795   0.957   8.436   0.900  0.3405  0.0143  0.0532
  688MOL0     N92796   1.024   8.454   0.999 -0.4559  0.2021 -0.2973
  688MOL0     C92797   2.074   8.541   1.619  0.5232  0.1951 -0.3325
  688MOL0     C92798   2.197   8.570   1.674 -0.0494  0.5009 -0.9166
  688MOL0     C92799   2.629   8.642   1.765 -0.3478 -0.1998  0.9515
  688MOL0     C92800   2.618   8.785   1.805 -0.6481  0.5735  0.8783
  688MOL0     C92801   2.722   8.841   1.879  0.0446 -0.3300  0.6165
  688MOL0     C92802   2.825   8.767   1.938 -0.9866  0.7235  0.3126
  688MOL0     O92803   2.915   8.831   2.019  0.8685  0.3411 -0.3796
  688MOL0     C92804   3.016   8.757   2.091 -0.8191  0.8438  0.1347
  688MOL0     C92805   3.100   8.851   2.146  0.1007 -0.8766 -0.3859
  688MOL0     C92806   3.216   8.788   2.235  0.3354 -0.1185  0.2160
  688MOL0     C92807   3.310   8.896   2.292 -0.1267 -0.9610 -0.5928
  688MOL0     C92808   3.421   8.943   2.206 -0.5064  0.6203  0.0456
  688MOL0     C92809   3.507   9.008   2.140  1.2303  0.1623 -0.4947
  688MOL0     C92810   2.844   8.629   1.886  0.1159 -0.3014 -1.0227
  688MOL0     C92811   2.750   8.574   1.798 -0.0369  0.0708 -0.9099
  688MOL0     C92812   2.782   8.432   1.769 -0.1939  0.0620  0.3084
  688MOL0     H92813   2.351   8.672   1.385  1.4368 -2.2930 -0.7959
  688MOL0     H92814   2.135   8.614   1.299  1.8239 -2.7849 -1.3124
  688MOL0     H92815   1.847   8.384   1.541 -2.1550  0.3620  0.0181
  688MOL0     H92816   1.793   8.543   1.592  0.4178  0.6434  0.3338
  688MOL0     H92817   1.625   8.398   1.444  1.6432 -2.0403  0.6907
  688MOL0     H92818   1.734   8.436   1.305 -1.0764  2.0154 -1.0204
  688MOL0     H92819   1.665   8.664   1.299  0.3594  2.6404  1.0088
  688MOL0     H92820   1.628   8.659   1.478 -3.1096  1.2629 -0.3884
  688MOL0     H92821   1.471   8.510   1.250 -0.6972  3.5554 -2.2064
  688MOL0     H92822   1.427   8.509   1.422  2.4070 -4.2505  0.2438
  688MOL0     H92823   1.430   8.765   1.387  1.7969 -2.1296  0.5027
  688MOL0     H92824   1.447   8.746   1.213  1.9639 -3.1870 -1.3412
  688MOL0     H92825   1.214   8.676   1.406 -0.5028 -0.4794 -0.1744
  688MOL0     H92826   1.219   8.782   1.263  1.9592  0.9974  0.2242
  688MOL0     H92827   1.082   8.577   1.247  0.5759  1.4642 -1.2278
  688MOL0     H92828   1.233   8.486   1.263  3.7205  1.1826  0.1187
  688MOL0     H92829   1.275   8.675   1.039  0.2603 -0.4824  0.6910
  688MOL0     H92830   1.288   8.500   1.045 -1.0924 -0.0705 -1.9779
  688MOL0     H92831   1.101   8.731   0.858  2.0749 -0.3976  1.3295
  688MOL0     H92832   0.888   8.672   0.670 -0.5577  0.1805  0.5774
  688MOL0     H92833   0.945   8.508   0.621 -0.7585 -2.6546  1.2312
  688MOL0     H92834   0.720   8.541   0.827  1.4149 -0.8337  0.6707
  688MOL0     H92835   0.684   8.575   0.662 -0.4677  0.0248  0.9725
  688MOL0     H92836   0.752   8.307   0.784 -1.7322  0.2079  2.1201
  688MOL0     H92837   0.762   8.324   0.604 -3.0773 -0.2010 -2.0203
  688MOL0     H92838   0.520   8.419   0.632  1.3185  3.4484  1.8973
  688MOL0     H92839   0.532   8.373   0.802  2.1136  0.2297 -0.3311
  688MOL0     H92840   0.289   8.324   0.646 -2.9364 -0.0568  0.3827
  688MOL0     H92841   0.082   8.211   0.642  1.6880  1.1811 -1.0468
  688MOL0     H92842  -0.201   7.808   0.658  1.2956  0.8735 -0.7560
  688MOL0     H92843  -0.400   7.711   0.552  0.0544 -0.0903  0.2788
  688MOL0     H92844  -0.572   7.633   0.400 -3.2887 -1.9352 -1.9319
  688MOL0     H92845  -0.653   7.755   0.500 -1.0498 -1.1781  0.3603
  688MOL0     H92846  -0.805   7.823   0.327 -3.4002 -0.2111 -0.7856
  688MOL0     H92847  -0.734   7.694   0.218 -0.1322 -0.8767 -0.0288
  688MOL0     H92848  -0.905   7.580   0.310  0.7089  1.3515 -1.4393
  688MOL0     H92849  -0.771   7.539   0.418  2.7399  2.6830  0.4602
  688MOL0     H92850  -0.973   7.547   0.543 -1.4036  0.6506  4.0998
  688MOL0     H92851  -1.011   7.713   0.468 -3.2476 -2.5851  1.3291
  688MOL0     H92852  -0.831   7.810   0.607 -2.9765  1.6291  1.4010
  688MOL0     H92853  -0.806   7.643   0.679  0.8675  0.6501  2.0401
  688MOL0     H92854  -1.078   7.662   0.715  0.5272 -1.7521 -0.9024
  688MOL0     H92855  -0.954   7.730   0.827 -0.2378 -2.0252 -0.0084
  688MOL0     H92856  -1.081   7.875   0.605 -0.6935 -0.9660 -0.3475
  688MOL0     H92857  -1.006   7.949   0.752 -3.5784  1.6202  0.9425
  688MOL0     H92858  -1.238   7.970   0.808 -0.6119  0.3520 -2.4621
  688MOL0     H92859  -1.290   7.814   0.732 -1.0256  0.0362  0.1667
  688MOL0     H92860  -0.373   8.019   0.264  1.5288 -0.3093 -0.6687
  688MOL0     H92861  -0.173   8.103   0.371 -1.1467  2.9220  3.2273
  688MOL0     H92862   0.298   7.836   0.634  1.4607  0.5095  2.6575
  688MOL0     H92863   0.507   7.940   0.639 -3.3841 -4.6979  0.2702
  688MOL0     H92864   2.001   8.487   1.678  0.9121  1.4770  1.3869
  688MOL0     H92865   2.214   8.553   1.780 -4.5306 -1.7551 -0.3243
  688MOL0     H92866   2.528   8.844   1.787 -0.4549  0.2267 -1.7091
  688MOL0     H92867   2.717   8.948   1.895  1.1265 -0.3175  0.9463
  688MOL0     H92868   3.076   8.702   2.018 -2.3352 -1.0524  0.2492
  688MOL0     H92869   2.967   8.690   2.163 -3.1036  2.2484  0.0075
  688MOL0     H92870   3.050   8.926   2.208  2.0603 -0.0098  0.2260
  688MOL0     H92871   3.166   8.906   2.078  1.9504 -1.1673  1.0864
  688MOL0     H92872   3.269   8.706   2.185 -1.3911 -0.4464 -1.1976
  688MOL0     H92873   3.181   8.743   2.329  2.9410 -0.9704  0.8668
  688MOL0     H92874   3.249   8.984   2.314  3.3025  1.8729 -1.3641
  688MOL0     H92875   3.349   8.863   2.388  2.8746 -1.1312 -1.7403
  688MOL0     H92876   3.584   9.069   2.098  1.3630  1.5360  1.5907
  688MOL0     H92877   2.930   8.574   1.922 -1.0752 -1.3259  0.3925
  688MOL0     H92878   2.724   8.368   1.836  0.2723 -1.7805 -0.9574
  688MOL0     H92879   2.755   8.408   1.666  0.7843  2.8226 -0.6850
  688MOL0     H92880   2.889   8.419   1.786  0.0832  1.2976 -0.3755
  689MOL0     O92881  11.238   9.443   6.500 -1.0231  0.3882  0.0706
  689MOL0     C92882  11.302   9.518   6.426 -0.5356  0.8256  0.0672
  689MOL0     O92883  11.290   9.508   6.297  0.2819  1.1724 -0.1027
  689MOL0     C92884  11.363   9.591   6.217  0.3031  0.2627  0.4878
  689MOL0     C92885  11.303   9.684   6.127 -0.0212  0.8873  0.4524
  689MOL0     C92886  11.382   9.767   6.045  0.3008  1.0435 -0.0239
  689MOL0     C92887  11.519   9.745   6.038  0.3262 -0.5316  0.0184
  689MOL0     O92888  11.591   9.827   5.946  0.1332 -0.4307 -0.4156
  689MOL0     C92889  11.731   9.826   5.954  0.0085 -1.0717 -0.9615
  689MOL0     C92890  11.786   9.944   5.879  0.2589 -0.3694 -0.2340
  689MOL0     C92891  11.827   9.899   5.736  0.1127 -0.4680 -0.0582
  689MOL0     C92892  11.968   9.846   5.751 -0.5845 -0.2215 -0.1731
  689MOL0     C92893  12.024   9.825   5.614  0.0811  0.4762  0.6835
  689MOL0     C92894  12.156   9.747   5.612 -0.0710 -0.3315  0.5161
  689MOL0     C92895  12.257   9.779   5.718 -0.2698 -0.4226 -0.2695
  689MOL0     C92896  12.394   9.727   5.677 -0.0217 -0.3805 -0.3791
  689MOL0     N92897  12.406   9.583   5.679 -0.6617 -0.4452  0.2399
  689MOL0     C92898  12.412   9.503   5.793 -0.1692  0.0128 -0.2809
  689MOL0     C92899  12.440   9.376   5.748 -0.5254  0.4181  0.6507
  689MOL0     C92900  12.453   9.246   5.804 -0.4894  0.1199  0.3952
  689MOL0     C92901  12.589   9.176   5.777  0.2683 -0.3919 -0.2192
  689MOL0     C92902  12.709   9.229   5.855  0.2399 -0.1094 -0.7904
  689MOL0     C92903  12.833   9.159   5.806  0.3795 -0.1696  0.7890
  689MOL0     O92904  12.945   9.209   5.885  0.5509 -0.4052 -0.0772
  689MOL0     C92905  13.072   9.192   5.853 -0.1718 -0.2205  0.1605
  689MOL0     C92906  13.129   9.076   5.810  0.4840  0.6426 -0.0619
  689MOL0     C92907  13.261   9.066   5.778  0.7988  0.2238 -0.0626
  689MOL0     C92908  13.346   9.176   5.797 -0.3720 -0.5722 -0.2013
  689MOL0     C92909  13.484   9.161   5.766  0.3767 -0.5974  0.0594
  689MOL0     O92910  13.554   9.277   5.785  0.1269  0.3829 -0.0320
  689MOL0     C92911  13.687   9.259   5.752  1.3603 -0.5703  0.0572
  689MOL0     C92912  13.722   9.281   5.610 -0.7654  0.3073 -0.4603
  689MOL0     C92913  13.860   9.264   5.570 -0.7701 -0.3050  0.3463
  689MOL0     C92914  13.958   9.211   5.665  0.0968  0.4405 -0.1985
  689MOL0     O92915  14.082   9.183   5.614  0.3913  0.4518 -0.1864
  689MOL0     C92916  14.192   9.162   5.705  0.6555  0.2934 -0.4446
  689MOL0     C92917  14.307   9.155   5.620 -0.5576  1.0408 -0.8157
  689MOL0     C92918  14.357   9.290   5.547 -0.1715 -0.4453  0.5933
  689MOL0     C92919  14.452   9.257   5.434  0.6330 -0.3316 -0.1974
  689MOL0     C92920  14.510   9.388   5.373 -0.5716  0.5590  0.4684
  689MOL0     C92921  14.579   9.357   5.237 -0.9601  0.4006  0.0963
  689MOL0     C92922  14.718   9.298   5.258  0.8430 -0.4587  0.7765
  689MOL0     C92923  14.779   9.288   5.113  0.5120 -0.4010 -0.2637
  689MOL0    Cl92924  14.931   9.189   5.138  0.1657  0.2693 -0.0270
  689MOL0     C92925  13.910   9.186   5.804 -0.1784 -0.4770 -0.2576
  689MOL0     C92926  13.773   9.205   5.845 -0.1080  0.0209 -0.4807
  689MOL0     O92927  13.524   9.063   5.699 -0.0755  0.3150  0.0986
  689MOL0     C92928  13.284   9.297   5.857 -0.5581 -0.2868 -0.4481
  689MOL0     C92929  13.154   9.300   5.882  0.4835  0.6624  0.2286
  689MOL0     N92930  12.431   9.382   5.608 -0.4407 -0.0613 -1.0366
  689MOL0     N92931  12.420   9.501   5.572 -0.9760 -1.0855 -0.5566
  689MOL0     C92932  11.580   9.661   6.130 -0.1312 -0.1749  0.6187
  689MOL0     C92933  11.505   9.588   6.223  0.6279  0.1699  0.1833
  689MOL0     C92934  11.389   9.606   6.498 -0.2199 -0.4768  0.3891
  689MOL0     C92935  11.350   9.742   6.490 -0.3988  0.5091 -0.5736
  689MOL0     C92936  11.439   9.836   6.533  1.0313 -0.3198 -0.5230
  689MOL0     C92937  11.557   9.803   6.591  0.5756 -0.4153 -0.4396
  689MOL0     O92938  11.636   9.902   6.643  0.0292 -0.5307  0.1666
  689MOL0     C92939  11.573  10.011   6.714  1.7021 -0.1337  0.5234
  689MOL0     C92940  11.669  10.087   6.803 -0.0135  0.8274 -0.0344
  689MOL0     C92941  11.796  10.104   6.726 -0.5771 -1.4721 -0.1190
  689MOL0     C92942  11.875  10.235   6.743 -0.4428  0.1421 -0.2553
  689MOL0     C92943  11.985  10.241   6.651 -0.4106 -0.0892 -0.6492
  689MOL0     C92944  12.079  10.249   6.574  0.3213  0.8398 -0.4010
  689MOL0     C92945  11.601   9.673   6.607 -0.9803 -0.0330 -0.3445
  689MOL0     C92946  11.515   9.571   6.567  0.5552 -0.4066  0.4208
  689MOL0     C92947  11.571   9.435   6.563 -0.1382 -0.2692  0.4766
  689MOL0     H92948  11.195   9.691   6.115 -0.3491 -2.0062  0.8171
  689MOL0     H92949  11.318   9.830   5.984 -1.5860 -1.5816 -0.9497
  689MOL0     H92950  11.768   9.835   6.057  0.2536 -3.0462 -0.8330
  689MOL0     H92951  11.773   9.737   5.907  2.7054  2.1050 -5.4659
  689MOL0     H92952  11.857   9.997   5.943 -0.4467 -0.3756  0.5691
  689MOL0     H92953  11.704  10.016   5.867  0.4061 -0.0464  0.6275
  689MOL0     H92954  11.824   9.982   5.666  0.3141  0.8505  1.4432
  689MOL0     H92955  11.779   9.814   5.687  1.1337 -0.3558 -1.2732
  689MOL0     H92956  12.028   9.917   5.809 -1.5031 -0.3013  0.8868
  689MOL0     H92957  11.966   9.750   5.803 -3.0725 -0.3359 -0.3570
  689MOL0     H92958  11.957   9.766   5.550  1.8667  1.9731 -2.8428
  689MOL0     H92959  12.036   9.924   5.569 -0.8135 -0.4515 -1.8184
  689MOL0     H92960  12.146   9.638   5.610  1.3434 -0.4790  0.4784
  689MOL0     H92961  12.205   9.757   5.515 -0.8079  3.2496  0.3654
  689MOL0     H92962  12.226   9.731   5.811 -1.7348  0.5845 -0.1873
  689MOL0     H92963  12.254   9.888   5.733 -0.7729 -0.6101  1.1889
  689MOL0     H92964  12.425   9.756   5.576  0.0899 -2.6843 -1.0814
  689MOL0     H92965  12.470   9.763   5.746 -2.4961  1.4055  1.5778
  689MOL0     H92966  12.391   9.542   5.891  0.3562  1.4145 -0.6990
  689MOL0     H92967  12.428   9.246   5.911 -2.2908 -3.9684  0.1743
  689MOL0     H92968  12.384   9.170   5.766  1.7797 -1.2237 -1.3154
  689MOL0     H92969  12.585   9.068   5.795 -2.8389 -0.2957  0.2487
  689MOL0     H92970  12.598   9.188   5.669 -0.5341  2.2008 -0.0662
  689MOL0     H92971  12.694   9.208   5.962  0.1132 -2.1388 -1.1792
  689MOL0     H92972  12.713   9.338   5.843 -0.2376 -0.1608 -1.4448
  689MOL0     H92973  12.848   9.209   5.710  2.5849  2.0093  2.1811
  689MOL0     H92974  12.824   9.050   5.802 -1.2620 -0.0522 -2.6382
  689MOL0     H92975  13.064   8.997   5.773 -1.7480  2.9127 -1.2528
  689MOL0     H92976  13.277   8.980   5.713 -5.6334 -1.3716 -0.1368
  689MOL0     H92977  13.640   9.303   5.542 -2.3595  1.3064  1.6821
  689MOL0     H92978  13.885   9.281   5.466  5.0997  0.6411  1.5276
  689MOL0     H92979  14.201   9.248   5.772  0.2169 -1.4723  2.0450
  689MOL0     H92980  14.180   9.072   5.766 -3.0774  1.0619  0.2319
  689MOL0     H92981  14.397   9.130   5.677  0.5332 -1.0703 -3.2774
  689MOL0     H92982  14.280   9.088   5.538 -1.6250  1.4327 -0.7998
  689MOL0     H92983  14.272   9.340   5.501 -0.2423  2.4397  3.4453
  689MOL0     H92984  14.402   9.350   5.628 -0.2396  3.4282 -1.9736
  689MOL0     H92985  14.400   9.208   5.351 -0.2398  0.6954 -0.2779
  689MOL0     H92986  14.539   9.196   5.460 -0.7118 -1.8344  0.9748
  689MOL0     H92987  14.576   9.438   5.445 -1.5068  0.9705  1.0580
  689MOL0     H92988  14.436   9.465   5.349  1.7495  2.4172 -1.2090
  689MOL0     H92989  14.516   9.297   5.171 -2.1960  3.0406 -1.2504
  689MOL0     H92990  14.593   9.453   5.188  0.2371  1.6970  2.7643
  689MOL0     H92991  14.704   9.203   5.310 -0.2495 -0.1446  1.0747
  689MOL0     H92992  14.777   9.368   5.319 -0.5846  2.0493 -0.5397
  689MOL0     H92993  14.711   9.237   5.043  3.0465 -0.6099 -2.7563
  689MOL0     H92994  14.796   9.390   5.078  3.1385 -0.5897  0.2356
  689MOL0     H92995  13.983   9.149   5.875  1.4072 -0.7244 -1.9418
  689MOL0     H92996  13.747   9.172   5.945 -0.5363  0.8681 -0.3027
  689MOL0     H92997  13.345   9.385   5.874 -0.4600 -0.4756  0.2218
  689MOL0     H92998  13.105   9.383   5.932 -2.4568 -0.7320 -0.1318
  689MOL0     H92999  11.686   9.642   6.114 -0.0557 -1.0863  2.0321
  689MOL0     H93000  11.565   9.517   6.280  1.7529  1.7348  1.0178
  689MOL0     H93001  11.252   9.760   6.449 -0.2491 -0.9958 -1.6563
  689MOL0     H93002  11.419   9.941   6.517  1.9682 -0.3303 -2.0645
  689MOL0     H93003  11.477   9.987   6.761 -1.2573  1.3248 -4.0953
  689MOL0     H93004  11.546  10.078   6.632  1.2264 -4.2107 -3.0370
  689MOL0     H93005  11.688  10.034   6.897  2.6196 -1.5981 -1.7771
  689MOL0     H93006  11.639  10.191   6.822  2.6326  1.7618 -0.5400
  689MOL0     H93007  11.774  10.099   6.619  2.1996  1.3006 -0.9496
  689MOL0     H93008  11.855  10.017   6.755 -0.3511 -0.3333  3.3424
  689MOL0     H93009  11.813  10.321   6.717 -0.8026 -1.1803 -4.6703
  689MOL0     H93010  11.914  10.231   6.845 -1.3720  0.3742  0.1216
  689MOL0     H93011  12.162  10.256   6.506 -0.4699 -2.0650 -1.8065
  689MOL0     H93012  11.687   9.636   6.662 -1.3819 -0.3023  0.1051
  689MOL0     H93013  11.637   9.427   6.650  0.6055  0.4868 -0.0034
  689MOL0     H93014  11.493   9.359   6.566  0.0088 -0.5936 -2.2503
  689MOL0     H93015  11.636   9.427   6.476  1.2966  0.3889  1.4345
  690MOL0     O93016   9.504   5.563   6.503  0.0611  0.4718  0.1862
  690MOL0     C93017   9.385   5.558   6.512  0.2042 -0.3411 -0.1602
  690MOL0     O93018   9.317   5.549   6.634  0.3268  0.1237  0.4848
  690MOL0     C93019   9.365   5.621   6.743 -0.0244  0.4802 -0.2704
  690MOL0     C93020   9.439   5.736   6.731 -0.6721  0.1439 -0.4279
  690MOL0     C93021   9.482   5.811   6.841 -0.9752 -0.5313  0.7556
  690MOL0     C93022   9.448   5.765   6.972 -0.0676 -0.3645 -0.6159
  690MOL0     O93023   9.479   5.813   7.097 -0.0219  0.1765 -0.2374
  690MOL0     C93024   9.571   5.920   7.117  0.0897  0.0768 -0.2343
  690MOL0     C93025   9.593   5.941   7.270 -0.2018  0.0376  0.2105
  690MOL0     C93026   9.657   6.077   7.294 -0.3974 -0.0862  0.5073
  690MOL0     C93027   9.801   6.075   7.271 -0.2980 -0.1078 -0.6587
  690MOL0     C93028   9.881   6.185   7.345 -0.2572  0.0534  0.4604
  690MOL0     C93029  10.036   6.169   7.338  0.2517 -0.1299 -0.4260
  690MOL0     C93030  10.089   6.118   7.215  0.3382  0.0323  0.9834
  690MOL0     C93031  10.239   6.110   7.214  0.2640  0.4682 -0.2435
  690MOL0     N93032  10.314   6.234   7.244 -0.6003 -0.6682 -0.1958
  690MOL0     C93033  10.414   6.240   7.339 -0.6987 -0.2928 -0.6348
  690MOL0     C93034  10.460   6.371   7.326 -0.4213  0.8162  0.9993
  690MOL0     C93035  10.576   6.440   7.401  0.4106  0.1533 -0.2411
  690MOL0     C93036  10.691   6.457   7.314 -0.8659  0.6338 -0.1107
  690MOL0     C93037  10.683   6.553   7.199  0.2308 -0.6761 -0.7195
  690MOL0     C93038  10.661   6.693   7.243 -0.0170 -0.3985  0.3761
  690MOL0     O93039  10.755   6.731   7.341  0.0660 -0.1348  0.7173
  690MOL0     C93040  10.783   6.862   7.354  0.3515  0.0744  0.6336
  690MOL0     C93041  10.910   6.900   7.416 -0.4870  0.5629  0.0180
  690MOL0     C93042  10.933   7.035   7.449 -0.0228  0.9390  1.1483
  690MOL0     C93043  10.837   7.130   7.430  0.6216  0.8838 -0.3434
  690MOL0     C93044  10.846   7.272   7.473 -0.0748  0.3122 -0.0139
  690MOL0     O93045  10.745   7.354   7.438  0.0748 -0.7096 -0.1065
  690MOL0     C93046  10.757   7.486   7.469 -0.1062  0.2322  0.3160
  690MOL0     C93047  10.804   7.587   7.377 -0.8238 -0.0868 -0.3753
  690MOL0     C93048  10.785   7.718   7.416 -0.0958 -0.7953 -0.0661
  690MOL0     C93049  10.711   7.758   7.527  0.2423  0.5203  0.4244
  690MOL0     O93050  10.699   7.893   7.548  0.0453 -1.0199 -0.2745
  690MOL0     C93051  10.625   7.934   7.671 -0.4714 -0.3948 -0.3757
  690MOL0     C93052  10.644   8.083   7.683  0.3685  0.0042 -0.2368
  690MOL0     C93053  10.587   8.161   7.560 -1.0476 -0.6630  0.0396
  690MOL0     C93054  10.545   8.312   7.595  0.1493  0.1737 -0.7598
  690MOL0     C93055  10.662   8.398   7.631  0.3176  0.4611 -0.0596
  690MOL0     C93056  10.773   8.418   7.517 -0.0296  0.5579 -0.0962
  690MOL0     C93057  10.886   8.313   7.521  0.2958  0.9807 -0.8401
  690MOL0     C93058  11.009   8.368   7.456 -0.0133 -0.3224 -0.3351
  690MOL0    Cl93059  10.951   8.414   7.289  0.3036 -0.0975 -0.0827
  690MOL0     C93060  10.668   7.652   7.618  0.0165  0.3159 -0.2435
  690MOL0     C93061  10.694   7.524   7.590 -0.6742  0.4840  0.1005
  690MOL0     O93062  10.948   7.319   7.527 -0.2586  0.4237 -0.5522
  690MOL0     C93063  10.713   7.097   7.369  0.8636 -1.4293  0.5946
  690MOL0     C93064  10.690   6.962   7.328  0.6297 -0.0966  0.0843
  690MOL0     N93065  10.376   6.440   7.242  0.0823  0.3583 -0.1672
  690MOL0     N93066  10.299   6.361   7.189  0.3074 -0.3469  0.0204
  690MOL0     C93067   9.375   5.651   6.983  0.7172 -0.0693  0.6860
  690MOL0     C93068   9.338   5.572   6.875 -0.0039  0.0210  0.9421
  690MOL0     C93069   9.309   5.548   6.374 -0.4738 -0.9311 -0.3778
  690MOL0     C93070   9.360   5.477   6.268 -0.2330 -0.4493 -0.3621
  690MOL0     C93071   9.292   5.477   6.146 -0.2270 -0.0711  0.2623
  690MOL0     C93072   9.178   5.540   6.118 -0.6071 -1.4087  0.6373
  690MOL0     O93073   9.114   5.538   5.993 -0.1776  0.3950  0.4898
  690MOL0     C93074   9.166   5.624   5.889 -0.8656  0.0483  0.3074
  690MOL0     C93075   9.064   5.652   5.776  0.1039 -0.4156 -0.2796
  690MOL0     C93076   9.020   5.529   5.703 -0.2936 -0.3633 -0.2792
  690MOL0     C93077   8.953   5.547   5.568  0.2789  0.3778 -0.8633
  690MOL0     C93078   8.880   5.417   5.549 -0.3572  0.3007  0.3307
  690MOL0     C93079   8.831   5.305   5.544  0.5768  0.2588  1.2107
  690MOL0     C93080   9.124   5.606   6.223  1.5547  0.1889 -0.0004
  690MOL0     C93081   9.180   5.613   6.351 -0.3668  0.8003  0.3004
  690MOL0     C93082   9.095   5.664   6.465 -0.7256 -0.7904 -0.1812
  690MOL0     H93083   9.453   5.784   6.634 -1.8369  3.5681  0.9170
  690MOL0     H93084   9.547   5.898   6.843  0.8046 -1.5970 -2.5222
  690MOL0     H93085   9.671   5.906   7.075  1.4977  4.3613  1.1613
  690MOL0     H93086   9.523   6.009   7.074  2.3569  1.5374  0.0473
  690MOL0     H93087   9.642   5.855   7.316  0.4402  0.8711  1.1182
  690MOL0     H93088   9.495   5.945   7.318 -0.7979 -1.1767 -0.8301
  690MOL0     H93089   9.641   6.098   7.400  0.4775  0.3979  0.5570
  690MOL0     H93090   9.608   6.148   7.227 -0.6632 -3.2756 -3.0150
  690MOL0     H93091   9.838   5.978   7.306 -1.9329 -0.0580  1.4114
  690MOL0     H93092   9.823   6.088   7.164 -1.1945 -1.4670 -1.0389
  690MOL0     H93093   9.857   6.273   7.285 -0.4720 -2.2778 -3.2074
  690MOL0     H93094   9.858   6.181   7.451  0.3354  1.0626  0.6394
  690MOL0     H93095  10.083   6.266   7.356  0.1882 -0.2585  0.4901
  690MOL0     H93096  10.067   6.095   7.413  2.7197 -0.1909 -1.3933
  690MOL0     H93097  10.054   6.176   7.129  2.0530 -0.4474 -0.0935
  690MOL0     H93098  10.054   6.015   7.202  1.3143 -0.0669 -1.3243
  690MOL0     H93099  10.266   6.043   7.296 -3.2695 -0.7969  0.0758
  690MOL0     H93100  10.286   6.060   7.129 -0.6771 -0.5395 -0.1985
  690MOL0     H93101  10.437   6.163   7.412 -2.0561 -0.0282  0.1029
  690MOL0     H93102  10.548   6.539   7.439 -1.1300  1.1993 -3.6213
  690MOL0     H93103  10.601   6.367   7.478 -0.7317 -1.5830 -1.4511
  690MOL0     H93104  10.781   6.468   7.376  0.0290 -0.6526 -1.1273
  690MOL0     H93105  10.715   6.361   7.267  1.0686  0.8192  0.4088
  690MOL0     H93106  10.600   6.522   7.135  0.2249  2.6017 -2.5205
  690MOL0     H93107  10.775   6.544   7.141  0.7484 -3.3234  0.3828
  690MOL0     H93108  10.556   6.706   7.273  0.2013  2.7961  0.0907
  690MOL0     H93109  10.672   6.757   7.156  1.9537  3.1583  2.9886
  690MOL0     H93110  10.993   6.831   7.424 -1.9321 -1.2491 -0.1714
  690MOL0     H93111  11.033   7.062   7.483  1.5166 -3.6081  0.9118
  690MOL0     H93112  10.841   7.546   7.284 -0.0073  1.9034 -0.9761
  690MOL0     H93113  10.834   7.795   7.358  0.3844 -1.6112 -0.7757
  690MOL0     H93114  10.521   7.901   7.674 -1.1401  1.5516 -0.8593
  690MOL0     H93115  10.672   7.896   7.762  0.8995 -1.0738 -1.3328
  690MOL0     H93116  10.608   8.128   7.775 -0.4933  0.2088 -0.6677
  690MOL0     H93117  10.753   8.094   7.676  0.0525  3.3465 -1.4357
  690MOL0     H93118  10.664   8.174   7.483 -0.8565  2.6333  0.6325
  690MOL0     H93119  10.497   8.111   7.523  0.0794 -1.7228 -1.3727
  690MOL0     H93120  10.478   8.312   7.681 -0.7634  2.0092 -1.4142
  690MOL0     H93121  10.498   8.345   7.502  1.5812  0.6022 -1.3577
  690MOL0     H93122  10.723   8.358   7.713  0.4142 -1.6844 -1.1215
  690MOL0     H93123  10.615   8.492   7.662 -1.6918 -0.5401  0.0953
  690MOL0     H93124  10.731   8.416   7.416  1.3119 -0.6254 -0.6630
  690MOL0     H93125  10.807   8.521   7.527  1.8922  0.1460 -1.8302
  690MOL0     H93126  10.860   8.219   7.471  0.2283  0.8345 -0.5374
  690MOL0     H93127  10.920   8.293   7.623 -3.7339  1.8836  0.8855
  690MOL0     H93128  11.022   8.464   7.506 -1.1993  0.3248 -1.2104
  690MOL0     H93129  11.101   8.310   7.469  1.2911  2.0344  1.6985
  690MOL0     H93130  10.632   7.686   7.714  3.3688  1.3600  0.8075
  690MOL0     H93131  10.653   7.456   7.665 -0.4534  0.0330 -0.1836
  690MOL0     H93132  10.634   7.171   7.371  3.5732  1.7037  1.0794
  690MOL0     H93133  10.592   6.948   7.284  0.3379  0.5243  0.5265
  690MOL0     H93134   9.356   5.602   7.078  0.3199 -1.4857 -0.1019
  690MOL0     H93135   9.287   5.476   6.874 -0.0526  0.0327 -0.9328
  690MOL0     H93136   9.459   5.435   6.284 -0.6909 -1.4643 -0.0992
  690MOL0     H93137   9.342   5.424   6.066 -1.9744  1.3187 -1.8657
  690MOL0     H93138   9.252   5.574   5.843 -0.1666  1.1297  0.4075
  690MOL0     H93139   9.200   5.715   5.939  0.7476 -0.2156 -0.2614
  690MOL0     H93140   9.107   5.729   5.711 -0.7595 -0.8506 -1.4174
  690MOL0     H93141   8.978   5.699   5.824 -0.3502 -1.5795  0.0748
  690MOL0     H93142   8.949   5.481   5.770 -0.8993  0.2885 -0.4386
  690MOL0     H93143   9.109   5.466   5.691  1.5548  1.9099  0.5397
  690MOL0     H93144   8.883   5.631   5.576  1.2567  1.2108 -0.7535
  690MOL0     H93145   9.018   5.574   5.483 -1.2635  0.8459 -1.9374
  690MOL0     H93146   8.799   5.203   5.543 -1.9428  0.9523 -1.3171
  690MOL0     H93147   9.023   5.646   6.215  0.0606 -2.9203  1.7241
  690MOL0     H93148   8.997   5.703   6.435  0.1137  0.1047 -1.9719
  690MOL0     H93149   9.071   5.583   6.534 -0.7990 -1.5201 -1.0492
  690MOL0     H93150   9.136   5.754   6.511 -1.5324 -1.5414  2.1554
  691MOL0     O93151   6.667   5.090   8.075  0.6558 -0.1444  0.5751
  691MOL0     C93152   6.775   5.095   8.131  0.7284  0.5365  0.5942
  691MOL0     O93153   6.897   5.083   8.071  0.2169 -0.3010 -0.3348
  691MOL0     C93154   6.910   5.087   7.934  0.3678 -0.0041 -0.7180
  691MOL0     C93155   6.855   4.998   7.845  0.0828  0.5818  0.1732
  691MOL0     C93156   6.876   5.011   7.702 -0.8888 -0.1113 -0.3095
  691MOL0     C93157   6.963   5.122   7.663  0.2684 -0.6649 -0.5113
  691MOL0     O93158   7.001   5.154   7.536  0.1296 -0.0266 -0.4639
  691MOL0     C93159   6.961   5.065   7.433  0.9085  0.2911  0.4452
  691MOL0     C93160   7.062   5.070   7.326 -0.3225  0.2556 -0.0653
  691MOL0     C93161   7.192   5.015   7.387 -0.9527  0.0908 -0.1511
  691MOL0     C93162   7.278   4.936   7.286 -0.2408  0.3222  0.5472
  691MOL0     C93163   7.339   5.026   7.175 -0.2722 -0.5327  0.2430
  691MOL0     C93164   7.352   4.950   7.035  0.4900 -0.8691  0.2746
  691MOL0     C93165   7.463   5.011   6.940 -0.3176  0.0091  0.1602
  691MOL0     C93166   7.490   4.922   6.818 -0.2029 -0.7615  0.7562
  691MOL0     N93167   7.573   4.979   6.710 -0.1446  0.2748  0.2004
  691MOL0     C93168   7.550   5.098   6.649  0.6993  0.4983  0.6223
  691MOL0     C93169   7.654   5.106   6.558  0.0622  0.9061 -0.0892
  691MOL0     C93170   7.696   5.225   6.475  0.1164 -1.0786 -0.1683
  691MOL0     C93171   7.787   5.336   6.540  0.2585 -0.0635 -0.2798
  691MOL0     C93172   7.825   5.446   6.446 -0.2475  0.0407 -0.4897
  691MOL0     C93173   7.924   5.543   6.526 -0.0517  0.4270 -0.1442
  691MOL0     O93174   7.952   5.650   6.448 -0.1708 -0.5584  0.1446
  691MOL0     C93175   7.855   5.744   6.422 -0.0786 -0.3418  0.2310
  691MOL0     C93176   7.749   5.780   6.504 -0.4602  0.7884 -0.1160
  691MOL0     C93177   7.651   5.871   6.463  0.3626  0.2327 -0.3117
  691MOL0     C93178   7.661   5.946   6.342  0.2476 -0.8210  0.7082
  691MOL0     C93179   7.552   6.035   6.303 -0.3382 -0.0905  0.1850
  691MOL0     O93180   7.553   6.088   6.172  0.3325 -0.3105 -0.2716
  691MOL0     C93181   7.475   6.196   6.143  0.5844  0.7534 -0.5137
  691MOL0     C93182   7.335   6.177   6.133 -0.6760 -0.4910  1.2810
  691MOL0     C93183   7.256   6.288   6.105 -0.6526  0.5449  0.2972
  691MOL0     C93184   7.312   6.415   6.099 -0.6548  1.2575  0.3124
  691MOL0     O93185   7.234   6.533   6.075  0.6542  0.1617 -0.0980
  691MOL0     C93186   7.091   6.522   6.064  0.7935 -1.2136  0.6750
  691MOL0     C93187   7.042   6.648   5.998 -0.5968  0.4834  0.3852
  691MOL0     C93188   7.076   6.650   5.846  0.0400 -0.7904 -1.3268
  691MOL0     C93189   6.948   6.631   5.755 -0.1813 -0.2293  0.3471
  691MOL0     C93190   6.971   6.627   5.598 -0.3372  0.1792 -0.0938
  691MOL0     C93191   7.060   6.514   5.557  0.4146  0.2897  0.4538
  691MOL0     C93192   7.124   6.549   5.420  0.3118 -0.1538  0.3164
  691MOL0     C93193   7.136   6.414   5.344  0.2125  0.2095  0.0467
  691MOL0    Cl93194   7.195   6.468   5.183 -0.1025 -0.2739 -0.1417
  691MOL0     C93195   7.452   6.433   6.118 -0.8571  0.3214 -0.3821
  691MOL0     C93196   7.535   6.322   6.141  0.6949 -0.1779 -0.1778
  691MOL0     O93197   7.471   6.065   6.385  0.4210  0.6481  0.4978
  691MOL0     C93198   7.767   5.917   6.262 -0.4342  0.0827 -0.7086
  691MOL0     C93199   7.858   5.817   6.301 -0.3981  1.0116 -1.1238
  691MOL0     N93200   7.732   4.990   6.568  0.1567  0.8895  0.7870
  691MOL0     N93201   7.683   4.913   6.656 -0.6046 -0.5729 -0.4919
  691MOL0     C93202   7.016   5.215   7.760  0.0704  0.7048 -0.3758
  691MOL0     C93203   6.994   5.185   7.892  0.1222 -0.2960  0.3718
  691MOL0     C93204   6.773   5.081   8.283 -0.1952 -0.0560  0.8573
  691MOL0     C93205   6.888   5.034   8.343  0.0456 -0.8270 -0.6762
  691MOL0     C93206   6.897   5.019   8.479  0.0207  0.1389 -0.6249
  691MOL0     C93207   6.788   5.045   8.566 -0.1764  0.3885  0.5035
  691MOL0     O93208   6.790   5.031   8.698  0.3351  0.6032 -0.6944
  691MOL0     C93209   6.900   5.002   8.782 -1.2474  0.1763  1.1569
  691MOL0     C93210   6.852   5.017   8.927  0.3115 -0.9270  0.0485
  691MOL0     C93211   6.813   5.165   8.960 -0.3406  0.4824 -0.0506
  691MOL0     C93212   6.736   5.180   9.086 -0.4457  0.4889 -0.6195
  691MOL0     C93213   6.753   5.317   9.133  0.7591 -0.3884 -0.9258
  691MOL0     C93214   6.791   5.430   9.161  0.1314  0.1529 -0.2199
  691MOL0     C93215   6.675   5.094   8.505  0.0438  0.1081  1.4227
  691MOL0     C93216   6.668   5.129   8.364  0.6513 -0.0095 -0.0279
  691MOL0     C93217   6.535   5.194   8.323  0.3313 -0.5679  0.2388
  691MOL0     H93218   6.802   4.914   7.889 -2.8051  2.2156  0.0856
  691MOL0     H93219   6.831   4.943   7.630  2.3522 -1.9589 -0.8355
  691MOL0     H93220   6.961   4.962   7.469  2.1825  0.4849  1.0570
  691MOL0     H93221   6.863   5.099   7.398  1.8534  4.3649  1.2473
  691MOL0     H93222   7.081   5.171   7.289 -0.9927  0.2316 -0.4957
  691MOL0     H93223   7.043   5.008   7.238  2.5714  0.3315 -0.8519
  691MOL0     H93224   7.181   4.937   7.462  0.0864 -0.4788 -0.5826
  691MOL0     H93225   7.259   5.090   7.432 -0.8854 -3.5039  7.1603
  691MOL0     H93226   7.361   4.888   7.340  0.2094  1.2258  0.6671
  691MOL0     H93227   7.214   4.859   7.241 -2.4355  2.5585 -0.3307
  691MOL0     H93228   7.279   5.117   7.162 -0.8311 -0.9224  0.1112
  691MOL0     H93229   7.443   5.044   7.207 -0.4969 -0.1791  0.7893
  691MOL0     H93230   7.379   4.850   7.070 -0.7524 -1.7908 -1.2724
  691MOL0     H93231   7.256   4.954   6.982  0.3251 -0.1874  0.6170
  691MOL0     H93232   7.555   5.030   6.996 -0.0854  0.0665 -0.2411
  691MOL0     H93233   7.426   5.109   6.908  0.8932  0.9363  1.4806
  691MOL0     H93234   7.539   4.828   6.845 -0.4820 -1.1201  0.0322
  691MOL0     H93235   7.393   4.905   6.772  0.6209 -1.8510 -0.6582
  691MOL0     H93236   7.474   5.175   6.654  2.7036  2.5838  0.6876
  691MOL0     H93237   7.749   5.189   6.386 -3.6744 -2.8512 -1.9674
  691MOL0     H93238   7.605   5.274   6.439  1.0471  1.7497  1.0932
  691MOL0     H93239   7.725   5.363   6.626  0.4041 -0.9329  0.1036
  691MOL0     H93240   7.876   5.283   6.575  0.4034  1.0550  1.1304
  691MOL0     H93241   7.733   5.492   6.409 -1.4215 -1.4165  0.4840
  691MOL0     H93242   7.875   5.399   6.361  0.8591 -3.9128  2.0410
  691MOL0     H93243   8.021   5.498   6.547  0.5598  2.5126  1.9992
  691MOL0     H93244   7.873   5.576   6.618  0.2682 -0.0680  0.2127
  691MOL0     H93245   7.745   5.743   6.606 -0.5575  1.0873 -0.0107
  691MOL0     H93246   7.561   5.885   6.523  0.5185 -0.5349  0.1068
  691MOL0     H93247   7.299   6.077   6.157  2.3973 -1.9018  0.5034
  691MOL0     H93248   7.150   6.265   6.104 -1.0783  2.3042  0.6152
  691MOL0     H93249   7.065   6.439   5.998 -1.1144 -2.7389  3.1825
  691MOL0     H93250   7.048   6.509   6.163 -0.3704  0.5883  0.4527
  691MOL0     H93251   6.933   6.652   6.011 -0.3963  0.5339  2.3394
  691MOL0     H93252   7.090   6.734   6.047  4.4032 -1.8101  0.1297
  691MOL0     H93253   7.112   6.750   5.819 -0.1828  0.2166  1.7152
  691MOL0     H93254   7.154   6.576   5.829 -2.5059 -3.4254 -2.2984
  691MOL0     H93255   6.885   6.720   5.765  0.6570  0.5360 -0.8852
  691MOL0     H93256   6.905   6.537   5.791  0.3101 -1.0498 -1.1259
  691MOL0     H93257   7.017   6.722   5.570 -0.9884  0.5170 -0.0509
  691MOL0     H93258   6.875   6.620   5.545 -2.1987  0.0917  3.0335
  691MOL0     H93259   7.138   6.508   5.634 -0.3684  5.8605  2.1500
  691MOL0     H93260   7.004   6.421   5.543  0.3346  0.4310 -0.2179
  691MOL0     H93261   7.221   6.596   5.436 -0.2598  0.9547  0.6604
  691MOL0     H93262   7.065   6.619   5.359  2.2235 -0.7856 -2.4218
  691MOL0     H93263   7.214   6.352   5.390 -1.1994 -2.2006 -0.6457
  691MOL0     H93264   7.048   6.350   5.332  1.0352 -0.6044 -2.2563
  691MOL0     H93265   7.487   6.536   6.113 -0.3897  0.1208 -1.7966
  691MOL0     H93266   7.641   6.334   6.161  0.0603  0.6971  3.3574
  691MOL0     H93267   7.773   5.953   6.160  0.2243 -0.5467 -0.8965
  691MOL0     H93268   7.942   5.797   6.235  0.3979 -1.0934  0.4104
  691MOL0     H93269   7.093   5.283   7.725  0.9588 -1.2498 -2.5593
  691MOL0     H93270   7.048   5.244   7.966 -0.1001 -1.4719  1.5101
  691MOL0     H93271   6.979   5.008   8.289 -0.4426 -4.6190  0.0261
  691MOL0     H93272   6.994   4.979   8.507 -0.8867 -1.8677 -0.2091
  691MOL0     H93273   6.987   5.062   8.752 -0.5152 -1.9006 -1.1731
  691MOL0     H93274   6.951   4.905   8.774  1.8954  1.7891 -0.2414
  691MOL0     H93275   6.924   4.994   9.006  0.8792  0.2387 -0.1212
  691MOL0     H93276   6.766   4.950   8.944  1.0070 -1.0436  4.0187
  691MOL0     H93277   6.742   5.198   8.884 -2.7130 -2.3456  0.7568
  691MOL0     H93278   6.906   5.223   8.960  2.3495 -3.3926  0.7983
  691MOL0     H93279   6.631   5.156   9.068  0.3220 -2.2556 -1.9367
  691MOL0     H93280   6.769   5.118   9.170  2.6724 -1.1850 -2.8662
  691MOL0     H93281   6.827   5.526   9.193  5.0300 -0.9262 -1.7607
  691MOL0     H93282   6.590   5.119   8.568 -0.9321 -0.1808  0.2635
  691MOL0     H93283   6.547   5.234   8.222  0.9775 -0.7310  0.2450
  691MOL0     H93284   6.464   5.114   8.304 -1.5168  1.5645 -2.9588
  691MOL0     H93285   6.499   5.267   8.396  0.6782  1.7640 -1.7963
  692MOL0     O93286   8.218   7.958   5.094  0.5477  0.2551 -1.3710
  692MOL0     C93287   8.269   8.011   5.190  0.2427 -0.0229 -0.1648
  692MOL0     O93288   8.238   8.135   5.224 -0.1049  0.0217 -0.8273
  692MOL0     C93289   8.133   8.215   5.178 -0.2680 -0.4252 -0.1613
  692MOL0     C93290   8.009   8.156   5.139  0.1990  0.8155  0.8069
  692MOL0     C93291   7.904   8.242   5.090  0.1109 -0.6456 -0.8797
  692MOL0     C93292   7.913   8.386   5.098 -0.4322  0.0725 -1.1433
  692MOL0     O93293   7.818   8.477   5.071 -0.2155  1.0482 -0.5075
  692MOL0     C93294   7.704   8.439   4.993  1.1107  0.0123  0.1282
  692MOL0     C93295   7.599   8.547   5.010 -0.4478 -0.0249 -0.7837
  692MOL0     C93296   7.630   8.690   4.965 -0.1381  0.0764  0.7874
  692MOL0     C93297   7.711   8.774   5.073 -0.1568  0.3248  0.1009
  692MOL0     C93298   7.779   8.896   5.019  0.0482  0.0679  0.2294
  692MOL0     C93299   7.861   8.959   5.133  0.1388  0.4308  0.1317
  692MOL0     C93300   7.920   9.088   5.083  0.4862 -0.8715 -0.3963
  692MOL0     C93301   7.960   9.192   5.197  0.5789 -0.0580 -0.1082
  692MOL0     N93302   8.046   9.139   5.306  0.8820 -0.5797  1.1845
  692MOL0     C93303   8.165   9.084   5.293  0.2577 -0.4454  0.7793
  692MOL0     C93304   8.210   9.063   5.414 -0.1505  0.4427  0.7378
  692MOL0     C93305   8.335   9.000   5.455  0.4770 -0.4979 -0.5911
  692MOL0     C93306   8.461   9.084   5.424  0.1089 -0.3206 -0.7313
  692MOL0     C93307   8.442   9.213   5.498 -0.0398 -1.1535 -0.7894
  692MOL0     C93308   8.541   9.325   5.473  0.2884 -0.7250 -0.3013
  692MOL0     O93309   8.553   9.358   5.331 -0.0227  0.1432  0.6165
  692MOL0     C93310   8.441   9.399   5.260  0.0646 -0.1456 -0.8243
  692MOL0     C93311   8.351   9.490   5.312 -0.0820 -0.1591 -0.2169
  692MOL0     C93312   8.235   9.528   5.251 -0.7043  0.6466 -0.6512
  692MOL0     C93313   8.208   9.475   5.128  0.1283 -0.3276  0.5560
  692MOL0     C93314   8.099   9.544   5.051 -0.2440  0.5399 -0.7175
  692MOL0     O93315   8.037   9.656   5.100 -0.1399 -0.8671 -0.2862
  692MOL0     C93316   7.943   9.718   5.026  0.6230  0.0147 -0.1329
  692MOL0     C93317   7.845   9.794   5.099  0.5613  0.2780 -0.5235
  692MOL0     C93318   7.744   9.870   5.037 -0.1932 -0.7478 -0.2952
  692MOL0     C93319   7.738   9.873   4.897  0.3127 -0.7449  0.5329
  692MOL0     O93320   7.644   9.933   4.817 -0.5869  0.1617  0.4601
  692MOL0     C93321   7.515   9.941   4.860 -0.4442 -0.4572 -1.3886
  692MOL0     C93322   7.416   9.982   4.755 -0.0086 -0.2237 -0.3977
  692MOL0     C93323   7.262   9.985   4.799  1.0348  0.6037  0.8389
  692MOL0     C93324   7.177   9.920   4.687  0.2035  0.4621  1.0144
  692MOL0     C93325   7.026   9.889   4.741 -0.0255  0.2480  0.7337
  692MOL0     C93326   6.938  10.005   4.735 -0.1245 -0.0209  0.3348
  692MOL0     C93327   6.789   9.965   4.698  0.2997 -0.6170 -0.1493
  692MOL0     C93328   6.707   9.888   4.805 -0.8497  0.5594  0.2410
  692MOL0    Cl93329   6.558   9.830   4.741 -0.1390  0.1717  0.0030
  692MOL0     C93330   7.835   9.814   4.822  0.7053  0.1469 -0.2849
  692MOL0     C93331   7.933   9.725   4.880 -0.5967 -0.2068  0.1138
  692MOL0     O93332   8.067   9.487   4.947 -0.0552 -0.3050 -0.0365
  692MOL0     C93333   8.286   9.369   5.078  0.1182  0.0226  0.2888
  692MOL0     C93334   8.408   9.336   5.147  0.1548  0.3604 -0.2543
  692MOL0     N93335   8.112   9.111   5.501  0.0729 -0.2223  0.3810
  692MOL0     N93336   8.015   9.161   5.434  0.3150 -0.4835  0.1012
  692MOL0     C93337   8.038   8.436   5.136 -0.9948  0.0589 -1.0723
  692MOL0     C93338   8.148   8.357   5.182 -0.3288 -0.9568  1.2521
  692MOL0     C93339   8.385   7.947   5.258  0.6060  0.0995  0.4883
  692MOL0     C93340   8.454   7.843   5.189  0.0688  0.0475 -0.4789
  692MOL0     C93341   8.572   7.787   5.244  0.1791 -0.6626  0.7264
  692MOL0     C93342   8.622   7.824   5.364  0.3757  0.3680 -0.2165
  692MOL0     O93343   8.731   7.756   5.406  0.2558 -0.5520  0.3416
  692MOL0     C93344   8.731   7.617   5.446  0.6532 -0.0703  0.1641
  692MOL0     C93345   8.877   7.572   5.419 -0.1361  0.2545  0.5765
  692MOL0     C93346   8.975   7.673   5.483  0.3595 -0.2580 -0.2369
  692MOL0     C93347   9.098   7.609   5.544 -1.2538  0.6820  0.2278
  692MOL0     C93348   9.054   7.529   5.658 -0.3326  0.4235 -0.5451
  692MOL0     C93349   8.998   7.461   5.751 -1.1450 -0.2360 -0.6722
  692MOL0     C93350   8.557   7.931   5.435  0.3440 -0.0559  0.6562
  692MOL0     C93351   8.436   7.989   5.385 -0.3712  0.5403  0.7152
  692MOL0     C93352   8.378   8.098   5.467 -0.2234 -0.1882  0.2234
  692MOL0     H93353   7.980   8.052   5.147  2.5585  0.2078  2.5977
  692MOL0     H93354   7.817   8.196   5.044 -2.2227  1.6331  1.0091
  692MOL0     H93355   7.740   8.430   4.890  1.9917 -4.0949  0.6300
  692MOL0     H93356   7.652   8.347   5.021 -1.6831  2.2608  3.1067
  692MOL0     H93357   7.573   8.556   5.116  2.4035 -0.5409  0.0660
  692MOL0     H93358   7.519   8.515   4.944  0.5323 -1.9857 -1.1067
  692MOL0     H93359   7.536   8.738   4.940 -0.4457 -0.3210  1.1620
  692MOL0     H93360   7.686   8.685   4.871  0.1851  0.3270  0.9621
  692MOL0     H93361   7.644   8.797   5.157 -1.1423 -0.8728 -0.3247
  692MOL0     H93362   7.788   8.708   5.116  1.4084  0.4942 -2.2944
  692MOL0     H93363   7.842   8.876   4.931  0.9629 -0.7477  1.0494
  692MOL0     H93364   7.702   8.966   4.986 -1.0017 -1.4852 -0.7924
  692MOL0     H93365   7.799   8.965   5.223 -1.3959 -1.3985 -0.7256
  692MOL0     H93366   7.947   8.899   5.164  0.1142  0.5492  0.4374
  692MOL0     H93367   7.844   9.132   5.019  1.8762  0.2211 -1.3648
  692MOL0     H93368   8.009   9.064   5.024 -0.2630 -1.8068 -1.1902
  692MOL0     H93369   8.008   9.280   5.153  1.4762  0.3591  1.6396
  692MOL0     H93370   7.863   9.217   5.240  0.0460  0.7030 -1.6705
  692MOL0     H93371   8.214   9.057   5.200 -2.3718 -1.0334 -0.5359
  692MOL0     H93372   8.333   8.985   5.563 -0.9258  1.7021 -0.2437
  692MOL0     H93373   8.337   8.910   5.394  1.7805 -0.5947 -0.4223
  692MOL0     H93374   8.553   9.033   5.454 -0.8371 -2.5133 -1.3871
  692MOL0     H93375   8.469   9.097   5.316  1.1537 -0.3194 -0.6601
  692MOL0     H93376   8.431   9.201   5.606  0.0915 -4.0017 -1.0188
  692MOL0     H93377   8.345   9.258   5.474 -0.9963 -0.2250  3.9186
  692MOL0     H93378   8.646   9.302   5.494  1.2543 -0.9048 -4.5136
  692MOL0     H93379   8.514   9.418   5.524 -1.1041 -1.2557 -0.0296
  692MOL0     H93380   8.372   9.541   5.406  0.6355 -2.2001  0.7805
  692MOL0     H93381   8.182   9.615   5.288 -1.1921  1.2089 -2.5802
  692MOL0     H93382   7.855   9.801   5.207 -1.3778  0.6700 -0.3220
  692MOL0     H93383   7.677   9.930   5.098 -0.5346  1.1493 -2.3970
  692MOL0     H93384   7.498   9.851   4.919  2.4021  1.2536  2.5022
  692MOL0     H93385   7.506  10.018   4.937 -0.1954  0.1237 -1.9248
  692MOL0     H93386   7.443  10.079   4.713 -0.8357 -1.0803 -3.1422
  692MOL0     H93387   7.427   9.912   4.672  0.5779 -0.8171  0.1621
  692MOL0     H93388   7.244   9.916   4.882 -1.5154 -0.2133 -0.2988
  692MOL0     H93389   7.216  10.082   4.817  0.4092  0.1787  1.5801
  692MOL0     H93390   7.216   9.822   4.658  2.0067  1.4228  0.0079
  692MOL0     H93391   7.179   9.992   4.605 -1.2281 -0.1285  0.4244
  692MOL0     H93392   7.032   9.829   4.832  0.7302 -2.3069 -0.8972
  692MOL0     H93393   6.982   9.819   4.669  3.2445  0.6920 -1.9505
  692MOL0     H93394   6.937  10.068   4.824 -1.5326 -0.3368  0.5630
  692MOL0     H93395   6.967  10.072   4.654 -1.5238  0.2242  0.0211
  692MOL0     H93396   6.791   9.905   4.607 -3.0887  0.3611 -1.0171
  692MOL0     H93397   6.737  10.058   4.673 -2.0547 -1.8568 -0.1912
  692MOL0     H93398   6.775   9.814   4.849 -0.2904  1.7817  1.5226
  692MOL0     H93399   6.682   9.952   4.891  1.2554 -1.0768  2.2117
  692MOL0     H93400   7.846   9.832   4.716  3.8122 -0.8793 -0.2557
  692MOL0     H93401   8.010   9.691   4.812  0.0121  2.4621 -0.6766
  692MOL0     H93402   8.246   9.320   4.989 -1.0347 -0.1831  0.9056
  692MOL0     H93403   8.476   9.254   5.126 -0.2979 -1.2744  3.7621
  692MOL0     H93404   8.057   8.543   5.132 -0.4086  0.4050  4.3739
  692MOL0     H93405   8.239   8.403   5.217 -0.2451 -0.0437 -0.1022
  692MOL0     H93406   8.420   7.812   5.091  1.1649 -0.1844 -0.8052
  692MOL0     H93407   8.609   7.710   5.177 -2.1757  0.2399 -1.8033
  692MOL0     H93408   8.655   7.559   5.393 -0.1029 -1.7510  2.8753
  692MOL0     H93409   8.722   7.613   5.555  2.1808 -0.1248  0.3147
  692MOL0     H93410   8.895   7.582   5.312  1.1840  0.5487  0.8056
  692MOL0     H93411   8.892   7.468   5.449 -5.0548 -1.5744 -2.3025
  692MOL0     H93412   8.931   7.742   5.556 -1.2068  2.4639 -3.4711
  692MOL0     H93413   9.014   7.733   5.400  0.6353  2.0442  1.4333
  692MOL0     H93414   9.149   7.558   5.462 -1.9774  1.3280 -0.6435
  692MOL0     H93415   9.161   7.688   5.584 -0.1416 -1.4961  3.1159
  692MOL0     H93416   8.962   7.395   5.826  0.6527 -2.5828 -1.7367
  692MOL0     H93417   8.605   7.967   5.525  0.0594  0.3172  0.6590
  692MOL0     H93418   8.268   8.101   5.466 -0.3227  4.7721  0.4563
  692MOL0     H93419   8.408   8.073   5.569 -2.0974 -0.9774  0.6387
  692MOL0     H93420   8.409   8.200   5.445 -1.5623  0.9160  2.8552
  693MOL0     O93421   0.225  10.367   1.262 -0.1205  0.3229 -0.2141
  693MOL0     C93422   0.263  10.306   1.365  0.3624 -0.5476  0.2773
  693MOL0     O93423   0.342  10.357   1.467 -0.2306  0.8290 -0.1502
  693MOL0     C93424   0.344  10.492   1.476 -0.7517 -0.0306 -0.0015
  693MOL0     C93425   0.268  10.558   1.579 -0.3925  0.4942  0.0956
  693MOL0     C93426   0.270  10.697   1.592 -0.2161 -0.2987  0.3961
  693MOL0     C93427   0.348  10.778   1.506  0.2234 -0.7152 -0.0547
  693MOL0     O93428   0.347  10.915   1.532  0.3259 -0.8232 -0.0499
  693MOL0     C93429   0.430  11.001   1.456 -0.0741  0.3223  0.4589
  693MOL0     C93430   0.370  11.139   1.489  0.4528 -0.8503  0.5623
  693MOL0     C93431   0.470  11.252   1.452  0.2367 -0.1816 -0.5042
  693MOL0     C93432   0.584  11.248   1.555  0.1542 -0.3297  0.1687
  693MOL0     C93433   0.626  11.393   1.613 -0.6018 -0.1933 -0.4026
  693MOL0     C93434   0.736  11.363   1.715 -0.2400 -0.6211 -0.6553
  693MOL0     C93435   0.777  11.492   1.784 -1.1454 -0.6840 -0.0847
  693MOL0     C93436   0.863  11.463   1.904 -0.1167  0.8487 -0.9398
  693MOL0     N93437   0.795  11.402   2.023  0.0991 -1.0846 -0.2573
  693MOL0     C93438   0.723  11.475   2.123 -0.6423 -0.6045  0.9780
  693MOL0     C93439   0.677  11.374   2.200  0.5902  0.2415  0.3084
  693MOL0     C93440   0.591  11.390   2.333 -0.0384 -1.1332 -0.2934
  693MOL0     C93441   0.503  11.269   2.373 -0.1903  0.3957 -0.3577
  693MOL0     C93442   0.374  11.271   2.295 -0.0361  0.8144 -0.1912
  693MOL0     C93443   0.286  11.140   2.302 -0.9412 -0.1884  0.4418
  693MOL0     O93444   0.228  11.143   2.437  0.3228 -0.6062 -0.1544
  693MOL0     C93445   0.132  11.049   2.468  0.0882  0.5924  0.0631
  693MOL0     C93446   0.066  11.064   2.588 -0.7009  0.0622 -0.4323
  693MOL0     C93447  -0.050  10.993   2.615 -0.5295 -0.1107  0.5651
  693MOL0     C93448  -0.092  10.893   2.514 -0.3907 -0.6320  0.3858
  693MOL0     C93449  -0.196  10.801   2.552  0.9102  0.1793 -0.4830
  693MOL0     O93450  -0.216  10.684   2.478 -0.2893  0.2025  0.7382
  693MOL0     C93451  -0.297  10.571   2.504  0.2548  0.4062  0.1487
  693MOL0     C93452  -0.278  10.468   2.407 -1.0913  0.1060  0.2896
  693MOL0     C93453  -0.342  10.340   2.424  0.1901 -0.9581 -0.0510
  693MOL0     C93454  -0.422  10.318   2.537  0.3630  0.1574  0.2654
  693MOL0     O93455  -0.465  10.193   2.586 -0.3071 -1.3316  0.1405
  693MOL0     C93456  -0.375  10.086   2.545  0.2909 -0.0976 -0.2236
  693MOL0     C93457  -0.412   9.949   2.603  0.0700 -0.6279  0.0334
  693MOL0     C93458  -0.566   9.920   2.623 -0.2791 -1.1219  0.0109
  693MOL0     C93459  -0.593   9.781   2.678 -0.2818 -0.9131  0.2161
  693MOL0     C93460  -0.583   9.672   2.566  0.0547  0.3154 -0.2523
  693MOL0     C93461  -0.605   9.528   2.610  0.8178  0.1826 -0.4540
  693MOL0     C93462  -0.743   9.502   2.672  0.5197 -0.5473 -1.1207
  693MOL0     C93463  -0.845   9.516   2.571  0.6750 -0.3578  1.0906
  693MOL0    Cl93464  -0.848   9.375   2.456  0.0815  0.1030  0.4400
  693MOL0     C93465  -0.457  10.421   2.633 -0.5967  0.4746 -0.0786
  693MOL0     C93466  -0.392  10.547   2.609  0.4695 -0.0554  0.3261
  693MOL0     O93467  -0.274  10.838   2.634 -0.1832 -0.0349 -0.6500
  693MOL0     C93468  -0.022  10.878   2.393 -0.1764 -0.1719  0.2068
  693MOL0     C93469   0.087  10.951   2.374 -0.5012 -0.0432  0.1462
  693MOL0     N93470   0.722  11.254   2.148 -0.4185 -0.7664 -0.1668
  693MOL0     N93471   0.793  11.272   2.040  0.4436  0.4352 -0.5049
  693MOL0     C93472   0.417  10.714   1.405  0.3835  0.6816  0.1982
  693MOL0     C93473   0.423  10.577   1.395 -0.0191  0.4693  0.4678
  693MOL0     C93474   0.181  10.182   1.389 -0.1734 -0.2912  0.4508
  693MOL0     C93475   0.132  10.155   1.514 -0.2911  0.1102  0.6020
  693MOL0     C93476   0.062  10.039   1.544 -0.6438  0.0026  0.2397
  693MOL0     C93477   0.028   9.947   1.447  0.6955 -0.3580 -0.1612
  693MOL0     O93478  -0.039   9.830   1.482 -0.5449 -0.5586  0.0054
  693MOL0     C93479  -0.114   9.755   1.386 -0.1052 -0.4933  0.4125
  693MOL0     C93480  -0.215   9.856   1.321 -0.6628  0.2244  0.2112
  693MOL0     C93481  -0.309   9.935   1.414  0.3859 -0.9715 -0.1898
  693MOL0     C93482  -0.397  10.033   1.332 -0.0510 -0.5242  0.2783
  693MOL0     C93483  -0.472  10.107   1.429 -0.5369 -0.3238 -0.1209
  693MOL0     C93484  -0.534  10.182   1.499  0.4131  1.3054  1.4214
  693MOL0     C93485   0.083   9.966   1.328  0.6529  0.4660  0.4677
  693MOL0     C93486   0.158  10.076   1.296 -0.1611  0.9300 -0.7421
  693MOL0     C93487   0.196  10.095   1.160 -0.4614 -0.0378  1.5662
  693MOL0     H93488   0.209  10.500   1.650  0.3628 -0.8488 -0.3354
  693MOL0     H93489   0.217  10.731   1.680 -0.6859  2.2732 -0.7761
  693MOL0     H93490   0.534  10.995   1.490  0.5675 -0.6505 -1.5255
  693MOL0     H93491   0.422  10.985   1.348 -0.3090 -0.4774  0.5835
  693MOL0     H93492   0.325  11.158   1.587 -3.7512 -0.4569 -1.1932
  693MOL0     H93493   0.284  11.141   1.420 -0.0151 -0.7798  1.1396
  693MOL0     H93494   0.415  11.347   1.453 -0.1406 -0.4042  0.2764
  693MOL0     H93495   0.525  11.229   1.360  0.4100  0.5550 -0.5976
  693MOL0     H93496   0.573  11.187   1.645  0.8272  0.0885  0.5434
  693MOL0     H93497   0.678  11.224   1.505  0.4781  2.6302 -0.8789
  693MOL0     H93498   0.655  11.458   1.530 -0.0878 -3.8545 -3.4148
  693MOL0     H93499   0.538  11.431   1.666  0.4126 -2.1024  2.9313
  693MOL0     H93500   0.682  11.290   1.776 -1.7991  0.7644 -0.2916
  693MOL0     H93501   0.824  11.314   1.673  0.8530  0.5582  0.1514
  693MOL0     H93502   0.694  11.543   1.835  1.2874  3.5659  0.0067
  693MOL0     H93503   0.832  11.555   1.715 -0.5061  1.1199  1.9758
  693MOL0     H93504   0.954  11.408   1.880  1.1111  1.7164  1.4183
  693MOL0     H93505   0.895  11.562   1.937 -1.7875  0.9779  0.4358
  693MOL0     H93506   0.712  11.583   2.124  3.3653 -0.0094 -0.4245
  693MOL0     H93507   0.657  11.431   2.410  0.8779 -0.4386 -1.4205
  693MOL0     H93508   0.517  11.470   2.323 -1.0967 -1.3272  3.9518
  693MOL0     H93509   0.562  11.178   2.366  0.0552  0.5349 -0.1134
  693MOL0     H93510   0.480  11.282   2.479  2.7991 -1.0414  0.5570
  693MOL0     H93511   0.410  11.289   2.193  1.2751  3.4132  0.6355
  693MOL0     H93512   0.324  11.362   2.328  1.0799  0.3068  3.3225
  693MOL0     H93513   0.347  11.052   2.277 -0.1187  1.0073 -2.1786
  693MOL0     H93514   0.215  11.161   2.221  0.1704  2.7668  0.1197
  693MOL0     H93515   0.074  11.149   2.657 -0.9155 -2.2688  2.6929
  693MOL0     H93516  -0.094  11.007   2.713  0.9035  0.7132  1.1137
  693MOL0     H93517  -0.216  10.481   2.319  0.3740  0.9607  1.4206
  693MOL0     H93518  -0.308  10.263   2.355 -0.2716  0.8353 -2.4018
  693MOL0     H93519  -0.380  10.082   2.436 -1.9906 -4.3643 -0.1467
  693MOL0     H93520  -0.278  10.107   2.591  0.7355  0.4205 -1.3546
  693MOL0     H93521  -0.363   9.877   2.538  1.9277  2.4595 -2.2921
  693MOL0     H93522  -0.377   9.940   2.706 -0.9778  1.8083  0.6969
  693MOL0     H93523  -0.593   9.992   2.700  0.5576 -0.2987 -0.4504
  693MOL0     H93524  -0.617   9.942   2.529 -2.4428  2.7228  1.8332
  693MOL0     H93525  -0.693   9.763   2.720 -0.3788 -2.3168 -0.5496
  693MOL0     H93526  -0.516   9.763   2.754 -1.4966 -3.5390  0.9650
  693MOL0     H93527  -0.480   9.671   2.528  0.0933 -1.8469 -0.1895
  693MOL0     H93528  -0.643   9.693   2.477  1.3316  5.2666 -0.2790
  693MOL0     H93529  -0.591   9.457   2.528 -0.7187  0.2982 -0.8428
  693MOL0     H93530  -0.532   9.505   2.688  1.0500  0.2142 -0.6618
  693MOL0     H93531  -0.763   9.569   2.756  1.3560  0.5489 -1.7793
  693MOL0     H93532  -0.752   9.400   2.712 -2.1335  0.0657  0.0930
  693MOL0     H93533  -0.942   9.499   2.619 -0.1865 -5.3122 -1.6373
  693MOL0     H93534  -0.843   9.605   2.508  1.6169 -1.5543 -0.6852
  693MOL0     H93535  -0.523  10.404   2.717 -1.3448  1.0918 -0.5327
  693MOL0     H93536  -0.402  10.625   2.684  0.5281 -0.1512  0.4335
  693MOL0     H93537  -0.046  10.805   2.316  1.6726 -0.9479  0.3331
  693MOL0     H93538   0.137  10.939   2.278 -0.2300  1.8725  0.0104
  693MOL0     H93539   0.452  10.765   1.316 -2.0306 -1.0089 -1.8791
  693MOL0     H93540   0.473  10.531   1.311 -2.7223  0.4342 -1.2696
  693MOL0     H93541   0.160  10.220   1.596 -0.1273 -0.3112  0.8827
  693MOL0     H93542   0.019  10.025   1.643  1.3951  1.1044  1.3433
  693MOL0     H93543  -0.174   9.676   1.431 -0.9048  1.1330  2.3280
  693MOL0     H93544  -0.041   9.720   1.312 -0.5077  3.3250 -2.0879
  693MOL0     H93545  -0.279   9.789   1.262  1.0997  0.4982 -2.1841
  693MOL0     H93546  -0.164   9.921   1.249  0.2617 -0.0991  0.5628
  693MOL0     H93547  -0.250   9.990   1.488  0.8906 -1.9097  0.1270
  693MOL0     H93548  -0.378   9.867   1.465  1.6124 -1.3506  1.0223
  693MOL0     H93549  -0.330  10.103   1.281 -0.4733 -0.2518  0.0903
  693MOL0     H93550  -0.468   9.975   1.272 -1.5415 -1.3917  2.7436
  693MOL0     H93551  -0.601  10.243   1.556 -0.6186  1.4593  0.0969
  693MOL0     H93552   0.070   9.888   1.253  0.7452 -1.1753  2.1106
  693MOL0     H93553   0.293  10.146   1.156  1.0099 -2.6879 -2.8055
  693MOL0     H93554   0.217   9.998   1.114 -1.9381 -0.1753  1.1401
  693MOL0     H93555   0.123  10.151   1.101  0.6986 -0.4097 -0.3247
  694MOL0     O93556   5.990   5.454   7.632 -0.2034  0.5492  0.0571
  694MOL0     C93557   5.934   5.458   7.517  0.6437  0.9221 -0.3264
  694MOL0     O93558   5.870   5.358   7.452 -0.0982  0.0909  0.4686
  694MOL0     C93559   5.864   5.233   7.506 -1.1931  0.1210  0.1015
  694MOL0     C93560   5.746   5.178   7.560  0.0957 -0.3437 -0.5115
  694MOL0     C93561   5.754   5.047   7.613 -0.5396  0.2987 -0.4650
  694MOL0     C93562   5.874   4.988   7.618  0.0692 -0.1094 -0.1695
  694MOL0     O93563   5.888   4.862   7.675  0.2327  0.0272 -1.0417
  694MOL0     C93564   5.789   4.821   7.772  0.5332 -0.5180  0.0210
  694MOL0     C93565   5.819   4.680   7.825 -0.2252 -0.2611  0.8905
  694MOL0     C93566   5.945   4.689   7.924 -0.2202  0.2896 -0.4532
  694MOL0     C93567   5.904   4.699   8.066 -1.0416  0.5459 -0.5780
  694MOL0     C93568   6.022   4.753   8.145  0.3558  0.3859  0.4383
  694MOL0     C93569   6.007   4.736   8.295  1.1651 -0.1319 -0.0064
  694MOL0     C93570   6.088   4.841   8.373  0.5803  1.1053 -0.2294
  694MOL0     C93571   6.044   4.977   8.352  0.3577  0.9460 -0.0764
  694MOL0     N93572   6.108   5.071   8.437  0.1688  0.0760 -0.5622
  694MOL0     C93573   6.096   5.202   8.424 -0.1865 -0.1643 -0.3031
  694MOL0     C93574   6.186   5.252   8.515 -0.1903 -0.0454 -0.8910
  694MOL0     C93575   6.204   5.408   8.529 -1.1125  0.7491 -0.6775
  694MOL0     C93576   6.201   5.442   8.674 -0.9799 -0.3056 -0.2609
  694MOL0     C93577   6.072   5.405   8.754  0.1111  0.2683 -0.1498
  694MOL0     C93578   6.080   5.398   8.909 -0.5193 -0.2130 -0.1725
  694MOL0     O93579   6.082   5.535   8.958  0.8152 -0.1937 -0.5941
  694MOL0     C93580   6.201   5.588   8.993 -0.3471 -0.3303 -0.7328
  694MOL0     C93581   6.335   5.535   8.985 -0.4062 -0.1605  0.2230
  694MOL0     C93582   6.442   5.607   9.029  0.0533 -0.0150 -0.1706
  694MOL0     C93583   6.417   5.734   9.088 -0.4112  0.3049  0.8587
  694MOL0     C93584   6.533   5.831   9.110 -0.0467  0.2630  0.7887
  694MOL0     O93585   6.645   5.816   9.039 -0.0540  0.4732  0.7893
  694MOL0     C93586   6.768   5.841   9.091 -0.3418  0.0042  0.3594
  694MOL0     C93587   6.807   5.833   9.225 -0.2863 -0.8766 -0.1425
  694MOL0     C93588   6.937   5.861   9.267  0.1412  0.0726  0.0304
  694MOL0     C93589   7.029   5.908   9.177  0.6518 -0.8800  0.7177
  694MOL0     O93590   7.162   5.937   9.219 -0.2728  0.2926  0.1667
  694MOL0     C93591   7.220   6.056   9.165 -0.1547 -0.3426  0.9157
  694MOL0     C93592   7.179   6.181   9.237  0.1453  0.0066  0.0208
  694MOL0     C93593   7.270   6.203   9.354 -0.8978  0.7589 -0.1364
  694MOL0     C93594   7.217   6.322   9.436 -0.9165 -0.2543  0.1214
  694MOL0     C93595   7.238   6.314   9.589 -0.3481  0.8893  0.5114
  694MOL0     C93596   7.187   6.443   9.658 -0.8148  0.2257  0.5605
  694MOL0     C93597   7.240   6.449   9.804 -0.3743 -0.1674  0.5083
  694MOL0     C93598   7.162   6.560   9.884  0.7821 -0.5558  0.3159
  694MOL0    Cl93599   6.977   6.536   9.884 -0.3838  0.0698 -0.4899
  694MOL0     C93600   6.988   5.920   9.046 -0.3162 -0.5479  0.3279
  694MOL0     C93601   6.865   5.880   9.000 -0.0166  1.5749  0.9884
  694MOL0     O93602   6.516   5.924   9.191 -0.2019  0.1814 -0.3025
  694MOL0     C93603   6.287   5.776   9.106  0.1357  0.1532 -0.4910
  694MOL0     C93604   6.181   5.709   9.057  0.9048  0.2502 -0.4772
  694MOL0     N93605   6.237   5.145   8.594 -0.7498  0.0487 -1.0012
  694MOL0     N93606   6.182   5.040   8.548 -0.4268  0.5481 -0.5384
  694MOL0     C93607   5.994   5.043   7.558  1.0813 -0.2240 -0.5988
  694MOL0     C93608   5.988   5.163   7.507 -0.3421  0.2197  0.6822
  694MOL0     C93609   5.907   5.586   7.448  0.2733 -0.9991  0.2631
  694MOL0     C93610   5.796   5.606   7.355 -0.2913  0.8662  0.2267
  694MOL0     C93611   5.768   5.738   7.327  1.0181  0.0637 -0.0976
  694MOL0     C93612   5.854   5.842   7.353 -1.4934  0.6334  0.5474
  694MOL0     O93613   5.822   5.975   7.324  0.1540  0.1085  0.3707
  694MOL0     C93614   5.722   6.034   7.412 -0.0219  1.0815 -0.7363
  694MOL0     C93615   5.624   6.134   7.346 -0.1897 -1.1586  0.4223
  694MOL0     C93616   5.712   6.253   7.299  0.0106 -0.4334  0.5931
  694MOL0     C93617   5.633   6.363   7.258 -0.0173 -0.6002 -0.3481
  694MOL0     C93618   5.570   6.417   7.380 -0.3627 -0.5207 -0.5002
  694MOL0     C93619   5.507   6.447   7.481  0.4623 -0.3624  0.0208
  694MOL0     C93620   5.968   5.811   7.424  0.9680  0.6492  0.4393
  694MOL0     C93621   5.992   5.692   7.477 -0.5931  0.0895 -0.2293
  694MOL0     C93622   6.129   5.690   7.548 -0.2087 -0.1225  0.2975
  694MOL0     H93623   5.656   5.238   7.553 -1.1953 -1.2265  4.2691
  694MOL0     H93624   5.664   4.990   7.633  1.0276 -1.7036  1.2878
  694MOL0     H93625   5.786   4.884   7.862 -0.9477 -0.8642  0.2385
  694MOL0     H93626   5.691   4.814   7.725 -0.0979  2.7685  0.6141
  694MOL0     H93627   5.840   4.621   7.735  1.2699  1.5070  0.0180
  694MOL0     H93628   5.729   4.633   7.867  1.2696 -1.9155  2.4462
  694MOL0     H93629   5.993   4.784   7.902  0.9034 -0.1519  0.0205
  694MOL0     H93630   6.015   4.606   7.908 -1.6093 -1.6244  2.5223
  694MOL0     H93631   5.827   4.775   8.083 -1.4557 -0.0941  0.4865
  694MOL0     H93632   5.868   4.610   8.118  2.0285  0.2148  1.2205
  694MOL0     H93633   6.116   4.701   8.127  1.5069  1.8809  1.8248
  694MOL0     H93634   6.015   4.860   8.122  1.4687 -0.2156 -3.3469
  694MOL0     H93635   5.902   4.732   8.328 -0.2625  0.2343 -3.9860
  694MOL0     H93636   6.056   4.643   8.323  1.8197 -0.0731 -0.9226
  694MOL0     H93637   6.190   4.843   8.333  0.9515  0.2032  0.6211
  694MOL0     H93638   6.090   4.817   8.480  0.9405  2.5851  0.1298
  694MOL0     H93639   6.071   5.017   8.254 -0.2662 -0.2969 -0.7795
  694MOL0     H93640   5.935   4.986   8.357  0.2934  0.9257 -1.1893
  694MOL0     H93641   6.032   5.263   8.361 -1.0422  0.1715  0.8629
  694MOL0     H93642   6.304   5.432   8.492 -0.4850  0.1192  0.5469
  694MOL0     H93643   6.137   5.475   8.474  0.3039  0.2523 -3.1355
  694MOL0     H93644   6.279   5.390   8.730  0.3031 -1.1607 -2.7130
  694MOL0     H93645   6.215   5.550   8.690  2.2164 -0.5974 -0.4690
  694MOL0     H93646   6.057   5.296   8.753 -0.3100  0.2957  1.0875
  694MOL0     H93647   5.985   5.469   8.734  0.2652  0.7208  0.6101
  694MOL0     H93648   6.176   5.351   8.929  0.5984  1.7707 -0.5907
  694MOL0     H93649   6.001   5.341   8.959 -0.1518 -0.2586  0.3693
  694MOL0     H93650   6.351   5.443   8.931 -0.9220  0.4869 -1.0747
  694MOL0     H93651   6.543   5.575   9.004  0.2643 -1.2010  2.0176
  694MOL0     H93652   6.726   5.817   9.295 -0.3262 -0.7317 -0.1542
  694MOL0     H93653   6.981   5.846   9.365  0.2358  1.3577  0.1957
  694MOL0     H93654   7.330   6.050   9.162 -0.0654 -0.4721 -4.0058
  694MOL0     H93655   7.206   6.048   9.056 -0.5864 -2.9726  1.0883
  694MOL0     H93656   7.188   6.272   9.178 -0.6700  0.5002  0.6357
  694MOL0     H93657   7.074   6.177   9.266  0.0471 -0.8117 -0.4210
  694MOL0     H93658   7.286   6.109   9.408 -1.9046  0.4030 -0.4438
  694MOL0     H93659   7.371   6.233   9.323 -0.2962 -0.8337  0.1639
  694MOL0     H93660   7.108   6.320   9.425 -0.8718 -0.4681 -0.2914
  694MOL0     H93661   7.276   6.408   9.405  1.8595 -2.0586  0.0609
  694MOL0     H93662   7.344   6.293   9.606 -1.1225 -3.2029  1.2564
  694MOL0     H93663   7.184   6.224   9.619  3.4087 -1.4786  0.8842
  694MOL0     H93664   7.222   6.531   9.603  1.2016 -2.0840 -2.1420
  694MOL0     H93665   7.077   6.443   9.651 -0.7579  0.1210 -0.6413
  694MOL0     H93666   7.348   6.465   9.806 -0.1370 -1.6321  0.2810
  694MOL0     H93667   7.219   6.358   9.860 -1.4032 -1.0194 -1.1895
  694MOL0     H93668   7.201   6.581   9.984 -1.8519  2.3187  0.8657
  694MOL0     H93669   7.186   6.654   9.833  2.1158  0.5138  2.7550
  694MOL0     H93670   7.055   5.957   8.969 -2.8088  3.2503 -0.3312
  694MOL0     H93671   6.841   5.884   8.895 -1.3496  0.7228  1.2443
  694MOL0     H93672   6.277   5.875   9.149  0.3201  1.6420 -3.5963
  694MOL0     H93673   6.080   5.744   9.075  0.5356  0.0216 -2.0065
  694MOL0     H93674   6.087   4.988   7.560 -0.0140 -2.1294  0.2282
  694MOL0     H93675   6.071   5.212   7.458  1.2132  0.0121  2.9262
  694MOL0     H93676   5.736   5.518   7.334  2.2083 -1.4028  1.7931
  694MOL0     H93677   5.680   5.757   7.266  0.5022 -0.2481  0.5361
  694MOL0     H93678   5.767   6.086   7.497 -4.2694  1.1536  1.7518
  694MOL0     H93679   5.665   5.950   7.453 -0.0872 -0.3375 -3.5355
  694MOL0     H93680   5.543   6.162   7.413  0.9632  4.5592 -0.0777
  694MOL0     H93681   5.588   6.081   7.257  1.1445 -0.6043 -0.4792
  694MOL0     H93682   5.765   6.211   7.214  1.3645  1.6634  0.3173
  694MOL0     H93683   5.783   6.288   7.375 -0.7772 -0.3335  1.3103
  694MOL0     H93684   5.711   6.423   7.211  2.0596 -3.2653 -0.5630
  694MOL0     H93685   5.559   6.323   7.188  0.4086  0.2450 -1.3157
  694MOL0     H93686   5.441   6.470   7.562 -0.1680  0.3317 -0.6786
  694MOL0     H93687   6.040   5.892   7.418 -1.8987  3.3001 -2.5134
  694MOL0     H93688   6.186   5.599   7.529  0.4557  0.8341 -3.0528
  694MOL0     H93689   6.194   5.772   7.514  0.2201  0.2387  1.9040
  694MOL0     H93690   6.112   5.699   7.656 -2.6963 -0.0070 -0.0464
  695MOL0     O93691   5.319   1.936   4.616 -0.8542 -0.0031  0.6377
  695MOL0     C93692   5.333   2.056   4.621 -0.9093  0.1388 -0.7158
  695MOL0     O93693   5.429   2.124   4.555 -0.1353 -0.2510  0.8413
  695MOL0     C93694   5.504   2.059   4.456  0.3101 -0.3306  0.5828
  695MOL0     C93695   5.643   2.085   4.446  0.2430 -0.5198  0.0128
  695MOL0     C93696   5.727   2.016   4.353 -0.6481  1.0675  0.2956
  695MOL0     C93697   5.671   1.919   4.269 -0.0181 -0.9829  0.0566
  695MOL0     O93698   5.735   1.853   4.174  0.1296  0.5603 -0.0318
  695MOL0     C93699   5.876   1.832   4.156 -0.4304 -0.1275 -0.5643
  695MOL0     C93700   5.910   1.717   4.065 -0.4374  1.2624 -0.3207
  695MOL0     C93701   5.918   1.757   3.915 -0.3795  0.0600 -0.1391
  695MOL0     C93702   5.938   1.633   3.831  1.0243  0.3673 -0.0530
  695MOL0     C93703   5.917   1.663   3.679 -0.1329  0.6289 -1.1197
  695MOL0     C93704   5.926   1.538   3.583 -0.4385 -0.0829  0.2242
  695MOL0     C93705   6.012   1.427   3.619 -0.1369 -0.5667 -0.4388
  695MOL0     C93706   5.985   1.309   3.518  0.0684  0.0423 -0.7933
  695MOL0     N93707   6.031   1.180   3.580  0.3024 -0.7497 -0.6923
  695MOL0     C93708   6.149   1.169   3.652  0.1842 -1.4626  0.4275
  695MOL0     C93709   6.167   1.034   3.676 -0.5290  0.4163  0.0496
  695MOL0     C93710   6.267   0.963   3.766 -0.1726 -0.0466  0.6001
  695MOL0     C93711   6.410   1.009   3.740  0.4566 -0.0215  0.1683
  695MOL0     C93712   6.512   0.960   3.840 -0.0619  0.6875 -0.3982
  695MOL0     C93713   6.485   1.013   3.991  0.5696  1.0383 -0.1058
  695MOL0     O93714   6.586   1.112   4.011 -0.6778 -0.2383 -0.1561
  695MOL0     C93715   6.588   1.214   4.104  0.1625 -0.2176  1.6478
  695MOL0     C93716   6.482   1.250   4.190  0.0112 -0.3416 -0.6192
  695MOL0     C93717   6.487   1.363   4.275 -0.2402  0.2373 -0.0441
  695MOL0     C93718   6.609   1.437   4.292  0.2555  0.2894 -0.0096
  695MOL0     C93719   6.632   1.538   4.397 -1.2101  0.0497  0.3074
  695MOL0     O93720   6.754   1.618   4.395  0.4502  0.1331  0.5710
  695MOL0     C93721   6.732   1.744   4.447 -0.0678  0.5715 -0.5320
  695MOL0     C93722   6.738   1.775   4.586  0.0722 -0.2659  0.8561
  695MOL0     C93723   6.727   1.904   4.631  0.2435  0.3964 -0.2880
  695MOL0     C93724   6.699   2.014   4.549 -0.1150 -0.0847 -0.6740
  695MOL0     O93725   6.678   2.146   4.590 -0.0253 -0.9762  0.2806
  695MOL0     C93726   6.733   2.190   4.707 -0.6823 -0.3295 -0.8418
  695MOL0     C93727   6.631   2.196   4.818 -0.0215  0.0502  0.1357
  695MOL0     C93728   6.695   2.189   4.955 -0.1227 -0.8279  0.4746
  695MOL0     C93729   6.592   2.183   5.066  0.3009  0.1584  0.7117
  695MOL0     C93730   6.653   2.254   5.190 -0.4928  0.9665 -0.6260
  695MOL0     C93731   6.553   2.249   5.306 -0.3282  1.0518 -0.6883
  695MOL0     C93732   6.593   2.319   5.437 -0.9459 -0.5766 -0.2881
  695MOL0     C93733   6.506   2.280   5.560  0.5064  0.0947 -0.8961
  695MOL0    Cl93734   6.356   2.376   5.577  0.0895 -0.1797 -0.2701
  695MOL0     C93735   6.687   1.978   4.416 -0.5582 -0.4542 -0.4586
  695MOL0     C93736   6.713   1.849   4.370  0.2224 -0.1373  0.0247
  695MOL0     O93737   6.549   1.537   4.490 -0.1506  0.3870 -0.1431
  695MOL0     C93738   6.722   1.396   4.220  0.3730  0.0521  0.2566
  695MOL0     C93739   6.710   1.284   4.131  0.6358 -0.0278 -0.3626
  695MOL0     N93740   6.065   0.973   3.606 -0.6741  1.2203  0.3743
  695MOL0     N93741   5.989   1.059   3.543  0.2732  1.1451 -0.3677
  695MOL0     C93742   5.530   1.910   4.270  0.0883 -0.0266  0.0675
  695MOL0     C93743   5.449   1.978   4.358  0.6459  1.0977 -0.3133
  695MOL0     C93744   5.256   2.139   4.713 -0.3357  0.0564 -0.0654
  695MOL0     C93745   5.299   2.265   4.747  0.0277  0.1794  0.1098
  695MOL0     C93746   5.225   2.357   4.814  0.1305  0.1517  0.1334
  695MOL0     C93747   5.096   2.322   4.859 -0.1274 -0.9711 -0.2793
  695MOL0     O93748   5.017   2.422   4.915 -0.2547  0.3971  0.2168
  695MOL0     C93749   4.943   2.403   5.034 -0.3913  1.0165 -0.5471
  695MOL0     C93750   5.025   2.364   5.162  0.3270  0.1433  0.0312
  695MOL0     C93751   5.112   2.476   5.221 -0.5084 -0.0487  1.2335
  695MOL0     C93752   5.155   2.587   5.122 -0.0534  0.4786 -0.0323
  695MOL0     C93753   5.276   2.663   5.156 -0.1718 -0.4510 -0.3072
  695MOL0     C93754   5.376   2.725   5.181 -0.6915  0.9166 -0.5366
  695MOL0     C93755   5.060   2.189   4.843  0.0840  0.1212 -0.4523
  695MOL0     C93756   5.136   2.098   4.772  0.3539 -0.1284  0.5615
  695MOL0     C93757   5.078   1.956   4.767  0.7566  0.9418 -0.0004
  695MOL0     H93758   5.687   2.158   4.513  1.4591 -0.2845 -1.0208
  695MOL0     H93759   5.835   2.024   4.347 -0.5105 -0.8231 -0.5890
  695MOL0     H93760   5.925   1.926   4.129  2.1647 -1.0590  0.5702
  695MOL0     H93761   5.927   1.812   4.251 -2.3494 -0.3753  0.4647
  695MOL0     H93762   5.839   1.634   4.077  1.8907 -0.9272 -0.9512
  695MOL0     H93763   6.004   1.677   4.102 -1.9631 -0.2975  2.1775
  695MOL0     H93764   6.006   1.812   3.881 -2.6459  2.0187 -3.4965
  695MOL0     H93765   5.827   1.812   3.887 -0.3160  0.0783 -0.3125
  695MOL0     H93766   6.033   1.587   3.858  0.3601  1.0847  4.1409
  695MOL0     H93767   5.856   1.564   3.854 -2.0535  2.9248 -2.3344
  695MOL0     H93768   5.821   1.715   3.671  0.5496  2.6865  2.0656
  695MOL0     H93769   6.002   1.724   3.650  1.4577 -0.8164  0.2524
  695MOL0     H93770   5.826   1.494   3.587 -0.5453  0.2542  2.6354
  695MOL0     H93771   5.963   1.576   3.488  4.1165  0.7513  2.0811
  695MOL0     H93772   5.994   1.386   3.719  1.8248  0.6539  0.4892
  695MOL0     H93773   6.114   1.465   3.609  0.3614 -2.0141 -1.1209
  695MOL0     H93774   5.877   1.299   3.506  0.0679  2.1543 -3.4951
  695MOL0     H93775   6.019   1.340   3.419 -2.6526  3.1073 -0.9449
  695MOL0     H93776   6.208   1.249   3.696  0.8111 -0.5422 -1.9370
  695MOL0     H93777   6.232   0.968   3.870 -3.6118 -0.1769 -0.4468
  695MOL0     H93778   6.251   0.857   3.746 -3.1560  0.3322  0.4701
  695MOL0     H93779   6.431   0.966   3.642 -1.7985  0.1616 -0.4536
  695MOL0     H93780   6.409   1.117   3.722  2.2081  0.0760  0.4313
  695MOL0     H93781   6.614   0.985   3.809  1.1336 -0.6734  2.0816
  695MOL0     H93782   6.502   0.852   3.833 -3.7319  0.9124 -0.7048
  695MOL0     H93783   6.496   0.934   4.066  0.1566  0.8818 -0.2076
  695MOL0     H93784   6.383   1.051   4.002 -0.7667 -1.5619 -2.3076
  695MOL0     H93785   6.393   1.188   4.183  0.9281 -1.6196 -1.5367
  695MOL0     H93786   6.409   1.393   4.345  2.5870  0.5357  3.2382
  695MOL0     H93787   6.754   1.696   4.658 -1.1920  0.0904  1.5519
  695MOL0     H93788   6.715   1.926   4.737  0.5010 -5.7031  1.3579
  695MOL0     H93789   6.820   2.131   4.740 -0.5293  0.9556  1.2705
  695MOL0     H93790   6.762   2.295   4.695 -1.0859 -0.2116 -0.7879
  695MOL0     H93791   6.582   2.293   4.824 -0.6116 -0.1996 -0.4816
  695MOL0     H93792   6.553   2.122   4.798  0.8241 -0.5603 -1.0576
  695MOL0     H93793   6.745   2.095   4.979 -3.2903 -1.8946  3.7098
  695MOL0     H93794   6.777   2.262   4.960 -0.4135 -0.2926 -1.5853
  695MOL0     H93795   6.574   2.076   5.077 -1.7607  0.1921 -1.5452
  695MOL0     H93796   6.505   2.233   5.021  1.5071  2.2346  0.5347
  695MOL0     H93797   6.655   2.361   5.167 -3.6988  1.6502  1.6371
  695MOL0     H93798   6.753   2.219   5.217 -0.9709  1.1350  1.5105
  695MOL0     H93799   6.459   2.288   5.265 -1.4698 -2.0692 -1.3134
  695MOL0     H93800   6.540   2.145   5.337 -1.0548 -0.2258 -4.6989
  695MOL0     H93801   6.596   2.427   5.447 -1.3326 -0.7949  3.9886
  695MOL0     H93802   6.694   2.280   5.454 -0.7698 -1.2880 -2.5250
  695MOL0     H93803   6.498   2.172   5.549  0.9521  0.2313 -2.8976
  695MOL0     H93804   6.562   2.284   5.654  0.9306  0.6476 -1.1619
  695MOL0     H93805   6.673   2.067   4.357  0.4558  0.9941  1.3863
  695MOL0     H93806   6.699   1.835   4.263 -2.7529  0.6476  0.2085
  695MOL0     H93807   6.818   1.441   4.240  0.6057  0.0481 -0.7985
  695MOL0     H93808   6.798   1.261   4.072  0.3942  1.2726 -1.2765
  695MOL0     H93809   5.483   1.848   4.194 -1.0333  1.2549 -0.3247
  695MOL0     H93810   5.345   1.948   4.351  0.7682  0.6938 -0.3930
  695MOL0     H93811   5.396   2.302   4.716 -0.7750  1.4681 -0.9565
  695MOL0     H93812   5.267   2.456   4.824  0.9891 -0.2555  0.6458
  695MOL0     H93813   4.867   2.325   5.025  0.6460 -0.3090  1.4793
  695MOL0     H93814   4.903   2.500   5.065  0.5733  1.7827 -1.6092
  695MOL0     H93815   5.086   2.274   5.146  0.2014 -0.5788  2.9789
  695MOL0     H93816   4.941   2.333   5.226  0.3940  0.2589  0.1733
  695MOL0     H93817   5.203   2.433   5.265 -0.8380  0.7779  2.8331
  695MOL0     H93818   5.049   2.527   5.295 -4.0317 -1.1294 -0.7497
  695MOL0     H93819   5.177   2.547   5.023  0.6570  1.6108 -0.3471
  695MOL0     H93820   5.074   2.661   5.125  1.2657  1.9632 -0.0533
  695MOL0     H93821   5.475   2.765   5.191 -1.4219  2.3820  1.3375
  695MOL0     H93822   4.964   2.151   4.876 -2.6765  3.4374 -3.6949
  695MOL0     H93823   5.056   1.921   4.666 -0.7356  0.3838  0.4847
  695MOL0     H93824   5.136   1.878   4.818 -1.3494 -0.5427  0.2545
  695MOL0     H93825   4.980   1.949   4.814  0.1613  1.2794 -1.1551
  696MOL0     O93826   1.267   8.753   5.627  0.1693  0.0382 -0.2378
  696MOL0     C93827   1.220   8.836   5.551 -0.8666 -0.4550  1.1711
  696MOL0     O93828   1.094   8.839   5.495  0.5616 -0.0191  0.1833
  696MOL0     C93829   0.990   8.769   5.552 -0.5880  0.4256  0.5142
  696MOL0     C93830   0.910   8.842   5.641  0.4083  0.0226  0.1106
  696MOL0     C93831   0.813   8.778   5.712  0.2105 -0.5820  0.2760
  696MOL0     C93832   0.784   8.641   5.689  0.1602  0.0109  0.0736
  696MOL0     O93833   0.683   8.564   5.748 -0.0004 -0.2622 -0.7716
  696MOL0     C93834   0.612   8.626   5.851 -0.4834 -0.0337 -0.4767
  696MOL0     C93835   0.510   8.527   5.893 -0.4688 -0.4217  0.7133
  696MOL0     C93836   0.456   8.427   5.793 -0.7245 -0.1083 -0.4369
  696MOL0     C93837   0.344   8.345   5.843 -0.0355  0.8231  0.4713
  696MOL0     C93838   0.271   8.278   5.721 -0.3642  0.3191  0.7915
  696MOL0     C93839   0.154   8.200   5.779 -0.7832 -0.7186  1.0293
  696MOL0     C93840   0.092   8.100   5.671 -0.6455 -0.1148  0.1583
  696MOL0     C93841   0.025   7.986   5.731 -0.1752 -0.4891 -0.2429
  696MOL0     N93842   0.114   7.911   5.820 -0.1732  0.0921  0.9457
  696MOL0     C93843   0.206   7.813   5.779 -0.1378 -0.2001 -0.2539
  696MOL0     C93844   0.216   7.735   5.897 -0.0447  0.5326  0.2097
  696MOL0     C93845   0.311   7.613   5.897  0.4478  0.5064  0.1356
  696MOL0     C93846   0.234   7.478   5.913  0.5647  0.7427 -1.4034
  696MOL0     C93847   0.173   7.441   5.773 -0.2932  0.1516  0.1083
  696MOL0     C93848   0.272   7.374   5.681  0.1047  0.6952  0.2581
  696MOL0     O93849   0.285   7.235   5.715 -0.1033 -1.1826 -0.0379
  696MOL0     C93850   0.374   7.173   5.627  0.7295 -1.0351 -0.3136
  696MOL0     C93851   0.446   7.236   5.522  0.0693 -0.5029  0.3298
  696MOL0     C93852   0.542   7.168   5.447  1.0356 -0.8156  0.3270
  696MOL0     C93853   0.564   7.030   5.471  0.2430  0.4796  0.6418
  696MOL0     C93854   0.657   6.959   5.390 -0.5992  0.0411 -0.0488
  696MOL0     O93855   0.657   6.980   5.261  0.7829 -0.1248  0.1898
  696MOL0     C93856   0.769   6.948   5.189 -0.3437 -0.8761  0.3189
  696MOL0     C93857   0.791   6.832   5.122  0.1602  0.9632 -0.6842
  696MOL0     C93858   0.914   6.800   5.068  0.2279 -0.5287  0.0925
  696MOL0     C93859   1.008   6.907   5.055 -0.2468  0.1803  0.5474
  696MOL0     O93860   1.117   6.889   4.972  0.2806 -0.2662  0.7017
  696MOL0     C93861   1.127   6.958   4.854 -1.0602 -0.5674  0.4215
  696MOL0     C93862   1.266   6.957   4.803 -0.1057  0.8063 -0.1564
  696MOL0     C93863   1.366   6.987   4.915 -1.0205  0.3006  0.6157
  696MOL0     C93864   1.500   6.964   4.859 -0.2595  0.4525 -0.1002
  696MOL0     C93865   1.598   7.003   4.964  0.2209 -0.7655 -0.5185
  696MOL0     C93866   1.746   6.963   4.926 -0.3473 -0.3334 -0.6754
  696MOL0     C93867   1.821   6.946   5.057  0.6575 -0.3669 -0.6048
  696MOL0     C93868   1.963   6.896   5.036 -0.3638 -0.1940  0.6117
  696MOL0    Cl93869   1.968   6.749   4.937 -0.4008 -0.3549  0.0534
  696MOL0     C93870   0.982   7.030   5.122  0.6337 -0.5082  0.0725
  696MOL0     C93871   0.868   7.041   5.200  0.1522 -0.4149  0.0124
  696MOL0     O93872   0.730   6.877   5.446  0.9172  0.7265  0.3512
  696MOL0     C93873   0.486   6.969   5.561 -0.2646  0.2901 -0.5789
  696MOL0     C93874   0.396   7.040   5.646  0.2740 -0.4116  0.4896
  696MOL0     N93875   0.131   7.782   5.997 -1.4528 -0.1165 -0.6785
  696MOL0     N93876   0.073   7.883   5.946 -0.2921 -0.0628  0.3454
  696MOL0     C93877   0.870   8.574   5.604 -0.6256 -0.0949  0.6172
  696MOL0     C93878   0.975   8.638   5.529 -0.1856  0.6502 -0.2219
  696MOL0     C93879   1.317   8.938   5.500 -0.2377 -0.6125 -1.0955
  696MOL0     C93880   1.263   9.061   5.441  0.7605  1.3025 -0.2291
  696MOL0     C93881   1.338   9.166   5.405 -0.8641 -0.3318  0.1060
  696MOL0     C93882   1.480   9.159   5.423 -0.4307 -0.2816  0.1909
  696MOL0     O93883   1.575   9.258   5.403  0.1755 -0.3206  0.6192
  696MOL0     C93884   1.546   9.365   5.316 -0.3956 -0.2135 -0.0079
  696MOL0     C93885   1.540   9.498   5.388  0.1068 -0.0166  0.0318
  696MOL0     C93886   1.399   9.532   5.441 -0.2964  0.2435  0.8781
  696MOL0     C93887   1.357   9.469   5.565 -0.6435 -0.2226 -0.6764
  696MOL0     C93888   1.429   9.516   5.691  0.2700  0.1587  1.5186
  696MOL0     C93889   1.473   9.548   5.797  0.0325  0.2593  0.0040
  696MOL0     C93890   1.532   9.039   5.472 -0.5163 -0.1507 -0.3300
  696MOL0     C93891   1.456   8.931   5.510 -0.0930  0.0229  0.7773
  696MOL0     C93892   1.526   8.802   5.536 -0.1962 -0.4158  0.2420
  696MOL0     H93893   0.926   8.948   5.655  0.3201  0.2212 -1.2292
  696MOL0     H93894   0.749   8.825   5.786 -0.3279 -3.0210  1.4729
  696MOL0     H93895   0.681   8.652   5.932 -2.4948  1.4367  0.8668
  696MOL0     H93896   0.566   8.720   5.819  0.5123  0.8349  0.5212
  696MOL0     H93897   0.419   8.583   5.914 -1.5113 -0.9953 -1.8992
  696MOL0     H93898   0.539   8.469   5.981 -0.9873 -0.8555  0.6065
  696MOL0     H93899   0.539   8.364   5.759  1.2303  3.1205 -2.1690
  696MOL0     H93900   0.425   8.490   5.709  3.0637  1.1190 -1.0895
  696MOL0     H93901   0.372   8.261   5.908  0.8704 -2.0461 -3.3105
  696MOL0     H93902   0.274   8.415   5.889 -1.0894  1.8793 -2.5437
  696MOL0     H93903   0.231   8.359   5.659  0.5877  1.0216  1.0744
  696MOL0     H93904   0.350   8.216   5.680  0.9708 -0.6556  4.4224
  696MOL0     H93905   0.196   8.148   5.865  2.4957 -1.9404 -1.1282
  696MOL0     H93906   0.073   8.267   5.810  0.3908  0.3941  1.7661
  696MOL0     H93907   0.168   8.066   5.599 -1.1392 -1.7603  0.3743
  696MOL0     H93908   0.029   8.167   5.613  0.3605  0.4257 -0.3524
  696MOL0     H93909  -0.058   8.035   5.784 -0.2448  0.1833 -0.9585
  696MOL0     H93910  -0.013   7.916   5.656  2.4191 -0.3217 -1.8312
  696MOL0     H93911   0.251   7.795   5.682  2.0195  1.0851  0.4411
  696MOL0     H93912   0.369   7.609   5.804 -0.1650  0.0534 -0.2392
  696MOL0     H93913   0.376   7.625   5.984  0.7005  1.3329 -0.1645
  696MOL0     H93914   0.294   7.400   5.960  1.0215  0.8983 -1.7215
  696MOL0     H93915   0.158   7.492   5.990  2.1030 -3.1939  1.1119
  696MOL0     H93916   0.129   7.526   5.720 -0.8274  0.5205  1.1236
  696MOL0     H93917   0.089   7.374   5.788 -0.3614  0.2654  0.2367
  696MOL0     H93918   0.370   7.421   5.691  0.2466  0.2023  1.2525
  696MOL0     H93919   0.236   7.384   5.578 -1.0247  0.7977  0.6499
  696MOL0     H93920   0.432   7.343   5.510 -0.0547  0.2288  5.0313
  696MOL0     H93921   0.587   7.218   5.363  0.8192  0.0896  0.7433
  696MOL0     H93922   0.713   6.756   5.122  0.3081  0.7896  1.0153
  696MOL0     H93923   0.936   6.705   5.021 -2.5168 -1.0003 -0.4553
  696MOL0     H93924   1.068   6.918   4.771 -0.1659  1.2402 -1.1505
  696MOL0     H93925   1.084   7.057   4.875 -0.7971 -0.6131  1.1873
  696MOL0     H93926   1.276   6.856   4.762 -2.5967 -0.6580  2.4505
  696MOL0     H93927   1.266   7.033   4.725  0.1295 -0.2536 -1.2240
  696MOL0     H93928   1.363   7.091   4.950  2.5108  0.2318  1.4603
  696MOL0     H93929   1.357   6.924   5.004  2.1297 -2.8935 -1.1259
  696MOL0     H93930   1.502   7.041   4.782 -0.7696 -1.2633 -1.9018
  696MOL0     H93931   1.523   6.870   4.810  1.7884  1.5231 -1.3080
  696MOL0     H93932   1.577   6.946   5.055  0.5267 -0.0235  0.0216
  696MOL0     H93933   1.583   7.110   4.975 -0.6389 -0.7564 -1.5747
  696MOL0     H93934   1.748   6.867   4.873 -0.1582 -1.4531  1.2633
  696MOL0     H93935   1.783   7.048   4.869 -0.6768 -0.4067 -1.0014
  696MOL0     H93936   1.766   6.883   5.128  0.4060  1.8048  1.2182
  696MOL0     H93937   1.822   7.047   5.099 -3.3864 -0.8127  1.0146
  696MOL0     H93938   2.018   6.959   4.966  1.1248 -0.6252  1.3541
  696MOL0     H93939   2.017   6.882   5.130  1.6266 -1.4614 -0.6499
  696MOL0     H93940   1.060   7.104   5.136  0.1088 -0.1805  1.4591
  696MOL0     H93941   0.840   7.129   5.257 -2.6811 -0.8699 -0.5352
  696MOL0     H93942   0.497   6.863   5.581 -1.8235  0.9333  5.5389
  696MOL0     H93943   0.336   6.987   5.720  1.2763 -0.4115  1.3272
  696MOL0     H93944   0.851   8.469   5.583  1.2149 -0.5413  1.0088
  696MOL0     H93945   1.043   8.576   5.471  0.6433 -1.3803  2.6712
  696MOL0     H93946   1.155   9.056   5.426  1.1496 -0.9367 -3.1515
  696MOL0     H93947   1.301   9.259   5.362 -0.5612  0.2693  1.0962
  696MOL0     H93948   1.448   9.359   5.267 -2.6679 -0.4564  4.0962
  696MOL0     H93949   1.625   9.363   5.241  1.4936 -3.0977  1.8866
  696MOL0     H93950   1.568   9.571   5.311  3.8382 -1.7518 -0.4592
  696MOL0     H93951   1.620   9.499   5.462  0.5685  3.4876 -0.3263
  696MOL0     H93952   1.325   9.512   5.363  0.8019 -2.8172  0.4895
  696MOL0     H93953   1.390   9.640   5.460  0.2965  0.4827 -0.1307
  696MOL0     H93954   1.249   9.476   5.577 -1.1552 -4.3029 -1.4947
  696MOL0     H93955   1.379   9.362   5.554 -0.2207 -0.2707  0.5723
  696MOL0     H93956   1.513   9.555   5.896 -0.5565 -1.3880  0.3867
  696MOL0     H93957   1.640   9.036   5.487 -0.4837 -0.8614 -0.6585
  696MOL0     H93958   1.627   8.810   5.495  0.3102  0.8129  1.6215
  696MOL0     H93959   1.538   8.772   5.641 -0.4994 -2.7740 -0.3490
  696MOL0     H93960   1.471   8.724   5.483 -1.2100  1.2441 -1.2807
  697MOL0     O93961   2.771   3.310   1.750  0.0446  0.4176 -0.4827
  697MOL0     C93962   2.678   3.231   1.723 -0.6551 -1.2406  0.6517
  697MOL0     O93963   2.675   3.148   1.608  0.3305  0.6762 -0.0732
  697MOL0     C93964   2.787   3.102   1.543 -0.9378  0.0430 -0.2534
  697MOL0     C93965   2.914   3.102   1.603 -0.7494 -0.2272  0.2088
  697MOL0     C93966   3.028   3.030   1.559  0.0546  0.0391 -0.3913
  697MOL0     C93967   3.018   2.983   1.432  0.0595 -0.0454  0.8354
  697MOL0     O93968   3.131   2.924   1.387 -0.3846  0.4522  0.2306
  697MOL0     C93969   3.179   3.002   1.278 -0.9650  0.5926  0.5749
  697MOL0     C93970   3.317   2.956   1.248 -1.2214 -0.5332  0.2022
  697MOL0     C93971   3.329   2.822   1.173  0.3682  0.4773  0.7330
  697MOL0     C93972   3.472   2.769   1.157 -0.8955  0.3260  0.1298
  697MOL0     C93973   3.557   2.852   1.062  0.7025  0.4998 -0.0476
  697MOL0     C93974   3.703   2.819   1.065 -0.2704  0.3115 -0.7351
  697MOL0     C93975   3.785   2.900   0.965 -0.4311  0.0598  0.7119
  697MOL0     C93976   3.794   3.041   1.023  0.9328  0.1835 -0.3924
  697MOL0     N93977   3.892   3.116   0.954 -0.7133  0.0359 -0.3117
  697MOL0     C93978   4.025   3.092   0.978  0.1490  0.2821 -0.1469
  697MOL0     C93979   4.091   3.154   0.876 -0.3188 -0.0933  1.0192
  697MOL0     C93980   4.250   3.143   0.837  0.9214 -0.0921 -0.4146
  697MOL0     C93981   4.293   2.993   0.866 -0.0806 -0.0400  0.2470
  697MOL0     C93982   4.272   2.909   0.743 -0.4263  0.2882 -0.3543
  697MOL0     C93983   4.348   2.777   0.735  0.6514 -0.5804 -0.0007
  697MOL0     O93984   4.494   2.799   0.735 -0.3504  0.8202  0.2460
  697MOL0     C93985   4.574   2.688   0.713 -0.5867 -0.0302  0.2114
  697MOL0     C93986   4.713   2.708   0.695  0.1171  0.2587 -0.1392
  697MOL0     C93987   4.797   2.603   0.668 -0.7614  1.0130  0.0648
  697MOL0     C93988   4.746   2.468   0.680 -0.9183 -0.7191  0.1261
  697MOL0     C93989   4.843   2.352   0.674  0.0009  0.4207  0.2613
  697MOL0     O93990   4.975   2.386   0.680  0.3654  0.2753  0.0148
  697MOL0     C93991   5.078   2.289   0.675  0.4366  0.9785 -0.5673
  697MOL0     C93992   5.162   2.273   0.566 -0.1759 -0.1209 -0.0239
  697MOL0     C93993   5.266   2.184   0.563  0.6386  0.6648  0.3517
  697MOL0     C93994   5.287   2.090   0.659 -0.1059 -0.2257  0.8666
  697MOL0     O93995   5.383   1.997   0.653  0.6572  0.7545  0.5526
  697MOL0     C93996   5.514   2.025   0.598  0.9136  0.3996 -0.0479
  697MOL0     C93997   5.604   1.938   0.687 -0.7510  0.1091 -0.0844
  697MOL0     C93998   5.559   1.798   0.714 -0.2338  0.5594 -0.2461
  697MOL0     C93999   5.672   1.692   0.722  0.0173  0.5946  0.0870
  697MOL0     C94000   5.631   1.555   0.786 -0.0959 -0.6937 -0.1496
  697MOL0     C94001   5.764   1.484   0.823  0.5565  0.4531  0.3388
  697MOL0     C94002   5.822   1.402   0.706 -0.2553 -0.1759 -0.5600
  697MOL0     C94003   5.974   1.423   0.690  0.5858  0.7025  0.6003
  697MOL0    Cl94004   6.063   1.319   0.814 -0.2865  0.4838 -0.0284
  697MOL0     C94005   5.198   2.088   0.767 -0.1511  0.6413  0.3113
  697MOL0     C94006   5.091   2.186   0.769 -0.5824 -0.5703  0.5514
  697MOL0     O94007   4.794   2.239   0.674  0.3244  0.4222 -0.2777
  697MOL0     C94008   4.614   2.454   0.684  0.3425 -0.2672  0.8216
  697MOL0     C94009   4.525   2.557   0.701  0.5236 -0.2150 -0.5194
  697MOL0     N94010   3.996   3.223   0.798  0.4006  1.0731 -0.1404
  697MOL0     N94011   3.877   3.202   0.846  0.5103 -0.1021  0.7774
  697MOL0     C94012   2.897   2.979   1.362  0.3110  0.3609 -0.3333
  697MOL0     C94013   2.783   3.041   1.417 -0.6984  0.8984  0.2374
  697MOL0     C94014   2.541   3.266   1.791  0.1913 -1.0753  0.5184
  697MOL0     C94015   2.433   3.214   1.724 -1.1861  0.0354  0.8659
  697MOL0     C94016   2.305   3.251   1.763  0.3666  1.0776  0.1424
  697MOL0     C94017   2.283   3.323   1.877  0.4222  0.2108  0.0381
  697MOL0     O94018   2.150   3.350   1.920 -0.5021  0.2607  0.1401
  697MOL0     C94019   2.065   3.226   1.934  0.0468 -1.4507  0.0838
  697MOL0     C94020   1.934   3.248   1.856  1.0601  0.8374 -0.0426
  697MOL0     C94021   1.814   3.179   1.924  0.5412 -0.2577  0.9463
  697MOL0     C94022   1.691   3.196   1.844  0.1343 -0.6710  0.4038
  697MOL0     C94023   1.585   3.142   1.927 -0.6833 -0.0331  0.4360
  697MOL0     C94024   1.504   3.097   1.996 -0.0423  0.6362  0.8264
  697MOL0     C94025   2.388   3.377   1.952  0.1759 -0.3223  0.8418
  697MOL0     C94026   2.517   3.350   1.901  0.5549  0.2330 -0.4551
  697MOL0     C94027   2.621   3.421   1.969  0.8000  0.4161 -0.4753
  697MOL0     H94028   2.929   3.143   1.702 -2.6369 -0.5696  0.6781
  697MOL0     H94029   3.120   3.008   1.612  0.1915  0.3047 -0.5154
  697MOL0     H94030   3.123   2.993   1.184 -0.9971  2.7772  0.3267
  697MOL0     H94031   3.184   3.105   1.315  0.2068  0.6692  0.2240
  697MOL0     H94032   3.370   2.938   1.342 -0.9567 -0.3002  0.0986
  697MOL0     H94033   3.363   3.038   1.191 -1.0978 -1.3624 -0.9341
  697MOL0     H94034   3.289   2.825   1.072  0.4750  0.1106  0.6791
  697MOL0     H94035   3.276   2.740   1.222  1.8564 -0.3694  0.9849
  697MOL0     H94036   3.512   2.768   1.259  0.2188  1.4555 -0.2710
  697MOL0     H94037   3.484   2.665   1.126  1.4247  0.0665  1.6129
  697MOL0     H94038   3.524   2.848   0.958  3.6130  0.6731 -1.0641
  697MOL0     H94039   3.542   2.950   1.107  0.7289  0.1975  0.6478
  697MOL0     H94040   3.751   2.817   1.163 -0.2880 -1.9912 -0.7091
  697MOL0     H94041   3.702   2.716   1.028  0.3202 -0.6337  1.6975
  697MOL0     H94042   3.737   2.907   0.866 -2.9300  2.5145  1.9596
  697MOL0     H94043   3.883   2.855   0.949 -0.9858 -0.3291 -2.1811
  697MOL0     H94044   3.703   3.101   1.016 -0.9028 -1.9408  2.5631
  697MOL0     H94045   3.817   3.037   1.130 -2.2691 -0.9022  0.3645
  697MOL0     H94046   4.064   3.035   1.062  1.2969 -0.2434 -1.0002
  697MOL0     H94047   4.271   3.175   0.735  3.0707 -2.4398 -0.7901
  697MOL0     H94048   4.320   3.203   0.897  1.3922  0.2948 -1.3425
  697MOL0     H94049   4.401   2.991   0.880  0.2506 -0.3961 -2.0139
  697MOL0     H94050   4.242   2.949   0.952 -1.0029  2.3621  1.0164
  697MOL0     H94051   4.300   2.966   0.654 -1.2106 -0.3490 -1.0248
  697MOL0     H94052   4.164   2.892   0.734 -0.3268 -1.5292  1.1812
  697MOL0     H94053   4.320   2.720   0.646 -2.5730 -0.2889  0.7242
  697MOL0     H94054   4.322   2.716   0.823 -0.2150 -1.7736 -1.0506
  697MOL0     H94055   4.754   2.808   0.693 -1.7660  1.1186  1.6516
  697MOL0     H94056   4.905   2.618   0.664 -0.6785  0.5445  0.4551
  697MOL0     H94057   5.170   2.343   0.484  1.5961 -0.1691  0.0749
  697MOL0     H94058   5.340   2.188   0.484  1.9268 -0.2644  1.4578
  697MOL0     H94059   5.509   1.992   0.493  1.0431 -1.2715  0.4430
  697MOL0     H94060   5.546   2.130   0.601 -1.6907  1.2683  0.0212
  697MOL0     H94061   5.708   1.948   0.652  0.0081  1.1597  2.2571
  697MOL0     H94062   5.605   2.001   0.776  0.5172 -0.7183  0.5212
  697MOL0     H94063   5.491   1.789   0.799 -0.9503 -0.6517 -0.9151
  697MOL0     H94064   5.491   1.753   0.641 -1.3353 -2.7009  2.4935
  697MOL0     H94065   5.763   1.726   0.773  0.2515 -0.3335  0.3043
  697MOL0     H94066   5.711   1.671   0.622  0.0727  2.4977 -0.3265
  697MOL0     H94067   5.555   1.503   0.727 -4.2855  2.6228  1.7935
  697MOL0     H94068   5.583   1.598   0.874 -2.5666  0.9281 -2.1553
  697MOL0     H94069   5.836   1.558   0.859  1.5218  0.5012 -1.5727
  697MOL0     H94070   5.738   1.415   0.904  0.5024  0.9035  0.7083
  697MOL0     H94071   5.781   1.439   0.612 -1.9143 -4.5140 -1.7598
  697MOL0     H94072   5.801   1.295   0.709  0.5689 -0.4036 -2.1799
  697MOL0     H94073   5.999   1.383   0.592 -0.0018 -1.9315  1.4322
  697MOL0     H94074   6.010   1.525   0.677 -0.8293  1.1965  0.3493
  697MOL0     H94075   5.207   2.010   0.842 -1.2537 -2.8894 -2.9071
  697MOL0     H94076   5.026   2.164   0.853  2.2959 -1.1615  2.7832
  697MOL0     H94077   4.582   2.350   0.682 -2.6501  0.5117  2.0140
  697MOL0     H94078   4.418   2.537   0.704  0.8370 -2.0666 -0.4776
  697MOL0     H94079   2.893   2.955   1.256  0.0053 -3.0278  0.3196
  697MOL0     H94080   2.688   3.049   1.364  0.1294  1.6133 -1.1750
  697MOL0     H94081   2.441   3.163   1.628  3.0620  0.4683  0.8260
  697MOL0     H94082   2.219   3.222   1.703 -0.6054  1.6280  1.2243
  697MOL0     H94083   2.048   3.202   2.039  1.2201 -0.8662  0.4245
  697MOL0     H94084   2.100   3.131   1.893  0.5449 -2.5755  2.9071
  697MOL0     H94085   1.935   3.210   1.753  0.0489  0.7769 -0.0424
  697MOL0     H94086   1.908   3.354   1.858 -0.7892  0.4082  1.0262
  697MOL0     H94087   1.803   3.228   2.021  2.6688  1.0181  0.6106
  697MOL0     H94088   1.832   3.072   1.938 -1.0439 -0.6924 -0.1365
  697MOL0     H94089   1.679   3.302   1.820  1.3637 -0.8820 -1.3984
  697MOL0     H94090   1.693   3.135   1.753 -2.5199 -2.4306  1.4083
  697MOL0     H94091   1.431   3.062   2.067 -0.1457  1.6279  1.2314
  697MOL0     H94092   2.377   3.434   2.043  2.8831  2.0408 -0.1551
  697MOL0     H94093   2.577   3.487   2.044  2.5972  1.3964 -0.2014
  697MOL0     H94094   2.700   3.356   2.007  2.5814  1.9888 -1.3037
  697MOL0     H94095   2.675   3.488   1.901  1.6760 -1.4848 -1.7368
  698MOL0     O94096   2.688   9.426   2.053  1.0843 -0.1756 -0.4279
  698MOL0     C94097   2.674   9.442   2.171 -0.6835 -0.1545 -0.3555
  698MOL0     O94098   2.574   9.509   2.229  0.5433 -0.1262 -0.2623
  698MOL0     C94099   2.471   9.566   2.152 -0.4830 -0.7408  0.0943
  698MOL0     C94100   2.484   9.681   2.076 -0.4139  0.4422  1.0650
  698MOL0     C94101   2.383   9.745   2.020 -0.4524 -0.2601  0.0101
  698MOL0     C94102   2.251   9.695   2.017 -1.0579  1.5089  0.1341
  698MOL0     O94103   2.151   9.761   1.954 -0.4534  0.4790 -0.3857
  698MOL0     C94104   2.029   9.705   1.915 -1.0191  0.2714 -0.3668
  698MOL0     C94105   1.914   9.748   2.005 -0.1639 -1.1230 -0.5599
  698MOL0     C94106   1.789   9.662   1.966 -0.2609  0.0243 -0.5704
  698MOL0     C94107   1.655   9.696   2.020 -0.6999 -0.0977  0.5355
  698MOL0     C94108   1.544   9.610   1.959  1.1666 -0.9150 -0.0297
  698MOL0     C94109   1.405   9.680   1.968  0.4932  0.5157 -0.2144
  698MOL0     C94110   1.351   9.691   2.116 -0.5252  0.2181 -0.6237
  698MOL0     C94111   1.246   9.805   2.135  0.0882  0.7637 -0.3992
  698MOL0     N94112   1.272   9.928   2.065  0.3873 -0.8258 -0.1509
  698MOL0     C94113   1.331  10.048   2.111 -0.0841 -0.0203 -0.9222
  698MOL0     C94114   1.327  10.141   2.019  0.2076 -0.4676  1.6390
  698MOL0     C94115   1.367  10.289   2.017 -0.1373 -1.2155 -0.1844
  698MOL0     C94116   1.512  10.321   2.014 -0.1105  0.3997 -0.1858
  698MOL0     C94117   1.560  10.307   1.867 -0.8312 -0.6240 -0.6660
  698MOL0     C94118   1.715  10.328   1.848 -0.7537  0.7565 -0.3122
  698MOL0     O94119   1.744  10.308   1.713 -0.2301 -0.4367  0.1311
  698MOL0     C94120   1.862  10.274   1.681  0.1657  0.2350  0.2833
  698MOL0     C94121   1.870  10.144   1.626 -0.1654 -0.0029 -0.5080
  698MOL0     C94122   1.997  10.096   1.595  0.8933 -0.0163  0.1205
  698MOL0     C94123   2.116  10.165   1.617 -0.3267 -0.8271 -0.1461
  698MOL0     C94124   2.234  10.086   1.606  0.1385 -0.2724 -0.0163
  698MOL0     O94125   2.232   9.959   1.553 -0.0639  0.5069 -0.1756
  698MOL0     C94126   2.342   9.877   1.564 -0.4066  0.7228 -0.8636
  698MOL0     C94127   2.430   9.859   1.457 -0.5655  0.3225  0.5410
  698MOL0     C94128   2.543   9.772   1.467  0.1625  0.2342 -0.0787
  698MOL0     C94129   2.566   9.708   1.584  0.8451  0.2089  0.1610
  698MOL0     O94130   2.676   9.628   1.599  0.0143  0.5995  0.1509
  698MOL0     C94131   2.717   9.558   1.720 -0.0383 -0.0410  0.6267
  698MOL0     C94132   2.856   9.495   1.721  0.8548  0.4996  0.4222
  698MOL0     C94133   2.968   9.591   1.748 -0.3214 -0.1000  0.3270
  698MOL0     C94134   2.985   9.617   1.903 -1.0467 -0.2395  1.5960
  698MOL0     C94135   3.127   9.691   1.921  0.6669 -0.4196 -0.1792
  698MOL0     C94136   3.125   9.764   2.066 -0.0864 -0.0033  1.2205
  698MOL0     C94137   3.101   9.654   2.171 -0.2798  0.0053 -0.0759
  698MOL0     C94138   3.140   9.706   2.308  0.4914  1.2114 -0.6291
  698MOL0    Cl94139   3.044   9.833   2.361 -0.6023  0.1267 -0.1489
  698MOL0     C94140   2.473   9.725   1.689 -0.2261 -0.0758  1.3689
  698MOL0     C94141   2.360   9.806   1.679 -0.4705  0.0055 -0.2602
  698MOL0     O94142   2.327  10.139   1.669 -0.0245  0.8334  0.0422
  698MOL0     C94143   2.102  10.291   1.683  0.0052  0.1330  0.5730
  698MOL0     C94144   1.974  10.343   1.704  0.5454  0.7140  1.1426
  698MOL0     N94145   1.254  10.087   1.914 -0.1026  0.0573 -0.0737
  698MOL0     N94146   1.237   9.956   1.932 -0.2657  0.6739 -0.7686
  698MOL0     C94147   2.236   9.570   2.082  0.4606  0.7935 -0.2972
  698MOL0     C94148   2.344   9.513   2.154  0.1440  0.2372 -0.0651
  698MOL0     C94149   2.784   9.392   2.256 -0.4843 -0.1863  0.3741
  698MOL0     C94150   2.807   9.465   2.374 -0.5625 -1.1351  0.2805
  698MOL0     C94151   2.908   9.441   2.460  0.1830  0.4560 -0.1888
  698MOL0     C94152   2.992   9.332   2.439  0.1789  0.6531  0.0500
  698MOL0     O94153   3.090   9.322   2.538  0.0862 -0.4402  0.0769
  698MOL0     C94154   3.191   9.220   2.535 -0.1311 -1.0325  0.4125
  698MOL0     C94155   3.297   9.243   2.427  0.0764 -0.0074 -1.3302
  698MOL0     C94156   3.392   9.368   2.453  0.4079 -0.0228  0.1922
  698MOL0     C94157   3.534   9.328   2.403  0.6968  0.7305 -0.7936
  698MOL0     C94158   3.627   9.436   2.430 -1.6384 -1.1887  0.0765
  698MOL0     C94159   3.700   9.537   2.444 -0.0165  0.3637  0.3001
  698MOL0     C94160   2.971   9.245   2.327 -0.4516 -0.2273 -0.3632
  698MOL0     C94161   2.865   9.282   2.234  0.3754 -0.0104  0.3128
  698MOL0     C94162   2.874   9.197   2.105  0.0106  0.5414 -0.4077
  698MOL0     H94163   2.575   9.740   2.067 -1.0030  1.2462  0.3802
  698MOL0     H94164   2.413   9.841   1.980  1.5781  0.0497  2.0898
  698MOL0     H94165   2.012   9.735   1.812  1.7636 -2.6705 -1.8763
  698MOL0     H94166   2.044   9.596   1.921  0.6170  0.5258  4.7085
  698MOL0     H94167   1.883   9.851   1.987 -0.9854 -1.3251 -0.3765
  698MOL0     H94168   1.932   9.742   2.113  1.0383 -1.1041 -0.7457
  698MOL0     H94169   1.816   9.561   1.999  0.3355 -0.8010 -3.3469
  698MOL0     H94170   1.788   9.662   1.857 -0.1635  0.9945 -0.5791
  698MOL0     H94171   1.658   9.707   2.128  4.5833 -1.0520  0.7389
  698MOL0     H94172   1.627   9.797   1.988 -0.5435 -0.7310 -1.8500
  698MOL0     H94173   1.570   9.586   1.856 -4.8379  1.6185 -2.5836
  698MOL0     H94174   1.540   9.521   2.023 -4.4616 -1.0555 -0.0622
  698MOL0     H94175   1.415   9.780   1.925  2.9522  0.2072 -0.4909
  698MOL0     H94176   1.341   9.621   1.901  2.6528 -3.0810  0.6102
  698MOL0     H94177   1.432   9.717   2.184 -2.8517 -2.5218  3.6682
  698MOL0     H94178   1.307   9.598   2.153  1.9964 -0.4697  0.8599
  698MOL0     H94179   1.146   9.762   2.119  0.0723  0.1751  1.1128
  698MOL0     H94180   1.240   9.823   2.243 -3.2444 -2.1043  0.0950
  698MOL0     H94181   1.387  10.048   2.204  0.4654  0.3594 -1.2456
  698MOL0     H94182   1.315  10.338   1.934  0.9725  1.7961  0.7658
  698MOL0     H94183   1.324  10.326   2.110 -1.4725  1.8377 -1.8996
  698MOL0     H94184   1.543  10.414   2.063 -2.6223  1.1956  0.0272
  698MOL0     H94185   1.563  10.246   2.076  1.4268  0.7088 -1.0299
  698MOL0     H94186   1.505  10.382   1.809  0.0546  2.0454  1.7216
  698MOL0     H94187   1.542  10.205   1.834 -0.2992 -1.7456  2.2360
  698MOL0     H94188   1.771  10.253   1.904 -1.7785  0.1751 -0.0481
  698MOL0     H94189   1.740  10.431   1.876 -0.6392  0.4254  0.8597
  698MOL0     H94190   1.782  10.082   1.616  0.6358 -1.4729  0.9970
  698MOL0     H94191   2.005   9.991   1.568  0.6560  0.7028 -3.2496
  698MOL0     H94192   2.407   9.900   1.359 -0.0142 -1.4246 -0.3633
  698MOL0     H94193   2.607   9.759   1.381 -2.6842 -0.5811 -2.2075
  698MOL0     H94194   2.705   9.617   1.811  2.2469  0.6399  0.5265
  698MOL0     H94195   2.644   9.481   1.748 -2.1976  2.0917  1.2120
  698MOL0     H94196   2.845   9.421   1.800 -2.1213  0.4478  0.0567
  698MOL0     H94197   2.871   9.448   1.624  0.8370 -0.4446  0.8639
  698MOL0     H94198   3.053   9.531   1.716  0.1616  0.8415 -0.2093
  698MOL0     H94199   2.961   9.676   1.679 -2.1089  0.8230  1.5547
  698MOL0     H94200   2.988   9.526   1.963  0.2697 -1.2006  0.1271
  698MOL0     H94201   2.909   9.685   1.944  1.8449  1.4639  4.6287
  698MOL0     H94202   3.139   9.767   1.844  0.8707  1.5392  1.7085
  698MOL0     H94203   3.215   9.628   1.906  1.6236  0.9734 -0.5660
  698MOL0     H94204   3.220   9.814   2.090  2.5798 -3.5786 -0.9136
  698MOL0     H94205   3.045   9.839   2.061  2.4027  2.7786 -1.3613
  698MOL0     H94206   3.164   9.567   2.151  0.3460  0.5389 -0.4577
  698MOL0     H94207   2.998   9.618   2.159  0.4315 -1.3504 -3.1255
  698MOL0     H94208   3.134   9.619   2.375 -2.1704  1.7456 -0.0480
  698MOL0     H94209   3.245   9.737   2.313  0.4907  1.0704  0.6970
  698MOL0     H94210   2.493   9.658   1.772 -0.0630 -1.0490  0.5569
  698MOL0     H94211   2.293   9.819   1.764 -1.3898  0.1305 -0.9909
  698MOL0     H94212   2.188  10.349   1.712  0.7943 -0.5027 -0.4167
  698MOL0     H94213   1.978  10.443   1.748  3.9409  1.1062  0.2097
  698MOL0     H94214   2.145   9.516   2.103  0.2135  1.9829  2.0450
  698MOL0     H94215   2.322   9.429   2.219 -2.6893  0.1400 -1.0141
  698MOL0     H94216   2.733   9.534   2.413 -0.0191  0.2835 -1.0652
  698MOL0     H94217   2.926   9.508   2.543 -1.1568 -1.5435  1.8288
  698MOL0     H94218   3.143   9.122   2.523 -0.5815 -0.8107  0.3757
  698MOL0     H94219   3.225   9.207   2.639 -0.1243  3.0028  1.0712
  698MOL0     H94220   3.242   9.272   2.336 -1.8063  0.1928 -0.1794
  698MOL0     H94221   3.357   9.152   2.424 -0.5102 -0.4403 -0.3178
  698MOL0     H94222   3.389   9.410   2.554 -2.3279  2.3667 -0.7406
  698MOL0     H94223   3.364   9.459   2.399  1.2054 -0.5533 -1.1668
  698MOL0     H94224   3.574   9.250   2.468 -2.5156  0.7801  1.5078
  698MOL0     H94225   3.530   9.293   2.299 -0.5125 -2.6436  0.2500
  698MOL0     H94226   3.771   9.616   2.429 -1.2873  1.0443 -3.0803
  698MOL0     H94227   3.036   9.164   2.294  2.0514  3.4835 -6.3732
  698MOL0     H94228   2.805   9.224   2.025 -0.4265 -0.8016 -0.5199
  698MOL0     H94229   2.969   9.223   2.057  0.5774 -1.0875 -0.2424
  698MOL0     H94230   2.864   9.088   2.113 -0.4199 -0.0440 -5.3972
  699MOL0     O94231   6.144   4.570   2.430  0.5354 -0.2749  0.4008
  699MOL0     C94232   6.203   4.575   2.321 -0.4257  0.2568 -0.9605
  699MOL0     O94233   6.299   4.486   2.276  0.3037  0.8027  0.3507
  699MOL0     C94234   6.330   4.385   2.361  0.3882 -0.0381  0.4496
  699MOL0     C94235   6.247   4.283   2.363  0.5229 -0.0597 -0.1868
  699MOL0     C94236   6.279   4.169   2.432  0.4851 -0.0506  0.5427
  699MOL0     C94237   6.399   4.164   2.505 -0.7292 -0.1830 -1.4079
  699MOL0     O94238   6.441   4.053   2.576 -0.1208  0.1319  0.0214
  699MOL0     C94239   6.384   4.041   2.704  0.3557  0.5808 -0.0905
  699MOL0     C94240   6.349   3.890   2.737 -0.4087  0.5022 -0.0374
  699MOL0     C94241   6.464   3.791   2.721  0.0098 -0.3251 -0.7877
  699MOL0     C94242   6.587   3.818   2.803 -0.1449  0.6023 -0.6677
  699MOL0     C94243   6.551   3.798   2.949  0.3884 -0.5784 -0.0478
  699MOL0     C94244   6.670   3.817   3.050  0.1088 -0.4585  0.0582
  699MOL0     C94245   6.779   3.709   3.038  0.1005  0.5250  0.9545
  699MOL0     C94246   6.855   3.700   3.163 -0.1981 -0.5988 -0.8886
  699MOL0     N94247   6.974   3.622   3.158  0.3362 -0.6318  0.1569
  699MOL0     C94248   7.058   3.594   3.265 -0.5120  0.2019  1.2542
  699MOL0     C94249   7.171   3.550   3.214  0.2194  0.3798 -0.3486
  699MOL0     C94250   7.294   3.512   3.285 -1.5291  0.3269 -0.2964
  699MOL0     C94251   7.388   3.405   3.218 -0.0218 -0.0793 -0.5907
  699MOL0     C94252   7.517   3.349   3.288  0.3239  0.2820 -0.5521
  699MOL0     C94253   7.618   3.463   3.316 -0.0309 -0.0886  0.0588
  699MOL0     O94254   7.750   3.405   3.329 -0.2750  0.1424 -0.1200
  699MOL0     C94255   7.854   3.497   3.354  0.3843 -0.6684  0.0273
  699MOL0     C94256   7.968   3.460   3.420  0.3032  0.7016 -0.2126
  699MOL0     C94257   8.075   3.543   3.452  0.3267  0.0170  0.7782
  699MOL0     C94258   8.060   3.676   3.428 -0.2284 -0.2192 -0.6379
  699MOL0     C94259   8.154   3.780   3.487  0.2248 -1.0055  0.2671
  699MOL0     O94260   8.150   3.905   3.428  0.5011  0.7785 -0.0763
  699MOL0     C94261   8.209   4.010   3.486  0.4361  0.1795  0.2117
  699MOL0     C94262   8.148   4.072   3.590 -0.4443  0.1469 -0.7598
  699MOL0     C94263   8.208   4.186   3.639  0.7867 -0.6816  0.8417
  699MOL0     C94264   8.325   4.238   3.587 -0.2040  0.6505 -0.4340
  699MOL0     O94265   8.386   4.355   3.624  0.3159 -0.3427 -0.0337
  699MOL0     C94266   8.295   4.457   3.663  0.6765  0.2569 -1.1840
  699MOL0     C94267   8.390   4.584   3.668 -0.2385  0.0977 -0.0887
  699MOL0     C94268   8.333   4.708   3.736  1.1185 -0.0215  1.1050
  699MOL0     C94269   8.174   4.730   3.717 -0.1145 -0.9215  1.1533
  699MOL0     C94270   8.112   4.845   3.800 -0.6071  0.5457 -0.2627
  699MOL0     C94271   8.166   4.986   3.767 -0.2887 -0.9810  0.6512
  699MOL0     C94272   8.133   5.040   3.623 -0.0753 -0.2707 -0.8067
  699MOL0     C94273   8.182   5.178   3.618 -0.5967  0.6164  0.1526
  699MOL0    Cl94274   8.034   5.279   3.591  0.1873 -0.2196  0.0931
  699MOL0     C94275   8.390   4.160   3.490  1.0147 -0.9597  0.7742
  699MOL0     C94276   8.331   4.057   3.428 -0.4167 -0.8599  1.0024
  699MOL0     O94277   8.211   3.763   3.593  0.5223 -0.0003  0.1582
  699MOL0     C94278   7.955   3.716   3.344 -1.0612 -0.4363  0.4851
  699MOL0     C94279   7.851   3.630   3.315  1.4356 -0.3258  0.5407
  699MOL0     N94280   7.148   3.541   3.077  0.2122  0.0309  0.7864
  699MOL0     N94281   7.042   3.594   3.042  0.3934  0.3218  0.5192
  699MOL0     C94282   6.485   4.273   2.503 -0.8529  0.4680  0.5765
  699MOL0     C94283   6.452   4.381   2.424  0.8253  0.9873 -0.1286
  699MOL0     C94284   6.176   4.688   2.233 -0.5490 -0.6220  0.2175
  699MOL0     C94285   6.264   4.799   2.242  0.3844  0.3491 -1.2290
  699MOL0     C94286   6.233   4.920   2.173  0.5097  0.5101  0.0945
  699MOL0     C94287   6.105   4.931   2.107  0.0005  0.4369  0.3322
  699MOL0     O94288   6.057   5.044   2.047 -0.0963 -0.1441 -0.2739
  699MOL0     C94289   6.038   5.161   2.125 -0.5022 -0.3420  0.8819
  699MOL0     C94290   5.923   5.140   2.225 -0.4418  0.1540 -0.2128
  699MOL0     C94291   5.878   5.283   2.271  0.4842 -0.0463 -0.1956
  699MOL0     C94292   5.767   5.292   2.368  0.5612  0.3824 -0.4790
  699MOL0     C94293   5.742   5.431   2.393  0.3906  0.2203  0.1116
  699MOL0     C94294   5.718   5.541   2.415  0.1654 -0.7816  0.0096
  699MOL0     C94295   6.040   4.815   2.080  0.6732 -0.6842 -0.0187
  699MOL0     C94296   6.063   4.700   2.149  0.5428 -0.6309 -0.8988
  699MOL0     C94297   5.964   4.581   2.143  0.5831  0.1919  1.4638
  699MOL0     H94298   6.155   4.279   2.307  0.6898 -3.0038 -0.4301
  699MOL0     H94299   6.215   4.082   2.425  0.4572 -0.0128  0.3097
  699MOL0     H94300   6.449   4.076   2.785  2.6600 -0.0561 -1.5465
  699MOL0     H94301   6.292   4.100   2.716  2.6242  4.1277  1.7371
  699MOL0     H94302   6.266   3.857   2.674 -2.7285  2.4434  1.7948
  699MOL0     H94303   6.330   3.886   2.845  1.3659 -5.3615  0.4107
  699MOL0     H94304   6.475   3.785   2.612 -4.2658  1.5696 -1.5063
  699MOL0     H94305   6.433   3.691   2.753 -0.4900  0.7426  2.3720
  699MOL0     H94306   6.669   3.751   2.776  0.6293  2.1693 -2.4681
  699MOL0     H94307   6.626   3.918   2.781 -0.5887  0.6335 -1.3379
  699MOL0     H94308   6.480   3.877   2.975 -0.2328 -1.8656  2.4748
  699MOL0     H94309   6.499   3.705   2.973 -0.5548  0.4159  1.9954
  699MOL0     H94310   6.705   3.921   3.050 -2.5370  0.6245  2.9946
  699MOL0     H94311   6.630   3.794   3.150  0.6490 -2.1192 -0.0850
  699MOL0     H94312   6.855   3.740   2.966 -0.2544 -0.3201  0.2077
  699MOL0     H94313   6.728   3.615   3.017 -0.8738  1.4723 -1.1596
  699MOL0     H94314   6.885   3.800   3.195  1.5065 -1.7960  1.5917
  699MOL0     H94315   6.804   3.653   3.248  1.5099 -0.8710  0.0212
  699MOL0     H94316   7.039   3.606   3.371 -2.3551  1.3831  0.8151
  699MOL0     H94317   7.345   3.609   3.288  1.4584 -0.8181 -4.6175
  699MOL0     H94318   7.272   3.472   3.385  2.0543  0.9975  0.8872
  699MOL0     H94319   7.311   3.330   3.199 -1.7327  1.4576 -0.0221
  699MOL0     H94320   7.419   3.443   3.120 -0.4841  3.1879  0.4142
  699MOL0     H94321   7.564   3.269   3.230 -0.3414 -0.8051  0.3780
  699MOL0     H94322   7.481   3.297   3.377 -3.4323 -1.6229 -2.9272
  699MOL0     H94323   7.583   3.528   3.397 -2.9691  1.1619 -2.0336
  699MOL0     H94324   7.624   3.520   3.224  2.0572  1.4737  1.0832
  699MOL0     H94325   7.968   3.359   3.459  1.2587 -0.5257 -3.1578
  699MOL0     H94326   8.164   3.498   3.496  0.8339 -0.1816 -0.4294
  699MOL0     H94327   8.062   4.034   3.644 -0.0692  0.3689  0.0059
  699MOL0     H94328   8.162   4.247   3.716  0.3364  2.2643 -1.5668
  699MOL0     H94329   8.213   4.471   3.592 -1.1699  1.3384  1.0110
  699MOL0     H94330   8.249   4.439   3.760  3.0237 -2.2780 -0.4230
  699MOL0     H94331   8.486   4.559   3.714 -1.7670 -1.7820  2.3084
  699MOL0     H94332   8.420   4.613   3.566 -1.1822  1.2396 -0.0621
  699MOL0     H94333   8.351   4.700   3.843  0.7684 -1.3366  1.0830
  699MOL0     H94334   8.382   4.800   3.703  1.7695 -0.7480  0.0166
  699MOL0     H94335   8.112   4.643   3.739  0.1848 -1.7629 -1.0983
  699MOL0     H94336   8.166   4.766   3.613  1.2771  0.5116  1.5022
  699MOL0     H94337   8.153   4.832   3.900  0.0571 -0.5909 -0.6704
  699MOL0     H94338   8.003   4.834   3.800 -0.5437 -0.2707 -1.4790
  699MOL0     H94339   8.151   5.051   3.854 -0.1922 -1.4213  0.9977
  699MOL0     H94340   8.276   4.986   3.765 -0.1681  0.9479  2.8739
  699MOL0     H94341   8.025   5.040   3.607 -0.0376  0.8921 -1.1319
  699MOL0     H94342   8.184   4.976   3.550 -0.2237  1.2546 -2.2999
  699MOL0     H94343   8.232   5.206   3.711  5.5282 -2.0534 -1.8135
  699MOL0     H94344   8.259   5.201   3.543 -0.8488 -1.0364 -0.6583
  699MOL0     H94345   8.480   4.192   3.440 -0.3518  0.9671 -0.6404
  699MOL0     H94346   8.370   4.011   3.337 -0.0174  1.1075  0.1344
  699MOL0     H94347   7.944   3.822   3.325  0.2436 -0.3891 -0.1749
  699MOL0     H94348   7.760   3.668   3.268  0.5483 -1.6896  1.1001
  699MOL0     H94349   6.573   4.281   2.566  0.3492 -0.5909 -0.8911
  699MOL0     H94350   6.506   4.476   2.425 -3.8783  4.0551  2.5448
  699MOL0     H94351   6.350   4.797   2.308 -0.7992  0.2678  0.3628
  699MOL0     H94352   6.297   5.006   2.188  2.0879 -0.8281  1.4288
  699MOL0     H94353   6.005   5.239   2.055 -1.2003 -0.4810  1.0426
  699MOL0     H94354   6.135   5.180   2.172 -0.5365  0.3124  0.7083
  699MOL0     H94355   5.958   5.078   2.309  3.8846  0.5489 -1.4936
  699MOL0     H94356   5.838   5.091   2.177 -0.2553 -0.9077  0.4940
  699MOL0     H94357   5.861   5.348   2.185 -0.2571 -0.8680 -0.6807
  699MOL0     H94358   5.963   5.328   2.324 -0.8383  1.9618  0.3346
  699MOL0     H94359   5.680   5.246   2.320 -0.2655  1.7329 -0.3162
  699MOL0     H94360   5.799   5.241   2.459  2.6673  3.7558  0.8280
  699MOL0     H94361   5.701   5.646   2.429 -1.4171 -0.6116 -2.4248
  699MOL0     H94362   5.952   4.813   2.016 -0.7084 -1.3987  1.8203
  699MOL0     H94363   6.007   4.488   2.104 -0.7600 -0.9343  2.5472
  699MOL0     H94364   5.932   4.553   2.244 -0.3852 -1.8598  0.6355
  699MOL0     H94365   5.880   4.606   2.077 -0.8408 -2.4301  2.1126
  700MOL0     O94366   0.016   2.489   3.236  0.2420 -0.1941 -0.5438
  700MOL0     C94367   0.055   2.378   3.188 -0.0499 -0.5612  0.1626
  700MOL0     O94368  -0.020   2.273   3.158 -0.3628  0.7832  0.9792
  700MOL0     C94369  -0.149   2.259   3.198 -0.4808 -0.6279 -1.1558
  700MOL0     C94370  -0.201   2.304   3.323  0.0513 -0.5620 -0.3746
  700MOL0     C94371  -0.329   2.270   3.376  0.0153 -0.2484  0.0484
  700MOL0     C94372  -0.410   2.187   3.298 -0.1805 -0.9278  0.0795
  700MOL0     O94373  -0.537   2.138   3.338 -1.2044  0.5748  0.4624
  700MOL0     C94374  -0.611   2.198   3.440 -0.1074 -0.5618 -0.3743
  700MOL0     C94375  -0.754   2.132   3.459  0.1370 -0.7536  0.7204
  700MOL0     C94376  -0.850   2.221   3.531  0.1054  1.1939  0.0672
  700MOL0     C94377  -0.832   2.208   3.683 -0.8230 -0.2810  0.6668
  700MOL0     C94378  -0.919   2.312   3.758  0.0991  0.4931 -0.5887
  700MOL0     C94379  -0.902   2.461   3.743 -0.0222 -0.7841  0.4067
  700MOL0     C94380  -1.003   2.557   3.810 -0.0843  0.0388  0.4514
  700MOL0     C94381  -0.980   2.696   3.747 -0.3084 -0.3583 -0.4581
  700MOL0     N94382  -1.052   2.803   3.812  0.4369  0.1779  0.1539
  700MOL0     C94383  -1.019   2.847   3.939  0.3944 -0.5981 -0.3722
  700MOL0     C94384  -1.124   2.928   3.959  0.1529 -0.1641  0.1639
  700MOL0     C94385  -1.161   3.010   4.074  0.4276 -0.2834 -0.6745
  700MOL0     C94386  -1.110   3.155   4.077  0.5950 -0.0514  0.0560
  700MOL0     C94387  -0.957   3.172   4.065 -0.1083  0.2414 -0.0959
  700MOL0     C94388  -0.925   3.318   4.074  0.2643  0.2506  0.2424
  700MOL0     O94389  -1.009   3.380   3.978 -0.0147 -0.5181  0.3265
  700MOL0     C94390  -0.953   3.499   3.937 -0.5324  0.7012 -0.1627
  700MOL0     C94391  -0.960   3.534   3.801  0.2492 -0.3135  0.1510
  700MOL0     C94392  -0.896   3.634   3.743  0.0429 -0.6601 -0.7702
  700MOL0     C94393  -0.840   3.729   3.830 -0.8163 -0.9916 -0.5201
  700MOL0     C94394  -0.787   3.858   3.786  0.3660 -0.3467 -0.8674
  700MOL0     O94395  -0.676   3.900   3.859  0.3236 -0.4791  0.7996
  700MOL0     C94396  -0.611   4.013   3.819  0.5450 -0.0515  0.2342
  700MOL0     C94397  -0.648   4.135   3.878  0.3681 -0.0314  0.3995
  700MOL0     C94398  -0.608   4.258   3.817 -0.0979 -0.9781 -0.4538
  700MOL0     C94399  -0.520   4.262   3.709  1.1146  0.6178 -0.2677
  700MOL0     O94400  -0.468   4.377   3.654  0.0800 -0.5917  0.4991
  700MOL0     C94401  -0.386   4.462   3.742 -0.6943  0.6257 -0.6534
  700MOL0     C94402  -0.322   4.585   3.664  0.6706  0.1675 -0.3490
  700MOL0     C94403  -0.218   4.542   3.559 -0.3699  1.2819 -0.5403
  700MOL0     C94404  -0.100   4.632   3.543 -0.0222 -0.4671 -0.1607
  700MOL0     C94405   0.038   4.561   3.576 -0.4731 -1.1949  0.1287
  700MOL0     C94406   0.154   4.662   3.557  0.1295 -0.1505  0.7147
  700MOL0     C94407   0.288   4.584   3.571  0.8278  0.0006  0.4716
  700MOL0     C94408   0.395   4.681   3.561 -0.5605  0.1018 -0.1957
  700MOL0    Cl94409   0.393   4.778   3.404  0.5735  0.2630  0.1641
  700MOL0     C94410  -0.478   4.134   3.660 -0.3152  0.3882 -0.1095
  700MOL0     C94411  -0.520   4.013   3.714  0.7378  0.0715  0.2659
  700MOL0     O94412  -0.838   3.918   3.692 -0.3899 -0.0435 -0.8590
  700MOL0     C94413  -0.832   3.705   3.968 -0.1360  0.5567  0.4890
  700MOL0     C94414  -0.892   3.590   4.022 -1.0421  0.0246 -0.0820
  700MOL0     N94415  -1.213   2.929   3.851  0.0963  0.0515  0.0440
  700MOL0     N94416  -1.172   2.836   3.765 -0.0855 -0.9821 -0.5662
  700MOL0     C94417  -0.358   2.144   3.177 -0.7155 -0.0342  0.9008
  700MOL0     C94418  -0.234   2.176   3.125 -0.8712 -0.7304 -0.0357
  700MOL0     C94419   0.202   2.364   3.178  0.6475 -0.6664 -0.0374
  700MOL0     C94420   0.244   2.227   3.170 -0.6374 -0.5128  0.2377
  700MOL0     C94421   0.373   2.192   3.146 -0.8738 -0.5976  0.0640
  700MOL0     C94422   0.470   2.294   3.124 -0.4222  0.4274 -0.6345
  700MOL0     O94423   0.603   2.270   3.092  0.3234 -0.1776 -0.3077
  700MOL0     C94424   0.633   2.137   3.041  0.0655  0.0322  0.3043
  700MOL0     C94425   0.751   2.141   2.935  0.2966 -0.4640  0.1286
  700MOL0     C94426   0.885   2.192   2.994  0.4875 -0.0448 -0.5477
  700MOL0     C94427   1.002   2.173   2.892  0.9310 -0.1630 -0.7969
  700MOL0     C94428   0.991   2.261   2.781  0.9291 -0.2779  0.0709
  700MOL0     C94429   0.998   2.344   2.688 -0.0972  0.4846 -1.0539
  700MOL0     C94430   0.432   2.434   3.126 -0.1001  0.2236 -0.6789
  700MOL0     C94431   0.299   2.471   3.150  0.8893 -0.8109  0.0278
  700MOL0     C94432   0.274   2.618   3.137  0.3950  1.3598 -0.1474
  700MOL0     H94433  -0.125   2.350   3.384 -0.7864  1.2345 -0.6135
  700MOL0     H94434  -0.370   2.314   3.466  0.2036  3.5027 -1.5170
  700MOL0     H94435  -0.565   2.197   3.540  0.7781  2.3038 -0.6690
  700MOL0     H94436  -0.633   2.303   3.421  0.6544 -0.5396 -1.2014
  700MOL0     H94437  -0.757   2.036   3.511 -2.4606 -1.1986 -0.1359
  700MOL0     H94438  -0.786   2.100   3.360  0.2919 -3.9435  1.5840
  700MOL0     H94439  -0.956   2.216   3.505  1.0416 -0.7907 -4.4919
  700MOL0     H94440  -0.829   2.321   3.490  0.2112  0.7534 -0.9977
  700MOL0     H94441  -0.867   2.108   3.708 -3.1546  0.4149  0.3852
  700MOL0     H94442  -0.729   2.240   3.705  0.5759  1.8619 -6.4454
  700MOL0     H94443  -1.021   2.280   3.736  0.3709 -1.5610  0.9113
  700MOL0     H94444  -0.892   2.293   3.862  3.4601 -2.2950 -1.8069
  700MOL0     H94445  -0.803   2.493   3.777 -1.1751  1.1645  2.1438
  700MOL0     H94446  -0.899   2.489   3.638 -2.3481 -0.1809  0.4438
  700MOL0     H94447  -0.983   2.561   3.917 -1.6101 -0.2428  0.7594
  700MOL0     H94448  -1.107   2.528   3.796  0.0520 -1.2400  1.8779
  700MOL0     H94449  -0.878   2.734   3.747 -1.0047  1.8844 -3.2969
  700MOL0     H94450  -1.002   2.697   3.640 -3.1967  0.6865  0.0555
  700MOL0     H94451  -0.936   2.813   4.000  1.9668  0.2303 -1.9853
  700MOL0     H94452  -1.270   3.016   4.082  0.4362 -0.1032 -0.6888
  700MOL0     H94453  -1.128   2.957   4.164  0.6499  0.9112 -0.0243
  700MOL0     H94454  -1.176   3.218   4.016  1.2612 -0.3632 -1.0187
  700MOL0     H94455  -1.129   3.180   4.182  0.9220 -2.3857  0.7189
  700MOL0     H94456  -0.934   3.123   3.969  0.0614 -1.0594  0.5863
  700MOL0     H94457  -0.908   3.130   4.153  2.9785  2.9737 -0.3060
  700MOL0     H94458  -0.818   3.326   4.049 -0.2387  0.0650 -2.2056
  700MOL0     H94459  -0.942   3.362   4.173  1.8623  0.1060  0.6164
  700MOL0     H94460  -1.033   3.479   3.742 -0.2834  0.7043 -0.1626
  700MOL0     H94461  -0.904   3.647   3.635  2.0865 -1.2535 -1.0301
  700MOL0     H94462  -0.721   4.126   3.958 -1.6267 -2.0837 -1.4692
  700MOL0     H94463  -0.643   4.347   3.867 -0.6573 -1.7406  0.5263
  700MOL0     H94464  -0.453   4.490   3.824  0.6330  0.1451  0.6257
  700MOL0     H94465  -0.313   4.394   3.786 -2.6695 -2.9658 -2.4262
  700MOL0     H94466  -0.393   4.655   3.620  0.8726 -0.5309 -1.8637
  700MOL0     H94467  -0.266   4.630   3.747 -2.0706  2.0849  0.6051
  700MOL0     H94468  -0.184   4.444   3.593 -3.4194 -0.1986 -1.3528
  700MOL0     H94469  -0.258   4.535   3.457 -2.2660  0.3708  0.2084
  700MOL0     H94470  -0.105   4.719   3.609  3.1868 -0.6863  0.5419
  700MOL0     H94471  -0.104   4.678   3.444 -2.0135 -0.9138 -0.3088
  700MOL0     H94472   0.050   4.480   3.504 -2.7597 -0.4094 -1.2407
  700MOL0     H94473   0.032   4.527   3.680 -0.4676 -0.6324  0.3157
  700MOL0     H94474   0.147   4.705   3.457  0.8603  2.3922  1.6888
  700MOL0     H94475   0.156   4.747   3.625 -4.5786 -0.8044  2.0839
  700MOL0     H94476   0.306   4.520   3.483 -0.9437 -0.2676  0.2764
  700MOL0     H94477   0.292   4.530   3.666  2.0721 -1.4145 -0.3226
  700MOL0     H94478   0.388   4.749   3.646  0.2780  1.3196 -1.0500
  700MOL0     H94479   0.491   4.628   3.563  0.6449  1.8849 -2.9697
  700MOL0     H94480  -0.410   4.148   3.576  2.7043  0.5822  2.1672
  700MOL0     H94481  -0.476   3.918   3.685  2.7748  0.3929  1.9621
  700MOL0     H94482  -0.781   3.774   4.035  1.2240  0.1872 -0.1317
  700MOL0     H94483  -0.869   3.567   4.125 -0.3765 -2.3855 -0.6941
  700MOL0     H94484  -0.409   2.080   3.106 -0.7558  1.8004 -0.8306
  700MOL0     H94485  -0.188   2.126   3.040  3.6342  2.3740  0.1891
  700MOL0     H94486   0.172   2.148   3.189 -2.9514  0.8242 -2.1453
  700MOL0     H94487   0.394   2.086   3.152  1.7278 -0.2601 -1.4165
  700MOL0     H94488   0.541   2.096   2.998  0.2638 -1.1536  0.9563
  700MOL0     H94489   0.660   2.063   3.117  2.0419 -0.0738 -0.4465
  700MOL0     H94490   0.718   2.204   2.852 -0.0197 -0.0962  0.5225
  700MOL0     H94491   0.761   2.040   2.897 -2.6233 -0.0242 -2.1703
  700MOL0     H94492   0.911   2.141   3.088 -1.3676  3.2152  1.9769
  700MOL0     H94493   0.877   2.297   3.024  2.5446 -0.3082  1.2209
  700MOL0     H94494   1.099   2.185   2.942  0.1636 -0.8551  0.9542
  700MOL0     H94495   0.997   2.067   2.865 -0.4275 -0.8854  1.8479
  700MOL0     H94496   1.008   2.423   2.616  1.4236  1.3034 -0.0296
  700MOL0     H94497   0.502   2.517   3.116 -1.0435  0.7680 -4.0529
  700MOL0     H94498   0.221   2.645   3.228  1.7889  0.1807  1.0803
  700MOL0     H94499   0.365   2.679   3.134  0.9153  0.5793 -0.8647
  700MOL0     H94500   0.222   2.638   3.043 -1.8930 -1.4130  0.3980
  701MOL0     O94501   6.902   4.477   4.860  0.0233  0.3224 -0.2895
  701MOL0     C94502   6.986   4.424   4.931  0.6373 -0.4483  0.0791
  701MOL0     O94503   6.971   4.408   5.070  0.2577  0.0460  0.3224
  701MOL0     C94504   6.848   4.455   5.111 -0.0989 -0.0577 -0.1178
  701MOL0     C94505   6.726   4.395   5.085  0.8613 -0.4295  0.3240
  701MOL0     C94506   6.602   4.455   5.129 -0.6125  0.3692 -0.1551
  701MOL0     C94507   6.605   4.575   5.200 -0.4652 -0.7858 -0.2779
  701MOL0     O94508   6.488   4.631   5.237 -0.3674 -0.2002  0.4608
  701MOL0     C94509   6.475   4.770   5.255 -0.1807 -0.6525 -0.2233
  701MOL0     C94510   6.324   4.786   5.232  0.9209  0.1651  0.4467
  701MOL0     C94511   6.272   4.925   5.239  0.7337 -0.1502  0.2605
  701MOL0     C94512   6.151   4.935   5.140 -0.6279  0.1472  0.1984
  701MOL0     C94513   6.014   4.940   5.212 -0.0122 -0.8454 -0.0776
  701MOL0     C94514   5.972   5.080   5.253  0.5173  0.1131  0.0995
  701MOL0     C94515   5.942   5.177   5.142 -0.1963 -0.0145  0.1710
  701MOL0     C94516   5.789   5.166   5.112  0.2713  0.2551  0.0242
  701MOL0     N94517   5.755   5.273   5.022  0.0816  0.2972  0.5424
  701MOL0     C94518   5.798   5.279   4.891 -0.3213 -0.0802 -0.4333
  701MOL0     C94519   5.759   5.398   4.838  0.8502 -0.3602 -0.8968
  701MOL0     C94520   5.779   5.463   4.709 -0.1845  0.1605  0.1857
  701MOL0     C94521   5.904   5.550   4.693  0.6421  0.5020 -0.4579
  701MOL0     C94522   5.934   5.674   4.784 -0.1969 -0.2307  1.0335
  701MOL0     C94523   6.002   5.644   4.910 -0.7010  0.2636  0.8398
  701MOL0     O94524   6.129   5.585   4.861  0.0552 -1.1150 -0.3083
  701MOL0     C94525   6.192   5.503   4.953  0.0072 -0.5797  1.3183
  701MOL0     C94526   6.179   5.531   5.093  0.0858  0.7853 -0.1513
  701MOL0     C94527   6.256   5.470   5.188 -0.1227  0.0689 -0.1252
  701MOL0     C94528   6.354   5.380   5.153  0.0112  0.6702  0.0495
  701MOL0     C94529   6.439   5.323   5.254 -0.3255 -0.2656  0.4327
  701MOL0     O94530   6.428   5.364   5.379  0.5091  0.4480 -0.4366
  701MOL0     C94531   6.504   5.308   5.479  0.6993  0.7967 -0.1451
  701MOL0     C94532   6.529   5.167   5.478 -0.7492  0.2314 -0.3791
  701MOL0     C94533   6.623   5.124   5.570 -0.0881  0.8565 -0.5735
  701MOL0     C94534   6.656   5.197   5.687 -0.6454 -0.4874  0.1981
  701MOL0     O94535   6.723   5.150   5.799 -1.2078  0.7977 -0.3211
  701MOL0     C94536   6.673   5.187   5.924  0.6462 -0.1445  0.3250
  701MOL0     C94537   6.784   5.165   6.021  0.5115  0.5014 -0.0847
  701MOL0     C94538   6.917   5.223   5.985 -0.1963  0.4973  0.2035
  701MOL0     C94539   6.923   5.377   5.970 -0.6194 -0.8773  0.9992
  701MOL0     C94540   7.060   5.432   5.933  0.0414  0.4049 -0.5417
  701MOL0     C94541   7.108   5.403   5.794 -0.4391  0.6656  0.6247
  701MOL0     C94542   7.245   5.470   5.764 -0.0975  0.2710 -0.4491
  701MOL0     C94543   7.320   5.411   5.647  0.5651 -0.1010  0.2687
  701MOL0    Cl94544   7.482   5.486   5.637  0.3363 -0.3433 -0.3607
  701MOL0     C94545   6.630   5.336   5.682 -0.1366  0.1060 -0.1591
  701MOL0     C94546   6.550   5.387   5.585  0.3941 -0.5172 -0.0823
  701MOL0     O94547   6.522   5.242   5.207  0.3642 -0.0435 -0.4362
  701MOL0     C94548   6.375   5.349   5.016 -0.9436  0.0240 -0.0483
  701MOL0     C94549   6.297   5.412   4.918 -0.3191  0.1639  0.2741
  701MOL0     N94550   5.684   5.467   4.931 -0.1330 -0.1632 -0.0981
  701MOL0     N94551   5.692   5.397   5.043  0.1519  0.4493 -0.6769
  701MOL0     C94552   6.728   4.636   5.220 -0.6313  0.1936 -0.2374
  701MOL0     C94553   6.850   4.580   5.177 -0.3343  0.2596  0.1622
  701MOL0     C94554   7.099   4.352   4.867 -0.0408  1.2652  0.5665
  701MOL0     C94555   7.140   4.231   4.926 -0.1843  0.1659 -0.8714
  701MOL0     C94556   7.236   4.154   4.869 -0.6587  0.0047  0.7152
  701MOL0     C94557   7.297   4.196   4.743  0.7045  0.5113  0.1000
  701MOL0     O94558   7.377   4.104   4.693  0.2846 -0.0587  0.3145
  701MOL0     C94559   7.428   4.111   4.559  0.4881 -0.1752  0.3891
  701MOL0     C94560   7.582   4.128   4.557 -0.2834  0.3952  0.3433
  701MOL0     C94561   7.651   4.003   4.595 -0.2479 -0.3852 -0.0637
  701MOL0     C94562   7.811   4.020   4.585  0.4556 -0.8452 -0.2889
  701MOL0     C94563   7.887   3.931   4.669  0.1861  0.7876  0.9926
  701MOL0     C94564   7.947   3.848   4.735  0.6928  0.2971  0.0278
  701MOL0     C94565   7.264   4.320   4.690  1.3892 -0.2121  0.0184
  701MOL0     C94566   7.157   4.391   4.744 -0.7411 -0.4216  0.5386
  701MOL0     C94567   7.109   4.518   4.663 -0.0261  0.4415  0.5433
  701MOL0     H94568   6.720   4.302   5.030 -0.6316 -0.8225  1.1129
  701MOL0     H94569   6.527   4.380   5.106  0.5043 -0.5965 -0.7829
  701MOL0     H94570   6.508   4.798   5.355  2.2283  2.4155 -1.7285
  701MOL0     H94571   6.534   4.818   5.176 -0.8573  2.1626  0.8895
  701MOL0     H94572   6.279   4.718   5.305 -0.3971  0.7650  0.2068
  701MOL0     H94573   6.305   4.748   5.132  0.6236  0.7073  0.2944
  701MOL0     H94574   6.351   4.999   5.220  0.9827 -0.3831  0.3950
  701MOL0     H94575   6.233   4.951   5.338  0.7504 -0.8745  0.4585
  701MOL0     H94576   6.178   5.025   5.085  1.3030  0.1757  1.1116
  701MOL0     H94577   6.150   4.856   5.064  0.3556  0.1004  0.2172
  701MOL0     H94578   5.942   4.897   5.142  1.7257  0.2948 -2.7408
  701MOL0     H94579   6.022   4.875   5.300  2.4234  0.8585  1.0818
  701MOL0     H94580   5.886   5.077   5.321  0.4510  0.9177  0.0622
  701MOL0     H94581   6.055   5.117   5.314  0.2260 -2.8775  2.5503
  701MOL0     H94582   6.003   5.149   5.055  1.6431 -2.8100  2.2060
  701MOL0     H94583   5.975   5.274   5.181  0.2322 -0.4074  0.7914
  701MOL0     H94584   5.746   5.072   5.078 -3.8184  2.9278 -3.2484
  701MOL0     H94585   5.734   5.190   5.203  1.4113 -0.2291  0.8685
  701MOL0     H94586   5.859   5.213   4.830  2.0017  1.9462 -0.4833
  701MOL0     H94587   5.791   5.378   4.642  0.5522  2.0988 -2.2716
  701MOL0     H94588   5.685   5.514   4.683  0.7583  1.7779 -0.1668
  701MOL0     H94589   5.987   5.479   4.697  0.3682  0.2277  3.1799
  701MOL0     H94590   5.896   5.582   4.589 -0.1904  0.7455 -0.3264
  701MOL0     H94591   5.835   5.713   4.811 -0.9319 -1.3130 -0.0071
  701MOL0     H94592   5.988   5.748   4.724 -0.1741 -1.0663 -0.0037
  701MOL0     H94593   5.945   5.571   4.968 -1.6133  0.3441  0.0614
  701MOL0     H94594   6.000   5.735   4.970  2.4985  0.4868  0.7716
  701MOL0     H94595   6.106   5.603   5.126  0.2156  0.6853  0.3744
  701MOL0     H94596   6.242   5.489   5.294  1.9252 -0.4757  0.2785
  701MOL0     H94597   6.475   5.109   5.404  0.2369 -0.9042 -0.2447
  701MOL0     H94598   6.633   5.016   5.570 -1.1955  0.7499 -0.5609
  701MOL0     H94599   6.635   5.289   5.933 -0.4357 -0.4419 -0.6256
  701MOL0     H94600   6.590   5.123   5.957  1.5122 -1.1893  0.5607
  701MOL0     H94601   6.746   5.202   6.117 -1.5474  0.4165 -0.8229
  701MOL0     H94602   6.808   5.062   6.046  2.3175  0.8575 -0.1814
  701MOL0     H94603   6.979   5.211   6.074 -0.6921 -1.7586  0.2907
  701MOL0     H94604   6.973   5.169   5.907  0.0950  2.0756 -0.7369
  701MOL0     H94605   6.891   5.428   6.061  2.1229  4.2566 -0.5258
  701MOL0     H94606   6.849   5.416   5.898 -0.7672 -2.5383  0.2053
  701MOL0     H94607   7.142   5.404   6.000 -0.5568 -0.2479 -0.0668
  701MOL0     H94608   7.056   5.540   5.954  2.0698  0.0492  2.3669
  701MOL0     H94609   7.124   5.294   5.791 -0.0891  0.6480  2.0888
  701MOL0     H94610   7.038   5.437   5.718  1.7620  4.0862 -0.0908
  701MOL0     H94611   7.311   5.458   5.850  3.0457 -1.4381 -2.8614
  701MOL0     H94612   7.225   5.577   5.750 -1.6796 -0.0361 -0.7101
  701MOL0     H94613   7.336   5.304   5.665  3.7581  0.5202  1.6848
  701MOL0     H94614   7.270   5.420   5.550 -5.5131  0.0261  2.9804
  701MOL0     H94615   6.664   5.401   5.763 -1.0496 -0.0572  0.3739
  701MOL0     H94616   6.530   5.491   5.607  2.6160 -0.1588  0.4092
  701MOL0     H94617   6.450   5.275   4.994  0.4885  1.6260 -0.7210
  701MOL0     H94618   6.298   5.378   4.815 -0.2288  2.4367 -0.5409
  701MOL0     H94619   6.739   4.731   5.271 -1.9063 -0.4978  1.3971
  701MOL0     H94620   6.942   4.630   5.206 -0.6973  1.4494 -0.6739
  701MOL0     H94621   7.099   4.200   5.022 -3.0532  1.4451 -1.5797
  701MOL0     H94622   7.277   4.067   4.920  0.0386  0.1150  0.3536
  701MOL0     H94623   7.380   4.199   4.515 -2.7996 -1.0065  2.0039
  701MOL0     H94624   7.398   4.019   4.508  3.7452 -1.8242  1.1825
  701MOL0     H94625   7.607   4.203   4.633  1.0074 -0.3866  0.7290
  701MOL0     H94626   7.625   4.152   4.459 -0.6992 -0.4993 -0.0597
  701MOL0     H94627   7.608   3.928   4.529 -2.4452  1.0617 -0.3694
  701MOL0     H94628   7.628   3.967   4.696 -1.2474  1.4634  0.4103
  701MOL0     H94629   7.843   4.026   4.480  0.6205  1.4957 -0.1743
  701MOL0     H94630   7.830   4.117   4.633 -1.4461 -1.7870  2.6105
  701MOL0     H94631   7.998   3.772   4.790 -1.8389 -1.4822  0.0839
  701MOL0     H94632   7.313   4.362   4.603  3.6692  0.3259  1.4768
  701MOL0     H94633   7.000   4.519   4.656 -0.2446 -1.7965  2.4006
  701MOL0     H94634   7.144   4.614   4.704  3.6263 -0.1258 -0.8810
  701MOL0     H94635   7.152   4.511   4.563  2.8829 -0.6722  1.7407
  702MOL0     O94636   3.713   5.801   0.335 -0.0414  0.1184 -0.8406
  702MOL0     C94637   3.705   5.903   0.271  0.1690 -0.2605 -0.2040
  702MOL0     O94638   3.796   5.944   0.170 -0.6586  0.0820 -0.3121
  702MOL0     C94639   3.903   5.858   0.146 -0.6330  0.1626  0.3727
  702MOL0     C94640   4.019   5.890   0.214  0.4996 -0.6614  1.0437
  702MOL0     C94641   4.139   5.811   0.198 -0.5345 -0.2234 -0.0876
  702MOL0     C94642   4.135   5.699   0.110  1.1284  0.1020 -0.0926
  702MOL0     O94643   4.241   5.616   0.095  0.6442  0.6706 -0.1795
  702MOL0     C94644   4.216   5.480   0.057 -1.0746 -0.0800 -0.8279
  702MOL0     C94645   4.345   5.406   0.052 -0.0712  0.2452 -0.0633
  702MOL0     C94646   4.435   5.441   0.173 -1.0523 -1.0544  0.4888
  702MOL0     C94647   4.568   5.373   0.146  0.5043 -0.1775 -0.5103
  702MOL0     C94648   4.669   5.420   0.251 -0.7399  0.2481  1.0213
  702MOL0     C94649   4.790   5.332   0.264 -0.8010 -1.1302  2.0896
  702MOL0     C94650   4.766   5.191   0.305  0.4087  0.8489  0.4479
  702MOL0     C94651   4.888   5.141   0.374  0.2258  0.5036  0.5354
  702MOL0     N94652   4.877   5.012   0.439 -0.7158  0.2578 -0.0038
  702MOL0     C94653   4.855   4.889   0.376 -0.7796 -0.2169  0.5269
  702MOL0     C94654   4.820   4.804   0.469 -0.1449  0.5015  0.1798
  702MOL0     C94655   4.757   4.667   0.445  0.6847  0.2744 -0.4655
  702MOL0     C94656   4.812   4.585   0.324 -1.0749 -0.2864  0.1570
  702MOL0     C94657   4.759   4.441   0.325  0.1521 -0.1753  0.0976
  702MOL0     C94658   4.621   4.422   0.264  0.0580 -0.9922  0.5662
  702MOL0     O94659   4.616   4.452   0.122  0.2640 -0.1724  0.4460
  702MOL0     C94660   4.492   4.447   0.052 -1.7187 -0.3346  0.8457
  702MOL0     C94661   4.509   4.454  -0.086  0.2487 -0.4676 -0.0367
  702MOL0     C94662   4.393   4.438  -0.165 -0.3326 -0.1100  0.3199
  702MOL0     C94663   4.265   4.394  -0.113 -0.5006 -0.0890  0.0654
  702MOL0     C94664   4.151   4.359  -0.202 -0.3548  0.2052 -0.3303
  702MOL0     O94665   4.189   4.340  -0.336  0.1509 -0.3304 -0.3680
  702MOL0     C94666   4.097   4.303  -0.436  0.5181 -0.4868  0.6156
  702MOL0     C94667   4.142   4.217  -0.526 -0.2298  0.2073 -0.3474
  702MOL0     C94668   4.071   4.180  -0.634 -0.2111  0.8733 -0.1236
  702MOL0     C94669   3.944   4.220  -0.655  0.2213 -0.4861  0.0478
  702MOL0     O94670   3.861   4.172  -0.750  0.1181  0.1866  0.3693
  702MOL0     C94671   3.856   4.027  -0.769  0.0041 -0.6489 -0.1834
  702MOL0     C94672   3.837   4.009  -0.918 -1.0577 -0.3520 -0.4884
  702MOL0     C94673   3.961   4.043  -1.014  0.7053 -0.3860  0.6942
  702MOL0     C94674   4.004   3.932  -1.113  0.4967 -0.0768 -0.4045
  702MOL0     C94675   4.042   3.801  -1.042  0.1188 -1.1464  0.1184
  702MOL0     C94676   4.072   3.691  -1.144 -0.2747 -0.5362  0.2745
  702MOL0     C94677   4.114   3.558  -1.079  0.3507 -1.2501 -0.8097
  702MOL0     C94678   4.184   3.456  -1.174 -0.1865 -0.4695  0.6362
  702MOL0    Cl94679   4.069   3.336  -1.243  0.2807  0.0643 -0.0150
  702MOL0     C94680   3.889   4.308  -0.569 -0.5396 -0.0447 -0.3307
  702MOL0     C94681   3.969   4.347  -0.454 -0.2719  0.2116  0.7447
  702MOL0     O94682   4.038   4.338  -0.150  0.2444  0.3222  0.1672
  702MOL0     C94683   4.266   4.381   0.028  0.9630 -0.2945  0.7968
  702MOL0     C94684   4.371   4.411   0.108  0.4450  0.3109  0.2457
  702MOL0     N94685   4.826   4.871   0.592 -0.3881  0.6457 -0.5860
  702MOL0     N94686   4.868   4.991   0.573  0.2138 -0.1345  0.3798
  702MOL0     C94687   4.011   5.660   0.052  0.4248  0.4046 -0.7658
  702MOL0     C94688   3.900   5.745   0.069 -0.0335 -0.1253  0.2879
  702MOL0     C94689   3.602   6.010   0.308 -0.3561 -0.1411  0.4575
  702MOL0     C94690   3.630   6.140   0.257  1.3007 -0.2475  0.4166
  702MOL0     C94691   3.528   6.242   0.265 -0.7971  1.1839  0.2498
  702MOL0     C94692   3.401   6.196   0.295  0.1182 -0.7839 -0.2810
  702MOL0     O94693   3.295   6.276   0.273  0.3656  0.6902 -0.3101
  702MOL0     C94694   3.237   6.250   0.148 -0.1116  0.2871 -0.2055
  702MOL0     C94695   3.143   6.362   0.114  0.0841  0.3864 -0.2131
  702MOL0     C94696   3.192   6.474   0.015 -0.5495  0.0250  0.2399
  702MOL0     C94697   3.327   6.521   0.070  0.5103 -0.1538 -0.7582
  702MOL0     C94698   3.357   6.663   0.052  0.6691  0.2178  0.3342
  702MOL0     C94699   3.357   6.782   0.046 -0.1784 -0.3449 -0.1592
  702MOL0     C94700   3.379   6.071   0.346  0.3395 -1.6120  0.2033
  702MOL0     C94701   3.482   5.984   0.373  0.6399 -0.7605 -0.2654
  702MOL0     C94702   3.445   5.862   0.443  0.5074  1.0989 -0.3267
  702MOL0     H94703   4.022   5.995   0.242  1.1417 -0.2390 -0.5251
  702MOL0     H94704   4.237   5.850   0.222 -0.0138 -0.8287 -1.1798
  702MOL0     H94705   4.154   5.428   0.132 -1.7394 -0.3962 -1.5830
  702MOL0     H94706   4.185   5.476  -0.048 -2.7980  3.3376 -0.6060
  702MOL0     H94707   4.399   5.433  -0.040  3.3886 -2.9964  0.7435
  702MOL0     H94708   4.328   5.299   0.059 -2.3275  0.5706  0.1393
  702MOL0     H94709   4.388   5.426   0.271  1.3124  0.8278  2.0089
  702MOL0     H94710   4.456   5.547   0.157 -0.0630 -1.0195  1.7839
  702MOL0     H94711   4.568   5.264   0.156  3.3988 -0.5943 -3.1620
  702MOL0     H94712   4.613   5.384   0.047  2.3600  0.4466  0.3497
  702MOL0     H94713   4.703   5.523   0.238  3.6458 -1.1382 -0.2290
  702MOL0     H94714   4.615   5.406   0.345  0.2166  3.6347  2.2116
  702MOL0     H94715   4.836   5.320   0.166 -1.3552 -1.3629  1.8553
  702MOL0     H94716   4.863   5.385   0.326 -1.4542  0.8764  1.2238
  702MOL0     H94717   4.735   5.138   0.214 -2.0369  2.0778  0.4802
  702MOL0     H94718   4.681   5.182   0.373  0.7605 -1.7263  0.6463
  702MOL0     H94719   4.963   5.123   0.297 -0.6614  0.1333 -0.2498
  702MOL0     H94720   4.914   5.224   0.441 -1.4631  1.5535 -0.0680
  702MOL0     H94721   4.856   4.880   0.268  2.2326  0.5604  0.3969
  702MOL0     H94722   4.756   4.609   0.537 -0.2358  1.5551  0.3628
  702MOL0     H94723   4.654   4.679   0.410  0.6101  0.8652 -0.0488
  702MOL0     H94724   4.773   4.642   0.239  0.9682 -0.2011 -0.7804
  702MOL0     H94725   4.920   4.593   0.317 -1.2879  1.9053 -1.8493
  702MOL0     H94726   4.745   4.417   0.430 -3.1928  0.7059 -0.0422
  702MOL0     H94727   4.838   4.383   0.276 -2.3228 -2.1128 -1.9070
  702MOL0     H94728   4.547   4.482   0.318  2.3651  2.3112  0.3464
  702MOL0     H94729   4.605   4.315   0.283  1.7765 -1.6376 -1.2410
  702MOL0     H94730   4.609   4.475  -0.124 -0.0577 -0.4858 -0.8732
  702MOL0     H94731   4.401   4.433  -0.273 -1.7227 -2.3673  0.2644
  702MOL0     H94732   4.242   4.176  -0.512 -0.6461 -0.4237  0.8989
  702MOL0     H94733   4.111   4.110  -0.707 -1.8567 -1.7713  1.3362
  702MOL0     H94734   3.937   3.973  -0.719 -1.9021 -1.2702  2.4636
  702MOL0     H94735   3.765   3.981  -0.731  0.4117 -1.3315 -0.0064
  702MOL0     H94736   3.816   3.904  -0.941  1.3739 -1.2940  1.1811
  702MOL0     H94737   3.763   4.080  -0.954 -0.1364  1.4949  1.0763
  702MOL0     H94738   3.948   4.132  -1.076 -0.5038 -0.5029  0.7502
  702MOL0     H94739   4.047   4.064  -0.949  0.1263 -0.6204  1.5604
  702MOL0     H94740   4.091   3.963  -1.171  0.4610 -0.9947 -0.9764
  702MOL0     H94741   3.919   3.914  -1.181 -0.4025 -1.8867  1.1017
  702MOL0     H94742   3.966   3.751  -0.980  0.1576 -0.5546  0.6553
  702MOL0     H94743   4.124   3.826  -0.974 -0.2223  0.9627 -0.1874
  702MOL0     H94744   3.981   3.685  -1.205 -0.3847  0.0645  0.3631
  702MOL0     H94745   4.152   3.718  -1.213 -0.4588 -0.6797  0.0048
  702MOL0     H94746   4.031   3.516  -1.021  0.4982 -4.2849 -2.6262
  702MOL0     H94747   4.188   3.590  -1.005  0.5722 -1.6383 -0.8637
  702MOL0     H94748   4.214   3.509  -1.265 -1.1357 -4.3800 -2.2114
  702MOL0     H94749   4.263   3.405  -1.119 -2.8034 -6.0372 -0.1411
  702MOL0     H94750   3.790   4.353  -0.572  0.3943  2.2410  0.5170
  702MOL0     H94751   3.927   4.419  -0.384  3.0290  0.7729  2.3188
  702MOL0     H94752   4.176   4.344   0.075 -1.4719  0.9356 -2.4995
  702MOL0     H94753   4.361   4.401   0.216  1.7480  1.2573  0.4817
  702MOL0     H94754   3.987   5.570  -0.003 -0.2090 -0.3998  0.7527
  702MOL0     H94755   3.805   5.716   0.025 -0.0886 -1.1936  1.0885
  702MOL0     H94756   3.721   6.150   0.199  0.6646 -1.9601 -0.9812
  702MOL0     H94757   3.551   6.343   0.233 -0.9594  1.6688  1.6003
  702MOL0     H94758   3.189   6.153   0.159  1.2127 -0.2606  1.1243
  702MOL0     H94759   3.311   6.242   0.067 -0.6351 -0.7060 -0.5957
  702MOL0     H94760   3.116   6.415   0.206  2.8458  0.0746  0.8977
  702MOL0     H94761   3.058   6.312   0.066  1.6181 -1.0613 -1.5810
  702MOL0     H94762   3.122   6.559   0.010 -1.4894 -0.6105  1.8471
  702MOL0     H94763   3.198   6.446  -0.090  1.6328  1.1911 -0.0056
  702MOL0     H94764   3.323   6.519   0.180 -1.0456 -2.4748 -0.7914
  702MOL0     H94765   3.413   6.468   0.028  1.6833 -2.2747  3.6419
  702MOL0     H94766   3.377   6.887   0.033  3.5990 -1.0453 -1.2964
  702MOL0     H94767   3.277   6.056   0.379  0.4391 -3.3320 -0.1913
  702MOL0     H94768   3.459   5.776   0.377  3.5312  0.8242  0.5310
  702MOL0     H94769   3.523   5.850   0.519  0.5636  0.6907 -0.4481
  702MOL0     H94770   3.354   5.862   0.503  1.3640 -1.8058  1.1510
  703MOL0     O94771  10.104   7.051   3.558  0.4293 -0.0025  0.2502
  703MOL0     C94772  10.124   7.164   3.525 -0.1522 -1.2839  0.3702
  703MOL0     O94773  10.034   7.246   3.459 -0.6934  0.3150  0.3424
  703MOL0     C94774   9.914   7.196   3.442 -0.3211  0.6198  0.7388
  703MOL0     C94775   9.818   7.251   3.523  0.1914  0.2005 -1.1616
  703MOL0     C94776   9.683   7.222   3.511  0.7099 -0.5160 -0.6990
  703MOL0     C94777   9.639   7.135   3.404 -1.3673  0.7405 -0.8446
  703MOL0     O94778   9.509   7.114   3.370 -0.1883 -0.6523  0.4280
  703MOL0     C94779   9.415   7.171   3.460  1.4204 -0.6553  0.1801
  703MOL0     C94780   9.273   7.152   3.406 -0.2461  0.1345  0.2292
  703MOL0     C94781   9.170   7.142   3.512  0.9382 -0.4047  0.1662
  703MOL0     C94782   9.034   7.132   3.437  0.4303 -0.0841 -0.0386
  703MOL0     C94783   8.912   7.108   3.524 -0.2721  0.4770 -0.7203
  703MOL0     C94784   8.905   6.962   3.566  0.6758  0.0155 -0.1154
  703MOL0     C94785   8.811   6.959   3.690 -0.7017 -0.1436  0.1418
  703MOL0     C94786   8.874   6.909   3.817  0.7848 -0.0890  0.8971
  703MOL0     N94787   8.888   6.760   3.817 -0.1419 -0.5177  0.2148
  703MOL0     C94788   9.003   6.694   3.801  0.5303  0.2397  0.5102
  703MOL0     C94789   8.976   6.567   3.848 -0.3734 -0.2640  0.1218
  703MOL0     C94790   9.074   6.456   3.865 -0.7388  0.6379  0.8506
  703MOL0     C94791   9.075   6.356   3.745  0.5626 -0.0871  0.7188
  703MOL0     C94792   9.147   6.227   3.780  0.2591  0.2914  0.0882
  703MOL0     C94793   9.180   6.140   3.657 -0.7631  0.1039 -0.6260
  703MOL0     O94794   9.297   6.176   3.585  0.1640  0.9802  0.1506
  703MOL0     C94795   9.409   6.181   3.654 -0.0146  0.1499 -0.0278
  703MOL0     C94796   9.457   6.307   3.687 -0.4578 -0.1319  0.4994
  703MOL0     C94797   9.575   6.315   3.760 -0.3532 -0.0699 -0.3062
  703MOL0     C94798   9.640   6.199   3.818  0.0138 -0.6341 -0.3951
  703MOL0     C94799   9.756   6.204   3.899 -0.9318  0.0433 -0.1380
  703MOL0     O94800   9.836   6.318   3.878  0.5858  0.6753 -0.2747
  703MOL0     C94801   9.960   6.322   3.922 -0.0524 -0.9063 -0.6486
  703MOL0     C94802  10.051   6.221   3.898 -0.9178  0.1425 -1.2924
  703MOL0     C94803  10.179   6.227   3.959  0.0395  0.5637 -0.1378
  703MOL0     C94804  10.216   6.339   4.046 -0.0970 -0.2057  0.9435
  703MOL0     O94805  10.339   6.356   4.105  0.4519  0.2427 -0.4277
  703MOL0     C94806  10.463   6.285   4.065  0.1646  0.4920 -0.3500
  703MOL0     C94807  10.572   6.385   4.014  0.0360  0.4092 -0.0687
  703MOL0     C94808  10.573   6.397   3.862 -1.0881 -0.0614  0.2824
  703MOL0     C94809  10.620   6.271   3.795  0.3051 -0.5289 -0.0576
  703MOL0     C94810  10.581   6.254   3.647 -0.1330 -0.5746 -0.0330
  703MOL0     C94811  10.430   6.250   3.623  0.0971 -0.2388  0.0540
  703MOL0     C94812  10.369   6.114   3.668  0.2710 -0.1104  0.2576
  703MOL0     C94813  10.225   6.091   3.614  0.6894  0.0494 -0.3166
  703MOL0    Cl94814  10.249   6.053   3.447  0.0395 -0.2253 -0.1955
  703MOL0     C94815  10.123   6.439   4.061 -0.2175 -1.0883  0.4494
  703MOL0     C94816  10.003   6.434   3.992 -0.5922 -0.1402 -0.8256
  703MOL0     O94817   9.797   6.109   3.966  0.0435 -0.1369 -0.0980
  703MOL0     C94818   9.584   6.072   3.796 -0.6280 -0.4668  0.4373
  703MOL0     C94819   9.471   6.059   3.708 -0.7870 -0.6749  0.2662
  703MOL0     N94820   8.842   6.559   3.875 -0.6425 -0.0542 -0.0768
  703MOL0     N94821   8.789   6.667   3.842 -0.3259  0.0598 -0.1183
  703MOL0     C94822   9.743   7.074   3.321  0.4785  0.1168 -1.1934
  703MOL0     C94823   9.881   7.102   3.340 -0.6391 -0.4929 -0.7220
  703MOL0     C94824  10.266   7.213   3.536 -0.0470 -0.8523  0.2287
  703MOL0     C94825  10.351   7.145   3.628  0.0906 -0.1359 -0.7709
  703MOL0     C94826  10.482   7.180   3.652 -0.6856 -0.3479 -0.2106
  703MOL0     C94827  10.538   7.279   3.578 -0.6416 -0.2924 -1.0360
  703MOL0     O94828  10.666   7.332   3.595  0.0196 -0.7629 -0.3677
  703MOL0     C94829  10.756   7.265   3.683  0.0182 -0.2020 -0.4463
  703MOL0     C94830  10.896   7.327   3.664  0.5715  0.4801  0.6070
  703MOL0     C94831  11.003   7.246   3.738  0.3498 -0.1892  0.3194
  703MOL0     C94832  11.139   7.304   3.755  0.3875  0.3055  0.5250
  703MOL0     C94833  11.130   7.411   3.861  0.8550  0.1940  0.0575
  703MOL0     C94834  11.127   7.506   3.939 -0.2180  0.8498 -0.2085
  703MOL0     C94835  10.460   7.339   3.479 -0.2036  0.1277  0.6029
  703MOL0     C94836  10.324   7.319   3.465  1.4258  0.7703 -0.5088
  703MOL0     C94837  10.249   7.405   3.374  0.1145  0.2155 -0.5919
  703MOL0     H94838   9.851   7.305   3.611  0.1832  0.3364 -1.2419
  703MOL0     H94839   9.612   7.280   3.569  0.5294  1.2518 -2.5580
  703MOL0     H94840   9.418   7.113   3.553 -0.7041 -2.0010 -0.5033
  703MOL0     H94841   9.429   7.279   3.472 -0.4728 -0.2522 -0.9053
  703MOL0     H94842   9.269   7.065   3.341 -1.1046  0.2988  0.0564
  703MOL0     H94843   9.262   7.238   3.338  0.4909  0.4976  0.5536
  703MOL0     H94844   9.176   7.236   3.567 -1.2597  0.1636 -0.4478
  703MOL0     H94845   9.178   7.052   3.573 -2.3247 -2.8174 -2.5253
  703MOL0     H94846   9.013   7.231   3.395 -0.2003 -0.3577 -0.3868
  703MOL0     H94847   9.021   7.064   3.352  2.0808 -1.2895  0.6096
  703MOL0     H94848   8.924   7.166   3.616 -1.6329 -1.5199  0.8206
  703MOL0     H94849   8.815   7.145   3.490 -1.3090  0.4667  1.9759
  703MOL0     H94850   8.858   6.911   3.482 -0.4269  1.1766 -0.2298
  703MOL0     H94851   9.002   6.920   3.594  1.0883  0.4924 -0.7999
  703MOL0     H94852   8.731   6.889   3.664  0.5072 -1.1156 -1.1170
  703MOL0     H94853   8.767   7.056   3.716 -1.2089 -0.4267  0.3557
  703MOL0     H94854   8.962   6.971   3.837  0.6498  1.3216 -2.3061
  703MOL0     H94855   8.801   6.938   3.893  0.2471  3.3732 -0.7554
  703MOL0     H94856   9.106   6.726   3.786  0.2603  2.5367  2.7347
  703MOL0     H94857   9.175   6.494   3.881 -0.2293 -0.0186 -0.5920
  703MOL0     H94858   9.044   6.395   3.951 -2.1750  1.6317  1.1050
  703MOL0     H94859   8.973   6.331   3.717  0.1923  1.1371  0.8926
  703MOL0     H94860   9.113   6.394   3.650  3.0622 -2.7841  0.5252
  703MOL0     H94861   9.074   6.169   3.836 -0.2365  0.9856  0.1707
  703MOL0     H94862   9.242   6.256   3.827  1.4311  1.0616 -2.5764
  703MOL0     H94863   9.089   6.152   3.598 -0.4917 -0.1080 -1.0890
  703MOL0     H94864   9.187   6.040   3.702 -1.4265  1.0748  1.8156
  703MOL0     H94865   9.395   6.389   3.653 -1.6826 -1.2291  0.0123
  703MOL0     H94866   9.631   6.406   3.778  0.6829 -0.3840 -1.7114
  703MOL0     H94867  10.027   6.138   3.832 -0.1045 -1.2364  0.0703
  703MOL0     H94868  10.250   6.147   3.941  0.4503  0.9518 -0.2552
  703MOL0     H94869  10.497   6.234   4.156  0.6377  0.3275 -0.6138
  703MOL0     H94870  10.432   6.206   3.996  0.6249 -1.3064  1.3994
  703MOL0     H94871  10.527   6.475   4.056  1.7223  1.4476 -0.4162
  703MOL0     H94872  10.669   6.361   4.058 -0.2176 -2.8339 -1.0237
  703MOL0     H94873  10.478   6.428   3.818  0.0387  0.7551 -1.7103
  703MOL0     H94874  10.643   6.474   3.827 -0.9985 -0.7925 -1.2533
  703MOL0     H94875  10.582   6.184   3.849  0.7584 -1.8160 -1.7044
  703MOL0     H94876  10.729   6.259   3.796  0.1828 -2.5037  3.4824
  703MOL0     H94877  10.622   6.158   3.615  0.0725 -0.6598  0.4708
  703MOL0     H94878  10.624   6.335   3.587 -4.5171  0.7553 -1.7569
  703MOL0     H94879  10.367   6.325   3.673 -2.0015 -0.9457 -1.4030
  703MOL0     H94880  10.409   6.268   3.517 -2.1566  1.3177  0.6697
  703MOL0     H94881  10.371   6.107   3.777 -0.0507 -1.5970  0.1897
  703MOL0     H94882  10.432   6.032   3.634 -0.2691  0.1003 -1.3517
  703MOL0     H94883  10.179   6.003   3.660 -1.7179  1.2182 -0.2903
  703MOL0     H94884  10.157   6.176   3.624  0.8108  0.0233  0.8247
  703MOL0     H94885  10.134   6.529   4.121  0.4068  0.0922 -1.3622
  703MOL0     H94886   9.925   6.509   4.002  0.9251  1.5222 -0.9030
  703MOL0     H94887   9.630   5.984   3.840  2.3554 -1.5207 -4.1218
  703MOL0     H94888   9.426   5.963   3.685 -2.2760 -0.1776  0.9728
  703MOL0     H94889   9.702   7.018   3.238 -0.8211  1.5822 -1.5872
  703MOL0     H94890   9.968   7.053   3.297  1.0655  1.3863  0.4124
  703MOL0     H94891  10.334   7.060   3.693  5.1104 -1.5671 -0.9090
  703MOL0     H94892  10.531   7.110   3.719 -3.7331 -1.0036  1.5341
  703MOL0     H94893  10.756   7.160   3.654  0.1107 -0.1242 -0.7295
  703MOL0     H94894  10.723   7.273   3.787 -1.6594 -0.8085 -0.8872
  703MOL0     H94895  10.899   7.433   3.689  1.5983  0.9065 -1.1340
  703MOL0     H94896  10.924   7.324   3.559 -0.0336 -1.6563  0.4638
  703MOL0     H94897  11.023   7.146   3.697  2.5899  0.0650  0.6692
  703MOL0     H94898  10.960   7.237   3.838  1.0477  0.1549  0.6547
  703MOL0     H94899  11.205   7.221   3.780  2.4730  1.0921 -1.9473
  703MOL0     H94900  11.170   7.341   3.657  0.7307 -1.9647 -0.2841
  703MOL0     H94901  11.117   7.581   4.015  0.5843  0.0160  0.7531
  703MOL0     H94902  10.501   7.425   3.426 -2.7971  1.5543  0.7248
  703MOL0     H94903  10.173   7.467   3.421 -0.4448  0.6101 -1.9614
  703MOL0     H94904  10.321   7.463   3.315  4.2773 -0.8491  2.9477
  703MOL0     H94905  10.191   7.351   3.299 -2.0962  0.2221  1.0066
  704MOL0     O94906   8.421   3.387   8.562  0.5452  0.0463  0.6355
  704MOL0     C94907   8.437   3.470   8.646 -0.5318  1.0032  0.1698
  704MOL0     O94908   8.369   3.466   8.769  0.1845 -0.9015 -0.3928
  704MOL0     C94909   8.293   3.363   8.819 -0.1222 -0.3407 -1.1301
  704MOL0     C94910   8.332   3.234   8.805 -0.2900  0.7968 -0.2274
  704MOL0     C94911   8.263   3.138   8.877 -0.1241  0.8410 -0.2530
  704MOL0     C94912   8.151   3.167   8.956  0.0073  0.7038 -0.4915
  704MOL0     O94913   8.084   3.058   9.003 -0.0049  0.5300 -0.6009
  704MOL0     C94914   8.158   2.946   9.067  0.2590 -0.3087  0.2239
  704MOL0     C94915   8.045   2.873   9.145 -0.9384 -0.2851  0.4068
  704MOL0     C94916   8.104   2.741   9.212 -0.1695  0.3449  0.8343
  704MOL0     C94917   7.990   2.653   9.278  0.6345 -0.1759 -0.4304
  704MOL0     C94918   8.047   2.507   9.320 -0.5066 -1.1579 -1.0308
  704MOL0     C94919   7.943   2.427   9.394 -0.2094 -0.9863  1.1673
  704MOL0     C94920   7.978   2.283   9.384 -0.2738  0.4800 -0.3144
  704MOL0     C94921   7.912   2.212   9.513  0.0036  0.2583 -0.5838
  704MOL0     N94922   7.949   2.075   9.511  0.7084  0.6377 -0.3856
  704MOL0     C94923   8.046   2.015   9.590 -0.0510 -0.2232  0.2097
  704MOL0     C94924   8.029   1.878   9.574  0.3022 -0.1575  0.9826
  704MOL0     C94925   8.075   1.773   9.664 -0.9809  0.6575 -0.4156
  704MOL0     C94926   8.076   1.827   9.806 -0.0803 -0.0992 -0.2387
  704MOL0     C94927   8.139   1.735   9.907  0.5946 -0.5252 -0.1386
  704MOL0     C94928   8.151   1.786  10.052 -0.6012 -0.1092  0.2747
  704MOL0     O94929   8.027   1.805  10.116 -0.1646 -0.4432  0.3380
  704MOL0     C94930   8.016   1.840  10.246 -0.5555 -0.1682  0.3633
  704MOL0     C94931   8.124   1.843  10.336 -0.7276  0.4495 -0.1468
  704MOL0     C94932   8.108   1.871  10.470  0.3225 -0.0792 -0.3026
  704MOL0     C94933   7.981   1.911  10.519 -0.5593  0.2039  0.4019
  704MOL0     C94934   7.957   1.929  10.662  0.3957 -0.2687 -0.7086
  704MOL0     O94935   8.051   1.884  10.746 -0.2130  0.6641 -0.4843
  704MOL0     C94936   8.043   1.887  10.878 -0.2357  0.2275  0.6384
  704MOL0     C94937   8.137   1.967  10.952 -0.5421 -0.0604  0.1572
  704MOL0     C94938   8.136   1.978  11.088  0.2600 -0.2138 -0.4635
  704MOL0     C94939   8.044   1.902  11.168  0.7344  0.2873 -0.6093
  704MOL0     O94940   8.039   1.897  11.309  0.1075 -0.0682  0.4154
  704MOL0     C94941   8.086   2.020  11.374 -0.0654 -1.0715  1.0470
  704MOL0     C94942   8.028   2.021  11.515 -0.5174 -0.0328  0.3477
  704MOL0     C94943   8.085   2.109  11.621 -1.2576  0.4378  0.1558
  704MOL0     C94944   8.042   2.098  11.773  0.0008 -1.0703 -0.6764
  704MOL0     C94945   7.893   2.110  11.801  0.1116 -0.3095 -0.9516
  704MOL0     C94946   7.861   2.077  11.941 -0.3983  0.1340  0.5634
  704MOL0     C94947   7.732   2.137  12.004  0.1618  0.3141 -0.6317
  704MOL0     C94948   7.603   2.118  11.922  0.7616 -0.3014  0.2640
  704MOL0    Cl94949   7.619   2.177  11.752 -0.3139  0.6228  0.3308
  704MOL0     C94950   7.952   1.816  11.096 -1.1605 -0.4660  0.0858
  704MOL0     C94951   7.952   1.813  10.958  0.2123 -0.3088 -0.4757
  704MOL0     O94952   7.856   1.999  10.690 -0.2623  0.6177  0.5520
  704MOL0     C94953   7.876   1.922  10.423  0.0822  0.4896  0.0998
  704MOL0     C94954   7.890   1.886  10.290 -0.0180  0.7109 -0.0823
  704MOL0     N94955   7.933   1.867   9.471  0.3003  0.5718 -0.0966
  704MOL0     N94956   7.882   1.975   9.435 -0.2173 -0.1143 -0.1536
  704MOL0     C94957   8.096   3.297   8.941 -0.4117  0.0232 -0.7044
  704MOL0     C94958   8.169   3.392   8.875 -0.3363 -0.0310  1.9415
  704MOL0     C94959   8.528   3.585   8.631  0.3137  0.7785  0.5840
  704MOL0     C94960   8.599   3.621   8.750  0.7176  0.2037  0.5204
  704MOL0     C94961   8.682   3.733   8.752 -0.5275  0.9873 -0.6157
  704MOL0     C94962   8.708   3.811   8.642  1.2545  0.3902  0.9341
  704MOL0     O94963   8.793   3.918   8.647  0.2535 -0.6117  0.4456
  704MOL0     C94964   8.883   3.923   8.539  0.2492 -0.0203 -0.8070
  704MOL0     C94965   9.008   4.004   8.585  0.7116 -0.8543  0.6071
  704MOL0     C94966   8.982   4.159   8.588  0.3890 -0.1705  0.6051
  704MOL0     C94967   9.003   4.228   8.723 -0.6669  1.0383  0.3814
  704MOL0     C94968   9.152   4.239   8.763 -0.6370  1.1694  0.6714
  704MOL0     C94969   9.268   4.228   8.795 -1.0295  0.1505  0.4040
  704MOL0     C94970   8.642   3.777   8.521  0.8330 -0.7224 -0.5957
  704MOL0     C94971   8.566   3.659   8.513 -0.5029  0.2104 -0.9420
  704MOL0     C94972   8.508   3.640   8.373 -0.7558 -0.0247  0.4450
  704MOL0     H94973   8.416   3.187   8.757 -0.3939 -1.9685  2.0157
  704MOL0     H94974   8.303   3.037   8.864  0.3966  0.9807  0.2015
  704MOL0     H94975   8.191   2.871   8.994  0.8049 -0.5883  0.7459
  704MOL0     H94976   8.235   2.983   9.136 -0.0442 -2.5281  1.8542
  704MOL0     H94977   7.973   2.825   9.078  0.6782 -1.4526 -0.5832
  704MOL0     H94978   8.009   2.939   9.224  0.9010  1.1827  0.0847
  704MOL0     H94979   8.183   2.774   9.280  0.1141  5.0034 -1.3482
  704MOL0     H94980   8.149   2.675   9.137 -3.5630 -2.0070  0.6645
  704MOL0     H94981   7.957   2.702   9.370 -0.3524 -2.1301  0.3178
  704MOL0     H94982   7.911   2.650   9.203  0.3809  2.5526 -0.3919
  704MOL0     H94983   8.073   2.461   9.224 -1.3816 -0.0421 -1.8217
  704MOL0     H94984   8.126   2.548   9.384 -1.6124  1.0971 -1.0105
  704MOL0     H94985   7.931   2.472   9.493 -0.1968  0.6403  0.4635
  704MOL0     H94986   7.843   2.433   9.350  1.2399 -2.0431 -2.6478
  704MOL0     H94987   8.087   2.273   9.387 -0.3539 -0.3294  0.0273
  704MOL0     H94988   7.937   2.255   9.287  0.2783 -0.8742 -0.1806
  704MOL0     H94989   7.964   2.245   9.603  2.0693 -2.5385 -0.6155
  704MOL0     H94990   7.806   2.239   9.523  0.1795  1.4545 -1.5918
  704MOL0     H94991   8.123   2.067   9.647  0.4609  0.4043 -0.9928
  704MOL0     H94992   8.003   1.691   9.672  1.7797 -1.6852  3.4008
  704MOL0     H94993   8.167   1.734   9.621 -2.2661 -2.4354 -0.6095
  704MOL0     H94994   8.150   1.908   9.812  2.1281 -2.0824  0.9665
  704MOL0     H94995   7.984   1.868   9.848  0.5869 -0.1877  1.3751
  704MOL0     H94996   8.242   1.713   9.878  1.1344  0.2730  1.1020
  704MOL0     H94997   8.086   1.640   9.900 -2.4691  1.1293 -1.4784
  704MOL0     H94998   8.214   1.875  10.061  1.1655 -1.4310  1.6602
  704MOL0     H94999   8.205   1.709  10.108 -0.4706 -0.8432 -0.8297
  704MOL0     H95000   8.223   1.842  10.292 -1.2426  1.3930 -1.3655
  704MOL0     H95001   8.193   1.871  10.537 -0.3896  1.8438  0.6954
  704MOL0     H95002   8.220   2.030  10.921  0.7609 -1.5309  0.5661
  704MOL0     H95003   8.196   2.057  11.132 -1.3551  1.4112 -1.0623
  704MOL0     H95004   8.192   2.026  11.397  0.0942 -0.1577  0.1622
  704MOL0     H95005   8.051   2.114  11.329  1.8453 -1.6783 -1.9352
  704MOL0     H95006   7.924   2.055  11.508 -0.5410 -0.1511  0.1202
  704MOL0     H95007   8.039   1.918  11.551  2.9798  0.2639  0.4368
  704MOL0     H95008   8.189   2.076  11.625 -0.9186  1.5777  1.7067
  704MOL0     H95009   8.079   2.216  11.599  1.4246  2.0131  5.3620
  704MOL0     H95010   8.106   2.149  11.846  0.8986  2.3254 -3.5387
  704MOL0     H95011   8.064   1.993  11.793  0.2821 -0.6856  1.2043
  704MOL0     H95012   7.843   2.042  11.731 -2.5659  2.3922 -1.8658
  704MOL0     H95013   7.868   2.216  11.789 -2.1427 -0.4522  1.5506
  704MOL0     H95014   7.875   1.968  11.942  3.3704  0.4800 -0.1579
  704MOL0     H95015   7.937   2.111  12.011 -0.7338  0.9698  0.5264
  704MOL0     H95016   7.748   2.244  12.020 -1.3846  0.4324  0.2783
  704MOL0     H95017   7.725   2.094  12.104  4.1252  3.0326  1.0818
  704MOL0     H95018   7.581   2.012  11.907  1.8336 -0.1860 -3.0569
  704MOL0     H95019   7.522   2.167  11.976  0.2488 -2.5001  1.6187
  704MOL0     H95020   7.878   1.763  11.156 -0.9846  0.3939  1.0935
  704MOL0     H95021   7.869   1.758  10.915 -0.8752 -0.7329  2.0076
  704MOL0     H95022   7.774   1.950  10.448 -1.5827 -0.2888 -4.8320
  704MOL0     H95023   7.805   1.886  10.222  1.4501  4.3541 -2.1649
  704MOL0     H95024   8.007   3.337   8.988 -2.2411 -1.5480 -2.6156
  704MOL0     H95025   8.133   3.494   8.866  2.0357  0.8000  1.0006
  704MOL0     H95026   8.585   3.565   8.843  1.9621  0.6240  0.9680
  704MOL0     H95027   8.731   3.752   8.847  0.8276 -2.0685 -0.5954
  704MOL0     H95028   8.844   3.977   8.452 -0.0185  0.7578 -0.2146
  704MOL0     H95029   8.916   3.821   8.515  0.5904  0.3082 -1.7848
  704MOL0     H95030   9.099   3.995   8.525  2.2819 -1.0186  2.8887
  704MOL0     H95031   9.044   3.972   8.683  0.1637  1.5863  1.6844
  704MOL0     H95032   8.883   4.179   8.546  0.5921 -3.1205 -1.5560
  704MOL0     H95033   9.050   4.201   8.513 -0.0830  1.9343  1.2878
  704MOL0     H95034   8.964   4.330   8.709  1.3701  1.7795 -0.2798
  704MOL0     H95035   8.944   4.168   8.792  0.2491 -1.1145 -0.6233
  704MOL0     H95036   9.372   4.227   8.819 -0.8136 -1.6180 -0.4564
  704MOL0     H95037   8.667   3.840   8.437  5.1590  0.2598  1.1664
  704MOL0     H95038   8.402   3.661   8.390 -0.5635 -0.4418  2.3680
  704MOL0     H95039   8.559   3.693   8.292  0.8596  1.4305  2.3242
  704MOL0     H95040   8.509   3.533   8.347 -1.9184 -0.0150  0.3098
  705MOL0     O95041   2.586   5.235   8.641  0.3564  0.0361  0.0349
  705MOL0     C95042   2.662   5.223   8.548 -0.3202 -0.3268  0.0302
  705MOL0     O95043   2.796   5.208   8.559 -0.5279 -0.7159 -1.2476
  705MOL0     C95044   2.854   5.209   8.682 -0.6235  0.1822  0.2832
  705MOL0     C95045   2.802   5.134   8.787 -0.1286 -0.0516 -0.1070
  705MOL0     C95046   2.863   5.143   8.912 -0.5490 -0.0404  0.3293
  705MOL0     C95047   2.979   5.222   8.929  0.2142 -0.2085 -0.2154
  705MOL0     O95048   3.051   5.241   9.041  0.0778  0.0758 -0.4900
  705MOL0     C95049   3.047   5.141   9.142 -0.6992  0.1570 -0.0319
  705MOL0     C95050   3.140   5.016   9.121 -0.1823 -0.7828 -0.3783
  705MOL0     C95051   3.285   5.053   9.078 -1.0155  0.0913 -0.6174
  705MOL0     C95052   3.385   4.994   9.176 -0.3830 -0.4963 -0.0225
  705MOL0     C95053   3.528   5.043   9.135  0.0670 -0.3973 -0.0922
  705MOL0     C95054   3.637   4.945   9.181  0.1655  0.0203 -0.0060
  705MOL0     C95055   3.774   4.976   9.130 -0.0199  0.2627 -0.5749
  705MOL0     C95056   3.879   4.901   9.206  0.3951  1.3412 -0.4062
  705MOL0     N95057   3.891   4.760   9.170 -0.1648 -0.4263  0.2510
  705MOL0     C95058   3.960   4.709   9.066 -0.2565 -0.0740 -0.2225
  705MOL0     C95059   3.924   4.575   9.051  0.1314 -0.1312 -0.0269
  705MOL0     C95060   3.969   4.469   8.958 -0.7345  0.1135 -0.5361
  705MOL0     C95061   4.087   4.385   9.008 -0.0479  0.4333  0.1386
  705MOL0     C95062   4.209   4.470   9.005  1.1533  0.2803  0.0370
  705MOL0     C95063   4.322   4.377   9.015 -0.0501  0.4427  0.6032
  705MOL0     O95064   4.347   4.334   8.881  0.0602 -0.3340  0.8078
  705MOL0     C95065   4.454   4.402   8.827  0.3169 -0.2604 -0.9588
  705MOL0     C95066   4.498   4.536   8.859 -0.7742 -0.0450 -0.6381
  705MOL0     C95067   4.617   4.582   8.812 -0.3178  0.6663 -0.1842
  705MOL0     C95068   4.701   4.499   8.733  0.5122  0.5306 -0.0725
  705MOL0     C95069   4.832   4.547   8.671 -0.7660  0.0011  0.3835
  705MOL0     O95070   4.820   4.677   8.627 -0.3232  0.2313  0.2358
  705MOL0     C95071   4.924   4.748   8.562 -0.0867 -0.7794 -0.1869
  705MOL0     C95072   4.875   4.849   8.481 -0.2082 -0.1151 -0.6087
  705MOL0     C95073   4.963   4.940   8.414  0.1464 -0.6806  0.2302
  705MOL0     C95074   5.106   4.943   8.427  1.3664  0.5897  1.1162
  705MOL0     O95075   5.201   5.014   8.363 -0.2771  0.7485  0.1615
  705MOL0     C95076   5.160   5.143   8.307 -0.1551  0.9499  0.2037
  705MOL0     C95077   5.285   5.208   8.258 -0.8552 -0.1564 -1.0873
  705MOL0     C95078   5.395   5.238   8.372  0.3690 -0.3095  0.3653
  705MOL0     C95079   5.529   5.292   8.327 -1.0637 -0.9892 -0.2286
  705MOL0     C95080   5.625   5.374   8.412 -0.1876 -1.9963 -0.3193
  705MOL0     C95081   5.762   5.407   8.343 -0.0903 -0.4765 -0.4469
  705MOL0     C95082   5.848   5.506   8.436  0.7907  0.3530  1.3802
  705MOL0     C95083   5.878   5.632   8.355 -0.1660 -0.6338 -0.9764
  705MOL0    Cl95084   5.748   5.746   8.368  0.4479 -0.1215  0.4103
  705MOL0     C95085   5.149   4.831   8.508 -0.2518 -0.1375  1.3536
  705MOL0     C95086   5.061   4.739   8.580  0.5600  0.8370 -0.7585
  705MOL0     O95087   4.933   4.473   8.661  0.7168  0.2162  0.1412
  705MOL0     C95088   4.654   4.361   8.711  1.2434 -0.4085  0.1673
  705MOL0     C95089   4.530   4.321   8.751  0.2639 -0.0168 -0.6341
  705MOL0     N95090   3.832   4.555   9.152 -1.0720  0.1014 -0.8178
  705MOL0     N95091   3.827   4.657   9.231 -0.8859 -0.3920  0.0214
  705MOL0     C95092   3.023   5.298   8.821 -0.1213 -0.7209  0.4883
  705MOL0     C95093   2.956   5.300   8.702  0.0776  0.5998  1.5103
  705MOL0     C95094   2.596   5.215   8.419  0.7713  0.4168 -0.0835
  705MOL0     C95095   2.681   5.172   8.313 -0.8246  0.1804  0.4465
  705MOL0     C95096   2.646   5.185   8.179  0.8743  0.9505  0.1982
  705MOL0     C95097   2.510   5.229   8.146  0.6789 -1.1234  0.3845
  705MOL0     O95098   2.457   5.237   8.024 -0.5995 -0.5777  0.5493
  705MOL0     C95099   2.528   5.175   7.909 -0.0191  0.2516  0.2426
  705MOL0     C95100   2.469   5.201   7.773  0.4678  0.3666  0.3931
  705MOL0     C95101   2.309   5.154   7.773 -1.0451  0.0493  0.4354
  705MOL0     C95102   2.274   5.011   7.766 -0.4706  0.8861  0.2915
  705MOL0     C95103   2.325   4.943   7.644  0.0410 -0.1148  0.0876
  705MOL0     C95104   2.374   4.895   7.547 -0.1033 -0.1595 -0.0755
  705MOL0     C95105   2.418   5.259   8.246  0.5878 -0.1711 -0.5604
  705MOL0     C95106   2.460   5.258   8.388  1.2042 -0.8039  0.4490
  705MOL0     C95107   2.348   5.287   8.492 -0.1425  0.2667  0.3470
  705MOL0     H95108   2.723   5.060   8.778  1.8686 -2.1183 -1.9035
  705MOL0     H95109   2.822   5.094   8.999  0.9169 -1.7417  0.1161
  705MOL0     H95110   3.076   5.197   9.232  1.7008  2.3628 -2.0350
  705MOL0     H95111   2.944   5.113   9.167 -1.5627  2.6829 -0.4713
  705MOL0     H95112   3.091   4.968   9.035  0.6181 -0.8309 -0.8199
  705MOL0     H95113   3.127   4.956   9.212  1.2945  2.6927  2.3446
  705MOL0     H95114   3.299   5.161   9.089 -0.2887  0.0607 -1.1570
  705MOL0     H95115   3.312   5.013   8.981  0.0044 -1.7253  0.3768
  705MOL0     H95116   3.360   5.022   9.278  1.2018 -1.2479  0.6181
  705MOL0     H95117   3.384   4.885   9.173 -1.9144 -0.5170  0.5192
  705MOL0     H95118   3.531   5.047   9.026 -2.1070  0.1847 -0.1800
  705MOL0     H95119   3.544   5.142   9.177  0.8531 -0.2466 -0.7191
  705MOL0     H95120   3.639   4.939   9.291  0.9526  0.3125  0.0063
  705MOL0     H95121   3.619   4.840   9.155  0.5908 -0.3476  1.0908
  705MOL0     H95122   3.792   5.082   9.146 -0.1863  0.6754 -2.8461
  705MOL0     H95123   3.781   4.959   9.023  0.4693  1.6413 -0.7799
  705MOL0     H95124   3.975   4.944   9.176  1.6165 -0.4865  0.6631
  705MOL0     H95125   3.861   4.923   9.311 -1.1069  2.6183 -0.8913
  705MOL0     H95126   4.044   4.752   9.013 -0.3081 -0.3098 -0.4955
  705MOL0     H95127   3.880   4.408   8.944  0.0972 -1.8264  1.7876
  705MOL0     H95128   3.993   4.506   8.858  2.4358 -0.3331 -0.0392
  705MOL0     H95129   4.057   4.342   9.104  1.7640 -2.4776 -0.4583
  705MOL0     H95130   4.116   4.295   8.952  2.0019  0.7868  0.5447
  705MOL0     H95131   4.203   4.540   9.088 -0.2711  1.4344 -0.9846
  705MOL0     H95132   4.210   4.545   8.924 -0.7466 -1.3829 -1.6429
  705MOL0     H95133   4.291   4.294   9.080 -1.1362  0.9310  0.7316
  705MOL0     H95134   4.410   4.427   9.058 -0.2900  1.0364  0.4069
  705MOL0     H95135   4.451   4.592   8.939 -0.3090 -0.4974 -0.0364
  705MOL0     H95136   4.654   4.681   8.839  3.2601 -0.1611 -1.5032
  705MOL0     H95137   4.767   4.851   8.474 -0.3042 -1.1827  0.4817
  705MOL0     H95138   4.912   5.016   8.357  1.9718  1.0871  0.8270
  705MOL0     H95139   5.080   5.128   8.235  0.7862  0.9832 -0.8797
  705MOL0     H95140   5.115   5.220   8.369 -1.5561 -0.2861  0.7802
  705MOL0     H95141   5.328   5.154   8.173  0.9050  1.5306 -1.3461
  705MOL0     H95142   5.260   5.304   8.213 -2.0742  0.3594  0.5950
  705MOL0     H95143   5.353   5.316   8.436  0.5518 -0.1451  0.2872
  705MOL0     H95144   5.407   5.147   8.432 -1.5770  0.7472  2.5162
  705MOL0     H95145   5.510   5.366   8.249  1.3067  0.5782  0.5691
  705MOL0     H95146   5.587   5.209   8.285 -0.3600 -0.6873  0.1270
  705MOL0     H95147   5.660   5.312   8.496 -0.5213  1.6833  2.7815
  705MOL0     H95148   5.582   5.471   8.435  1.0862 -1.8098  1.5709
  705MOL0     H95149   5.809   5.311   8.323 -2.3546 -1.8306  0.4074
  705MOL0     H95150   5.747   5.458   8.247  2.6844  1.6394  0.1101
  705MOL0     H95151   5.943   5.453   8.449  1.7676  1.6978  0.0346
  705MOL0     H95152   5.795   5.533   8.527 -2.2107  1.5217 -0.5816
  705MOL0     H95153   5.968   5.680   8.393  0.4181 -0.6167 -2.3061
  705MOL0     H95154   5.904   5.623   8.249 -1.8642 -0.3699 -1.4499
  705MOL0     H95155   5.255   4.812   8.499 -0.1195  0.0736  2.4167
  705MOL0     H95156   5.108   4.649   8.621 -0.1507 -0.8922 -3.5000
  705MOL0     H95157   4.708   4.290   8.648 -4.4669 -0.8742 -5.2094
  705MOL0     H95158   4.501   4.218   8.729  2.2586 -0.8901  0.5521
  705MOL0     H95159   3.115   5.354   8.833 -0.2118 -0.4794  0.0826
  705MOL0     H95160   2.994   5.354   8.615  0.8373 -3.0698 -0.6395
  705MOL0     H95161   2.784   5.143   8.330 -0.0853  0.7027 -2.4342
  705MOL0     H95162   2.716   5.171   8.097  2.3136 -1.4669  1.7307
  705MOL0     H95163   2.521   5.071   7.942 -3.3170  0.1950 -0.3130
  705MOL0     H95164   2.634   5.200   7.894 -0.1888 -0.1908 -2.1280
  705MOL0     H95165   2.520   5.143   7.696 -0.8315  1.6369 -1.5320
  705MOL0     H95166   2.483   5.301   7.730  2.3731 -0.3423 -0.7283
  705MOL0     H95167   2.266   5.214   7.693 -2.2523 -1.2864  0.0556
  705MOL0     H95168   2.263   5.193   7.864 -1.9156  0.7142 -0.2748
  705MOL0     H95169   2.297   4.961   7.860  0.8549 -0.3466 -0.6248
  705MOL0     H95170   2.166   4.999   7.751 -0.0070 -2.1865 -1.7768
  705MOL0     H95171   2.421   4.856   7.459 -1.9538  0.2610 -1.3072
  705MOL0     H95172   2.318   5.289   8.219  0.9963 -0.7837 -2.9496
  705MOL0     H95173   2.383   5.360   8.566  2.3798 -2.2638  1.8670
  705MOL0     H95174   2.247   5.317   8.460 -0.2506 -1.5273 -1.1718
  705MOL0     H95175   2.338   5.201   8.559 -1.3157  2.5876  3.4203
  706MOL0     O95176  10.403   2.127   6.667  0.4973  1.1012 -0.2153
  706MOL0     C95177  10.450   2.226   6.607  0.0899  0.2144  0.4665
  706MOL0     O95178  10.429   2.254   6.485  0.0232  0.2355 -0.4711
  706MOL0     C95179  10.318   2.200   6.420  0.9937  0.5416 -0.4372
  706MOL0     C95180  10.356   2.083   6.349 -0.4671  0.1327  0.2335
  706MOL0     C95181  10.267   2.012   6.271 -0.3659  0.0317  0.5104
  706MOL0     C95182  10.144   2.069   6.240 -0.1275  0.9277  0.0152
  706MOL0     O95183  10.051   2.001   6.162 -0.9505 -0.3977 -0.2990
  706MOL0     C95184  10.091   1.872   6.105  0.7014 -0.1240  0.1491
  706MOL0     C95185   9.990   1.792   6.024 -0.0534 -0.0085 -1.2321
  706MOL0     C95186  10.062   1.667   5.977 -0.6607 -0.1929  0.7171
  706MOL0     C95187   9.964   1.572   5.902  0.0438 -1.0241  0.0167
  706MOL0     C95188  10.040   1.487   5.804  0.4452 -0.2532 -1.0724
  706MOL0     C95189   9.952   1.370   5.770  0.1367  0.0898 -0.1482
  706MOL0     C95190  10.000   1.286   5.653 -0.8177  0.3257  0.3763
  706MOL0     C95191  10.151   1.242   5.676  0.2466  0.4682  0.3646
  706MOL0     N95192  10.153   1.132   5.778 -0.3504  0.6755  0.3865
  706MOL0     C95193  10.155   1.152   5.906 -0.5100  1.0398 -0.2760
  706MOL0     C95194  10.154   1.028   5.967  0.1135 -1.1890  0.3435
  706MOL0     C95195  10.141   0.989   6.118  1.3978 -0.4785  0.1056
  706MOL0     C95196  10.255   1.040   6.202 -0.4575 -0.1541  0.7654
  706MOL0     C95197  10.227   1.051   6.347 -0.1512 -0.2633 -0.3239
  706MOL0     C95198  10.350   1.096   6.418 -0.1330 -0.2154  0.3431
  706MOL0     O95199  10.304   1.174   6.530  0.5321 -0.2032  0.3575
  706MOL0     C95200  10.400   1.229   6.608 -0.7353  0.1403  0.0737
  706MOL0     C95201  10.356   1.337   6.688 -0.3982  0.0688  0.5321
  706MOL0     C95202  10.444   1.390   6.783  0.1538  1.0794  0.4287
  706MOL0     C95203  10.579   1.353   6.799 -0.5950 -0.3005 -0.2460
  706MOL0     C95204  10.659   1.410   6.907  0.0023  0.0533  0.2294
  706MOL0     O95205  10.797   1.382   6.901  1.3301 -0.2447  0.1047
  706MOL0     C95206  10.876   1.429   6.999  0.4272 -0.1898 -0.5946
  706MOL0     C95207  10.924   1.561   7.001  0.5698 -0.1959 -1.1087
  706MOL0     C95208  11.005   1.611   7.109  0.7920  0.5939  0.7315
  706MOL0     C95209  11.053   1.525   7.207 -0.5317  0.0431 -0.4091
  706MOL0     O95210  11.156   1.554   7.294  0.1433 -0.6003  0.6210
  706MOL0     C95211  11.236   1.677   7.293  0.6322  0.3440  0.1743
  706MOL0     C95212  11.346   1.687   7.406  0.7365 -0.3897  0.3170
  706MOL0     C95213  11.456   1.595   7.387 -0.1029 -0.2880  0.5374
  706MOL0     C95214  11.582   1.668   7.351 -0.4479  0.5476 -0.3985
  706MOL0     C95215  11.685   1.589   7.256 -0.0532  0.7697  0.3891
  706MOL0     C95216  11.797   1.682   7.217 -0.3337  0.1398  0.1758
  706MOL0     C95217  11.926   1.614   7.178  0.1844 -0.6315  0.4618
  706MOL0     C95218  12.047   1.716   7.181  0.4526 -0.6078  0.2407
  706MOL0    Cl95219  12.039   1.821   7.041  0.2554  0.4889  0.1831
  706MOL0     C95220  11.004   1.392   7.200 -0.2831  0.6025 -1.4425
  706MOL0     C95221  10.917   1.344   7.099 -0.7018  0.5266 -0.2389
  706MOL0     O95222  10.601   1.473   7.001 -0.3549  0.4328 -0.7514
  706MOL0     C95223  10.622   1.252   6.717 -0.6348  0.4472 -0.2153
  706MOL0     C95224  10.534   1.184   6.626  0.8419  0.5573  0.1573
  706MOL0     N95225  10.138   0.943   5.854  0.2881  0.2755  0.0386
  706MOL0     N95226  10.140   1.001   5.743  0.5149 -1.0045 -0.1807
  706MOL0     C95227  10.107   2.185   6.315  0.5430 -0.1861 -0.1908
  706MOL0     C95228  10.187   2.249   6.405 -0.2665 -0.4488 -0.0289
  706MOL0     C95229  10.552   2.305   6.687 -0.1770 -1.0269  0.2405
  706MOL0     C95230  10.641   2.223   6.770  0.5587  1.0925 -0.1377
  706MOL0     C95231  10.752   2.288   6.825  0.8425  0.0208  0.1305
  706MOL0     C95232  10.774   2.421   6.806 -0.2598 -0.8150  0.3719
  706MOL0     O95233  10.872   2.488   6.872 -0.4328 -0.0817 -0.4389
  706MOL0     C95234  10.988   2.416   6.921 -0.4951  0.1982  0.1091
  706MOL0     C95235  11.036   2.492   7.050  0.4710  0.1144 -0.2862
  706MOL0     C95236  11.172   2.438   7.106  0.5091  0.4416  0.5885
  706MOL0     C95237  11.296   2.441   7.002  1.1036  0.1043 -0.3258
  706MOL0     C95238  11.299   2.560   6.915  0.0427 -0.4093  0.6212
  706MOL0     C95239  11.287   2.649   6.829  0.0444  0.0450 -0.7218
  706MOL0     C95240  10.674   2.498   6.741 -0.7907  0.6288 -0.1635
  706MOL0     C95241  10.562   2.439   6.683 -0.0981 -0.1492  1.2901
  706MOL0     C95242  10.464   2.536   6.608  0.1184  0.3582 -0.1860
  706MOL0     H95243  10.456   2.044   6.362 -1.4737 -2.7169  0.1846
  706MOL0     H95244  10.298   1.917   6.227 -0.7918 -0.3150  0.9434
  706MOL0     H95245  10.176   1.890   6.038 -0.0989 -1.0172 -1.1499
  706MOL0     H95246  10.125   1.803   6.183  1.4045 -1.5799 -1.3879
  706MOL0     H95247   9.954   1.855   5.943  3.5179  0.6074 -2.5124
  706MOL0     H95248   9.898   1.765   6.078  0.4814 -2.4788 -1.4080
  706MOL0     H95249  10.101   1.595   6.049  0.8502  0.8053  0.9428
  706MOL0     H95250  10.137   1.699   5.903  0.1507  0.3629  1.7598
  706MOL0     H95251   9.912   1.517   5.981 -2.4199  0.9870 -0.0540
  706MOL0     H95252   9.882   1.626   5.854  0.3020 -0.9277 -0.3194
  706MOL0     H95253  10.069   1.541   5.714  2.8202 -0.2001 -0.3575
  706MOL0     H95254  10.124   1.456   5.866  1.0322  2.2734 -0.4654
  706MOL0     H95255   9.927   1.308   5.857  0.0650 -0.0734 -0.2860
  706MOL0     H95256   9.858   1.411   5.732  1.1555  1.0178 -1.7509
  706MOL0     H95257  10.003   1.347   5.562  3.1893  0.1391  0.2210
  706MOL0     H95258   9.936   1.201   5.629 -0.8774  0.2963  0.6341
  706MOL0     H95259  10.185   1.198   5.582  1.2825 -3.2270  2.2503
  706MOL0     H95260  10.207   1.334   5.693 -1.1176  1.3775  0.0934
  706MOL0     H95261  10.150   1.246   5.961 -0.2102  1.2553 -0.6089
  706MOL0     H95262  10.047   1.031   6.153  1.5779  2.3630 -2.3474
  706MOL0     H95263  10.139   0.880   6.119  2.6626 -0.6652 -3.3283
  706MOL0     H95264  10.342   0.976   6.184  0.1354  0.6396  0.7678
  706MOL0     H95265  10.290   1.140   6.174 -0.9896 -0.0264  0.5372
  706MOL0     H95266  10.186   0.962   6.397 -2.3864  1.4388  1.0596
  706MOL0     H95267  10.161   1.138   6.350  1.8806  1.4960 -3.0786
  706MOL0     H95268  10.405   1.163   6.350 -0.6073 -2.2742 -2.2266
  706MOL0     H95269  10.405   1.006   6.447  1.4992  1.1620  1.7586
  706MOL0     H95270  10.257   1.380   6.677  0.1201  1.7029  1.7646
  706MOL0     H95271  10.394   1.460   6.849 -1.0036 -1.1511  2.0103
  706MOL0     H95272  10.899   1.634   6.925 -1.3391 -1.2681 -1.5792
  706MOL0     H95273  11.028   1.717   7.098  1.7049  0.5634  2.0655
  706MOL0     H95274  11.290   1.684   7.198 -0.5999 -1.4738 -0.7235
  706MOL0     H95275  11.163   1.757   7.303 -3.4559 -2.9131 -0.6112
  706MOL0     H95276  11.367   1.794   7.392  0.0134 -0.4833 -1.8987
  706MOL0     H95277  11.297   1.666   7.502 -0.7417 -0.6715 -0.4682
  706MOL0     H95278  11.470   1.534   7.477 -4.3871  1.8474  2.9169
  706MOL0     H95279  11.437   1.526   7.304  1.8276  0.2152 -0.3816
  706MOL0     H95280  11.632   1.705   7.441  1.1762 -0.6789 -0.7311
  706MOL0     H95281  11.550   1.752   7.290  1.9358  2.9541  1.4499
  706MOL0     H95282  11.639   1.551   7.164  2.1496  1.1980 -0.9608
  706MOL0     H95283  11.735   1.508   7.310 -1.1170 -0.9425 -1.0833
  706MOL0     H95284  11.762   1.738   7.129 -0.2516  0.0382  0.0790
  706MOL0     H95285  11.822   1.750   7.298  1.7715 -0.2288 -0.1178
  706MOL0     H95286  11.914   1.579   7.075 -3.6194  1.2585  0.0721
  706MOL0     H95287  11.947   1.528   7.242  2.6872  2.7468  4.6911
  706MOL0     H95288  12.053   1.773   7.275  1.9145  1.2672 -0.9098
  706MOL0     H95289  12.143   1.664   7.173  2.3197  2.6459 -0.2814
  706MOL0     H95290  11.061   1.317   7.254 -1.9033 -0.2620 -0.8622
  706MOL0     H95291  10.879   1.242   7.098 -0.9714  0.6216 -1.8333
  706MOL0     H95292  10.722   1.211   6.724 -1.1476 -0.6356  1.4296
  706MOL0     H95293  10.564   1.110   6.552 -0.9976  0.7018 -0.7848
  706MOL0     H95294  10.003   2.215   6.304  1.2090  1.6783 -1.9747
  706MOL0     H95295  10.173   2.341   6.460  2.0631 -0.4258  0.6290
  706MOL0     H95296  10.618   2.118   6.784  0.1816  1.4922  2.6878
  706MOL0     H95297  10.813   2.218   6.882 -1.0605 -0.0557  2.2077
  706MOL0     H95298  11.072   2.432   6.853 -0.8260 -1.2985 -0.6933
  706MOL0     H95299  10.976   2.320   6.972  1.6315 -0.0659  0.2192
  706MOL0     H95300  10.951   2.477   7.117  1.2148 -0.9615  0.4475
  706MOL0     H95301  11.052   2.599   7.033 -0.5578  0.2262 -0.5785
  706MOL0     H95302  11.150   2.337   7.141 -1.0659  0.8495  0.8220
  706MOL0     H95303  11.198   2.495   7.196 -1.6746  0.2047  1.4227
  706MOL0     H95304  11.394   2.437   7.051  0.9777  2.2677  0.2170
  706MOL0     H95305  11.276   2.347   6.949  0.3592 -0.4057  0.8057
  706MOL0     H95306  11.270   2.712   6.744 -1.4188  0.4780 -0.1394
  706MOL0     H95307  10.695   2.604   6.737  5.2117 -0.2393 -1.6775
  706MOL0     H95308  10.421   2.492   6.517 -3.5263 -0.5844  1.8136
  706MOL0     H95309  10.380   2.562   6.672  1.4270  1.4711  1.1610
  706MOL0     H95310  10.511   2.629   6.575  2.2275 -0.6231 -0.1132
  707MOL0     O95311   8.436   5.836   8.343  0.5904  0.5261 -0.2314
  707MOL0     C95312   8.426   5.931   8.264 -0.4885 -0.3114  0.2722
  707MOL0     O95313   8.360   6.049   8.292  1.0607  0.1755  0.3011
  707MOL0     C95314   8.304   6.059   8.420  0.3256  0.4206 -0.6610
  707MOL0     C95315   8.339   6.170   8.491 -0.6602 -0.5799 -0.1599
  707MOL0     C95316   8.302   6.184   8.621 -0.2423 -0.1135 -0.6245
  707MOL0     C95317   8.218   6.087   8.689 -0.3039  0.0841  0.3483
  707MOL0     O95318   8.174   6.084   8.814 -1.2527  0.0238  0.1397
  707MOL0     C95319   8.197   6.188   8.906 -0.7185 -0.1284 -0.1175
  707MOL0     C95320   8.160   6.147   9.046  0.1186  0.1580 -1.1415
  707MOL0     C95321   8.220   6.015   9.096 -0.0861  0.1115  0.2363
  707MOL0     C95322   8.169   6.001   9.239  0.1291 -0.5427 -0.5495
  707MOL0     C95323   8.192   5.854   9.282 -0.6510 -1.3958 -0.4083
  707MOL0     C95324   8.142   5.827   9.423 -0.5595  0.2475  0.2593
  707MOL0     C95325   8.240   5.838   9.549 -0.7437  0.2640  0.1354
  707MOL0     C95326   8.335   5.723   9.579  0.1939  0.2369 -0.3277
  707MOL0     N95327   8.272   5.590   9.593 -0.8845  0.5035  0.7085
  707MOL0     C95328   8.297   5.497   9.491 -0.2585  1.4904  0.0167
  707MOL0     C95329   8.257   5.382   9.556  1.2935 -0.6621  0.3961
  707MOL0     C95330   8.231   5.244   9.505  0.0248 -0.0375  0.4992
  707MOL0     C95331   8.212   5.239   9.350 -0.1549  0.4380 -0.7305
  707MOL0     C95332   8.087   5.301   9.290  0.1250 -0.9234  0.2373
  707MOL0     C95333   8.080   5.289   9.136 -0.0521 -0.1711  0.6057
  707MOL0     O95334   8.207   5.310   9.065  0.4233  0.1130 -0.6741
  707MOL0     C95335   8.227   5.245   8.949  0.3176  0.0878 -0.1752
  707MOL0     C95336   8.359   5.255   8.893  0.4736 -0.3864 -0.9964
  707MOL0     C95337   8.395   5.192   8.771 -0.2500 -0.0072  0.0374
  707MOL0     C95338   8.301   5.108   8.704  0.5088 -0.5808 -0.0163
  707MOL0     C95339   8.332   5.033   8.577  1.1563 -0.4131 -0.1044
  707MOL0     O95340   8.223   5.005   8.506 -0.0237  0.0567 -0.6680
  707MOL0     C95341   8.237   4.987   8.372 -0.0116  1.3151  0.3763
  707MOL0     C95342   8.305   4.876   8.327 -0.5150  0.2007  0.0438
  707MOL0     C95343   8.306   4.844   8.190  0.0179  0.4579 -0.5110
  707MOL0     C95344   8.244   4.929   8.101 -0.8358  0.3802  0.1873
  707MOL0     O95345   8.262   4.903   7.960  0.1229  1.0618 -0.0890
  707MOL0     C95346   8.223   4.997   7.857 -1.0679 -0.1655 -0.5015
  707MOL0     C95347   8.214   4.942   7.708 -0.3068  0.4413 -1.4160
  707MOL0     C95348   8.358   4.909   7.663 -1.2182 -0.1929  0.5120
  707MOL0     C95349   8.352   4.857   7.517  0.5808 -0.3747 -0.4092
  707MOL0     C95350   8.488   4.802   7.463 -0.4181 -0.9870 -0.6402
  707MOL0     C95351   8.482   4.771   7.315  0.1484  0.5061 -0.2713
  707MOL0     C95352   8.616   4.715   7.279 -0.5752  0.3775 -0.5271
  707MOL0     C95353   8.645   4.773   7.139  0.4775 -0.2013 -0.4908
  707MOL0    Cl95354   8.806   4.705   7.086  0.0139  0.1881 -0.1025
  707MOL0     C95355   8.178   5.039   8.147  0.5889 -0.2699  0.1228
  707MOL0     C95356   8.160   5.062   8.282  1.4313  0.3216 -0.0458
  707MOL0     O95357   8.445   5.026   8.540  0.0465 -0.0958 -0.3621
  707MOL0     C95358   8.177   5.092   8.765  0.9618 -0.4981 -0.1320
  707MOL0     C95359   8.134   5.168   8.878 -0.1852  0.6086 -0.0134
  707MOL0     N95360   8.238   5.406   9.695 -0.4158  0.1871 -0.3568
  707MOL0     N95361   8.246   5.538   9.711 -0.1646  0.2957 -0.5171
  707MOL0     C95362   8.185   5.970   8.622 -0.1516 -0.0775 -0.0444
  707MOL0     C95363   8.232   5.954   8.486  0.4116  0.0814 -0.1760
  707MOL0     C95364   8.514   5.926   8.146  0.6044 -0.2571  0.4402
  707MOL0     C95365   8.593   6.037   8.121 -0.6122 -0.2361  1.2830
  707MOL0     C95366   8.693   6.030   8.017  1.0598 -0.9488  1.0394
  707MOL0     C95367   8.720   5.912   7.948  0.5862  1.5503  0.5448
  707MOL0     O95368   8.811   5.925   7.843  0.2417  0.4543  0.2838
  707MOL0     C95369   8.875   5.814   7.790  0.1602  1.1189  0.9437
  707MOL0     C95370   9.017   5.835   7.840 -0.2360  0.7532 -0.1873
  707MOL0     C95371   9.063   5.739   7.964  0.1863  0.3155  0.2934
  707MOL0     C95372   9.198   5.785   8.032  0.3270  1.1762  0.9011
  707MOL0     C95373   9.213   5.700   8.149 -0.7779 -0.2466  0.3703
  707MOL0     C95374   9.221   5.636   8.254  1.0997 -0.0813 -0.4094
  707MOL0     C95375   8.639   5.800   7.985 -1.6639  0.0506  0.3859
  707MOL0     C95376   8.535   5.807   8.075  0.7255 -0.8064 -1.2146
  707MOL0     C95377   8.463   5.682   8.093  0.3996  0.7576 -0.1857
  707MOL0     H95378   8.392   6.243   8.431 -2.9205 -0.2034 -1.8026
  707MOL0     H95379   8.336   6.266   8.683  0.2268 -0.9346  0.2252
  707MOL0     H95380   8.303   6.215   8.908 -0.6854 -0.2802  0.5405
  707MOL0     H95381   8.143   6.275   8.868 -0.1055  0.2165 -0.1961
  707MOL0     H95382   8.051   6.141   9.048  0.0735  0.7352  1.7915
  707MOL0     H95383   8.191   6.223   9.118  0.2090 -0.6094 -0.3645
  707MOL0     H95384   8.327   6.033   9.106 -0.2708  1.0083  0.6278
  707MOL0     H95385   8.181   5.938   9.029  0.8899  1.7766 -2.3970
  707MOL0     H95386   8.218   6.074   9.303 -3.9932  0.3429  1.9934
  707MOL0     H95387   8.062   6.020   9.229 -0.1392 -2.7530 -3.3557
  707MOL0     H95388   8.145   5.776   9.220  1.5973 -3.4594  0.3284
  707MOL0     H95389   8.301   5.844   9.289 -0.6447 -0.2399  1.7121
  707MOL0     H95390   8.044   5.874   9.438  0.1982  1.3195  2.2362
  707MOL0     H95391   8.115   5.721   9.421  2.5646 -0.6319 -0.3293
  707MOL0     H95392   8.184   5.855   9.642  0.0744  0.6824  0.5679
  707MOL0     H95393   8.297   5.932   9.543 -2.3886  1.2597 -0.6074
  707MOL0     H95394   8.414   5.729   9.504 -0.9912  0.0007 -1.6461
  707MOL0     H95395   8.379   5.741   9.677 -2.3096  2.2422  0.5553
  707MOL0     H95396   8.338   5.504   9.391 -2.9993  0.5230 -1.2780
  707MOL0     H95397   8.320   5.183   9.523  0.0773  0.0657  0.5909
  707MOL0     H95398   8.167   5.176   9.564  1.6844 -1.7974  0.3581
  707MOL0     H95399   8.291   5.293   9.296 -0.6287  0.6621 -1.2032
  707MOL0     H95400   8.217   5.136   9.315 -1.6586  1.1001 -3.0623
  707MOL0     H95401   8.079   5.407   9.316 -0.5158 -1.0077  0.4048
  707MOL0     H95402   8.004   5.251   9.340 -0.1089 -1.8531 -1.0387
  707MOL0     H95403   8.000   5.351   9.095  1.0311  1.4671  0.8828
  707MOL0     H95404   8.061   5.182   9.120 -0.9792  0.1022 -0.2495
  707MOL0     H95405   8.444   5.284   8.955 -1.9453 -0.0088  2.4566
  707MOL0     H95406   8.497   5.208   8.738 -0.2758  2.4288  0.9493
  707MOL0     H95407   8.350   4.816   8.406  0.5421 -2.0471 -2.1276
  707MOL0     H95408   8.362   4.765   8.141 -1.4566 -0.3682 -0.9123
  707MOL0     H95409   8.119   5.026   7.876 -0.5205  0.4930  1.9090
  707MOL0     H95410   8.297   5.078   7.852  1.4488 -2.3667 -1.3704
  707MOL0     H95411   8.149   4.854   7.704 -0.6567  0.5425  0.8078
  707MOL0     H95412   8.188   5.014   7.630 -1.5320 -0.7117 -2.1182
  707MOL0     H95413   8.430   4.991   7.660 -0.3812 -0.9155  0.5169
  707MOL0     H95414   8.403   4.834   7.728 -0.3737 -1.2644 -1.2374
  707MOL0     H95415   8.313   4.937   7.454  1.4417 -0.8987 -1.6547
  707MOL0     H95416   8.297   4.762   7.518  1.2069 -0.7431  0.4060
  707MOL0     H95417   8.517   4.717   7.526 -1.6356 -2.2012 -1.6580
  707MOL0     H95418   8.562   4.882   7.473  0.3107 -1.7130 -0.1023
  707MOL0     H95419   8.399   4.700   7.302  1.7611 -1.0166 -3.0432
  707MOL0     H95420   8.446   4.853   7.251  0.0658  2.7308  2.4134
  707MOL0     H95421   8.631   4.606   7.286 -0.2337  0.4397 -0.2488
  707MOL0     H95422   8.698   4.750   7.343 -1.2260  1.8953 -0.5011
  707MOL0     H95423   8.573   4.754   7.058  0.8264 -0.3503 -0.7680
  707MOL0     H95424   8.638   4.881   7.154  0.7184 -0.3032  0.4122
  707MOL0     H95425   8.132   5.101   8.070  2.8158  2.0296  0.5172
  707MOL0     H95426   8.081   5.133   8.305 -1.3106 -2.2850 -0.7872
  707MOL0     H95427   8.095   5.040   8.716 -0.4182  1.7492 -0.3555
  707MOL0     H95428   8.029   5.170   8.904  0.1545  2.2026  1.4284
  707MOL0     H95429   8.122   5.897   8.672  0.4020 -0.9791 -0.6196
  707MOL0     H95430   8.207   5.869   8.422 -0.3805  1.0704 -1.2188
  707MOL0     H95431   8.590   6.131   8.175  1.5449  1.8829 -1.9318
  707MOL0     H95432   8.749   6.122   7.999 -1.3512  0.2495 -0.9872
  707MOL0     H95433   8.878   5.820   7.681 -1.6149  1.8015  0.8997
  707MOL0     H95434   8.837   5.717   7.826 -1.8611  2.4700  2.6787
  707MOL0     H95435   9.041   5.940   7.857  0.4990  0.7714 -1.2339
  707MOL0     H95436   9.075   5.818   7.749 -1.5398 -2.4492 -0.5735
  707MOL0     H95437   9.073   5.637   7.928 -1.7285 -0.3949  1.6176
  707MOL0     H95438   8.987   5.739   8.043  2.3230 -1.3966  2.5217
  707MOL0     H95439   9.280   5.758   7.965  1.0513  0.6646  1.9752
  707MOL0     H95440   9.182   5.890   8.054 -1.8985  0.9704  0.5226
  707MOL0     H95441   9.224   5.589   8.350  1.2818 -1.3430 -1.0173
  707MOL0     H95442   8.664   5.703   7.944  0.2631  0.5538  0.3077
  707MOL0     H95443   8.530   5.599   8.119 -0.8779 -0.7510 -1.4875
  707MOL0     H95444   8.384   5.684   8.170  2.9073 -0.0283  2.6069
  707MOL0     H95445   8.417   5.661   7.996 -3.9191  1.7756  1.3941
  708MOL0     O95446   4.208   5.116   5.544 -0.5187 -1.0877 -0.1113
  708MOL0     C95447   4.184   5.238   5.555  0.4888 -0.0459 -0.8359
  708MOL0     O95448   4.050   5.298   5.550  0.0925 -0.5841  0.1000
  708MOL0     C95449   3.941   5.225   5.505  0.0669 -0.0500 -0.0140
  708MOL0     C95450   3.868   5.260   5.396  0.7683  0.5936  1.6714
  708MOL0     C95451   3.749   5.194   5.362  0.1045  0.4011 -1.2399
  708MOL0     C95452   3.694   5.092   5.440  0.1245  0.0304 -0.2028
  708MOL0     O95453   3.581   5.044   5.404  0.2500  0.4376 -0.6178
  708MOL0     C95454   3.518   4.920   5.453 -0.5188 -0.8958  0.7081
  708MOL0     C95455   3.597   4.803   5.398  0.2654  0.0012 -0.1341
  708MOL0     C95456   3.539   4.685   5.490 -0.7655 -0.3054  0.3078
  708MOL0     C95457   3.606   4.556   5.465  0.0845  0.2993  0.2206
  708MOL0     C95458   3.550   4.467   5.354  0.3286  0.4644  0.3354
  708MOL0     C95459   3.392   4.451   5.344 -0.8701 -0.8253 -1.0579
  708MOL0     C95460   3.377   4.344   5.244  1.5446 -0.2953  0.0091
  708MOL0     C95461   3.226   4.324   5.214 -0.1611 -0.0320  0.0338
  708MOL0     N95462   3.218   4.206   5.141 -0.4288  0.0012  0.1363
  708MOL0     C95463   3.246   4.183   5.005  0.6376 -0.8558  0.4671
  708MOL0     C95464   3.238   4.049   4.980 -0.4054 -0.7039 -0.1766
  708MOL0     C95465   3.267   3.983   4.850 -0.4281 -0.1938  0.0720
  708MOL0     C95466   3.160   3.880   4.796 -0.1752 -0.2296 -0.6406
  708MOL0     C95467   3.152   3.875   4.643  0.3868 -0.3762 -0.4341
  708MOL0     C95468   3.270   3.790   4.586  1.3866  0.5182  0.5561
  708MOL0     O95469   3.287   3.806   4.446 -0.2061  0.3651  0.2486
  708MOL0     C95470   3.398   3.750   4.389  0.0546  0.7199  0.2087
  708MOL0     C95471   3.462   3.631   4.435  0.5589 -1.0807 -0.0859
  708MOL0     C95472   3.555   3.563   4.354 -0.5056 -0.4638 -0.6941
  708MOL0     C95473   3.590   3.616   4.231 -0.1278 -0.4413  0.1752
  708MOL0     C95474   3.677   3.551   4.135  0.2161  0.8780  1.2292
  708MOL0     O95475   3.682   3.589   4.006  0.9435  0.5276 -0.3793
  708MOL0     C95476   3.745   3.519   3.906  0.3188 -0.4876 -0.7369
  708MOL0     C95477   3.735   3.571   3.773  0.9378 -0.3768 -0.4480
  708MOL0     C95478   3.776   3.504   3.660  0.0405  0.1672 -0.3104
  708MOL0     C95479   3.847   3.388   3.678  0.5760  0.2064  0.3712
  708MOL0     O95480   3.897   3.309   3.577 -0.0398  0.3189  0.1111
  708MOL0     C95481   3.804   3.268   3.477  0.6467  1.6505  0.0551
  708MOL0     C95482   3.775   3.121   3.509  0.5135  0.1202  0.9855
  708MOL0     C95483   3.899   3.025   3.505  1.1208  1.4186 -0.2775
  708MOL0     C95484   3.838   2.880   3.541 -0.1418  0.1673  0.3620
  708MOL0     C95485   3.953   2.778   3.540 -0.8408 -0.0406  0.1772
  708MOL0     C95486   3.917   2.637   3.498  0.4965 -0.6915 -0.9497
  708MOL0     C95487   3.936   2.628   3.342  0.0162 -0.1441 -0.4176
  708MOL0     C95488   3.860   2.515   3.292 -1.0583  0.6520  0.2695
  708MOL0    Cl95489   3.687   2.547   3.285  0.0463  0.0861 -0.0985
  708MOL0     C95490   3.853   3.327   3.798  0.4320 -0.6316  0.7827
  708MOL0     C95491   3.805   3.392   3.911 -1.0729 -0.2964 -0.2027
  708MOL0     O95492   3.745   3.459   4.186 -0.2955 -0.1434  0.1009
  708MOL0     C95493   3.534   3.736   4.192  0.4504 -0.5319 -0.1254
  708MOL0     C95494   3.441   3.804   4.267 -0.6039 -0.1931 -0.6399
  708MOL0     N95495   3.217   3.991   5.104  0.0832  0.5373  0.7412
  708MOL0     N95496   3.212   4.087   5.196  0.3555  0.1905  0.0569
  708MOL0     C95497   3.765   5.060   5.555  0.4472 -0.0634  0.4277
  708MOL0     C95498   3.885   5.125   5.593  0.1533  1.1378  0.0109
  708MOL0     C95499   4.286   5.342   5.556 -0.7454 -0.8397  0.0720
  708MOL0     C95500   4.275   5.443   5.653 -0.5713 -0.2293 -0.6943
  708MOL0     C95501   4.370   5.550   5.660  0.3425  0.7220  0.4456
  708MOL0     C95502   4.468   5.564   5.558 -0.7558  0.3536 -0.4993
  708MOL0     O95503   4.554   5.673   5.560 -0.0047  0.4195  0.3455
  708MOL0     C95504   4.667   5.679   5.465  0.1531  0.3749  0.1597
  708MOL0     C95505   4.730   5.815   5.480  0.3239  0.1557  0.3208
  708MOL0     C95506   4.852   5.840   5.383  0.4253 -0.3631 -0.0761
  708MOL0     C95507   4.952   5.952   5.423  0.1981 -1.0262  0.1798
  708MOL0     C95508   5.083   5.932   5.351 -0.2453 -0.3363 -0.2783
  708MOL0     C95509   5.197   5.909   5.308  0.3895 -0.4928  0.9945
  708MOL0     C95510   4.469   5.462   5.457 -0.3263 -0.0388 -0.2109
  708MOL0     C95511   4.377   5.355   5.457 -0.5165  0.0173  0.1048
  708MOL0     C95512   4.404   5.250   5.349 -0.2366  0.5535 -0.5808
  708MOL0     H95513   3.889   5.346   5.333 -1.0465  0.4036  0.7411
  708MOL0     H95514   3.696   5.220   5.271  1.6350 -0.8072 -2.5375
  708MOL0     H95515   3.523   4.925   5.562 -3.6880  0.3745  0.8970
  708MOL0     H95516   3.412   4.928   5.427 -0.5144 -0.2747  0.8680
  708MOL0     H95517   3.706   4.808   5.400  0.3322  3.3445 -3.0151
  708MOL0     H95518   3.559   4.790   5.296  0.9940  3.0190 -0.8802
  708MOL0     H95519   3.431   4.681   5.471 -1.0056  1.0073  1.2446
  708MOL0     H95520   3.569   4.706   5.593  1.9086 -3.5922  0.3656
  708MOL0     H95521   3.711   4.566   5.437 -0.1845 -2.4526 -2.1450
  708MOL0     H95522   3.596   4.500   5.558 -1.1940  1.4814  0.8488
  708MOL0     H95523   3.584   4.499   5.255  0.8738  1.6116  0.8701
  708MOL0     H95524   3.590   4.369   5.379 -3.5589 -0.9536  1.5560
  708MOL0     H95525   3.360   4.428   5.446 -1.8135  2.0284 -0.6351
  708MOL0     H95526   3.337   4.540   5.315 -2.2777 -1.4872 -0.5073
  708MOL0     H95527   3.426   4.258   5.289 -3.8471 -3.2681  1.0433
  708MOL0     H95528   3.433   4.373   5.154 -0.6504  1.3864 -0.9252
  708MOL0     H95529   3.172   4.321   5.310  2.3663 -3.2752  1.5526
  708MOL0     H95530   3.184   4.405   5.154  2.0380  0.9228 -0.3037
  708MOL0     H95531   3.298   4.245   4.933  3.0990 -2.3358  0.8773
  708MOL0     H95532   3.290   4.063   4.779 -1.4867  0.6141  0.6022
  708MOL0     H95533   3.358   3.926   4.869  0.7051  1.8494  0.9667
  708MOL0     H95534   3.181   3.779   4.832 -3.0233 -2.3849 -4.3800
  708MOL0     H95535   3.060   3.895   4.839 -0.3228 -0.2004 -0.9903
  708MOL0     H95536   3.153   3.979   4.611 -2.7833  2.3174  6.4927
  708MOL0     H95537   3.060   3.829   4.606  1.8649 -4.4510  0.4265
  708MOL0     H95538   3.242   3.687   4.609 -0.1232  0.8185  0.1149
  708MOL0     H95539   3.361   3.808   4.645  4.1401  1.2646 -3.4666
  708MOL0     H95540   3.425   3.584   4.525  0.9737  1.6937  1.6550
  708MOL0     H95541   3.592   3.467   4.389  0.1615  0.6133  1.7283
  708MOL0     H95542   3.689   3.668   3.755  0.3043 -0.7776 -1.0481
  708MOL0     H95543   3.756   3.549   3.564  2.8620  2.1818 -0.0602
  708MOL0     H95544   3.705   3.314   3.472 -1.7123 -3.0289 -2.1287
  708MOL0     H95545   3.851   3.276   3.378  1.1129 -0.1336  0.0953
  708MOL0     H95546   3.714   3.118   3.600 -2.3371  4.4296 -0.4660
  708MOL0     H95547   3.707   3.077   3.436  0.4298  2.4443 -0.4405
  708MOL0     H95548   3.951   3.021   3.409  3.5527  0.9973  0.9861
  708MOL0     H95549   3.964   3.063   3.584 -0.1446  0.2562  1.3793
  708MOL0     H95550   3.764   2.847   3.468  0.0530 -1.0672  0.6895
  708MOL0     H95551   3.792   2.874   3.640  0.2772  0.3922  0.5747
  708MOL0     H95552   4.002   2.757   3.636 -1.8900 -3.8138  0.0843
  708MOL0     H95553   4.037   2.813   3.480  1.0316 -1.9439  1.5049
  708MOL0     H95554   3.997   2.583   3.549  0.5681  0.8405  0.6511
  708MOL0     H95555   3.817   2.610   3.531  0.0272  0.4592 -1.3531
  708MOL0     H95556   4.043   2.620   3.319  0.3146  1.5120  0.2510
  708MOL0     H95557   3.894   2.720   3.300 -0.0381  0.7552  1.4956
  708MOL0     H95558   3.891   2.484   3.192 -5.6880  1.7271 -1.7926
  708MOL0     H95559   3.881   2.437   3.366  1.5099  0.4007 -0.6329
  708MOL0     H95560   3.896   3.227   3.803  0.0661 -0.7399  3.2520
  708MOL0     H95561   3.814   3.335   4.002  0.5922  0.0063 -0.1487
  708MOL0     H95562   3.551   3.787   4.097  2.5654  0.6248  0.8182
  708MOL0     H95563   3.393   3.897   4.238 -1.3705  0.4850  2.3897
  708MOL0     H95564   3.714   4.985   5.615  2.0950  0.3618  2.4703
  708MOL0     H95565   3.942   5.097   5.682  1.6927  1.8556 -0.7096
  708MOL0     H95566   4.198   5.434   5.729  1.0617  0.2730  1.1166
  708MOL0     H95567   4.364   5.620   5.743  1.1315 -0.0958  1.2133
  708MOL0     H95568   4.615   5.678   5.369 -0.0079  1.3101  0.2253
  708MOL0     H95569   4.744   5.603   5.480 -2.6438 -3.3218 -2.2812
  708MOL0     H95570   4.767   5.837   5.581  1.4515 -0.9429  0.1575
  708MOL0     H95571   4.648   5.882   5.450 -1.7770 -2.6025 -0.4659
  708MOL0     H95572   4.813   5.865   5.284  0.4169 -2.0497 -0.5350
  708MOL0     H95573   4.904   5.744   5.372 -1.4266 -1.2890 -1.4459
  708MOL0     H95574   4.922   6.051   5.388  1.9672  0.7161  3.1599
  708MOL0     H95575   4.967   5.964   5.530 -3.7356  3.9578  0.5755
  708MOL0     H95576   5.299   5.896   5.279  0.7279  0.7970  1.5239
  708MOL0     H95577   4.542   5.473   5.377 -1.4301  0.2320 -1.2203
  708MOL0     H95578   4.334   5.251   5.264  0.5899 -0.4932 -1.3096
  708MOL0     H95579   4.504   5.265   5.308 -0.7471  1.6731 -1.4683
  708MOL0     H95580   4.404   5.153   5.399  1.3592 -0.9706 -3.2767
  709MOL0     O95581   0.164   7.902   2.657  1.4250 -0.2268  0.4292
  709MOL0     C95582   0.096   7.808   2.607 -0.1181  0.3835  0.4619
  709MOL0     O95583  -0.032   7.814   2.580  1.1826  0.5448  1.1480
  709MOL0     C95584  -0.082   7.944   2.581  0.6145  0.5252  1.5680
  709MOL0     C95585  -0.198   7.961   2.654 -0.2104 -0.2574  0.8081
  709MOL0     C95586  -0.270   8.071   2.630  0.3206 -0.3526 -0.3482
  709MOL0     C95587  -0.232   8.172   2.543  0.5566 -0.2690 -0.0969
  709MOL0     O95588  -0.304   8.290   2.533 -0.0139  0.0917 -0.0912
  709MOL0     C95589  -0.428   8.264   2.466  0.8442 -0.1181  0.4015
  709MOL0     C95590  -0.499   8.398   2.456  0.6318 -0.0354  0.6605
  709MOL0     C95591  -0.630   8.406   2.388  0.5633  0.0286  0.2466
  709MOL0     C95592  -0.709   8.524   2.449  0.2531  0.5615  0.3110
  709MOL0     C95593  -0.840   8.547   2.359  0.5026 -0.0535  0.1846
  709MOL0     C95594  -0.806   8.645   2.240 -0.3687 -0.9453 -0.0707
  709MOL0     C95595  -0.941   8.667   2.166  0.8300  0.2405 -0.1754
  709MOL0     C95596  -0.922   8.787   2.066 -0.7342  0.4560  0.0542
  709MOL0     N95597  -1.008   8.788   1.943 -0.1746  0.1094  0.2720
  709MOL0     C95598  -1.126   8.727   1.908  0.7212 -0.3643 -0.5893
  709MOL0     C95599  -1.180   8.786   1.799  1.0287  1.5415  0.5508
  709MOL0     C95600  -1.308   8.751   1.728  0.4537 -1.0512  0.0600
  709MOL0     C95601  -1.429   8.698   1.810  1.0149 -0.6671 -0.3538
  709MOL0     C95602  -1.461   8.555   1.780  0.7212 -0.8134 -0.1102
  709MOL0     C95603  -1.545   8.547   1.645  1.1069 -0.1218  0.3736
  709MOL0     O95604  -1.677   8.596   1.676  0.0660  0.1198  0.0016
  709MOL0     C95605  -1.775   8.496   1.698 -0.7856  0.4397  0.4316
  709MOL0     C95606  -1.736   8.365   1.730  0.4229  1.2547 -0.8266
  709MOL0     C95607  -1.832   8.260   1.758  0.7293 -0.6275  0.3080
  709MOL0     C95608  -1.975   8.294   1.747  0.2984  0.0771  0.9328
  709MOL0     C95609  -2.088   8.196   1.776 -1.2915 -0.3443  0.8608
  709MOL0     O95610  -2.054   8.092   1.851  0.2293 -0.2674  0.0589
  709MOL0     C95611  -2.155   8.008   1.888 -0.1114  0.2523  0.6635
  709MOL0     C95612  -2.144   7.882   1.825  0.4950  0.0569  0.2461
  709MOL0     C95613  -2.244   7.785   1.857  0.0723  0.4895  0.1234
  709MOL0     C95614  -2.342   7.818   1.964 -1.2450 -0.3029  0.0727
  709MOL0     O95615  -2.437   7.722   1.991  0.2194  0.7274 -0.0060
  709MOL0     C95616  -2.571   7.760   2.026 -0.0100  0.1803 -0.5639
  709MOL0     C95617  -2.635   7.630   2.071  0.2683  0.6808  0.2541
  709MOL0     C95618  -2.672   7.534   1.950  0.2140 -0.1098  0.4402
  709MOL0     C95619  -2.693   7.392   1.992 -0.1147 -0.0060 -0.6800
  709MOL0     C95620  -2.745   7.304   1.876 -0.0918  0.6876 -0.0600
  709MOL0     C95621  -2.795   7.165   1.930 -0.3370 -0.3627  0.7388
  709MOL0     C95622  -2.701   7.080   2.018 -0.4109  0.3805 -0.0946
  709MOL0     C95623  -2.723   6.934   1.994  0.5794 -0.7771  0.0994
  709MOL0    Cl95624  -2.652   6.823   2.104  0.3692 -0.3533  0.1929
  709MOL0     C95625  -2.332   7.935   2.038  0.8342  0.6755 -0.3912
  709MOL0     C95626  -2.241   8.033   2.003  0.8944  0.4058  0.7593
  709MOL0     O95627  -2.202   8.228   1.748 -0.7398  0.0806  0.5827
  709MOL0     C95628  -2.010   8.425   1.715 -0.6228 -0.7601  0.2158
  709MOL0     C95629  -1.911   8.521   1.682  1.1107  0.4889 -0.2724
  709MOL0     N95630  -1.098   8.889   1.774 -0.8281 -0.7883 -0.2802
  709MOL0     N95631  -0.996   8.893   1.859 -0.9749 -1.2747  0.2074
  709MOL0     C95632  -0.109   8.157   2.478 -0.1865 -0.2201 -0.0836
  709MOL0     C95633  -0.045   8.033   2.481 -1.1519 -0.0943 -1.0082
  709MOL0     C95634   0.170   7.677   2.573 -0.1985 -0.5438  0.3062
  709MOL0     C95635   0.091   7.566   2.528  0.8582 -0.1275  1.1472
  709MOL0     C95636   0.152   7.442   2.503  0.2668  0.2773 -0.1268
  709MOL0     C95637   0.285   7.415   2.527 -0.2349  0.4855  0.1633
  709MOL0     O95638   0.344   7.287   2.505  0.1887 -0.8145  0.1455
  709MOL0     C95639   0.485   7.263   2.532  0.6696  0.4337  0.3549
  709MOL0     C95640   0.534   7.118   2.492 -0.2705  0.0908  1.2411
  709MOL0     C95641   0.423   7.017   2.498 -0.2167 -0.1738  0.2567
  709MOL0     C95642   0.484   6.899   2.428 -0.2904  0.2278  0.0644
  709MOL0     C95643   0.592   6.843   2.513 -0.0266 -0.2646  0.5763
  709MOL0     C95644   0.683   6.785   2.573 -0.0397 -0.2191 -0.9769
  709MOL0     C95645   0.352   7.525   2.585 -0.3303  0.1321 -0.0919
  709MOL0     C95646   0.303   7.658   2.601 -0.2925  0.0460  0.1915
  709MOL0     C95647   0.392   7.761   2.671 -0.3145  0.0109 -0.3835
  709MOL0     H95648  -0.226   7.879   2.719 -3.4203 -1.7209 -2.0875
  709MOL0     H95649  -0.354   8.089   2.696  2.0264  1.3851  1.4838
  709MOL0     H95650  -0.397   8.223   2.369  2.2108  0.9873  0.3251
  709MOL0     H95651  -0.492   8.191   2.516  1.1470 -0.6042  0.0862
  709MOL0     H95652  -0.441   8.458   2.385  0.7211  0.6671  1.3133
  709MOL0     H95653  -0.507   8.439   2.557 -1.5492 -0.8258  0.8481
  709MOL0     H95654  -0.685   8.312   2.390  1.7551 -0.9000 -3.0932
  709MOL0     H95655  -0.615   8.429   2.282 -0.8416 -1.2624 -0.2607
  709MOL0     H95656  -0.732   8.522   2.556  0.6999  1.3903  0.4309
  709MOL0     H95657  -0.654   8.617   2.431 -1.0860  0.8313 -3.1664
  709MOL0     H95658  -0.886   8.453   2.326  0.4724  0.3621 -1.0011
  709MOL0     H95659  -0.922   8.592   2.416  0.1461 -1.9471  1.2433
  709MOL0     H95660  -0.757   8.735   2.276 -1.4643 -1.1020  1.9949
  709MOL0     H95661  -0.735   8.595   2.174  0.5227 -0.0793  0.2185
  709MOL0     H95662  -1.022   8.681   2.238 -0.0304 -2.6653 -0.4272
  709MOL0     H95663  -0.960   8.569   2.121  0.1411 -0.6651  1.9674
  709MOL0     H95664  -0.928   8.888   2.109 -0.3237  1.6037 -2.3717
  709MOL0     H95665  -0.819   8.782   2.027 -0.7855  1.0512 -0.1690
  709MOL0     H95666  -1.177   8.645   1.958  1.0809 -0.2730 -0.0550
  709MOL0     H95667  -1.341   8.844   1.682 -1.1900 -0.6330  1.9151
  709MOL0     H95668  -1.289   8.689   1.640  0.0100  0.8327 -1.4274
  709MOL0     H95669  -1.416   8.707   1.918 -0.1752 -0.5206 -0.2115
  709MOL0     H95670  -1.523   8.751   1.789 -0.0247 -1.4504  2.0455
  709MOL0     H95671  -1.519   8.515   1.864 -3.0331 -1.6726 -2.8381
  709MOL0     H95672  -1.372   8.497   1.754 -0.1195 -0.6605 -3.9608
  709MOL0     H95673  -1.525   8.453   1.592  2.0588  0.9137 -1.1980
  709MOL0     H95674  -1.501   8.627   1.584 -0.4210  0.3358 -0.1761
  709MOL0     H95675  -1.630   8.344   1.741  0.4887  2.4565  1.6339
  709MOL0     H95676  -1.794   8.159   1.760  2.5043 -0.1884 -3.6757
  709MOL0     H95677  -2.092   7.864   1.731 -2.4406 -2.8513 -1.0337
  709MOL0     H95678  -2.250   7.696   1.795 -0.2277 -0.8916  2.0216
  709MOL0     H95679  -2.576   7.834   2.106 -1.9803 -1.1866  0.6600
  709MOL0     H95680  -2.622   7.792   1.934 -0.8250  1.0655  0.1733
  709MOL0     H95681  -2.574   7.565   2.134 -0.0583 -2.1592 -2.1131
  709MOL0     H95682  -2.730   7.650   2.121  0.7395  2.8769  0.3400
  709MOL0     H95683  -2.775   7.553   1.917 -0.4281  0.4911  2.6385
  709MOL0     H95684  -2.610   7.551   1.862 -1.4110  1.5434 -0.4690
  709MOL0     H95685  -2.766   7.386   2.073  0.8228  1.5526  0.3128
  709MOL0     H95686  -2.594   7.359   2.024  0.6320  2.3068 -0.4403
  709MOL0     H95687  -2.669   7.300   1.797  1.3438 -0.3576  1.3003
  709MOL0     H95688  -2.831   7.353   1.829 -1.6869  0.2504  2.2551
  709MOL0     H95689  -2.884   7.165   1.994 -0.7006 -1.3872  0.2465
  709MOL0     H95690  -2.819   7.111   1.838 -2.6768  1.7144  0.0004
  709MOL0     H95691  -2.716   7.103   2.124 -0.6433 -0.3889  0.0403
  709MOL0     H95692  -2.597   7.103   1.991 -1.4060  2.4034 -2.7080
  709MOL0     H95693  -2.831   6.917   1.994  0.2294  1.1517 -0.9369
  709MOL0     H95694  -2.696   6.908   1.891  0.0929 -2.6785  0.4008
  709MOL0     H95695  -2.388   7.952   2.130  2.2504 -1.7629  1.0262
  709MOL0     H95696  -2.225   8.122   2.063  0.4867  0.1129  1.3103
  709MOL0     H95697  -2.113   8.460   1.711 -0.2100  0.4169 -0.7672
  709MOL0     H95698  -1.958   8.614   1.654 -0.6183 -0.5082 -0.7911
  709MOL0     H95699  -0.072   8.232   2.409 -2.1933  1.3667  0.4620
  709MOL0     H95700   0.054   8.018   2.441  0.1996  1.1075  1.6752
  709MOL0     H95701  -0.012   7.584   2.502  1.8502  3.3449 -1.0075
  709MOL0     H95702   0.096   7.351   2.485  0.6382 -0.0718  0.4506
  709MOL0     H95703   0.498   7.284   2.639 -0.1053  0.2571  0.4881
  709MOL0     H95704   0.547   7.332   2.474  1.1505 -0.7371 -0.5499
  709MOL0     H95705   0.607   7.090   2.569  1.3222 -0.7073 -0.4645
  709MOL0     H95706   0.579   7.127   2.393 -1.1181  1.7274  0.9713
  709MOL0     H95707   0.325   7.053   2.467  0.4021  0.8235 -0.5729
  709MOL0     H95708   0.413   6.994   2.605 -0.0326  0.7238  0.4745
  709MOL0     H95709   0.404   6.828   2.407 -1.3383  1.9756 -2.3319
  709MOL0     H95710   0.537   6.924   2.336  2.0241  0.3346  1.3444
  709MOL0     H95711   0.771   6.761   2.629 -0.3475  1.3349  0.2568
  709MOL0     H95712   0.449   7.519   2.633 -1.7727  3.5755  3.8417
  709MOL0     H95713   0.371   7.794   2.773 -3.0090 -1.1098 -0.4923
  709MOL0     H95714   0.496   7.725   2.676  0.1783  1.3138  4.4497
  709MOL0     H95715   0.387   7.850   2.608 -1.5966 -1.9588 -3.2918
  710MOL0     O95716   6.307   5.390   3.955  1.2331 -0.3237 -0.2423
  710MOL0     C95717   6.345   5.273   3.950  0.2635 -0.4725  0.0078
  710MOL0     O95718   6.274   5.174   3.885 -0.5966  0.0713  0.6943
  710MOL0     C95719   6.148   5.213   3.824 -0.5312 -0.0215 -0.5587
  710MOL0     C95720   6.145   5.288   3.699  0.2834  0.3347 -0.2036
  710MOL0     C95721   6.021   5.291   3.628 -0.2094  0.0328 -1.0540
  710MOL0     C95722   5.909   5.235   3.676  0.8344 -0.7373  0.2380
  710MOL0     O95723   5.796   5.280   3.607  0.5520 -0.7344 -0.0323
  710MOL0     C95724   5.665   5.223   3.635  0.2119 -0.0552 -0.0499
  710MOL0     C95725   5.623   5.270   3.778 -0.4396  0.2772  0.0551
  710MOL0     C95726   5.486   5.337   3.794  0.4672 -0.2998  0.6654
  710MOL0     C95727   5.471   5.406   3.931  0.2157  0.1181  0.7733
  710MOL0     C95728   5.320   5.411   3.985  0.5054  0.7705 -0.4281
  710MOL0     C95729   5.241   5.520   3.906  1.2689 -0.0490  0.3053
  710MOL0     C95730   5.086   5.519   3.936 -0.9025 -1.1150  0.0393
  710MOL0     C95731   5.004   5.402   3.884 -0.7693  0.1624  0.0248
  710MOL0     N95732   5.058   5.347   3.758  0.1604  0.1595 -0.3506
  710MOL0     C95733   5.036   5.401   3.629  0.0556 -0.5488 -0.4885
  710MOL0     C95734   5.076   5.311   3.542 -0.2127  0.2320  0.2232
  710MOL0     C95735   5.081   5.316   3.390 -0.2878  1.0345 -0.9762
  710MOL0     C95736   5.193   5.410   3.347 -0.6758  0.5481  0.5792
  710MOL0     C95737   5.254   5.388   3.208  1.4138 -0.9354  0.5766
  710MOL0     C95738   5.149   5.413   3.101 -0.0339  0.2436 -0.4462
  710MOL0     O95739   5.195   5.478   2.979 -0.0367  0.2009 -0.0785
  710MOL0     C95740   5.196   5.614   2.971 -0.6254 -0.3352  0.1835
  710MOL0     C95741   5.175   5.664   2.839  0.4276 -1.1979 -0.7553
  710MOL0     C95742   5.181   5.798   2.817  1.2729 -0.2872  0.2593
  710MOL0     C95743   5.215   5.888   2.923  0.7927  0.4193 -0.7404
  710MOL0     C95744   5.221   6.035   2.903 -0.0677 -0.7962  0.4532
  710MOL0     O95745   5.249   6.078   2.774 -0.0767 -0.7298  0.0741
  710MOL0     C95746   5.251   6.218   2.766  0.1614  0.2137 -0.1219
  710MOL0     C95747   5.355   6.292   2.801  0.2535 -0.1620 -0.2897
  710MOL0     C95748   5.342   6.427   2.806 -0.2027 -0.2640  0.0534
  710MOL0     C95749   5.221   6.495   2.780  0.0708  0.0062 -0.4849
  710MOL0     O95750   5.204   6.622   2.784  0.4541 -0.2152  0.4330
  710MOL0     C95751   5.313   6.710   2.781  0.6589 -0.7260 -0.1748
  710MOL0     C95752   5.253   6.853   2.790  0.1345  0.2692  1.0730
  710MOL0     C95753   5.354   6.951   2.751 -0.3806 -0.2424 -0.1686
  710MOL0     C95754   5.305   7.093   2.769  0.1646 -0.4564  0.1517
  710MOL0     C95755   5.392   7.220   2.761 -1.0588 -0.0919  0.1133
  710MOL0     C95756   5.468   7.242   2.637  0.2920 -0.5121  0.1179
  710MOL0     C95757   5.386   7.236   2.509  0.1086 -0.3897  0.2843
  710MOL0     C95758   5.476   7.292   2.392 -0.0096 -0.6621  0.3785
  710MOL0    Cl95759   5.365   7.373   2.272 -0.0837 -0.1743  0.2730
  710MOL0     C95760   5.117   6.406   2.741 -0.9241 -0.4728  0.2647
  710MOL0     C95761   5.133   6.268   2.729  0.1615 -0.3339  0.5074
  710MOL0     O95762   5.219   6.108   3.003 -0.2788  0.3688 -0.8960
  710MOL0     C95763   5.242   5.833   3.041  0.3364 -0.1818 -0.1669
  710MOL0     C95764   5.225   5.699   3.076 -0.5622  0.0309 -0.6768
  710MOL0     N95765   5.130   5.209   3.615 -0.4105  0.6793 -0.1545
  710MOL0     N95766   5.118   5.228   3.739  0.3428 -0.9185 -0.3070
  710MOL0     C95767   5.913   5.153   3.799  0.0530 -0.1684  0.3326
  710MOL0     C95768   6.031   5.151   3.870  0.0743  0.4093  0.1530
  710MOL0     C95769   6.470   5.250   4.031  1.2960  0.3096  0.3816
  710MOL0     C95770   6.492   5.112   4.047 -0.8966 -0.2898  0.6678
  710MOL0     C95771   6.597   5.071   4.125 -0.0227  0.0054 -0.0476
  710MOL0     C95772   6.671   5.171   4.194  0.5448 -0.0651  0.2762
  710MOL0     O95773   6.776   5.129   4.267  0.3531 -0.1221  0.6066
  710MOL0     C95774   6.778   5.179   4.401  0.4814 -0.1471  0.2876
  710MOL0     C95775   6.831   5.064   4.488  0.5552  0.4325 -0.4344
  710MOL0     C95776   6.981   5.042   4.458 -1.0448  0.8621 -0.1207
  710MOL0     C95777   6.999   4.889   4.501 -0.4556  0.0615  0.2732
  710MOL0     C95778   7.143   4.873   4.504 -0.5513 -0.5542 -0.5885
  710MOL0     C95779   7.260   4.856   4.537  0.5149 -0.1458  0.0921
  710MOL0     C95780   6.654   5.316   4.173  0.9495  0.5130  0.4716
  710MOL0     C95781   6.561   5.352   4.083  0.6178 -0.3401  0.0009
  710MOL0     C95782   6.542   5.509   4.066 -0.5288  1.1934 -0.1853
  710MOL0     H95783   6.239   5.334   3.671 -0.1614  3.0429  2.2484
  710MOL0     H95784   6.010   5.354   3.540 -0.8289 -0.1734 -1.1321
  710MOL0     H95785   5.594   5.254   3.558  0.1418 -0.4649 -0.1522
  710MOL0     H95786   5.679   5.115   3.625  2.2778  0.3963 -3.6006
  710MOL0     H95787   5.695   5.339   3.823 -3.4986  3.7491  0.1070
  710MOL0     H95788   5.622   5.173   3.830 -2.2746  0.2654  0.0769
  710MOL0     H95789   5.407   5.265   3.772  2.6110 -2.4300 -0.6948
  710MOL0     H95790   5.478   5.419   3.723 -0.7774  2.7061  3.9912
  710MOL0     H95791   5.518   5.350   4.012 -1.6801 -3.1191 -0.1929
  710MOL0     H95792   5.492   5.511   3.906  1.1757 -0.0210  0.9708
  710MOL0     H95793   5.264   5.318   3.975 -2.0670  2.1848  0.0625
  710MOL0     H95794   5.317   5.442   4.090  2.8442  1.3792 -0.4678
  710MOL0     H95795   5.258   5.623   3.940 -0.7312  0.5066 -0.2248
  710MOL0     H95796   5.268   5.514   3.800 -0.6353 -0.2568 -0.2169
  710MOL0     H95797   5.044   5.611   3.896  0.7792  0.8569  2.5228
  710MOL0     H95798   5.072   5.526   4.045  1.2337  1.4893  0.2317
  710MOL0     H95799   5.003   5.315   3.951 -1.2661  0.8322  0.8892
  710MOL0     H95800   4.899   5.421   3.859 -1.8317 -6.5656 -2.9988
  710MOL0     H95801   4.987   5.498   3.624 -1.9340 -1.2825  2.3503
  710MOL0     H95802   5.118   5.220   3.354 -3.2655 -0.0989 -1.2744
  710MOL0     H95803   4.987   5.350   3.346 -0.9355  1.2651  0.5337
  710MOL0     H95804   5.160   5.514   3.352  0.9689  1.0579  1.6780
  710MOL0     H95805   5.273   5.407   3.422 -0.5074 -0.7843  0.3743
  710MOL0     H95806   5.290   5.285   3.206  1.1899 -1.0080 -0.0222
  710MOL0     H95807   5.336   5.461   3.207  1.3830 -0.8956  0.9962
  710MOL0     H95808   5.057   5.455   3.143 -1.3814 -2.5361 -0.4120
  710MOL0     H95809   5.117   5.312   3.074 -0.6299  0.0331  0.9717
  710MOL0     H95810   5.169   5.590   2.759 -2.7907 -1.8517 -0.0299
  710MOL0     H95811   5.184   5.840   2.717  0.0158 -0.2629  0.2201
  710MOL0     H95812   5.447   6.244   2.833 -0.3535 -1.5460 -0.5830
  710MOL0     H95813   5.434   6.482   2.826  0.5555 -0.9676 -1.4290
  710MOL0     H95814   5.382   6.699   2.866  0.5947 -1.4659 -0.2073
  710MOL0     H95815   5.377   6.707   2.693  0.3327 -0.7212 -0.4098
  710MOL0     H95816   5.177   6.858   2.711  0.2627  1.8825  1.0188
  710MOL0     H95817   5.204   6.869   2.886  0.1403 -2.4939  1.6295
  710MOL0     H95818   5.433   6.944   2.826 -1.5191 -0.7211  1.0385
  710MOL0     H95819   5.395   6.936   2.651 -0.0645  3.7014 -0.7971
  710MOL0     H95820   5.238   7.111   2.854  0.4685 -1.5684  0.6477
  710MOL0     H95821   5.241   7.115   2.683 -0.3129  0.6437  0.7570
  710MOL0     H95822   5.453   7.219   2.851 -0.4248 -0.2796 -0.3156
  710MOL0     H95823   5.334   7.312   2.774  1.3890  1.6336 -0.5324
  710MOL0     H95824   5.514   7.341   2.641 -3.0378  1.1479  0.8231
  710MOL0     H95825   5.546   7.166   2.626  1.1779  0.4633 -0.5367
  710MOL0     H95826   5.294   7.293   2.524  0.2726 -0.5809  2.3137
  710MOL0     H95827   5.353   7.135   2.483  0.2433 -0.0780 -1.1769
  710MOL0     H95828   5.533   7.367   2.447 -1.3664  0.2161  0.6521
  710MOL0     H95829   5.546   7.219   2.352  2.9564  1.0353  2.0694
  710MOL0     H95830   5.021   6.451   2.715 -0.4746  0.2402 -0.1824
  710MOL0     H95831   5.063   6.196   2.690  0.0069 -1.6859  3.0949
  710MOL0     H95832   5.259   5.902   3.123  0.4812 -0.7434  0.2788
  710MOL0     H95833   5.257   5.674   3.176  1.0541  4.5123  0.1567
  710MOL0     H95834   5.826   5.106   3.843 -0.8251 -0.3171 -1.4647
  710MOL0     H95835   6.038   5.106   3.968 -0.3203  0.2685  0.1170
  710MOL0     H95836   6.424   5.038   4.005 -2.9392  1.8375  0.0211
  710MOL0     H95837   6.615   4.966   4.146  0.8130 -0.3447 -2.2409
  710MOL0     H95838   6.675   5.208   4.424  0.4147  0.5843 -0.8621
  710MOL0     H95839   6.827   5.276   4.405 -1.5087  1.0161 -1.2603
  710MOL0     H95840   6.776   4.971   4.478 -1.2840  1.5232 -0.9967
  710MOL0     H95841   6.809   5.081   4.593 -0.8668 -3.1758 -0.0046
  710MOL0     H95842   7.042   5.102   4.526  2.7883 -1.1898 -1.3883
  710MOL0     H95843   7.018   5.063   4.357  1.4115 -0.5409  0.4018
  710MOL0     H95844   6.958   4.865   4.600 -0.8548 -2.3158 -0.4049
  710MOL0     H95845   6.953   4.818   4.432 -0.9709 -0.0441  0.7128
  710MOL0     H95846   7.363   4.861   4.567  0.3052 -0.0223  0.8153
  710MOL0     H95847   6.719   5.393   4.214 -1.2536  2.4338  0.6021
  710MOL0     H95848   6.614   5.570   4.122  0.6157 -0.4563  0.2322
  710MOL0     H95849   6.548   5.527   3.959 -0.1307 -0.8821 -0.5592
  710MOL0     H95850   6.440   5.535   4.095 -1.2591 -1.9685  0.5651
  711MOL0     O95851   8.052   2.575   6.875  0.2705  0.2784  0.5622
  711MOL0     C95852   8.099   2.571   6.765 -0.0320 -0.2452  0.7911
  711MOL0     O95853   8.153   2.686   6.701 -0.1363  0.7186 -0.5213
  711MOL0     C95854   8.166   2.807   6.758 -0.8166 -1.0547 -0.2778
  711MOL0     C95855   8.165   2.923   6.676  0.6126  0.4051 -0.3553
  711MOL0     C95856   8.164   3.051   6.733 -0.1749  1.0111 -0.0162
  711MOL0     C95857   8.177   3.065   6.874 -0.2844 -0.8234  1.2179
  711MOL0     O95858   8.183   3.187   6.922 -0.0822  0.5402 -1.1768
  711MOL0     C95859   8.278   3.208   7.033 -0.2674  0.8956  0.0487
  711MOL0     C95860   8.254   3.350   7.079  0.5435  0.2005 -0.1986
  711MOL0     C95861   8.109   3.374   7.130  0.5524  0.4639  0.3625
  711MOL0     C95862   8.103   3.441   7.264 -0.4248 -1.3061 -0.7106
  711MOL0     C95863   7.973   3.430   7.336  0.2803 -0.1268  0.4278
  711MOL0     C95864   7.868   3.514   7.257 -0.4050  0.2014 -0.3784
  711MOL0     C95865   7.855   3.638   7.343 -0.2038 -0.1663 -0.0329
  711MOL0     C95866   7.767   3.743   7.268 -0.3454 -0.0381  0.2192
  711MOL0     N95867   7.620   3.714   7.260  0.1118 -0.3172  0.1818
  711MOL0     C95868   7.536   3.735   7.358 -0.1861  0.0992  0.2513
  711MOL0     C95869   7.409   3.703   7.310 -0.1495  0.6519  1.1482
  711MOL0     C95870   7.284   3.721   7.388 -0.2332 -0.1768  0.6448
  711MOL0     C95871   7.243   3.862   7.342 -0.6502 -0.6932  0.5908
  711MOL0     C95872   7.089   3.881   7.382  1.3785  0.0420  0.3450
  711MOL0     C95873   7.024   4.017   7.348  0.2001  0.2296 -0.4402
  711MOL0     O95874   7.061   4.122   7.440 -0.3827 -0.3966 -0.0364
  711MOL0     C95875   7.000   4.246   7.434  0.1005 -0.0315 -0.0424
  711MOL0     C95876   7.004   4.324   7.555  0.9721 -0.2660  1.3341
  711MOL0     C95877   6.949   4.454   7.547 -0.9908  0.3073  0.1495
  711MOL0     C95878   6.872   4.504   7.441  0.7674 -0.5661 -0.3309
  711MOL0     C95879   6.810   4.640   7.442 -0.1308 -0.0559  0.3146
  711MOL0     O95880   6.755   4.676   7.319  0.0492 -0.6042 -0.2320
  711MOL0     C95881   6.736   4.806   7.294  0.0362 -1.1189  0.3547
  711MOL0     C95882   6.644   4.888   7.363  0.4231 -0.2604 -0.3100
  711MOL0     C95883   6.624   5.029   7.327  0.0146  0.2160  0.6749
  711MOL0     C95884   6.684   5.081   7.216  0.2074  0.6318 -0.4017
  711MOL0     O95885   6.647   5.214   7.189 -1.2426 -1.2008 -0.4918
  711MOL0     C95886   6.761   5.294   7.182 -0.9196 -1.1710  1.0050
  711MOL0     C95887   6.707   5.430   7.214  0.5862 -0.1072 -0.1771
  711MOL0     C95888   6.802   5.551   7.211 -0.1446  0.0086 -0.0942
  711MOL0     C95889   6.788   5.626   7.081  0.7014 -0.4050 -0.2023
  711MOL0     C95890   6.898   5.729   7.066 -0.9019  0.6992 -0.2319
  711MOL0     C95891   6.888   5.843   7.172 -0.3824  1.1064 -0.1739
  711MOL0     C95892   6.989   5.957   7.136 -0.3366 -0.7897 -0.5967
  711MOL0     C95893   6.981   6.080   7.228 -0.4561  0.9939  0.4322
  711MOL0    Cl95894   6.989   6.026   7.409 -0.7320 -0.1605 -0.4994
  711MOL0     C95895   6.772   5.001   7.139  0.1672  0.0537  0.4436
  711MOL0     C95896   6.797   4.866   7.178 -0.0342 -0.5328 -1.1615
  711MOL0     O95897   6.841   4.712   7.537  0.0936  0.7109 -0.4444
  711MOL0     C95898   6.863   4.422   7.322  0.5517  0.7753 -0.6330
  711MOL0     C95899   6.927   4.296   7.317 -0.5205 -0.3832  0.4541
  711MOL0     N95900   7.432   3.663   7.174  0.7157 -0.2807 -0.3596
  711MOL0     N95901   7.555   3.664   7.150 -0.1464 -0.8681 -0.1329
  711MOL0     C95902   8.199   2.950   6.947  0.1705  0.0023  0.4663
  711MOL0     C95903   8.191   2.830   6.890 -0.6533  0.5669  0.0701
  711MOL0     C95904   8.105   2.442   6.688 -0.3858 -0.4067  0.4773
  711MOL0     C95905   8.068   2.322   6.752 -0.2698 -0.2611 -0.1946
  711MOL0     C95906   8.057   2.204   6.687 -0.8327  0.3252 -0.1102
  711MOL0     C95907   8.088   2.197   6.555  0.1808 -0.1300  0.0178
  711MOL0     O95908   8.085   2.074   6.497  0.3879  0.3982 -0.4480
  711MOL0     C95909   7.977   1.981   6.524  0.1672  0.2057 -0.1814
  711MOL0     C95910   7.991   1.871   6.418  0.1498 -0.5648  0.2468
  711MOL0     C95911   7.929   1.917   6.286 -0.3292  0.3899  0.5069
  711MOL0     C95912   7.942   1.821   6.176  0.3472 -0.7687  0.3627
  711MOL0     C95913   8.088   1.815   6.140  0.7240  0.1023  1.2716
  711MOL0     C95914   8.204   1.811   6.092 -0.1372 -1.0238 -1.1175
  711MOL0     C95915   8.147   2.307   6.490  0.2856  0.3291 -0.3587
  711MOL0     C95916   8.152   2.433   6.552  0.3333  0.0319  0.3698
  711MOL0     C95917   8.210   2.538   6.476  0.1923  0.5695 -0.4004
  711MOL0     H95918   8.166   2.908   6.569  0.2272 -1.8448 -0.0972
  711MOL0     H95919   8.143   3.136   6.670  0.3283  0.2616 -1.2299
  711MOL0     H95920   8.260   3.143   7.119 -1.6503  1.9236  0.5874
  711MOL0     H95921   8.377   3.182   6.995 -2.2090 -2.8509 -3.2633
  711MOL0     H95922   8.268   3.423   6.999  0.3966  0.4099 -0.0358
  711MOL0     H95923   8.328   3.368   7.157  1.4484  0.7827 -1.1587
  711MOL0     H95924   8.050   3.282   7.127  0.4733  0.5283 -1.8084
  711MOL0     H95925   8.067   3.443   7.056  0.1244 -0.0540  0.1224
  711MOL0     H95926   8.178   3.385   7.320  0.6944 -0.7680 -1.6334
  711MOL0     H95927   8.135   3.546   7.266  1.9085 -1.9546  1.7617
  711MOL0     H95928   7.946   3.324   7.331 -0.0641 -0.1266  1.8956
  711MOL0     H95929   7.986   3.447   7.443  1.3725 -6.6880  1.7590
  711MOL0     H95930   7.909   3.541   7.159  0.3777  1.8015  0.3525
  711MOL0     H95931   7.772   3.465   7.242 -0.5170  0.1584  0.4045
  711MOL0     H95932   7.949   3.690   7.363  1.1933 -3.0935  1.6878
  711MOL0     H95933   7.805   3.621   7.439  0.1607 -1.4738 -0.0565
  711MOL0     H95934   7.785   3.837   7.320  0.6738  0.7771 -1.5262
  711MOL0     H95935   7.807   3.770   7.170 -0.4787  3.5195  1.0181
  711MOL0     H95936   7.563   3.786   7.450  1.6240 -0.7909  0.2564
  711MOL0     H95937   7.218   3.638   7.363 -1.0185  0.5042  0.3803
  711MOL0     H95938   7.302   3.720   7.495  2.8950 -0.0190  0.2074
  711MOL0     H95939   7.308   3.937   7.388  0.7076  0.8781 -3.4657
  711MOL0     H95940   7.261   3.878   7.235 -2.2913  0.4257  0.4503
  711MOL0     H95941   7.079   3.871   7.490 -0.2086 -0.5277  0.1618
  711MOL0     H95942   7.029   3.796   7.349 -0.1058  0.3605  2.1097
  711MOL0     H95943   6.915   4.010   7.342  0.1611 -3.3502  1.5383
  711MOL0     H95944   7.056   4.039   7.245 -0.5386  0.5549 -0.6069
  711MOL0     H95945   7.037   4.283   7.650 -1.6686 -0.1217  2.3862
  711MOL0     H95946   6.945   4.501   7.645 -2.0724 -0.9399  0.7488
  711MOL0     H95947   6.591   4.854   7.452 -1.6741 -0.5344 -1.5970
  711MOL0     H95948   6.567   5.095   7.392  2.2064  0.4729  2.4433
  711MOL0     H95949   6.835   5.272   7.259  1.4017  1.7505 -0.2305
  711MOL0     H95950   6.814   5.297   7.086 -0.1314 -1.8315  1.4078
  711MOL0     H95951   6.609   5.449   7.169 -0.4073 -0.0223  1.9236
  711MOL0     H95952   6.680   5.412   7.318 -0.5120 -0.9945 -0.5879
  711MOL0     H95953   6.779   5.616   7.296  0.5419  1.1604 -0.7702
  711MOL0     H95954   6.909   5.530   7.222  0.4972  2.0681 -1.8842
  711MOL0     H95955   6.689   5.670   7.076  1.6044  1.8930  0.9793
  711MOL0     H95956   6.794   5.568   6.988  0.0063  0.4701 -0.8016
  711MOL0     H95957   6.893   5.772   6.965  1.4329  1.2851 -0.1585
  711MOL0     H95958   6.995   5.684   7.088 -2.2776 -1.4597  1.8846
  711MOL0     H95959   6.787   5.880   7.153 -0.4689  0.5033 -0.9266
  711MOL0     H95960   6.913   5.805   7.272  1.7720  0.4325 -0.9125
  711MOL0     H95961   6.978   5.986   7.031 -1.1024 -1.1186 -0.6061
  711MOL0     H95962   7.091   5.918   7.146  0.8506  1.7766 -1.6304
  711MOL0     H95963   7.064   6.148   7.208  2.0149 -2.0613 -0.4788
  711MOL0     H95964   6.890   6.137   7.206 -0.6203  0.7872  0.5701
  711MOL0     H95965   6.837   5.045   7.064 -1.8216  1.6465 -0.4358
  711MOL0     H95966   6.869   4.801   7.129  1.4955  0.0536  0.2231
  711MOL0     H95967   6.796   4.447   7.240  1.0934  2.7072 -0.5173
  711MOL0     H95968   6.928   4.238   7.225 -0.0482  3.0510 -1.9064
  711MOL0     H95969   8.209   2.964   7.054  0.8191  1.6076  0.2376
  711MOL0     H95970   8.179   2.742   6.953 -1.4848  2.0945  2.1515
  711MOL0     H95971   8.050   2.325   6.859  1.8849 -2.0914  0.2822
  711MOL0     H95972   8.014   2.121   6.742 -1.0807  1.3528  1.2923
  711MOL0     H95973   7.875   2.022   6.523 -0.5185 -0.8777  4.0871
  711MOL0     H95974   7.979   1.931   6.621 -0.1139 -0.2929 -0.4252
  711MOL0     H95975   7.937   1.781   6.449  1.0771 -1.2314 -0.0376
  711MOL0     H95976   8.094   1.839   6.401  0.8968  1.9257 -0.3398
  711MOL0     H95977   7.973   2.015   6.265 -0.8359  0.2872 -1.1345
  711MOL0     H95978   7.822   1.942   6.290 -1.4012 -3.3154 -1.1570
  711MOL0     H95979   7.896   1.722   6.187  0.7347 -1.2730 -2.0290
  711MOL0     H95980   7.892   1.865   6.089  1.5009  0.2159  0.1824
  711MOL0     H95981   8.307   1.813   6.062  0.4152 -1.6099  0.5830
  711MOL0     H95982   8.172   2.303   6.384  1.2640 -1.4797 -0.0850
  711MOL0     H95983   8.298   2.561   6.537 -1.0654 -0.0062  1.7726
  711MOL0     H95984   8.236   2.505   6.376 -0.3952 -2.2014  0.2705
  711MOL0     H95985   8.156   2.633   6.481 -1.9176 -0.5915  0.2897
  712MOL0     O95986   7.241   0.974   6.681  0.1195  0.5522 -0.3545
  712MOL0     C95987   7.257   0.880   6.608  0.1174 -0.2294 -0.0093
  712MOL0     O95988   7.183   0.762   6.609 -1.1435 -0.8073  0.1354
  712MOL0     C95989   7.065   0.761   6.678 -0.0626 -0.6601 -0.4397
  712MOL0     C95990   7.056   0.681   6.787  0.8716  0.2070 -0.5102
  712MOL0     C95991   6.948   0.698   6.874 -0.1758  0.1824  0.1606
  712MOL0     C95992   6.847   0.788   6.849 -0.6334 -0.1668 -0.9044
  712MOL0     O95993   6.736   0.814   6.932  1.0238  0.5750 -1.0515
  712MOL0     C95994   6.662   0.689   6.959  0.0877 -0.0041 -0.7672
  712MOL0     C95995   6.529   0.726   7.036  0.0685 -0.2847  0.3495
  712MOL0     C95996   6.429   0.805   6.953  0.3933 -0.8789 -0.0456
  712MOL0     C95997   6.288   0.815   7.019 -0.6758 -0.1310  0.0078
  712MOL0     C95998   6.176   0.883   6.932 -0.5918  0.5641  1.3381
  712MOL0     C95999   6.049   0.926   6.999 -0.2518 -0.5860  1.4412
  712MOL0     C96000   5.947   0.998   6.904 -0.5531 -1.2440  0.5648
  712MOL0     C96001   5.899   0.912   6.784  0.7302 -0.6906 -0.6616
  712MOL0     N96002   5.836   0.796   6.835  0.3384  0.5400  0.2458
  712MOL0     C96003   5.716   0.791   6.904  0.7807  0.2391  0.8568
  712MOL0     C96004   5.701   0.663   6.942 -0.3059 -0.4948  0.9026
  712MOL0     C96005   5.590   0.620   7.030  1.0352  0.1061  0.0406
  712MOL0     C96006   5.592   0.684   7.177  0.4342 -1.1519  0.2469
  712MOL0     C96007   5.716   0.644   7.260 -0.0828 -0.0938 -0.1718
  712MOL0     C96008   5.726   0.724   7.388 -0.7140  0.1772  0.0729
  712MOL0     O96009   5.770   0.861   7.375  0.2390  0.2460  0.3094
  712MOL0     C96010   5.900   0.897   7.413 -0.4803  0.5078 -0.7228
  712MOL0     C96011   6.017   0.820   7.397  0.8021  0.1362 -0.2368
  712MOL0     C96012   6.140   0.871   7.420 -1.0168  0.1554  0.2746
  712MOL0     C96013   6.155   1.004   7.471 -0.6058  0.0229 -1.4668
  712MOL0     C96014   6.284   1.076   7.480  0.3270  0.6311 -0.0752
  712MOL0     O96015   6.390   0.989   7.488 -0.3346  0.4349 -0.0126
  712MOL0     C96016   6.501   1.049   7.447 -1.2402  0.3992 -0.9925
  712MOL0     C96017   6.611   1.072   7.540  0.0037  0.4202 -0.1161
  712MOL0     C96018   6.741   1.105   7.502  0.2999  0.0432 -0.4142
  712MOL0     C96019   6.759   1.127   7.362 -0.1289  0.0929 -0.1510
  712MOL0     O96020   6.882   1.191   7.344 -0.2548  0.5668 -0.3720
  712MOL0     C96021   6.870   1.306   7.255 -0.4446  0.1031 -0.5896
  712MOL0     C96022   6.936   1.275   7.123 -0.3424  0.5999 -0.0157
  712MOL0     C96023   7.084   1.256   7.124 -0.7542 -0.1224  0.5965
  712MOL0     C96024   7.144   1.201   6.996 -0.3763  0.3102  0.1652
  712MOL0     C96025   7.301   1.188   7.010 -0.3518  0.9331 -0.0948
  712MOL0     C96026   7.396   1.308   6.992  0.2167 -0.0482  0.9059
  712MOL0     C96027   7.537   1.243   6.987  0.8979 -0.5263  0.3175
  712MOL0     C96028   7.647   1.329   6.929  0.0709 -0.7498  0.7570
  712MOL0    Cl96029   7.607   1.383   6.764 -0.7096  0.0747  0.1127
  712MOL0     C96030   6.665   1.079   7.267 -0.6136 -0.9777  0.1401
  712MOL0     C96031   6.538   1.047   7.313  0.2585 -0.3635 -0.0786
  712MOL0     O96032   6.289   1.196   7.463 -0.5372 -0.0048 -0.1861
  712MOL0     C96033   6.041   1.072   7.493  0.4382  1.2107 -0.0847
  712MOL0     C96034   5.919   1.020   7.469  0.1371 -1.3158 -0.0582
  712MOL0     N96035   5.816   0.600   6.903  0.3066  0.1855 -0.1038
  712MOL0     N96036   5.902   0.681   6.849  0.5202 -0.5709  1.0849
  712MOL0     C96037   6.856   0.867   6.734  0.4134  0.9700  0.5359
  712MOL0     C96038   6.965   0.860   6.646 -0.4149 -0.0872 -1.0360
  712MOL0     C96039   7.363   0.897   6.504  0.4695  1.5519 -0.0583
  712MOL0     C96040   7.399   0.776   6.438 -0.4522 -0.1203 -0.3421
  712MOL0     C96041   7.490   0.779   6.338  0.0251 -0.3981  0.2906
  712MOL0     C96042   7.557   0.906   6.301  0.3712 -0.5967 -0.7634
  712MOL0     O96043   7.630   0.926   6.188 -0.8202  0.8201 -0.4614
  712MOL0     C96044   7.714   0.815   6.155  0.4088  0.2029 -0.0326
  712MOL0     C96045   7.809   0.781   6.262 -0.7945 -1.1720  0.3519
  712MOL0     C96046   7.881   0.642   6.226  0.2219  0.0575 -0.7226
  712MOL0     C96047   7.996   0.617   6.332 -0.7287 -0.1285 -0.4852
  712MOL0     C96048   8.113   0.703   6.287  0.4307  0.6019  0.0390
  712MOL0     C96049   8.192   0.769   6.235  0.4331 -0.2222  0.2158
  712MOL0     C96050   7.524   1.019   6.367 -0.6302 -0.8504 -0.4324
  712MOL0     C96051   7.433   1.019   6.472 -0.0707  0.9832 -0.1706
  712MOL0     C96052   7.411   1.147   6.549  0.0980 -0.6732  0.6599
  712MOL0     H96053   7.138   0.615   6.815  2.1217  2.9511  3.1465
  712MOL0     H96054   6.953   0.636   6.963  2.0468 -0.9740 -0.6767
  712MOL0     H96055   6.635   0.636   6.867  2.1592 -2.6762  0.0317
  712MOL0     H96056   6.721   0.625   7.025  1.2292  0.6359 -1.1339
  712MOL0     H96057   6.547   0.775   7.132  1.3102 -0.8719  0.4309
  712MOL0     H96058   6.498   0.622   7.044  0.6321 -0.6592 -1.7872
  712MOL0     H96059   6.414   0.761   6.854 -0.0083  2.4043 -1.5884
  712MOL0     H96060   6.478   0.902   6.941 -0.3999 -0.4147  0.3636
  712MOL0     H96061   6.272   0.712   7.053  3.2940 -0.2171  2.2905
  712MOL0     H96062   6.300   0.878   7.108 -1.1915  1.4078 -0.9829
  712MOL0     H96063   6.220   0.973   6.887  0.8618 -0.4091  0.7094
  712MOL0     H96064   6.159   0.820   6.844 -1.5003 -0.9334  2.5382
  712MOL0     H96065   5.992   0.841   7.037 -1.5680  0.0118  0.8913
  712MOL0     H96066   6.075   0.993   7.082  1.3316  0.9241 -0.1808
  712MOL0     H96067   6.008   1.079   6.864 -2.5776  0.2757  0.3847
  712MOL0     H96068   5.869   1.046   6.963  1.2273 -1.0439  2.9186
  712MOL0     H96069   5.829   0.970   6.725 -0.3276 -1.7549 -0.4957
  712MOL0     H96070   5.984   0.869   6.730  1.3194 -2.1631  1.2931
  712MOL0     H96071   5.656   0.873   6.941  1.5231  0.7810  0.8894
  712MOL0     H96072   5.488   0.633   6.990  0.8136  1.7019  1.0377
  712MOL0     H96073   5.612   0.513   7.033  1.2024  0.1626  2.2891
  712MOL0     H96074   5.582   0.793   7.173  3.4205 -0.7029  1.9799
  712MOL0     H96075   5.508   0.642   7.233  2.8769 -4.9238  1.4496
  712MOL0     H96076   5.801   0.669   7.197  0.3547  1.9986  1.1556
  712MOL0     H96077   5.715   0.536   7.278  0.3834 -0.0426  0.1827
  712MOL0     H96078   5.788   0.659   7.449 -3.4143 -1.2273  1.5129
  712MOL0     H96079   5.629   0.727   7.440 -0.6801  1.0430  0.0990
  712MOL0     H96080   6.005   0.728   7.341 -0.3375  1.1329 -1.7221
  712MOL0     H96081   6.227   0.807   7.405 -0.4761  0.8324  0.4464
  712MOL0     H96082   6.605   1.056   7.648  0.7278  2.1798  0.2101
  712MOL0     H96083   6.822   1.131   7.570  1.2842 -2.1936 -0.6372
  712MOL0     H96084   6.765   1.332   7.243 -2.1644 -3.3040  4.0269
  712MOL0     H96085   6.928   1.390   7.292 -0.6617 -0.9060  2.2401
  712MOL0     H96086   6.893   1.180   7.090 -2.7753  1.2566  1.0867
  712MOL0     H96087   6.898   1.358   7.063  0.5585  1.6790  0.8544
  712MOL0     H96088   7.134   1.353   7.132  1.2987 -1.1808  1.4456
  712MOL0     H96089   7.112   1.192   7.208  3.1206 -0.6522 -0.8702
  712MOL0     H96090   7.112   1.262   6.911  0.8238 -1.2300 -1.4804
  712MOL0     H96091   7.094   1.107   6.974 -2.3688  1.5942 -1.0857
  712MOL0     H96092   7.333   1.111   6.939 -0.6012  1.1917 -0.4896
  712MOL0     H96093   7.312   1.154   7.114 -2.3222 -0.6508 -0.3221
  712MOL0     H96094   7.367   1.362   6.902  0.2735 -1.6301 -0.1021
  712MOL0     H96095   7.392   1.367   7.084  1.1934 -0.0974  0.9909
  712MOL0     H96096   7.523   1.164   6.913  0.2003  1.8359 -2.2398
  712MOL0     H96097   7.568   1.201   7.083 -1.0063  1.3057  1.8030
  712MOL0     H96098   7.668   1.414   6.994  0.4047  0.0322 -0.3502
  712MOL0     H96099   7.740   1.272   6.922 -0.0449 -0.7747 -1.5419
  712MOL0     H96100   6.697   1.066   7.164  1.2413 -2.3911  0.8305
  712MOL0     H96101   6.469   1.010   7.238 -1.0693 -0.2331  1.0229
  712MOL0     H96102   6.035   1.167   7.545 -1.5325  0.1597  1.7547
  712MOL0     H96103   5.831   1.083   7.483  0.7028 -0.2214 -1.2136
  712MOL0     H96104   6.771   0.931   6.713 -1.9895 -1.7722  1.2466
  712MOL0     H96105   6.991   0.931   6.569  0.1869 -1.1483 -1.8412
  712MOL0     H96106   7.346   0.685   6.465 -0.7282  0.1317 -0.0252
  712MOL0     H96107   7.507   0.693   6.275  2.9863 -0.0728  0.5214
  712MOL0     H96108   7.784   0.842   6.076  2.4740 -0.3047  1.5172
  712MOL0     H96109   7.660   0.723   6.128 -0.5896  1.0860 -1.1123
  712MOL0     H96110   7.765   0.787   6.362  0.4208  2.3236  0.8216
  712MOL0     H96111   7.882   0.862   6.265 -2.0009 -0.0365  0.2818
  712MOL0     H96112   7.919   0.640   6.123  0.9358  1.2896 -0.5170
  712MOL0     H96113   7.800   0.569   6.231  0.3212 -0.0428  4.3771
  712MOL0     H96114   7.966   0.638   6.435  0.7874 -4.2955  1.0440
  712MOL0     H96115   8.030   0.513   6.327 -0.3402 -0.1310  1.4700
  712MOL0     H96116   8.276   0.816   6.188 -0.5315  0.7043 -0.6381
  712MOL0     H96117   7.575   1.112   6.346 -0.9885 -0.9259 -1.7097
  712MOL0     H96118   7.463   1.231   6.501 -0.2064 -0.2182  1.1255
  712MOL0     H96119   7.305   1.167   6.534  0.3736 -0.9800 -2.4825
  712MOL0     H96120   7.430   1.158   6.656  0.6376  1.9906  0.3530
  713MOL0     O96121   6.781   4.017   5.044  0.0679  0.2582  0.7423
  713MOL0     C96122   6.796   3.935   4.950 -0.1082  1.1208  0.1610
  713MOL0     O96123   6.754   3.950   4.825 -0.9038  0.4855 -0.2504
  713MOL0     C96124   6.678   4.057   4.804 -0.8041 -0.3348 -0.2554
  713MOL0     C96125   6.538   4.047   4.800 -0.2712  0.1215 -0.7871
  713MOL0     C96126   6.446   4.150   4.775 -0.2687  0.2156  0.4364
  713MOL0     C96127   6.509   4.276   4.760 -0.1050 -0.0333 -1.1013
  713MOL0     O96128   6.421   4.382   4.756 -0.1961  0.3018  0.9176
  713MOL0     C96129   6.465   4.516   4.786 -0.0736 -0.3902  1.1122
  713MOL0     C96130   6.344   4.610   4.806 -0.3946 -0.1899 -0.6726
  713MOL0     C96131   6.400   4.745   4.845 -0.5631 -1.2442  0.7334
  713MOL0     C96132   6.471   4.832   4.740  0.2447  0.1496  0.3689
  713MOL0     C96133   6.617   4.874   4.761  0.1911 -0.3269  0.5215
  713MOL0     C96134   6.639   4.945   4.895  0.5536 -0.4777 -0.7754
  713MOL0     C96135   6.754   4.900   4.984 -0.7851  0.3443  0.7770
  713MOL0     C96136   6.893   4.929   4.920 -0.5657 -0.7567  0.6724
  713MOL0     N96137   6.993   4.880   5.013  0.1276 -0.4599  0.1651
  713MOL0     C96138   7.055   4.756   5.003  0.2600 -0.7870 -0.2253
  713MOL0     C96139   7.166   4.764   5.085  0.3007  0.5669  0.5252
  713MOL0     C96140   7.280   4.657   5.102 -0.1978  0.6188  0.1169
  713MOL0     C96141   7.337   4.608   4.965 -0.4245  0.0397 -0.7568
  713MOL0     C96142   7.419   4.728   4.896 -0.0700  0.1368  0.2253
  713MOL0     C96143   7.545   4.678   4.816  0.5517 -0.7399  0.6127
  713MOL0     O96144   7.495   4.607   4.706 -0.0129  0.5098 -0.6712
  713MOL0     C96145   7.590   4.541   4.629  0.8754 -0.0426 -0.4101
  713MOL0     C96146   7.719   4.517   4.676  0.6685 -0.6776 -0.3339
  713MOL0     C96147   7.810   4.448   4.588 -0.4338 -0.3631 -1.2242
  713MOL0     C96148   7.771   4.392   4.464 -0.1161  0.0969  0.5743
  713MOL0     C96149   7.871   4.317   4.383  0.2251 -0.0422  0.1560
  713MOL0     O96150   7.985   4.263   4.442  0.3839 -0.8013 -0.6606
  713MOL0     C96151   8.097   4.245   4.359  0.1717 -0.9073  0.5320
  713MOL0     C96152   8.129   4.312   4.241 -0.4707 -0.3343  0.2857
  713MOL0     C96153   8.247   4.282   4.175 -0.1476  0.0347 -0.2734
  713MOL0     C96154   8.330   4.181   4.219 -0.5224 -0.4631  0.2268
  713MOL0     O96155   8.451   4.157   4.156  1.1227  0.7908  0.0910
  713MOL0     C96156   8.440   4.072   4.050 -0.5785  0.3414 -0.4321
  713MOL0     C96157   8.585   4.032   4.008  0.7390 -0.1544  0.7617
  713MOL0     C96158   8.594   3.969   3.866 -0.5254 -0.4766 -0.1431
  713MOL0     C96159   8.737   3.921   3.832 -0.2194  0.2201 -0.5320
  713MOL0     C96160   8.765   3.938   3.682  0.3967  0.4108  0.0471
  713MOL0     C96161   8.904   3.893   3.636 -0.1085  1.1275 -0.6596
  713MOL0     C96162   8.908   3.736   3.630 -0.7726  0.3219 -0.3841
  713MOL0     C96163   9.037   3.674   3.577 -0.6581  0.5871  0.6442
  713MOL0    Cl96164   9.103   3.686   3.413  0.3240  0.0562  0.3040
  713MOL0     C96165   8.293   4.113   4.331  0.8711 -1.6212 -0.7990
  713MOL0     C96166   8.184   4.148   4.398  0.0724 -0.7279  0.3910
  713MOL0     O96167   7.850   4.306   4.263 -0.7665 -0.2648  1.0226
  713MOL0     C96168   7.642   4.424   4.424  0.3085 -0.1933 -0.2562
  713MOL0     C96169   7.547   4.494   4.502 -0.3421  0.3582 -0.3601
  713MOL0     N96170   7.169   4.896   5.134 -0.2485  0.2050  0.1880
  713MOL0     N96171   7.067   4.964   5.098  0.0818  1.1890  0.1240
  713MOL0     C96172   6.649   4.294   4.775  1.1005  0.5277 -0.2788
  713MOL0     C96173   6.736   4.182   4.793 -0.4512 -0.6857  1.0667
  713MOL0     C96174   6.863   3.812   4.996  0.3344 -0.0090  0.1723
  713MOL0     C96175   6.978   3.771   4.929 -0.4120  0.1372 -0.4938
  713MOL0     C96176   7.065   3.678   4.986 -0.0611  0.5922  0.4639
  713MOL0     C96177   7.024   3.615   5.115 -1.0424 -0.4388  0.6138
  713MOL0     O96178   7.105   3.518   5.172  0.4647 -0.3367 -0.2619
  713MOL0     C96179   7.243   3.514   5.130 -0.3727  1.3087  0.2514
  713MOL0     C96180   7.316   3.626   5.201 -0.0571 -1.0669 -0.1188
  713MOL0     C96181   7.467   3.636   5.180 -0.8305 -0.0915 -1.1379
  713MOL0     C96182   7.540   3.497   5.166 -0.2189 -0.3257 -0.8823
  713MOL0     C96183   7.527   3.434   5.300 -0.5615  1.4828  0.1959
  713MOL0     C96184   7.525   3.395   5.414 -0.3236 -0.4507 -0.5494
  713MOL0     C96185   6.902   3.654   5.178 -0.0335  0.8341  0.6411
  713MOL0     C96186   6.819   3.751   5.115 -0.5713 -0.5190  0.1235
  713MOL0     C96187   6.681   3.769   5.183  0.3788  0.3913 -0.6546
  713MOL0     H96188   6.499   3.947   4.820 -0.8340 -0.6709 -4.9405
  713MOL0     H96189   6.338   4.149   4.776 -0.2714 -0.8329  0.3262
  713MOL0     H96190   6.527   4.512   4.876  1.1951  2.0870  0.4257
  713MOL0     H96191   6.517   4.561   4.701  0.0581  0.7782  1.7920
  713MOL0     H96192   6.283   4.581   4.891  0.2782  0.5838  0.0944
  713MOL0     H96193   6.277   4.633   4.722 -0.8434  0.3189 -0.1844
  713MOL0     H96194   6.469   4.743   4.930 -0.1666 -0.3587  0.4396
  713MOL0     H96195   6.308   4.798   4.870 -1.9932 -2.1702 -2.1536
  713MOL0     H96196   6.459   4.782   4.644 -0.5762  0.8609  0.0840
  713MOL0     H96197   6.413   4.925   4.739 -1.0616 -0.5481  2.8412
  713MOL0     H96198   6.668   4.780   4.740 -1.0677 -0.4576 -2.3704
  713MOL0     H96199   6.646   4.949   4.686 -0.9085  1.5335  1.8712
  713MOL0     H96200   6.647   5.054   4.882 -0.1802 -0.3027  0.1193
  713MOL0     H96201   6.548   4.938   4.955  1.8448  0.9473  1.5084
  713MOL0     H96202   6.737   4.792   4.986 -2.8838  0.6087  0.1465
  713MOL0     H96203   6.733   4.936   5.085 -0.4790  0.3894  0.8265
  713MOL0     H96204   6.923   4.878   4.828 -0.6918  0.6218 -0.1567
  713MOL0     H96205   6.914   5.035   4.905  2.8990 -1.3598  0.4025
  713MOL0     H96206   7.019   4.669   4.949 -2.6251  0.3383 -0.2970
  713MOL0     H96207   7.364   4.692   5.164 -0.3141 -1.5544  1.6221
  713MOL0     H96208   7.234   4.576   5.160  1.3301  1.3807  2.5370
  713MOL0     H96209   7.405   4.523   4.970 -1.7571 -1.1803 -2.1531
  713MOL0     H96210   7.250   4.576   4.906  0.2399 -0.4092 -1.5166
  713MOL0     H96211   7.464   4.790   4.974 -0.5755 -3.2241  3.4671
  713MOL0     H96212   7.353   4.787   4.831 -0.5151 -2.9915 -2.4192
  713MOL0     H96213   7.608   4.624   4.887  0.1059 -2.5283 -0.2923
  713MOL0     H96214   7.595   4.767   4.777 -0.2957 -0.0238  1.1320
  713MOL0     H96215   7.760   4.557   4.768 -2.6152 -1.3316  1.5608
  713MOL0     H96216   7.910   4.435   4.629 -1.1233  3.7865  2.6593
  713MOL0     H96217   8.080   4.402   4.206  1.9025  1.3001  0.9463
  713MOL0     H96218   8.283   4.331   4.085  0.0101 -0.1564 -0.3163
  713MOL0     H96219   8.386   3.985   4.087 -0.6965  0.8602  0.6676
  713MOL0     H96220   8.387   4.126   3.971  1.5133 -1.3802 -3.2087
  713MOL0     H96221   8.653   4.117   4.014  1.1862 -0.4435  0.0042
  713MOL0     H96222   8.619   3.959   4.082 -0.9368  1.7115  3.5722
  713MOL0     H96223   8.535   3.877   3.870  0.3856 -1.0715  3.0909
  713MOL0     H96224   8.558   4.041   3.792 -2.2994 -2.6560 -1.4926
  713MOL0     H96225   8.749   3.820   3.872  3.7047  0.4959 -0.6676
  713MOL0     H96226   8.808   3.981   3.890  2.5734 -3.5650  0.2904
  713MOL0     H96227   8.737   4.038   3.648  0.5455  0.9073  1.3460
  713MOL0     H96228   8.691   3.879   3.626  0.0879  3.9112 -3.6851
  713MOL0     H96229   8.921   3.920   3.531  0.9611  0.3404 -0.7091
  713MOL0     H96230   8.985   3.926   3.702 -1.1588 -1.0949  1.9083
  713MOL0     H96231   8.835   3.697   3.559  0.7043  0.5915 -2.1372
  713MOL0     H96232   8.895   3.704   3.734  3.1503  0.5833  0.3522
  713MOL0     H96233   9.113   3.711   3.646 -0.9351  1.9902  0.2186
  713MOL0     H96234   9.041   3.567   3.600  1.6008  0.7690  1.3603
  713MOL0     H96235   8.339   4.018   4.355  2.4009 -0.4076  1.4247
  713MOL0     H96236   8.159   4.090   4.487 -2.2765 -0.9539 -0.3522
  713MOL0     H96237   7.610   4.396   4.325  0.2704  1.9551 -0.9002
  713MOL0     H96238   7.456   4.509   4.445  0.6092  0.6793 -1.8706
  713MOL0     H96239   6.700   4.389   4.783  2.6114 -0.0288 -2.4896
  713MOL0     H96240   6.843   4.199   4.794 -0.1121 -2.5434  0.2780
  713MOL0     H96241   7.004   3.797   4.827  1.1292 -0.6248 -0.3356
  713MOL0     H96242   7.152   3.643   4.931  0.6125  0.1994  1.7431
  713MOL0     H96243   7.266   3.509   5.023  1.0483  2.2109  0.4865
  713MOL0     H96244   7.278   3.420   5.175 -0.3318  0.9539 -0.5095
  713MOL0     H96245   7.294   3.620   5.308  0.6998  0.3995  0.1464
  713MOL0     H96246   7.277   3.718   5.156  3.1291  0.3228 -0.2990
  713MOL0     H96247   7.507   3.688   5.268 -3.7048  1.7292 -0.7598
  713MOL0     H96248   7.501   3.707   5.105  5.4190  2.6818  3.3896
  713MOL0     H96249   7.497   3.435   5.086  0.0805  1.7009 -2.7092
  713MOL0     H96250   7.635   3.534   5.126 -1.0631  0.2439 -2.4565
  713MOL0     H96251   7.494   3.358   5.509 -1.8675  3.3286  0.6215
  713MOL0     H96252   6.880   3.601   5.271  4.6214 -3.8227 -0.4687
  713MOL0     H96253   6.681   3.862   5.242  0.9449 -0.8288  1.3600
  713MOL0     H96254   6.605   3.795   5.109 -2.3781  2.3846  2.5787
  713MOL0     H96255   6.641   3.686   5.241 -0.4184 -0.7050 -2.6855
  714MOL0     O96256   0.538   4.420   4.014 -1.2951 -0.0767 -0.2101
  714MOL0     C96257   0.576   4.363   4.115 -0.6425  0.1644 -1.0248
  714MOL0     O96258   0.612   4.424   4.236  0.1488 -0.3472  0.3315
  714MOL0     C96259   0.549   4.533   4.289 -0.2097 -1.2859 -0.6319
  714MOL0     C96260   0.624   4.625   4.369 -0.1080 -1.0264  0.1386
  714MOL0     C96261   0.551   4.726   4.435  0.3650  0.1245 -0.6600
  714MOL0     C96262   0.412   4.739   4.424  0.2871 -0.1927 -0.7369
  714MOL0     O96263   0.344   4.833   4.506  0.8915  0.2270  0.0290
  714MOL0     C96264   0.242   4.917   4.445 -0.1998 -0.4088  0.3396
  714MOL0     C96265   0.312   5.040   4.381 -0.4493  0.0288 -0.1481
  714MOL0     C96266   0.387   4.999   4.265 -0.5054 -0.9773 -0.3836
  714MOL0     C96267   0.464   5.127   4.200  0.3922  0.8738 -0.0876
  714MOL0     C96268   0.612   5.147   4.240  0.5930  0.2222  0.5408
  714MOL0     C96269   0.687   5.235   4.140  0.5073 -0.3102 -0.1890
  714MOL0     C96270   0.826   5.201   4.120  0.8222 -0.0333 -0.6623
  714MOL0     C96271   0.905   5.310   4.047 -0.0852  0.5344 -0.0192
  714MOL0     N96272   1.052   5.295   4.039  0.5572  0.0942  0.3792
  714MOL0     C96273   1.100   5.189   3.984  0.1184 -0.9496  0.1806
  714MOL0     C96274   1.229   5.183   4.021  0.3981  0.2580  0.1922
  714MOL0     C96275   1.345   5.098   3.981 -0.5320  0.9752  0.5794
  714MOL0     C96276   1.457   5.174   3.911  0.3294 -0.3114  0.5185
  714MOL0     C96277   1.573   5.222   4.003 -1.5237 -0.5186  0.3393
  714MOL0     C96278   1.632   5.368   3.970 -0.6532  0.8562 -0.8399
  714MOL0     O96279   1.674   5.395   3.836 -0.2322 -0.7157  0.6494
  714MOL0     C96280   1.745   5.505   3.797 -0.3648 -0.7300 -0.5540
  714MOL0     C96281   1.785   5.525   3.663  0.0389 -0.3364 -0.5073
  714MOL0     C96282   1.859   5.639   3.628 -0.0888 -0.1342  0.5128
  714MOL0     C96283   1.913   5.731   3.723 -0.3329  0.6622 -0.2970
  714MOL0     C96284   1.997   5.842   3.673 -1.3026 -0.1958 -0.6187
  714MOL0     O96285   1.997   5.867   3.539  1.0793  0.8981 -0.3272
  714MOL0     C96286   2.035   5.994   3.501 -0.6617  1.0598 -1.3362
  714MOL0     C96287   2.174   6.024   3.508  0.5585  1.0058  0.2694
  714MOL0     C96288   2.209   6.148   3.451 -0.6393  0.1636  0.3622
  714MOL0     C96289   2.111   6.242   3.404 -0.1429  0.7106 -0.0333
  714MOL0     O96290   2.173   6.362   3.372  0.5247  0.9926  0.1341
  714MOL0     C96291   2.101   6.474   3.339  0.6317  0.6182 -0.0113
  714MOL0     C96292   2.053   6.552   3.463 -0.3076  0.3454 -0.1066
  714MOL0     C96293   2.166   6.614   3.542 -0.3776 -0.2422  0.2087
  714MOL0     C96294   2.218   6.744   3.481 -0.2981  0.2632 -0.3279
  714MOL0     C96295   2.327   6.815   3.553  0.1722  0.3881 -0.1047
  714MOL0     C96296   2.423   6.726   3.631 -0.0143 -0.1655 -1.2170
  714MOL0     C96297   2.516   6.819   3.714  0.2549 -0.1023 -0.1968
  714MOL0     C96298   2.637   6.862   3.629  0.6068 -0.0012  0.1738
  714MOL0    Cl96299   2.747   6.970   3.709  0.1670 -0.6424  0.0314
  714MOL0     C96300   1.969   6.208   3.405  0.3088  0.3255  0.3821
  714MOL0     C96301   1.938   6.084   3.458 -0.0684 -0.4540  0.0546
  714MOL0     O96302   2.059   5.909   3.760  0.5247 -0.0256  0.2574
  714MOL0     C96303   1.882   5.706   3.859  0.7623  0.5036 -0.6503
  714MOL0     C96304   1.800   5.599   3.891  0.2589  0.0546 -0.1524
  714MOL0     N96305   1.250   5.289   4.099 -0.4261  0.0502  0.3945
  714MOL0     N96306   1.140   5.351   4.117 -0.0054 -0.6036 -1.4218
  714MOL0     C96307   0.341   4.653   4.340 -0.8206  0.0539 -0.0226
  714MOL0     C96308   0.408   4.546   4.274 -0.7317 -0.4919  0.4470
  714MOL0     C96309   0.622   4.224   4.089  0.0015  1.1505  0.7571
  714MOL0     C96310   0.725   4.175   4.179 -0.1463 -0.4106  0.2196
  714MOL0     C96311   0.771   4.041   4.172  1.1157 -0.4734  0.3133
  714MOL0     C96312   0.712   3.960   4.080  0.0789  0.1546 -0.3388
  714MOL0     O96313   0.744   3.822   4.088  0.4925  0.3921 -0.0056
  714MOL0     C96314   0.855   3.765   4.157  0.0863 -0.8693  0.5568
  714MOL0     C96315   0.866   3.623   4.106 -0.6710  0.6166 -0.1847
  714MOL0     C96316   0.734   3.541   4.104  0.2845  0.2911 -0.8300
  714MOL0     C96317   0.638   3.566   4.233  0.4666 -0.1968 -0.5845
  714MOL0     C96318   0.701   3.519   4.364  0.0931  0.3697  0.3363
  714MOL0     C96319   0.743   3.493   4.477  0.7929  0.2203  0.3550
  714MOL0     C96320   0.617   4.004   3.994 -0.0853  0.0086  1.1731
  714MOL0     C96321   0.569   4.137   3.994  0.3331  0.7625  0.2379
  714MOL0     C96322   0.447   4.165   3.909  0.4190 -0.1648 -0.0324
  714MOL0     H96323   0.730   4.614   4.389 -0.4656 -4.7500  0.6699
  714MOL0     H96324   0.590   4.806   4.497 -1.3087  1.0776 -0.7772
  714MOL0     H96325   0.186   4.863   4.367 -0.5596  1.3292 -0.6639
  714MOL0     H96326   0.174   4.949   4.524 -1.9567 -5.0937  1.0456
  714MOL0     H96327   0.375   5.083   4.459  1.4452 -1.6141 -0.6765
  714MOL0     H96328   0.229   5.104   4.349 -1.9208 -0.6363  2.0959
  714MOL0     H96329   0.335   4.942   4.187 -0.9229 -2.9958  1.2937
  714MOL0     H96330   0.467   4.930   4.292 -0.3107 -1.8445 -2.8997
  714MOL0     H96331   0.454   5.137   4.091  0.3192  0.5123 -0.1144
  714MOL0     H96332   0.413   5.218   4.233  1.5968  1.0720  1.3349
  714MOL0     H96333   0.608   5.193   4.339  0.8796  0.2128  0.5562
  714MOL0     H96334   0.661   5.052   4.259  0.1422  0.4528  3.2083
  714MOL0     H96335   0.639   5.231   4.042 -0.6032 -2.0933  0.3716
  714MOL0     H96336   0.687   5.336   4.181  1.7340  0.3961 -1.8253
  714MOL0     H96337   0.829   5.111   4.057  0.6061  1.7362 -3.3720
  714MOL0     H96338   0.873   5.181   4.216  2.6380  0.5637 -1.3799
  714MOL0     H96339   0.859   5.321   3.949 -0.9517  1.5091  0.4801
  714MOL0     H96340   0.889   5.407   4.095 -0.5255  0.6544 -0.4025
  714MOL0     H96341   1.050   5.124   3.913  0.3957  1.7563 -2.7124
  714MOL0     H96342   1.394   5.045   4.064  0.7025  0.2914 -0.5282
  714MOL0     H96343   1.312   5.029   3.902 -1.7590  0.0309  1.8746
  714MOL0     H96344   1.504   5.108   3.838 -0.0576 -1.9914  1.7130
  714MOL0     H96345   1.416   5.252   3.846 -4.2596 -2.8768 -0.1500
  714MOL0     H96346   1.661   5.160   3.988 -0.5619  1.0415 -0.7540
  714MOL0     H96347   1.544   5.199   4.106 -0.6588 -1.6177  0.3526
  714MOL0     H96348   1.706   5.400   4.044 -1.5493  1.6872 -0.2919
  714MOL0     H96349   1.550   5.438   3.986  0.2409  1.2108  3.1143
  714MOL0     H96350   1.742   5.459   3.589  1.6484 -0.2525 -1.5545
  714MOL0     H96351   1.874   5.652   3.521 -1.1773 -0.1810  0.3363
  714MOL0     H96352   2.236   5.946   3.550 -0.3805  0.3262  0.4137
  714MOL0     H96353   2.313   6.180   3.443 -0.9537  0.7421 -2.7164
  714MOL0     H96354   2.167   6.546   3.290  0.3255  2.0308  1.5116
  714MOL0     H96355   2.013   6.450   3.279 -0.4531  1.2391  1.2718
  714MOL0     H96356   1.977   6.623   3.427 -2.8183 -3.2134 -2.4741
  714MOL0     H96357   2.011   6.486   3.540 -3.3466 -0.3247 -2.1477
  714MOL0     H96358   2.118   6.635   3.638 -0.2252  0.9484  0.0463
  714MOL0     H96359   2.245   6.539   3.550  1.2642  1.2227 -1.3473
  714MOL0     H96360   2.145   6.822   3.460  0.3247  3.4327  6.6655
  714MOL0     H96361   2.259   6.706   3.387 -1.1964 -0.5713 -0.4088
  714MOL0     H96362   2.284   6.881   3.628  1.7815  0.3974  0.8532
  714MOL0     H96363   2.375   6.876   3.476 -1.3810 -0.7336 -2.0718
  714MOL0     H96364   2.382   6.669   3.715  2.4291 -1.3511 -0.7351
  714MOL0     H96365   2.479   6.654   3.571  0.8169  0.2592 -0.9638
  714MOL0     H96366   2.560   6.765   3.799  0.8252 -1.2428 -1.1812
  714MOL0     H96367   2.454   6.904   3.745  1.6002  1.0975 -0.6857
  714MOL0     H96368   2.691   6.776   3.588  1.1971  0.4096  0.0720
  714MOL0     H96369   2.594   6.912   3.542  1.6985  1.6620  0.5219
  714MOL0     H96370   1.892   6.277   3.371  0.9781  0.0952 -1.7594
  714MOL0     H96371   1.835   6.055   3.443  0.8633 -3.5880 -1.1302
  714MOL0     H96372   1.911   5.779   3.934  0.6754 -1.3083  1.2120
  714MOL0     H96373   1.788   5.596   3.999  2.8596 -1.6346  0.1698
  714MOL0     H96374   0.235   4.666   4.321 -0.6080  0.7120 -0.8314
  714MOL0     H96375   0.348   4.476   4.216 -2.1148  1.0550 -0.0691
  714MOL0     H96376   0.773   4.248   4.243  2.0577  1.8660 -3.6369
  714MOL0     H96377   0.844   4.004   4.244 -1.0973 -0.0324  2.9503
  714MOL0     H96378   0.836   3.769   4.265 -1.2060 -0.1068  0.3212
  714MOL0     H96379   0.955   3.807   4.141  1.0330 -0.6411  5.4467
  714MOL0     H96380   0.931   3.562   4.171 -0.8390 -0.0367 -0.6146
  714MOL0     H96381   0.911   3.629   4.006  1.8492 -1.3477  0.6980
  714MOL0     H96382   0.755   3.433   4.102 -1.2943 -0.2042  2.2780
  714MOL0     H96383   0.669   3.574   4.023 -2.5418 -1.2556  0.6387
  714MOL0     H96384   0.614   3.672   4.229 -0.3977 -0.3097  0.9774
  714MOL0     H96385   0.549   3.507   4.209  0.5810 -0.5707 -0.1102
  714MOL0     H96386   0.780   3.473   4.576  0.2407 -1.4554  0.2520
  714MOL0     H96387   0.576   3.930   3.927  1.5078  1.4345 -1.5824
  714MOL0     H96388   0.430   4.094   3.828 -2.5821  2.2442 -1.7734
  714MOL0     H96389   0.358   4.154   3.971  1.3630  0.6496  1.5472
  714MOL0     H96390   0.442   4.261   3.856 -0.0342 -1.0441 -1.6291
  715MOL0     O96391   1.231   8.219   8.622 -0.3116  0.0554  0.3850
  715MOL0     C96392   1.179   8.279   8.525  0.3699  0.0708  0.1402
  715MOL0     O96393   1.245   8.345   8.423 -0.6963 -0.5488  0.3682
  715MOL0     C96394   1.380   8.372   8.435 -0.2529  0.9751  0.2415
  715MOL0     C96395   1.457   8.315   8.329 -0.0079 -0.1586 -0.1507
  715MOL0     C96396   1.596   8.350   8.330 -0.6297  0.2507  0.6628
  715MOL0     C96397   1.652   8.429   8.429 -0.2287 -0.1256  0.5785
  715MOL0     O96398   1.788   8.466   8.423 -0.6135 -0.2322 -0.1224
  715MOL0     C96399   1.867   8.445   8.538  0.5315  0.4133 -0.0318
  715MOL0     C96400   2.007   8.471   8.495 -0.0675  0.2082 -0.2101
  715MOL0     C96401   2.115   8.407   8.585  0.9041  0.1225 -0.8309
  715MOL0     C96402   2.125   8.436   8.738 -0.5088  0.2215 -0.4095
  715MOL0     C96403   2.161   8.580   8.771  0.0501  0.2935 -1.0047
  715MOL0     C96404   2.217   8.575   8.913 -0.9470 -0.0395  0.5407
  715MOL0     C96405   2.130   8.525   9.037 -0.1323 -0.5914  0.8023
  715MOL0     C96406   1.998   8.622   9.055  0.9165 -0.6093  0.5419
  715MOL0     N96407   1.893   8.554   9.136 -0.1298 -0.4750  0.0653
  715MOL0     C96408   1.827   8.441   9.100  0.3888  0.4172  0.4683
  715MOL0     C96409   1.754   8.408   9.202 -0.2100 -0.2909  0.7376
  715MOL0     C96410   1.654   8.300   9.199  0.2021 -0.8612  1.2513
  715MOL0     C96411   1.622   8.243   9.339 -0.1897  0.4807  0.2927
  715MOL0     C96412   1.487   8.177   9.354 -0.6381 -0.6607 -0.0265
  715MOL0     C96413   1.468   8.083   9.474  0.2369 -1.1427  0.0614
  715MOL0     O96414   1.447   8.148   9.599 -0.2200  0.7245 -0.1263
  715MOL0     C96415   1.480   8.100   9.724 -0.0678  0.0153  0.3980
  715MOL0     C96416   1.581   8.011   9.747 -0.3942  0.0428  0.0233
  715MOL0     C96417   1.617   7.961   9.869 -0.6886 -0.2688  0.4315
  715MOL0     C96418   1.568   8.024   9.986 -0.0318 -0.0031 -0.5777
  715MOL0     C96419   1.622   7.991  10.116  0.1827  0.6058 -0.1592
  715MOL0     O96420   1.564   8.046  10.230  0.1071  0.5399  0.2626
  715MOL0     C96421   1.624   8.019  10.344  0.2987  0.8136 -0.0916
  715MOL0     C96422   1.747   8.069  10.386 -0.1972 -0.4530  0.7729
  715MOL0     C96423   1.801   8.047  10.506 -0.0318 -0.3988 -0.3674
  715MOL0     C96424   1.731   7.977  10.605  0.7276 -0.0987  0.0871
  715MOL0     O96425   1.783   7.952  10.729  0.5219 -0.3423 -0.2010
  715MOL0     C96426   1.727   8.036  10.828  0.1230  0.0093  0.5589
  715MOL0     C96427   1.656   7.939  10.929  0.1912  0.5046 -0.0404
  715MOL0     C96428   1.639   8.004  11.073 -0.0675  0.0981 -0.1878
  715MOL0     C96429   1.555   7.911  11.165 -0.4953  0.2650 -0.1086
  715MOL0     C96430   1.563   7.973  11.309  0.1283  0.5896  0.4011
  715MOL0     C96431   1.474   7.886  11.400  0.3023 -0.1128  0.7887
  715MOL0     C96432   1.489   7.897  11.551 -0.0461 -0.2521 -0.0420
  715MOL0     C96433   1.386   7.828  11.638  0.7073  0.1679  0.2418
  715MOL0    Cl96434   1.422   7.835  11.808  0.1553  0.5840  0.0183
  715MOL0     C96435   1.609   7.918  10.565 -0.7953  0.0502 -0.1480
  715MOL0     C96436   1.555   7.950  10.440 -0.0646 -1.1505  0.3955
  715MOL0     O96437   1.727   7.920  10.110 -0.3219 -0.3930  0.5982
  715MOL0     C96438   1.479   8.124   9.964 -0.8328  0.6361  0.2582
  715MOL0     C96439   1.431   8.165   9.839 -0.2266  1.2001 -0.4007
  715MOL0     N96440   1.766   8.510   9.298 -0.4739  0.0115  0.0707
  715MOL0     N96441   1.859   8.595   9.258 -0.0273 -0.4887 -0.1909
  715MOL0     C96442   1.563   8.491   8.520  0.7597  0.7914 -0.2573
  715MOL0     C96443   1.430   8.446   8.528 -0.5122  0.1399 -0.0182
  715MOL0     C96444   1.027   8.252   8.495 -0.8841  0.7942 -0.2853
  715MOL0     C96445   0.973   8.135   8.550  0.0916  0.3787  1.0999
  715MOL0     C96446   0.841   8.102   8.536  0.1603  0.3801  0.3381
  715MOL0     C96447   0.754   8.182   8.471  0.2203 -0.4527 -1.0372
  715MOL0     O96448   0.623   8.134   8.471  0.6533 -0.2579  0.3934
  715MOL0     C96449   0.519   8.233   8.474  0.3043 -0.5449  0.6712
  715MOL0     C96450   0.412   8.166   8.548 -1.0675 -0.5355 -0.3906
  715MOL0     C96451   0.303   8.271   8.570  0.5522  0.0804 -0.6917
  715MOL0     C96452   0.161   8.214   8.588  0.3798  0.0029  0.5199
  715MOL0     C96453   0.121   8.130   8.473  0.2754  0.2697 -1.2733
  715MOL0     C96454   0.099   8.045   8.388 -0.0501 -0.5816  0.0543
  715MOL0     C96455   0.805   8.297   8.415  0.5659  0.1512 -0.5770
  715MOL0     C96456   0.941   8.334   8.421 -0.1243  0.0552  0.1522
  715MOL0     C96457   0.980   8.451   8.333 -0.0677  0.5889  0.2261
  715MOL0     H96458   1.410   8.252   8.254  0.8702  1.1355 -1.8503
  715MOL0     H96459   1.656   8.296   8.258 -0.0854  1.2917  0.3180
  715MOL0     H96460   1.851   8.514   8.621  3.5050 -0.9259  1.7938
  715MOL0     H96461   1.849   8.344   8.574 -5.8757  1.8498  2.1731
  715MOL0     H96462   2.014   8.581   8.494 -2.9169  0.4778  0.4787
  715MOL0     H96463   2.028   8.434   8.394  0.2491 -0.0881 -0.0360
  715MOL0     H96464   2.207   8.421   8.529  0.8682 -2.5561 -1.6924
  715MOL0     H96465   2.101   8.298   8.578  0.4365  0.2638 -2.3440
  715MOL0     H96466   2.032   8.406   8.787  0.8714 -1.2979  1.4159
  715MOL0     H96467   2.204   8.374   8.782  0.5053  0.8149 -1.3343
  715MOL0     H96468   2.236   8.625   8.705 -1.2734  4.3914 -0.0472
  715MOL0     H96469   2.073   8.644   8.766 -1.2989 -1.2844  0.9653
  715MOL0     H96470   2.302   8.507   8.902 -0.7601  0.2097  0.4373
  715MOL0     H96471   2.252   8.678   8.929 -0.8628  0.0779 -0.3430
  715MOL0     H96472   2.197   8.531   9.123  0.9440  0.3649 -0.0649
  715MOL0     H96473   2.098   8.420   9.028 -2.0276 -0.0004  0.1560
  715MOL0     H96474   2.012   8.720   9.101 -1.8998 -0.6056  1.6129
  715MOL0     H96475   1.959   8.639   8.954  1.3309  1.7805  0.7182
  715MOL0     H96476   1.828   8.393   9.002 -0.2138  3.6287 -1.2774
  715MOL0     H96477   1.561   8.338   9.156  0.8430 -2.0289 -1.3722
  715MOL0     H96478   1.689   8.219   9.134 -4.1722 -3.6176  1.9148
  715MOL0     H96479   1.703   8.171   9.352  0.6476  1.6661  2.0193
  715MOL0     H96480   1.622   8.316   9.420  0.2009  0.8628 -0.0455
  715MOL0     H96481   1.455   8.124   9.264 -1.7270 -3.4561  1.8538
  715MOL0     H96482   1.411   8.251   9.378  0.1238 -0.0671  0.6078
  715MOL0     H96483   1.566   8.035   9.477  2.2794  2.1801 -3.6928
  715MOL0     H96484   1.388   8.013   9.450 -1.7966 -0.1647  3.2891
  715MOL0     H96485   1.637   7.973   9.662 -3.1762 -1.7976 -1.1211
  715MOL0     H96486   1.686   7.877   9.865 -0.8900 -0.3717 -2.7373
  715MOL0     H96487   1.800   8.143  10.326 -0.4832  0.2156  1.3257
  715MOL0     H96488   1.902   8.080  10.530 -0.3216  2.0453 -2.1441
  715MOL0     H96489   1.812   8.086  10.875  0.1863  1.8229 -1.3640
  715MOL0     H96490   1.651   8.108  10.796  2.9556  2.7171 -0.5415
  715MOL0     H96491   1.567   7.887  10.894  2.3233 -2.0799 -2.0518
  715MOL0     H96492   1.726   7.856  10.944  0.9824  1.3523  1.2127
  715MOL0     H96493   1.730   8.030  11.128  1.5364 -1.4126 -1.9956
  715MOL0     H96494   1.587   8.097  11.050  0.6073  0.2009 -1.3901
  715MOL0     H96495   1.596   7.810  11.156  0.4409  0.8581 -4.3664
  715MOL0     H96496   1.450   7.909  11.134 -0.6645  1.2641  0.3492
  715MOL0     H96497   1.540   8.080  11.305 -1.4009  0.2799  0.3120
  715MOL0     H96498   1.668   7.965  11.337 -0.1390 -0.3562  1.1896
  715MOL0     H96499   1.374   7.899  11.359 -0.1076  1.5820  2.1816
  715MOL0     H96500   1.504   7.783  11.379  0.6731  0.5417 -2.3208
  715MOL0     H96501   1.481   8.000  11.587 -1.2122 -1.1540  2.5300
  715MOL0     H96502   1.590   7.861  11.574  2.3108  3.9294 -2.6250
  715MOL0     H96503   1.287   7.873  11.628  0.7661  0.1380 -0.5478
  715MOL0     H96504   1.380   7.723  11.607 -0.5268  0.0969  0.6452
  715MOL0     H96505   1.548   7.868  10.639 -0.3122  0.6553  0.6785
  715MOL0     H96506   1.453   7.916  10.424  0.5273 -1.5221 -3.6708
  715MOL0     H96507   1.443   8.179  10.050 -0.5245  1.5609 -0.1836
  715MOL0     H96508   1.363   8.248   9.834 -1.0402  0.5241 -0.7662
  715MOL0     H96509   1.592   8.569   8.590  1.2181  2.4498 -2.2093
  715MOL0     H96510   1.364   8.491   8.601 -1.6302  3.2391 -2.7017
  715MOL0     H96511   1.031   8.059   8.601 -1.4379 -1.1923  0.6021
  715MOL0     H96512   0.810   8.008   8.579 -0.2806 -0.4403 -1.6384
  715MOL0     H96513   0.480   8.262   8.376  1.4082  2.3318  0.9789
  715MOL0     H96514   0.560   8.322   8.523  1.8399 -0.7263 -0.2244
  715MOL0     H96515   0.449   8.122   8.641 -1.3147 -1.5478 -0.7574
  715MOL0     H96516   0.380   8.084   8.483 -2.0690 -1.4399  1.1874
  715MOL0     H96517   0.293   8.333   8.480 -2.4840 -0.4353 -0.8255
  715MOL0     H96518   0.327   8.318   8.666  0.3796 -1.6705  0.2344
  715MOL0     H96519   0.149   8.135   8.663 -2.1932 -2.7843 -2.5601
  715MOL0     H96520   0.084   8.292   8.585 -1.9829 -2.2127 -0.0304
  715MOL0     H96521   0.090   7.961   8.323  0.7761 -2.7920  2.6382
  715MOL0     H96522   0.737   8.360   8.359 -1.4258 -0.0089  1.5126
  715MOL0     H96523   0.930   8.459   8.236  2.2274  1.1253 -1.0108
  715MOL0     H96524   0.954   8.544   8.384 -0.8643  0.9934 -0.8875
  715MOL0     H96525   1.082   8.453   8.292 -0.9431  2.1378 -2.0835
  716MOL0     O96526   8.224   3.716   1.601  0.4801 -0.4891 -0.0264
  716MOL0     C96527   8.143   3.623   1.616 -0.3760  0.1081 -0.1798
  716MOL0     O96528   8.021   3.613   1.550  0.2110  0.1862 -0.6593
  716MOL0     C96529   7.976   3.718   1.472  0.2451  0.3046  0.3655
  716MOL0     C96530   7.933   3.842   1.529  0.0500  0.1309  0.0848
  716MOL0     C96531   7.895   3.937   1.442 -0.1449 -0.1391  0.0747
  716MOL0     C96532   7.882   3.912   1.302  0.0221  0.6410 -0.4597
  716MOL0     O96533   7.853   4.026   1.233  0.3375  0.4163  0.2512
  716MOL0     C96534   7.836   4.000   1.093  0.2061  0.1833 -0.4712
  716MOL0     C96535   7.783   4.122   1.021 -0.5261 -0.4694  0.3843
  716MOL0     C96536   7.900   4.214   0.986  0.5894  0.5787 -0.0849
  716MOL0     C96537   7.853   4.340   0.916  0.2012  0.3816 -0.4031
  716MOL0     C96538   7.971   4.427   0.877 -0.0168  1.3716  0.1499
  716MOL0     C96539   8.062   4.492   0.987  0.3690 -0.0829  0.8461
  716MOL0     C96540   8.200   4.537   0.934 -0.1343  0.4822 -0.2434
  716MOL0     C96541   8.313   4.526   1.044  0.2575  0.2037 -0.0814
  716MOL0     N96542   8.445   4.565   0.995  0.0882  0.3629 -0.3678
  716MOL0     C96543   8.488   4.544   0.864  0.1067 -0.8769  0.6154
  716MOL0     C96544   8.609   4.603   0.846 -0.2911  0.5961 -0.5109
  716MOL0     C96545   8.687   4.606   0.719 -0.6242  0.1125 -0.7101
  716MOL0     C96546   8.796   4.502   0.724 -0.1999 -0.6334  0.1556
  716MOL0     C96547   8.902   4.520   0.615 -0.7508  1.6755 -0.5960
  716MOL0     C96548   8.992   4.394   0.617 -0.3738 -0.1731  0.1808
  716MOL0     O96549   9.098   4.413   0.524  0.1355 -0.7322 -0.0131
  716MOL0     C96550   9.197   4.506   0.551  0.7498  0.6000  0.8863
  716MOL0     C96551   9.249   4.523   0.678  0.1203 -1.2800 -0.5425
  716MOL0     C96552   9.331   4.639   0.705 -0.0746  0.6278  0.2588
  716MOL0     C96553   9.371   4.729   0.598 -0.3495  0.8568 -0.3948
  716MOL0     C96554   9.462   4.841   0.625 -0.5057 -0.1280 -0.7809
  716MOL0     O96555   9.509   4.859   0.757  0.1277  0.3018 -0.2515
  716MOL0     C96556   9.602   4.958   0.782  1.2261  0.1444 -0.3398
  716MOL0     C96557   9.564   5.047   0.888  0.5380 -0.5063  0.2782
  716MOL0     C96558   9.634   5.166   0.916 -0.1571 -0.0916 -0.4846
  716MOL0     C96559   9.769   5.191   0.868  0.3058 -0.7082 -0.5899
  716MOL0     O96560   9.859   5.288   0.912  0.5476 -0.6579  0.4444
  716MOL0     C96561   9.853   5.368   1.027 -0.2205 -0.5161 -0.2261
  716MOL0     C96562   9.995   5.396   1.063  0.1245  0.4659 -0.3185
  716MOL0     C96563  10.008   5.466   1.206  0.0122 -0.1640  0.3048
  716MOL0     C96564  10.156   5.483   1.242 -0.2575 -0.2230 -0.5314
  716MOL0     C96565  10.151   5.582   1.362  0.2400 -0.6580  0.3502
  716MOL0     C96566  10.288   5.636   1.399 -0.5620 -0.3160 -1.0337
  716MOL0     C96567  10.277   5.745   1.508  0.2468  0.1412 -0.8408
  716MOL0     C96568  10.399   5.751   1.599 -0.0322  0.2295 -0.1660
  716MOL0    Cl96569  10.541   5.795   1.503  0.1049  0.5488  0.0286
  716MOL0     C96570   9.809   5.095   0.775  0.3293  0.4081  0.3984
  716MOL0     C96571   9.731   4.982   0.733 -0.1131 -0.4678 -0.6797
  716MOL0     O96572   9.492   4.907   0.533 -0.4913  0.0366  0.4172
  716MOL0     C96573   9.328   4.690   0.474  0.2404 -0.1103  0.2361
  716MOL0     C96574   9.237   4.588   0.448 -0.1330 -0.2051 -0.4094
  716MOL0     N96575   8.640   4.650   0.973  0.8997 -0.6128  0.1675
  716MOL0     N96576   8.539   4.648   1.052 -0.2890  0.7414  0.5190
  716MOL0     C96577   7.923   3.789   1.250 -1.0267  1.0461  0.0596
  716MOL0     C96578   7.957   3.683   1.336  0.7097 -0.0726 -1.0718
  716MOL0     C96579   8.185   3.519   1.714  0.4238 -0.4543 -0.0444
  716MOL0     C96580   8.317   3.520   1.759 -0.3559 -0.1516 -0.6089
  716MOL0     C96581   8.360   3.408   1.837  1.5710  0.8907  1.3160
  716MOL0     C96582   8.274   3.306   1.875  0.1201  0.8750  0.0886
  716MOL0     O96583   8.327   3.198   1.938  0.2385 -0.0120  0.1611
  716MOL0     C96584   8.252   3.082   1.963  0.8395 -0.3862 -0.7285
  716MOL0     C96585   8.231   3.005   1.824  0.3372 -0.9038  0.0457
  716MOL0     C96586   8.127   2.880   1.831 -0.4106 -0.2149 -0.8537
  716MOL0     C96587   8.025   2.890   1.938 -0.7802  0.0895 -0.3544
  716MOL0     C96588   7.925   2.996   1.918 -0.9326 -0.3386  0.5536
  716MOL0     C96589   7.848   3.086   1.908  0.2799 -0.4464 -0.5711
  716MOL0     C96590   8.139   3.320   1.855  0.4951  0.1121  0.4032
  716MOL0     C96591   8.092   3.423   1.771  0.5822  0.2382 -0.7001
  716MOL0     C96592   7.941   3.431   1.752 -0.6834  0.4360  0.0427
  716MOL0     H96593   7.938   3.848   1.637 -0.2052  0.6680  0.0663
  716MOL0     H96594   7.851   4.032   1.469 -3.0026 -1.8128  1.9217
  716MOL0     H96595   7.933   3.983   1.046  1.1416  2.2225  0.6088
  716MOL0     H96596   7.772   3.916   1.065  0.2998  0.5049 -1.7401
  716MOL0     H96597   7.709   4.170   1.086  0.8375 -0.6688  2.1549
  716MOL0     H96598   7.747   4.093   0.922  0.0982  2.2269 -0.7126
  716MOL0     H96599   7.965   4.173   0.908 -0.8939  1.4166 -1.8480
  716MOL0     H96600   7.945   4.236   1.083 -2.0091  0.8383  1.1321
  716MOL0     H96601   7.795   4.303   0.831  0.9506 -0.5998 -0.5085
  716MOL0     H96602   7.787   4.387   0.989  0.3099 -3.8701  2.8268
  716MOL0     H96603   8.030   4.378   0.799 -1.9636 -0.1863 -0.4284
  716MOL0     H96604   7.930   4.509   0.817 -1.1435 -0.6136 -1.9364
  716MOL0     H96605   8.007   4.577   1.028 -2.5340 -0.1132 -2.4932
  716MOL0     H96606   8.076   4.422   1.070 -1.2360  0.0738  1.2803
  716MOL0     H96607   8.188   4.637   0.891  0.8844  0.9071  0.4284
  716MOL0     H96608   8.233   4.465   0.859 -0.6603 -2.4745  2.1735
  716MOL0     H96609   8.289   4.585   1.133 -0.5368 -3.3008  2.2589
  716MOL0     H96610   8.324   4.423   1.079 -0.5974 -0.3707 -1.4526
  716MOL0     H96611   8.430   4.493   0.788  2.9067 -0.4427 -2.0058
  716MOL0     H96612   8.620   4.583   0.635  1.6658  1.2922 -3.0040
  716MOL0     H96613   8.725   4.708   0.712 -1.5434  0.3851 -2.1455
  716MOL0     H96614   8.859   4.498   0.813 -0.6529 -0.5180  0.4858
  716MOL0     H96615   8.742   4.407   0.718 -1.8374  0.2669 -0.0689
  716MOL0     H96616   8.958   4.607   0.651 -0.0454  0.5669  1.1123
  716MOL0     H96617   8.863   4.540   0.515  0.7928  1.0357 -1.3616
  716MOL0     H96618   8.938   4.303   0.588  0.5453  0.0962 -2.6409
  716MOL0     H96619   9.038   4.379   0.715  0.8684  1.5473 -0.0821
  716MOL0     H96620   9.207   4.459   0.756 -0.9218  1.2127  1.0674
  716MOL0     H96621   9.358   4.667   0.807  1.4669 -0.9486  0.3292
  716MOL0     H96622   9.467   5.031   0.933 -0.0986 -1.3622 -1.3032
  716MOL0     H96623   9.583   5.238   0.979 -0.1287 -0.7174  0.2729
  716MOL0     H96624   9.822   5.471   1.010  0.7115 -0.4691 -1.9439
  716MOL0     H96625   9.797   5.328   1.112  0.3557 -2.6017 -0.7503
  716MOL0     H96626  10.047   5.299   1.062  0.0010  0.3989 -0.2155
  716MOL0     H96627  10.040   5.465   0.991 -1.9366  0.1824 -1.9362
  716MOL0     H96628   9.949   5.558   1.198  1.5523  0.8465  0.1797
  716MOL0     H96629   9.963   5.394   1.274  2.7840 -1.9341  0.4283
  716MOL0     H96630  10.217   5.531   1.165 -1.8198  1.2526 -0.9203
  716MOL0     H96631  10.204   5.392   1.277 -1.3022 -0.7890 -0.5280
  716MOL0     H96632  10.115   5.536   1.454 -2.2180 -1.0861 -0.7501
  716MOL0     H96633  10.074   5.659   1.353 -1.3089 -2.1429  0.4346
  716MOL0     H96634  10.347   5.548   1.423 -1.9911 -1.0393 -0.0918
  716MOL0     H96635  10.343   5.685   1.317  1.8783 -3.5026 -1.4798
  716MOL0     H96636  10.197   5.719   1.578  0.9137  1.4310  0.4657
  716MOL0     H96637  10.252   5.841   1.462  1.4695  2.9640  3.7212
  716MOL0     H96638  10.378   5.823   1.679 -0.5969 -0.1410  0.0305
  716MOL0     H96639  10.423   5.653   1.641 -3.5008 -1.0163 -0.7134
  716MOL0     H96640   9.908   5.103   0.731 -0.7512  0.7332 -2.1333
  716MOL0     H96641   9.766   4.934   0.641 -1.5669  0.6287 -1.8554
  716MOL0     H96642   9.383   4.735   0.391  0.6729 -1.6219 -0.3349
  716MOL0     H96643   9.206   4.562   0.347 -1.0665 -1.9998  0.2927
  716MOL0     H96644   7.933   3.773   1.144 -2.6660 -0.1718  0.0466
  716MOL0     H96645   8.007   3.590   1.315  0.6355 -0.5947  0.8559
  716MOL0     H96646   8.392   3.593   1.734  0.4238  0.0458  2.0446
  716MOL0     H96647   8.466   3.390   1.855  1.4418  0.5642  1.7822
  716MOL0     H96648   8.164   3.101   2.025  1.6172  2.3829 -0.3442
  716MOL0     H96649   8.325   3.027   2.024  1.4189 -0.9753 -1.9041
  716MOL0     H96650   8.330   2.965   1.803  1.3506  1.7722 -0.6407
  716MOL0     H96651   8.192   3.069   1.745  1.0112 -1.9366 -1.1717
  716MOL0     H96652   8.191   2.795   1.857 -1.0392 -1.8823 -4.1792
  716MOL0     H96653   8.077   2.872   1.734 -0.9733  1.6058 -0.7578
  716MOL0     H96654   7.977   2.793   1.928  1.0811 -0.6863 -2.9144
  716MOL0     H96655   8.062   2.892   2.041 -0.6240  0.6421 -0.4163
  716MOL0     H96656   7.763   3.152   1.905  1.1297  0.6495 -1.0801
  716MOL0     H96657   8.072   3.249   1.904  0.1592 -1.6360 -2.3730
  716MOL0     H96658   7.882   3.352   1.799 -1.3048 -0.7757 -2.5500
  716MOL0     H96659   7.894   3.526   1.780 -0.6453  0.5959 -0.4267
  716MOL0     H96660   7.924   3.411   1.645 -1.6736 -0.2509  0.3143
  717MOL0     O96661   7.476   6.067   2.994 -0.1088  0.2039  0.5574
  717MOL0     C96662   7.494   6.189   2.960 -0.3225  0.3087 -0.2202
  717MOL0     O96663   7.544   6.241   2.836 -0.5055 -0.0225  0.4068
  717MOL0     C96664   7.580   6.147   2.743  0.2400 -0.2106 -0.2994
  717MOL0     C96665   7.714   6.117   2.725  0.1674 -0.5681  0.1154
  717MOL0     C96666   7.762   6.047   2.613 -0.9017 -0.4385 -0.3871
  717MOL0     C96667   7.677   5.977   2.528  0.0791  0.1756  0.4608
  717MOL0     O96668   7.707   5.922   2.412 -0.0617 -0.1666 -0.5937
  717MOL0     C96669   7.838   5.875   2.398 -0.3861  0.5392 -0.3041
  717MOL0     C96670   7.859   5.763   2.292  0.9917  0.4735  0.5007
  717MOL0     C96671   8.007   5.734   2.276 -0.7058 -0.7393 -0.1214
  717MOL0     C96672   8.036   5.647   2.159  0.0647 -0.0937  0.5220
  717MOL0     C96673   8.179   5.606   2.147 -0.4073  0.1431 -0.0602
  717MOL0     C96674   8.195   5.509   2.036 -1.2723  0.5101 -0.0251
  717MOL0     C96675   8.344   5.446   2.042 -0.0099  0.3851  0.6854
  717MOL0     C96676   8.462   5.550   2.056  0.0080  0.2923  0.5502
  717MOL0     N96677   8.500   5.606   1.926 -0.6275  0.9209 -0.2659
  717MOL0     C96678   8.448   5.712   1.856 -0.3690  0.4276  0.1080
  717MOL0     C96679   8.527   5.730   1.753 -0.7426 -0.6671 -0.0676
  717MOL0     C96680   8.517   5.834   1.642 -0.0099 -0.1793 -0.0126
  717MOL0     C96681   8.550   5.783   1.498 -0.3991 -0.4255  0.1534
  717MOL0     C96682   8.469   5.852   1.379 -1.1832 -1.1646  0.1055
  717MOL0     C96683   8.514   5.998   1.356  0.2427 -0.4513  0.1077
  717MOL0     O96684   8.531   6.069   1.481 -0.3915  0.3759 -0.3014
  717MOL0     C96685   8.538   6.202   1.496 -0.1672 -0.5587  1.2570
  717MOL0     C96686   8.535   6.291   1.385 -0.8682 -0.2759 -0.3736
  717MOL0     C96687   8.531   6.431   1.408  0.3380 -0.5344  0.1313
  717MOL0     C96688   8.519   6.479   1.543  0.9919  1.0148  0.4985
  717MOL0     C96689   8.505   6.621   1.567 -1.0645 -0.1600 -0.0085
  717MOL0     O96690   8.520   6.714   1.461 -1.2968  0.3110  0.3772
  717MOL0     C96691   8.543   6.845   1.501  0.8161  0.4497 -1.0482
  717MOL0     C96692   8.677   6.883   1.530  0.4973  0.0162  0.6316
  717MOL0     C96693   8.710   7.023   1.546  0.3334  0.0438  0.0004
  717MOL0     C96694   8.603   7.117   1.553  0.2826 -1.0849 -0.2309
  717MOL0     O96695   8.650   7.251   1.573  0.3066  0.3483  0.3173
  717MOL0     C96696   8.549   7.350   1.545 -0.6004 -0.4425  0.1753
  717MOL0     C96697   8.622   7.484   1.531 -0.2145 -0.2517  0.1978
  717MOL0     C96698   8.536   7.582   1.453  0.8519 -1.7854  0.3418
  717MOL0     C96699   8.599   7.723   1.458 -0.4585  0.2856 -0.9536
  717MOL0     C96700   8.752   7.735   1.416 -0.3316 -0.2643  1.0396
  717MOL0     C96701   8.801   7.886   1.412 -0.0502  1.0355 -0.9838
  717MOL0     C96702   8.818   7.933   1.557 -0.7902  0.4686  0.0420
  717MOL0     C96703   8.905   8.060   1.590  0.3075  0.2555 -0.2835
  717MOL0    Cl96704   8.851   8.190   1.485 -0.1669  0.2186  0.9566
  717MOL0     C96705   8.469   7.080   1.538 -0.3898  1.2468 -0.9500
  717MOL0     C96706   8.438   6.940   1.503 -0.0488 -0.7708  0.5754
  717MOL0     O96707   8.480   6.651   1.685 -1.0601 -0.4467 -0.5597
  717MOL0     C96708   8.512   6.382   1.641  0.0270  0.8342  0.8044
  717MOL0     C96709   8.519   6.252   1.619 -0.0498  0.7440  0.0221
  717MOL0     N96710   8.629   5.633   1.761 -0.1236 -0.5729  0.1877
  717MOL0     N96711   8.612   5.567   1.859  0.4469  0.7064 -0.7631
  717MOL0     C96712   7.542   6.003   2.550 -0.3022  0.3563  0.1223
  717MOL0     C96713   7.493   6.081   2.653 -0.0146 -0.2719 -0.4671
  717MOL0     C96714   7.477   6.282   3.079  1.4419  0.1020  0.4732
  717MOL0     C96715   7.386   6.248   3.184  0.4948  0.9129 -0.2514
  717MOL0     C96716   7.362   6.328   3.292  0.1695  0.2034  0.2880
  717MOL0     C96717   7.420   6.452   3.301  0.3770 -0.7031  0.4898
  717MOL0     O96718   7.384   6.528   3.415 -0.7408 -0.8234 -0.3172
  717MOL0     C96719   7.391   6.671   3.395 -0.8765  0.4309  0.0466
  717MOL0     C96720   7.385   6.750   3.525 -0.3406 -0.1914  0.2451
  717MOL0     C96721   7.249   6.751   3.586 -0.2512 -0.1830  1.0728
  717MOL0     C96722   7.226   6.840   3.711  0.2616  1.0808 -0.1415
  717MOL0     C96723   7.100   6.924   3.698  1.0718  0.2823 -0.0860
  717MOL0     C96724   6.987   6.970   3.686  0.2986 -1.2022 -0.4507
  717MOL0     C96725   7.515   6.492   3.205  0.1986  0.6485 -0.2900
  717MOL0     C96726   7.545   6.403   3.101 -0.0716  0.3551  0.1030
  717MOL0     C96727   7.649   6.456   2.998 -0.2997 -0.2229  0.6451
  717MOL0     H96728   7.786   6.158   2.796 -0.9168  0.8833  0.4017
  717MOL0     H96729   7.869   6.047   2.597 -1.1069  1.4797 -2.2257
  717MOL0     H96730   7.908   5.957   2.380  0.5911 -0.0625  0.6045
  717MOL0     H96731   7.868   5.823   2.490  1.2631  1.9748  0.0261
  717MOL0     H96732   7.810   5.792   2.198  1.2704  0.6571  0.4123
  717MOL0     H96733   7.795   5.678   2.320  1.6602  0.2224  1.2897
  717MOL0     H96734   8.051   5.693   2.367 -0.6341  1.4183  0.8912
  717MOL0     H96735   8.067   5.824   2.259 -0.6816 -0.1933  2.4344
  717MOL0     H96736   7.972   5.559   2.171 -2.6011  1.3333 -2.0305
  717MOL0     H96737   8.002   5.695   2.067 -0.2661  0.6952  1.0453
  717MOL0     H96738   8.233   5.698   2.122  0.1742 -0.2286 -0.1711
  717MOL0     H96739   8.221   5.564   2.239  0.8775 -0.0235 -0.7081
  717MOL0     H96740   8.109   5.442   2.045 -0.9899  0.0874 -0.4498
  717MOL0     H96741   8.185   5.561   1.941  1.7527  2.0105  0.3392
  717MOL0     H96742   8.369   5.375   1.963  1.4734  2.2037 -0.5641
  717MOL0     H96743   8.352   5.395   2.138 -0.3894  2.3193  1.8148
  717MOL0     H96744   8.441   5.622   2.135  0.7786  0.1842  0.8624
  717MOL0     H96745   8.547   5.490   2.090 -1.7489 -1.8347  1.4338
  717MOL0     H96746   8.369   5.779   1.889  1.1424  2.7073 -0.6537
  717MOL0     H96747   8.418   5.876   1.663  0.1932 -0.3981  1.5477
  717MOL0     H96748   8.597   5.902   1.669  1.2012 -0.9162 -1.6011
  717MOL0     H96749   8.658   5.775   1.490 -0.5465 -1.6067 -0.8250
  717MOL0     H96750   8.511   5.682   1.489  0.6097 -1.0259  1.9917
  717MOL0     H96751   8.365   5.844   1.411 -1.7037 -0.8832 -1.4355
  717MOL0     H96752   8.501   5.806   1.286 -2.4320 -1.3769 -0.2359
  717MOL0     H96753   8.436   6.050   1.299  1.3494  2.1379  0.7881
  717MOL0     H96754   8.603   6.010   1.293 -0.8309  2.8320 -1.0229
  717MOL0     H96755   8.544   6.267   1.279 -1.2983 -2.1598 -0.0064
  717MOL0     H96756   8.531   6.502   1.326 -0.4553 -0.4300  0.2106
  717MOL0     H96757   8.768   6.825   1.518  1.7718  2.2409 -1.4345
  717MOL0     H96758   8.809   7.063   1.564  1.9688 -3.0046 -1.4385
  717MOL0     H96759   8.499   7.336   1.450  1.4057 -0.2000 -0.9871
  717MOL0     H96760   8.477   7.358   1.627 -1.6918  0.5842 -0.8487
  717MOL0     H96761   8.652   7.530   1.626 -0.1414 -1.3013  0.6906
  717MOL0     H96762   8.712   7.463   1.472  0.3198 -1.4882  1.4165
  717MOL0     H96763   8.522   7.544   1.351 -0.1264 -2.2351  0.6331
  717MOL0     H96764   8.435   7.590   1.494  1.1519  2.2940  0.7768
  717MOL0     H96765   8.587   7.751   1.563 -1.1452  0.0271 -0.9605
  717MOL0     H96766   8.549   7.797   1.394 -0.3893 -0.3082 -1.7052
  717MOL0     H96767   8.761   7.688   1.318 -0.8473  0.4870  0.6185
  717MOL0     H96768   8.818   7.669   1.473  1.5310  0.6066 -0.0055
  717MOL0     H96769   8.902   7.898   1.372  1.7068 -0.0824  2.7147
  717MOL0     H96770   8.714   7.938   1.370 -2.5826 -1.8451  0.3185
  717MOL0     H96771   8.866   7.850   1.610  0.0035 -0.2502 -1.7144
  717MOL0     H96772   8.713   7.949   1.585 -1.4418  2.1238 -2.9214
  717MOL0     H96773   8.902   8.081   1.698  4.1452  0.2303 -0.0293
  717MOL0     H96774   9.010   8.030   1.583  0.6181  0.3794  2.4660
  717MOL0     H96775   8.382   7.145   1.549  0.0998  1.4429  3.8650
  717MOL0     H96776   8.337   6.911   1.476  0.3176  1.0010 -3.3484
  717MOL0     H96777   8.484   6.409   1.742  2.1834 -3.4134  2.7917
  717MOL0     H96778   8.498   6.173   1.690 -3.5536 -1.0707 -2.6622
  717MOL0     H96779   7.480   5.972   2.467  2.0866  0.8640 -1.9705
  717MOL0     H96780   7.386   6.091   2.670  0.0284 -2.8218  1.8331
  717MOL0     H96781   7.335   6.152   3.184 -0.3035  1.3271  0.1251
  717MOL0     H96782   7.284   6.297   3.360  0.4083 -3.6433 -0.9325
  717MOL0     H96783   7.315   6.704   3.324 -1.7489  1.1282  1.2641
  717MOL0     H96784   7.489   6.695   3.355  0.9660  1.3711  4.5111
  717MOL0     H96785   7.434   6.848   3.515  0.3462 -0.5877 -0.3021
  717MOL0     H96786   7.458   6.699   3.589  1.2772 -3.2054 -3.6113
  717MOL0     H96787   7.228   6.644   3.594 -1.0829 -0.2495 -1.3355
  717MOL0     H96788   7.166   6.781   3.522 -0.2548  3.7248  2.5958
  717MOL0     H96789   7.219   6.781   3.803 -0.3687  0.4155 -0.6050
  717MOL0     H96790   7.314   6.903   3.722  0.7892  0.8448 -2.4813
  717MOL0     H96791   6.888   7.013   3.683  2.3660  5.5698  4.1903
  717MOL0     H96792   7.569   6.586   3.210  0.2201  0.8251 -2.5664
  717MOL0     H96793   7.705   6.379   2.945  2.2837  1.6315  0.4727
  717MOL0     H96794   7.594   6.497   2.913  1.1418  0.8614  0.1814
  717MOL0     H96795   7.724   6.517   3.050  1.0029 -1.9590  0.9143
  718MOL0     O96796   7.730   8.536  10.195 -0.0567  0.3921  0.3653
  718MOL0     C96797   7.640   8.515  10.110  0.9454 -0.5591  0.0508
  718MOL0     O96798   7.656   8.513   9.978 -0.2489 -0.0525  0.5359
  718MOL0     C96799   7.760   8.451   9.920  0.0690 -0.3568 -0.0520
  718MOL0     C96800   7.764   8.461   9.779  0.1991  0.1620  0.3009
  718MOL0     C96801   7.859   8.388   9.706 -0.0249  0.8970  0.5262
  718MOL0     C96802   7.955   8.313   9.772  0.0464 -0.2898 -0.7485
  718MOL0     O96803   8.033   8.235   9.698 -0.6100 -0.7048 -0.0741
  718MOL0     C96804   8.003   8.089   9.702 -0.1063 -0.6822 -0.1362
  718MOL0     C96805   8.127   8.012   9.647  0.1878  0.0163 -0.2359
  718MOL0     C96806   8.254   8.014   9.745 -0.5541 -0.4010  0.1234
  718MOL0     C96807   8.277   7.877   9.803 -0.3638 -0.6912 -0.7556
  718MOL0     C96808   8.153   7.813   9.878 -0.0038  0.3207  0.1407
  718MOL0     C96809   8.179   7.669   9.912 -0.5410  0.0324  1.1067
  718MOL0     C96810   8.055   7.593   9.964  0.0816 -0.8606  0.3145
  718MOL0     C96811   8.001   7.648  10.102  0.1318  0.0377  0.8179
  718MOL0     N96812   8.072   7.588  10.213  0.4064 -0.6596 -0.3094
  718MOL0     C96813   8.182   7.650  10.271 -0.0990  0.6140 -0.9075
  718MOL0     C96814   8.201   7.571  10.381  0.4551 -0.2269 -0.3350
  718MOL0     C96815   8.323   7.589  10.461  0.1792 -0.1608 -0.0571
  718MOL0     C96816   8.294   7.699  10.570 -0.0728 -0.0046  0.7991
  718MOL0     C96817   8.285   7.645  10.723  0.1830 -0.6568 -0.3340
  718MOL0     C96818   8.140   7.590  10.742 -0.2768 -0.2803  0.6423
  718MOL0     O96819   8.033   7.683  10.707 -0.2336  0.4817 -0.3224
  718MOL0     C96820   7.909   7.635  10.733 -0.1265 -0.2218  0.5282
  718MOL0     C96821   7.857   7.660  10.851  0.1336 -1.0115  0.3984
  718MOL0     C96822   7.728   7.616  10.883  0.7343  0.4038  0.9302
  718MOL0     C96823   7.663   7.531  10.803  0.3848 -1.3100  0.0265
  718MOL0     C96824   7.526   7.477  10.830 -0.6286  0.1675  0.7056
  718MOL0     O96825   7.473   7.529  10.950  0.7985 -0.0222  0.2446
  718MOL0     C96826   7.371   7.456  11.004 -0.2183 -0.5209  0.6680
  718MOL0     C96827   7.251   7.431  10.934  0.3136  0.2871  1.4923
  718MOL0     C96828   7.148   7.369  11.003 -0.9563  0.2104 -0.0959
  718MOL0     C96829   7.158   7.337  11.139  0.0059  0.5755 -0.6119
  718MOL0     O96830   7.068   7.257  11.198  0.2266  0.0183 -0.3535
  718MOL0     C96831   7.104   7.114  11.191  0.1221 -0.8362 -0.1623
  718MOL0     C96832   6.983   7.025  11.221  0.7042 -0.1138 -0.4587
  718MOL0     C96833   6.933   7.053  11.359  0.8830 -0.4167 -0.1141
  718MOL0     C96834   6.813   6.964  11.382  0.5666 -0.2862  1.1077
  718MOL0     C96835   6.779   6.941  11.529  0.0257  0.5352 -0.1761
  718MOL0     C96836   6.655   6.840  11.545 -0.2315  0.1448 -0.0681
  718MOL0     C96837   6.660   6.766  11.681  0.0019  0.2363 -0.8481
  718MOL0     C96838   6.581   6.636  11.681  0.5319 -0.3975 -0.0976
  718MOL0    Cl96839   6.407   6.657  11.668  0.0578 -0.2505 -0.3216
  718MOL0     C96840   7.285   7.356  11.205 -0.4586 -0.2940  0.9067
  718MOL0     C96841   7.385   7.428  11.145  0.1202  0.1395  0.2517
  718MOL0     O96842   7.477   7.390  10.758  0.1769  0.7406 -0.2632
  718MOL0     C96843   7.722   7.497  10.683  0.0981 -0.1527 -0.3456
  718MOL0     C96844   7.839   7.549  10.645  0.7279 -1.2611  0.6675
  718MOL0     N96845   8.096   7.482  10.408  0.1584 -0.4827  0.2213
  718MOL0     N96846   8.019   7.500  10.306  0.0089 -0.3808  0.0995
  718MOL0     C96847   7.954   8.305   9.912 -0.2276 -0.9815  0.8228
  718MOL0     C96848   7.860   8.378   9.986 -0.6702 -0.1225  0.0846
  718MOL0     C96849   7.505   8.495  10.164 -0.6175  0.2721 -0.1115
  718MOL0     C96850   7.448   8.365  10.161 -0.4825  0.2436 -0.7265
  718MOL0     C96851   7.319   8.345  10.212  0.2453  0.0245 -0.3899
  718MOL0     C96852   7.242   8.454  10.250  0.8950  0.4665  0.1775
  718MOL0     O96853   7.108   8.455  10.290 -0.0347  1.1202 -0.0263
  718MOL0     C96854   7.035   8.330  10.318 -0.1887 -0.3309 -0.2748
  718MOL0     C96855   7.081   8.249  10.440 -0.1901  0.1188  0.2489
  718MOL0     C96856   7.088   8.350  10.558 -0.5289 -0.5966  0.3162
  718MOL0     C96857   7.073   8.276  10.699  0.3208 -0.1764  0.5466
  718MOL0     C96858   6.945   8.208  10.722  1.2438 -0.2559 -0.3629
  718MOL0     C96859   6.831   8.155  10.740 -0.7263  0.0951  0.4068
  718MOL0     C96860   7.302   8.582  10.246 -0.6832  0.3413  0.2801
  718MOL0     C96861   7.428   8.598  10.210  0.3388 -0.0036 -0.5506
  718MOL0     C96862   7.481   8.739  10.223 -0.2387  0.1641  0.1849
  718MOL0     H96863   7.685   8.522   9.735  0.5657  1.7146  1.6860
  718MOL0     H96864   7.858   8.388   9.598 -2.4728 -2.3175  0.3900
  718MOL0     H96865   7.999   8.066   9.809 -1.6903  1.8165  0.4205
  718MOL0     H96866   7.910   8.054   9.658  0.1827  0.5470 -1.8004
  718MOL0     H96867   8.148   8.061   9.551 -2.9570 -0.3210 -1.2199
  718MOL0     H96868   8.098   7.910   9.619 -0.3493 -0.2038  1.0558
  718MOL0     H96869   8.246   8.082   9.830 -2.3948 -4.1335  3.2385
  718MOL0     H96870   8.334   8.047   9.677 -3.0859 -0.0848 -2.9412
  718MOL0     H96871   8.320   7.813   9.726  0.6411 -0.0746 -0.7192
  718MOL0     H96872   8.353   7.894   9.880 -1.7325  1.4745  0.2364
  718MOL0     H96873   8.144   7.876   9.968  0.2349 -1.8218  1.7498
  718MOL0     H96874   8.066   7.811   9.813 -1.5039  1.1446  2.0168
  718MOL0     H96875   8.213   7.605   9.830  1.4624  1.1908  0.9474
  718MOL0     H96876   8.266   7.669   9.979  2.0481 -2.0581 -1.9657
  718MOL0     H96877   8.062   7.484   9.971 -0.8207 -0.9453  0.0798
  718MOL0     H96878   7.972   7.599   9.893 -1.3000 -0.0149  1.9226
  718MOL0     H96879   8.019   7.756  10.100 -0.3739  0.1225  0.6238
  718MOL0     H96880   7.895   7.620  10.107 -0.0884  1.0016  2.1410
  718MOL0     H96881   8.249   7.732  10.251  1.1553 -0.0088  0.5577
  718MOL0     H96882   8.366   7.493  10.493  0.7423 -0.9743 -2.9690
  718MOL0     H96883   8.403   7.632  10.400  1.5169  2.3906  3.1886
  718MOL0     H96884   8.381   7.765  10.564  2.2864 -2.8577  1.2143
  718MOL0     H96885   8.210   7.766  10.553 -1.3708 -0.5741  4.2660
  718MOL0     H96886   8.312   7.733  10.782 -0.9545  0.5962 -1.5674
  718MOL0     H96887   8.347   7.556  10.731 -1.9984 -2.2006  0.0980
  718MOL0     H96888   8.133   7.557  10.846 -0.5880  2.5056  1.5831
  718MOL0     H96889   8.128   7.499  10.682 -3.8985  1.3159 -1.4043
  718MOL0     H96890   7.912   7.726  10.917  1.1628 -0.1612 -1.2402
  718MOL0     H96891   7.680   7.639  10.978 -2.5303 -2.3855  0.1619
  718MOL0     H96892   7.228   7.472  10.836 -0.2677 -1.9332  0.6540
  718MOL0     H96893   7.052   7.337  10.964 -1.0930 -1.7357  1.6677
  718MOL0     H96894   7.129   7.088  11.087 -2.0165 -0.1162 -0.9173
  718MOL0     H96895   7.187   7.086  11.256  2.0249 -1.5557 -2.7477
  718MOL0     H96896   6.900   7.033  11.150 -1.9512  0.0218  2.4582
  718MOL0     H96897   7.027   6.925  11.216 -0.6429 -0.6764 -1.6414
  718MOL0     H96898   7.013   7.030  11.430  0.4170  0.8871  0.8666
  718MOL0     H96899   6.909   7.158  11.374  1.1447 -0.4185  0.3253
  718MOL0     H96900   6.835   6.870  11.331 -1.5421 -0.4673  0.4031
  718MOL0     H96901   6.731   7.014  11.328  1.6642  0.1039 -0.2494
  718MOL0     H96902   6.762   7.038  11.576  0.6816  0.4415  0.2529
  718MOL0     H96903   6.864   6.901  11.584 -0.8283  0.2895  1.0043
  718MOL0     H96904   6.566   6.903  11.544 -1.6305 -1.7420 -1.8369
  718MOL0     H96905   6.653   6.782  11.452  0.0492  0.0968 -0.0454
  718MOL0     H96906   6.627   6.830  11.764  2.2008  0.5147 -0.1351
  718MOL0     H96907   6.762   6.733  11.703  0.0861  1.2520  0.4136
  718MOL0     H96908   6.616   6.570  11.601  0.3314 -1.5335  0.7354
  718MOL0     H96909   6.598   6.589  11.778  0.1498 -1.3987 -0.4974
  718MOL0     H96910   7.303   7.307  11.300 -5.0610 -1.1434  1.5664
  718MOL0     H96911   7.478   7.447  11.198  0.1808  3.9370 -0.9877
  718MOL0     H96912   7.683   7.435  10.603 -1.4352  0.6259 -0.2399
  718MOL0     H96913   7.898   7.519  10.558 -0.2926 -0.9636 -0.1475
  718MOL0     H96914   8.035   8.249   9.957  0.0581  0.1260  1.7464
  718MOL0     H96915   7.868   8.375  10.094 -0.0005 -0.1500  0.0386
  718MOL0     H96916   7.490   8.272  10.125  2.6686  0.7638  1.2088
  718MOL0     H96917   7.283   8.243  10.226  2.6467 -0.9668 -0.8713
  718MOL0     H96918   7.025   8.262  10.233 -1.0445  1.2434 -1.4808
  718MOL0     H96919   6.933   8.366  10.329  0.0352  0.5341 -0.9554
  718MOL0     H96920   7.179   8.200  10.435  0.9259  1.8672  3.0561
  718MOL0     H96921   7.006   8.169  10.451 -2.6102  2.4610  2.1344
  718MOL0     H96922   7.003   8.418  10.553  0.6436  0.8974 -0.6466
  718MOL0     H96923   7.167   8.426  10.549 -1.5149  0.5287  0.8750
  718MOL0     H96924   7.151   8.201  10.683 -0.9721 -1.2135 -1.4115
  718MOL0     H96925   7.100   8.343  10.781  0.8974  0.2626  0.0007
  718MOL0     H96926   6.749   8.088  10.754  0.2427 -1.2452 -0.1550
  718MOL0     H96927   7.235   8.658  10.286  1.1551  2.2347 -0.0787
  718MOL0     H96928   7.525   8.748  10.323 -0.8289  1.8682  0.3379
  718MOL0     H96929   7.552   8.764  10.144  2.5935  0.1316  2.5539
  718MOL0     H96930   7.397   8.809  10.214 -0.1422  0.3950  0.9599
  719MOL0     O96931   6.280   5.939  11.021 -0.0729 -1.0100  0.7933
  719MOL0     C96932   6.352   5.840  11.030 -0.0798 -1.6384  0.2848
  719MOL0     O96933   6.308   5.718  11.059 -0.1887 -0.0296 -0.3211
  719MOL0     C96934   6.179   5.692  11.093 -0.1334 -0.0002 -0.7891
  719MOL0     C96935   6.088   5.639  11.000 -0.1142  1.0282 -0.3831
  719MOL0     C96936   5.965   5.592  11.039  0.5238  0.7784  0.7814
  719MOL0     C96937   5.929   5.599  11.174 -0.3424 -0.9231 -0.1572
  719MOL0     O96938   5.797   5.563  11.206 -0.5759 -0.4744  0.5386
  719MOL0     C96939   5.749   5.559  11.342 -0.6150  0.0400 -0.1208
  719MOL0     C96940   5.810   5.431  11.407  0.5189  0.0210  0.5567
  719MOL0     C96941   5.745   5.399  11.544 -0.9179  0.4672 -0.8373
  719MOL0     C96942   5.819   5.481  11.646  1.0221 -0.5413  0.3171
  719MOL0     C96943   5.928   5.408  11.711  0.4085  0.0120 -0.4243
  719MOL0     C96944   5.976   5.489  11.832  0.0270  0.7651  0.1496
  719MOL0     C96945   6.087   5.416  11.911  0.4531 -0.4071 -0.0025
  719MOL0     C96946   6.027   5.300  11.993  0.2752  0.2223  0.1242
  719MOL0     N96947   6.116   5.274  12.107  0.0006  0.2039 -0.1933
  719MOL0     C96948   6.218   5.180  12.114  0.0651 -0.4831 -0.0602
  719MOL0     C96949   6.236   5.174  12.248 -1.2467  0.3363  0.7965
  719MOL0     C96950   6.337   5.088  12.320 -0.1328 -1.1734 -0.5419
  719MOL0     C96951   6.421   5.170  12.425  1.1328  0.8597  0.4174
  719MOL0     C96952   6.528   5.093  12.505  0.3812  0.5536  0.2600
  719MOL0     C96953   6.477   4.952  12.545 -0.0425  0.4761 -0.4912
  719MOL0     O96954   6.552   4.915  12.656 -0.4412  0.9670  0.2239
  719MOL0     C96955   6.670   4.833  12.640 -0.4248 -0.7014  0.6495
  719MOL0     C96956   6.734   4.827  12.519 -1.0370  0.6214  0.3818
  719MOL0     C96957   6.839   4.733  12.497 -0.1901 -0.3233 -0.1999
  719MOL0     C96958   6.886   4.651  12.609 -0.6777 -0.2037 -0.0581
  719MOL0     C96959   6.985   4.537  12.592 -0.4536  0.1177  0.3427
  719MOL0     O96960   7.067   4.527  12.478 -0.4300 -0.0014 -0.5748
  719MOL0     C96961   7.143   4.415  12.468 -0.7287 -0.5330  0.3507
  719MOL0     C96962   7.114   4.309  12.388  0.5726  0.3491  0.0021
  719MOL0     C96963   7.191   4.200  12.381  0.6390 -0.4949  0.1088
  719MOL0     C96964   7.319   4.197  12.444  0.8962  0.7913  0.1471
  719MOL0     O96965   7.405   4.086  12.448  0.0781 -0.3575 -0.4645
  719MOL0     C96966   7.325   3.968  12.474  0.5642 -0.3260  0.8090
  719MOL0     C96967   7.323   3.922  12.623 -0.5427  0.6035  0.3196
  719MOL0     C96968   7.465   3.869  12.679 -0.5057 -0.5895 -0.9373
  719MOL0     C96969   7.462   3.722  12.682 -0.2781  0.1861 -0.2012
  719MOL0     C96970   7.592   3.662  12.738 -0.7604 -0.1869  0.8475
  719MOL0     C96971   7.615   3.514  12.720  0.6499 -0.0420 -0.0440
  719MOL0     C96972   7.675   3.463  12.848  0.1064 -0.2030 -0.3647
  719MOL0     C96973   7.719   3.318  12.838 -0.7997  0.0184 -0.1768
  719MOL0    Cl96974   7.723   3.222  12.994 -0.1082  0.1680 -0.5028
  719MOL0     C96975   7.357   4.318  12.510  0.7423  0.8059  0.1392
  719MOL0     C96976   7.264   4.418  12.526  0.4307 -0.1635 -0.7810
  719MOL0     O96977   6.963   4.440  12.661  0.2880 -0.5747  0.2667
  719MOL0     C96978   6.822   4.677  12.732 -0.0064 -0.2416  0.2633
  719MOL0     C96979   6.719   4.767  12.750  0.1642  0.9970  0.1053
  719MOL0     N96980   6.140   5.238  12.316  0.6416 -0.1042 -0.1316
  719MOL0     N96981   6.080   5.300  12.229  0.3638  0.7151  0.1193
  719MOL0     C96982   6.017   5.657  11.270 -0.1346  0.5322  1.3588
  719MOL0     C96983   6.144   5.698  11.228  0.3102 -0.2319  0.2513
  719MOL0     C96984   6.489   5.857  10.967 -1.2190  0.2348 -0.0039
  719MOL0     C96985   6.533   5.770  10.867  0.2014 -0.0303  0.6559
  719MOL0     C96986   6.645   5.798  10.786  0.4660  0.1755  1.0931
  719MOL0     C96987   6.723   5.910  10.808  0.5911  0.5375 -0.7952
  719MOL0     O96988   6.816   5.921  10.707  0.4938  0.7918  0.0707
  719MOL0     C96989   6.942   5.968  10.741 -0.3245  0.3148 -0.4456
  719MOL0     C96990   7.045   5.933  10.637  0.2865 -0.3199  0.2873
  719MOL0     C96991   7.053   5.777  10.613 -0.1056 -0.8796 -0.3929
  719MOL0     C96992   7.024   5.749  10.464 -0.4806  0.1927  0.3855
  719MOL0     C96993   7.043   5.610  10.434  0.5391  1.2857 -0.0824
  719MOL0     C96994   7.060   5.495  10.417  0.1840  0.4563 -0.4382
  719MOL0     C96995   6.691   5.996  10.916 -0.1719  1.1519  0.2553
  719MOL0     C96996   6.579   5.966  10.993  0.2322 -0.4847 -0.3728
  719MOL0     C96997   6.556   6.053  11.111  0.4692  0.0522 -0.8448
  719MOL0     H96998   6.116   5.628  10.896  1.1099  2.9682 -0.3085
  719MOL0     H96999   5.892   5.560  10.966  0.5836  3.0853 -0.3893
  719MOL0     H97000   5.787   5.649  11.391  0.0540  0.2794 -1.0454
  719MOL0     H97001   5.640   5.567  11.339 -0.8288  0.6516  3.8905
  719MOL0     H97002   5.919   5.441  11.410  0.5285  1.2748 -1.6843
  719MOL0     H97003   5.802   5.340  11.346 -1.3680  0.9084 -0.6058
  719MOL0     H97004   5.749   5.291  11.563 -1.3168  0.3637 -1.2962
  719MOL0     H97005   5.640   5.431  11.547 -0.3857  3.2099 -4.4854
  719MOL0     H97006   5.844   5.580  11.605  0.6399 -0.2740  0.7109
  719MOL0     H97007   5.746   5.511  11.722  0.2152 -1.1838 -0.1942
  719MOL0     H97008   5.885   5.319  11.759  1.9868 -0.5309  0.0759
  719MOL0     H97009   6.015   5.372  11.654  0.4763 -0.0334 -0.2940
  719MOL0     H97010   6.018   5.581  11.791  2.2958 -1.4163 -2.8470
  719MOL0     H97011   5.889   5.503  11.897  0.6217  0.7996  0.9516
  719MOL0     H97012   6.139   5.489  11.974  1.1515  1.2246 -2.3398
  719MOL0     H97013   6.163   5.377  11.843 -1.7490 -0.7558 -2.4053
  719MOL0     H97014   5.928   5.318  12.035 -0.4964 -2.9610 -0.0805
  719MOL0     H97015   6.022   5.219  11.920 -1.2920  1.6381 -1.4397
  719MOL0     H97016   6.263   5.133  12.026 -2.0667 -1.0319 -0.9069
  719MOL0     H97017   6.280   5.010  12.372 -2.5244  0.0016 -1.2288
  719MOL0     H97018   6.405   5.044  12.247  1.1873  0.8927 -0.6412
  719MOL0     H97019   6.462   5.263  12.383  0.5020  1.7062  1.6139
  719MOL0     H97020   6.353   5.213  12.499  0.3140 -0.7719  0.6515
  719MOL0     H97021   6.545   5.158  12.591  1.0976  1.9424 -0.8946
  719MOL0     H97022   6.624   5.090  12.454  1.2642  3.2217  1.5812
  719MOL0     H97023   6.486   4.876  12.466 -1.0702  0.6055 -0.7390
  719MOL0     H97024   6.370   4.958  12.568  0.1059  0.3114  0.2538
  719MOL0     H97025   6.692   4.872  12.429 -2.9899 -0.9261  0.4387
  719MOL0     H97026   6.873   4.709  12.397 -0.9133  0.9766 -0.7816
  719MOL0     H97027   7.013   4.297  12.348  2.0342 -1.8591 -3.5122
  719MOL0     H97028   7.158   4.117  12.319 -2.4497  1.1134 -0.6078
  719MOL0     H97029   7.221   3.976  12.442  1.0366 -0.3437 -0.7928
  719MOL0     H97030   7.355   3.885  12.409 -1.3163 -0.3020 -0.1583
  719MOL0     H97031   7.293   4.010  12.680  1.9344 -0.4255  3.5402
  719MOL0     H97032   7.235   3.857  12.630  0.7331 -1.5335 -1.9105
  719MOL0     H97033   7.553   3.907  12.626  0.4086 -0.7809  0.4008
  719MOL0     H97034   7.489   3.901  12.781  2.6577 -0.5096 -1.5935
  719MOL0     H97035   7.457   3.687  12.578  1.5991  0.8445 -0.5509
  719MOL0     H97036   7.377   3.682  12.738  0.6453 -2.4173 -0.5266
  719MOL0     H97037   7.584   3.685  12.845  1.3502  0.9340  0.8163
  719MOL0     H97038   7.682   3.717  12.710  0.0403 -2.1327 -0.6917
  719MOL0     H97039   7.525   3.458  12.695 -1.1027  2.8325 -0.6632
  719MOL0     H97040   7.683   3.526  12.635 -0.6663  1.3130 -0.9668
  719MOL0     H97041   7.600   3.443  12.925 -0.8207  0.8848 -0.9432
  719MOL0     H97042   7.754   3.528  12.888 -0.1091  0.7816 -1.4873
  719MOL0     H97043   7.667   3.260  12.762 -0.6943 -0.8497  0.4054
  719MOL0     H97044   7.824   3.305  12.811 -0.1743 -0.3123  2.2048
  719MOL0     H97045   7.452   4.310  12.562 -0.9380 -2.5874  3.1404
  719MOL0     H97046   7.307   4.505  12.575 -1.3976  0.4367 -0.1885
  719MOL0     H97047   6.838   4.608  12.815 -1.3992  1.4839  2.0669
  719MOL0     H97048   6.665   4.769  12.845  1.0371  0.4176  0.6320
  719MOL0     H97049   5.995   5.664  11.376  2.4682 -1.6284  2.1696
  719MOL0     H97050   6.220   5.746  11.288  1.5326 -2.2477  0.4018
  719MOL0     H97051   6.463   5.691  10.840 -1.4432  0.8094  2.2482
  719MOL0     H97052   6.675   5.735  10.703 -1.1237 -0.4052  0.9292
  719MOL0     H97053   6.984   5.940  10.838 -0.4719  0.2891 -0.3877
  719MOL0     H97054   6.927   6.077  10.740  1.5609  0.6339  0.9031
  719MOL0     H97055   7.149   5.959  10.660  1.3293 -4.1354  0.4383
  719MOL0     H97056   7.007   5.977  10.544 -1.0701  1.7714  1.7257
  719MOL0     H97057   6.979   5.731  10.679 -1.6261  1.8142 -0.1120
  719MOL0     H97058   7.146   5.735  10.653 -1.6749 -1.3308  3.1272
  719MOL0     H97059   6.920   5.763  10.431  0.7493  1.4387 -3.3927
  719MOL0     H97060   7.079   5.812  10.393 -2.1033 -0.2188 -1.3079
  719MOL0     H97061   7.074   5.389  10.405 -3.4443 -0.1077 -0.8044
  719MOL0     H97062   6.757   6.079  10.937  1.0941 -0.2598  2.2038
  719MOL0     H97063   6.608   6.147  11.090  0.6721 -0.1562 -1.2967
  719MOL0     H97064   6.451   6.073  11.136  0.8559 -0.1677  1.0970
  719MOL0     H97065   6.612   6.009  11.193  0.2742 -0.8772 -1.2001
  720MOL0     O97066   3.060   2.447   2.751 -0.6738 -0.2701  0.2788
  720MOL0     C97067   3.126   2.540   2.806 -0.1878  0.0554 -0.7500
  720MOL0     O97068   3.068   2.645   2.878  0.6665 -0.2841  0.1287
  720MOL0     C97069   2.964   2.620   2.960 -0.7029  0.0394 -0.0921
  720MOL0     C97070   2.962   2.508   3.041 -0.7933  0.2441  0.0825
  720MOL0     C97071   2.866   2.488   3.137  0.0828 -0.6627  0.1784
  720MOL0     C97072   2.755   2.568   3.130  0.0635  0.3224  0.9088
  720MOL0     O97073   2.652   2.539   3.221 -0.0025  0.3141 -0.0162
  720MOL0     C97074   2.522   2.598   3.197  0.6010  0.6167 -0.1846
  720MOL0     C97075   2.407   2.511   3.259 -0.0954 -0.2781 -0.5221
  720MOL0     C97076   2.413   2.360   3.206 -0.8710 -1.5263  0.8558
  720MOL0     C97077   2.303   2.286   3.278 -0.5713  0.7132 -0.2193
  720MOL0     C97078   2.289   2.137   3.243  1.1372 -0.2009  0.1060
  720MOL0     C97079   2.143   2.105   3.286  0.3819  0.3733  1.0503
  720MOL0     C97080   2.103   1.953   3.262 -0.1221 -0.1483 -0.8436
  720MOL0     C97081   2.084   1.918   3.115 -0.6492 -0.2696 -0.2319
  720MOL0     N97082   2.034   1.776   3.113  0.0638  0.1354 -0.1441
  720MOL0     C97083   2.104   1.654   3.140 -0.9560 -0.4817  0.2659
  720MOL0     C97084   2.012   1.555   3.135 -0.0102  0.8402  0.5596
  720MOL0     C97085   2.047   1.420   3.170 -0.8144 -0.7447 -0.2156
  720MOL0     C97086   2.036   1.393   3.324  0.0854  0.6441 -0.1049
  720MOL0     C97087   2.062   1.246   3.368 -0.3487  0.0444 -1.1194
  720MOL0     C97088   2.087   1.221   3.517 -1.1707 -0.5255  0.7622
  720MOL0     O97089   2.097   1.079   3.545 -0.0813 -0.2279 -0.0032
  720MOL0     C97090   2.187   1.037   3.635  0.3790  0.8943 -0.6390
  720MOL0     C97091   2.148   0.938   3.725  0.4202  0.0745  0.1187
  720MOL0     C97092   2.233   0.901   3.828 -0.6718 -0.2939 -0.2798
  720MOL0     C97093   2.372   0.931   3.829  1.2021 -0.7764 -0.1685
  720MOL0     C97094   2.453   0.888   3.940 -0.0033  0.1770  1.1513
  720MOL0     O97095   2.554   0.969   3.978 -0.8794 -0.9274 -0.0340
  720MOL0     C97096   2.642   0.925   4.066 -0.9166 -0.0045 -1.0044
  720MOL0     C97097   2.704   0.799   4.078 -0.6978  0.4462  0.4648
  720MOL0     C97098   2.781   0.768   4.188  0.2328  0.6474  0.0846
  720MOL0     C97099   2.804   0.866   4.298 -0.1120 -0.1538 -0.0210
  720MOL0     O97100   2.871   0.825   4.405 -0.2044  0.4549 -0.3456
  720MOL0     C97101   2.922   0.913   4.499 -0.1805  0.1119  0.5723
  720MOL0     C97102   3.058   0.984   4.473  0.6038  0.1688  0.1100
  720MOL0     C97103   3.174   0.893   4.448 -0.8801  0.2864 -0.0454
  720MOL0     C97104   3.313   0.963   4.428  0.7856 -0.0004 -0.0819
  720MOL0     C97105   3.427   0.861   4.413 -0.3019 -0.1548 -0.1704
  720MOL0     C97106   3.566   0.929   4.418 -0.1799  0.1699 -0.1204
  720MOL0     C97107   3.584   1.043   4.323 -1.3581  0.9002 -0.2787
  720MOL0     C97108   3.731   1.097   4.349  0.4774  1.1391 -0.5669
  720MOL0    Cl97109   3.858   1.003   4.254  0.2509 -0.0245  0.6639
  720MOL0     C97110   2.762   0.992   4.272 -0.5713 -0.1783  0.3954
  720MOL0     C97111   2.683   1.025   4.160  0.3781  0.2779  0.2699
  720MOL0     O97112   2.428   0.777   3.987  0.0880 -0.1315  0.2192
  720MOL0     C97113   2.416   1.019   3.732 -0.2857 -0.4226 -0.0971
  720MOL0     C97114   2.321   1.067   3.636  0.0855  0.4616  0.2862
  720MOL0     N97115   1.891   1.615   3.112 -0.7610  0.4037 -0.3529
  720MOL0     N97116   1.909   1.740   3.097 -0.3072 -0.0337 -0.0990
  720MOL0     C97117   2.752   2.685   3.048  0.3929 -1.0965 -0.3709
  720MOL0     C97118   2.857   2.700   2.957 -0.8796  0.1205  1.1031
  720MOL0     C97119   3.269   2.541   2.797  0.1095 -0.3146  0.2846
  720MOL0     C97120   3.344   2.607   2.895 -0.2479 -0.3393  0.0867
  720MOL0     C97121   3.485   2.602   2.886 -0.0218 -0.9361  0.1043
  720MOL0     C97122   3.556   2.550   2.776 -0.2811 -0.2429 -0.3304
  720MOL0     O97123   3.692   2.547   2.759 -0.4550  0.3705  0.6679
  720MOL0     C97124   3.776   2.573   2.873  0.9445  0.4360  0.9254
  720MOL0     C97125   3.921   2.597   2.838 -0.8026  0.5319 -0.9710
  720MOL0     C97126   3.963   2.736   2.894 -0.6323 -0.5504  0.1673
  720MOL0     C97127   3.894   2.856   2.830  0.0646 -0.6919  0.8954
  720MOL0     C97128   3.950   2.890   2.696  0.4755  0.4016  0.7447
  720MOL0     C97129   3.970   2.924   2.581  0.7093 -0.1173 -0.2575
  720MOL0     C97130   3.474   2.489   2.677  0.6797 -0.1343  0.9999
  720MOL0     C97131   3.334   2.481   2.688 -0.7525 -0.8568 -0.2021
  720MOL0     C97132   3.265   2.422   2.568  0.6800  0.0875 -0.4384
  720MOL0     H97133   3.035   2.428   3.051  0.4181  1.4185  1.0147
  720MOL0     H97134   2.863   2.407   3.209 -0.1978 -1.6446 -0.9296
  720MOL0     H97135   2.520   2.692   3.252  1.0676  0.7342 -0.3558
  720MOL0     H97136   2.505   2.620   3.091  1.3326  1.1438 -0.2005
  720MOL0     H97137   2.312   2.559   3.235  0.8641  1.0365 -1.8724
  720MOL0     H97138   2.421   2.513   3.368 -3.2782 -0.5172 -0.0221
  720MOL0     H97139   2.513   2.326   3.232  0.5194  1.6781  0.0494
  720MOL0     H97140   2.397   2.366   3.098  2.8354  1.0595  0.3025
  720MOL0     H97141   2.314   2.290   3.387  0.4503 -2.7323 -0.0681
  720MOL0     H97142   2.207   2.333   3.254 -0.2712  2.9264  2.4126
  720MOL0     H97143   2.281   2.130   3.135 -1.6404  1.8228  0.0786
  720MOL0     H97144   2.368   2.070   3.279 -0.5195 -1.9446  0.6955
  720MOL0     H97145   2.133   2.120   3.393 -3.3780 -3.6846  1.5392
  720MOL0     H97146   2.067   2.167   3.237  1.5171  0.7510 -0.3225
  720MOL0     H97147   2.019   1.934   3.329  1.8584  1.2866  2.3223
  720MOL0     H97148   2.174   1.883   3.307 -1.2327 -0.9428 -0.2837
  720MOL0     H97149   2.013   1.989   3.071 -2.0774 -0.9005  0.9592
  720MOL0     H97150   2.174   1.921   3.052  0.1833 -3.0871  0.6958
  720MOL0     H97151   2.211   1.652   3.161 -0.1701  0.5710 -3.0251
  720MOL0     H97152   1.995   1.340   3.117  0.3788 -1.8565  0.2123
  720MOL0     H97153   2.153   1.410   3.144 -1.0013 -1.7805 -0.6148
  720MOL0     H97154   2.105   1.464   3.372  0.2770  1.0277 -0.9305
  720MOL0     H97155   1.937   1.416   3.364  0.0713  0.1625  0.1451
  720MOL0     H97156   2.147   1.205   3.313  1.6532 -0.2449  1.9170
  720MOL0     H97157   1.976   1.183   3.341 -0.6316 -0.3146  0.5018
  720MOL0     H97158   2.015   1.280   3.575 -0.3333  2.3049 -0.8466
  720MOL0     H97159   2.176   1.276   3.548 -2.7229  2.5855  0.0795
  720MOL0     H97160   2.045   0.904   3.720  1.3659 -3.0116 -1.3255
  720MOL0     H97161   2.210   0.841   3.915 -0.4110 -0.1992 -0.1430
  720MOL0     H97162   2.677   0.730   3.999  1.6840  1.5757 -1.4850
  720MOL0     H97163   2.823   0.669   4.202 -1.2057 -0.2573 -1.5750
  720MOL0     H97164   2.845   0.989   4.517  1.0139  2.8471 -4.2487
  720MOL0     H97165   2.926   0.853   4.590 -2.2560  0.0654  0.7023
  720MOL0     H97166   3.058   1.042   4.381 -0.3311  3.0396  1.7895
  720MOL0     H97167   3.083   1.043   4.561  1.0540 -2.8057  2.1336
  720MOL0     H97168   3.180   0.811   4.520 -3.4431 -3.1032 -3.2839
  720MOL0     H97169   3.147   0.836   4.358  2.0139  0.4478 -1.1034
  720MOL0     H97170   3.326   1.012   4.525 -0.2768 -0.7377  0.4524
  720MOL0     H97171   3.315   1.035   4.345  1.8161  1.1809  0.9257
  720MOL0     H97172   3.417   0.803   4.320  2.1831 -0.4155 -0.3380
  720MOL0     H97173   3.414   0.791   4.496 -3.1696  0.9642  0.4626
  720MOL0     H97174   3.568   0.963   4.522 -1.2627 -1.4378  0.4719
  720MOL0     H97175   3.640   0.851   4.399  0.2286  0.3118  0.8082
  720MOL0     H97176   3.506   1.117   4.346 -1.8029  0.0933  0.8695
  720MOL0     H97177   3.572   1.024   4.216  0.4534 -1.6514 -0.1230
  720MOL0     H97178   3.731   1.199   4.309  1.1610  0.6544 -1.8711
  720MOL0     H97179   3.754   1.097   4.455  0.2182 -0.2059 -0.4866
  720MOL0     H97180   2.794   1.068   4.343  2.9699 -1.6699  0.6438
  720MOL0     H97181   2.641   1.124   4.147 -1.4582 -0.8850 -5.0886
  720MOL0     H97182   2.519   1.049   3.715 -0.0851 -2.6082 -3.9457
  720MOL0     H97183   2.344   1.133   3.553  0.0202  0.8407  0.5656
  720MOL0     H97184   2.670   2.757   3.052  1.7897  0.8166 -2.7941
  720MOL0     H97185   2.855   2.785   2.889  2.4356 -0.1766  0.4638
  720MOL0     H97186   3.310   2.661   2.983 -0.4895 -3.9916  2.4831
  720MOL0     H97187   3.538   2.667   2.955 -2.4410 -0.6666  1.8764
  720MOL0     H97188   3.773   2.487   2.940  0.5802 -1.2402 -1.1486
  720MOL0     H97189   3.738   2.646   2.946 -3.2284  0.8895 -1.3992
  720MOL0     H97190   3.929   2.593   2.729  0.7154  1.9009 -0.9464
  720MOL0     H97191   3.985   2.525   2.889  2.2089  2.1583 -2.2113
  720MOL0     H97192   4.072   2.741   2.885 -0.7904  1.2001 -1.2925
  720MOL0     H97193   3.949   2.730   3.002 -0.7520 -1.8861  0.0952
  720MOL0     H97194   3.785   2.862   2.826  0.1499  4.0350 -1.0003
  720MOL0     H97195   3.930   2.940   2.891  1.7048 -2.0716  1.8961
  720MOL0     H97196   3.990   2.961   2.483 -0.5078  2.6720  0.4444
  720MOL0     H97197   3.513   2.452   2.583  2.2994  1.6511  0.8929
  720MOL0     H97198   3.336   2.358   2.514  1.3925  0.3282  0.1829
  720MOL0     H97199   3.178   2.359   2.587 -2.0886  3.8587  0.7020
  720MOL0     H97200   3.229   2.497   2.498 -0.5288 -1.5061 -1.5900
  721MOL0     O97201   2.342   2.416   3.697  0.2689 -0.0692  0.0010
  721MOL0     C97202   2.248   2.383   3.624  0.9342 -0.9882  0.3855
  721MOL0     O97203   2.207   2.251   3.602 -0.4700 -0.4834  0.4174
  721MOL0     C97204   2.279   2.161   3.676  0.8121 -0.7877  0.5106
  721MOL0     C97205   2.374   2.088   3.601  0.2023  0.0937  0.1291
  721MOL0     C97206   2.441   1.986   3.669  0.4409 -0.5868 -0.0939
  721MOL0     C97207   2.430   1.959   3.809  0.1585 -0.3492 -0.2164
  721MOL0     O97208   2.522   1.870   3.856  0.5560  0.2452 -0.1179
  721MOL0     C97209   2.488   1.791   3.967 -1.4187 -0.0856 -0.2419
  721MOL0     C97210   2.587   1.818   4.081  0.2184  0.3783 -0.2684
  721MOL0     C97211   2.734   1.809   4.039  0.9909  0.2528  0.8867
  721MOL0     C97212   2.840   1.842   4.141  0.4657  0.5151 -0.6939
  721MOL0     C97213   2.990   1.816   4.105  0.0578 -0.0509 -0.6255
  721MOL0     C97214   3.018   1.859   3.973  0.6021  0.2749  0.4829
  721MOL0     C97215   3.169   1.842   3.930 -0.1197 -0.0937 -0.3376
  721MOL0     C97216   3.188   1.927   3.806 -0.3501  0.2324 -0.1689
  721MOL0     N97217   3.301   1.895   3.711 -0.2183  0.6745 -0.6677
  721MOL0     C97218   3.436   1.908   3.733  0.4597 -0.0330  0.8892
  721MOL0     C97219   3.489   1.877   3.610 -1.2366  0.4878 -1.2085
  721MOL0     C97220   3.639   1.888   3.582  0.0813 -0.7281 -0.0386
  721MOL0     C97221   3.701   1.783   3.496 -0.2472  0.2146 -0.3243
  721MOL0     C97222   3.852   1.771   3.507  0.3304  0.7116 -0.6351
  721MOL0     C97223   3.914   1.702   3.384  0.1526  0.4583 -0.6034
  721MOL0     O97224   3.899   1.552   3.376  0.3593 -0.2028 -0.0867
  721MOL0     C97225   3.834   1.499   3.265 -0.5078 -0.1323  0.1285
  721MOL0     C97226   3.874   1.533   3.139 -0.0515 -0.4395 -0.2011
  721MOL0     C97227   3.826   1.479   3.021  0.7851  0.1614 -0.5319
  721MOL0     C97228   3.713   1.391   3.025  0.1115 -0.4258 -0.7346
  721MOL0     C97229   3.664   1.318   2.903 -0.3292 -0.2568  0.4344
  721MOL0     O97230   3.551   1.241   2.908 -0.2288 -0.3532  0.4584
  721MOL0     C97231   3.525   1.182   2.787 -0.2688 -1.4888 -0.8648
  721MOL0     C97232   3.459   1.255   2.688  0.4222 -0.2491  0.5666
  721MOL0     C97233   3.401   1.191   2.578 -0.1695  0.4255  0.1094
  721MOL0     C97234   3.423   1.059   2.561 -0.1835  0.0867  0.3640
  721MOL0     O97235   3.394   1.000   2.438 -0.1227 -0.4534  0.3975
  721MOL0     C97236   3.321   0.883   2.435  0.7727 -0.1820  1.0381
  721MOL0     C97237   3.315   0.846   2.275 -0.7033  0.0230  0.4571
  721MOL0     C97238   3.179   0.876   2.193  0.3346 -0.4254  0.4712
  721MOL0     C97239   3.171   1.022   2.166 -1.1306  0.7080 -1.2209
  721MOL0     C97240   3.057   1.053   2.086 -0.5209 -0.5169  0.0586
  721MOL0     C97241   3.066   1.196   2.023  0.1164 -0.9203 -0.1152
  721MOL0     C97242   2.931   1.252   1.966 -0.3016 -0.0044  0.1601
  721MOL0     C97243   2.869   1.169   1.854  0.8272 -0.5872 -0.0875
  721MOL0    Cl97244   2.977   1.136   1.720  0.2017  0.2424 -0.3268
  721MOL0     C97245   3.500   0.980   2.657  0.6546  0.0969  0.2153
  721MOL0     C97246   3.544   1.043   2.779 -0.9851  0.2878  0.6288
  721MOL0     O97247   3.725   1.343   2.800  0.3911 -0.3520  0.3348
  721MOL0     C97248   3.667   1.359   3.152  0.7387 -0.3337 -0.3500
  721MOL0     C97249   3.718   1.416   3.274 -0.7752  0.6594 -0.6725
  721MOL0     N97250   3.392   1.840   3.527 -1.1270  0.3073  0.1822
  721MOL0     N97251   3.277   1.842   3.586  0.2121 -0.3753  0.3922
  721MOL0     C97252   2.341   2.042   3.884 -0.2973 -0.4519  0.3577
  721MOL0     C97253   2.267   2.132   3.810  0.4697 -0.8781 -0.4593
  721MOL0     C97254   2.177   2.499   3.568  0.1975 -1.3826  0.0290
  721MOL0     C97255   2.249   2.618   3.559  0.2706 -0.0673 -0.0744
  721MOL0     C97256   2.202   2.735   3.492  0.6565 -0.4957  0.1182
  721MOL0     C97257   2.080   2.730   3.420  0.5317  1.0211 -0.6345
  721MOL0     O97258   2.026   2.831   3.348 -0.0029 -0.9019  0.7608
  721MOL0     C97259   2.084   2.972   3.341  1.0888  0.7286 -0.4749
  721MOL0     C97260   2.190   2.969   3.221  0.1525  0.2737 -0.8105
  721MOL0     C97261   2.125   2.972   3.087  0.2783  0.3332 -0.7974
  721MOL0     C97262   2.221   2.952   2.975  0.3528  0.3932 -0.9472
  721MOL0     C97263   2.156   2.953   2.844 -0.1421 -1.3661  0.0367
  721MOL0     C97264   2.124   2.934   2.728  0.0671  1.0107 -0.6195
  721MOL0     C97265   2.002   2.614   3.430  0.1617  0.8094 -0.5342
  721MOL0     C97266   2.048   2.502   3.497  0.3236  0.3146 -0.8398
  721MOL0     C97267   1.957   2.374   3.491 -0.2584  0.2436  0.0266
  721MOL0     H97268   2.388   2.111   3.496  4.6860  1.0780  0.7212
  721MOL0     H97269   2.510   1.927   3.610  2.6747  1.9379 -0.1903
  721MOL0     H97270   2.384   1.801   4.001 -0.5729  0.4979  2.3844
  721MOL0     H97271   2.496   1.682   3.955  0.9665 -0.0788  0.7437
  721MOL0     H97272   2.571   1.739   4.155 -0.8376 -0.6173 -1.5147
  721MOL0     H97273   2.573   1.915   4.130 -1.9400  2.4476 -4.4293
  721MOL0     H97274   2.759   1.869   3.951 -2.3910  1.5614  0.6729
  721MOL0     H97275   2.740   1.705   4.006 -0.6658  0.9500 -1.9518
  721MOL0     H97276   2.820   1.948   4.160 -1.1495 -0.0451  1.0297
  721MOL0     H97277   2.814   1.803   4.240 -1.2178  2.6261 -0.2299
  721MOL0     H97278   3.056   1.877   4.167 -1.8568  2.7293 -1.1296
  721MOL0     H97279   3.015   1.709   4.108 -1.1510 -0.5366 -3.7376
  721MOL0     H97280   2.960   1.791   3.910 -1.2966  2.7810 -0.6629
  721MOL0     H97281   2.983   1.963   3.966 -1.7742 -0.1950  3.3403
  721MOL0     H97282   3.179   1.735   3.908  1.2989 -0.0544  0.0427
  721MOL0     H97283   3.231   1.869   4.016  0.4466 -1.4461 -0.2910
  721MOL0     H97284   3.091   1.921   3.755 -1.5473  1.5629  1.7688
  721MOL0     H97285   3.201   2.031   3.838 -0.0893 -0.1457  1.0038
  721MOL0     H97286   3.491   1.939   3.822  0.6161 -2.0486  1.5401
  721MOL0     H97287   3.645   1.991   3.546 -2.5677 -0.8355 -1.0130
  721MOL0     H97288   3.682   1.875   3.682 -0.6054 -0.9843  0.2318
  721MOL0     H97289   3.659   1.686   3.523  1.9184 -1.0858 -1.3163
  721MOL0     H97290   3.673   1.787   3.390 -2.1052 -2.8064 -0.0746
  721MOL0     H97291   3.880   1.732   3.605 -4.2258  0.9322  0.9813
  721MOL0     H97292   3.898   1.870   3.511 -1.1400  1.4049  2.9844
  721MOL0     H97293   4.020   1.726   3.380 -0.2338  2.3107 -0.7346
  721MOL0     H97294   3.887   1.752   3.290 -1.3092 -0.6670 -0.8219
  721MOL0     H97295   3.960   1.599   3.142 -1.9891  2.2029  0.5006
  721MOL0     H97296   3.873   1.511   2.929 -0.2550  2.9576 -0.1920
  721MOL0     H97297   3.454   1.363   2.697  4.1393  0.4856 -3.1709
  721MOL0     H97298   3.351   1.244   2.497 -1.0054 -1.6126 -0.7717
  721MOL0     H97299   3.380   0.801   2.478  0.1121  0.1414  2.6189
  721MOL0     H97300   3.228   0.897   2.490  0.6362  1.2473  0.4885
  721MOL0     H97301   3.399   0.885   2.218 -0.6723  0.3334  0.7151
  721MOL0     H97302   3.322   0.737   2.279  1.0424  0.1355  1.7743
  721MOL0     H97303   3.178   0.812   2.104 -0.5039  0.0758  0.1101
  721MOL0     H97304   3.091   0.849   2.252  0.8336 -1.6551  0.6820
  721MOL0     H97305   3.261   1.044   2.108  0.0744 -1.7940 -0.4143
  721MOL0     H97306   3.161   1.082   2.257 -0.3052  2.4404 -2.2263
  721MOL0     H97307   2.964   1.056   2.143 -1.1182 -0.8883 -0.8737
  721MOL0     H97308   3.033   0.979   2.009 -3.9482  0.8756 -0.4292
  721MOL0     H97309   3.101   1.264   2.102  3.2047 -0.9137 -1.3594
  721MOL0     H97310   3.150   1.200   1.953 -0.4525 -1.5064 -0.8483
  721MOL0     H97311   2.945   1.355   1.933 -1.7668  1.0987  2.6858
  721MOL0     H97312   2.860   1.255   2.049  1.3414 -0.8378  1.6710
  721MOL0     H97313   2.838   1.071   1.893  1.4832 -0.9377 -0.4362
  721MOL0     H97314   2.781   1.223   1.818  0.3675 -1.7175 -0.7473
  721MOL0     H97315   3.516   0.875   2.638  2.2608  0.8373 -3.3443
  721MOL0     H97316   3.582   0.977   2.856 -2.7519 -0.1813  1.1344
  721MOL0     H97317   3.592   1.282   3.164  1.7746 -1.3759 -0.4198
  721MOL0     H97318   3.681   1.401   3.375 -1.2392  1.8328 -0.6531
  721MOL0     H97319   2.349   2.030   3.992  1.6615 -0.3349  0.2569
  721MOL0     H97320   2.203   2.203   3.862  2.2124  2.0026 -1.9837
  721MOL0     H97321   2.351   2.626   3.596 -0.0780  0.8968  0.7133
  721MOL0     H97322   2.274   2.811   3.462  2.6901 -3.2013 -2.4620
  721MOL0     H97323   2.119   2.994   3.443 -3.4701 -2.7103  2.2576
  721MOL0     H97324   2.008   3.043   3.309 -1.2537 -0.4451  2.0069
  721MOL0     H97325   2.262   2.889   3.236 -0.4258  0.2488  2.5753
  721MOL0     H97326   2.265   3.048   3.230 -0.4651  0.8010 -0.1807
  721MOL0     H97327   2.055   3.057   3.080 -0.1879 -0.0085 -0.3831
  721MOL0     H97328   2.059   2.884   3.080 -0.9373  1.2498 -1.3189
  721MOL0     H97329   2.306   3.020   2.979  4.2820 -3.9920 -0.5502
  721MOL0     H97330   2.258   2.852   2.998 -2.5441 -0.0672  2.6367
  721MOL0     H97331   2.118   2.908   2.624  2.9116 -1.5940 -0.2903
  721MOL0     H97332   1.905   2.607   3.382  0.4137 -1.5496 -0.7927
  721MOL0     H97333   1.993   2.285   3.438 -0.0356 -0.6746  1.6632
  721MOL0     H97334   1.926   2.341   3.590 -0.9210  1.3323  0.1992
  721MOL0     H97335   1.856   2.393   3.452 -1.2340 -2.0058  1.2519
  722MOL0     O97336   5.147   3.319   5.716 -0.5711 -0.2527  0.6497
  722MOL0     C97337   5.160   3.416   5.790 -0.8311 -0.1840 -0.7342
  722MOL0     O97338   5.087   3.449   5.902  0.3790 -0.0184 -0.3125
  722MOL0     C97339   4.997   3.361   5.956 -0.1703 -1.1449  0.1871
  722MOL0     C97340   4.895   3.295   5.883 -0.2675  0.6255  0.1149
  722MOL0     C97341   4.811   3.195   5.938  0.3793  0.4628  0.4340
  722MOL0     C97342   4.834   3.154   6.067 -0.0862  0.0574  0.0679
  722MOL0     O97343   4.755   3.071   6.137 -0.2953 -0.6241 -0.0738
  722MOL0     C97344   4.649   2.997   6.068 -0.3628 -0.0771 -0.0019
  722MOL0     C97345   4.593   2.889   6.170  0.4325  0.4606  0.2429
  722MOL0     C97346   4.715   2.813   6.231 -0.1291 -0.8722 -0.7407
  722MOL0     C97347   4.749   2.826   6.385 -0.1494 -0.0182  0.2259
  722MOL0     C97348   4.872   2.749   6.433 -0.4064  0.4322  0.1147
  722MOL0     C97349   4.856   2.591   6.415  0.6156 -0.4999  0.9959
  722MOL0     C97350   4.953   2.520   6.505  0.0435 -0.5381 -0.4983
  722MOL0     C97351   4.901   2.516   6.646  0.7060 -0.5066  1.0525
  722MOL0     N97352   4.818   2.398   6.674  0.2256  0.2605 -0.4073
  722MOL0     C97353   4.695   2.370   6.616  0.0473  0.1992  0.8073
  722MOL0     C97354   4.658   2.248   6.661  0.3483 -0.1943  0.6944
  722MOL0     C97355   4.538   2.185   6.606  0.0591  0.0461 -0.1048
  722MOL0     C97356   4.466   2.083   6.708 -0.4689 -0.2752  0.3207
  722MOL0     C97357   4.401   1.973   6.637  0.2503  0.2615 -0.5176
  722MOL0     C97358   4.331   1.874   6.735 -0.8358  1.1050  0.2035
  722MOL0     O97359   4.278   1.761   6.660 -0.3533 -0.9462  0.2864
  722MOL0     C97360   4.156   1.723   6.714 -0.3140 -0.1705 -0.3436
  722MOL0     C97361   4.159   1.642   6.829  0.9347  0.0603  0.0302
  722MOL0     C97362   4.048   1.580   6.889 -0.4592 -0.5146  0.4530
  722MOL0     C97363   3.918   1.630   6.852 -0.6610  0.1252 -0.8229
  722MOL0     C97364   3.792   1.571   6.920  0.1273 -0.0423  0.0988
  722MOL0     O97365   3.806   1.462   7.017 -0.4742  0.8994 -0.3268
  722MOL0     C97366   3.695   1.441   7.100 -0.5230 -0.0001 -0.1078
  722MOL0     C97367   3.582   1.366   7.070 -1.4509 -0.4648 -0.2385
  722MOL0     C97368   3.471   1.348   7.160 -0.1749  0.3576 -0.4589
  722MOL0     C97369   3.475   1.400   7.282  0.2518  0.1806 -0.0248
  722MOL0     O97370   3.371   1.394   7.375 -0.1978  0.5585  0.4799
  722MOL0     C97371   3.265   1.296   7.354 -0.6101 -0.1427  0.0298
  722MOL0     C97372   3.168   1.284   7.466 -0.7724 -0.4919 -0.0218
  722MOL0     C97373   3.079   1.156   7.443  0.0598 -0.6377  0.5424
  722MOL0     C97374   3.148   1.031   7.507 -0.9123  0.0471  0.6503
  722MOL0     C97375   3.156   1.038   7.659 -0.5849 -0.1362  0.2887
  722MOL0     C97376   3.224   0.914   7.722 -0.3929 -0.3019 -0.6405
  722MOL0     C97377   3.205   0.904   7.871  0.4919  0.4880 -0.9134
  722MOL0     C97378   3.273   0.785   7.929  0.4238  0.0093  0.3714
  722MOL0    Cl97379   3.212   0.632   7.883 -0.6091  0.2168  0.3387
  722MOL0     C97380   3.589   1.481   7.316  0.1789  0.9981 -0.0575
  722MOL0     C97381   3.694   1.497   7.231  0.2054  0.0541 -0.8470
  722MOL0     O97382   3.685   1.616   6.894 -0.0506  0.2701 -0.1524
  722MOL0     C97383   3.917   1.733   6.749  1.0586  0.1479  0.0834
  722MOL0     C97384   4.036   1.783   6.688 -0.4786  0.0316 -0.3456
  722MOL0     N97385   4.771   2.194   6.725  1.1870  0.6774  0.5902
  722MOL0     N97386   4.869   2.288   6.732  0.4224  0.1949  0.3326
  722MOL0     C97387   4.939   3.209   6.143  0.2158 -1.2090  0.1151
  722MOL0     C97388   5.022   3.312   6.083 -0.9636  0.2731  0.2557
  722MOL0     C97389   5.259   3.518   5.744  0.2687  0.1194 -0.4811
  722MOL0     C97390   5.256   3.637   5.806 -0.0296 -0.5216 -0.4651
  722MOL0     C97391   5.354   3.733   5.795  0.4965  0.3590  0.4762
  722MOL0     C97392   5.455   3.714   5.695 -0.8159  0.0814  0.2388
  722MOL0     O97393   5.542   3.814   5.656  0.1995 -0.3608 -0.5339
  722MOL0     C97394   5.487   3.942   5.643 -0.5592 -0.5537 -0.0098
  722MOL0     C97395   5.401   3.960   5.513  0.0405 -0.7165 -0.5655
  722MOL0     C97396   5.306   4.081   5.529  0.2768  0.0082 -0.1597
  722MOL0     C97397   5.234   4.125   5.400  0.4876  0.2051 -0.4333
  722MOL0     C97398   5.124   4.223   5.428 -0.1555  0.4729  0.5007
  722MOL0     C97399   5.033   4.306   5.442 -0.8294 -0.0335  0.2333
  722MOL0     C97400   5.457   3.594   5.623  1.2248 -0.0771  0.3317
  722MOL0     C97401   5.362   3.490   5.650 -0.4529  0.0954 -0.6962
  722MOL0     C97402   5.389   3.358   5.576  0.1853  0.4412  0.4336
  722MOL0     H97403   4.886   3.319   5.777 -0.3039 -2.2145 -0.6088
  722MOL0     H97404   4.723   3.169   5.880  0.6663  1.3564 -0.4136
  722MOL0     H97405   4.564   3.060   6.040 -0.8615  0.8400  3.1687
  722MOL0     H97406   4.695   2.952   5.980 -2.3220  0.6493 -1.4812
  722MOL0     H97407   4.524   2.817   6.125  0.3452 -2.7439  4.8436
  722MOL0     H97408   4.528   2.939   6.244  0.3809 -0.4345  0.8217
  722MOL0     H97409   4.808   2.839   6.179  2.8481 -1.9403  3.5364
  722MOL0     H97410   4.690   2.707   6.222  0.0367 -0.9660 -0.0789
  722MOL0     H97411   4.757   2.932   6.414  1.0890  0.0084 -0.1649
  722MOL0     H97412   4.661   2.783   6.433 -0.2558  0.3069  0.3242
  722MOL0     H97413   4.960   2.793   6.384  0.9975 -1.1519  1.1141
  722MOL0     H97414   4.875   2.768   6.540  0.4771 -1.9629  0.5606
  722MOL0     H97415   4.758   2.551   6.439 -0.2068  1.3595  0.8761
  722MOL0     H97416   4.874   2.569   6.309 -3.8669  0.9168 -0.2835
  722MOL0     H97417   5.055   2.559   6.508 -0.0067 -0.4558  0.3902
  722MOL0     H97418   4.965   2.415   6.478  0.2042 -1.1176  1.6539
  722MOL0     H97419   4.982   2.528   6.718  2.1547  2.2076 -0.8427
  722MOL0     H97420   4.842   2.603   6.673  2.7160  1.5668 -0.7508
  722MOL0     H97421   4.637   2.431   6.548  1.2029 -0.7663 -1.1551
  722MOL0     H97422   4.465   2.263   6.585 -1.1494 -1.1278 -0.4198
  722MOL0     H97423   4.556   2.142   6.507 -1.3989  1.0399 -0.8415
  722MOL0     H97424   4.521   2.042   6.793 -0.7759 -1.9024 -0.2228
  722MOL0     H97425   4.398   2.146   6.765  0.4285  0.7316  0.3070
  722MOL0     H97426   4.484   1.927   6.583 -1.0873 -2.8713 -0.1455
  722MOL0     H97427   4.332   2.009   6.560  2.8405  0.2980 -2.9593
  722MOL0     H97428   4.246   1.932   6.771 -2.6471 -0.8322 -0.7467
  722MOL0     H97429   4.394   1.831   6.813 -1.5956 -0.5857 -0.0804
  722MOL0     H97430   4.251   1.602   6.870  0.8482 -0.7104 -0.4900
  722MOL0     H97431   4.065   1.509   6.969  0.8587  0.1202  0.7564
  722MOL0     H97432   3.589   1.314   6.975 -0.9428 -1.0022  0.0849
  722MOL0     H97433   3.381   1.292   7.133  1.1327 -1.7252 -0.7187
  722MOL0     H97434   3.198   1.320   7.270 -1.7825 -1.5053  0.5205
  722MOL0     H97435   3.300   1.193   7.339 -0.1368 -0.2441  1.6929
  722MOL0     H97436   3.227   1.282   7.558  2.2197 -2.1526 -1.7945
  722MOL0     H97437   3.101   1.370   7.456 -0.3550 -0.2037 -0.3512
  722MOL0     H97438   2.983   1.172   7.494  1.8961  1.4769  3.6533
  722MOL0     H97439   3.068   1.145   7.335  2.5295  2.4127 -0.1651
  722MOL0     H97440   3.246   1.022   7.458 -1.5430  2.4659 -1.2046
  722MOL0     H97441   3.081   0.947   7.487 -2.3850  1.4739 -0.7351
  722MOL0     H97442   3.054   1.042   7.697 -0.1142 -0.0116  1.5736
  722MOL0     H97443   3.206   1.127   7.698 -2.2743  0.8476  0.2914
  722MOL0     H97444   3.185   0.828   7.667 -2.5447  0.6855 -0.7681
  722MOL0     H97445   3.332   0.923   7.711  0.0210 -0.1396  2.5677
  722MOL0     H97446   3.097   0.893   7.888  0.4568  0.4185 -1.1822
  722MOL0     H97447   3.238   0.998   7.916  1.8641 -0.3344 -0.1386
  722MOL0     H97448   3.382   0.783   7.924  0.4998  0.2211  1.6497
  722MOL0     H97449   3.259   0.812   8.034 -1.6912  1.2015 -0.1613
  722MOL0     H97450   3.605   1.532   7.411 -1.3040 -0.7997  1.2320
  722MOL0     H97451   3.771   1.563   7.268  1.4691 -0.6074 -2.2124
  722MOL0     H97452   3.819   1.762   6.711  0.5223 -0.0895  1.2477
  722MOL0     H97453   4.031   1.850   6.602  1.2736  1.1045  0.3198
  722MOL0     H97454   4.953   3.183   6.247 -2.7618 -2.4893  0.3048
  722MOL0     H97455   5.110   3.350   6.135 -0.4233  1.2120 -1.2804
  722MOL0     H97456   5.194   3.662   5.891  0.6370  0.9521 -0.3904
  722MOL0     H97457   5.374   3.824   5.851  0.6042  1.0666 -0.6784
  722MOL0     H97458   5.573   4.008   5.631 -1.3068  0.0953 -2.5046
  722MOL0     H97459   5.429   3.976   5.729 -1.7123 -1.4235 -0.4121
  722MOL0     H97460   5.345   3.867   5.500 -1.3296  0.0755 -0.4741
  722MOL0     H97461   5.465   3.990   5.429  0.4146  1.3043  0.3856
  722MOL0     H97462   5.354   4.166   5.579  0.1435 -0.0321  0.0357
  722MOL0     H97463   5.226   4.044   5.594 -0.5421 -2.0029 -2.1829
  722MOL0     H97464   5.304   4.182   5.339  2.0868 -0.6430  0.5441
  722MOL0     H97465   5.197   4.041   5.341  0.6276 -1.6924  2.0210
  722MOL0     H97466   4.964   4.386   5.459  3.6892  3.9319  2.6753
  722MOL0     H97467   5.534   3.573   5.550 -0.7517  1.7478 -2.4831
  722MOL0     H97468   5.316   3.349   5.494  0.3754  1.2467  0.1650
  722MOL0     H97469   5.489   3.356   5.533 -0.8122 -0.3687 -2.0680
  722MOL0     H97470   5.375   3.270   5.640  0.2438 -1.7549 -2.3714
  723MOL0     O97471   5.893   2.264   8.664  0.3177 -0.7103 -0.0782
  723MOL0     C97472   5.777   2.237   8.641  0.0287  0.1958 -0.8586
  723MOL0     O97473   5.704   2.133   8.703  0.3953  0.2194 -1.4249
  723MOL0     C97474   5.781   2.051   8.784  0.6001  1.0110 -0.7130
  723MOL0     C97475   5.813   2.097   8.908 -0.2680 -0.0890  0.1714
  723MOL0     C97476   5.857   2.012   9.009  0.0697 -0.0429  0.6052
  723MOL0     C97477   5.875   1.875   8.982  0.0026 -0.1919  0.4212
  723MOL0     O97478   5.914   1.781   9.075  0.0559 -0.4280  0.0629
  723MOL0     C97479   5.988   1.821   9.188 -0.0095 -0.2973  0.2376
  723MOL0     C97480   6.006   1.693   9.255 -0.3821  0.2157  0.0037
  723MOL0     C97481   5.876   1.608   9.294 -0.7196  0.6455 -0.0844
  723MOL0     C97482   5.913   1.472   9.352 -0.3414  1.0146 -1.0793
  723MOL0     C97483   5.785   1.386   9.337  0.0069 -1.1391 -0.1024
  723MOL0     C97484   5.805   1.234   9.351  0.5052  0.3292  0.1458
  723MOL0     C97485   5.883   1.176   9.234 -1.4564  0.6293  0.2186
  723MOL0     C97486   5.886   1.030   9.216  0.0308  0.6788  0.6580
  723MOL0     N97487   5.756   0.954   9.207 -0.2833  0.7720  0.4664
  723MOL0     C97488   5.649   1.002   9.136 -0.7425 -0.5232  0.5792
  723MOL0     C97489   5.548   0.914   9.169  0.4171 -0.7295  0.2796
  723MOL0     C97490   5.402   0.919   9.132 -0.3706 -0.0556 -0.2349
  723MOL0     C97491   5.384   1.005   9.002 -0.6938 -0.1389  0.8380
  723MOL0     C97492   5.275   0.955   8.912  0.1881 -0.3929 -0.0870
  723MOL0     C97493   5.137   0.996   8.967 -0.0155  0.5708 -0.1026
  723MOL0     O97494   5.125   1.136   9.004  0.0991  0.3366  0.7342
  723MOL0     C97495   5.009   1.182   9.057  0.4152 -1.0246  0.0982
  723MOL0     C97496   4.995   1.320   9.067 -0.0530 -0.2890 -0.6942
  723MOL0     C97497   4.874   1.380   9.102  0.1367  0.0194 -0.8259
  723MOL0     C97498   4.774   1.299   9.156 -1.3257 -0.2183  0.3110
  723MOL0     C97499   4.649   1.357   9.182 -0.4866  0.2103 -0.5238
  723MOL0     O97500   4.549   1.264   9.232 -0.8360 -0.0016 -0.3086
  723MOL0     C97501   4.427   1.324   9.263 -0.3899  0.0691  0.3092
  723MOL0     C97502   4.336   1.349   9.160  0.0615  0.3436  1.3445
  723MOL0     C97503   4.209   1.384   9.183  0.7140 -0.4774  0.2743
  723MOL0     C97504   4.155   1.392   9.318 -0.2607  0.0969 -0.4287
  723MOL0     O97505   4.033   1.451   9.334 -0.1335 -1.1691 -0.1333
  723MOL0     C97506   4.037   1.562   9.434  0.5834  0.8931  0.0793
  723MOL0     C97507   3.895   1.594   9.482 -0.1381 -0.9274 -0.0452
  723MOL0     C97508   3.821   1.684   9.382  0.0100 -0.1988 -0.5383
  723MOL0     C97509   3.860   1.676   9.229 -0.1436 -0.4387 -0.4970
  723MOL0     C97510   3.759   1.764   9.152 -0.9424  0.1194  0.3982
  723MOL0     C97511   3.798   1.776   9.006  0.8140  0.5732 -0.6073
  723MOL0     C97512   3.684   1.843   8.930  0.2561  1.0395  0.4305
  723MOL0     C97513   3.562   1.754   8.904 -0.2858 -0.0952  0.2665
  723MOL0    Cl97514   3.467   1.837   8.787 -0.0917  0.0066 -0.0431
  723MOL0     C97515   4.243   1.349   9.423 -0.1570 -0.2503 -0.3935
  723MOL0     C97516   4.378   1.323   9.394  0.2923  1.8332  0.2734
  723MOL0     O97517   4.628   1.471   9.135 -0.1710  0.3869 -0.0685
  723MOL0     C97518   4.785   1.160   9.173 -0.5238 -1.3294  0.1454
  723MOL0     C97519   4.907   1.103   9.124 -0.2282  0.4964  0.2194
  723MOL0     N97520   5.598   0.812   9.247 -0.7103  0.5735 -0.2475
  723MOL0     N97521   5.721   0.845   9.277  1.0752  0.3081 -0.2260
  723MOL0     C97522   5.856   1.835   8.844  0.6198 -0.0838 -0.3702
  723MOL0     C97523   5.803   1.915   8.748 -0.5067 -0.3989  0.0932
  723MOL0     C97524   5.694   2.313   8.548 -1.2633  0.4688 -0.1592
  723MOL0     C97525   5.572   2.250   8.500  0.3116  0.0986 -0.9100
  723MOL0     C97526   5.490   2.317   8.400 -0.5287  0.3912 -0.0264
  723MOL0     C97527   5.528   2.441   8.348 -0.1253 -0.4510 -0.4279
  723MOL0     O97528   5.454   2.518   8.269  0.2822  0.0998  0.3803
  723MOL0     C97529   5.326   2.467   8.227 -0.0239 -0.1047  0.4698
  723MOL0     C97530   5.262   2.580   8.139  0.0734 -0.9744 -0.6228
  723MOL0     C97531   5.243   2.701   8.231  0.5687 -0.8732  0.3687
  723MOL0     C97532   5.357   2.804   8.216 -0.0298 -0.3445  0.1178
  723MOL0     C97533   5.339   2.867   8.083 -0.3359 -0.3199 -0.4014
  723MOL0     C97534   5.313   2.895   7.972  0.4375 -0.0835  0.3114
  723MOL0     C97535   5.649   2.497   8.394  1.0447 -0.4696 -0.9968
  723MOL0     C97536   5.731   2.439   8.498  0.6278 -0.3630 -0.6669
  723MOL0     C97537   5.861   2.521   8.531  0.5778  0.5762 -0.7914
  723MOL0     H97538   5.800   2.204   8.919 -0.5845 -0.0077 -0.8546
  723MOL0     H97539   5.868   2.058   9.107  0.5783  0.3028  0.3880
  723MOL0     H97540   6.087   1.864   9.167  0.0885 -0.8840 -0.5608
  723MOL0     H97541   5.932   1.895   9.245 -2.5793  2.3182 -4.9767
  723MOL0     H97542   6.055   1.715   9.350 -2.5172 -0.7288  1.4026
  723MOL0     H97543   6.078   1.637   9.194  1.1224  1.6577  0.3687
  723MOL0     H97544   5.824   1.600   9.198 -0.8124 -1.2067  0.0845
  723MOL0     H97545   5.818   1.668   9.365 -1.1025 -0.0380  0.1906
  723MOL0     H97546   5.995   1.428   9.296  1.9125 -0.6776  3.1162
  723MOL0     H97547   5.940   1.467   9.458 -1.5546 -0.4163 -0.7972
  723MOL0     H97548   5.710   1.419   9.410  0.7365  0.5038 -0.0375
  723MOL0     H97549   5.739   1.408   9.239  1.5746  1.7075 -0.3319
  723MOL0     H97550   5.857   1.223   9.447 -2.3987  3.1273  2.2519
  723MOL0     H97551   5.708   1.182   9.353  0.5726 -0.0688 -2.6434
  723MOL0     H97552   5.990   1.193   9.248 -1.4861 -0.4104  1.9466
  723MOL0     H97553   5.867   1.239   9.146  2.5384 -0.3483 -1.4388
  723MOL0     H97554   5.952   1.014   9.131 -0.3511  3.0411 -0.1497
  723MOL0     H97555   5.934   0.980   9.301 -3.9452 -2.0859  1.5961
  723MOL0     H97556   5.645   1.092   9.076  3.6691  0.1621  0.9988
  723MOL0     H97557   5.377   0.815   9.109 -3.4551  0.1390  1.7503
  723MOL0     H97558   5.347   0.938   9.224  1.2254 -0.1206  0.7653
  723MOL0     H97559   5.364   1.111   9.018  0.0693  0.0881  0.3499
  723MOL0     H97560   5.479   0.992   8.949 -0.2301  2.1021  1.0422
  723MOL0     H97561   5.279   0.846   8.919 -0.8805 -0.4769 -0.5564
  723MOL0     H97562   5.288   0.980   8.806  0.7681  0.7121  0.2343
  723MOL0     H97563   5.124   0.934   9.056  0.7175 -2.1811 -1.7985
  723MOL0     H97564   5.058   0.966   8.898 -2.6798  0.5367  2.7318
  723MOL0     H97565   5.080   1.379   9.033  0.6296  0.4167  2.0031
  723MOL0     H97566   4.869   1.488   9.096 -1.1567 -0.0111 -0.5668
  723MOL0     H97567   4.368   1.334   9.057  1.7838 -2.7219  2.2412
  723MOL0     H97568   4.153   1.410   9.093  0.1837  0.5413  0.8807
  723MOL0     H97569   4.096   1.526   9.520 -0.1003 -5.3563 -1.5891
  723MOL0     H97570   4.087   1.650   9.393  2.0282  0.4997  0.9053
  723MOL0     H97571   3.828   1.511   9.505 -0.1002 -0.3718  2.3264
  723MOL0     H97572   3.913   1.645   9.577  1.4068 -4.3456  1.6685
  723MOL0     H97573   3.713   1.669   9.390  0.2302 -1.8253 -0.2454
  723MOL0     H97574   3.830   1.786   9.420  0.3212 -0.0570 -0.9842
  723MOL0     H97575   3.859   1.572   9.196  0.4531 -1.1940  1.7073
  723MOL0     H97576   3.963   1.712   9.217  0.8859 -2.3667  1.7683
  723MOL0     H97577   3.745   1.858   9.208 -2.5212 -0.0399  0.3197
  723MOL0     H97578   3.662   1.714   9.160 -0.8741 -0.0966 -0.1125
  723MOL0     H97579   3.892   1.831   8.995 -0.8254  3.7494  0.1731
  723MOL0     H97580   3.824   1.675   8.971  0.3076  0.6132 -1.1159
  723MOL0     H97581   3.722   1.869   8.831 -0.9279 -1.3426 -0.7201
  723MOL0     H97582   3.653   1.942   8.962 -0.2954  2.1680 -3.1911
  723MOL0     H97583   3.593   1.666   8.847  4.1872  0.4796  1.4599
  723MOL0     H97584   3.511   1.719   8.995  1.0679 -0.4503  0.9155
  723MOL0     H97585   4.194   1.345   9.520 -1.1157 -1.5712 -0.9081
  723MOL0     H97586   4.452   1.274   9.457  3.2430  2.9349 -2.0623
  723MOL0     H97587   4.710   1.099   9.220 -0.9243 -0.8009  0.2057
  723MOL0     H97588   4.919   0.997   9.146 -3.2145  0.3686  1.6494
  723MOL0     H97589   5.864   1.733   8.808 -0.4853  0.5799 -2.6909
  723MOL0     H97590   5.782   1.875   8.650  0.0537 -3.0012  0.9486
  723MOL0     H97591   5.537   2.154   8.537  0.0570 -0.4240 -2.4023
  723MOL0     H97592   5.397   2.267   8.376  1.0211 -1.5773 -2.5073
  723MOL0     H97593   5.259   2.445   8.311 -2.1190  4.8930  0.4321
  723MOL0     H97594   5.348   2.377   8.169  2.9406 -0.4952  2.0171
  723MOL0     H97595   5.166   2.552   8.094 -1.0611  0.6204  0.6935
  723MOL0     H97596   5.326   2.603   8.053  0.3539  1.2791  0.1238
  723MOL0     H97597   5.233   2.669   8.335  0.9577  0.5936  0.8784
  723MOL0     H97598   5.144   2.745   8.209  0.3764 -1.0788  0.8189
  723MOL0     H97599   5.353   2.882   8.292 -0.9935  0.0546 -0.3205
  723MOL0     H97600   5.456   2.758   8.215  0.0407 -0.1953  0.2480
  723MOL0     H97601   5.277   2.903   7.871 -0.2446 -0.1589  0.5389
  723MOL0     H97602   5.678   2.591   8.348  0.4187 -0.3440 -1.1507
  723MOL0     H97603   5.865   2.514   8.640  1.3259 -4.5493 -0.9242
  723MOL0     H97604   5.955   2.478   8.494  0.7163  1.1964 -1.1809
  723MOL0     H97605   5.869   2.621   8.487 -0.2690 -0.3178 -3.1346
  724MOL0     O97606   1.396   9.564   4.490  0.9521  0.1668  0.9784
  724MOL0     C97607   1.301   9.494   4.534 -0.3707  0.1201 -0.0588
  724MOL0     O97608   1.304   9.451   4.666  0.1911  0.2891 -0.1371
  724MOL0     C97609   1.406   9.494   4.737 -0.5280  0.3583  0.1437
  724MOL0     C97610   1.395   9.615   4.801 -0.2256  0.0920 -0.2381
  724MOL0     C97611   1.494   9.661   4.887  0.1314  0.4355  0.1706
  724MOL0     C97612   1.610   9.594   4.912  1.2460  0.5185  0.4408
  724MOL0     O97613   1.698   9.648   4.999 -0.4067  0.6886 -0.5301
  724MOL0     C97614   1.826   9.578   5.020 -0.6887  0.7545  0.6389
  724MOL0     C97615   1.900   9.666   5.117 -0.5106 -0.2664  1.4047
  724MOL0     C97616   1.886   9.618   5.259 -0.2882 -0.3187 -0.3505
  724MOL0     C97617   1.968   9.713   5.346 -0.4922 -0.6692 -0.6265
  724MOL0     C97618   2.003   9.641   5.479 -0.1356 -0.7905 -0.5046
  724MOL0     C97619   1.893   9.585   5.568 -0.8318 -1.1232 -0.7277
  724MOL0     C97620   1.790   9.688   5.618  0.3397 -0.2677  0.2567
  724MOL0     C97621   1.834   9.797   5.706  0.4192 -0.5490  0.8986
  724MOL0     N97622   1.861   9.743   5.845  0.3064 -0.0988  0.3170
  724MOL0     C97623   1.792   9.784   5.958 -0.7898 -0.4594 -0.5576
  724MOL0     C97624   1.849   9.700   6.058  0.3309 -1.1012 -0.4138
  724MOL0     C97625   1.793   9.705   6.195 -0.6605  0.3732  0.0779
  724MOL0     C97626   1.765   9.553   6.232 -0.4399 -0.1031  0.0859
  724MOL0     C97627   1.688   9.537   6.352  0.2682 -0.4952 -0.1336
  724MOL0     C97628   1.539   9.558   6.339  0.2943  0.6351  0.4293
  724MOL0     O97629   1.481   9.451   6.268 -0.1070 -0.3130  0.0917
  724MOL0     C97630   1.339   9.450   6.266 -1.1808  0.7991 -0.0663
  724MOL0     C97631   1.257   9.448   6.381 -0.0047 -0.0117  0.4665
  724MOL0     C97632   1.113   9.442   6.380  0.6286  0.9987 -0.3914
  724MOL0     C97633   1.059   9.427   6.259 -0.8308  0.4592  0.1639
  724MOL0     C97634   0.908   9.407   6.245  0.4663 -0.6563  0.8946
  724MOL0     O97635   0.827   9.460   6.344  0.1416 -0.4221 -0.4576
  724MOL0     C97636   0.694   9.408   6.340 -0.8911  0.5880  0.0714
  724MOL0     C97637   0.660   9.272   6.338  0.8932 -1.0294  0.0636
  724MOL0     C97638   0.532   9.224   6.326 -0.0164 -0.9779 -0.6966
  724MOL0     C97639   0.428   9.314   6.311 -0.3315 -0.3276  1.4283
  724MOL0     O97640   0.300   9.288   6.274  0.3732  0.5000 -0.3972
  724MOL0     C97641   0.254   9.154   6.250 -0.7408  0.1024  0.6655
  724MOL0     C97642   0.239   9.068   6.377 -0.9390 -1.0233  0.3404
  724MOL0     C97643   0.163   8.942   6.365 -0.4656  0.4947  0.3349
  724MOL0     C97644   0.168   8.866   6.497  0.5268 -0.2013 -0.1715
  724MOL0     C97645   0.087   8.734   6.491 -0.3017  0.3211  0.3802
  724MOL0     C97646   0.148   8.620   6.403 -0.1108 -0.6073 -0.0826
  724MOL0     C97647   0.272   8.565   6.468  0.2235 -0.2422 -0.8716
  724MOL0     C97648   0.331   8.470   6.367 -0.1456  0.8309 -0.3465
  724MOL0    Cl97649   0.463   8.367   6.414 -0.4364  0.5218 -0.1250
  724MOL0     C97650   0.459   9.451   6.317 -0.3365  0.8583 -1.1812
  724MOL0     C97651   0.586   9.496   6.340 -0.9225 -0.0985 -1.3271
  724MOL0     O97652   0.865   9.346   6.143 -0.0145 -0.3266  0.5411
  724MOL0     C97653   1.137   9.426   6.144  0.0346  0.7262 -1.3148
  724MOL0     C97654   1.272   9.445   6.149  0.3726  0.3359 -0.2907
  724MOL0     N97655   1.932   9.617   6.001  0.1446 -0.7076  0.8316
  724MOL0     N97656   1.952   9.643   5.878  1.2182 -0.4771  0.2740
  724MOL0     C97657   1.626   9.473   4.846  1.4376  0.2994  0.2896
  724MOL0     C97658   1.528   9.429   4.750 -0.3602  0.0819 -0.9362
  724MOL0     C97659   1.196   9.446   4.443  0.7265  0.3021 -0.2471
  724MOL0     C97660   1.223   9.436   4.302  0.7065  0.8479  0.3935
  724MOL0     C97661   1.136   9.378   4.213  0.3417  0.0503  0.3401
  724MOL0     C97662   1.012   9.341   4.257  0.1462 -0.5332 -0.2348
  724MOL0     O97663   0.936   9.304   4.156 -0.5454  0.6915  0.3880
  724MOL0     C97664   0.824   9.224   4.195 -0.1962  0.0718  0.5297
  724MOL0     C97665   0.793   9.162   4.054  0.0656  0.5016  0.1114
  724MOL0     C97666   0.688   9.044   4.056 -0.3779 -0.7730  1.0750
  724MOL0     C97667   0.610   9.046   3.922  0.2596  0.1366 -0.0408
  724MOL0     C97668   0.530   8.914   3.906  0.6797 -0.2878 -0.8143
  724MOL0     C97669   0.465   8.814   3.894  0.4290  0.0537 -0.8327
  724MOL0     C97670   0.979   9.349   4.394 -0.2342 -0.3069 -0.1078
  724MOL0     C97671   1.069   9.400   4.490 -0.1505 -0.2868  0.8448
  724MOL0     C97672   1.015   9.405   4.632 -0.3224 -0.0869  0.7712
  724MOL0     H97673   1.311   9.670   4.762  1.6524  1.3332 -2.7970
  724MOL0     H97674   1.477   9.759   4.930 -0.0576  0.2309  0.5716
  724MOL0     H97675   1.804   9.477   5.056  0.8046 -0.3491 -1.3684
  724MOL0     H97676   1.885   9.573   4.929  1.0485  2.5637  1.5845
  724MOL0     H97677   1.867   9.770   5.112 -1.6818 -0.6300  1.2944
  724MOL0     H97678   2.006   9.651   5.096 -0.6825  1.0905 -0.7548
  724MOL0     H97679   1.922   9.515   5.250 -3.1031 -1.2044 -2.8795
  724MOL0     H97680   1.781   9.617   5.288 -0.2976  2.0168 -0.0865
  724MOL0     H97681   2.048   9.762   5.289 -1.6485  0.6897 -1.1471
  724MOL0     H97682   1.903   9.795   5.376 -2.1740 -1.6928 -1.3482
  724MOL0     H97683   2.073   9.560   5.456  2.1190  0.6792  0.8012
  724MOL0     H97684   2.061   9.712   5.538  0.3014 -0.3701 -1.4140
  724MOL0     H97685   1.831   9.504   5.527 -0.8198 -3.4848  3.3865
  724MOL0     H97686   1.950   9.542   5.651  2.0051 -0.5271 -2.2299
  724MOL0     H97687   1.713   9.625   5.664  2.1073 -2.4612  0.3782
  724MOL0     H97688   1.745   9.744   5.536 -1.8638 -2.2091  0.0595
  724MOL0     H97689   1.928   9.844   5.675  0.6230 -0.1833  1.9998
  724MOL0     H97690   1.754   9.870   5.722  0.7885  0.2976 -0.8509
  724MOL0     H97691   1.718   9.863   5.965 -1.0205 -0.2875 -3.5669
  724MOL0     H97692   1.859   9.756   6.266  0.0768  1.0604 -1.0844
  724MOL0     H97693   1.699   9.759   6.202 -2.0752 -1.9583  0.2886
  724MOL0     H97694   1.713   9.499   6.152 -1.4810  2.2137 -0.8726
  724MOL0     H97695   1.865   9.511   6.246  0.1251  1.1800  0.0097
  724MOL0     H97696   1.724   9.599   6.435 -3.1102 -0.5788  1.5933
  724MOL0     H97697   1.705   9.434   6.382 -1.5818 -0.8556 -0.1703
  724MOL0     H97698   1.527   9.649   6.281 -1.0669  1.6213  2.1524
  724MOL0     H97699   1.499   9.573   6.440  2.2522  2.6780  0.9933
  724MOL0     H97700   1.306   9.440   6.477 -3.0015  0.1955  2.1256
  724MOL0     H97701   1.060   9.431   6.474  1.2488  1.4983  0.0273
  724MOL0     H97702   0.746   9.206   6.342  0.5620 -1.4447  0.6135
  724MOL0     H97703   0.522   9.116   6.318 -1.0108 -0.7889 -2.6369
  724MOL0     H97704   0.164   9.153   6.187 -0.7096  0.2820  0.6163
  724MOL0     H97705   0.326   9.098   6.189 -2.6860 -0.4009 -1.3106
  724MOL0     H97706   0.340   9.048   6.413 -0.1583 -0.0554 -1.1541
  724MOL0     H97707   0.180   9.131   6.444 -1.5018 -1.9646  0.7400
  724MOL0     H97708   0.061   8.963   6.331 -0.1134  2.6384  0.4557
  724MOL0     H97709   0.215   8.884   6.288  0.5849  2.7222 -0.7373
  724MOL0     H97710   0.122   8.924   6.578  4.0154  0.5010  1.5381
  724MOL0     H97711   0.268   8.838   6.532  0.9909  0.3812 -1.0006
  724MOL0     H97712  -0.017   8.754   6.462  0.1268  2.0708 -0.0624
  724MOL0     H97713   0.078   8.700   6.595 -0.0153  3.3656  1.5048
  724MOL0     H97714   0.073   8.542   6.383 -1.9153  0.4879  1.9087
  724MOL0     H97715   0.161   8.674   6.309 -2.7845  1.9340  0.8465
  724MOL0     H97716   0.238   8.520   6.562 -0.7453 -0.1897 -1.1856
  724MOL0     H97717   0.346   8.641   6.491 -0.4068 -0.1191  0.9152
  724MOL0     H97718   0.250   8.401   6.342  1.8372 -1.4135 -0.9952
  724MOL0     H97719   0.349   8.530   6.278 -1.1311 -0.4281 -1.4269
  724MOL0     H97720   0.378   9.523   6.308 -2.0552 -0.8194  0.0897
  724MOL0     H97721   0.610   9.602   6.345  0.5473 -0.4728  2.8854
  724MOL0     H97722   1.084   9.408   6.051 -0.3069 -1.3424 -0.7621
  724MOL0     H97723   1.320   9.448   6.052 -1.3730  0.6124 -1.1892
  724MOL0     H97724   1.717   9.419   4.869  2.1629  1.0800 -0.6785
  724MOL0     H97725   1.531   9.338   4.692 -0.7533 -0.1002 -0.6771
  724MOL0     H97726   1.326   9.461   4.278  0.1906  1.0289 -1.8542
  724MOL0     H97727   1.176   9.348   4.117 -1.9155 -0.2219 -0.5908
  724MOL0     H97728   0.742   9.287   4.229  1.1451  1.2417  1.7344
  724MOL0     H97729   0.852   9.147   4.267  1.6428  0.9694  0.8358
  724MOL0     H97730   0.885   9.120   4.013 -0.0011  2.7053 -2.5493
  724MOL0     H97731   0.759   9.235   3.980  3.2704  0.5557 -1.4499
  724MOL0     H97732   0.612   9.074   4.129  0.6341  3.3464  0.6846
  724MOL0     H97733   0.730   8.950   4.093 -0.4995 -0.9104  0.8689
  724MOL0     H97734   0.535   9.125   3.914 -0.7482 -0.9262 -2.0440
  724MOL0     H97735   0.669   9.053   3.830 -1.4149 -0.4953 -1.2148
  724MOL0     H97736   0.399   8.731   3.878  1.0957 -0.4474 -1.0417
  724MOL0     H97737   0.883   9.313   4.430 -0.2765  0.2889  0.3905
  724MOL0     H97738   0.924   9.345   4.645 -1.3581  1.3166  0.1096
  724MOL0     H97739   1.079   9.376   4.716 -1.7612  1.5162  2.5121
  724MOL0     H97740   0.984   9.507   4.656 -2.1881 -0.4352  0.0242
  725MOL0     O97741   7.154  11.278   4.851  0.4867 -0.3767  0.4706
  725MOL0     C97742   7.112  11.335   4.953 -0.5854  0.0791  0.1770
  725MOL0     O97743   7.173  11.438   5.018  0.8148 -0.0304 -0.8703
  725MOL0     C97744   7.283  11.508   4.971 -0.0597  0.2140 -0.5879
  725MOL0     C97745   7.314  11.634   5.037 -0.5211  0.5161  0.7971
  725MOL0     C97746   7.427  11.712   4.987  0.0205 -0.3193 -0.9989
  725MOL0     C97747   7.510  11.659   4.891 -1.2181  0.7818  0.5533
  725MOL0     O97748   7.629  11.730   4.867 -0.5888  0.0814  0.3255
  725MOL0     C97749   7.749  11.651   4.839  0.7504 -0.2734 -1.2311
  725MOL0     C97750   7.868  11.742   4.808 -0.7977 -0.6974  0.3981
  725MOL0     C97751   7.939  11.786   4.940  0.0177 -1.0236  0.1177
  725MOL0     C97752   7.855  11.864   5.038 -0.3885 -0.2232 -1.1517
  725MOL0     C97753   7.932  11.895   5.172 -0.0361 -0.0040  1.0987
  725MOL0     C97754   8.008  12.033   5.167  0.1741  0.0888  0.1570
  725MOL0     C97755   8.081  12.070   5.299  0.1903  0.1556  0.1509
  725MOL0     C97756   8.087  12.224   5.329  0.4888 -0.1886 -0.7330
  725MOL0     N97757   8.148  12.238   5.464  0.0370  0.4507  0.3718
  725MOL0     C97758   8.078  12.234   5.582  0.7763  0.7799 -0.2905
  725MOL0     C97759   8.170  12.273   5.682  0.7396 -0.5259 -0.2700
  725MOL0     C97760   8.148  12.291   5.829  0.6683 -0.0596 -0.2903
  725MOL0     C97761   8.038  12.380   5.871 -0.3873  0.2037 -0.2435
  725MOL0     C97762   8.083  12.519   5.916  0.1231 -0.4022 -0.7297
  725MOL0     C97763   7.986  12.594   6.002  0.3211 -0.1688  0.3025
  725MOL0     O97764   7.869  12.636   5.914 -0.4436  0.0820 -0.6953
  725MOL0     C97765   7.793  12.725   5.973 -0.4133 -0.2887  0.7550
  725MOL0     C97766   7.823  12.860   5.973  0.3039 -0.5488  0.2475
  725MOL0     C97767   7.735  12.944   6.036  1.2443  0.4234  0.3946
  725MOL0     C97768   7.619  12.895   6.104  0.0374  0.0126 -0.2437
  725MOL0     C97769   7.515  12.989   6.166 -0.7227  0.0332  0.3439
  725MOL0     O97770   7.394  12.929   6.199 -0.5542 -0.1156  0.6939
  725MOL0     C97771   7.326  13.006   6.283  0.1002 -0.0663 -0.8089
  725MOL0     C97772   7.201  13.041   6.230  0.6890  0.8393  0.0780
  725MOL0     C97773   7.092  13.066   6.326 -1.0371  0.7788  0.1234
  725MOL0     C97774   7.122  13.083   6.467 -0.5959  0.9605 -0.6002
  725MOL0     O97775   7.040  13.124   6.565 -0.0026 -0.3753  0.3788
  725MOL0     C97776   6.899  13.118   6.533 -0.3462 -0.3284  0.3815
  725MOL0     C97777   6.824  13.123   6.666 -0.6310  0.8853  0.0462
  725MOL0     C97778   6.790  13.270   6.696  0.3612 -0.1679  0.0778
  725MOL0     C97779   6.911  13.367   6.700 -1.3749  0.1192  0.1475
  725MOL0     C97780   6.859  13.496   6.765 -0.7053  0.0650  0.3227
  725MOL0     C97781   6.968  13.605   6.762  0.1583 -0.4187  0.1666
  725MOL0     C97782   6.941  13.730   6.855 -0.0922  0.7025  0.2957
  725MOL0     C97783   6.821  13.812   6.822  0.1703 -0.6271  0.0858
  725MOL0    Cl97784   6.783  13.913   6.965  0.2673  0.2385  0.4621
  725MOL0     C97785   7.251  13.059   6.502 -0.3404  0.4800  0.0661
  725MOL0     C97786   7.351  13.016   6.419  0.3724  0.5234 -0.3580
  725MOL0     O97787   7.534  13.103   6.161 -0.1558 -1.0794  0.3802
  725MOL0     C97788   7.594  12.763   6.114  0.4721  0.3665  0.6826
  725MOL0     C97789   7.688  12.679   6.059 -0.4424 -0.6701  0.2460
  725MOL0     N97790   8.291  12.293   5.620 -0.2377 -0.5528  0.4954
  725MOL0     N97791   8.272  12.279   5.496  0.1009 -0.0147  0.0926
  725MOL0     C97792   7.479  11.533   4.834 -0.0744 -0.2601  0.3804
  725MOL0     C97793   7.366  11.468   4.867  0.6624 -0.5719 -0.1684
  725MOL0     C97794   7.010  11.267   5.023  0.3529 -0.2449 -0.0414
  725MOL0     C97795   7.041  11.223   5.156  0.3559  0.2635  0.2411
  725MOL0     C97796   6.949  11.157   5.239 -0.0984 -0.0947 -0.3263
  725MOL0     C97797   6.825  11.128   5.194  0.8693 -0.3286  0.2666
  725MOL0     O97798   6.749  11.044   5.269  0.1922  0.1471  0.3180
  725MOL0     C97799   6.631  10.979   5.218  0.1104 -0.1530 -0.5759
  725MOL0     C97800   6.515  10.972   5.313 -0.4365 -0.0901  0.1036
  725MOL0     C97801   6.449  11.106   5.340  0.0329 -1.9346  0.2094
  725MOL0     C97802   6.338  11.135   5.235  0.3240  0.0310  0.4097
  725MOL0     C97803   6.374  11.182   5.101 -0.3421  0.0642  0.1051
  725MOL0     C97804   6.399  11.217   4.991  0.3006  0.5701 -0.3836
  725MOL0     C97805   6.787  11.184   5.077  0.2042  0.0803  0.9471
  725MOL0     C97806   6.880  11.251   4.982  0.7369  0.0943  0.6916
  725MOL0     C97807   6.830  11.302   4.849  0.6382 -0.5636 -0.1383
  725MOL0     H97808   7.250  11.671   5.116  1.3106  2.0240  1.6508
  725MOL0     H97809   7.449  11.810   5.027  1.2097  0.1288 -2.6301
  725MOL0     H97810   7.763  11.584   4.924 -3.0214  1.9368  1.3981
  725MOL0     H97811   7.723  11.594   4.749 -0.7798 -2.9078  0.7368
  725MOL0     H97812   7.847  11.831   4.749 -0.6690 -0.3473  0.8701
  725MOL0     H97813   7.945  11.679   4.762  1.6850  3.5608 -1.9354
  725MOL0     H97814   8.026  11.845   4.909  0.0546 -1.4778 -0.6787
  725MOL0     H97815   7.980  11.702   4.998  1.2397  1.7403  3.6649
  725MOL0     H97816   7.814  11.953   4.990 -1.0089 -1.0308 -2.1553
  725MOL0     H97817   7.768  11.805   5.071 -1.5741  2.7471  1.4561
  725MOL0     H97818   7.862  11.907   5.255  0.1290  0.6601  1.1521
  725MOL0     H97819   8.001  11.812   5.192  1.1409  0.6588 -0.0356
  725MOL0     H97820   8.071  12.013   5.080  0.6328  1.6636  0.1057
  725MOL0     H97821   7.939  12.113   5.139  0.2795 -0.5684 -2.1224
  725MOL0     H97822   8.185  12.036   5.289  1.0083  3.0167 -3.9435
  725MOL0     H97823   8.036  12.023   5.386  0.2773  1.0374  0.6900
  725MOL0     H97824   8.156  12.267   5.257  1.6348 -0.5081  0.1497
  725MOL0     H97825   7.986  12.266   5.327 -1.8949 -5.1590 -1.4279
  725MOL0     H97826   7.971  12.227   5.596  1.0572 -0.6531  1.5700
  725MOL0     H97827   8.125  12.186   5.851  0.8953 -0.4444 -1.7805
  725MOL0     H97828   8.240  12.313   5.883 -0.8011 -0.2665  2.4978
  725MOL0     H97829   7.963  12.390   5.792 -0.2096  0.1796 -0.4161
  725MOL0     H97830   7.988  12.328   5.953  2.3883 -3.6707 -0.7613
  725MOL0     H97831   8.108  12.585   5.832  0.3102  0.9708  0.3741
  725MOL0     H97832   8.174  12.511   5.976  0.8567  0.7844 -1.6274
  725MOL0     H97833   8.049  12.680   6.027  0.8466 -0.0988 -1.1698
  725MOL0     H97834   7.955  12.531   6.086  0.9140 -2.7857 -1.3439
  725MOL0     H97835   7.909  12.895   5.917  0.4711 -4.1007 -1.9600
  725MOL0     H97836   7.770  13.047   6.037  4.6609 -0.5922 -0.9355
  725MOL0     H97837   7.167  13.026   6.128 -1.6336 -0.4641  0.9773
  725MOL0     H97838   6.992  13.074   6.283 -1.7052 -1.9421  0.9783
  725MOL0     H97839   6.865  13.203   6.473  2.1926 -1.2203 -2.6017
  725MOL0     H97840   6.881  13.022   6.483  2.7230  0.9264 -3.7263
  725MOL0     H97841   6.742  13.051   6.657 -0.7191  1.2713 -4.1870
  725MOL0     H97842   6.885  13.095   6.752  0.2855 -2.8336 -1.6273
  725MOL0     H97843   6.716  13.296   6.620 -0.6490 -2.7487  0.0842
  725MOL0     H97844   6.736  13.270   6.792 -1.2982 -4.0133 -0.6814
  725MOL0     H97845   6.952  13.381   6.600  4.0738 -0.7513  1.9731
  725MOL0     H97846   6.988  13.322   6.763 -1.0403 -0.0920 -0.4085
  725MOL0     H97847   6.828  13.473   6.867 -0.9427 -3.2545 -0.3804
  725MOL0     H97848   6.768  13.531   6.715  1.1330 -0.5302 -3.8617
  725MOL0     H97849   7.061  13.555   6.788 -1.3267 -3.4481  0.0994
  725MOL0     H97850   6.966  13.653   6.663  1.3427  0.5084  0.5757
  725MOL0     H97851   7.028  13.794   6.869 -0.3880  1.6378 -1.7019
  725MOL0     H97852   6.926  13.681   6.952  0.0419 -1.7467 -0.8302
  725MOL0     H97853   6.857  13.874   6.739  0.6574  0.5890  1.1807
  725MOL0     H97854   6.741  13.742   6.795  1.1137 -0.8421 -2.4894
  725MOL0     H97855   7.291  13.067   6.602  3.2361  0.2846 -1.2152
  725MOL0     H97856   7.447  12.980   6.457  1.2239  1.0230 -1.9538
  725MOL0     H97857   7.517  12.726   6.181 -0.3727  0.1549 -0.3607
  725MOL0     H97858   7.679  12.573   6.079  2.1563 -0.8413  0.8353
  725MOL0     H97859   7.536  11.490   4.752  0.3475  1.7417 -0.4471
  725MOL0     H97860   7.345  11.381   4.806  0.3803  0.6873 -1.9187
  725MOL0     H97861   7.134  11.260   5.198  1.5409 -1.2289 -0.9341
  725MOL0     H97862   6.972  11.118   5.337 -1.7004  1.1555  0.6036
  725MOL0     H97863   6.661  10.875   5.211 -2.1300 -1.0360  1.3735
  725MOL0     H97864   6.604  11.032   5.126  2.0087 -0.6876 -1.4926
  725MOL0     H97865   6.555  10.934   5.407 -1.3946 -2.0717 -0.2358
  725MOL0     H97866   6.447  10.896   5.273 -0.7124 -1.2442  2.6089
  725MOL0     H97867   6.517  11.189   5.362  0.9973 -2.8400  0.7022
  725MOL0     H97868   6.397  11.096   5.435  0.3322 -1.1249  0.4616
  725MOL0     H97869   6.276  11.048   5.214  2.0259 -0.7001 -1.9457
  725MOL0     H97870   6.259  11.196   5.280  0.8634  0.0950  1.3216
  725MOL0     H97871   6.428  11.267   4.900 -1.3172  1.3716 -0.4946
  725MOL0     H97872   6.687  11.173   5.038  0.7858  1.0690 -1.0197
  725MOL0     H97873   6.838  11.215   4.782 -0.8276 -1.5329  0.8906
  725MOL0     H97874   6.725  11.330   4.842  1.2872  2.1034 -0.1136
  725MOL0     H97875   6.879  11.393   4.814  0.4935  0.2173  1.5909
  726MOL0     O97876   8.683   5.422   4.291 -0.6334  0.2321  0.0317
  726MOL0     C97877   8.637   5.473   4.395 -0.0932 -0.6143 -0.7807
  726MOL0     O97878   8.512   5.546   4.406 -0.3026 -0.5545 -0.2290
  726MOL0     C97879   8.421   5.557   4.310 -0.3054  0.0994 -0.7252
  726MOL0     C97880   8.317   5.641   4.358 -0.3996  1.0225 -0.1641
  726MOL0     C97881   8.211   5.666   4.274 -0.2260 -0.0162  0.2500
  726MOL0     C97882   8.212   5.614   4.141  0.6622  0.6733 -0.5106
  726MOL0     O97883   8.105   5.642   4.060 -0.0245  0.2166 -0.0402
  726MOL0     C97884   8.138   5.706   3.939 -0.8985 -0.5107 -0.1720
  726MOL0     C97885   8.026   5.765   3.843 -0.6499 -0.6520  0.0786
  726MOL0     C97886   7.916   5.666   3.809 -0.1691  0.3910 -0.3569
  726MOL0     C97887   7.828   5.719   3.697 -1.0291  0.6361 -0.1088
  726MOL0     C97888   7.727   5.607   3.656 -0.1655 -0.6352  0.2692
  726MOL0     C97889   7.625   5.650   3.551 -1.4671  0.2133 -1.0846
  726MOL0     C97890   7.525   5.539   3.525 -0.4666 -0.1363 -0.0158
  726MOL0     C97891   7.441   5.567   3.404 -0.0428  0.1719  0.7545
  726MOL0     N97892   7.332   5.476   3.386 -0.6372 -0.3427 -0.2011
  726MOL0     C97893   7.215   5.512   3.321 -0.1139  0.1241 -0.3126
  726MOL0     C97894   7.147   5.388   3.311  0.4347  0.7596 -0.2005
  726MOL0     C97895   7.022   5.361   3.236  0.3637 -0.4142  0.2688
  726MOL0     C97896   7.010   5.418   3.088  0.1772 -0.1580 -0.6681
  726MOL0     C97897   7.110   5.372   2.985  0.0450  0.3380  1.0924
  726MOL0     C97898   7.081   5.225   2.953 -0.4393 -0.0456  0.1029
  726MOL0     O97899   7.164   5.191   2.839  0.1521 -0.3560  0.4135
  726MOL0     C97900   7.255   5.099   2.877  0.0652  0.0015  0.5708
  726MOL0     C97901   7.229   4.970   2.915 -0.7262  0.8625  0.2771
  726MOL0     C97902   7.332   4.885   2.948 -0.5232  0.2111  0.9731
  726MOL0     C97903   7.467   4.936   2.952 -0.0740  0.6456  0.6712
  726MOL0     C97904   7.573   4.836   2.980 -0.6939 -0.0747  0.6942
  726MOL0     O97905   7.700   4.886   2.985 -0.5587  0.1446 -0.1554
  726MOL0     C97906   7.815   4.823   2.989  0.0995  0.2549 -1.8768
  726MOL0     C97907   7.923   4.907   3.021 -1.0214  0.5804  0.7709
  726MOL0     C97908   8.053   4.850   3.037 -0.6436  0.9498 -0.6624
  726MOL0     C97909   8.068   4.712   3.014 -0.0256 -0.3191  0.7789
  726MOL0     O97910   8.183   4.648   3.025 -0.3120  0.0701  0.1887
  726MOL0     C97911   8.193   4.550   3.136  0.4177  0.2544 -0.4851
  726MOL0     C97912   8.223   4.626   3.275  0.3948  0.1943  0.0679
  726MOL0     C97913   8.332   4.733   3.272  0.4392  0.0860 -0.3485
  726MOL0     C97914   8.461   4.714   3.193  0.4283 -0.4774 -0.1090
  726MOL0     C97915   8.564   4.836   3.198  0.3703 -0.2637  0.4022
  726MOL0     C97916   8.592   4.895   3.340  0.2007 -0.5258  0.1224
  726MOL0     C97917   8.650   5.040   3.335  0.2145 -0.1965 -0.9125
  726MOL0     C97918   8.797   5.046   3.295 -0.0171 -0.4145 -0.3155
  726MOL0    Cl97919   8.830   5.070   3.110  0.1209 -0.1010  0.0630
  726MOL0     C97920   7.964   4.632   2.964 -0.0983 -0.4385 -0.0840
  726MOL0     C97921   7.838   4.685   2.962  0.0122 -0.0657 -0.3356
  726MOL0     O97922   7.548   4.717   2.998 -0.1941  0.0053 -0.0943
  726MOL0     C97923   7.494   5.071   2.921  0.4163  0.3187  0.3258
  726MOL0     C97924   7.384   5.143   2.870  0.3174  0.3651  0.0478
  726MOL0     N97925   7.225   5.296   3.374  0.1627 -0.4552 -0.7041
  726MOL0     N97926   7.335   5.346   3.416 -0.0552 -0.2572  0.9525
  726MOL0     C97927   8.319   5.536   4.094  0.4614  0.5998  0.3360
  726MOL0     C97928   8.427   5.507   4.182  0.2973  0.6107  0.7918
  726MOL0     C97929   8.724   5.486   4.520  0.1732  0.5749  0.1418
  726MOL0     C97930   8.690   5.573   4.617  0.1340 -0.1368 -0.0140
  726MOL0     C97931   8.760   5.593   4.734  0.0097  0.4927  0.6040
  726MOL0     C97932   8.869   5.516   4.759 -0.3722  0.4504  0.5350
  726MOL0     O97933   8.945   5.499   4.876 -0.3260  0.6574  0.7570
  726MOL0     C97934   8.897   5.554   4.997  0.1948  0.2216 -0.0011
  726MOL0     C97935   8.835   5.441   5.086 -0.5565  0.2423 -0.4112
  726MOL0     C97936   8.905   5.297   5.086 -0.1963 -0.3684 -0.0785
  726MOL0     C97937   9.013   5.294   5.190 -0.7058  0.6073 -0.2908
  726MOL0     C97938   9.082   5.168   5.200 -0.0128  0.1364  0.5018
  726MOL0     C97939   9.145   5.060   5.213  0.7027 -0.0522  1.2990
  726MOL0     C97940   8.909   5.427   4.662 -0.5193 -0.1348  0.2763
  726MOL0     C97941   8.840   5.412   4.541 -1.0737  0.4498 -0.4462
  726MOL0     C97942   8.894   5.311   4.441  0.1370  0.6015  0.0394
  726MOL0     H97943   8.325   5.690   4.455 -0.6411 -2.0012  1.5160
  726MOL0     H97944   8.143   5.736   4.321  0.4472 -0.2558  1.6380
  726MOL0     H97945   8.198   5.796   3.956 -0.5886 -0.7220 -0.1372
  726MOL0     H97946   8.205   5.646   3.877 -1.2273  3.2766 -4.7146
  726MOL0     H97947   8.078   5.795   3.752 -0.2815 -0.0376  0.4804
  726MOL0     H97948   7.985   5.861   3.874 -0.4615 -0.0054 -1.5938
  726MOL0     H97949   7.857   5.634   3.896  0.9844  1.8802  1.0243
  726MOL0     H97950   7.960   5.571   3.777 -0.5344  0.1946 -0.2747
  726MOL0     H97951   7.779   5.812   3.725 -2.5575 -0.0135 -0.5408
  726MOL0     H97952   7.877   5.744   3.603 -2.6052  0.0694 -1.1214
  726MOL0     H97953   7.778   5.522   3.611 -2.9865 -1.5041 -1.5219
  726MOL0     H97954   7.681   5.556   3.741  0.4410  3.0999  3.1377
  726MOL0     H97955   7.586   5.749   3.577 -2.6262  0.7989 -4.4660
  726MOL0     H97956   7.699   5.660   3.471  2.2544 -1.2679  1.8460
  726MOL0     H97957   7.466   5.529   3.617  0.5593 -4.0685  0.4356
  726MOL0     H97958   7.574   5.442   3.508 -1.4991 -0.5386 -0.7931
  726MOL0     H97959   7.393   5.664   3.416 -0.7523  0.1772 -1.7316
  726MOL0     H97960   7.497   5.569   3.311 -1.9751  2.8618 -0.4597
  726MOL0     H97961   7.182   5.609   3.285  1.9375  1.6604  1.6558
  726MOL0     H97962   6.989   5.257   3.223  0.9182 -0.3321 -2.4335
  726MOL0     H97963   6.940   5.395   3.300  1.0455 -0.0764  0.9803
  726MOL0     H97964   6.905   5.415   3.058  0.3545  3.4698 -2.1860
  726MOL0     H97965   7.029   5.524   3.108  0.0845 -0.4322  1.0120
  726MOL0     H97966   7.212   5.376   3.024 -0.3737  0.5285  2.2142
  726MOL0     H97967   7.101   5.437   2.898 -1.0532  0.0748  0.9947
  726MOL0     H97968   6.972   5.215   2.953 -0.3365 -1.3845 -1.1675
  726MOL0     H97969   7.115   5.156   3.031 -0.7668 -1.6938 -1.1597
  726MOL0     H97970   7.129   4.931   2.930 -0.5641 -0.5165 -1.9112
  726MOL0     H97971   7.318   4.783   2.982  1.2881 -1.1296 -1.9053
  726MOL0     H97972   7.904   5.014   3.019 -1.2052  0.5370 -1.1679
  726MOL0     H97973   8.135   4.905   3.081 -0.5468  1.1394 -1.0804
  726MOL0     H97974   8.109   4.480   3.141  1.7037 -1.4169 -1.3215
  726MOL0     H97975   8.273   4.479   3.114 -0.7783 -1.4380  0.3883
  726MOL0     H97976   8.128   4.671   3.303 -0.2049  1.1967 -3.1091
  726MOL0     H97977   8.253   4.548   3.345 -1.4236 -1.5340 -0.9547
  726MOL0     H97978   8.294   4.829   3.236 -1.9660 -0.7400 -0.1562
  726MOL0     H97979   8.361   4.749   3.376 -0.0964 -0.4122 -0.1168
  726MOL0     H97980   8.440   4.693   3.088 -0.8801  2.1769 -0.4603
  726MOL0     H97981   8.514   4.625   3.225  2.2466 -0.0992 -1.8777
  726MOL0     H97982   8.513   4.912   3.138 -2.1320 -2.5374 -0.5494
  726MOL0     H97983   8.658   4.799   3.155  1.0984 -0.1959  1.8633
  726MOL0     H97984   8.497   4.900   3.392 -1.2844 -2.3740 -2.2088
  726MOL0     H97985   8.656   4.829   3.400 -0.4665 -0.0835  1.3593
  726MOL0     H97986   8.639   5.080   3.436 -3.0506  0.4576 -1.4168
  726MOL0     H97987   8.585   5.105   3.276 -3.1993 -0.9383  1.7177
  726MOL0     H97988   8.846   5.130   3.345 -1.2642  1.1667 -1.6303
  726MOL0     H97989   8.845   4.960   3.342 -0.3855 -0.2576  0.3536
  726MOL0     H97990   7.979   4.535   2.919  0.6593 -1.5395  2.3708
  726MOL0     H97991   7.756   4.617   2.939  1.7224 -3.3849  2.5527
  726MOL0     H97992   7.593   5.114   2.915  0.7913 -0.6644 -1.6036
  726MOL0     H97993   7.409   5.241   2.831 -2.9560  0.0716 -3.3570
  726MOL0     H97994   8.312   5.502   3.991  0.3086 -1.3831  0.9787
  726MOL0     H97995   8.514   5.453   4.146 -1.4568 -0.8475 -1.5237
  726MOL0     H97996   8.601   5.635   4.619  0.5363  0.5489 -1.6227
  726MOL0     H97997   8.718   5.666   4.803  0.2692  0.2747  0.9999
  726MOL0     H97998   8.830   5.638   4.978  2.5389  1.4986 -3.4330
  726MOL0     H97999   8.981   5.599   5.051  0.3541  0.7716 -0.7009
  726MOL0     H98000   8.738   5.427   5.039 -0.0491  1.6754 -1.9830
  726MOL0     H98001   8.809   5.472   5.188 -0.4903 -1.8610  0.3043
  726MOL0     H98002   8.946   5.263   4.990  4.7510 -0.5660  1.7853
  726MOL0     H98003   8.833   5.222   5.119 -1.1621  0.3552 -0.5110
  726MOL0     H98004   9.088   5.372   5.175 -2.5733  2.6480  0.4292
  726MOL0     H98005   8.982   5.293   5.295  2.0673  0.4204  0.5936
  726MOL0     H98006   9.187   4.962   5.199 -0.5035 -0.5291  0.8579
  726MOL0     H98007   8.999   5.368   4.677 -0.8483 -0.7556 -0.1447
  726MOL0     H98008   8.944   5.350   4.352 -0.1786 -0.7476 -0.7660
  726MOL0     H98009   8.966   5.242   4.486 -1.9296 -2.9759 -1.6723
  726MOL0     H98010   8.810   5.250   4.405 -2.8083  2.6731  2.8457
  727MOL0     O98011   9.453   5.224   3.715 -0.8879  0.8632  0.3758
  727MOL0     C98012   9.458   5.324   3.783  0.0675 -0.0304  0.3206
  727MOL0     O98013   9.565   5.372   3.856  0.2344 -0.6008  0.5289
  727MOL0     C98014   9.698   5.353   3.816 -1.1518  0.3104 -0.5794
  727MOL0     C98015   9.789   5.337   3.912 -0.5394 -0.5110 -0.2642
  727MOL0     C98016   9.921   5.314   3.884 -0.5422  0.9283  0.2824
  727MOL0     C98017   9.970   5.286   3.755 -1.1567 -0.3321 -0.5903
  727MOL0     O98018  10.090   5.220   3.739  0.3423 -0.1034 -0.0078
  727MOL0     C98019  10.203   5.313   3.739 -0.3649 -0.4132  0.2258
  727MOL0     C98020  10.326   5.236   3.709 -1.4733  0.5187 -0.1005
  727MOL0     C98021  10.393   5.179   3.826  0.1891 -0.2151 -0.3611
  727MOL0     C98022  10.509   5.087   3.782 -0.3108  2.1352 -0.5544
  727MOL0     C98023  10.630   5.066   3.871  0.4421  1.2694 -0.3656
  727MOL0     C98024  10.727   4.961   3.824  0.2873 -0.6843  0.3782
  727MOL0     C98025  10.850   4.974   3.898  0.4798  0.3078  0.0307
  727MOL0     C98026  10.944   4.868   3.841  0.1569 -0.1318  0.0682
  727MOL0     N98027  11.071   4.860   3.922  0.2140 -0.0147  0.7523
  727MOL0     C98028  11.173   4.948   3.900  0.0395  0.4554 -0.0653
  727MOL0     C98029  11.268   4.900   3.977 -0.0184 -0.8601 -0.0605
  727MOL0     C98030  11.398   4.976   3.980 -0.4508 -0.1952 -0.2804
  727MOL0     C98031  11.522   4.897   4.033  0.0303  0.3705 -0.2268
  727MOL0     C98032  11.545   4.770   3.947  0.7796  0.3461  0.1523
  727MOL0     C98033  11.693   4.736   3.958 -0.2862  0.1802 -0.0443
  727MOL0     O98034  11.766   4.849   3.914  0.3552  0.7716 -0.5664
  727MOL0     C98035  11.901   4.854   3.899 -1.1230 -0.2694 -0.7964
  727MOL0     C98036  11.960   4.959   3.825 -0.3296  0.3581 -0.2192
  727MOL0     C98037  12.100   4.970   3.820  0.1278  0.9662  0.2064
  727MOL0     C98038  12.184   4.869   3.870 -0.0886 -0.3893 -0.9882
  727MOL0     C98039  12.325   4.863   3.841  0.1496 -0.8132 -0.1105
  727MOL0     O98040  12.373   4.952   3.749  0.7398  0.0797  0.2386
  727MOL0     C98041  12.504   4.955   3.708 -0.2973  0.3158  0.1011
  727MOL0     C98042  12.572   5.076   3.685 -0.0981 -0.3588  0.7308
  727MOL0     C98043  12.703   5.074   3.632 -0.8477 -0.6522  0.6546
  727MOL0     C98044  12.774   4.958   3.615  0.4598 -0.9332 -0.3047
  727MOL0     O98045  12.905   4.958   3.575  0.2120  0.0136  0.3973
  727MOL0     C98046  12.924   4.972   3.436  0.4905 -0.3094  0.3093
  727MOL0     C98047  13.068   4.945   3.394  0.2506 -0.3144 -0.8201
  727MOL0     C98048  13.164   5.064   3.415 -0.1143 -0.3284 -0.5985
  727MOL0     C98049  13.164   5.165   3.293  1.6001 -0.2384  0.9833
  727MOL0     C98050  13.243   5.289   3.319 -0.7605  0.3704 -0.2522
  727MOL0     C98051  13.395   5.251   3.324  0.0997  0.2557 -0.1278
  727MOL0     C98052  13.491   5.370   3.309  0.0312 -0.5648  0.0232
  727MOL0     C98053  13.479   5.433   3.167  0.8349 -0.2838 -0.9018
  727MOL0    Cl98054  13.619   5.547   3.150 -0.1265  0.0296  0.2544
  727MOL0     C98055  12.713   4.841   3.635 -0.3578 -0.0828  0.3579
  727MOL0     C98056  12.577   4.835   3.676  0.2598  0.0362 -0.4544
  727MOL0     O98057  12.395   4.784   3.909  0.1228  0.0443  0.7231
  727MOL0     C98058  12.120   4.761   3.934  0.1374 -0.0567 -1.0480
  727MOL0     C98059  11.985   4.754   3.955  0.8738  0.2801 -0.8626
  727MOL0     N98060  11.228   4.786   4.038 -0.4455 -0.5887  0.0219
  727MOL0     N98061  11.104   4.757   3.989 -0.3847  0.6352 -1.1496
  727MOL0     C98062   9.874   5.294   3.653 -0.1710 -0.7645 -0.5081
  727MOL0     C98063   9.744   5.331   3.686  0.5500 -0.4870 -0.0450
  727MOL0     C98064   9.327   5.389   3.815 -0.1352  0.5641 -0.0867
  727MOL0     C98065   9.223   5.296   3.857 -0.7300  1.2042 -0.5601
  727MOL0     C98066   9.086   5.334   3.870 -0.6689  0.8535  0.1601
  727MOL0     C98067   9.059   5.466   3.849 -0.5895 -0.3129 -0.0758
  727MOL0     O98068   8.940   5.534   3.867  0.4319 -0.5109 -1.4439
  727MOL0     C98069   8.821   5.472   3.930  0.0244  1.1208  0.0325
  727MOL0     C98070   8.700   5.444   3.838 -0.1090 -0.1073  0.8218
  727MOL0     C98071   8.745   5.383   3.709 -0.8046 -0.7736  0.5753
  727MOL0     C98072   8.638   5.330   3.616 -0.3249 -0.4061  0.2990
  727MOL0     C98073   8.582   5.212   3.681 -0.3557  0.0349 -0.1419
  727MOL0     C98074   8.545   5.109   3.729  0.1212 -0.2165  0.3847
  727MOL0     C98075   9.164   5.560   3.833 -0.2899 -0.1663 -0.2135
  727MOL0     C98076   9.300   5.520   3.813  0.4069  0.0931 -0.2486
  727MOL0     C98077   9.408   5.629   3.792 -0.6198  0.4418  0.2551
  727MOL0     H98078   9.758   5.348   4.015 -0.9694 -0.3374 -0.4129
  727MOL0     H98079   9.990   5.291   3.964  0.1915 -5.5971 -1.6313
  727MOL0     H98080  10.188   5.378   3.653  1.0516 -0.5459 -0.1493
  727MOL0     H98081  10.201   5.376   3.828  0.4933 -2.2512  1.6110
  727MOL0     H98082  10.398   5.303   3.661  1.2284 -0.9228  1.6886
  727MOL0     H98083  10.305   5.156   3.638  2.0599 -2.3049  1.7070
  727MOL0     H98084  10.332   5.109   3.883  0.2375  0.9187  1.1343
  727MOL0     H98085  10.424   5.252   3.902  0.2429 -1.2307  0.6130
  727MOL0     H98086  10.464   4.989   3.767  0.5471  1.6298  0.0796
  727MOL0     H98087  10.562   5.111   3.689  0.2726 -0.5538 -0.9949
  727MOL0     H98088  10.675   5.165   3.876 -1.5677  2.1719  1.3888
  727MOL0     H98089  10.603   5.029   3.971 -2.2575 -0.1600 -1.5109
  727MOL0     H98090  10.678   4.863   3.829 -3.0448  0.8074 -0.1628
  727MOL0     H98091  10.739   4.984   3.718 -0.1766  1.7121  0.7944
  727MOL0     H98092  10.841   4.947   4.004  0.9723  0.1849  0.0463
  727MOL0     H98093  10.887   5.077   3.894 -0.2689  1.0341  5.2742
  727MOL0     H98094  10.898   4.770   3.855 -3.9918  1.5915 -0.1478
  727MOL0     H98095  10.947   4.880   3.732 -3.5057 -0.0910 -0.1597
  727MOL0     H98096  11.180   5.033   3.832  1.6690  0.4935  0.1050
  727MOL0     H98097  11.427   5.012   3.881 -0.1749  1.1885  0.2789
  727MOL0     H98098  11.401   5.069   4.037  0.2498  0.2428 -1.0129
  727MOL0     H98099  11.602   4.970   4.023 -1.0577  1.6868  0.3647
  727MOL0     H98100  11.514   4.880   4.141  1.5782 -1.0090 -0.2948
  727MOL0     H98101  11.510   4.787   3.845 -1.0960  1.2561  0.9158
  727MOL0     H98102  11.483   4.687   3.983  5.0838 -0.8849  6.2551
  727MOL0     H98103  11.720   4.646   3.902  1.0497 -0.2216  1.1921
  727MOL0     H98104  11.718   4.719   4.063  0.8561  0.2431 -0.2960
  727MOL0     H98105  11.898   5.038   3.784 -2.6480 -0.7113  0.9894
  727MOL0     H98106  12.148   5.054   3.770 -0.5069  0.1166 -1.9506
  727MOL0     H98107  12.513   5.166   3.698 -2.4908 -1.8369  0.7143
  727MOL0     H98108  12.752   5.166   3.602 -1.8712  0.1993  1.5321
  727MOL0     H98109  12.853   4.914   3.377 -0.5358  1.5736 -0.4110
  727MOL0     H98110  12.904   5.075   3.403  1.6442 -0.4973 -1.0989
  727MOL0     H98111  13.098   4.856   3.450  3.4542  0.8778 -0.4051
  727MOL0     H98112  13.052   4.923   3.288 -2.2792  0.3129 -0.6182
  727MOL0     H98113  13.140   5.115   3.508  2.1143  0.8718 -0.5971
  727MOL0     H98114  13.267   5.029   3.430 -0.0160 -0.0245 -0.5682
  727MOL0     H98115  13.058   5.193   3.292  1.3976 -1.0097  0.8052
  727MOL0     H98116  13.203   5.132   3.197  0.7264  2.4521 -0.4071
  727MOL0     H98117  13.218   5.327   3.418 -2.9060  1.0276 -0.9941
  727MOL0     H98118  13.220   5.374   3.254 -0.6329 -1.2316 -2.4911
  727MOL0     H98119  13.419   5.189   3.411  3.8835  2.8550  0.9404
  727MOL0     H98120  13.414   5.190   3.235  2.1923  1.9221 -0.9062
  727MOL0     H98121  13.594   5.331   3.316  0.9897  1.0186 -3.0575
  727MOL0     H98122  13.472   5.447   3.383 -3.3016  0.7665 -1.9903
  727MOL0     H98123  13.477   5.346   3.100 -0.6503 -1.9248  1.1537
  727MOL0     H98124  13.392   5.499   3.161  1.0504  0.3835  1.9651
  727MOL0     H98125  12.760   4.749   3.601  0.0574  0.6879 -1.2570
  727MOL0     H98126  12.521   4.745   3.698 -0.1316  0.4826  0.4453
  727MOL0     H98127  12.188   4.689   3.978 -0.8749  0.0892  0.8230
  727MOL0     H98128  11.944   4.665   4.002  0.3332 -0.7281 -3.0824
  727MOL0     H98129   9.904   5.261   3.554  0.3589 -1.0873 -0.2394
  727MOL0     H98130   9.674   5.328   3.603 -0.8629 -1.0626  1.1228
  727MOL0     H98131   9.260   5.194   3.857 -1.5610  0.8411 -2.9106
  727MOL0     H98132   9.003   5.273   3.901  1.0618 -2.3117 -0.9782
  727MOL0     H98133   8.786   5.537   4.010  3.0605  0.8843  1.7195
  727MOL0     H98134   8.843   5.369   3.960 -2.9853 -0.3615 -2.3074
  727MOL0     H98135   8.641   5.533   3.816 -1.6023 -1.3270 -0.3208
  727MOL0     H98136   8.631   5.379   3.893  2.5981 -0.3963  4.2305
  727MOL0     H98137   8.810   5.296   3.723  1.0478  0.4672  0.0792
  727MOL0     H98138   8.807   5.454   3.654  2.6872 -1.9856  2.5676
  727MOL0     H98139   8.561   5.404   3.593 -1.0434 -0.4590  2.3496
  727MOL0     H98140   8.691   5.295   3.527 -0.5649  0.1816 -0.0730
  727MOL0     H98141   8.502   5.020   3.770 -2.3561  1.3196  1.3574
  727MOL0     H98142   9.140   5.665   3.843  0.2766  0.0773 -1.1862
  727MOL0     H98143   9.461   5.609   3.699 -0.1163  1.1119  0.3868
  727MOL0     H98144   9.371   5.731   3.779  1.5970  1.1241 -1.2818
  727MOL0     H98145   9.481   5.636   3.873 -1.8386  0.9069  1.3530
  728MOL0     O98146   9.325   6.132   2.262  0.5123 -0.1963 -0.1975
  728MOL0     C98147   9.263   6.026   2.246 -0.3447 -0.4500 -0.4259
  728MOL0     O98148   9.170   5.967   2.326 -0.3986  0.2757 -1.2992
  728MOL0     C98149   9.171   6.024   2.447  0.0839  0.8493 -0.3365
  728MOL0     C98150   9.272   5.981   2.532 -0.3279  0.3114  0.6927
  728MOL0     C98151   9.283   6.031   2.657 -0.1149 -0.2323  0.4302
  728MOL0     C98152   9.191   6.127   2.709 -0.2062 -0.0386  0.0580
  728MOL0     O98153   9.199   6.153   2.842 -0.1906 -0.9547  0.0606
  728MOL0     C98154   9.081   6.216   2.888 -0.2866  0.2176  1.2212
  728MOL0     C98155   9.071   6.233   3.037  0.0251 -0.1003 -0.0953
  728MOL0     C98156   9.197   6.303   3.093  0.6671 -0.3110  0.4989
  728MOL0     C98157   9.146   6.429   3.161 -0.4136 -0.2345 -1.1670
  728MOL0     C98158   9.252   6.485   3.253  0.2648 -0.1556  0.0495
  728MOL0     C98159   9.222   6.605   3.331  0.1461 -0.1105  1.4531
  728MOL0     C98160   9.335   6.631   3.432  0.5396  1.7782 -0.3280
  728MOL0     C98161   9.299   6.753   3.511  0.5652  0.2932 -0.0834
  728MOL0     N98162   9.416   6.778   3.603  0.0454 -0.2254 -0.3055
  728MOL0     C98163   9.537   6.822   3.556  0.3231  0.2465 -0.9601
  728MOL0     C98164   9.613   6.806   3.669  0.8945  0.1668  1.0324
  728MOL0     C98165   9.755   6.853   3.670 -0.3987 -0.1832  0.1827
  728MOL0     C98166   9.856   6.738   3.660  0.4789  0.4111 -0.6742
  728MOL0     C98167   9.988   6.784   3.600 -0.4594  0.8430  0.0359
  728MOL0     C98168  10.076   6.656   3.575  0.0169 -0.8755 -0.5198
  728MOL0     O98169  10.186   6.677   3.491 -0.3758  0.3694  0.1009
  728MOL0     C98170  10.304   6.730   3.527 -0.0697 -0.9689  0.1097
  728MOL0     C98171  10.362   6.723   3.655 -0.2602 -0.2413 -0.5694
  728MOL0     C98172  10.488   6.760   3.679 -1.1503 -0.6979  0.9884
  728MOL0     C98173  10.563   6.832   3.585  0.2430  0.1216  0.0405
  728MOL0     C98174  10.706   6.866   3.608  0.6270  0.6020 -0.1994
  728MOL0     O98175  10.775   6.923   3.508  0.4727 -0.7087 -0.4889
  728MOL0     C98176  10.912   6.927   3.519 -0.0646  0.8107  0.5382
  728MOL0     C98177  10.971   7.029   3.445  0.3502 -0.3733 -0.9518
  728MOL0     C98178  11.111   7.047   3.453 -0.4849 -0.0725  0.3668
  728MOL0     C98179  11.205   6.966   3.530 -0.0587  0.1429  0.2634
  728MOL0     O98180  11.339   6.997   3.529  1.1720 -0.3332 -0.2070
  728MOL0     C98181  11.383   7.136   3.559  0.7750  0.0171  0.0282
  728MOL0     C98182  11.528   7.150   3.501  0.3217  0.3916  0.5517
  728MOL0     C98183  11.587   7.276   3.545  0.3621  0.6978 -0.0585
  728MOL0     C98184  11.732   7.314   3.526  0.1142 -0.1798 -0.0398
  728MOL0     C98185  11.771   7.338   3.373 -0.2354  0.5933  0.4865
  728MOL0     C98186  11.930   7.375   3.353 -0.4745  0.1393 -0.0610
  728MOL0     C98187  12.026   7.261   3.410  0.0648 -0.3588  0.3625
  728MOL0     C98188  12.174   7.301   3.392  0.5300  0.4346 -0.5264
  728MOL0    Cl98189  12.213   7.320   3.212 -0.0700 -0.1961  0.0615
  728MOL0     C98190  11.147   6.858   3.593 -0.5351  0.8862 -0.2166
  728MOL0     C98191  11.006   6.844   3.595  0.4767 -0.8315  0.6187
  728MOL0     O98192  10.757   6.810   3.714  0.2387  0.2969  0.6946
  728MOL0     C98193  10.506   6.843   3.465  1.1551  0.2926  0.3054
  728MOL0     C98194  10.375   6.804   3.432  0.1911 -0.1950 -0.1612
  728MOL0     N98195   9.543   6.763   3.769 -0.7970 -0.1278  0.0931
  728MOL0     N98196   9.427   6.736   3.735  0.6118 -0.0324  0.2714
  728MOL0     C98197   9.081   6.155   2.619 -0.3842 -0.3848 -0.5287
  728MOL0     C98198   9.072   6.111   2.493 -0.6113  0.2852 -0.3026
  728MOL0     C98199   9.278   5.960   2.108  0.6929  0.7340  0.1887
  728MOL0     C98200   9.280   5.817   2.122 -0.0916  0.6507  0.2721
  728MOL0     C98201   9.300   5.737   2.001  0.3904  1.2365  0.0592
  728MOL0     C98202   9.319   5.808   1.879 -0.0825  0.4201 -0.4184
  728MOL0     O98203   9.335   5.750   1.756 -0.6208  0.5047 -0.1087
  728MOL0     C98204   9.461   5.679   1.737  0.5408  0.2153 -0.4316
  728MOL0     C98205   9.441   5.547   1.661  0.1073  1.0805  0.4261
  728MOL0     C98206   9.339   5.445   1.715 -0.4646 -0.5759  0.0199
  728MOL0     C98207   9.374   5.315   1.667  0.3648  0.0499  0.0618
  728MOL0     C98208   9.289   5.218   1.732  0.5517 -0.0532 -0.0445
  728MOL0     C98209   9.224   5.132   1.799 -0.6985 -0.5853 -0.3980
  728MOL0     C98210   9.330   5.942   1.877  0.3969 -0.4469 -0.0523
  728MOL0     C98211   9.301   6.028   1.987 -0.7681 -0.0383  0.2065
  728MOL0     C98212   9.304   6.174   1.967  0.0906 -0.5231 -0.5522
  728MOL0     H98213   9.344   5.913   2.487  0.3356  2.9341 -2.6765
  728MOL0     H98214   9.369   6.008   2.719  0.3743 -1.1253 -0.5411
  728MOL0     H98215   9.071   6.309   2.832 -0.4263 -1.7910 -2.4332
  728MOL0     H98216   8.994   6.159   2.854  0.6914 -0.5616 -0.1075
  728MOL0     H98217   9.047   6.138   3.084  0.3195  0.4290  1.1634
  728MOL0     H98218   8.983   6.296   3.054 -0.8833 -1.6175  1.0666
  728MOL0     H98219   9.280   6.319   3.024 -1.4242  0.7978 -1.9234
  728MOL0     H98220   9.240   6.249   3.178 -1.2993  0.3546  2.0174
  728MOL0     H98221   9.120   6.506   3.088 -1.5287  0.7685  0.2440
  728MOL0     H98222   9.059   6.403   3.221 -0.7998 -0.8081 -1.9546
  728MOL0     H98223   9.277   6.409   3.328 -1.5259 -0.2430  0.6050
  728MOL0     H98224   9.341   6.513   3.196  0.9736 -1.0486  0.6625
  728MOL0     H98225   9.199   6.687   3.263  3.1749 -0.3337 -0.0107
  728MOL0     H98226   9.125   6.586   3.378 -0.8027  0.5213 -0.1848
  728MOL0     H98227   9.425   6.652   3.374  0.0128  2.7521 -0.8213
  728MOL0     H98228   9.363   6.546   3.495  2.5414  3.7324  1.6406
  728MOL0     H98229   9.278   6.845   3.456  1.0351 -0.3950 -1.4647
  728MOL0     H98230   9.206   6.725   3.562  0.4163  1.3189  0.2425
  728MOL0     H98231   9.558   6.865   3.458  0.7152  1.4559 -0.3724
  728MOL0     H98232   9.789   6.935   3.606  0.3020 -0.2299  0.4825
  728MOL0     H98233   9.772   6.886   3.773  3.6460 -1.7564  0.2242
  728MOL0     H98234   9.873   6.686   3.755  3.4987  2.6266  0.1363
  728MOL0     H98235   9.803   6.675   3.587 -1.8164  1.2991  0.1192
  728MOL0     H98236  10.048   6.844   3.670  1.7300 -2.3291  1.1043
  728MOL0     H98237   9.966   6.840   3.509 -3.0337 -2.4439 -1.5936
  728MOL0     H98238  10.013   6.584   3.522 -1.0176 -1.3807  1.3029
  728MOL0     H98239  10.109   6.602   3.664  0.2525 -0.1421 -0.1506
  728MOL0     H98240  10.311   6.685   3.743 -0.3693 -0.3872 -0.6938
  728MOL0     H98241  10.535   6.737   3.774 -0.1249 -2.3238  0.1330
  728MOL0     H98242  10.927   7.095   3.371 -0.1941  0.0593 -0.2597
  728MOL0     H98243  11.162   7.121   3.392  1.2907  0.3332  2.2272
  728MOL0     H98244  11.323   7.218   3.520  1.4462  0.3490 -0.3286
  728MOL0     H98245  11.396   7.135   3.668  0.8652 -0.7860  0.0223
  728MOL0     H98246  11.600   7.079   3.541  1.7575 -0.0439 -2.4601
  728MOL0     H98247  11.527   7.136   3.392 -2.5495 -4.9049  0.9261
  728MOL0     H98248  11.527   7.362   3.512  2.0318  2.3367  0.9687
  728MOL0     H98249  11.581   7.284   3.654  0.4698  2.7716 -0.1622
  728MOL0     H98250  11.789   7.228   3.561 -0.3565 -1.3011 -1.8928
  728MOL0     H98251  11.744   7.399   3.594 -0.1160 -2.2105  2.7022
  728MOL0     H98252  11.711   7.417   3.327  1.4261  0.2507 -2.5950
  728MOL0     H98253  11.751   7.239   3.329 -0.1444  1.0991 -0.7264
  728MOL0     H98254  11.952   7.386   3.246 -1.4436 -3.0627 -0.7303
  728MOL0     H98255  11.946   7.462   3.417 -5.2346  0.5704  0.8937
  728MOL0     H98256  11.999   7.172   3.354 -2.7323 -0.2121  1.3292
  728MOL0     H98257  11.998   7.246   3.515 -3.4418  3.2092  0.1897
  728MOL0     H98258  12.192   7.396   3.443  1.1530  1.9979 -3.4502
  728MOL0     H98259  12.233   7.225   3.445 -0.9962 -1.9087 -1.9676
  728MOL0     H98260  11.209   6.794   3.656 -2.4640 -0.8623  0.0040
  728MOL0     H98261  10.984   6.757   3.655  5.5182 -0.7980  2.9410
  728MOL0     H98262  10.568   6.889   3.389  1.6240 -2.6531 -1.2347
  728MOL0     H98263  10.334   6.831   3.335 -3.6266  0.5690  1.4909
  728MOL0     H98264   9.004   6.227   2.647  1.0040  0.9173  0.1021
  728MOL0     H98265   8.991   6.138   2.425 -0.7819 -0.7509 -0.5392
  728MOL0     H98266   9.263   5.781   2.223 -2.2085  0.4698 -0.1001
  728MOL0     H98267   9.305   5.629   1.984  3.2906  1.6422 -2.7153
  728MOL0     H98268   9.508   5.656   1.832 -0.0507 -1.7047 -0.5574
  728MOL0     H98269   9.533   5.739   1.680  0.4655  1.2951  0.5851
  728MOL0     H98270   9.537   5.494   1.665 -1.5416 -2.5158 -2.0966
  728MOL0     H98271   9.422   5.567   1.555 -1.3707  0.7606  0.6121
  728MOL0     H98272   9.245   5.483   1.673  0.5698  1.8549 -0.2726
  728MOL0     H98273   9.332   5.433   1.823  2.4616 -4.2347  0.0215
  728MOL0     H98274   9.355   5.315   1.559 -1.1239 -0.2455  0.3059
  728MOL0     H98275   9.474   5.291   1.703 -0.9395 -4.5684  1.3077
  728MOL0     H98276   9.172   5.064   1.863 -0.7642 -2.3360 -2.2118
  728MOL0     H98277   9.341   5.981   1.777 -1.2976 -2.0463 -0.9265
  728MOL0     H98278   9.373   6.235   2.025  0.3115  1.2044 -2.5062
  728MOL0     H98279   9.339   6.200   1.867  2.7311 -2.3266 -0.1771
  728MOL0     H98280   9.201   6.209   1.977  0.1338  1.0726 -4.2931
  729MOL0     O98281   2.949   0.679   3.397 -0.1576  0.1775  0.3005
  729MOL0     C98282   3.005   0.581   3.439  0.1393 -0.1106 -0.5391
  729MOL0     O98283   3.089   0.502   3.362 -0.1569  0.0503  0.3839
  729MOL0     C98284   3.094   0.523   3.225  0.5022 -0.5036  0.0688
  729MOL0     C98285   3.119   0.648   3.167  0.2680  0.4917  0.5365
  729MOL0     C98286   3.127   0.653   3.028  0.2719  0.3068  0.1487
  729MOL0     C98287   3.130   0.538   2.948 -0.4756 -1.1625  0.0527
  729MOL0     O98288   3.149   0.564   2.813  0.5769  0.5645 -0.5621
  729MOL0     C98289   3.126   0.454   2.731 -0.1698  0.8143  0.3500
  729MOL0     C98290   3.181   0.468   2.591 -0.1168  0.6156  0.0028
  729MOL0     C98291   3.336   0.496   2.589 -0.1889  0.5946  0.3691
  729MOL0     C98292   3.420   0.376   2.640 -0.1708 -0.0591 -0.8065
  729MOL0     C98293   3.564   0.380   2.587 -0.1798 -0.2539  0.5446
  729MOL0     C98294   3.636   0.290   2.687  0.1965 -0.1002 -0.0053
  729MOL0     C98295   3.768   0.249   2.619  0.1361 -0.3752 -0.4337
  729MOL0     C98296   3.869   0.367   2.595  0.0006  1.0853 -0.2395
  729MOL0     N98297   3.985   0.327   2.515  0.0971  0.3068  0.2590
  729MOL0     C98298   4.038   0.401   2.418  0.1516 -0.5717 -0.3140
  729MOL0     C98299   4.135   0.330   2.357 -1.2460  0.0907 -0.3775
  729MOL0     C98300   4.223   0.365   2.240  0.5257  0.5072  0.6823
  729MOL0     C98301   4.209   0.274   2.124 -0.1883 -0.5673  0.2091
  729MOL0     C98302   4.264   0.342   1.990  0.8681 -0.2357  0.2365
  729MOL0     C98303   4.270   0.239   1.880 -0.2876 -1.1896 -0.5897
  729MOL0     O98304   4.314   0.303   1.753  0.7164 -0.7935  0.3784
  729MOL0     C98305   4.444   0.337   1.729 -0.4550  0.2362  0.0135
  729MOL0     C98306   4.551   0.339   1.827 -0.2223  0.3973  0.1490
  729MOL0     C98307   4.683   0.359   1.786 -0.2972  0.2995 -0.4566
  729MOL0     C98308   4.718   0.377   1.653  0.2882 -0.4830  0.5353
  729MOL0     C98309   4.862   0.377   1.614  0.4314  0.3367 -0.0487
  729MOL0     O98310   4.944   0.325   1.707  0.0442 -0.2909 -0.5140
  729MOL0     C98311   5.074   0.301   1.664 -0.2255 -0.9882 -0.1973
  729MOL0     C98312   5.119   0.174   1.671  0.3403  1.0267 -0.1920
  729MOL0     C98313   5.254   0.145   1.644  0.1834  0.2610 -1.0263
  729MOL0     C98314   5.341   0.247   1.613 -0.0771 -0.0546  0.1871
  729MOL0     O98315   5.466   0.206   1.603  0.4471 -0.0755 -0.2503
  729MOL0     C98316   5.561   0.306   1.566  0.6291 -0.4748  0.3454
  729MOL0     C98317   5.699   0.266   1.614 -1.1827 -0.6695 -0.0784
  729MOL0     C98318   5.698   0.246   1.767 -0.4873  0.4907  0.1151
  729MOL0     C98319   5.826   0.252   1.837  0.0994 -0.1297  0.4071
  729MOL0     C98320   5.914   0.123   1.816  0.8489 -0.2649 -0.5223
  729MOL0     C98321   6.041   0.152   1.739  0.1745 -0.0312  0.0161
  729MOL0     C98322   6.128   0.021   1.730  0.8257  1.1845  0.1160
  729MOL0     C98323   6.256   0.060   1.662  0.3515 -0.7482 -0.0444
  729MOL0    Cl98324   6.345  -0.078   1.609 -0.1802  0.1345  0.1176
  729MOL0     C98325   5.293   0.376   1.600  0.9344 -0.0907 -0.1804
  729MOL0     C98326   5.160   0.408   1.636  0.6245  0.6480 -0.1222
  729MOL0     O98327   4.900   0.422   1.511 -0.0040 -0.5829  0.1057
  729MOL0     C98328   4.610   0.391   1.557 -0.4714  1.0034 -0.4842
  729MOL0     C98329   4.476   0.365   1.599 -0.1031  0.8392 -0.2809
  729MOL0     N98330   4.143   0.209   2.433  0.3004  0.7384 -0.4941
  729MOL0     N98331   4.064   0.219   2.532  0.3856  0.6416 -0.3066
  729MOL0     C98332   3.115   0.412   3.012 -0.1466 -0.4199  0.9264
  729MOL0     C98333   3.095   0.409   3.151  0.2369 -0.4450 -0.8322
  729MOL0     C98334   2.993   0.545   3.581  0.9745 -0.4281 -0.1009
  729MOL0     C98335   2.887   0.608   3.649 -0.3427  1.2209  0.9981
  729MOL0     C98336   2.856   0.582   3.782 -0.2269  0.2898 -1.0822
  729MOL0     C98337   2.927   0.488   3.860 -0.3958  1.0370  0.1463
  729MOL0     O98338   2.885   0.478   3.992 -0.4579 -0.7221 -0.1467
  729MOL0     C98339   2.952   0.374   4.067 -0.3203  0.7049  1.2579
  729MOL0     C98340   2.897   0.357   4.210  0.3910  0.3986 -0.6123
  729MOL0     C98341   2.984   0.434   4.318 -0.3354 -0.0196  0.5487
  729MOL0     C98342   2.919   0.451   4.452 -0.3689  0.2010 -0.4686
  729MOL0     C98343   2.895   0.331   4.533 -0.5503  1.1725 -0.6383
  729MOL0     C98344   2.900   0.249   4.617 -0.0065  0.1990 -0.2594
  729MOL0     C98345   3.040   0.428   3.796 -0.3056  0.0868 -0.1351
  729MOL0     C98346   3.055   0.440   3.652 -0.2291  0.8548 -1.0248
  729MOL0     C98347   3.160   0.353   3.583  0.4304 -0.1040  0.5959
  729MOL0     H98348   3.137   0.734   3.231  0.3866  1.0742 -0.2646
  729MOL0     H98349   3.152   0.752   2.993 -1.3435  0.3347 -1.0492
  729MOL0     H98350   3.166   0.358   2.765  0.2192  0.4636 -1.0288
  729MOL0     H98351   3.020   0.438   2.711 -0.3992  0.5549  1.6827
  729MOL0     H98352   3.132   0.553   2.541  0.2084  3.1956  3.6442
  729MOL0     H98353   3.163   0.373   2.540 -0.3271  0.6915 -0.0685
  729MOL0     H98354   3.369   0.590   2.634 -0.5295  1.2139 -0.6370
  729MOL0     H98355   3.374   0.509   2.487 -0.1780  0.0919  0.3048
  729MOL0     H98356   3.414   0.354   2.747 -1.0396 -1.6506 -1.1520
  729MOL0     H98357   3.379   0.287   2.592 -3.3777  1.4094 -1.0542
  729MOL0     H98358   3.564   0.349   2.482 -0.0155  0.6561  0.2649
  729MOL0     H98359   3.596   0.484   2.590 -2.8715  0.6741  0.4523
  729MOL0     H98360   3.659   0.336   2.783  2.4202  0.9063 -0.9384
  729MOL0     H98361   3.582   0.198   2.709  0.2336 -0.2359 -0.4614
  729MOL0     H98362   3.750   0.198   2.524 -0.2189  0.7546 -0.9833
  729MOL0     H98363   3.825   0.174   2.675  1.9904  1.4569  0.2457
  729MOL0     H98364   3.842   0.455   2.536  2.6552  0.3527 -2.7314
  729MOL0     H98365   3.896   0.402   2.696  1.5636  2.6436 -1.1355
  729MOL0     H98366   4.011   0.502   2.391 -1.3629 -0.7703  0.3679
  729MOL0     H98367   4.189   0.464   2.208  1.3218  0.3630 -0.7064
  729MOL0     H98368   4.329   0.369   2.270 -0.2915 -0.2560  4.1238
  729MOL0     H98369   4.267   0.182   2.138  1.6662  0.4979 -0.1671
  729MOL0     H98370   4.103   0.250   2.112 -0.8203  2.3707 -0.9707
  729MOL0     H98371   4.359   0.394   2.009  0.1594  1.3165 -0.3228
  729MOL0     H98372   4.205   0.420   1.942  2.3298  0.5744 -0.3187
  729MOL0     H98373   4.171   0.193   1.878  0.5748 -3.3611  1.7992
  729MOL0     H98374   4.335   0.159   1.915  0.9249 -0.4883 -1.1576
  729MOL0     H98375   4.533   0.291   1.922  1.6759 -2.1710 -0.6940
  729MOL0     H98376   4.757   0.362   1.865  1.7116 -0.0744 -2.2251
  729MOL0     H98377   5.057   0.089   1.697 -0.5536  1.3728 -1.1457
  729MOL0     H98378   5.283   0.042   1.665 -2.9314  0.1292  4.8684
  729MOL0     H98379   5.562   0.323   1.457  3.0792  2.3061  0.6668
  729MOL0     H98380   5.534   0.401   1.615 -0.6274 -1.0108  0.7401
  729MOL0     H98381   5.733   0.171   1.571  1.4997 -1.7487  3.8762
  729MOL0     H98382   5.773   0.342   1.585  1.3408 -2.6507  0.8255
  729MOL0     H98383   5.633   0.318   1.817 -1.8389 -1.4240  1.2656
  729MOL0     H98384   5.650   0.148   1.758 -2.4804  1.5762 -2.0006
  729MOL0     H98385   5.815   0.271   1.944  0.5186 -1.0732  0.6213
  729MOL0     H98386   5.872   0.345   1.800 -0.9272  0.5305  0.7429
  729MOL0     H98387   5.861   0.042   1.766  0.0723  0.4036 -0.7983
  729MOL0     H98388   5.930   0.091   1.919 -1.0446 -1.3069 -0.5184
  729MOL0     H98389   6.018   0.199   1.643 -0.5739  1.1473  0.7584
  729MOL0     H98390   6.106   0.221   1.794  3.9549 -1.7978 -1.7912
  729MOL0     H98391   6.077  -0.057   1.673 -0.2472  2.5533 -0.8760
  729MOL0     H98392   6.160  -0.006   1.831  0.2981 -1.5535 -0.3666
  729MOL0     H98393   6.230   0.117   1.572  1.9807  1.7840  0.9830
  729MOL0     H98394   6.316   0.135   1.714 -0.7538  2.8653 -3.5082
  729MOL0     H98395   5.349   0.455   1.551  2.4924 -0.8628  0.3005
  729MOL0     H98396   5.126   0.511   1.631  2.9798  1.4922 -0.1664
  729MOL0     H98397   4.638   0.417   1.455  4.6297  2.3543  0.9721
  729MOL0     H98398   4.402   0.362   1.520 -0.8170 -1.2623  0.3771
  729MOL0     H98399   3.112   0.318   2.958  0.4120  0.0526  0.0518
  729MOL0     H98400   3.079   0.311   3.195 -1.1406  0.1660  0.0857
  729MOL0     H98401   2.827   0.681   3.596 -1.4654  0.2022  0.8388
  729MOL0     H98402   2.778   0.641   3.828  0.5632 -0.4720  1.3670
  729MOL0     H98403   3.056   0.404   4.085 -0.5846  2.1107  0.6245
  729MOL0     H98404   2.940   0.283   4.008 -1.8405  0.9016  1.2317
  729MOL0     H98405   2.881   0.250   4.227 -3.9112  0.7440 -1.3929
  729MOL0     H98406   2.790   0.380   4.218  0.5761  0.8190  1.2715
  729MOL0     H98407   2.996   0.534   4.276 -0.0149  0.6101  2.0601
  729MOL0     H98408   3.085   0.393   4.320  0.0063  0.8078  0.6275
  729MOL0     H98409   2.984   0.520   4.506 -0.5070  0.5340 -0.7294
  729MOL0     H98410   2.824   0.502   4.437  0.0536  0.1600 -4.3791
  729MOL0     H98411   2.926   0.174   4.690  4.3331  1.2448 -0.4535
  729MOL0     H98412   3.099   0.345   3.834 -1.8286 -1.2266 -0.5629
  729MOL0     H98413   3.119   0.290   3.503  1.1837  1.2526 -0.9162
  729MOL0     H98414   3.230   0.414   3.524 -1.6342 -0.2837 -2.2644
  729MOL0     H98415   3.225   0.300   3.653  1.2282  0.2496  0.1391
  730MOL0     O98416  11.358   6.459  10.469 -0.0609 -0.1342  0.4568
  730MOL0     C98417  11.299   6.549  10.402 -0.7599 -0.4243 -0.2834
  730MOL0     O98418  11.358   6.598  10.283  0.6895  0.1673  0.0427
  730MOL0     C98419  11.493   6.571  10.254 -0.7376 -0.0123  0.2950
  730MOL0     C98420  11.525   6.454  10.191 -0.2073 -0.5455  0.0035
  730MOL0     C98421  11.658   6.421  10.163  0.2909  0.0762 -0.2669
  730MOL0     C98422  11.759   6.509  10.188 -0.0371  1.1667 -0.2100
  730MOL0     O98423  11.887   6.462  10.187  1.2940 -0.1196  0.6219
  730MOL0     C98424  11.986   6.541  10.125  0.9563  0.4767  0.3804
  730MOL0     C98425  11.975   6.515   9.971 -0.1354 -0.7392 -0.6380
  730MOL0     C98426  12.027   6.381   9.933 -0.0413  0.4699 -0.0677
  730MOL0     C98427  12.020   6.371   9.777  0.2618 -0.5676  0.1575
  730MOL0     C98428  12.071   6.246   9.736 -0.2802  0.4445  0.5010
  730MOL0     C98429  12.044   6.199   9.595  0.5078 -0.0499 -0.3636
  730MOL0     C98430  12.095   6.058   9.577 -0.1814 -0.3677 -0.9368
  730MOL0     C98431  12.248   6.039   9.554  0.5242 -0.9220  1.1631
  730MOL0     N98432  12.288   6.105   9.427  0.3778 -0.5556 -0.1149
  730MOL0     C98433  12.275   6.060   9.301  0.9267  0.4457 -0.9933
  730MOL0     C98434  12.300   6.164   9.221 -0.1243  0.5010 -0.8542
  730MOL0     C98435  12.302   6.166   9.075  0.6596  0.2939 -1.0837
  730MOL0     C98436  12.167   6.147   9.002 -0.2411  0.4294 -0.3888
  730MOL0     C98437  12.187   6.181   8.854 -0.5481  0.3572  0.5381
  730MOL0     C98438  12.053   6.181   8.770 -0.0022  0.3551 -0.0556
  730MOL0     O98439  11.967   6.293   8.805 -0.5827  0.0131  0.2794
  730MOL0     C98440  11.836   6.293   8.756  0.1624  0.4247 -0.3120
  730MOL0     C98441  11.788   6.204   8.659  0.7465  0.0089 -0.0751
  730MOL0     C98442  11.654   6.208   8.610 -1.0203 -0.3048  0.9915
  730MOL0     C98443  11.563   6.307   8.664 -0.5638 -0.6066  0.4820
  730MOL0     C98444  11.422   6.301   8.611 -0.6970  0.5928 -0.5041
  730MOL0     O98445  11.367   6.175   8.596 -0.3596  0.3271 -0.0257
  730MOL0     C98446  11.240   6.160   8.546  0.0119 -0.0639 -0.8180
  730MOL0     C98447  11.205   6.213   8.422  0.1455  0.4748 -0.1343
  730MOL0     C98448  11.067   6.198   8.379 -1.1281  0.5433 -0.0057
  730MOL0     C98449  10.970   6.140   8.461 -0.9774  0.9942 -0.4733
  730MOL0     O98450  10.840   6.139   8.410  0.0894 -0.0076  0.5582
  730MOL0     C98451  10.754   6.034   8.458 -0.2685  0.1917  0.9276
  730MOL0     C98452  10.602   6.039   8.403 -0.2165  0.4484 -0.4602
  730MOL0     C98453  10.558   5.908   8.353 -0.2821  0.6101 -0.0411
  730MOL0     C98454  10.438   5.917   8.258 -0.9340  0.1293  0.2180
  730MOL0     C98455  10.343   5.787   8.269  0.4683 -0.6000  0.6347
  730MOL0     C98456  10.235   5.819   8.366 -0.0785  0.4435 -0.0765
  730MOL0     C98457  10.126   5.701   8.391 -0.1409  0.4047 -0.0604
  730MOL0     C98458  10.084   5.639   8.247  0.0980 -0.9212 -0.3922
  730MOL0    Cl98459   9.978   5.758   8.160  0.1485 -0.1417  0.2090
  730MOL0     C98460  11.010   6.090   8.588 -0.0126  0.5938  0.1881
  730MOL0     C98461  11.143   6.101   8.627  0.2252 -0.1868  0.5158
  730MOL0     O98462  11.364   6.407   8.589 -0.3064  0.7094  0.1086
  730MOL0     C98463  11.611   6.401   8.753  0.0962  0.7979  0.2985
  730MOL0     C98464  11.747   6.399   8.794  0.2630  0.7970 -0.6137
  730MOL0     N98465  12.351   6.265   9.299 -0.1558 -0.0804  0.7111
  730MOL0     N98466  12.329   6.235   9.421  1.2421 -0.6334 -0.1246
  730MOL0     C98467  11.727   6.630  10.259  0.5198 -0.3113 -0.0682
  730MOL0     C98468  11.595   6.655  10.301  0.6900 -1.2309 -0.3201
  730MOL0     C98469  11.175   6.612  10.454 -0.6446 -0.2550  0.6596
  730MOL0     C98470  11.135   6.736  10.392  0.5203 -0.0863  0.7017
  730MOL0     C98471  11.022   6.809  10.446  0.5109 -0.6413  1.3934
  730MOL0     C98472  10.952   6.760  10.557 -0.8592  0.7602  0.6014
  730MOL0     O98473  10.838   6.821  10.603 -0.2860  0.2780 -0.0180
  730MOL0     C98474  10.777   6.941  10.550 -0.7680 -0.2018  0.1923
  730MOL0     C98475  10.815   7.066  10.628 -0.7557  0.6828  0.0830
  730MOL0     C98476  10.726   7.186  10.578 -0.1404  0.2358  0.0983
  730MOL0     C98477  10.770   7.311  10.643 -0.1911 -0.0712 -0.5840
  730MOL0     C98478  10.703   7.431  10.581  0.5029 -0.1686  0.3548
  730MOL0     C98479  10.642   7.519  10.523 -1.2249  0.6977  0.2126
  730MOL0     C98480  10.998   6.651  10.621 -0.2094 -0.5142  0.2712
  730MOL0     C98481  11.101   6.573  10.568  0.0201  0.3590  0.3617
  730MOL0     C98482  11.129   6.435  10.638 -0.5379 -0.0904 -0.5731
  730MOL0     H98483  11.443   6.389  10.162 -3.0961  2.1474  1.4937
  730MOL0     H98484  11.678   6.330  10.107  0.5354  0.2221 -0.4194
  730MOL0     H98485  11.970   6.648  10.144 -0.4545  0.2060  0.7656
  730MOL0     H98486  12.086   6.506  10.154  0.9615 -1.7271 -1.9207
  730MOL0     H98487  12.050   6.579   9.923  0.4278 -2.1271 -1.6693
  730MOL0     H98488  11.869   6.525   9.947 -0.6423 -0.7083  1.4174
  730MOL0     H98489  11.974   6.296   9.979  0.3753 -1.2780 -2.6230
  730MOL0     H98490  12.122   6.359   9.982 -3.0830 -0.7417  6.5716
  730MOL0     H98491  11.913   6.379   9.757 -0.2666 -0.3891  2.7550
  730MOL0     H98492  12.084   6.446   9.730  0.5810 -1.5310 -0.9924
  730MOL0     H98493  12.179   6.260   9.737 -0.3197  0.9163 -0.3162
  730MOL0     H98494  12.042   6.165   9.803 -0.0385 -1.1666 -1.2538
  730MOL0     H98495  11.938   6.198   9.570  0.9081 -0.5410 -2.1989
  730MOL0     H98496  12.099   6.271   9.534  1.0342 -0.0209  0.1400
  730MOL0     H98497  12.043   6.010   9.494 -1.5289 -0.0649 -0.2833
  730MOL0     H98498  12.055   5.990   9.653 -1.9393 -0.7143 -2.1126
  730MOL0     H98499  12.314   6.084   9.629  0.5350  1.4637 -0.1750
  730MOL0     H98500  12.267   5.933   9.538 -0.7587 -1.6133  3.8356
  730MOL0     H98501  12.238   5.961   9.275 -1.4477  1.3391 -1.3035
  730MOL0     H98502  12.345   6.262   9.041 -0.8008  0.8676 -1.3796
  730MOL0     H98503  12.373   6.092   9.037  0.3621  0.0808 -1.2257
  730MOL0     H98504  12.142   6.043   9.028  1.8793  0.0232  0.2220
  730MOL0     H98505  12.100   6.224   9.041  0.8602  1.4588 -0.4682
  730MOL0     H98506  12.247   6.101   8.810 -1.8706  0.2973 -1.2794
  730MOL0     H98507  12.235   6.278   8.836  2.4123 -1.1838 -0.7085
  730MOL0     H98508  11.996   6.089   8.788 -2.4964  1.9938  1.0598
  730MOL0     H98509  12.059   6.187   8.660 -1.8357 -1.5211 -0.3302
  730MOL0     H98510  11.845   6.119   8.621  0.5161 -1.3054  2.2927
  730MOL0     H98511  11.619   6.127   8.547 -2.9236 -0.5774  2.3304
  730MOL0     H98512  11.276   6.273   8.366  0.6909 -1.9435 -2.1699
  730MOL0     H98513  11.035   6.257   8.294  0.9119 -2.6733 -3.3016
  730MOL0     H98514  10.797   5.939   8.424 -2.2009 -0.9515  1.5170
  730MOL0     H98515  10.757   6.037   8.568  0.6548 -0.6297  0.9411
  730MOL0     H98516  10.542   6.063   8.491 -1.9683  1.2750 -1.7974
  730MOL0     H98517  10.600   6.120   8.329  1.3879  1.5100  0.5956
  730MOL0     H98518  10.644   5.865   8.302  0.4017  0.1191  1.4635
  730MOL0     H98519  10.534   5.846   8.440 -0.2868  1.1296  0.3316
  730MOL0     H98520  10.471   5.942   8.157  0.0137 -0.2730  0.4154
  730MOL0     H98521  10.374   6.002   8.285  0.6749  0.8736  1.9719
  730MOL0     H98522  10.402   5.704   8.310  3.7132  2.4727  2.9146
  730MOL0     H98523  10.303   5.765   8.170 -1.7858  3.2911  0.4517
  730MOL0     H98524  10.281   5.834   8.465 -1.3003  0.9545  0.4288
  730MOL0     H98525  10.189   5.915   8.343  0.9012  1.1027  0.6058
  730MOL0     H98526  10.047   5.737   8.457  0.1627 -1.8572  1.6970
  730MOL0     H98527  10.173   5.615   8.441  0.4022  0.1662 -0.9515
  730MOL0     H98528  10.170   5.609   8.187  1.1283  0.2176  0.4582
  730MOL0     H98529  10.027   5.547   8.263 -0.1387 -0.5992  0.7250
  730MOL0     H98530  10.935   6.057   8.660 -0.1556  0.3172 -0.0879
  730MOL0     H98531  11.174   6.070   8.726  1.2622  0.4223  0.3953
  730MOL0     H98532  11.551   6.484   8.790 -0.2132  0.8870 -0.3886
  730MOL0     H98533  11.784   6.477   8.859 -3.0702 -0.2965  3.0100
  730MOL0     H98534  11.803   6.702  10.290  1.9395 -1.3026 -1.1459
  730MOL0     H98535  11.569   6.744  10.358 -0.2376 -0.1360 -2.3485
  730MOL0     H98536  11.191   6.789  10.316  2.6380  0.0113  2.2214
  730MOL0     H98537  10.997   6.902  10.396 -0.7367 -2.2898 -1.2866
  730MOL0     H98538  10.671   6.925  10.574  0.1025 -3.2598  2.6331
  730MOL0     H98539  10.790   6.949  10.442  1.2692  1.3873  0.5185
  730MOL0     H98540  10.921   7.090  10.614 -0.9590  1.9336  0.5938
  730MOL0     H98541  10.798   7.035  10.732 -4.0933 -1.4014 -0.9181
  730MOL0     H98542  10.625   7.156  10.606  1.0572 -2.6493  1.6687
  730MOL0     H98543  10.734   7.205  10.470 -1.2842  0.9264  0.1174
  730MOL0     H98544  10.750   7.303  10.750 -1.7731 -1.1520 -0.9323
  730MOL0     H98545  10.878   7.313  10.621 -0.6467 -0.2390 -3.2679
  730MOL0     H98546  10.607   7.607  10.473  3.0940  4.4572  3.0313
  730MOL0     H98547  10.937   6.605  10.697 -5.4693  1.7608 -2.0467
  730MOL0     H98548  11.134   6.363  10.555  0.4489 -0.1367 -0.4853
  730MOL0     H98549  11.214   6.422  10.706 -0.7005  0.5016 -0.2508
  730MOL0     H98550  11.043   6.400  10.695  2.3597 -1.2042  3.5969
  731MOL0     O98551   0.618   9.164   4.739 -0.6919 -0.1684 -0.1783
  731MOL0     C98552   0.549   9.251   4.801  0.1463  0.3605  0.2746
  731MOL0     O98553   0.550   9.387   4.778 -0.3176  0.1341 -0.2470
  731MOL0     C98554   0.598   9.427   4.652  0.3843 -0.0914 -0.2136
  731MOL0     C98555   0.564   9.372   4.530  0.5420 -0.1203 -0.4368
  731MOL0     C98556   0.603   9.431   4.416 -0.5259 -0.0155 -0.3226
  731MOL0     C98557   0.678   9.547   4.416  0.8669 -0.2146 -0.3081
  731MOL0     O98558   0.698   9.605   4.297  0.5398  0.2528 -0.5285
  731MOL0     C98559   0.828   9.643   4.265 -0.1088 -0.5197 -0.6372
  731MOL0     C98560   0.856   9.611   4.119  0.0727  1.3182 -0.6005
  731MOL0     C98561   0.803   9.728   4.022 -0.1155  0.0280  0.5230
  731MOL0     C98562   0.818   9.698   3.878 -0.4076 -0.3126  0.1679
  731MOL0     C98563   0.841   9.813   3.776 -0.3309 -0.7888 -0.1740
  731MOL0     C98564   0.745   9.928   3.761 -0.1235  0.9097  0.0385
  731MOL0     C98565   0.799  10.035   3.680 -0.6405 -0.6865  0.7315
  731MOL0     C98566   0.751  10.167   3.729  0.1509 -0.5682  0.3811
  731MOL0     N98567   0.809  10.279   3.646  0.5894 -0.0817  0.7484
  731MOL0     C98568   0.935  10.328   3.647 -0.6898  0.5146 -0.8139
  731MOL0     C98569   0.941  10.431   3.560  0.3358  0.2607  0.2125
  731MOL0     C98570   1.076  10.514   3.538 -0.4332  0.3413 -0.0152
  731MOL0     C98571   1.074  10.542   3.392 -0.5506  0.3436 -0.3902
  731MOL0     C98572   1.176  10.652   3.376 -0.0175  0.5894 -0.3527
  731MOL0     C98573   1.327  10.607   3.415 -0.2637 -1.3350 -0.0558
  731MOL0     O98574   1.345  10.465   3.418  0.3210 -0.3883  0.6302
  731MOL0     C98575   1.409  10.415   3.307 -0.1424  0.0399  0.7350
  731MOL0     C98576   1.351  10.308   3.243  0.7700  1.1335 -0.0983
  731MOL0     C98577   1.415  10.251   3.135 -0.0289 -0.4335  0.3348
  731MOL0     C98578   1.537  10.301   3.086 -0.7741 -0.5571  0.1771
  731MOL0     C98579   1.601  10.239   2.981 -0.0602  0.6680 -0.5065
  731MOL0     O98580   1.571  10.112   2.968  0.2138 -0.1692 -0.5893
  731MOL0     C98581   1.657  10.022   2.913  0.4507  0.3038 -0.2541
  731MOL0     C98582   1.784  10.023   2.960  0.4598  0.1838 -0.0208
  731MOL0     C98583   1.881   9.937   2.911  0.0080 -0.1619 -0.2715
  731MOL0     C98584   1.845   9.839   2.821  0.1445  0.2567  0.7634
  731MOL0     O98585   1.930   9.748   2.758  0.5770  0.0234 -0.6440
  731MOL0     C98586   2.066   9.794   2.737  0.1034  1.1101 -1.0408
  731MOL0     C98587   2.139   9.673   2.677 -0.5129  0.5184 -0.9337
  731MOL0     C98588   2.280   9.698   2.638 -0.0057  0.2892  0.1926
  731MOL0     C98589   2.317   9.800   2.530 -0.6310  0.0452  0.6902
  731MOL0     C98590   2.465   9.840   2.534  0.1164  0.1532 -0.3454
  731MOL0     C98591   2.506   9.935   2.418 -0.2839  0.0265 -0.7872
  731MOL0     C98592   2.655   9.945   2.410 -0.5276 -0.4204  0.6133
  731MOL0     C98593   2.701  10.064   2.313 -0.0364 -0.5092 -0.5451
  731MOL0    Cl98594   2.641  10.022   2.148  0.1755 -0.4224  0.2992
  731MOL0     C98595   1.705   9.828   2.785 -0.4721 -0.1703 -1.0078
  731MOL0     C98596   1.612   9.916   2.835  0.5797  0.4969 -0.4570
  731MOL0     O98597   1.701  10.295   2.928 -0.7347 -0.3282 -0.1074
  731MOL0     C98598   1.606  10.407   3.154  0.3000  0.0528  0.3561
  731MOL0     C98599   1.534  10.462   3.264  0.3482 -1.4921 -0.4414
  731MOL0     N98600   0.819  10.449   3.505 -0.1315  0.8118 -0.5743
  731MOL0     N98601   0.741  10.359   3.555 -0.2198  0.6670  0.1401
  731MOL0     C98602   0.716   9.600   4.537  0.6113  0.2580 -0.2629
  731MOL0     C98603   0.669   9.537   4.651 -1.4968 -0.9729 -0.5002
  731MOL0     C98604   0.461   9.195   4.913 -0.1697 -0.7054 -0.6228
  731MOL0     C98605   0.514   9.086   4.988 -0.3522 -0.7311  0.1222
  731MOL0     C98606   0.447   9.023   5.091  0.1766  0.4576 -0.2137
  731MOL0     C98607   0.320   9.068   5.127 -0.4800  0.5918 -0.0603
  731MOL0     O98608   0.254   8.999   5.228 -0.1404 -0.1355 -0.7030
  731MOL0     C98609   0.114   8.994   5.227  0.1962  0.1684 -0.8598
  731MOL0     C98610   0.074   8.929   5.370 -0.2167 -0.6003 -1.0446
  731MOL0     C98611   0.101   8.778   5.381 -0.8260  0.4601  0.0050
  731MOL0     C98612   0.005   8.698   5.290 -0.2186  0.0613 -0.9695
  731MOL0     C98613   0.071   8.646   5.166 -1.1781 -0.3936 -0.0835
  731MOL0     C98614   0.150   8.608   5.079  0.5680  0.5161  0.2466
  731MOL0     C98615   0.265   9.170   5.046 -0.1947 -0.0717 -0.4659
  731MOL0     C98616   0.332   9.232   4.939  0.1888 -0.0159 -0.2919
  731MOL0     C98617   0.259   9.348   4.867  0.3291  0.3814  0.8837
  731MOL0     H98618   0.488   9.295   4.519  0.7831 -0.0683 -2.9202
  731MOL0     H98619   0.583   9.379   4.324 -0.3310  1.4257 -1.2154
  731MOL0     H98620   0.846   9.751   4.269  0.2028 -0.5995  1.2377
  731MOL0     H98621   0.899   9.593   4.331 -0.4929 -0.6458 -0.3195
  731MOL0     H98622   0.807   9.520   4.084  1.6650 -0.7343  2.1902
  731MOL0     H98623   0.964   9.595   4.111 -0.3763 -2.3530 -0.7925
  731MOL0     H98624   0.870   9.812   4.042  1.0690 -0.3745 -1.4327
  731MOL0     H98625   0.701   9.764   4.037 -0.0826  0.7637 -0.8260
  731MOL0     H98626   0.903   9.629   3.878 -0.2431 -0.1418 -1.0790
  731MOL0     H98627   0.726   9.644   3.853 -1.2420  2.0162 -2.2577
  731MOL0     H98628   0.940   9.853   3.798 -0.9689 -0.8301  3.3044
  731MOL0     H98629   0.833   9.768   3.676 -0.8137  0.0590 -0.5317
  731MOL0     H98630   0.653   9.891   3.715  1.5945 -2.1670 -1.2532
  731MOL0     H98631   0.727   9.958   3.864 -0.9389  0.5628  0.0053
  731MOL0     H98632   0.759  10.026   3.579  1.5624  0.4559 -0.3249
  731MOL0     H98633   0.909  10.034   3.682 -0.6080  0.8263  1.4333
  731MOL0     H98634   0.644  10.164   3.751  0.3405  1.6258  2.0205
  731MOL0     H98635   0.790  10.198   3.827 -1.6246  0.5808  0.7728
  731MOL0     H98636   1.011  10.303   3.720 -0.7756  2.2496 -0.0976
  731MOL0     H98637   1.074  10.605   3.598 -2.1565  0.7674 -0.6723
  731MOL0     H98638   1.158  10.449   3.570 -1.3087 -1.3060 -1.0159
  731MOL0     H98639   1.099  10.448   3.340  1.4167  0.7634 -0.2957
  731MOL0     H98640   0.982  10.585   3.352 -0.6459  0.0272 -0.5184
  731MOL0     H98641   1.145  10.745   3.424 -0.8519 -0.6762  1.6838
  731MOL0     H98642   1.195  10.682   3.273  3.6541  2.4340  0.6782
  731MOL0     H98643   1.356  10.634   3.517  2.5989 -1.6617 -0.6922
  731MOL0     H98644   1.390  10.669   3.351 -0.5788 -0.3734  0.5512
  731MOL0     H98645   1.253  10.270   3.267  0.6896  1.5714  0.2795
  731MOL0     H98646   1.369  10.168   3.083 -3.0929  1.4929 -0.3428
  731MOL0     H98647   1.815  10.093   3.037  1.1529  0.5710 -0.6397
  731MOL0     H98648   1.986   9.943   2.936  0.5682  0.3678 -2.5385
  731MOL0     H98649   2.076   9.872   2.661 -0.2431 -1.0215 -3.3606
  731MOL0     H98650   2.116   9.820   2.831 -3.9763  1.7581  1.2093
  731MOL0     H98651   2.143   9.587   2.745 -3.0843 -0.5281 -1.9397
  731MOL0     H98652   2.072   9.638   2.598 -0.7905 -0.7197 -0.1811
  731MOL0     H98653   2.323   9.732   2.732 -2.1088 -0.7255  1.6089
  731MOL0     H98654   2.318   9.601   2.605  1.0481  1.5019 -2.4269
  731MOL0     H98655   2.258   9.892   2.534 -1.9169 -0.7069 -0.4176
  731MOL0     H98656   2.286   9.759   2.434 -0.2503  0.2080  0.4960
  731MOL0     H98657   2.524   9.748   2.529  4.4496  2.6725  0.0717
  731MOL0     H98658   2.484   9.887   2.631  1.5876  1.3861 -1.1782
  731MOL0     H98659   2.460   9.905   2.323 -1.7482 -1.3782  0.3215
  731MOL0     H98660   2.472  10.036   2.446  1.4526  0.0703  1.4584
  731MOL0     H98661   2.701   9.853   2.374  0.7980  0.3328  0.3281
  731MOL0     H98662   2.678   9.959   2.516  0.5171 -0.9057  0.4638
  731MOL0     H98663   2.652  10.155   2.348  0.5711 -0.2958 -0.2427
  731MOL0     H98664   2.809  10.073   2.313 -0.1400  0.9862 -1.5819
  731MOL0     H98665   1.684   9.751   2.711  0.5724 -2.0275  0.5217
  731MOL0     H98666   1.506   9.896   2.819  0.1921 -1.7678  3.5070
  731MOL0     H98667   1.702  10.446   3.121 -1.4478  3.6617 -1.0385
  731MOL0     H98668   1.575  10.542   3.326 -0.4399  0.0755 -1.8493
  731MOL0     H98669   0.762   9.698   4.549  2.0887 -0.6698  3.1375
  731MOL0     H98670   0.686   9.588   4.745  1.4180 -2.2975 -0.1927
  731MOL0     H98671   0.618   9.055   4.975 -0.6688 -1.6015 -0.4237
  731MOL0     H98672   0.495   8.945   5.150 -1.2138 -2.5384 -2.7395
  731MOL0     H98673   0.090   8.942   5.134 -1.6635 -0.5102 -0.0384
  731MOL0     H98674   0.079   9.097   5.214 -0.2923  0.0834 -0.2420
  731MOL0     H98675  -0.020   8.962   5.414  0.8020  0.2069  0.6109
  731MOL0     H98676   0.141   8.974   5.443 -0.9152 -4.0918  2.0530
  731MOL0     H98677   0.083   8.736   5.481 -1.4698  2.2358  0.6596
  731MOL0     H98678   0.208   8.759   5.365 -0.6003  0.5199  1.3401
  731MOL0     H98679  -0.035   8.615   5.349  2.5530  0.8531  2.3487
  731MOL0     H98680  -0.079   8.763   5.267  1.6083  2.3873 -1.4500
  731MOL0     H98681   0.223   8.575   5.007  1.1006 -0.5916  1.2530
  731MOL0     H98682   0.164   9.208   5.053 -0.4337 -0.6328 -0.7877
  731MOL0     H98683   0.230   9.333   4.762  2.0136  2.4120  0.0525
  731MOL0     H98684   0.176   9.395   4.920 -0.8718  1.8421 -2.0307
  731MOL0     H98685   0.335   9.425   4.858  0.9609  0.0435  2.9362
  732MOL0     O98686   6.008   0.127   4.582 -0.1155  0.6838  0.1630
  732MOL0     C98687   6.011   0.046   4.495  0.2183  0.1548 -0.3165
  732MOL0     O98688   5.999  -0.089   4.509 -0.0773  0.4274  0.4587
  732MOL0     C98689   5.968  -0.128   4.634 -0.7098  0.0699  0.6429
  732MOL0     C98690   6.066  -0.141   4.736  0.4066 -0.1879  0.2561
  732MOL0     C98691   6.025  -0.186   4.864  0.1597 -0.9857 -0.9907
  732MOL0     C98692   5.901  -0.229   4.891  0.6728 -0.4134  0.6876
  732MOL0     O98693   5.880  -0.287   5.015  0.2429  0.0546  0.0259
  732MOL0     C98694   5.763  -0.363   5.039 -0.4762  0.6662  1.7482
  732MOL0     C98695   5.767  -0.423   5.181  0.9362 -0.8061  0.0022
  732MOL0     C98696   5.634  -0.500   5.205 -0.3138 -0.7715  0.1604
  732MOL0     C98697   5.639  -0.588   5.328  0.1319  0.2599 -0.2819
  732MOL0     C98698   5.513  -0.675   5.369  0.2724 -0.1236 -0.3380
  732MOL0     C98699   5.373  -0.601   5.363 -0.9466 -0.2850  0.8256
  732MOL0     C98700   5.248  -0.681   5.426 -0.1181  0.1614 -0.0285
  732MOL0     C98701   5.246  -0.836   5.403 -0.0408  1.0369 -1.0184
  732MOL0     N98702   5.194  -0.888   5.272  0.0530 -0.3896  0.2664
  732MOL0     C98703   5.063  -0.912   5.242  1.1540 -1.3602  0.0518
  732MOL0     C98704   5.047  -0.897   5.108  0.7032 -0.9716  0.1734
  732MOL0     C98705   4.905  -0.898   5.052 -0.0771  0.8190 -0.1845
  732MOL0     C98706   4.893  -0.795   4.930 -0.2230  0.6004  0.5619
  732MOL0     C98707   4.887  -0.652   4.987  0.5083  0.2277  0.3861
  732MOL0     C98708   4.745  -0.605   5.037 -0.1431 -0.5465  1.0563
  732MOL0     O98709   4.749  -0.461   5.081 -0.9701  0.4450  0.3278
  732MOL0     C98710   4.641  -0.377   5.064 -0.2712  1.4225  0.0450
  732MOL0     C98711   4.655  -0.253   5.132 -1.0049  0.7271 -0.7005
  732MOL0     C98712   4.560  -0.160   5.120 -0.2742 -0.4480  1.4996
  732MOL0     C98713   4.450  -0.173   5.027 -0.5017  0.3928  0.4845
  732MOL0     C98714   4.371  -0.053   4.992  1.2771  0.3744  0.4459
  732MOL0     O98715   4.429   0.062   5.023  0.2973 -0.0441 -0.0857
  732MOL0     C98716   4.363   0.174   4.974 -0.1392  0.8763  0.4940
  732MOL0     C98717   4.248   0.229   5.034  0.4127  0.0095  0.1239
  732MOL0     C98718   4.181   0.341   4.994  0.4410 -0.1145  0.0253
  732MOL0     C98719   4.238   0.414   4.882 -0.7070  0.0394  0.5497
  732MOL0     O98720   4.195   0.534   4.825 -0.4072  0.5698  0.1885
  732MOL0     C98721   4.051   0.551   4.820 -0.4322  0.3824  1.0276
  732MOL0     C98722   4.028   0.680   4.742  0.8564 -0.3572 -0.1353
  732MOL0     C98723   4.096   0.673   4.608 -0.2364 -0.3466 -0.1248
  732MOL0     C98724   4.116   0.812   4.555  0.5875  0.4209  0.3062
  732MOL0     C98725   4.217   0.824   4.445  0.0140  0.2352  0.0382
  732MOL0     C98726   4.164   0.756   4.327  0.8340 -1.0660  0.5588
  732MOL0     C98727   4.259   0.760   4.199 -0.2759 -1.0773  0.9460
  732MOL0     C98728   4.201   0.701   4.076  0.2535 -0.2218 -0.0875
  732MOL0    Cl98729   4.171   0.528   4.101  0.2288 -0.1001 -0.3231
  732MOL0     C98730   4.363   0.369   4.826 -0.0814 -0.6260  0.0291
  732MOL0     C98731   4.417   0.247   4.875 -0.4896 -0.1308  0.5568
  732MOL0     O98732   4.261  -0.074   4.929 -0.6564 -1.0063 -0.6402
  732MOL0     C98733   4.437  -0.290   4.956  0.8942  0.0668 -0.0729
  732MOL0     C98734   4.525  -0.399   4.977 -0.2416  0.2983  0.5235
  732MOL0     N98735   5.179  -0.875   5.062  0.1138  0.7965 -0.0465
  732MOL0     N98736   5.262  -0.858   5.160 -0.2509 -0.2783  0.3843
  732MOL0     C98737   5.805  -0.233   4.783 -0.2907 -0.0396  0.2003
  732MOL0     C98738   5.839  -0.185   4.652 -0.2450 -0.3518 -0.9515
  732MOL0     C98739   6.007   0.094   4.353 -1.0145  0.3959 -0.3784
  732MOL0     C98740   5.982   0.002   4.245  0.2447 -0.2073  0.8410
  732MOL0     C98741   5.996   0.038   4.106  0.1264  0.0599 -0.4994
  732MOL0     C98742   6.023   0.172   4.071  0.2764  0.5450  0.6982
  732MOL0     O98743   6.013   0.217   3.939 -0.0318 -0.2325 -0.2284
  732MOL0     C98744   5.928   0.139   3.849 -0.1124  0.0715 -0.6576
  732MOL0     C98745   5.898   0.215   3.717 -0.5363  0.2568  0.5963
  732MOL0     C98746   5.816   0.127   3.625  0.4759 -0.1470 -1.5502
  732MOL0     C98747   5.673   0.187   3.605  0.9377  0.4995  0.4716
  732MOL0     C98748   5.589   0.111   3.503 -0.4399 -0.1849  0.0743
  732MOL0     C98749   5.519   0.067   3.412 -1.2411  0.4485  0.0350
  732MOL0     C98750   6.063   0.253   4.173  0.9901 -0.3561  0.5585
  732MOL0     C98751   6.037   0.223   4.309 -1.0670 -0.5531 -0.7763
  732MOL0     C98752   6.075   0.344   4.406 -0.6962  0.1219 -0.9689
  732MOL0     H98753   6.165  -0.102   4.716  0.8733 -1.0257  0.8653
  732MOL0     H98754   6.095  -0.162   4.944 -1.7126  0.1677  0.3705
  732MOL0     H98755   5.670  -0.309   5.023  0.2281  1.4613  0.0747
  732MOL0     H98756   5.769  -0.456   4.981  0.0416 -0.2878  3.2891
  732MOL0     H98757   5.776  -0.338   5.249 -0.1428 -0.5529 -0.1644
  732MOL0     H98758   5.854  -0.489   5.195  3.8024  2.1243 -2.3474
  732MOL0     H98759   5.610  -0.562   5.118 -0.7329 -1.3570  0.6790
  732MOL0     H98760   5.553  -0.428   5.217  0.0473  0.0629 -1.9907
  732MOL0     H98761   5.720  -0.659   5.312 -0.7822 -0.5327 -1.7010
  732MOL0     H98762   5.677  -0.528   5.411  0.7857  1.0123 -1.1043
  732MOL0     H98763   5.502  -0.763   5.304 -1.2482 -0.6221  0.5446
  732MOL0     H98764   5.527  -0.715   5.470 -2.4167 -1.6443 -0.4618
  732MOL0     H98765   5.380  -0.513   5.427 -0.5364 -0.4276  0.9815
  732MOL0     H98766   5.362  -0.574   5.258  2.7526 -2.5339 -0.3444
  732MOL0     H98767   5.156  -0.635   5.390 -1.9751 -3.2409 -0.0467
  732MOL0     H98768   5.243  -0.668   5.534 -0.2439  0.3843 -0.0611
  732MOL0     H98769   5.345  -0.882   5.405 -1.8496 -3.4164  2.1646
  732MOL0     H98770   5.180  -0.889   5.472  2.0244 -0.8660 -0.4064
  732MOL0     H98771   4.985  -0.909   5.318  1.8258  0.9366  0.7439
  732MOL0     H98772   4.891  -1.001   5.015 -0.5452  1.6747 -2.5945
  732MOL0     H98773   4.819  -0.883   5.117 -2.4757 -1.7523 -2.4678
  732MOL0     H98774   4.986  -0.809   4.875  0.7004 -0.7280  2.3642
  732MOL0     H98775   4.803  -0.816   4.871  0.1954 -0.9120  0.4104
  732MOL0     H98776   4.927  -0.584   4.911  3.0449 -0.2319  1.2054
  732MOL0     H98777   4.951  -0.655   5.075  0.7183 -4.3484  0.3083
  732MOL0     H98778   4.705  -0.659   5.123 -0.4982 -0.6609  0.8237
  732MOL0     H98779   4.674  -0.600   4.954  1.9328 -0.3075 -0.8131
  732MOL0     H98780   4.744  -0.231   5.189 -0.6184 -1.2989 -0.4642
  732MOL0     H98781   4.574  -0.068   5.176 -1.6571  0.0852  1.0073
  732MOL0     H98782   4.203   0.181   5.121 -1.4531  2.5345  0.6861
  732MOL0     H98783   4.103   0.397   5.045  1.4024  0.7180  0.6516
  732MOL0     H98784   3.998   0.475   4.763  0.9842  0.1349 -0.0066
  732MOL0     H98785   4.004   0.554   4.919 -2.8473  0.8104 -0.0583
  732MOL0     H98786   3.920   0.692   4.727  0.7197  1.1504  1.6098
  732MOL0     H98787   4.039   0.772   4.800  2.1861 -0.5714 -0.0114
  732MOL0     H98788   4.198   0.634   4.616 -0.0441  0.4531  1.8042
  732MOL0     H98789   4.045   0.606   4.538  0.1370 -0.8064  0.0360
  732MOL0     H98790   4.149   0.874   4.639  0.7773 -1.0534  1.3746
  732MOL0     H98791   4.018   0.847   4.523 -0.3289 -1.3526  0.9945
  732MOL0     H98792   4.314   0.789   4.482  0.3336  2.0183  1.0601
  732MOL0     H98793   4.228   0.932   4.430 -1.3920  0.3052 -0.6043
  732MOL0     H98794   4.151   0.649   4.345 -3.8050 -0.9407 -0.6059
  732MOL0     H98795   4.068   0.805   4.310  0.9070 -0.2319  2.3933
  732MOL0     H98796   4.347   0.701   4.226 -0.1771 -1.6162 -0.4667
  732MOL0     H98797   4.301   0.858   4.179  1.1193 -2.1976 -2.3775
  732MOL0     H98798   4.109   0.755   4.052  0.3151 -0.0058  0.1616
  732MOL0     H98799   4.269   0.710   3.991 -1.9202  0.8883 -1.8011
  732MOL0     H98800   4.402   0.438   4.752 -0.1478 -0.8509 -0.2180
  732MOL0     H98801   4.504   0.210   4.821  0.4776  2.4248  0.2378
  732MOL0     H98802   4.360  -0.296   4.879  0.7504  0.3218  0.0499
  732MOL0     H98803   4.506  -0.496   4.930  2.0506 -0.0240  0.1198
  732MOL0     H98804   5.706  -0.272   4.803 -1.1773  1.2502 -1.3626
  732MOL0     H98805   5.758  -0.196   4.580 -0.8009 -1.5913 -0.1603
  732MOL0     H98806   5.940  -0.094   4.270  0.6909 -0.8097 -0.5858
  732MOL0     H98807   5.958  -0.032   4.032  0.3043  1.8926 -2.4250
  732MOL0     H98808   5.825   0.128   3.887 -1.7939  3.0921 -3.7507
  732MOL0     H98809   5.961   0.038   3.825  1.5381  0.4933 -0.2322
  732MOL0     H98810   5.993   0.224   3.664 -1.2775  0.6728 -0.6883
  732MOL0     H98811   5.855   0.315   3.723  0.7941  0.8210  1.0151
  732MOL0     H98812   5.788   0.031   3.669 -3.2537  0.9608 -1.2055
  732MOL0     H98813   5.867   0.114   3.528 -0.9605 -1.3681 -2.1815
  732MOL0     H98814   5.624   0.193   3.703  2.2905  2.9485  1.0881
  732MOL0     H98815   5.671   0.288   3.564  2.1286 -0.0177 -0.9703
  732MOL0     H98816   5.461   0.049   3.325 -1.0674  3.1843 -0.7379
  732MOL0     H98817   6.100   0.353   4.149  2.3887 -0.5306  1.8640
  732MOL0     H98818   6.122   0.425   4.348 -1.7291  1.2959 -0.2249
  732MOL0     H98819   5.985   0.382   4.456 -1.0064 -1.3152 -0.3833
  732MOL0     H98820   6.144   0.312   4.483 -1.1403  1.2633 -0.0606
  733MOL0     O98821   7.905   8.074   8.286  0.4043 -1.0865  0.1457
  733MOL0     C98822   7.897   8.179   8.350  0.0449  0.0675  0.0548
  733MOL0     O98823   7.975   8.208   8.463  0.1043  0.2503 -0.6718
  733MOL0     C98824   8.073   8.126   8.515 -0.4614 -0.2089 -0.5193
  733MOL0     C98825   8.058   7.998   8.573  0.8669 -0.8724  1.0647
  733MOL0     C98826   8.169   7.951   8.647 -0.9732  0.0584  0.6733
  733MOL0     C98827   8.293   8.013   8.648  0.4601 -1.1094 -0.3291
  733MOL0     O98828   8.391   7.948   8.725 -0.7211  0.1058  0.1124
  733MOL0     C98829   8.380   7.977   8.865  0.5425  0.7653 -0.4294
  733MOL0     C98830   8.479   7.894   8.951  0.1259 -0.0389  0.0382
  733MOL0     C98831   8.622   7.902   8.898  0.2454 -0.6633 -0.3330
  733MOL0     C98832   8.719   7.865   9.007 -0.0063  0.7090 -0.0419
  733MOL0     C98833   8.856   7.845   8.948 -0.8560  0.2833  0.1225
  733MOL0     C98834   8.953   7.800   9.062  0.8043 -0.5478 -0.5858
  733MOL0     C98835   9.098   7.805   9.021 -0.5160 -0.0004  0.8601
  733MOL0     C98836   9.141   7.705   8.910  0.1055 -0.1420 -1.0023
  733MOL0     N98837   9.220   7.598   8.964 -0.7997 -0.3269 -0.0321
  733MOL0     C98838   9.184   7.501   9.067 -0.0827  1.4896  0.4713
  733MOL0     C98839   9.287   7.416   9.059  0.5255  0.5955 -0.7366
  733MOL0     C98840   9.324   7.311   9.155 -0.1879  0.1134  0.5094
  733MOL0     C98841   9.334   7.383   9.299 -0.1159 -0.3083  0.5116
  733MOL0     C98842   9.199   7.385   9.366  0.1742 -0.1403  0.3393
  733MOL0     C98843   9.188   7.278   9.479 -0.0179 -0.4609 -0.0721
  733MOL0     O98844   9.191   7.142   9.430  0.0584  0.5223  0.2949
  733MOL0     C98845   9.167   7.034   9.519 -0.7665 -0.1829 -0.4526
  733MOL0     C98846   9.156   7.051   9.658  0.7417  0.3236 -0.3727
  733MOL0     C98847   9.135   6.935   9.736  0.5466  0.7167 -0.2127
  733MOL0     C98848   9.149   6.807   9.676  0.1946  0.1162 -0.3176
  733MOL0     C98849   9.169   6.694   9.774 -0.2549  0.8054 -0.2539
  733MOL0     O98850   9.223   6.575   9.723 -0.1301  0.2459 -0.3859
  733MOL0     C98851   9.252   6.469   9.807  0.2524  0.6319  0.8502
  733MOL0     C98852   9.385   6.417   9.811 -0.1200 -0.0745  0.3141
  733MOL0     C98853   9.421   6.339   9.924  0.2055 -0.5095 -0.0305
  733MOL0     C98854   9.328   6.294  10.021 -0.1455 -0.4238 -0.5400
  733MOL0     O98855   9.393   6.215  10.111 -0.1364  0.1204 -0.2945
  733MOL0     C98856   9.305   6.109  10.164 -0.2834  0.8237 -0.1904
  733MOL0     C98857   9.256   6.005  10.069  0.8519  0.9935 -0.8622
  733MOL0     C98858   9.367   5.941   9.975 -0.4679 -0.2301 -0.8180
  733MOL0     C98859   9.454   5.850  10.057 -0.5572  0.2520  0.0997
  733MOL0     C98860   9.580   5.815   9.983 -0.5240 -1.1477  0.4549
  733MOL0     C98861   9.685   5.753  10.074 -0.1211 -0.1184  0.0205
  733MOL0     C98862   9.633   5.611  10.124 -0.4026 -0.0903  0.8119
  733MOL0     C98863   9.747   5.540  10.182  0.9368 -0.6578 -0.0882
  733MOL0    Cl98864   9.851   5.471  10.052  0.0230  0.0587  0.1778
  733MOL0     C98865   9.195   6.336  10.011  0.4260  0.3645 -0.0018
  733MOL0     C98866   9.163   6.426   9.908 -0.1453 -1.2532  0.3356
  733MOL0     O98867   9.134   6.712   9.891 -0.0625 -0.1894 -1.1043
  733MOL0     C98868   9.170   6.793   9.538 -0.6258 -0.6735 -0.0818
  733MOL0     C98869   9.177   6.908   9.457 -0.0964  0.0875 -0.2802
  733MOL0     N98870   9.382   7.458   8.970 -0.5907 -0.9135 -0.3316
  733MOL0     N98871   9.340   7.563   8.912 -0.1155  0.3598  0.8844
  733MOL0     C98872   8.316   8.138   8.588 -0.0655 -0.1432 -1.4881
  733MOL0     C98873   8.198   8.192   8.515 -0.6254  0.8185 -0.0233
  733MOL0     C98874   7.793   8.276   8.297 -0.2334  0.1253 -0.6935
  733MOL0     C98875   7.680   8.225   8.228 -0.2844  0.5343 -0.8030
  733MOL0     C98876   7.575   8.312   8.195 -0.0147 -0.5109  0.3751
  733MOL0     C98877   7.588   8.446   8.232 -0.8863  0.3085 -0.0530
  733MOL0     O98878   7.484   8.521   8.202  0.5723 -0.3476 -0.4207
  733MOL0     C98879   7.447   8.641   8.285  0.7628 -0.6678  0.2583
  733MOL0     C98880   7.305   8.700   8.280 -0.6560  0.0848 -0.4316
  733MOL0     C98881   7.212   8.611   8.359  0.3898  0.4999  1.1539
  733MOL0     C98882   7.073   8.678   8.372  1.0022 -0.8393 -0.1040
  733MOL0     C98883   7.016   8.690   8.235  1.1246  0.8003 -0.2487
  733MOL0     C98884   6.963   8.707   8.128  0.4142 -1.1709  0.4623
  733MOL0     C98885   7.707   8.493   8.301 -0.2485 -0.4760  0.6014
  733MOL0     C98886   7.808   8.411   8.327 -0.7948  0.3970  0.3375
  733MOL0     C98887   7.935   8.480   8.380  0.5286 -0.3706  1.1395
  733MOL0     H98888   7.976   7.927   8.572  1.1145 -1.1571  1.1192
  733MOL0     H98889   8.168   7.855   8.696  1.2904 -1.3779 -1.8238
  733MOL0     H98890   8.390   8.086   8.864  0.7190  0.7866 -2.8642
  733MOL0     H98891   8.278   7.945   8.892  0.8809  0.6281  0.7181
  733MOL0     H98892   8.445   7.790   8.946  0.8756 -0.2888  0.1696
  733MOL0     H98893   8.462   7.923   9.055 -4.4648 -0.6466 -0.3261
  733MOL0     H98894   8.651   7.996   8.850  2.0452 -0.9854  0.0631
  733MOL0     H98895   8.624   7.822   8.823 -1.5466 -2.1110  1.0570
  733MOL0     H98896   8.716   7.938   9.089  1.8129  0.3728  0.3627
  733MOL0     H98897   8.688   7.770   9.051  3.3285 -0.6281 -0.3318
  733MOL0     H98898   8.846   7.765   8.874  1.6246  0.7803 -0.8556
  733MOL0     H98899   8.893   7.939   8.907 -0.2649 -0.0681 -0.1536
  733MOL0     H98900   8.926   7.865   9.146 -1.8530 -2.5177  0.2081
  733MOL0     H98901   8.932   7.699   9.097  0.1791  0.1501  1.1652
  733MOL0     H98902   9.155   7.790   9.113 -0.3622  0.2283  0.8023
  733MOL0     H98903   9.115   7.910   8.995  0.9722 -0.4012  0.1162
  733MOL0     H98904   9.055   7.656   8.865 -0.0593 -0.8537  0.0576
  733MOL0     H98905   9.196   7.770   8.842 -0.9546  1.4092 -0.4346
  733MOL0     H98906   9.095   7.489   9.128  0.8966 -0.8993  1.5467
  733MOL0     H98907   9.238   7.244   9.155  0.0227 -0.1618  1.1449
  733MOL0     H98908   9.424   7.268   9.146  0.5601  1.1240  3.1323
  733MOL0     H98909   9.402   7.331   9.367 -0.1602  1.0046  1.6146
  733MOL0     H98910   9.369   7.486   9.290 -2.0737  0.8393  3.8780
  733MOL0     H98911   9.114   7.379   9.297 -1.4542  0.9794  2.1331
  733MOL0     H98912   9.189   7.480   9.420  1.1940 -0.3911  0.9999
  733MOL0     H98913   9.105   7.297   9.548 -0.1372 -2.4451  0.3915
  733MOL0     H98914   9.271   7.274   9.550 -2.9413 -0.3208  3.6866
  733MOL0     H98915   9.163   7.153   9.697 -0.5472  0.5634 -0.7151
  733MOL0     H98916   9.141   6.935   9.844  0.4683 -0.3642 -0.2010
  733MOL0     H98917   9.450   6.451   9.732 -0.6165  1.7595  0.6245
  733MOL0     H98918   9.525   6.321   9.948  0.6723  1.1026 -0.7010
  733MOL0     H98919   9.366   6.054  10.237 -1.2824  1.7471  1.3948
  733MOL0     H98920   9.225   6.160  10.218  1.1850  2.5983  0.4409
  733MOL0     H98921   9.203   5.928  10.125  0.5471  0.9707 -1.1734
  733MOL0     H98922   9.177   6.045  10.005  0.1207 -1.1091 -1.3467
  733MOL0     H98923   9.326   5.871   9.901  1.6118 -1.0520 -1.2636
  733MOL0     H98924   9.413   6.020   9.915 -0.1062  0.9587  0.9341
  733MOL0     H98925   9.397   5.761  10.086  1.3638 -0.1249  3.1695
  733MOL0     H98926   9.493   5.908  10.142  0.8517  1.2332 -1.1663
  733MOL0     H98927   9.618   5.916   9.964  0.8484 -1.6219  0.5775
  733MOL0     H98928   9.573   5.753   9.894 -0.5642 -2.6243  1.4521
  733MOL0     H98929   9.778   5.750  10.016  0.0574 -0.8380  0.3341
  733MOL0     H98930   9.699   5.813  10.164  3.7166  2.3934 -1.9801
  733MOL0     H98931   9.591   5.562  10.036  0.0383 -2.2774  1.7755
  733MOL0     H98932   9.558   5.618  10.203 -1.2561  1.4223 -0.0783
  733MOL0     H98933   9.814   5.592  10.251  1.0360 -3.0031  1.6786
  733MOL0     H98934   9.700   5.464  10.244  1.2567 -0.9857 -0.2420
  733MOL0     H98935   9.116   6.302  10.077 -0.9227  2.3047 -0.5263
  733MOL0     H98936   9.063   6.467   9.914  0.9298  1.3725  2.1323
  733MOL0     H98937   9.177   6.697   9.489 -2.0378 -1.0591  0.4413
  733MOL0     H98938   9.176   6.888   9.350 -2.0176 -1.9004  0.0467
  733MOL0     H98939   8.413   8.185   8.596 -1.0937  2.0282 -0.7681
  733MOL0     H98940   8.214   8.290   8.472 -3.0029  2.3206  2.2011
  733MOL0     H98941   7.682   8.120   8.199  2.3523  1.1417 -3.2756
  733MOL0     H98942   7.493   8.271   8.136  0.1890  0.2785 -0.4743
  733MOL0     H98943   7.511   8.716   8.238  1.7043 -0.6507  1.5034
  733MOL0     H98944   7.487   8.620   8.385  0.4686  0.1413  0.5495
  733MOL0     H98945   7.271   8.707   8.176 -0.3723 -0.9316 -0.6004
  733MOL0     H98946   7.301   8.801   8.323 -2.0004  0.0619 -0.4511
  733MOL0     H98947   7.254   8.605   8.459  1.3135 -2.3161  0.6872
  733MOL0     H98948   7.206   8.510   8.319 -2.1854  1.7501 -2.1308
  733MOL0     H98949   7.016   8.617   8.442  0.4605 -1.3490 -0.9616
  733MOL0     H98950   7.080   8.777   8.419  2.1200 -2.0679  2.5253
  733MOL0     H98951   6.934   8.709   8.024  1.2459  0.5096  0.2348
  733MOL0     H98952   7.701   8.600   8.318 -1.1125 -0.1068 -1.7435
  733MOL0     H98953   7.924   8.589   8.371 -1.1142 -0.4378  2.0418
  733MOL0     H98954   7.946   8.462   8.487 -3.7191 -0.2952  1.7615
  733MOL0     H98955   8.017   8.442   8.318  2.4607  0.1735  3.2230
  734MOL0     O98956  10.795   6.776   1.424 -0.3582  0.1742  1.0404
  734MOL0     C98957  10.716   6.838   1.492 -0.0937  1.0059 -0.1067
  734MOL0     O98958  10.716   6.971   1.502  0.0707 -0.1702 -0.2643
  734MOL0     C98959  10.793   7.048   1.420  0.8448 -0.1900 -0.3424
  734MOL0     C98960  10.860   7.159   1.469 -0.3556  0.1806  0.4938
  734MOL0     C98961  10.937   7.249   1.400 -0.1339 -0.1008 -0.6288
  734MOL0     C98962  10.948   7.238   1.263  0.0915  0.3291  0.3811
  734MOL0     O98963  11.002   7.327   1.186 -0.1856 -0.3386 -0.0505
  734MOL0     C98964  11.122   7.299   1.106 -0.4526 -0.4163 -0.0484
  734MOL0     C98965  11.159   7.417   1.028  0.2056  0.6481  0.0016
  734MOL0     C98966  11.056   7.442   0.918  0.1053 -0.0125  0.2302
  734MOL0     C98967  11.081   7.582   0.866  0.4885  0.1233 -0.5948
  734MOL0     C98968  10.981   7.684   0.927 -0.3778 -0.6403 -0.6585
  734MOL0     C98969  11.016   7.826   0.887  0.5091 -0.2575 -0.0913
  734MOL0     C98970  11.143   7.881   0.970 -0.3522  0.4360  0.9944
  734MOL0     C98971  11.159   8.032   0.948  0.4630 -0.5049  0.4349
  734MOL0     N98972  11.287   8.083   1.005 -0.1994  0.0787  0.1773
  734MOL0     C98973  11.407   8.041   0.971  0.9535  0.3137 -0.3986
  734MOL0     C98974  11.496   8.093   1.055 -0.1270 -0.2536 -0.1370
  734MOL0     C98975  11.648   8.067   1.057 -0.5138 -0.3590  0.0426
  734MOL0     C98976  11.720   8.197   1.053  0.1058  0.4498 -0.0093
  734MOL0     C98977  11.863   8.169   1.061 -0.5158 -0.1504  0.3553
  734MOL0     C98978  11.952   8.296   1.059 -0.8083 -0.5176 -0.7059
  734MOL0     O98979  12.007   8.318   1.192 -0.2006  0.1935 -0.0060
  734MOL0     C98980  12.076   8.443   1.213  0.2904  0.1802  0.0812
  734MOL0     C98981  12.117   8.541   1.123  0.8464 -0.3931 -0.1897
  734MOL0     C98982  12.184   8.658   1.153 -0.1773  0.6667 -0.2923
  734MOL0     C98983  12.215   8.686   1.287  0.1608 -0.4301 -0.3204
  734MOL0     C98984  12.296   8.811   1.333  0.8516  0.0385  0.3331
  734MOL0     O98985  12.289   8.846   1.464 -0.0930 -0.2201  0.4257
  734MOL0     C98986  12.358   8.955   1.501 -0.8879  0.6081  0.0546
  734MOL0     C98987  12.494   8.947   1.522  0.3244 -0.3720  0.3430
  734MOL0     C98988  12.558   9.058   1.573 -0.0843 -0.0401 -0.3134
  734MOL0     C98989  12.495   9.180   1.595 -0.3708  0.9322  0.1789
  734MOL0     O98990  12.589   9.282   1.626  0.2537 -0.2580 -0.8708
  734MOL0     C98991  12.517   9.408   1.634  0.1675  0.1741  0.2534
  734MOL0     C98992  12.624   9.519   1.657  0.8178 -1.0299  0.7612
  734MOL0     C98993  12.732   9.539   1.555  0.0963 -0.5163 -0.7578
  734MOL0     C98994  12.839   9.651   1.594  1.1662 -0.1732  0.0127
  734MOL0     C98995  12.777   9.784   1.568 -0.4735 -0.3240  0.0130
  734MOL0     C98996  12.881   9.884   1.602  0.1343 -0.4768 -0.1619
  734MOL0     C98997  12.845  10.030   1.568  0.1946  0.3105  0.1169
  734MOL0     C98998  12.930  10.087   1.454  0.2080 -0.3517 -0.2605
  734MOL0    Cl98999  12.902  10.002   1.300  0.3864  0.0257 -0.3185
  734MOL0     C99000  12.362   9.183   1.558  0.9334 -0.3006 -0.1694
  734MOL0     C99001  12.290   9.069   1.525 -0.6903 -0.5970  0.3315
  734MOL0     O99002  12.367   8.859   1.242 -0.1061 -0.3574  0.1101
  734MOL0     C99003  12.163   8.599   1.381 -0.0540 -0.0086  0.3783
  734MOL0     C99004  12.093   8.476   1.344 -0.3041 -0.1732  0.0092
  734MOL0     N99005  11.416   8.173   1.148  0.4810  0.4627 -0.2616
  734MOL0     N99006  11.290   8.160   1.111 -0.9949 -0.6465 -0.0148
  734MOL0     C99007  10.878   7.121   1.211  0.1643  0.2231  0.2031
  734MOL0     C99008  10.793   7.042   1.281  0.6443  0.1341  0.5605
  734MOL0     C99009  10.625   6.756   1.584 -0.7121 -0.1599 -0.3461
  734MOL0     C99010  10.510   6.822   1.638 -0.2064 -0.1168 -0.1150
  734MOL0     C99011  10.430   6.754   1.727  0.6800 -0.8756 -0.2494
  734MOL0     C99012  10.457   6.624   1.766  0.8203 -0.8019  0.8589
  734MOL0     O99013  10.383   6.575   1.864 -0.0468 -0.2971 -0.8866
  734MOL0     C99014  10.424   6.471   1.955 -0.1413 -0.1329  0.6251
  734MOL0     C99015  10.302   6.459   2.049  0.1159  0.0432 -0.0432
  734MOL0     C99016  10.313   6.357   2.162 -0.1519  0.6599  0.6150
  734MOL0     C99017  10.306   6.206   2.127 -0.1531  0.8125  0.4096
  734MOL0     C99018  10.177   6.154   2.073  1.0774  0.6540 -0.2060
  734MOL0     C99019  10.073   6.089   2.042 -0.0400 -0.1002 -0.7587
  734MOL0     C99020  10.568   6.555   1.718 -0.6894 -0.8234  0.7818
  734MOL0     C99021  10.653   6.624   1.626  0.4779 -0.9395 -0.1484
  734MOL0     C99022  10.782   6.548   1.585 -0.3786  0.3076 -0.3159
  734MOL0     H99023  10.867   7.153   1.577  0.0479 -1.9902  0.3930
  734MOL0     H99024  11.007   7.319   1.443  0.9100 -1.1809 -0.5096
  734MOL0     H99025  11.198   7.278   1.181 -3.9606 -0.5963  3.8170
  734MOL0     H99026  11.110   7.214   1.038  0.8673  0.5291 -1.5290
  734MOL0     H99027  11.257   7.410   0.980 -0.0164  2.7314 -0.8640
  734MOL0     H99028  11.164   7.506   1.092 -0.4716 -0.7481  2.1309
  734MOL0     H99029  10.956   7.425   0.958  0.5172  0.8381  1.7254
  734MOL0     H99030  11.087   7.374   0.838  2.4675  2.3958 -1.0544
  734MOL0     H99031  11.185   7.604   0.892  0.1634 -0.7069  1.6206
  734MOL0     H99032  11.057   7.574   0.759 -0.8829 -3.4983 -0.1799
  734MOL0     H99033  10.881   7.652   0.896  0.3290 -2.2359 -1.3885
  734MOL0     H99034  10.988   7.678   1.036  0.6890  2.4136 -0.4576
  734MOL0     H99035  11.032   7.823   0.779 -1.0989 -2.7384 -0.3349
  734MOL0     H99036  10.926   7.885   0.904  0.2683 -0.5612 -0.3097
  734MOL0     H99037  11.232   7.823   0.944  0.1907  1.9818 -0.8182
  734MOL0     H99038  11.130   7.857   1.076  1.2635 -3.3287  0.5145
  734MOL0     H99039  11.173   8.052   0.842 -1.7445  1.5270  0.4454
  734MOL0     H99040  11.066   8.083   0.977 -1.4699 -2.6025 -1.6945
  734MOL0     H99041  11.427   7.984   0.881  3.3357  0.2893  0.0674
  734MOL0     H99042  11.675   8.007   1.144  2.4811  0.4772 -0.1991
  734MOL0     H99043  11.676   8.001   0.974  0.7701 -2.1438  1.8093
  734MOL0     H99044  11.698   8.249   0.959 -0.4580  0.7412  0.2805
  734MOL0     H99045  11.676   8.258   1.133 -1.1681  1.0740 -1.1329
  734MOL0     H99046  11.890   8.095   0.984 -1.9870  0.5044 -0.8447
  734MOL0     H99047  11.887   8.120   1.156 -0.2404  0.6609  0.7059
  734MOL0     H99048  11.894   8.379   1.020 -0.1277  1.0976  1.5415
  734MOL0     H99049  12.042   8.279   0.999  2.6288  4.2407  2.4163
  734MOL0     H99050  12.110   8.535   1.015  1.6188  3.7108 -0.6289
  734MOL0     H99051  12.221   8.729   1.079 -0.6085  0.6687 -0.5093
  734MOL0     H99052  12.544   8.851   1.510 -0.7926 -1.0818  1.1865
  734MOL0     H99053  12.666   9.056   1.589 -0.2355  1.0942  1.0644
  734MOL0     H99054  12.465   9.430   1.540  1.1000  0.4170 -0.2191
  734MOL0     H99055  12.442   9.408   1.714  1.0112 -0.1219  1.0695
  734MOL0     H99056  12.565   9.611   1.663 -0.7184 -1.7946 -1.4796
  734MOL0     H99057  12.655   9.495   1.760  0.6843 -0.9826  0.8129
  734MOL0     H99058  12.784   9.444   1.539 -0.0476 -0.6599 -0.3739
  734MOL0     H99059  12.694   9.565   1.456 -1.5046  2.0635  0.4314
  734MOL0     H99060  12.917   9.635   1.520  0.6596 -1.0403 -0.3500
  734MOL0     H99061  12.883   9.645   1.694  1.6504  0.1521 -0.1825
  734MOL0     H99062  12.695   9.791   1.639 -0.9782 -0.2924 -0.5634
  734MOL0     H99063  12.737   9.800   1.467  0.6339  2.0655 -0.1220
  734MOL0     H99064  12.889   9.890   1.711 -1.3210  1.9650 -0.1316
  734MOL0     H99065  12.979   9.865   1.557  0.0405  0.4264 -0.7633
  734MOL0     H99066  12.866  10.094   1.654  0.0425 -0.9634  1.1402
  734MOL0     H99067  12.737  10.041   1.555  0.2484 -0.0872 -0.7252
  734MOL0     H99068  12.889  10.187   1.438  0.5607  0.1297  1.5741
  734MOL0     H99069  13.035  10.077   1.483 -0.5411 -1.5769  2.4008
  734MOL0     H99070  12.306   9.276   1.562 -3.2090 -2.5731 -0.1417
  734MOL0     H99071  12.183   9.067   1.510 -0.5429 -1.5968 -0.6789
  734MOL0     H99072  12.191   8.606   1.485 -0.6468 -1.2925  0.6389
  734MOL0     H99073  12.069   8.409   1.426  1.2604  2.6949  3.1304
  734MOL0     H99074  10.880   7.106   1.104 -3.3131 -0.3696  0.1031
  734MOL0     H99075  10.727   6.965   1.242  0.5053 -0.3749  1.7272
  734MOL0     H99076  10.504   6.929   1.622  1.1395 -0.2998 -2.2237
  734MOL0     H99077  10.337   6.802   1.757  0.9905  1.7364 -3.0136
  734MOL0     H99078  10.516   6.499   2.007 -0.7720  0.0726  1.6579
  734MOL0     H99079  10.441   6.375   1.906  2.5265 -1.0063  3.0274
  734MOL0     H99080  10.217   6.441   1.982  0.9429 -2.1183 -0.6037
  734MOL0     H99081  10.286   6.554   2.102 -0.9434  1.2748 -2.4012
  734MOL0     H99082  10.236   6.375   2.238  0.8990  1.2381  1.5801
  734MOL0     H99083  10.413   6.374   2.204  0.7170 -0.7009 -0.8024
  734MOL0     H99084  10.381   6.209   2.047 -0.6631  4.3481 -0.0970
  734MOL0     H99085  10.341   6.147   2.212 -1.1728 -0.2804  0.1012
  734MOL0     H99086   9.988   6.029   2.017 -2.3779  1.5515  2.4757
  734MOL0     H99087  10.585   6.456   1.758 -2.0151 -1.2325  0.3590
  734MOL0     H99088  10.808   6.480   1.666  1.3666  2.2765  0.8747
  734MOL0     H99089  10.772   6.500   1.487 -2.3115 -0.1305  0.0428
  734MOL0     H99090  10.870   6.612   1.594  2.5865 -3.4759  0.1249
  735MOL0     O99091   9.169   3.960  11.207  0.0743  0.0111 -0.7514
  735MOL0     C99092   9.277   3.934  11.258 -0.5806 -0.2858  0.0688
  735MOL0     O99093   9.363   3.837  11.216  1.2622  0.6156  0.4603
  735MOL0     C99094   9.321   3.773  11.103 -0.2659 -0.2311  0.9029
  735MOL0     C99095   9.244   3.668  11.137  0.1481 -0.1436 -0.1388
  735MOL0     C99096   9.201   3.578  11.040 -0.0167  0.1556 -0.7653
  735MOL0     C99097   9.233   3.603  10.898 -0.5703  0.7023  0.6528
  735MOL0     O99098   9.197   3.510  10.804 -0.2150 -0.7790  0.3652
  735MOL0     C99099   9.100   3.416  10.846  0.2790 -0.1025 -0.6067
  735MOL0     C99100   9.026   3.373  10.716 -0.4559  0.6078 -0.4870
  735MOL0     C99101   8.959   3.243  10.739  0.1150  0.5252 -0.6203
  735MOL0     C99102   8.922   3.185  10.597  0.6859  0.3990 -0.2401
  735MOL0     C99103   8.863   3.038  10.619 -0.3221  0.0611  0.9183
  735MOL0     C99104   8.804   2.981  10.495  0.6750 -0.7572  0.7649
  735MOL0     C99105   8.909   2.945  10.394 -0.6827  0.8069 -0.4750
  735MOL0     C99106   8.926   3.051  10.294 -1.0582  0.0508 -0.2073
  735MOL0     N99107   9.064   3.053  10.244  0.1260 -0.5683 -0.3975
  735MOL0     C99108   9.100   2.981  10.129  0.1130  0.3753  0.3520
  735MOL0     C99109   9.234   3.001  10.126 -0.1323  0.1860  0.5488
  735MOL0     C99110   9.325   2.933  10.030  0.4514  0.0511  0.6398
  735MOL0     C99111   9.385   3.044   9.946 -0.2943 -0.3182  0.6250
  735MOL0     C99112   9.291   3.096   9.836 -0.1564 -0.0837  0.0643
  735MOL0     C99113   9.333   3.243   9.818  0.2759 -0.4139 -0.0381
  735MOL0     O99114   9.271   3.322   9.920  0.4439 -0.0464 -0.5685
  735MOL0     C99115   9.140   3.360   9.903 -0.9316  0.1970 -0.3055
  735MOL0     C99116   9.079   3.387   9.781 -0.3166 -0.3363 -0.4634
  735MOL0     C99117   8.944   3.425   9.779  0.1442  0.1976  0.9823
  735MOL0     C99118   8.866   3.428   9.898  0.0858 -0.0669  0.1133
  735MOL0     C99119   8.722   3.458   9.888 -0.1437 -0.9104  0.0109
  735MOL0     O99120   8.670   3.519   9.774  0.4267 -0.0113 -0.6629
  735MOL0     C99121   8.532   3.524   9.769  0.7486 -0.1598 -0.3933
  735MOL0     C99122   8.458   3.475   9.663 -0.9229  0.5153 -0.6922
  735MOL0     C99123   8.319   3.481   9.666  0.5046  0.4263 -0.4343
  735MOL0     C99124   8.253   3.534   9.772  0.4610 -0.0359 -0.1121
  735MOL0     O99125   8.117   3.547   9.745 -0.1855 -0.6555 -1.1712
  735MOL0     C99126   8.039   3.648   9.813  0.3206  0.9448  0.1733
  735MOL0     C99127   7.913   3.650   9.730 -0.1573  0.1221  0.4764
  735MOL0     C99128   7.827   3.784   9.747  0.4481 -0.0707  0.3450
  735MOL0     C99129   7.738   3.775   9.875  0.5166  0.1388 -0.2817
  735MOL0     C99130   7.671   3.898   9.934  1.6252 -0.7291  0.0720
  735MOL0     C99131   7.601   3.986   9.828 -0.0040  0.9066  0.1459
  735MOL0     C99132   7.562   4.123   9.876  1.4236 -0.2641 -0.0256
  735MOL0     C99133   7.500   4.218   9.767 -0.0600  0.2359 -0.3904
  735MOL0    Cl99134   7.635   4.255   9.647 -0.2725  0.1310 -0.1577
  735MOL0     C99135   8.326   3.590   9.874 -0.1525 -0.4063 -0.6007
  735MOL0     C99136   8.459   3.590   9.866  0.2111 -0.3138  0.0909
  735MOL0     O99137   8.669   3.459  10.004 -0.0724 -1.0538  0.0466
  735MOL0     C99138   8.928   3.383  10.018  0.6412 -0.0527  0.1239
  735MOL0     C99139   9.062   3.356  10.016  0.0295  0.3159  0.4578
  735MOL0     N99140   9.276   3.058  10.249 -0.3000 -0.7359 -0.5721
  735MOL0     N99141   9.173   3.089  10.317 -0.2614 -0.0719 -0.4875
  735MOL0     C99142   9.314   3.718  10.870 -0.0157 -0.8129 -0.2926
  735MOL0     C99143   9.354   3.804  10.970 -0.3672 -0.0917 -0.2646
  735MOL0     C99144   9.323   4.000  11.393 -0.2106 -0.3936  0.4704
  735MOL0     C99145   9.457   3.990  11.426 -0.0309 -0.1047 -0.6415
  735MOL0     C99146   9.517   4.057  11.531  0.3565 -0.2615  0.5800
  735MOL0     C99147   9.438   4.137  11.617  0.8727  0.3366 -0.5738
  735MOL0     O99148   9.462   4.214  11.730 -0.4435  0.5568 -0.5637
  735MOL0     C99149   9.598   4.242  11.763  0.4470  0.6271 -0.4461
  735MOL0     C99150   9.621   4.316  11.895  0.4309  0.4997  0.2200
  735MOL0     C99151   9.583   4.469  11.893  1.3643 -0.0082 -0.0955
  735MOL0     C99152   9.699   4.552  11.852 -0.5061  0.6701  0.2397
  735MOL0     C99153   9.811   4.519  11.943 -0.0746  0.1836 -0.1533
  735MOL0     C99154   9.900   4.486  12.017 -0.0885 -0.9067  0.1745
  735MOL0     C99155   9.302   4.150  11.576  0.2645  0.2030  0.2843
  735MOL0     C99156   9.243   4.088  11.469 -0.0265 -0.1930  0.4508
  735MOL0     C99157   9.094   4.116  11.448 -1.0151  0.0793  0.2894
  735MOL0     H99158   9.222   3.656  11.242  4.3760 -1.2718  0.7813
  735MOL0     H99159   9.152   3.493  11.085  1.6513  1.0383  3.1245
  735MOL0     H99160   9.156   3.334  10.893  4.9049  2.4747 -1.0392
  735MOL0     H99161   9.015   3.449  10.906  0.7439 -0.6571  0.3793
  735MOL0     H99162   9.094   3.364  10.630  2.0082 -2.0280  1.5430
  735MOL0     H99163   8.952   3.449  10.688 -1.2892  0.1260  0.3333
  735MOL0     H99164   8.862   3.253  10.788  0.9888 -0.3089  1.3838
  735MOL0     H99165   9.025   3.168  10.785 -1.0740  1.5667  3.1309
  735MOL0     H99166   8.840   3.244  10.555  1.2924  2.3675  1.1736
  735MOL0     H99167   9.016   3.187  10.540  0.4554  2.5433 -0.6553
  735MOL0     H99168   8.932   2.966  10.664  0.9024  0.6536  0.0577
  735MOL0     H99169   8.775   3.040  10.684 -1.7634 -4.1837 -0.5598
  735MOL0     H99170   8.750   2.895  10.536 -0.1622  0.5357  2.5226
  735MOL0     H99171   8.732   3.059  10.469 -0.2427 -1.1721  1.9216
  735MOL0     H99172   8.876   2.858  10.336  2.6720  0.7712 -2.5403
  735MOL0     H99173   9.003   2.925  10.447 -1.7571  0.3106  1.3672
  735MOL0     H99174   8.854   3.036  10.213  1.0679  0.6678 -2.3288
  735MOL0     H99175   8.913   3.150  10.339 -1.9758 -0.6284  1.0748
  735MOL0     H99176   9.026   2.925  10.074 -2.8844  2.3558  2.0708
  735MOL0     H99177   9.395   2.884  10.099 -1.6654  1.6994  4.2248
  735MOL0     H99178   9.285   2.858   9.961  0.1157  0.6985  0.1186
  735MOL0     H99179   9.405   3.124  10.018  0.7266  1.1293 -1.1760
  735MOL0     H99180   9.481   3.011   9.906 -1.7628 -1.4337 -2.2708
  735MOL0     H99181   9.185   3.077   9.857 -1.2711  2.2014 -2.7368
  735MOL0     H99182   9.311   3.043   9.743  3.5018  0.8419  0.2001
  735MOL0     H99183   9.291   3.275   9.722 -0.0404  0.7510  0.4610
  735MOL0     H99184   9.441   3.258   9.814  0.0490  4.2346  2.8327
  735MOL0     H99185   9.130   3.380   9.686  0.0496 -0.5577 -0.2584
  735MOL0     H99186   8.897   3.461   9.688 -2.4148  2.9523  3.2324
  735MOL0     H99187   8.516   3.433   9.582  0.3005 -2.0578  1.3762
  735MOL0     H99188   8.253   3.437   9.593 -0.1256 -3.0320  1.9854
  735MOL0     H99189   8.010   3.620   9.914 -0.4177 -0.9377 -0.5254
  735MOL0     H99190   8.088   3.746   9.812  1.3426  0.4598  0.6962
  735MOL0     H99191   7.950   3.660   9.628 -1.2503 -1.0676 -0.0706
  735MOL0     H99192   7.855   3.557   9.726 -2.8106  1.7121 -1.7516
  735MOL0     H99193   7.889   3.873   9.759 -3.2345  2.8598 -0.1798
  735MOL0     H99194   7.768   3.812   9.659  1.6319 -3.1625 -1.6004
  735MOL0     H99195   7.789   3.717   9.953 -2.3273  1.6418  2.9778
  735MOL0     H99196   7.653   3.715   9.843  1.4549 -0.6995 -1.2396
  735MOL0     H99197   7.740   3.966   9.985  1.4434 -0.5934  0.1394
  735MOL0     H99198   7.597   3.865  10.008  2.0231 -1.7837  0.0157
  735MOL0     H99199   7.677   4.004   9.751  2.0838 -0.4014  1.7934
  735MOL0     H99200   7.516   3.938   9.780 -0.0967  0.3323  0.8675
  735MOL0     H99201   7.655   4.169   9.911  1.4474 -0.9628  0.8673
  735MOL0     H99202   7.487   4.122   9.956 -0.3100  3.7852 -1.3433
  735MOL0     H99203   7.410   4.187   9.713  0.6460 -1.3154 -0.7098
  735MOL0     H99204   7.476   4.307   9.827  1.4779 -0.1000  0.7963
  735MOL0     H99205   8.265   3.643   9.947 -0.1418 -2.6378  1.1685
  735MOL0     H99206   8.518   3.651   9.934  1.5115  1.5323 -2.5423
  735MOL0     H99207   8.874   3.389  10.112 -0.5810  2.9277 -0.6346
  735MOL0     H99208   9.092   3.327  10.117 -2.4690 -0.5536  1.0204
  735MOL0     H99209   9.360   3.724  10.772  1.9134 -1.3867  0.5227
  735MOL0     H99210   9.411   3.896  10.967 -1.1940  0.4090 -2.7856
  735MOL0     H99211   9.530   3.947  11.358  0.3199  1.3235 -1.1962
  735MOL0     H99212   9.618   4.037  11.567  0.1645  0.3806  1.5253
  735MOL0     H99213   9.633   4.293  11.673 -0.2123 -1.1590 -1.7869
  735MOL0     H99214   9.643   4.143  11.777 -3.5564 -1.0569  2.5831
  735MOL0     H99215   9.724   4.293  11.923  1.2363  1.4841 -1.7285
  735MOL0     H99216   9.557   4.267  11.969  0.2921  0.0870 -0.1671
  735MOL0     H99217   9.566   4.502  11.996  1.2401  0.7853 -0.3688
  735MOL0     H99218   9.491   4.481  11.835 -1.9426 -2.7285  3.9351
  735MOL0     H99219   9.719   4.528  11.747 -0.6559  2.0439 -0.1322
  735MOL0     H99220   9.685   4.659  11.872 -1.6251  0.2096  2.1426
  735MOL0     H99221   9.970   4.446  12.088 -2.4363 -0.4775  2.9314
  735MOL0     H99222   9.248   4.219  11.639  0.5034  1.4666 -0.8476
  735MOL0     H99223   9.045   4.026  11.485 -0.8657  0.3900  1.2646
  735MOL0     H99224   9.060   4.203  11.506 -0.5183  1.2964 -1.1848
  735MOL0     H99225   9.068   4.127  11.342 -0.1934  1.3496  0.2022
  736MOL0     O99226   1.938  10.578   3.263 -0.2730 -0.2065  0.2134
  736MOL0     C99227   2.014  10.676   3.273  1.1532  0.2917  0.4167
  736MOL0     O99228   1.986  10.785   3.353  0.3457  0.0035  0.4124
  736MOL0     C99229   1.876  10.791   3.423  0.3637 -0.1157 -0.8026
  736MOL0     C99230   1.813  10.917   3.406 -0.6164  0.1071  0.0773
  736MOL0     C99231   1.692  10.936   3.467  0.3974 -0.1235  1.0005
  736MOL0     C99232   1.624  10.823   3.534  0.2261 -0.6318  0.2711
  736MOL0     O99233   1.504  10.852   3.592  0.4604  0.4532 -0.6817
  736MOL0     C99234   1.469  10.988   3.632 -0.4574  0.0042 -0.9583
  736MOL0     C99235   1.362  11.003   3.739 -0.2171 -0.0416 -0.7241
  736MOL0     C99236   1.231  10.936   3.697  0.5680 -0.3548 -0.5918
  736MOL0     C99237   1.111  10.999   3.779  0.3032 -0.1709  0.1013
  736MOL0     C99238   0.975  10.928   3.771  1.5175 -0.0184  0.5006
  736MOL0     C99239   0.913  10.933   3.629 -0.7143  0.0476 -0.2761
  736MOL0     C99240   0.781  10.858   3.621  0.5631 -1.1279  0.5204
  736MOL0     C99241   0.731  10.853   3.470 -0.4063 -0.2373 -0.2777
  736MOL0     N99242   0.582  10.829   3.454 -0.0163 -0.5499 -0.0779
  736MOL0     C99243   0.502  10.715   3.474  0.3279 -0.9749  0.5560
  736MOL0     C99244   0.375  10.776   3.482 -1.1223  0.7112  0.2401
  736MOL0     C99245   0.241  10.700   3.516 -0.0949 -0.6927  0.6029
  736MOL0     C99246   0.260  10.616   3.637  0.2203  1.0946 -0.0288
  736MOL0     C99247   0.322  10.679   3.765  0.8207 -0.3854  0.0184
  736MOL0     C99248   0.345  10.582   3.880  0.4476 -0.4476  0.5220
  736MOL0     O99249   0.427  10.621   3.995 -0.2685  0.7675 -0.0579
  736MOL0     C99250   0.554  10.580   3.991 -0.0859 -0.4962 -0.0301
  736MOL0     C99251   0.639  10.564   3.880 -0.2140  0.1031  0.2708
  736MOL0     C99252   0.777  10.533   3.887  0.8523  0.1940  0.0414
  736MOL0     C99253   0.835  10.535   4.017 -0.0337  0.2178 -0.0791
  736MOL0     C99254   0.985  10.519   4.038 -0.0554  0.3367 -0.3620
  736MOL0     O99255   1.054  10.544   3.925  0.2338  0.4280 -0.5412
  736MOL0     C99256   1.179  10.602   3.941 -0.3169  0.6431  0.3788
  736MOL0     C99257   1.201  10.710   4.033  0.6171  0.1543  0.0963
  736MOL0     C99258   1.324  10.768   4.046 -0.3637  0.3418  0.2453
  736MOL0     C99259   1.436  10.725   3.966  0.9507 -1.0241  0.3146
  736MOL0     O99260   1.548  10.802   3.996  0.2396  0.5670  0.6303
  736MOL0     C99261   1.662  10.801   3.916  0.6124 -0.7189 -0.2415
  736MOL0     C99262   1.772  10.879   3.984 -0.7661  0.1297  0.3328
  736MOL0     C99263   1.800  10.845   4.124  0.2832 -0.1008 -0.0104
  736MOL0     C99264   1.910  10.955   4.176  0.4533  0.7803 -0.7571
  736MOL0     C99265   1.980  10.898   4.305 -0.4330  0.2354  0.3844
  736MOL0     C99266   1.886  10.815   4.400 -0.1357 -0.1716 -0.5275
  736MOL0     C99267   1.791  10.914   4.471 -0.8396  0.3469  0.4086
  736MOL0     C99268   1.737  10.851   4.599 -0.2046 -0.1804 -0.5832
  736MOL0    Cl99269   1.605  10.733   4.557  0.0763  0.0525 -0.3414
  736MOL0     C99270   1.419  10.620   3.880  0.3279  0.7436  0.1512
  736MOL0     C99271   1.286  10.572   3.858 -0.4215  0.7786 -0.4117
  736MOL0     O99272   1.038  10.478   4.143  1.1553  0.3491 -0.7545
  736MOL0     C99273   0.753  10.549   4.127 -0.2758 -0.7994  0.2113
  736MOL0     C99274   0.616  10.556   4.111 -0.4006 -0.6476  0.0907
  736MOL0     N99275   0.385  10.915   3.464 -0.5733  0.3329  0.1523
  736MOL0     N99276   0.508  10.938   3.442 -0.6677  0.3123 -0.4353
  736MOL0     C99277   1.691  10.701   3.548  0.3389  0.6643 -0.8814
  736MOL0     C99278   1.817  10.684   3.502  0.7888 -1.2137  1.2294
  736MOL0     C99279   2.128  10.692   3.185 -0.2017 -0.4801  0.0670
  736MOL0     C99280   2.198  10.817   3.180  0.9616  0.0833 -0.5826
  736MOL0     C99281   2.305  10.834   3.092 -0.3486 -0.0016  0.1964
  736MOL0     C99282   2.357  10.720   3.031  0.7014 -0.2881 -0.0699
  736MOL0     O99283   2.470  10.748   2.952 -0.0234  0.0965  0.4423
  736MOL0     C99284   2.590  10.704   3.013  0.7515  0.1075  0.6358
  736MOL0     C99285   2.710  10.793   2.969 -0.2509  0.4539 -1.1785
  736MOL0     C99286   2.727  10.792   2.813  0.2947  0.3051 -0.2015
  736MOL0     C99287   2.766  10.654   2.752  0.8325 -0.5314 -0.3136
  736MOL0     C99288   2.757  10.647   2.605 -0.3013 -0.7084 -0.4004
  736MOL0     C99289   2.772  10.637   2.485  0.1358 -0.0459 -0.2441
  736MOL0     C99290   2.300  10.596   3.052 -0.8349  0.5900  0.7569
  736MOL0     C99291   2.189  10.577   3.122  0.7168 -0.3777 -1.4225
  736MOL0     C99292   2.137  10.432   3.118  0.1152  0.4016  0.9314
  736MOL0     H99293   1.869  10.993   3.352 -1.2220  1.3097  1.0850
  736MOL0     H99294   1.638  11.029   3.452  1.2690  1.3283  5.3776
  736MOL0     H99295   1.554  11.040   3.677 -1.7042 -1.4825  3.6115
  736MOL0     H99296   1.434  11.035   3.539  0.1614 -0.2676 -1.3380
  736MOL0     H99297   1.332  11.108   3.743  1.1462  0.4641 -2.5106
  736MOL0     H99298   1.402  10.976   3.837 -1.4643  0.5638 -0.0199
  736MOL0     H99299   1.236  10.828   3.714 -0.7567 -0.1149  2.0296
  736MOL0     H99300   1.213  10.952   3.591 -2.5191  0.3162 -0.0653
  736MOL0     H99301   1.146  11.006   3.882 -0.5923  2.1820  0.3054
  736MOL0     H99302   1.095  11.102   3.748 -0.9390  0.3634  2.3164
  736MOL0     H99303   0.975  10.823   3.802 -3.0621  0.0070  1.3694
  736MOL0     H99304   0.905  10.980   3.838 -2.0855 -0.7891 -2.3311
  736MOL0     H99305   0.908  11.039   3.600  1.7255  0.8933  2.0410
  736MOL0     H99306   0.983  10.881   3.564 -0.7951 -0.4489  0.0289
  736MOL0     H99307   0.706  10.915   3.676  3.0448  0.3361  2.6386
  736MOL0     H99308   0.801  10.755   3.651 -0.1513 -0.7487  2.4209
  736MOL0     H99309   0.778  10.933   3.412  1.3987 -1.2354 -0.2676
  736MOL0     H99310   0.775  10.761   3.432  2.2428  0.3969  0.9911
  736MOL0     H99311   0.527  10.610   3.482  0.6340 -1.0948 -1.5118
  736MOL0     H99312   0.156  10.767   3.529  0.0488 -0.2711 -0.5019
  736MOL0     H99313   0.216  10.631   3.435  2.5050  0.9472 -1.7797
  736MOL0     H99314   0.169  10.565   3.668  0.6814  0.7473  0.7869
  736MOL0     H99315   0.326  10.533   3.610  0.4967  1.5998 -0.9712
  736MOL0     H99316   0.268  10.768   3.800  0.9574  0.8442 -2.6849
  736MOL0     H99317   0.420  10.723   3.747  0.0434  1.6958  0.4954
  736MOL0     H99318   0.397  10.504   3.824 -2.0940 -2.0206  0.2356
  736MOL0     H99319   0.247  10.548   3.913 -1.0779  0.5131 -2.6817
  736MOL0     H99320   0.602  10.568   3.778 -1.6212  4.8456  0.7352
  736MOL0     H99321   0.838  10.515   3.799  0.1498 -3.2423  0.0832
  736MOL0     H99322   1.111  10.731   4.090 -1.7485 -3.6497 -1.7825
  736MOL0     H99323   1.331  10.833   4.133 -1.8175 -3.4721  3.5606
  736MOL0     H99324   1.693  10.698   3.892  3.9303  0.2560 -0.7100
  736MOL0     H99325   1.651  10.862   3.826  2.3147  0.3685  0.2436
  736MOL0     H99326   1.856  10.854   3.918 -2.6727 -0.7044 -1.8920
  736MOL0     H99327   1.751  10.985   3.969 -2.1028 -0.1434  0.1246
  736MOL0     H99328   1.710  10.854   4.186  1.4877 -0.5656  1.8818
  736MOL0     H99329   1.835  10.742   4.127 -2.1485 -0.9645  0.8005
  736MOL0     H99330   1.874  11.056   4.199  1.0903  0.6434  0.9748
  736MOL0     H99331   1.986  10.966   4.098  2.2022 -0.2784  0.7182
  736MOL0     H99332   2.016  10.985   4.361 -0.5109  0.6018 -0.1289
  736MOL0     H99333   2.066  10.836   4.281 -0.5314  0.6006 -1.0032
  736MOL0     H99334   1.826  10.738   4.351 -0.4272 -0.4548  0.2584
  736MOL0     H99335   1.948  10.766   4.476 -0.4980  0.5436  0.2538
  736MOL0     H99336   1.709  10.943   4.405  0.1820  1.1072 -0.5478
  736MOL0     H99337   1.849  11.001   4.501  4.7243 -3.3888  2.0144
  736MOL0     H99338   1.814  10.812   4.665 -0.0192  0.7066 -0.2628
  736MOL0     H99339   1.686  10.931   4.654  0.0051 -0.2162 -0.3388
  736MOL0     H99340   1.493  10.578   3.812 -1.2454  2.2446 -2.6836
  736MOL0     H99341   1.273  10.503   3.775  1.5144  0.1559 -0.2474
  736MOL0     H99342   0.777  10.518   4.229  0.9871  0.0226  0.1797
  736MOL0     H99343   0.547  10.539   4.193  0.7881 -1.0784  1.0514
  736MOL0     H99344   1.633  10.621   3.595 -1.3990  2.4783  0.2049
  736MOL0     H99345   1.870  10.594   3.530 -1.7236 -2.8695  0.9668
  736MOL0     H99346   2.168  10.902   3.241  0.2521 -0.4632 -0.1442
  736MOL0     H99347   2.356  10.929   3.079 -1.3735  0.7369  1.2914
  736MOL0     H99348   2.608  10.605   2.970 -3.4139  0.3583 -2.2115
  736MOL0     H99349   2.589  10.701   3.122 -2.1862 -2.5409  0.6560
  736MOL0     H99350   2.797  10.748   3.017 -1.8535 -0.8812  0.6329
  736MOL0     H99351   2.714  10.897   3.002  0.2002  0.4091 -1.0833
  736MOL0     H99352   2.798  10.866   2.776  0.1035  1.0077  0.8150
  736MOL0     H99353   2.633  10.828   2.769  0.6348 -0.5223 -1.6961
  736MOL0     H99354   2.869  10.633   2.782  0.5691 -4.3807 -1.5191
  736MOL0     H99355   2.702  10.574   2.789  1.7161 -1.1880 -0.1819
  736MOL0     H99356   2.782  10.609   2.383 -2.5407  0.4792 -0.7274
  736MOL0     H99357   2.358  10.519   3.002 -1.2296  0.9652 -0.3123
  736MOL0     H99358   2.216  10.364   3.085  1.0188  1.0919  1.5969
  736MOL0     H99359   2.118  10.377   3.211  0.3530 -0.6375  0.3821
  736MOL0     H99360   2.049  10.413   3.056 -0.3432 -0.0041  1.6801
  737MOL0     O99361   7.154   5.291   6.761 -0.3342 -0.1846 -0.3343
  737MOL0     C99362   7.193   5.320   6.651 -0.1261  0.2028 -0.3537
  737MOL0     O99363   7.255   5.440   6.609 -0.3544 -0.0273  0.2488
  737MOL0     C99364   7.279   5.548   6.694 -0.4186 -0.6323  0.4235
  737MOL0     C99365   7.207   5.580   6.810  0.4373  0.8235  0.2369
  737MOL0     C99366   7.245   5.685   6.890  0.1464 -0.7198 -1.7064
  737MOL0     C99367   7.351   5.772   6.875  1.0832  0.0773 -0.4116
  737MOL0     O99368   7.359   5.872   6.971  0.6991 -0.5100 -0.3992
  737MOL0     C99369   7.460   5.976   6.969 -0.2917  0.2601 -0.4550
  737MOL0     C99370   7.436   6.097   7.064  0.6364 -0.1852 -0.3937
  737MOL0     C99371   7.411   6.056   7.209 -0.2252  0.1980 -1.0239
  737MOL0     C99372   7.384   6.173   7.310 -0.4784 -0.5533  0.2300
  737MOL0     C99373   7.368   6.133   7.459 -0.5427  0.1029  0.6824
  737MOL0     C99374   7.260   6.222   7.526  0.2268  0.1242  0.2285
  737MOL0     C99375   7.213   6.196   7.666 -0.6826 -0.5037  0.4049
  737MOL0     C99376   7.335   6.201   7.765 -0.1697 -0.3002 -0.1344
  737MOL0     N99377   7.381   6.067   7.793  0.6045  0.2854  0.5440
  737MOL0     C99378   7.329   5.960   7.853  1.2962  0.2666 -0.7443
  737MOL0     C99379   7.431   5.872   7.866  1.0512 -0.8618  0.8301
  737MOL0     C99380   7.413   5.759   7.962  0.2198 -0.7078  0.6329
  737MOL0     C99381   7.556   5.698   8.006 -0.2033  0.1490 -0.1733
  737MOL0     C99382   7.522   5.574   8.084 -0.2305  0.2754 -0.8165
  737MOL0     C99383   7.660   5.510   8.123 -0.7366 -0.7724  0.4399
  737MOL0     O99384   7.637   5.376   8.181  0.2313  0.8969 -0.0278
  737MOL0     C99385   7.644   5.356   8.319  0.2500 -0.3846 -0.8165
  737MOL0     C99386   7.666   5.225   8.373 -0.5032 -0.1656  0.2683
  737MOL0     C99387   7.693   5.193   8.511  0.1233  0.2379 -1.0614
  737MOL0     C99388   7.705   5.296   8.593 -0.4728 -0.0459  0.0903
  737MOL0     C99389   7.743   5.281   8.735 -0.7779 -0.4349  0.2848
  737MOL0     O99390   7.676   5.180   8.804  0.2670  0.6091 -0.2512
  737MOL0     C99391   7.709   5.181   8.936 -0.1598  0.0458  0.2660
  737MOL0     C99392   7.672   5.276   9.037  0.2168  0.3553  0.0148
  737MOL0     C99393   7.685   5.248   9.173 -0.0205  0.5613 -0.0783
  737MOL0     C99394   7.748   5.123   9.213  0.8234 -0.0926 -0.0363
  737MOL0     O99395   7.746   5.077   9.338  0.2836 -0.1066  0.7505
  737MOL0     C99396   7.644   4.977   9.366 -0.7712  0.1522 -0.3611
  737MOL0     C99397   7.501   5.015   9.350  0.4869  0.8863  0.3725
  737MOL0     C99398   7.477   5.116   9.462  0.6927 -0.2522 -0.1999
  737MOL0     C99399   7.331   5.145   9.479 -0.9434 -1.3142 -0.4402
  737MOL0     C99400   7.306   5.228   9.612  0.6694  0.6645 -1.0266
  737MOL0     C99401   7.154   5.254   9.633 -0.0369 -0.5681 -0.6974
  737MOL0     C99402   7.149   5.343   9.762 -0.2940  0.3887 -0.4026
  737MOL0     C99403   7.015   5.337   9.832  0.0383  0.2597  0.8549
  737MOL0    Cl99404   7.040   5.388  10.001 -0.0123 -0.0652 -0.1200
  737MOL0     C99405   7.797   5.038   9.113 -0.1835 -0.1416 -0.9215
  737MOL0     C99406   7.773   5.067   8.979 -0.3432 -1.3107 -0.0526
  737MOL0     O99407   7.817   5.364   8.786 -0.1380 -0.2052  0.5193
  737MOL0     C99408   7.680   5.436   8.547 -0.2538  0.0577  0.0880
  737MOL0     C99409   7.651   5.469   8.411  0.4255 -0.0029  0.2558
  737MOL0     N99410   7.543   5.909   7.793  0.2097 -0.9491 -0.0401
  737MOL0     N99411   7.512   6.034   7.761 -0.0767 -0.1228 -0.1639
  737MOL0     C99412   7.414   5.745   6.754 -0.4135 -0.7833  0.7496
  737MOL0     C99413   7.382   5.641   6.664 -0.0927  1.4668 -0.1533
  737MOL0     C99414   7.192   5.208   6.561  1.2644  0.0903  0.0267
  737MOL0     C99415   7.214   5.081   6.613 -0.4536  0.0410  0.5237
  737MOL0     C99416   7.223   4.965   6.535  0.0102  0.1644  0.2477
  737MOL0     C99417   7.228   4.975   6.394 -0.6916 -0.4250  0.4685
  737MOL0     O99418   7.258   4.877   6.299  0.3142 -0.3286  0.2259
  737MOL0     C99419   7.270   4.743   6.337 -0.7408  0.5352 -1.3065
  737MOL0     C99420   7.418   4.735   6.372 -1.0235  0.0124  0.0898
  737MOL0     C99421   7.505   4.712   6.243 -0.7204 -0.0697  0.9945
  737MOL0     C99422   7.645   4.771   6.268 -0.5877 -0.8270 -0.0998
  737MOL0     C99423   7.734   4.760   6.157 -0.1848 -0.6998  0.6051
  737MOL0     C99424   7.817   4.760   6.075  0.3137 -0.2505 -0.9368
  737MOL0     C99425   7.207   5.101   6.337  0.3869 -0.1142 -0.0019
  737MOL0     C99426   7.162   5.211   6.419  0.2211 -0.7830  0.0522
  737MOL0     C99427   7.123   5.339   6.333 -0.2537 -0.1696 -0.6335
  737MOL0     H99428   7.112   5.531   6.831  1.3218 -0.4207  1.5851
  737MOL0     H99429   7.189   5.701   6.982  2.6059  1.4189 -0.4335
  737MOL0     H99430   7.557   5.938   7.003 -0.2855 -2.2195 -2.9302
  737MOL0     H99431   7.466   6.035   6.877 -1.7987  0.4155 -0.4675
  737MOL0     H99432   7.349   6.157   7.035  0.1909  0.9592  2.8745
  737MOL0     H99433   7.522   6.164   7.068 -1.4529  2.5823  2.7543
  737MOL0     H99434   7.498   6.000   7.246 -0.7367 -1.6836 -2.4962
  737MOL0     H99435   7.318   6.000   7.221  0.4013 -0.6770 -0.0752
  737MOL0     H99436   7.459   6.251   7.296 -0.2537 -0.6386  0.9163
  737MOL0     H99437   7.293   6.223   7.277  0.3608  0.6708 -0.2695
  737MOL0     H99438   7.346   6.026   7.462  0.5947 -0.2488 -1.4316
  737MOL0     H99439   7.467   6.149   7.502 -0.9923  1.8825  1.1434
  737MOL0     H99440   7.289   6.327   7.513  1.9459 -0.5042 -1.6884
  737MOL0     H99441   7.166   6.227   7.470  1.9372  2.3242 -2.7891
  737MOL0     H99442   7.158   6.103   7.676  0.8993 -1.8688 -2.3378
  737MOL0     H99443   7.144   6.277   7.690 -1.6559 -0.7830 -1.3148
  737MOL0     H99444   7.418   6.251   7.715 -0.7308  2.4652  1.4996
  737MOL0     H99445   7.310   6.252   7.858  2.6688  1.4001 -0.1736
  737MOL0     H99446   7.228   5.958   7.893  1.3997 -1.5743 -0.5243
  737MOL0     H99447   7.349   5.782   8.047 -0.0719 -1.9476  0.7707
  737MOL0     H99448   7.371   5.672   7.910  1.5363 -1.7534  1.2622
  737MOL0     H99449   7.617   5.682   7.917  1.5730  2.1824  0.5949
  737MOL0     H99450   7.600   5.773   8.073 -1.3370  1.1928 -0.5543
  737MOL0     H99451   7.459   5.507   8.024 -1.1808  0.1369  0.3012
  737MOL0     H99452   7.474   5.595   8.180 -0.6589 -0.3191 -0.8929
  737MOL0     H99453   7.729   5.578   8.173 -1.1199 -0.2240  0.2368
  737MOL0     H99454   7.725   5.500   8.036  1.0705  1.6507  1.4029
  737MOL0     H99455   7.672   5.148   8.296 -3.7568  1.2237 -1.5799
  737MOL0     H99456   7.720   5.092   8.541 -0.4373 -0.3387 -2.4396
  737MOL0     H99457   7.626   5.369   9.004 -0.9054 -0.7336 -1.6791
  737MOL0     H99458   7.638   5.315   9.243 -1.3407 -1.6887  1.3311
  737MOL0     H99459   7.668   4.883   9.316 -3.9226  0.1043 -2.0529
  737MOL0     H99460   7.658   4.940   9.468  2.6857 -0.7012 -1.0436
  737MOL0     H99461   7.476   5.051   9.250 -1.6534  1.9594  1.2461
  737MOL0     H99462   7.447   4.920   9.361  0.6737  0.7207 -0.1054
  737MOL0     H99463   7.512   5.077   9.558  2.9687  3.2888  0.5853
  737MOL0     H99464   7.529   5.211   9.448 -1.7247  1.2582  0.4844
  737MOL0     H99465   7.277   5.050   9.476 -0.7577 -1.4422  0.2162
  737MOL0     H99466   7.295   5.209   9.398  1.5532 -0.0670 -0.6468
  737MOL0     H99467   7.358   5.322   9.594  2.3937 -0.1994 -0.8430
  737MOL0     H99468   7.345   5.168   9.695  0.1769 -1.4485 -2.2487
  737MOL0     H99469   7.110   5.310   9.550  0.3934 -1.0846 -1.2929
  737MOL0     H99470   7.113   5.153   9.636  3.2469 -2.2113 -3.6507
  737MOL0     H99471   7.169   5.449   9.747  3.4176  0.0587  1.0598
  737MOL0     H99472   7.226   5.308   9.831 -0.8413 -2.4402 -1.0744
  737MOL0     H99473   6.943   5.398   9.776  0.6789  0.8740  0.6727
  737MOL0     H99474   6.975   5.236   9.834  0.7442 -0.2029 -2.5007
  737MOL0     H99475   7.842   4.943   9.142 -0.2157 -0.7982 -2.9253
  737MOL0     H99476   7.812   4.993   8.910 -0.0946 -0.3545 -0.9643
  737MOL0     H99477   7.692   5.516   8.620 -1.6458 -0.1224  0.5412
  737MOL0     H99478   7.642   5.575   8.388  1.4839  0.1268  0.3919
  737MOL0     H99479   7.482   5.824   6.725 -0.7157 -0.7712  0.0543
  737MOL0     H99480   7.436   5.646   6.571 -1.6506  1.8655 -1.0765
  737MOL0     H99481   7.208   5.069   6.721 -0.1923 -0.1119  0.5230
  737MOL0     H99482   7.214   4.864   6.574  1.0695  0.1667  0.5175
  737MOL0     H99483   7.237   4.673   6.260 -0.2602  2.2528 -3.1710
  737MOL0     H99484   7.212   4.713   6.424 -1.2937  3.8945 -0.3867
  737MOL0     H99485   7.441   4.654   6.442 -0.3796  0.4546  0.4051
  737MOL0     H99486   7.454   4.822   6.428  2.4370 -1.0768 -0.2209
  737MOL0     H99487   7.470   4.770   6.157  0.5461 -0.9065 -0.1244
  737MOL0     H99488   7.508   4.610   6.206 -0.3183  0.9877 -2.2161
  737MOL0     H99489   7.639   4.872   6.309  1.2051 -1.7096  2.6397
  737MOL0     H99490   7.694   4.717   6.350  1.7735  0.1324 -0.7790
  737MOL0     H99491   7.895   4.743   6.003  0.6136  0.2367 -0.7306
  737MOL0     H99492   7.188   5.096   6.230 -2.0260 -0.2542  0.3593
  737MOL0     H99493   7.073   5.412   6.397  0.0575 -1.4543  1.1810
  737MOL0     H99494   7.213   5.392   6.300 -0.1220  1.9478  2.6480
  737MOL0     H99495   7.060   5.302   6.252  0.8732 -1.2205 -1.0785
  738MOL0     O99496   8.872   5.717   7.304 -0.0031  0.7767 -0.0629
  738MOL0     C99497   8.950   5.681   7.217 -0.0078 -0.1765  0.3599
  738MOL0     O99498   9.084   5.649   7.242 -0.3848 -0.5990  0.5968
  738MOL0     C99499   9.141   5.649   7.366  0.3606 -0.6255 -0.5908
  738MOL0     C99500   9.279   5.667   7.381 -0.3073 -0.7969  0.2260
  738MOL0     C99501   9.361   5.659   7.495  0.0609  1.1392 -0.3571
  738MOL0     C99502   9.293   5.633   7.617  0.1666 -0.3861 -0.5747
  738MOL0     O99503   9.355   5.612   7.743  0.1885 -0.4775 -0.2164
  738MOL0     C99504   9.468   5.530   7.749 -0.5382 -0.2449  0.0258
  738MOL0     C99505   9.432   5.387   7.729  0.0345 -0.1743 -0.0318
  738MOL0     C99506   9.347   5.331   7.843  0.3922  0.5628  0.2727
  738MOL0     C99507   9.198   5.363   7.854  0.8479 -0.0207 -0.2082
  738MOL0     C99508   9.125   5.292   7.970 -0.9019 -0.0172 -0.7007
  738MOL0     C99509   9.099   5.149   7.941  0.8091  0.5210  0.5453
  738MOL0     C99510   9.005   5.081   8.036 -0.4308  0.3209  0.0681
  738MOL0     C99511   9.019   4.934   8.034  0.2632  0.5746 -0.4931
  738MOL0     N99512   8.898   4.865   8.093 -0.0434 -0.5126 -0.0471
  738MOL0     C99513   8.833   4.892   8.215 -0.3789  0.2322 -0.1428
  738MOL0     C99514   8.744   4.790   8.229 -0.1814  0.0768 -0.0210
  738MOL0     C99515   8.649   4.759   8.344 -0.5544  1.4608 -0.2815
  738MOL0     C99516   8.674   4.654   8.455  0.7709  0.7455 -0.0430
  738MOL0     C99517   8.553   4.637   8.549 -0.0302 -0.1626  0.0151
  738MOL0     C99518   8.592   4.576   8.686  0.5151 -0.4458 -0.5342
  738MOL0     O99519   8.660   4.448   8.673 -0.1635  0.0077  0.4926
  738MOL0     C99520   8.657   4.365   8.778 -0.1362 -0.2899  1.2621
  738MOL0     C99521   8.686   4.225   8.754 -0.3052 -0.3911 -0.9619
  738MOL0     C99522   8.663   4.136   8.849 -0.6244  0.5398  0.4086
  738MOL0     C99523   8.627   4.170   8.982  0.2644  0.3834 -0.2958
  738MOL0     C99524   8.601   4.060   9.083  0.0753 -0.3267  0.1841
  738MOL0     O99525   8.603   3.929   9.032 -0.2671 -0.5203 -0.7112
  738MOL0     C99526   8.556   3.823   9.114 -0.5757 -0.3668  1.1191
  738MOL0     C99527   8.422   3.808   9.138 -0.2905  0.4951  1.0824
  738MOL0     C99528   8.366   3.693   9.197  0.4604 -0.0554  0.4564
  738MOL0     C99529   8.454   3.593   9.227  0.3704  0.4142  1.2163
  738MOL0     O99530   8.407   3.478   9.293  0.7691 -0.4630 -0.6000
  738MOL0     C99531   8.315   3.405   9.211  0.6322 -0.1059 -0.6558
  738MOL0     C99532   8.249   3.293   9.293  0.4089 -0.1515  0.4538
  738MOL0     C99533   8.117   3.344   9.355  0.4143 -0.6684  0.3149
  738MOL0     C99534   8.073   3.246   9.470  0.1355  0.0741 -0.0020
  738MOL0     C99535   7.924   3.259   9.516 -0.7580  0.0026  1.0752
  738MOL0     C99536   7.846   3.155   9.438 -0.2119 -0.0049  0.8886
  738MOL0     C99537   7.845   3.021   9.498 -0.1867 -0.6684 -0.2981
  738MOL0     C99538   7.739   2.936   9.433  0.6090  0.2709 -0.7009
  738MOL0    Cl99539   7.706   2.779   9.524  0.2624 -0.2238  0.1311
  738MOL0     C99540   8.589   3.615   9.221 -0.1523 -0.5569 -0.5436
  738MOL0     C99541   8.643   3.725   9.155 -0.0816 -0.7765 -0.2633
  738MOL0     O99542   8.562   4.087   9.197 -0.3884 -0.6431  0.6322
  738MOL0     C99543   8.620   4.305   9.017 -0.6587  0.2435  0.1863
  738MOL0     C99544   8.626   4.402   8.908 -0.0446 -0.5137 -0.2371
  738MOL0     N99545   8.751   4.713   8.111 -0.4543 -0.1334  0.3299
  738MOL0     N99546   8.840   4.757   8.028 -0.2708 -0.0265 -1.1439
  738MOL0     C99547   9.157   5.617   7.606  0.3706  0.1410 -0.7553
  738MOL0     C99548   9.081   5.607   7.494  0.1150  1.0406 -0.2254
  738MOL0     C99549   8.910   5.682   7.074 -0.5671 -0.8184  0.1745
  738MOL0     C99550   8.977   5.603   6.985 -0.7506 -0.8652  0.4015
  738MOL0     C99551   8.949   5.596   6.840 -0.0303 -1.3281 -0.2816
  738MOL0     C99552   8.832   5.661   6.788 -1.0194  0.0894  0.1407
  738MOL0     O99553   8.804   5.636   6.653  0.6471  0.4443 -0.6986
  738MOL0     C99554   8.726   5.730   6.578 -0.3238  0.4072 -0.5242
  738MOL0     C99555   8.640   5.653   6.484 -0.2603 -0.5703  1.0460
  738MOL0     C99556   8.726   5.589   6.371 -0.2974  0.6800 -0.8829
  738MOL0     C99557   8.631   5.522   6.267 -0.0098  0.2051 -0.1962
  738MOL0     C99558   8.711   5.478   6.149  0.3467 -0.1982 -0.2314
  738MOL0     C99559   8.790   5.461   6.057 -0.3611  0.3110 -0.5594
  738MOL0     C99560   8.756   5.732   6.885 -0.6922 -1.1713 -0.5650
  738MOL0     C99561   8.791   5.739   7.017 -0.1288  0.1151 -0.8674
  738MOL0     C99562   8.703   5.828   7.107 -0.2842 -0.2383 -0.4823
  738MOL0     H99563   9.325   5.713   7.294  0.0060  2.2290  1.8468
  738MOL0     H99564   9.465   5.686   7.511  0.1732  0.3962  0.2545
  738MOL0     H99565   9.540   5.562   7.674 -0.1517 -4.5963 -1.7558
  738MOL0     H99566   9.521   5.546   7.843  1.8969 -1.7420 -0.9998
  738MOL0     H99567   9.527   5.333   7.719 -0.5699 -1.2272 -0.3036
  738MOL0     H99568   9.380   5.382   7.633 -0.5516 -1.9697  0.3294
  738MOL0     H99569   9.399   5.369   7.932  1.3359 -0.6330  0.2460
  738MOL0     H99570   9.347   5.222   7.835 -0.2733  0.5475  0.4041
  738MOL0     H99571   9.197   5.471   7.864  0.6209  0.0919 -1.3013
  738MOL0     H99572   9.147   5.342   7.759  1.4834 -0.4017 -0.4762
  738MOL0     H99573   9.178   5.308   8.065  0.0689  1.4381 -1.4480
  738MOL0     H99574   9.028   5.341   7.978 -0.6057  0.2981  1.7779
  738MOL0     H99575   9.058   5.142   7.840  0.1744  1.9052  0.6783
  738MOL0     H99576   9.198   5.105   7.944  1.4829  1.8621 -0.7180
  738MOL0     H99577   8.909   5.108   7.992  0.2268 -0.8927 -2.2685
  738MOL0     H99578   9.003   5.113   8.141 -1.3042 -0.3722  0.2788
  738MOL0     H99579   9.035   4.900   7.931  3.7031  1.3481 -0.3408
  738MOL0     H99580   9.111   4.912   8.088 -0.0298 -2.3445 -1.0355
  738MOL0     H99581   8.842   4.973   8.286  1.9978 -1.2536  1.4120
  738MOL0     H99582   8.612   4.847   8.397 -1.2112  1.4582 -0.7183
  738MOL0     H99583   8.561   4.721   8.290  0.0390  1.6316 -1.4026
  738MOL0     H99584   8.690   4.555   8.412  3.3427  0.9497  0.3140
  738MOL0     H99585   8.762   4.684   8.513  0.8130  1.1341 -0.2990
  738MOL0     H99586   8.471   4.579   8.504 -1.8848  1.0377  1.6436
  738MOL0     H99587   8.521   4.738   8.578  0.7916 -0.3626  1.7057
  738MOL0     H99588   8.503   4.560   8.748 -0.0762  2.7814 -0.4056
  738MOL0     H99589   8.653   4.646   8.744 -1.6660 -0.4837  2.0496
  738MOL0     H99590   8.703   4.189   8.653  3.2847 -3.3007  0.4485
  738MOL0     H99591   8.675   4.031   8.823 -0.3659  1.2347 -2.5946
  738MOL0     H99592   8.371   3.898   9.104 -1.4770 -0.7718 -0.7074
  738MOL0     H99593   8.259   3.677   9.211  0.2956  1.3332  0.8730
  738MOL0     H99594   8.243   3.474   9.166  0.7730 -0.0972 -0.8711
  738MOL0     H99595   8.374   3.354   9.134  0.5154  0.7233 -1.3063
  738MOL0     H99596   8.233   3.213   9.219 -2.7523  1.3662 -0.6737
  738MOL0     H99597   8.324   3.255   9.363 -1.0720 -1.7852  1.2328
  738MOL0     H99598   8.141   3.441   9.402 -0.2370  0.4900 -1.6423
  738MOL0     H99599   8.041   3.357   9.278  1.8129  1.3674 -0.8211
  738MOL0     H99600   8.148   3.253   9.550  0.7456 -0.0585 -0.5471
  738MOL0     H99601   8.077   3.144   9.431  1.4422 -0.1137  0.5514
  738MOL0     H99602   7.886   3.357   9.485  0.8401 -0.3810 -2.6617
  738MOL0     H99603   7.911   3.242   9.623 -0.0272  1.6782  1.4590
  738MOL0     H99604   7.745   3.198   9.443 -0.8611 -1.3072 -0.3396
  738MOL0     H99605   7.864   3.162   9.330 -3.0280  2.5653  0.4276
  738MOL0     H99606   7.819   3.024   9.604  0.2623 -3.5673 -0.0246
  738MOL0     H99607   7.942   2.971   9.489  0.1156 -0.3067  0.8044
  738MOL0     H99608   7.653   3.000   9.411  1.2724  1.1937 -0.6335
  738MOL0     H99609   7.767   2.910   9.331 -1.4073 -3.2611 -0.5116
  738MOL0     H99610   8.654   3.539   9.264  1.8430  1.3210 -0.0541
  738MOL0     H99611   8.748   3.753   9.158 -0.5694  1.4277 -1.1924
  738MOL0     H99612   8.589   4.343   9.114  0.7171 -2.4056  1.7957
  738MOL0     H99613   8.623   4.508   8.930 -0.6583  0.1095 -2.9620
  738MOL0     H99614   9.104   5.600   7.700  0.9954 -0.1014 -0.4434
  738MOL0     H99615   8.978   5.576   7.503  0.3735 -0.0032 -0.7121
  738MOL0     H99616   9.058   5.539   7.019 -0.0171 -0.3609 -0.3511
  738MOL0     H99617   8.997   5.522   6.778 -1.1943 -2.4699  0.1267
  738MOL0     H99618   8.800   5.784   6.519  3.0661 -1.9066  1.2486
  738MOL0     H99619   8.671   5.801   6.640  3.0308  2.0480  0.8090
  738MOL0     H99620   8.564   5.700   6.421  0.3380 -2.7170 -1.4355
  738MOL0     H99621   8.584   5.570   6.530  1.0604 -1.2789  1.4302
  738MOL0     H99622   8.797   5.519   6.417  0.9276  2.4665  0.0857
  738MOL0     H99623   8.785   5.663   6.317  1.2351 -1.4132 -2.2819
  738MOL0     H99624   8.588   5.433   6.315  0.3127 -0.2008 -0.6499
  738MOL0     H99625   8.549   5.584   6.231 -1.4873 -2.7704 -2.4584
  738MOL0     H99626   8.861   5.440   5.979  2.7493  2.2218  1.5103
  738MOL0     H99627   8.665   5.771   6.840 -0.0350 -2.8644 -3.5829
  738MOL0     H99628   8.618   5.863   7.047 -0.6264  0.2693  0.2829
  738MOL0     H99629   8.664   5.780   7.198 -2.4776  1.2884 -0.5157
  738MOL0     H99630   8.763   5.915   7.134  1.5946 -0.6608 -2.9521
  739MOL0     O99631   3.242   4.501  10.497 -0.0219  0.0363 -0.1083
  739MOL0     C99632   3.275   4.538  10.387  0.6922  1.0382 -0.4694
  739MOL0     O99633   3.238   4.471  10.271  0.1447 -0.0793  0.0250
  739MOL0     C99634   3.132   4.381  10.266  0.1686  0.8104 -0.3668
  739MOL0     C99635   3.019   4.383  10.353  0.4178  0.5764  0.0056
  739MOL0     C99636   2.917   4.280  10.338  0.0076  0.0079  0.2048
  739MOL0     C99637   2.932   4.180  10.240 -0.6990  0.4307 -0.3493
  739MOL0     O99638   2.841   4.081  10.216 -0.5227 -0.0697  0.1811
  739MOL0     C99639   2.727   4.054  10.292  0.6699 -0.1409 -0.7274
  739MOL0     C99640   2.669   3.911  10.258 -0.3873  0.9037  0.2268
  739MOL0     C99641   2.665   3.899  10.098 -0.1759  0.1705 -0.6421
  739MOL0     C99642   2.531   3.936  10.040  0.8970 -0.7093 -0.4988
  739MOL0     C99643   2.548   3.920   9.890  0.8388  0.1833 -0.1249
  739MOL0     C99644   2.416   3.965   9.819 -0.5302  0.1764 -0.3844
  739MOL0     C99645   2.443   3.995   9.680  0.1980 -0.5289  0.3567
  739MOL0     C99646   2.323   4.065   9.609 -0.6474  0.3827 -0.7443
  739MOL0     N99647   2.373   4.141   9.487  0.5972 -0.5122 -1.2624
  739MOL0     C99648   2.447   4.261   9.497 -0.0516 -1.2708 -0.2804
  739MOL0     C99649   2.466   4.310   9.378  0.3518  0.0696  0.7680
  739MOL0     C99650   2.541   4.432   9.336  0.1881 -0.5726 -0.6135
  739MOL0     C99651   2.691   4.396   9.341  0.3432 -0.5682  0.4248
  739MOL0     C99652   2.785   4.522   9.327 -0.2751 -0.1579 -0.5379
  739MOL0     C99653   2.793   4.608   9.457  0.7919  0.6675 -0.4805
  739MOL0     O99654   2.882   4.713   9.450 -0.0240 -0.0120 -0.7982
  739MOL0     C99655   2.916   4.786   9.560  0.8046 -0.0974  0.3740
  739MOL0     C99656   3.015   4.884   9.547 -0.5016  0.9230 -0.3590
  739MOL0     C99657   3.047   4.967   9.657 -0.1245 -0.5102 -0.1872
  739MOL0     C99658   2.973   4.954   9.778  0.3334 -0.0396  0.9809
  739MOL0     C99659   3.025   5.027   9.892  0.1558  0.1251 -0.0451
  739MOL0     O99660   3.089   5.145   9.872 -0.0270 -0.2977  0.0795
  739MOL0     C99661   3.106   5.239   9.966 -0.4498 -0.5990 -0.0861
  739MOL0     C99662   3.186   5.351   9.936  0.7136 -0.6412 -0.5332
  739MOL0     C99663   3.193   5.455  10.029 -0.5089 -0.0056  1.0441
  739MOL0     C99664   3.115   5.459  10.138 -0.6328 -1.2745 -1.3708
  739MOL0     O99665   3.139   5.573  10.215  0.6070 -0.3529  0.1412
  739MOL0     C99666   3.026   5.641  10.261 -0.6332 -0.5906  0.3022
  739MOL0     C99667   3.053   5.751  10.357 -0.2622 -0.0492  1.2042
  739MOL0     C99668   3.140   5.711  10.476 -0.6011  0.3549 -0.6499
  739MOL0     C99669   3.175   5.832  10.561  0.4965 -0.1214 -0.6529
  739MOL0     C99670   3.159   5.797  10.710 -0.0338 -0.3500 -0.3704
  739MOL0     C99671   3.239   5.672  10.750  0.4634  0.4885 -0.0647
  739MOL0     C99672   3.269   5.672  10.899  1.0474 -0.0622  0.0042
  739MOL0     C99673   3.391   5.595  10.939  0.4871 -1.4369 -0.9895
  739MOL0    Cl99674   3.394   5.595  11.131  0.0067  0.1269 -0.2517
  739MOL0     C99675   3.027   5.354  10.169 -1.2158 -0.4564  0.6769
  739MOL0     C99676   3.019   5.250  10.079  1.1334  0.6356 -0.0419
  739MOL0     O99677   3.013   4.973  10.000 -0.8593 -0.4836 -0.3249
  739MOL0     C99678   2.867   4.862   9.787 -0.7798 -0.0637  0.1716
  739MOL0     C99679   2.842   4.784   9.676  0.8643  0.2022 -0.3777
  739MOL0     N99680   2.405   4.221   9.285  0.3095 -0.4896  0.0057
  739MOL0     N99681   2.352   4.123   9.354  0.3343 -0.1272  0.2701
  739MOL0     C99682   3.053   4.176  10.166  0.4743  0.0540  1.2191
  739MOL0     C99683   3.151   4.273  10.181 -0.8496 -1.0746 -0.4483
  739MOL0     C99684   3.368   4.652  10.373  0.2019  0.7735  0.5905
  739MOL0     C99685   3.425   4.679  10.247 -0.8020  0.9036  0.2362
  739MOL0     C99686   3.520   4.781  10.230  0.0224 -0.1967 -0.0599
  739MOL0     C99687   3.541   4.876  10.327  0.2612  0.8956 -0.6484
  739MOL0     O99688   3.626   4.986  10.316 -0.0749  0.0981 -0.4145
  739MOL0     C99689   3.594   5.076  10.207  0.4510  0.1769 -0.0955
  739MOL0     C99690   3.678   5.208  10.207 -0.5206 -0.5703 -0.1226
  739MOL0     C99691   3.624   5.309  10.102 -0.2987 -0.6907  0.5729
  739MOL0     C99692   3.699   5.443  10.111 -0.7264  0.2292  0.7735
  739MOL0     C99693   3.840   5.433  10.062 -0.1627 -0.2694 -0.3293
  739MOL0     C99694   3.939   5.423   9.991  0.9247 -0.9464  0.2614
  739MOL0     C99695   3.477   4.856  10.451 -0.5785  0.1317  0.4930
  739MOL0     C99696   3.389   4.755  10.469  0.3198  0.4999 -0.0892
  739MOL0     C99697   3.329   4.742  10.609 -0.2954  0.5650  0.6522
  739MOL0     H99698   2.992   4.464  10.419 -0.4599  1.2141 -1.0825
  739MOL0     H99699   2.824   4.290  10.393 -0.0358 -1.7907  0.5188
  739MOL0     H99700   2.752   4.054  10.398 -1.5249 -0.2770 -0.1662
  739MOL0     H99701   2.655   4.135  10.276 -1.0206 -1.8099 -1.9125
  739MOL0     H99702   2.572   3.889  10.305 -1.4353  1.4922 -1.5378
  739MOL0     H99703   2.741   3.839  10.296 -0.4377  1.0934  0.6931
  739MOL0     H99704   2.687   3.793  10.083 -1.0905  0.1539 -2.0085
  739MOL0     H99705   2.745   3.952  10.045 -0.1403 -0.0988 -0.8562
  739MOL0     H99706   2.458   3.863  10.076 -1.2263  2.5757  2.5581
  739MOL0     H99707   2.492   4.035  10.064  0.0965 -1.5259  1.8863
  739MOL0     H99708   2.619   3.985   9.838 -3.2157  1.0251 -5.4977
  739MOL0     H99709   2.560   3.812   9.879 -0.4542 -0.0960  1.0071
  739MOL0     H99710   2.335   3.892   9.817 -0.7507  0.4301 -1.4860
  739MOL0     H99711   2.385   4.054   9.875 -2.2587 -0.7791  0.2533
  739MOL0     H99712   2.471   3.901   9.633 -0.7518 -1.7829  2.1624
  739MOL0     H99713   2.527   4.065   9.680 -0.6126  0.8000  5.0286
  739MOL0     H99714   2.269   3.983   9.562  1.3331 -1.4169 -0.0198
  739MOL0     H99715   2.251   4.118   9.672 -0.4746 -1.3601  0.9933
  739MOL0     H99716   2.477   4.312   9.588  0.2644  1.2783 -1.7254
  739MOL0     H99717   2.519   4.471   9.236  0.1422 -0.4281 -0.5455
  739MOL0     H99718   2.531   4.520   9.400 -1.4647 -0.3160 -1.1848
  739MOL0     H99719   2.710   4.345   9.436  0.7913  0.7871  1.0900
  739MOL0     H99720   2.709   4.337   9.251  0.1158  0.0613 -0.0396
  739MOL0     H99721   2.748   4.582   9.243  1.8966  2.1462  0.0431
  739MOL0     H99722   2.886   4.486   9.308  1.1124  1.8741  2.2328
  739MOL0     H99723   2.801   4.542   9.544 -2.3063  1.2755  0.3621
  739MOL0     H99724   2.697   4.657   9.475  0.9596  0.2370  1.8735
  739MOL0     H99725   3.063   4.892   9.450 -0.5621  1.2406 -0.3640
  739MOL0     H99726   3.131   5.035   9.650  0.3431 -1.0469  0.0497
  739MOL0     H99727   3.258   5.351   9.855  2.3842  1.5521  0.8631
  739MOL0     H99728   3.269   5.530  10.011  0.0700 -1.2214 -2.2409
  739MOL0     H99729   2.961   5.679  10.181 -4.0355  0.7264  3.3981
  739MOL0     H99730   2.965   5.574  10.321 -0.7301  1.3119  2.4389
  739MOL0     H99731   3.100   5.838  10.310 -1.4155  1.5382  2.8491
  739MOL0     H99732   2.954   5.789  10.384 -0.0618  0.6507  0.9590
  739MOL0     H99733   3.091   5.634  10.536  0.4975  0.3949  0.3323
  739MOL0     H99734   3.228   5.660  10.435 -0.1515  0.1906  0.4987
  739MOL0     H99735   3.101   5.908  10.533 -0.5734 -0.7356  0.4189
  739MOL0     H99736   3.277   5.872  10.555 -0.4636  3.7595  3.3995
  739MOL0     H99737   3.058   5.758  10.730 -0.6282  1.4917  0.3831
  739MOL0     H99738   3.174   5.887  10.769 -3.8872  1.3272 -1.6268
  739MOL0     H99739   3.199   5.577  10.714  2.7775 -0.8918  0.7893
  739MOL0     H99740   3.335   5.672  10.698  0.8651  0.2475  0.6714
  739MOL0     H99741   3.186   5.613  10.939 -1.3617  1.8789 -1.7753
  739MOL0     H99742   3.276   5.773  10.941  3.6805  1.1178 -2.8509
  739MOL0     H99743   3.382   5.492  10.903 -0.1993 -2.5820  2.1492
  739MOL0     H99744   3.479   5.641  10.893  1.4380 -2.4021 -0.1800
  739MOL0     H99745   2.976   5.373  10.263  0.9404  1.6260  1.5404
  739MOL0     H99746   2.952   5.171  10.111  2.3635 -0.5775 -0.3274
  739MOL0     H99747   2.822   4.833   9.882  1.1132 -4.6588 -0.1004
  739MOL0     H99748   2.759   4.718   9.700  1.0258 -0.5631 -1.7853
  739MOL0     H99749   3.068   4.091  10.099  2.9447  0.3734  1.2976
  739MOL0     H99750   3.235   4.260  10.113 -1.9508 -2.4009 -1.6336
  739MOL0     H99751   3.398   4.612  10.166  2.4017  1.9256 -1.8563
  739MOL0     H99752   3.567   4.775  10.132  1.4614 -0.2580  0.6028
  739MOL0     H99753   3.487   5.098  10.203  0.2620 -0.5867  0.4547
  739MOL0     H99754   3.601   5.027  10.110 -1.8621  1.3259 -0.9256
  739MOL0     H99755   3.782   5.177  10.192  0.2614  0.5845  2.3201
  739MOL0     H99756   3.670   5.254  10.306 -1.1321 -1.5046  0.2743
  739MOL0     H99757   3.517   5.324  10.121 -0.7073 -2.2629 -0.3178
  739MOL0     H99758   3.636   5.267  10.002  2.4574 -1.3249  1.0887
  739MOL0     H99759   3.645   5.521  10.056 -0.3387  0.1736  0.3080
  739MOL0     H99760   3.698   5.461  10.219 -1.1878 -1.5906  1.0955
  739MOL0     H99761   4.037   5.404   9.952  1.0879 -1.0406  0.7097
  739MOL0     H99762   3.500   4.931  10.526  1.2523 -0.1139  0.2306
  739MOL0     H99763   3.373   4.655  10.659 -2.1697  1.3333  3.9496
  739MOL0     H99764   3.342   4.833  10.668 -0.6322  1.3096 -0.3862
  739MOL0     H99765   3.221   4.729  10.603 -0.1688 -1.2100  1.6010
  740MOL0     O99766   9.516   4.399   9.046 -0.6011 -0.0282  0.5335
  740MOL0     C99767   9.552   4.456   9.152 -0.1745  0.5807  0.4462
  740MOL0     O99768   9.677   4.475   9.194 -0.1795  0.3869 -0.0406
  740MOL0     C99769   9.790   4.416   9.148  0.0495 -0.0963  0.1108
  740MOL0     C99770   9.875   4.359   9.247  0.1713 -0.5585  0.9567
  740MOL0     C99771   9.986   4.291   9.204  0.3592 -0.0109  0.2742
  740MOL0     C99772  10.023   4.280   9.076  1.2439 -0.4122 -0.3595
  740MOL0     O99773  10.136   4.225   9.042 -0.4376 -0.2031  0.6652
  740MOL0     C99774  10.130   4.089   8.982  0.1976 -0.1847 -0.0226
  740MOL0     C99775  10.263   4.064   8.897 -0.4446  0.7456 -0.1295
  740MOL0     C99776  10.383   4.014   8.981  1.1137 -0.1944  0.0809
  740MOL0     C99777  10.509   3.985   8.897 -1.2106 -1.0121 -0.1097
  740MOL0     C99778  10.513   3.850   8.840  0.8628  0.4809 -0.7710
  740MOL0     C99779  10.650   3.808   8.773  0.0091 -0.5816  0.1140
  740MOL0     C99780  10.652   3.877   8.629  0.0928 -0.5298 -0.1539
  740MOL0     C99781  10.778   3.857   8.543  0.0675 -0.4359  0.4335
  740MOL0     N99782  10.883   3.957   8.581  0.7185 -0.0276  0.4544
  740MOL0     C99783  10.879   4.087   8.574 -0.5455 -0.3301  0.4262
  740MOL0     C99784  11.003   4.127   8.620  0.6392 -0.4961  0.4117
  740MOL0     C99785  11.036   4.275   8.634  0.4269 -0.1133  0.0616
  740MOL0     C99786  11.076   4.344   8.510  1.3758  0.2978  0.4062
  740MOL0     C99787  10.960   4.402   8.425 -0.8055  0.0999 -0.0874
  740MOL0     C99788  10.989   4.444   8.278 -0.1752  0.7680 -0.4585
  740MOL0     O99789  11.050   4.331   8.212  0.8215  0.0923  0.4312
  740MOL0     C99790  11.066   4.353   8.080 -0.4314  0.1951  1.2743
  740MOL0     C99791  11.108   4.247   8.007 -1.0087  0.7332  1.1715
  740MOL0     C99792  11.132   4.250   7.867  0.4453  0.5465 -0.6581
  740MOL0     C99793  11.114   4.373   7.797  0.0190 -0.0140 -1.0733
  740MOL0     C99794  11.152   4.394   7.654  0.5022 -0.0320 -0.4141
  740MOL0     O99795  11.091   4.492   7.578  0.4738 -0.6366  0.0990
  740MOL0     C99796  11.121   4.529   7.448 -0.2189 -0.3491 -0.3645
  740MOL0     C99797  11.253   4.527   7.400 -0.6248  0.4414  0.2599
  740MOL0     C99798  11.266   4.569   7.263 -0.1381 -0.1291 -0.2716
  740MOL0     C99799  11.156   4.611   7.180 -0.3982 -0.4105 -0.2901
  740MOL0     O99800  11.175   4.661   7.053 -0.0597  0.3295 -0.0297
  740MOL0     C99801  11.300   4.728   7.009 -0.2341 -0.0028  0.7679
  740MOL0     C99802  11.305   4.741   6.861  0.1157 -0.6379  0.5235
  740MOL0     C99803  11.432   4.814   6.801  0.2645  0.0463  0.6144
  740MOL0     C99804  11.542   4.718   6.774 -0.8802  0.4497  0.0881
  740MOL0     C99805  11.654   4.801   6.716 -0.0477  0.1494 -0.1415
  740MOL0     C99806  11.778   4.715   6.687  0.1006 -0.3875 -1.0823
  740MOL0     C99807  11.755   4.613   6.575  0.1822 -1.3323  0.0300
  740MOL0     C99808  11.878   4.530   6.560  0.8724  0.3665 -0.4338
  740MOL0    Cl99809  12.024   4.612   6.510 -0.4078 -0.0390  0.4130
  740MOL0     C99810  11.030   4.615   7.236  0.3364  1.0194 -0.6726
  740MOL0     C99811  11.004   4.574   7.370  0.6763  1.2204 -0.7966
  740MOL0     O99812  11.233   4.318   7.605  0.2628  0.3623  1.2806
  740MOL0     C99813  11.068   4.482   7.872  1.2413 -0.0927 -0.1569
  740MOL0     C99814  11.040   4.479   8.008  0.0657  0.1447  0.4129
  740MOL0     N99815  11.086   4.014   8.634 -0.0509 -0.3842 -0.1631
  740MOL0     N99816  11.007   3.916   8.619  0.7224 -0.1115  0.4907
  740MOL0     C99817   9.945   4.354   8.983  0.1217  0.1213 -0.0767
  740MOL0     C99818   9.827   4.405   9.012 -0.2790  0.2278 -0.1421
  740MOL0     C99819   9.447   4.531   9.230  0.5771  0.2006  0.3287
  740MOL0     C99820   9.494   4.625   9.332  0.1592  1.2790 -0.1330
  740MOL0     C99821   9.399   4.704   9.398 -0.2352  1.3052 -0.0689
  740MOL0     C99822   9.268   4.705   9.375  0.2107  0.4165  0.6016
  740MOL0     O99823   9.192   4.795   9.456 -0.3676  0.0069 -0.4403
  740MOL0     C99824   9.051   4.805   9.429  0.7478 -0.2758 -0.6739
  740MOL0     C99825   8.988   4.913   9.524 -0.5266  0.3923  0.0073
  740MOL0     C99826   8.950   4.852   9.659  0.5402 -0.5467 -1.4058
  740MOL0     C99827   8.896   4.957   9.760 -0.5469 -0.7084  0.4425
  740MOL0     C99828   8.884   4.897   9.889  0.2601  0.5529 -0.2504
  740MOL0     C99829   8.854   4.856   9.996 -0.3400 -0.3910 -0.4101
  740MOL0     C99830   9.217   4.613   9.284  0.4668 -0.2729  0.1211
  740MOL0     C99831   9.301   4.523   9.212 -0.7164  0.3896 -0.1487
  740MOL0     C99832   9.239   4.417   9.108  0.2380 -0.0348 -0.4541
  740MOL0     H99833   9.870   4.379   9.354 -2.4991 -3.1243  1.4489
  740MOL0     H99834  10.057   4.254   9.278 -0.5402 -0.7075  0.8151
  740MOL0     H99835  10.119   4.018   9.065 -0.1018 -3.1123 -2.3909
  740MOL0     H99836  10.043   4.074   8.917  0.9605 -5.3268 -0.2761
  740MOL0     H99837  10.286   4.163   8.856 -0.3564  1.5097  1.6706
  740MOL0     H99838  10.256   4.001   8.808  1.8046  2.8793 -1.9383
  740MOL0     H99839  10.354   3.928   9.043 -0.5963  0.4632  0.2524
  740MOL0     H99840  10.402   4.098   9.048 -0.6064  1.2863 -1.1813
  740MOL0     H99841  10.522   4.062   8.820  2.0811 -0.1768  1.0997
  740MOL0     H99842  10.594   3.999   8.965 -1.1966  0.2556 -0.3748
  740MOL0     H99843  10.479   3.779   8.915  0.3453 -0.9575 -2.2935
  740MOL0     H99844  10.444   3.861   8.756  1.1068  0.4878 -0.9725
  740MOL0     H99845  10.738   3.830   8.834 -0.6609 -0.7263  1.1710
  740MOL0     H99846  10.665   3.700   8.764 -1.8866 -1.1241  2.4363
  740MOL0     H99847  10.631   3.982   8.650  2.1984  0.3540 -2.0232
  740MOL0     H99848  10.564   3.839   8.576 -0.4776  0.2625  0.2033
  740MOL0     H99849  10.818   3.758   8.569 -1.7726 -0.9088  1.6262
  740MOL0     H99850  10.757   3.872   8.436 -1.0433  0.6999  0.7899
  740MOL0     H99851  10.797   4.152   8.542 -0.1547 -0.2747 -0.5035
  740MOL0     H99852  10.957   4.323   8.691  0.3014 -1.7268  1.3236
  740MOL0     H99853  11.127   4.281   8.696  2.1833  1.5102 -2.4755
  740MOL0     H99854  11.128   4.433   8.548  0.3752  1.3317 -0.5486
  740MOL0     H99855  11.143   4.278   8.453 -0.0237 -1.4926  0.7479
  740MOL0     H99856  10.911   4.484   8.477  0.6868  1.9479 -1.4600
  740MOL0     H99857  10.879   4.328   8.423 -2.2756  1.6482 -1.3865
  740MOL0     H99858  11.057   4.529   8.288 -0.4296  0.9203  0.0135
  740MOL0     H99859  10.894   4.479   8.238  0.0032  1.6021 -0.1671
  740MOL0     H99860  11.139   4.152   8.049 -3.4284 -0.4406  0.4671
  740MOL0     H99861  11.175   4.165   7.815 -0.3401 -0.9995  1.1246
  740MOL0     H99862  11.334   4.513   7.472 -0.8819  1.8057  0.8580
  740MOL0     H99863  11.366   4.573   7.220 -0.5675  0.0689 -1.2723
  740MOL0     H99864  11.299   4.825   7.061 -1.3979  0.5093 -0.1649
  740MOL0     H99865  11.396   4.681   7.033  0.6495  0.7766 -1.0133
  740MOL0     H99866  11.292   4.649   6.804  1.0128 -1.8483  2.1708
  740MOL0     H99867  11.228   4.815   6.837  0.7195  1.4805  4.3268
  740MOL0     H99868  11.403   4.859   6.706 -0.9785 -1.9882 -0.0466
  740MOL0     H99869  11.465   4.888   6.875  1.4654  1.3420 -1.1604
  740MOL0     H99870  11.514   4.638   6.706  3.6239 -1.2539 -0.1154
  740MOL0     H99871  11.566   4.669   6.869  0.9118 -0.4659 -0.7764
  740MOL0     H99872  11.688   4.869   6.795  2.6767 -2.3082  0.9934
  740MOL0     H99873  11.626   4.857   6.626 -1.3740 -1.4997 -0.7962
  740MOL0     H99874  11.855   4.788   6.657 -0.3332  2.2949  3.4516
  740MOL0     H99875  11.801   4.660   6.778 -0.9244  1.7651  0.5599
  740MOL0     H99876  11.728   4.674   6.488  6.2202  1.9174 -0.1574
  740MOL0     H99877  11.668   4.553   6.603 -2.1713  2.0888  0.7756
  740MOL0     H99878  11.903   4.470   6.649 -2.5297 -0.0987  0.3480
  740MOL0     H99879  11.858   4.450   6.488 -0.9961 -4.3826  4.5970
  740MOL0     H99880  10.949   4.656   7.177  0.8554  0.7240 -1.6154
  740MOL0     H99881  10.902   4.589   7.403  1.5249  5.8610  0.5588
  740MOL0     H99882  11.044   4.574   7.819 -1.4089  0.3119  1.5787
  740MOL0     H99883  11.006   4.567   8.063 -0.0856  1.3267 -1.4922
  740MOL0     H99884   9.962   4.336   8.877  0.9467 -0.4949  0.1444
  740MOL0     H99885   9.763   4.464   8.947  0.0828  2.3207  1.3048
  740MOL0     H99886   9.603   4.631   9.340  0.0398  1.5938  1.8455
  740MOL0     H99887   9.436   4.774   9.473 -0.0253 -0.2843  1.3496
  740MOL0     H99888   8.997   4.710   9.438 -2.8053  1.7479  2.0487
  740MOL0     H99889   9.033   4.838   9.327 -0.6222  0.2848 -0.2768
  740MOL0     H99890   8.898   4.961   9.487 -0.5948  0.0115 -0.3239
  740MOL0     H99891   9.060   4.995   9.532  1.1626 -0.9122 -0.9621
  740MOL0     H99892   9.045   4.821   9.704 -0.5761  2.1922  3.5479
  740MOL0     H99893   8.883   4.766   9.655  0.3870 -0.8463  2.9357
  740MOL0     H99894   8.955   5.049   9.753 -1.9870  0.1137 -1.3730
  740MOL0     H99895   8.796   4.981   9.723  0.0457  0.6940 -0.3208
  740MOL0     H99896   8.847   4.801  10.088  0.5454  0.5036  0.2103
  740MOL0     H99897   9.112   4.616   9.256  0.7998 -2.6043 -1.6797
  740MOL0     H99898   9.253   4.437   9.001  0.8469 -1.1283 -0.6021
  740MOL0     H99899   9.288   4.322   9.128  4.2228  1.9596  0.1707
  740MOL0     H99900   9.133   4.398   9.129  0.5551 -0.8193  0.4533
  741MOL0     O99901   1.673   1.479   8.607  0.0393  0.7992  0.0313
  741MOL0     C99902   1.691   1.578   8.536  0.0787  0.9060  0.3635
  741MOL0     O99903   1.603   1.632   8.448  0.1423 -0.3507 -0.0601
  741MOL0     C99904   1.467   1.594   8.433 -0.5599  0.2102  0.3413
  741MOL0     C99905   1.391   1.664   8.332 -0.2143 -0.0595  0.7326
  741MOL0     C99906   1.263   1.627   8.296  0.2830 -0.1820  0.0283
  741MOL0     C99907   1.198   1.521   8.370 -0.1142 -1.0528  0.0437
  741MOL0     O99908   1.070   1.513   8.328  0.2172  0.4084  0.7264
  741MOL0     C99909   0.972   1.477   8.418  0.3613  1.2072 -0.3779
  741MOL0     C99910   0.847   1.446   8.342 -0.5395 -0.3563  0.0529
  741MOL0     C99911   0.733   1.461   8.434 -0.4022  0.5654  0.0333
  741MOL0     C99912   0.610   1.398   8.367 -0.9778  0.2413 -0.1530
  741MOL0     C99913   0.488   1.445   8.439  0.0644 -0.3897 -0.0870
  741MOL0     C99914   0.353   1.369   8.406 -0.6543 -0.5487 -0.7882
  741MOL0     C99915   0.234   1.419   8.496  0.2099 -0.7786  0.7330
  741MOL0     C99916   0.247   1.397   8.645  0.1107  0.1225 -0.5242
  741MOL0     N99917   0.189   1.507   8.722  0.5537 -0.6201  1.8487
  741MOL0     C99918   0.234   1.642   8.724  0.5663  0.4426  0.9344
  741MOL0     C99919   0.131   1.705   8.780 -0.3303 -0.0045  0.5087
  741MOL0     C99920   0.128   1.852   8.798  0.3411  0.0453 -0.5096
  741MOL0     C99921   0.124   1.926   8.657  0.0281 -0.9292  0.3573
  741MOL0     C99922  -0.012   1.906   8.589 -0.4751  0.0112  0.0798
  741MOL0     C99923  -0.033   1.966   8.450  0.0531 -1.0857  0.3905
  741MOL0     O99924   0.067   1.916   8.359 -0.3088 -0.0426  0.2149
  741MOL0     C99925   0.087   1.993   8.252 -0.6638 -0.1402 -0.4531
  741MOL0     C99926   0.219   1.994   8.191  0.8514  0.9724 -0.2291
  741MOL0     C99927   0.250   2.089   8.093  0.3654 -0.0918 -0.2362
  741MOL0     C99928   0.138   2.164   8.032  0.1126  0.3257 -0.0511
  741MOL0     C99929   0.169   2.257   7.919 -0.1422  0.5630  0.0269
  741MOL0     O99930   0.305   2.260   7.885  0.6708  0.1952  0.0071
  741MOL0     C99931   0.342   2.364   7.806 -0.6358 -0.9111  0.3553
  741MOL0     C99932   0.326   2.495   7.853  0.5447 -0.1892  0.7957
  741MOL0     C99933   0.369   2.610   7.783 -0.6282  0.5711 -1.0095
  741MOL0     C99934   0.446   2.591   7.667 -0.0060  0.1807  0.1645
  741MOL0     O99935   0.491   2.710   7.607 -0.5863  0.8902 -0.6533
  741MOL0     C99936   0.595   2.702   7.504 -0.2062 -0.6539  0.0842
  741MOL0     C99937   0.648   2.845   7.494 -0.2575  0.9010 -0.0686
  741MOL0     C99938   0.698   2.895   7.633  0.2329 -0.1114  0.0997
  741MOL0     C99939   0.763   3.040   7.622  0.4976 -0.2548 -0.7335
  741MOL0     C99940   0.798   3.093   7.762 -0.8540  0.0626 -0.1020
  741MOL0     C99941   0.924   3.185   7.757  0.8053  0.4444 -0.0981
  741MOL0     C99942   0.910   3.311   7.657 -0.2674 -0.1207 -1.1717
  741MOL0     C99943   1.004   3.425   7.691 -0.3611 -0.0148 -0.5205
  741MOL0    Cl99944   0.958   3.506   7.838  0.0123  0.7450  0.3244
  741MOL0     C99945   0.478   2.457   7.627  0.0834  0.6034  0.5542
  741MOL0     C99946   0.417   2.344   7.692 -0.9163 -0.1523 -0.3573
  741MOL0     O99947   0.079   2.325   7.872  0.1096  0.1542  0.2255
  741MOL0     C99948   0.005   2.159   8.082  0.1299 -0.1251  0.4426
  741MOL0     C99949  -0.016   2.074   8.194  0.1043  0.8184  0.3096
  741MOL0     N99950   0.032   1.614   8.817  0.6498  0.8984  0.3148
  741MOL0     N99951   0.074   1.497   8.788 -0.3701 -0.3349  0.0570
  741MOL0     C99952   1.273   1.449   8.455 -0.0850 -0.4023  0.0240
  741MOL0     C99953   1.399   1.482   8.493 -0.3869 -0.5395  1.0700
  741MOL0     C99954   1.825   1.646   8.547 -0.8933 -0.0263 -0.1657
  741MOL0     C99955   1.836   1.783   8.500  1.0497 -0.4020  1.0550
  741MOL0     C99956   1.955   1.855   8.516  0.9653  0.0869  0.2936
  741MOL0     C99957   2.056   1.796   8.581 -1.1587 -0.1030 -0.3052
  741MOL0     O99958   2.166   1.872   8.610 -0.0301  0.0218 -0.2447
  741MOL0     C99959   2.300   1.821   8.633  0.5986 -0.1496 -0.1143
  741MOL0     C99960   2.359   1.737   8.524 -0.3443 -0.3252  0.5312
  741MOL0     C99961   2.333   1.809   8.391 -1.3162  0.9770 -0.4588
  741MOL0     C99962   2.440   1.761   8.295  0.5522  0.7086  0.4032
  741MOL0     C99963   2.434   1.829   8.161 -0.1487 -0.3997  0.5220
  741MOL0     C99964   2.421   1.860   8.040 -0.1975  0.5760 -0.2394
  741MOL0     C99965   2.049   1.666   8.634 -0.0987 -0.1022 -0.6489
  741MOL0     C99966   1.938   1.582   8.617  1.2608 -0.3341 -0.0551
  741MOL0     C99967   1.950   1.439   8.664  0.2133 -0.4538  0.3940
  741MOL0     H99968   1.438   1.753   8.292  2.1235 -1.6799 -0.2894
  741MOL0     H99969   1.208   1.681   8.219 -1.8393 -2.7117 -0.3671
  741MOL0     H99970   0.997   1.385   8.471 -0.9400  1.6002  0.9905
  741MOL0     H99971   0.964   1.564   8.484  0.3598  1.2425 -0.4253
  741MOL0     H99972   0.855   1.348   8.293 -0.5190  0.0257 -0.7153
  741MOL0     H99973   0.847   1.513   8.255 -3.3126  0.8998  0.9335
  741MOL0     H99974   0.725   1.567   8.461 -1.1585  0.0732  1.9149
  741MOL0     H99975   0.755   1.399   8.522  1.9966  1.1220 -0.1247
  741MOL0     H99976   0.604   1.426   8.261 -2.8369 -2.6404 -0.9016
  741MOL0     H99977   0.614   1.289   8.363 -3.3767  0.1416 -2.0210
  741MOL0     H99978   0.494   1.433   8.547 -1.8347  1.4256  0.2940
  741MOL0     H99979   0.470   1.551   8.421 -0.0471 -0.5248 -0.8114
  741MOL0     H99980   0.323   1.374   8.301 -1.0279 -3.9524 -0.9642
  741MOL0     H99981   0.370   1.262   8.426 -0.1301 -0.1869  0.9092
  741MOL0     H99982   0.145   1.369   8.458  1.3554 -0.6433 -2.4409
  741MOL0     H99983   0.225   1.526   8.475  0.5810 -1.1256 -1.3419
  741MOL0     H99984   0.201   1.302   8.673  0.9505 -0.2816 -0.5246
  741MOL0     H99985   0.349   1.395   8.683 -0.2904  3.8257  1.2018
  741MOL0     H99986   0.319   1.692   8.678 -2.6309  4.3777 -1.2685
  741MOL0     H99987   0.037   1.860   8.858  0.4923 -0.8263 -0.1420
  741MOL0     H99988   0.215   1.878   8.858  1.1540 -3.2505 -0.0424
  741MOL0     H99989   0.150   2.029   8.683 -0.9428 -0.9457  1.4627
  741MOL0     H99990   0.202   1.897   8.586 -1.2820 -1.9974 -0.7051
  741MOL0     H99991  -0.092   1.948   8.650 -0.3264 -1.0767  1.0682
  741MOL0     H99992  -0.031   1.798   8.586 -2.2439  0.2224  1.9374
  741MOL0     H99993  -0.020   2.075   8.446 -2.5728 -0.7207 -4.0989
  741MOL0     H99994  -0.131   1.936   8.414  0.7560 -1.7802 -0.9972
  741MOL0     H99995   0.287   1.930   8.246  0.1629  1.3081  1.0632
  741MOL0     H99996   0.350   2.108   8.055  0.4546 -1.5857 -0.7904
  741MOL0     H99997   0.273   2.497   7.948 -1.1105 -0.8100 -0.0756
  741MOL0     H99998   0.369   2.711   7.822  1.4449  0.0833  0.4747
  741MOL0     H99999   0.685   2.644   7.528  0.9129 -1.0598 -4.3041
  741MOL0     H    0   0.548   2.647   7.422  1.1066 -1.5129 -0.1286
  741MOL0     H    1   0.735   2.854   7.427  1.0948  1.1302  1.6368
  741MOL0     H    2   0.564   2.906   7.461 -1.7691  0.7389  3.1314
  741MOL0     H    3   0.618   2.896   7.707  0.5840 -1.1349  0.4998
  741MOL0     H    4   0.778   2.828   7.666 -0.4609 -0.2174  1.6134
  741MOL0     H    5   0.689   3.109   7.580 -2.9904 -2.8589  0.6079
  741MOL0     H    6   0.855   3.031   7.564  0.2706  0.2726 -1.1763
  741MOL0     H    7   0.823   3.012   7.831  2.8302  1.4827  0.4433
  741MOL0     H    8   0.713   3.144   7.808 -0.2832  1.1227 -0.2027
  741MOL0     H    9   0.940   3.214   7.861 -1.1866 -1.0938  0.7178
  741MOL0     H   10   1.008   3.121   7.727  1.2793  0.9231  0.2022
  741MOL0     H   11   0.811   3.358   7.660  0.4796  1.6139  3.2606
  741MOL0     H   12   0.934   3.286   7.553 -2.2071 -1.6183 -1.3262
  741MOL0     H   13   1.103   3.379   7.701 -0.8772 -0.8962  0.7468
  741MOL0     H   14   0.996   3.494   7.606  2.7602  0.3102 -0.6841
  741MOL0     H   15   0.538   2.434   7.540 -1.7793 -0.2844 -0.5682
  741MOL0     H   16   0.430   2.244   7.652 -0.6092  0.0208 -0.6955
  741MOL0     H   17  -0.075   2.219   8.041  1.5943  2.5033  1.1889
  741MOL0     H   18  -0.117   2.047   8.222  0.6097 -2.1831 -0.3606
  741MOL0     H   19   1.223   1.365   8.502 -0.6994  0.1889  0.4617
  741MOL0     H   20   1.451   1.403   8.545 -0.1827 -1.2353 -0.1422
  741MOL0     H   21   1.753   1.844   8.467  2.8534  1.4716 -0.2363
  741MOL0     H   22   1.966   1.957   8.481 -1.9027  1.2741  2.4407
  741MOL0     H   23   2.308   1.767   8.728 -0.8158 -0.9376 -0.4057
  741MOL0     H   24   2.366   1.908   8.639 -2.0573  1.9295  1.6651
  741MOL0     H   25   2.301   1.647   8.505  1.6216 -0.8855 -3.9557
  741MOL0     H   26   2.463   1.709   8.543 -1.2004 -5.3249 -0.7886
  741MOL0     H   27   2.353   1.916   8.398  0.0028  0.6974  0.5897
  741MOL0     H   28   2.237   1.782   8.347  0.4393 -2.2244 -2.7662
  741MOL0     H   29   2.536   1.785   8.341  0.6308  1.0915  0.0465
  741MOL0     H   30   2.434   1.653   8.283  0.9774  0.9182 -2.2200
  741MOL0     H   31   2.413   1.886   7.936 -0.2253 -1.9361 -0.9344
  741MOL0     H   32   2.132   1.622   8.688  0.0718 -1.3722 -1.8819
  741MOL0     H   33   1.976   1.386   8.571  1.9577 -0.2284  0.7320
  741MOL0     H   34   2.034   1.417   8.730 -0.1706 -0.6500  0.8237
  741MOL0     H   35   1.860   1.401   8.714  1.0356 -5.8094 -1.4707
  742MOL0     O   36  10.520   7.925   5.731 -0.3029 -0.2876 -0.1779
  742MOL0     C   37  10.475   7.959   5.625  0.1472 -0.6982 -0.8508
  742MOL0     O   38  10.429   7.870   5.528 -0.0810  0.3623 -0.8773
  742MOL0     C   39  10.465   7.733   5.530  0.0670 -0.7598 -0.3712
  742MOL0     C   40  10.609   7.695   5.539  0.0224  0.2217  0.2345
  742MOL0     C   41  10.650   7.560   5.547  0.3220  0.9723 -0.0652
  742MOL0     C   42  10.551   7.460   5.532 -0.1493  0.2678 -0.3634
  742MOL0     O   43  10.593   7.332   5.547  0.3087 -0.1727  0.6136
  742MOL0     C   44  10.694   7.308   5.640 -0.0960  0.0048  0.1697
  742MOL0     C   45  10.819   7.263   5.565 -0.4187 -0.2102 -0.0843
  742MOL0     C   46  10.793   7.120   5.510  0.4088  0.0693 -0.3487
  742MOL0     C   47  10.930   7.057   5.480 -0.5999 -0.0153  0.0544
  742MOL0     C   48  10.913   6.921   5.413 -0.1358  0.2182 -0.2954
  742MOL0     C   49  11.044   6.882   5.344 -0.1928 -0.4870 -0.2164
  742MOL0     C   50  11.058   6.733   5.319 -0.4773 -0.1264  0.0854
  742MOL0     C   51  11.190   6.695   5.254  0.4419  0.3083  0.4241
  742MOL0     N   52  11.213   6.720   5.112 -0.5379 -0.3981 -0.4241
  742MOL0     C   53  11.261   6.846   5.076  0.7107  0.1698 -0.6841
  742MOL0     C   54  11.291   6.825   4.941  0.6489  0.6311 -0.2561
  742MOL0     C   55  11.363   6.926   4.848 -0.4968 -0.0841  0.8567
  742MOL0     C   56  11.505   6.885   4.803 -0.4663 -0.9020  0.5571
  742MOL0     C   57  11.611   6.927   4.901 -0.2186 -1.0706 -0.4487
  742MOL0     C   58  11.747   6.879   4.873 -0.8462 -0.1101  0.4010
  742MOL0     O   59  11.779   6.933   4.749 -0.7342 -0.0957 -0.1559
  742MOL0     C   60  11.898   6.914   4.683 -0.7773  0.3821  0.5883
  742MOL0     C   61  11.911   6.960   4.547  0.7095 -0.3910  0.4194
  742MOL0     C   62  12.037   6.947   4.474  1.2674 -0.3003 -0.8920
  742MOL0     C   63  12.141   6.881   4.539  0.1086 -0.1936  0.0515
  742MOL0     C   64  12.273   6.883   4.464  0.0432 -0.6258 -0.7213
  742MOL0     O   65  12.379   6.826   4.539 -0.6928 -0.3546  0.5522
  742MOL0     C   66  12.508   6.809   4.486 -0.3141 -0.2723 -0.5658
  742MOL0     C   67  12.594   6.738   4.570 -0.1981  0.0454  0.2448
  742MOL0     C   68  12.727   6.716   4.535 -0.8694 -1.0101  0.3869
  742MOL0     C   69  12.777   6.756   4.408  0.3177 -0.9749 -0.3947
  742MOL0     O   70  12.901   6.735   4.366 -0.1628  0.0468 -0.5044
  742MOL0     C   71  12.988   6.849   4.390 -0.2040  0.2117 -0.1074
  742MOL0     C   72  13.130   6.803   4.436  0.1217  0.0584 -0.9779
  742MOL0     C   73  13.234   6.920   4.449  1.6774 -0.5309 -0.8267
  742MOL0     C   74  13.348   6.874   4.535 -0.8896 -0.3348  1.2033
  742MOL0     C   75  13.483   6.926   4.487  0.6596 -0.3256  0.9190
  742MOL0     C   76  13.586   6.910   4.594 -0.0469  0.9924  0.2811
  742MOL0     C   77  13.706   7.008   4.573  0.1098  0.1119 -0.1620
  742MOL0     C   78  13.791   7.023   4.701  0.0539  1.0910  0.4592
  742MOL0    Cl   79  13.680   7.050   4.849  0.0739  0.1613  0.2868
  742MOL0     C   80  12.695   6.842   4.339  0.3512 -0.3324 -0.3491
  742MOL0     C   81  12.565   6.861   4.374 -0.3248 -0.5438  0.1646
  742MOL0     O   82  12.278   6.950   4.368 -0.4192 -0.7929  0.1132
  742MOL0     C   83  12.125   6.834   4.667 -0.1861  0.1080 -0.3433
  742MOL0     C   84  12.002   6.842   4.733 -0.7094  0.2637  1.0420
  742MOL0     N   85  11.257   6.693   4.908 -0.5652 -0.2955  0.5787
  742MOL0     N   86  11.205   6.636   5.006  0.0972  0.1428  0.0254
  742MOL0     C   87  10.418   7.500   5.522  0.7736 -1.6155  0.1298
  742MOL0     C   88  10.371   7.634   5.512  1.1201 -0.3399 -0.3826
  742MOL0     C   89  10.483   8.104   5.583 -0.0802  0.0633  0.4096
  742MOL0     C   90  10.432   8.133   5.456  0.4555 -0.7058 -0.4966
  742MOL0     C   91  10.427   8.264   5.414 -0.5813 -0.4998  0.3425
  742MOL0     C   92  10.506   8.366   5.482  0.4890  0.7157  0.5416
  742MOL0     O   93  10.534   8.496   5.440 -0.9427 -0.3100  0.3822
  742MOL0     C   94  10.495   8.524   5.305 -0.6216  0.0957  0.0336
  742MOL0     C   95  10.517   8.673   5.277  0.3235  0.2665  0.2977
  742MOL0     C   96  10.456   8.723   5.145  0.4751  0.2493  0.2805
  742MOL0     C   97  10.558   8.686   5.031 -0.2394  0.1054  0.7161
  742MOL0     C   98  10.498   8.709   4.900 -0.2987  0.3929  0.8035
  742MOL0     C   99  10.435   8.739   4.796 -0.6738 -0.1410  0.0669
  742MOL0     C  100  10.560   8.329   5.601 -0.6829 -0.3105 -0.0134
  742MOL0     C  101  10.543   8.205   5.656 -0.0127 -0.3390  0.8870
  742MOL0     C  102  10.605   8.193   5.788  0.3745  0.3103 -0.0550
  742MOL0     H  103  10.688   7.768   5.557 -2.0219  1.8251  3.7056
  742MOL0     H  104  10.756   7.539   5.545  0.0273 -1.2442  2.2948
  742MOL0     H  105  10.718   7.394   5.704  1.2170 -0.3952  0.2516
  742MOL0     H  106  10.659   7.240   5.718 -1.6332  0.5981  0.0283
  742MOL0     H  107  10.913   7.272   5.620  0.5335  3.3365 -1.9910
  742MOL0     H  108  10.838   7.321   5.474  0.5552 -1.5207 -0.7515
  742MOL0     H  109  10.719   7.123   5.429 -1.5711  1.3541  1.3990
  742MOL0     H  110  10.749   7.067   5.595  1.8456  0.7008  0.8301
  742MOL0     H  111  10.992   7.118   5.413  1.9512 -0.5055  1.8247
  742MOL0     H  112  10.980   7.046   5.577 -0.2445  1.4177  0.0606
  742MOL0     H  113  10.871   6.849   5.484 -2.7763 -1.8708 -3.6822
  742MOL0     H  114  10.841   6.937   5.333  0.1539  1.0385 -0.3997
  742MOL0     H  115  11.058   6.934   5.249  3.4770  1.3007  1.1069
  742MOL0     H  116  11.132   6.908   5.404  1.7175 -1.6778 -2.3602
  742MOL0     H  117  10.981   6.705   5.246 -1.2207 -2.8880  1.7811
  742MOL0     H  118  11.041   6.683   5.414  0.3843  3.0440  2.0489
  742MOL0     H  119  11.276   6.740   5.304 -1.0162  3.1311  0.5700
  742MOL0     H  120  11.212   6.588   5.266  2.6554  0.4437 -1.6183
  742MOL0     H  121  11.272   6.936   5.134  1.9232 -0.4764  0.1271
  742MOL0     H  122  11.306   6.930   4.755  1.4080  0.8482 -0.3236
  742MOL0     H  123  11.364   7.025   4.895 -0.9190  0.3359  0.0122
  742MOL0     H  124  11.515   6.779   4.779  1.7836 -0.4991 -0.5605
  742MOL0     H  125  11.524   6.945   4.713 -0.2031 -0.9232  0.5964
  742MOL0     H  126  11.575   6.877   4.992 -1.7653 -2.6899 -1.8661
  742MOL0     H  127  11.603   7.036   4.905 -3.8839 -1.2594  1.6741
  742MOL0     H  128  11.749   6.769   4.876 -1.6528 -0.0995  2.0136
  742MOL0     H  129  11.807   6.919   4.955 -1.9061  0.8161  0.7456
  742MOL0     H  130  11.843   7.027   4.496  1.5901  1.6429  1.7470
  742MOL0     H  131  12.041   6.979   4.370  0.2712  0.1651 -0.7944
  742MOL0     H  132  12.562   6.682   4.657 -2.1695 -1.6460 -1.4745
  742MOL0     H  133  12.788   6.659   4.604  3.8152 -1.0897 -3.2839
  742MOL0     H  134  12.991   6.894   4.291 -1.6426 -0.3688 -0.4366
  742MOL0     H  135  12.946   6.927   4.454  1.7533  1.2287  0.0161
  742MOL0     H  136  13.114   6.754   4.532 -0.5401 -2.4461 -2.2930
  742MOL0     H  137  13.174   6.732   4.365  3.6428  0.2509  0.8054
  742MOL0     H  138  13.261   6.972   4.356 -1.3377  1.5069 -0.6986
  742MOL0     H  139  13.195   7.013   4.491  0.8735  0.3183 -3.2383
  742MOL0     H  140  13.350   6.764   4.534 -2.5071 -0.3916  0.7845
  742MOL0     H  141  13.330   6.905   4.638  0.8932  0.6899  1.2448
  742MOL0     H  142  13.468   7.033   4.469  0.2252 -0.6192 -0.6093
  742MOL0     H  143  13.522   6.880   4.395  4.2438 -0.1116  2.1649
  742MOL0     H  144  13.545   6.923   4.695  2.0823 -2.9909  1.9112
  742MOL0     H  145  13.617   6.805   4.592 -0.2269  0.9227 -2.6014
  742MOL0     H  146  13.677   7.112   4.554 -0.6206 -0.2175 -0.9228
  742MOL0     H  147  13.778   6.979   4.496  1.2500 -0.2266  1.0025
  742MOL0     H  148  13.856   6.935   4.707  2.5879  2.8084  0.1105
  742MOL0     H  149  13.854   7.110   4.681  1.7771 -0.3100 -0.5039
  742MOL0     H  150  12.720   6.880   4.240 -0.5042 -1.6753 -1.1110
  742MOL0     H  151  12.490   6.907   4.311 -1.7474 -1.7633  0.8974
  742MOL0     H  152  12.204   6.781   4.719  0.3012  0.3476 -0.8273
  742MOL0     H  153  11.990   6.806   4.835  0.6275 -0.7698  0.8644
  742MOL0     H  154  10.336   7.430   5.507  0.5091 -1.3123  0.1516
  742MOL0     H  155  10.265   7.648   5.499  0.5751 -1.2495  2.3783
  742MOL0     H  156  10.390   8.058   5.390 -2.0056  1.9474 -2.1424
  742MOL0     H  157  10.390   8.290   5.315 -2.3823 -1.1868  0.7984
  742MOL0     H  158  10.386   8.516   5.298 -1.0105  2.4204  2.1505
  742MOL0     H  159  10.551   8.469   5.229  0.6568  1.9213 -0.4388
  742MOL0     H  160  10.622   8.704   5.267  0.0966  0.9662  0.0719
  742MOL0     H  161  10.475   8.719   5.367  0.5988 -1.4382  1.3532
  742MOL0     H  162  10.445   8.831   5.131  1.3797  0.3809  0.5575
  742MOL0     H  163  10.361   8.669   5.143 -1.2614  3.0923  0.2200
  742MOL0     H  164  10.650   8.743   5.047  0.8601 -1.3897 -0.0505
  742MOL0     H  165  10.590   8.582   5.043 -0.0521  0.0137 -0.4449
  742MOL0     H  166  10.378   8.771   4.711 -0.6748  2.7410  1.0389
  742MOL0     H  167  10.625   8.404   5.644 -0.3796 -0.9781  0.7027
  742MOL0     H  168  10.654   8.286   5.819 -0.9289  1.1662 -0.4853
  742MOL0     H  169  10.521   8.172   5.855 -0.5135  0.1952 -1.1691
  742MOL0     H  170  10.681   8.114   5.788 -0.4754 -0.5292 -0.0072
  743MOL0     O  171   8.478   6.575   5.050  0.5363 -0.5737 -0.2932
  743MOL0     C  172   8.533   6.482   4.991 -0.9854  0.4961  0.6594
  743MOL0     O  173   8.478   6.420   4.876  0.9753 -0.0744 -0.2190
  743MOL0     C  174   8.389   6.474   4.789  1.0374 -0.0678 -0.0626
  743MOL0     C  175   8.307   6.382   4.715  0.2471  0.1319 -0.4388
  743MOL0     C  176   8.218   6.425   4.617 -0.1654  0.3793  0.5268
  743MOL0     C  177   8.207   6.559   4.580 -0.3106 -0.1958  0.1990
  743MOL0     O  178   8.127   6.609   4.480  0.5277 -0.3803 -0.3749
  743MOL0     C  179   8.092   6.513   4.376 -0.6905  0.1740  0.7909
  743MOL0     C  180   7.992   6.566   4.275  0.0487 -0.4399  0.0779
  743MOL0     C  181   8.055   6.694   4.204  0.3922  0.6394  0.6590
  743MOL0     C  182   7.956   6.753   4.092  0.1416 -0.4540  0.7931
  743MOL0     C  183   7.950   6.689   3.961 -0.0707 -0.1044 -0.1056
  743MOL0     C  184   7.903   6.772   3.840  0.2013  0.1868 -0.1170
  743MOL0     C  185   7.953   6.713   3.710  0.3899 -0.8428 -0.4679
  743MOL0     C  186   7.871   6.789   3.602 -0.1245 -0.4602 -0.2302
  743MOL0     N  187   7.891   6.735   3.469  0.1590  0.9624 -0.2342
  743MOL0     C  188   8.004   6.676   3.426 -0.7842  0.6266  0.4356
  743MOL0     C  189   7.992   6.671   3.292  0.8020 -0.6981  0.4784
  743MOL0     C  190   8.101   6.637   3.192  0.2392 -0.4599 -0.7332
  743MOL0     C  191   8.208   6.739   3.189 -0.1772  0.4561  0.1775
  743MOL0     C  192   8.313   6.692   3.094 -0.3304  0.1796  0.1604
  743MOL0     C  193   8.435   6.780   3.109  0.2531 -0.2687  0.1619
  743MOL0     O  194   8.557   6.709   3.095  0.4829  0.2979 -0.8161
  743MOL0     C  195   8.677   6.780   3.112 -0.2654  0.0521 -0.4085
  743MOL0     C  196   8.782   6.701   3.060 -0.1181  0.2599  0.1797
  743MOL0     C  197   8.911   6.743   3.073 -0.0900  0.5235  0.7898
  743MOL0     C  198   8.933   6.874   3.106  0.9482  0.6486 -0.9929
  743MOL0     C  199   9.068   6.934   3.096  0.8177 -0.3188 -0.0636
  743MOL0     O  200   9.163   6.849   3.060  0.1095 -0.1542 -0.4511
  743MOL0     C  201   9.300   6.880   3.052 -0.2137 -0.5439  1.1258
  743MOL0     C  202   9.377   6.777   3.000  0.5967  0.8490  0.0353
  743MOL0     C  203   9.509   6.795   2.976  0.2408 -0.7159  0.8894
  743MOL0     C  204   9.581   6.912   3.013 -0.8143  0.2662  0.5530
  743MOL0     O  205   9.716   6.928   3.005  0.0049  0.3790  0.2286
  743MOL0     C  206   9.757   7.016   2.901 -0.1879 -0.4509 -1.4983
  743MOL0     C  207   9.905   6.992   2.858  0.7803 -0.3092  0.1614
  743MOL0     C  208   9.951   7.078   2.747 -0.2647 -0.6812 -0.0595
  743MOL0     C  209  10.093   7.054   2.687  0.3331  0.6493 -0.5490
  743MOL0     C  210  10.154   7.186   2.624 -0.2961 -0.0185  0.5290
  743MOL0     C  211  10.280   7.157   2.545 -0.0213 -0.3142  0.3831
  743MOL0     C  212  10.351   7.289   2.498  0.3324 -0.0439  0.6270
  743MOL0     C  213  10.459   7.264   2.393 -0.2013  0.5575  0.1821
  743MOL0    Cl  214  10.519   7.410   2.331 -0.4004 -0.3758 -0.0707
  743MOL0     C  215   9.502   7.016   3.063 -0.5111  0.2227 -0.3713
  743MOL0     C  216   9.366   7.005   3.080  0.2494  0.2209  0.1571
  743MOL0     O  217   9.090   7.054   3.113  0.0139 -0.2689 -0.0556
  743MOL0     C  218   8.824   6.957   3.142 -0.1574 -0.3056  0.6804
  743MOL0     C  219   8.697   6.912   3.148  0.0278 -0.4304  0.0414
  743MOL0     N  220   7.864   6.719   3.257  0.6736 -0.2648  0.7418
  743MOL0     N  221   7.799   6.754   3.361 -0.6113 -0.2433 -0.6985
  743MOL0     C  222   8.288   6.651   4.655 -0.4896  0.0762  0.7789
  743MOL0     C  223   8.373   6.611   4.761  0.1665  0.2331  0.1400
  743MOL0     C  224   8.656   6.420   5.048 -1.1657  0.1469  0.6621
  743MOL0     C  225   8.700   6.292   5.000 -0.6026 -0.2378  0.4142
  743MOL0     C  226   8.815   6.243   5.052 -0.0176 -0.1122  0.7806
  743MOL0     C  227   8.899   6.321   5.146 -0.0861  0.8021 -0.7683
  743MOL0     O  228   9.013   6.256   5.187  0.7319  0.7157 -0.2519
  743MOL0     C  229   9.114   6.319   5.269  0.8198  0.7542  0.7390
  743MOL0     C  230   9.076   6.310   5.412 -0.2866  1.1877 -0.8863
  743MOL0     C  231   9.155   6.393   5.502 -0.0953 -0.8826  0.0269
  743MOL0     C  232   9.093   6.397   5.644  0.2561 -0.7769  0.2255
  743MOL0     C  233   8.956   6.459   5.651 -1.1731 -0.4095 -0.1418
  743MOL0     C  234   8.838   6.489   5.667 -0.2070  0.9134 -0.1952
  743MOL0     C  235   8.855   6.439   5.196  0.0803  0.2865  0.1608
  743MOL0     C  236   8.733   6.489   5.149  0.9575 -0.5089 -0.3174
  743MOL0     C  237   8.693   6.620   5.220  0.6012 -0.2605 -0.1649
  743MOL0     H  238   8.324   6.276   4.731  1.0157  0.1836 -0.9084
  743MOL0     H  239   8.153   6.350   4.571 -0.6465  2.0791 -1.7716
  743MOL0     H  240   8.178   6.471   4.322 -0.0194  1.6358  0.6916
  743MOL0     H  241   8.045   6.424   4.419 -0.6130  0.2146  0.9616
  743MOL0     H  242   7.902   6.597   4.329  2.0451  1.2193  2.6758
  743MOL0     H  243   7.975   6.493   4.195 -1.3707  1.9268 -1.9229
  743MOL0     H  244   8.154   6.671   4.164 -0.8288 -3.3145 -0.6511
  743MOL0     H  245   8.066   6.758   4.292 -1.3361 -3.4894  4.3304
  743MOL0     H  246   7.853   6.753   4.130 -0.0167  1.9889  0.5389
  743MOL0     H  247   7.972   6.861   4.082  0.9536 -0.3259  2.8481
  743MOL0     H  248   8.055   6.664   3.941  1.1404  0.9083  4.1471
  743MOL0     H  249   7.909   6.588   3.974  3.2018 -1.2465  2.9743
  743MOL0     H  250   7.794   6.781   3.845  0.2374  0.7366 -0.2881
  743MOL0     H  251   7.938   6.875   3.850 -0.5923  0.2570  3.1973
  743MOL0     H  252   7.942   6.604   3.706 -0.5564 -0.8418  1.2356
  743MOL0     H  253   8.058   6.742   3.702  0.3644 -0.0198  1.5761
  743MOL0     H  254   7.764   6.767   3.613 -0.8666  1.6112 -2.4086
  743MOL0     H  255   7.898   6.894   3.613 -0.4385 -0.6114  3.4052
  743MOL0     H  256   8.101   6.659   3.471  0.6125  3.4714 -1.2076
  743MOL0     H  257   8.134   6.535   3.216 -0.2490 -0.7864 -1.4257
  743MOL0     H  258   8.054   6.616   3.096 -3.6525  0.5218  0.7971
  743MOL0     H  259   8.174   6.840   3.163 -1.7536 -0.4759 -1.6837
  743MOL0     H  260   8.256   6.755   3.286 -0.6804 -0.9946  0.6867
  743MOL0     H  261   8.279   6.678   2.991 -0.6094 -1.4786  0.4526
  743MOL0     H  262   8.352   6.601   3.140  1.5096  1.2638  0.8878
  743MOL0     H  263   8.440   6.816   3.212 -1.3518 -0.9137  0.4812
  743MOL0     H  264   8.428   6.864   3.038 -5.0822 -0.0817  0.4771
  743MOL0     H  265   8.755   6.601   3.027  0.1567 -0.1467  1.1577
  743MOL0     H  266   8.986   6.685   3.020 -1.8190 -0.7089 -0.4206
  743MOL0     H  267   9.334   6.684   2.964  0.2999  0.2240  1.9150
  743MOL0     H  268   9.562   6.719   2.919  1.8489  2.7713 -2.8326
  743MOL0     H  269   9.683   7.003   2.822 -4.0734  2.2646  1.3153
  743MOL0     H  270   9.744   7.122   2.923  0.9719  0.1254 -3.3662
  743MOL0     H  271   9.971   7.022   2.939 -0.3576  0.5954  0.7920
  743MOL0     H  272   9.916   6.885   2.839 -1.7746 -0.7239  0.5791
  743MOL0     H  273   9.868   7.070   2.675 -3.4198 -0.2733  3.2398
  743MOL0     H  274   9.929   7.177   2.789 -3.7292 -1.7487  0.9793
  743MOL0     H  275  10.091   6.978   2.608 -2.0902 -0.7661  0.7619
  743MOL0     H  276  10.163   7.024   2.765 -0.0847  2.6903  0.6777
  743MOL0     H  277  10.181   7.261   2.699  1.0692  1.3853 -1.2702
  743MOL0     H  278  10.089   7.236   2.552  0.3883  0.8830  0.5260
  743MOL0     H  279  10.350   7.094   2.600  1.0499  0.1889 -0.3681
  743MOL0     H  280  10.260   7.099   2.454  2.0495  1.2045 -1.1500
  743MOL0     H  281  10.395   7.349   2.578 -0.2024  1.0652  0.1122
  743MOL0     H  282  10.282   7.358   2.447  2.0667  0.6473 -0.9013
  743MOL0     H  283  10.538   7.199   2.433 -0.6058 -1.4988 -2.0582
  743MOL0     H  284  10.419   7.207   2.308 -0.5805 -0.2788  0.9080
  743MOL0     H  285   9.559   7.104   3.089  1.2028 -1.2769  1.1797
  743MOL0     H  286   9.320   7.101   3.098 -0.7576 -0.5368  1.8195
  743MOL0     H  287   8.851   7.057   3.174 -0.7406  0.2417 -0.4767
  743MOL0     H  288   8.622   6.984   3.180 -1.1460 -1.1429 -1.0302
  743MOL0     H  289   8.278   6.758   4.638 -1.8532 -0.4407 -2.4014
  743MOL0     H  290   8.431   6.688   4.811 -1.4813 -0.1696  2.8573
  743MOL0     H  291   8.640   6.238   4.928 -0.8284  0.1172  0.3338
  743MOL0     H  292   8.837   6.143   5.017 -0.6777 -0.8491  2.3883
  743MOL0     H  293   9.125   6.423   5.238  0.5889 -0.2333 -3.1514
  743MOL0     H  294   9.203   6.263   5.238 -2.0224 -2.3906 -2.7139
  743MOL0     H  295   9.082   6.203   5.434  3.1752  1.2608 -0.8564
  743MOL0     H  296   8.975   6.349   5.420 -0.4992  0.6523 -0.8928
  743MOL0     H  297   9.167   6.499   5.474  3.3642 -0.7077  1.6211
  743MOL0     H  298   9.257   6.354   5.508  0.1981 -0.1983 -0.4134
  743MOL0     H  299   9.093   6.303   5.699 -2.8566 -1.1227 -0.2317
  743MOL0     H  300   9.156   6.465   5.703 -1.9652  0.5350  1.1989
  743MOL0     H  301   8.732   6.504   5.660 -0.1386  1.3825 -0.3058
  743MOL0     H  302   8.921   6.488   5.267  2.3521 -1.9003 -0.2898
  743MOL0     H  303   8.760   6.643   5.304  1.3728  1.4099 -1.1826
  743MOL0     H  304   8.695   6.708   5.155  0.3697 -0.1611 -0.0388
  743MOL0     H  305   8.599   6.575   5.253  0.9389  0.1362  1.4646
  744MOL0     O  306   0.298   2.835  10.258 -0.4767  0.0774  0.1907
  744MOL0     C  307   0.322   2.862  10.372  0.1415  0.5636  0.2179
  744MOL0     O  308   0.347   2.989  10.420  0.0515  0.1536  0.5979
  744MOL0     C  309   0.349   3.099  10.330  0.6988 -0.0103  0.0096
  744MOL0     C  310   0.424   3.210  10.380 -0.5067 -0.3392  0.5258
  744MOL0     C  311   0.423   3.326  10.295  0.0473  0.9205 -0.6877
  744MOL0     C  312   0.364   3.333  10.173  0.6305 -0.4499  0.4133
  744MOL0     O  313   0.387   3.451  10.110 -0.1421 -0.5109 -0.1973
  744MOL0     C  314   0.366   3.470   9.972 -0.4641  0.1829  0.3044
  744MOL0     C  315   0.241   3.562   9.948  0.8032 -0.5542  0.1760
  744MOL0     C  316   0.115   3.489   9.916  0.3991  0.1394  1.2668
  744MOL0     C  317  -0.011   3.583   9.924 -0.2188  0.2617 -0.5870
  744MOL0     C  318  -0.145   3.526   9.912 -0.3639 -0.0629 -0.2322
  744MOL0     C  319  -0.236   3.586  10.023 -0.8229 -0.4424  0.2445
  744MOL0     C  320  -0.377   3.542  10.029  0.4855 -0.1255  0.2899
  744MOL0     C  321  -0.463   3.627   9.940 -0.6103  0.3359  0.0457
  744MOL0     N  322  -0.488   3.752  10.005 -1.5559 -0.6423 -0.4743
  744MOL0     C  323  -0.503   3.771  10.136 -0.1926 -0.6946 -1.1115
  744MOL0     C  324  -0.484   3.899  10.160 -0.1420 -0.2795  0.5903
  744MOL0     C  325  -0.489   3.963  10.295 -0.6051  0.5633  0.5073
  744MOL0     C  326  -0.598   3.923  10.391 -0.0055 -0.1325 -0.0884
  744MOL0     C  327  -0.626   4.031  10.498 -0.0463  0.8399  0.5814
  744MOL0     C  328  -0.714   4.152  10.458  0.4963  0.4139  0.3770
  744MOL0     O  329  -0.712   4.247  10.572 -0.1089  0.0727  0.2498
  744MOL0     C  330  -0.705   4.386  10.541  0.5807 -0.0087 -0.4527
  744MOL0     C  331  -0.659   4.468  10.633  0.3547 -1.0916 -0.9382
  744MOL0     C  332  -0.643   4.602  10.613  0.4039 -0.4732  0.3505
  744MOL0     C  333  -0.682   4.654  10.491  0.1605  0.2459 -0.4792
  744MOL0     C  334  -0.664   4.798  10.444  0.5412  0.2118 -0.3896
  744MOL0     O  335  -0.698   4.841  10.322 -0.1406 -0.1950  0.3741
  744MOL0     C  336  -0.650   4.960  10.268  0.1270 -0.5990  0.3669
  744MOL0     C  337  -0.641   4.964  10.121  0.3957 -0.2866 -0.7470
  744MOL0     C  338  -0.607   5.088  10.056 -0.2224  0.4589  0.4538
  744MOL0     C  339  -0.577   5.205  10.133 -0.9826  0.4327  0.4471
  744MOL0     O  340  -0.536   5.317  10.063 -0.0962 -0.4292  0.4763
  744MOL0     C  341  -0.560   5.449  10.116 -0.8581  0.9013 -0.2592
  744MOL0     C  342  -0.710   5.469  10.143 -0.2460  0.2407 -0.0579
  744MOL0     C  343  -0.729   5.601  10.225  0.0068 -0.0501  1.6104
  744MOL0     C  344  -0.734   5.586  10.370 -0.8008  0.1499 -0.5366
  744MOL0     C  345  -0.707   5.714  10.451 -0.9663  0.8596 -0.4643
  744MOL0     C  346  -0.654   5.660  10.590  0.9548 -0.8161 -0.1745
  744MOL0     C  347  -0.636   5.772  10.694 -0.3761 -0.0557 -0.7055
  744MOL0     C  348  -0.572   5.722  10.820 -0.0407  0.0462 -0.2030
  744MOL0    Cl  349  -0.528   5.876  10.916  0.0951  0.2671 -0.1462
  744MOL0     C  350  -0.600   5.201  10.271 -0.6634  0.0764  0.2371
  744MOL0     C  351  -0.635   5.082  10.337  0.1500  0.2780  0.3625
  744MOL0     O  352  -0.603   4.863  10.533 -1.2250 -0.3388  0.2647
  744MOL0     C  353  -0.760   4.580  10.403 -0.8510  0.8870 -0.2557
  744MOL0     C  354  -0.766   4.439  10.421  0.2487  0.1386 -0.8226
  744MOL0     N  355  -0.467   3.955  10.032  0.4812 -0.0263  0.4581
  744MOL0     N  356  -0.473   3.869   9.938  0.8042  0.3555  0.0512
  744MOL0     C  357   0.290   3.223  10.130 -0.9615  0.4986  0.0587
  744MOL0     C  358   0.275   3.108  10.208  0.0436 -0.3449 -0.0868
  744MOL0     C  359   0.331   2.750  10.475  0.0580  1.4040  0.8570
  744MOL0     C  360   0.417   2.777  10.583  0.0793  0.2297  0.0580
  744MOL0     C  361   0.444   2.670  10.672  0.6867  0.0569  0.3614
  744MOL0     C  362   0.386   2.541  10.662  0.3501  0.8284  0.9795
  744MOL0     O  363   0.400   2.439  10.750  0.3460  0.2072  0.0780
  744MOL0     C  364   0.535   2.402  10.777 -0.0031 -0.1871  0.2031
  744MOL0     C  365   0.543   2.369  10.923  0.7102  0.0157 -1.2712
  744MOL0     C  366   0.687   2.358  10.984  0.2179  0.9905 -0.0118
  744MOL0     C  367   0.681   2.303  11.117  0.6649 -0.2058 -0.4207
  744MOL0     C  368   0.625   2.405  11.210 -0.1309 -0.6324  1.6004
  744MOL0     C  369   0.579   2.488  11.285  0.8099 -0.2071  0.5713
  744MOL0     C  370   0.313   2.515  10.548  0.5104  0.3279 -0.2245
  744MOL0     C  371   0.286   2.611  10.457 -0.4276  0.0214  0.0618
  744MOL0     C  372   0.193   2.572  10.345  0.2161  1.3008 -0.5448
  744MOL0     H  373   0.479   3.209  10.473 -0.3832 -0.4593  0.4524
  744MOL0     H  374   0.493   3.406  10.317  2.5403 -1.5991  1.1642
  744MOL0     H  375   0.453   3.521   9.932 -0.3653  1.5837  2.1662
  744MOL0     H  376   0.371   3.380   9.909  4.3567  1.3387 -1.4206
  744MOL0     H  377   0.270   3.627   9.865 -0.1674 -3.2878 -2.5117
  744MOL0     H  378   0.236   3.620  10.040 -1.0808 -0.4196  0.0325
  744MOL0     H  379   0.102   3.400   9.978  2.1510 -0.0482  1.4251
  744MOL0     H  380   0.118   3.459   9.811  0.7285 -0.5986  1.4792
  744MOL0     H  381  -0.011   3.639  10.018  0.0692  0.2751 -0.5966
  744MOL0     H  382  -0.006   3.661   9.848 -1.9655 -0.5316 -1.5922
  744MOL0     H  383  -0.173   3.541   9.807  2.8778 -3.1806 -1.7500
  744MOL0     H  384  -0.136   3.418   9.929 -2.1855  0.0547  1.8655
  744MOL0     H  385  -0.187   3.565  10.118  1.9046  1.0948 -0.7042
  744MOL0     H  386  -0.226   3.694  10.008 -1.1692 -0.4407  0.0135
  744MOL0     H  387  -0.408   3.547  10.134 -2.4328  1.6866 -0.5464
  744MOL0     H  388  -0.395   3.439   9.995 -1.5217  0.1981  0.2449
  744MOL0     H  389  -0.412   3.643   9.844  4.6498  0.8171  2.5880
  744MOL0     H  390  -0.553   3.570   9.918  0.2757 -1.0681 -0.0931
  744MOL0     H  391  -0.532   3.701  10.214 -1.0775  0.7325 -0.1291
  744MOL0     H  392  -0.394   3.961  10.348 -0.4928  2.7094  0.4533
  744MOL0     H  393  -0.499   4.071  10.291  0.0402  0.6054 -0.0109
  744MOL0     H  394  -0.697   3.908  10.346 -2.1183 -1.1050  4.2543
  744MOL0     H  395  -0.559   3.836  10.444  2.2804  2.0027  2.0074
  744MOL0     H  396  -0.531   4.053  10.548 -1.1335  1.0728  2.6760
  744MOL0     H  397  -0.688   3.986  10.577 -1.3531  3.0207  0.8754
  744MOL0     H  398  -0.808   4.111  10.419  1.4471 -0.9222 -0.6257
  744MOL0     H  399  -0.657   4.200  10.378 -0.7393  0.8882 -0.2488
  744MOL0     H  400  -0.621   4.432  10.729  0.4944  3.2928  0.8595
  744MOL0     H  401  -0.596   4.663  10.689 -0.3055  0.3295  0.1711
  744MOL0     H  402  -0.658   4.869  10.071  2.0832 -0.4900 -0.9654
  744MOL0     H  403  -0.582   5.087   9.950  1.5485  2.8743  0.7583
  744MOL0     H  404  -0.508   5.477  10.208 -0.7775  2.2175 -0.6889
  744MOL0     H  405  -0.525   5.519  10.040  0.3175  0.6033 -0.0171
  744MOL0     H  406  -0.759   5.479  10.046 -2.7060 -1.6386  0.8561
  744MOL0     H  407  -0.751   5.382  10.196 -2.3449  1.1339 -0.1427
  744MOL0     H  408  -0.647   5.671  10.204 -1.1854  1.4475  1.7351
  744MOL0     H  409  -0.820   5.656  10.199  2.1932  1.9311 -2.9835
  744MOL0     H  410  -0.661   5.507  10.391 -3.2848 -2.9086 -2.5137
  744MOL0     H  411  -0.830   5.548  10.404 -0.1377 -1.4710 -0.3760
  744MOL0     H  412  -0.799   5.771  10.465 -1.0296  1.4542 -2.7997
  744MOL0     H  413  -0.628   5.778  10.409  0.0330  0.7280  1.1233
  744MOL0     H  414  -0.730   5.588  10.622 -1.3649  1.6206  0.1912
  744MOL0     H  415  -0.561   5.604  10.583  1.1741 -0.7310  1.5307
  744MOL0     H  416  -0.733   5.814  10.721 -1.1031 -1.1453 -1.4999
  744MOL0     H  417  -0.572   5.855  10.662  2.3139 -1.2879  1.1582
  744MOL0     H  418  -0.644   5.658  10.872 -0.1682  0.1349 -0.2688
  744MOL0     H  419  -0.486   5.660  10.796 -1.9431 -1.9846 -2.3762
  744MOL0     H  420  -0.571   5.285  10.334 -2.3075  0.4403  0.5657
  744MOL0     H  421  -0.637   5.083  10.445 -0.0714 -1.0067  0.3848
  744MOL0     H  422  -0.807   4.623  10.315  0.8220  1.2240 -1.0063
  744MOL0     H  423  -0.824   4.380  10.351  1.1395 -2.8214  0.7718
  744MOL0     H  424   0.243   3.223  10.033 -0.7278 -3.2372 -0.1715
  744MOL0     H  425   0.207   3.028  10.179 -1.2920 -1.1639  4.5376
  744MOL0     H  426   0.467   2.867  10.618 -3.2313  2.0525  0.4945
  744MOL0     H  427   0.511   2.683  10.756  1.0142 -0.5211  0.1979
  744MOL0     H  428   0.603   2.486  10.764 -0.6622 -0.1342 -5.3304
  744MOL0     H  429   0.568   2.316  10.718 -3.0631  0.6393 -3.0838
  744MOL0     H  430   0.486   2.276  10.919  1.4239 -0.5555  0.7136
  744MOL0     H  431   0.487   2.446  10.977 -1.2397 -1.6139 -0.8473
  744MOL0     H  432   0.742   2.452  10.997  2.8817  0.1618 -3.6548
  744MOL0     H  433   0.749   2.292  10.923 -1.0957 -0.8329  0.5539
  744MOL0     H  434   0.610   2.220  11.123 -0.2001  0.6026  1.2080
  744MOL0     H  435   0.779   2.261  11.139  0.5212 -0.4072 -0.1561
  744MOL0     H  436   0.542   2.553  11.362  1.4229  0.2086  0.5215
  744MOL0     H  437   0.251   2.426  10.537 -0.4661  0.7829  1.2956
  744MOL0     H  438   0.174   2.649  10.270  0.9453 -0.5209 -2.6907
  744MOL0     H  439   0.235   2.498  10.277 -1.0580 -0.5863  0.6263
  744MOL0     H  440   0.097   2.532  10.379 -0.5152  1.7617 -2.0157
  745MOL0     O  441   7.411   3.616   6.016 -0.4412  0.6531  0.6011
  745MOL0     C  442   7.501   3.544   5.969  0.1970 -0.6818  0.7854
  745MOL0     O  443   7.554   3.438   6.032  0.3748 -0.3458  0.0584
  745MOL0     C  444   7.519   3.413   6.157 -0.4521  0.7020 -0.6872
  745MOL0     C  445   7.598   3.449   6.261  0.8424 -0.4557 -0.2903
  745MOL0     C  446   7.556   3.432   6.397  0.5498 -0.6722 -0.3407
  745MOL0     C  447   7.436   3.376   6.422  0.5547  0.3417 -0.0619
  745MOL0     O  448   7.389   3.362   6.551  0.3056  0.5589 -0.3700
  745MOL0     C  449   7.480   3.317   6.651 -0.3606 -0.6132 -0.4557
  745MOL0     C  450   7.415   3.339   6.796 -0.7647  0.4135  0.2674
  745MOL0     C  451   7.504   3.335   6.911  0.4720 -0.5587  0.7803
  745MOL0     C  452   7.575   3.192   6.920  1.0645  0.3027 -0.5673
  745MOL0     C  453   7.689   3.184   7.011 -0.4016 -1.2107 -0.9339
  745MOL0     C  454   7.740   3.041   7.015  1.0116 -0.1733  0.1245
  745MOL0     C  455   7.841   3.031   7.133 -0.2705  0.4987  0.8066
  745MOL0     C  456   7.881   2.883   7.136 -0.0230  0.7670  0.8297
  745MOL0     N  457   7.987   2.832   7.214 -0.8582 -0.2646  1.0042
  745MOL0     C  458   8.039   2.705   7.210 -0.2676 -1.2857  0.6268
  745MOL0     C  459   8.124   2.693   7.313 -0.0486  0.8938  0.2665
  745MOL0     C  460   8.227   2.578   7.328 -0.0087  0.1984  0.1558
  745MOL0     C  461   8.170   2.439   7.341  0.4986 -0.7287  0.1155
  745MOL0     C  462   8.268   2.343   7.404 -1.5775  0.5370 -0.3526
  745MOL0     C  463   8.384   2.306   7.311 -0.5408 -0.3976 -0.4132
  745MOL0     O  464   8.335   2.275   7.186 -0.1066  0.0306 -0.3834
  745MOL0     C  465   8.417   2.286   7.075 -1.0986  0.4471  1.0649
  745MOL0     C  466   8.372   2.339   6.955  0.4314 -0.6814 -1.3600
  745MOL0     C  467   8.444   2.340   6.837  0.1948  0.8154  0.2720
  745MOL0     C  468   8.566   2.278   6.830  0.0617  0.4639  0.5260
  745MOL0     C  469   8.635   2.273   6.700  0.4294  0.4263  1.2308
  745MOL0     O  470   8.756   2.221   6.701  0.2359  1.0548  0.8203
  745MOL0     C  471   8.831   2.208   6.591  0.0244 -0.0247  0.1750
  745MOL0     C  472   8.840   2.312   6.495  0.6790  0.6298 -0.1827
  745MOL0     C  473   8.907   2.289   6.375 -0.3225  0.2170 -0.0467
  745MOL0     C  474   8.984   2.174   6.351  0.8210  0.4821 -0.1540
  745MOL0     O  475   9.067   2.138   6.247 -0.0675 -0.9431  0.2892
  745MOL0     C  476   9.124   2.234   6.160 -0.3019 -1.1728 -0.1681
  745MOL0     C  477   9.240   2.167   6.092  0.8630 -0.0496 -0.0609
  745MOL0     C  478   9.318   2.270   6.001 -0.4262  0.1497  0.5022
  745MOL0     C  479   9.429   2.353   6.075 -0.3144  0.1672 -0.0539
  745MOL0     C  480   9.541   2.257   6.133 -0.5146 -0.5145  0.6335
  745MOL0     C  481   9.595   2.156   6.029  0.8784  0.3051 -0.3022
  745MOL0     C  482   9.726   2.100   6.071 -0.1370 -0.2000 -0.2528
  745MOL0     C  483   9.716   1.986   6.169  0.0619 -0.2256 -0.7796
  745MOL0    Cl  484   9.631   1.837   6.114  0.1762  0.1653 -0.0850
  745MOL0     C  485   8.980   2.078   6.454  0.5542  0.5280  0.2777
  745MOL0     C  486   8.910   2.093   6.574 -0.1318 -0.2784  0.2955
  745MOL0     O  487   8.579   2.310   6.598  0.4198 -0.1951 -0.0256
  745MOL0     C  488   8.613   2.226   6.950  0.7060  0.8646 -0.1476
  745MOL0     C  489   8.541   2.228   7.066  0.0759  0.6784 -0.1352
  745MOL0     N  490   8.114   2.795   7.398  0.2647 -0.1039  0.4011
  745MOL0     N  491   8.015   2.880   7.345  0.0464  0.7767 -0.1581
  745MOL0     C  492   7.355   3.336   6.322 -0.1204  1.1439  1.2392
  745MOL0     C  493   7.401   3.351   6.189  0.1357  0.1919 -0.7372
  745MOL0     C  494   7.577   3.578   5.837  0.2642 -0.0398 -0.2107
  745MOL0     C  495   7.703   3.516   5.810  1.1615  0.2151  0.2054
  745MOL0     C  496   7.760   3.515   5.683  0.4029  0.4710  0.0423
  745MOL0     C  497   7.704   3.600   5.576 -0.1734 -0.3743 -0.3819
  745MOL0     O  498   7.752   3.621   5.456 -0.5105 -0.4570  0.3978
  745MOL0     C  499   7.892   3.673   5.429 -0.1319  0.0149 -0.0295
  745MOL0     C  500   7.878   3.813   5.367 -0.3786 -0.5692 -0.2585
  745MOL0     C  501   7.761   3.833   5.267 -0.3436 -0.2106 -0.0072
  745MOL0     C  502   7.776   3.967   5.183  0.3214 -0.9219  0.8421
  745MOL0     C  503   7.680   3.984   5.067  0.5109  0.4490 -0.9128
  745MOL0     C  504   7.589   3.986   4.984  0.0105 -0.5408 -0.1454
  745MOL0     C  505   7.584   3.669   5.606 -0.9954 -0.1603  0.0502
  745MOL0     C  506   7.525   3.658   5.731 -1.1915 -0.0795 -0.0530
  745MOL0     C  507   7.394   3.732   5.758 -0.6915  0.3836  0.4657
  745MOL0     H  508   7.688   3.505   6.239 -1.3473  2.6848 -1.9895
  745MOL0     H  509   7.629   3.444   6.476  0.5140 -0.1325 -0.3873
  745MOL0     H  510   7.505   3.211   6.636 -0.5860 -0.9108  1.0699
  745MOL0     H  511   7.574   3.373   6.662  0.5770 -2.1931 -0.0990
  745MOL0     H  512   7.332   3.269   6.809 -0.6661 -0.0816 -1.4767
  745MOL0     H  513   7.354   3.430   6.792 -6.5588 -3.0172 -0.4200
  745MOL0     H  514   7.449   3.350   7.004  1.3380 -0.9208  1.3527
  745MOL0     H  515   7.572   3.420   6.907 -2.3632  1.8511 -1.1532
  745MOL0     H  516   7.498   3.119   6.945  1.5469 -0.9509 -2.5243
  745MOL0     H  517   7.628   3.174   6.825  0.6923 -3.8330 -0.1843
  745MOL0     H  518   7.765   3.260   6.990 -0.3942 -1.8360 -3.5605
  745MOL0     H  519   7.663   3.201   7.116 -1.2170  1.3271 -1.4769
  745MOL0     H  520   7.667   2.962   7.037  1.6002 -1.2917 -1.6682
  745MOL0     H  521   7.793   3.019   6.922  2.5720  0.9194  0.7195
  745MOL0     H  522   7.800   3.062   7.230  0.9923  1.0550  1.1768
  745MOL0     H  523   7.931   3.092   7.125 -0.9075  1.8030  2.6015
  745MOL0     H  524   7.796   2.827   7.175 -2.2390  1.9430 -1.9758
  745MOL0     H  525   7.899   2.860   7.030 -1.2489 -0.1157  0.7959
  745MOL0     H  526   8.024   2.643   7.122  0.7142  0.7142 -1.0203
  745MOL0     H  527   8.296   2.582   7.244  0.1581 -1.2338  0.2022
  745MOL0     H  528   8.285   2.606   7.417 -0.6976  0.8196  0.4289
  745MOL0     H  529   8.082   2.432   7.405  0.2794 -1.8482 -0.2815
  745MOL0     H  530   8.142   2.402   7.242  0.9324 -2.3445  0.5593
  745MOL0     H  531   8.211   2.251   7.419  0.6589 -1.4513 -2.9499
  745MOL0     H  532   8.300   2.374   7.504 -0.7811 -1.1751 -0.0393
  745MOL0     H  533   8.428   2.211   7.344 -0.3778  0.1326  0.9614
  745MOL0     H  534   8.463   2.382   7.304 -1.9963  1.4588  1.9583
  745MOL0     H  535   8.293   2.414   6.952 -0.1216 -1.1893  0.0321
  745MOL0     H  536   8.405   2.396   6.753  1.9787  1.4225 -0.1870
  745MOL0     H  537   8.777   2.399   6.506  0.5677  0.8177 -2.0160
  745MOL0     H  538   8.894   2.355   6.290  0.1196  1.3092  0.7065
  745MOL0     H  539   9.051   2.282   6.094  1.5274  1.9317 -0.1639
  745MOL0     H  540   9.149   2.321   6.221 -3.1678 -0.0140 -0.5161
  745MOL0     H  541   9.313   2.143   6.170  1.2396 -0.3787 -0.5089
  745MOL0     H  542   9.219   2.072   6.044  3.9004 -1.5621  1.3297
  745MOL0     H  543   9.369   2.218   5.920  1.0901  0.6683  1.0894
  745MOL0     H  544   9.250   2.347   5.962  0.1373  1.2352  1.5777
  745MOL0     H  545   9.386   2.405   6.161  2.5725  3.1421 -0.2541
  745MOL0     H  546   9.470   2.427   6.006  1.5424  1.3214  2.1381
  745MOL0     H  547   9.493   2.203   6.215 -0.9919 -1.9843 -0.5475
  745MOL0     H  548   9.629   2.310   6.167  1.3296  0.3723 -4.5648
  745MOL0     H  549   9.527   2.073   6.009  1.0885 -0.4452  1.8988
  745MOL0     H  550   9.601   2.218   5.939  0.8172  0.1782 -0.3939
  745MOL0     H  551   9.776   2.180   6.126 -3.1244  0.3366  1.9207
  745MOL0     H  552   9.786   2.057   5.990  0.6048  0.2918  0.0244
  745MOL0     H  553   9.813   1.947   6.202 -0.2264  0.2570  0.7315
  745MOL0     H  554   9.674   2.025   6.262 -0.7568  0.7573 -1.5436
  745MOL0     H  555   9.038   1.990   6.429 -0.0086  0.4354 -0.7817
  745MOL0     H  556   8.926   2.009   6.641  2.1702 -0.4131 -0.3169
  745MOL0     H  557   8.715   2.187   6.949  0.5736  0.4770  0.9565
  745MOL0     H  558   8.574   2.179   7.157 -0.7914  2.6605  1.3289
  745MOL0     H  559   7.252   3.307   6.339 -0.2525 -0.3075 -1.4837
  745MOL0     H  560   7.344   3.333   6.098  1.7318 -2.5194 -1.3267
  745MOL0     H  561   7.739   3.449   5.888 -2.6930  1.7851  3.7034
  745MOL0     H  562   7.846   3.451   5.674 -1.5169 -2.7570  2.4635
  745MOL0     H  563   7.934   3.595   5.366  0.7670  0.5408 -0.0916
  745MOL0     H  564   7.953   3.674   5.520 -0.6594 -1.6887  0.3792
  745MOL0     H  565   7.971   3.834   5.314  0.2138 -0.4750  0.7771
  745MOL0     H  566   7.872   3.887   5.448  1.6814 -2.6526  2.0051
  745MOL0     H  567   7.664   3.836   5.317  0.1571  2.0639  0.9594
  745MOL0     H  568   7.762   3.750   5.195  1.9992  0.0024 -0.3131
  745MOL0     H  569   7.772   4.057   5.245  0.9414 -2.7675  3.7104
  745MOL0     H  570   7.874   3.980   5.138  1.6886  1.5266  4.1577
  745MOL0     H  571   7.505   3.999   4.918 -0.5613  0.7062  0.7837
  745MOL0     H  572   7.536   3.736   5.536  0.5281  0.0916 -0.8095
  745MOL0     H  573   7.352   3.790   5.675 -2.6816 -1.8405 -0.1852
  745MOL0     H  574   7.321   3.654   5.780  0.3490 -0.9656 -0.7504
  745MOL0     H  575   7.412   3.798   5.844  3.1665  0.6146 -0.3525
  746MOL0     O  576   0.024   0.950   4.549 -0.1423 -0.5802 -1.0821
  746MOL0     C  577  -0.052   1.034   4.510  0.2882 -0.6483  0.4430
  746MOL0     O  578  -0.010   1.162   4.467  0.1979 -0.7794  0.6870
  746MOL0     C  579   0.120   1.202   4.493  0.8549  0.7594 -0.6783
  746MOL0     C  580   0.191   1.174   4.613 -0.3061  0.2171  0.2743
  746MOL0     C  581   0.311   1.245   4.646 -0.0307  0.1994 -0.0175
  746MOL0     C  582   0.357   1.341   4.560  0.7519  0.0775  0.0683
  746MOL0     O  583   0.470   1.423   4.577  0.1980  0.0678  0.0482
  746MOL0     C  584   0.541   1.425   4.703  0.3417  0.1336  0.3505
  746MOL0     C  585   0.632   1.547   4.719 -0.1456  0.4434  1.1530
  746MOL0     C  586   0.767   1.530   4.647  0.2825  0.6677 -0.9532
  746MOL0     C  587   0.845   1.657   4.688 -0.2702  0.4944 -0.4962
  746MOL0     C  588   0.996   1.651   4.667  0.3232  0.6207 -1.0388
  746MOL0     C  589   1.046   1.796   4.670  0.6512 -0.2690 -0.0532
  746MOL0     C  590   1.181   1.833   4.610 -0.3145 -0.7059  0.7377
  746MOL0     C  591   1.223   1.985   4.601 -0.5583  0.3438  0.1149
  746MOL0     N  592   1.351   1.986   4.532 -0.4368 -0.3493  0.5686
  746MOL0     C  593   1.389   2.054   4.417  0.1726 -0.4517 -0.3498
  746MOL0     C  594   1.528   2.070   4.428 -1.1055 -0.1812 -0.2593
  746MOL0     C  595   1.640   2.143   4.348 -0.1970  0.4777  0.0817
  746MOL0     C  596   1.682   2.073   4.221  0.5747 -0.7999  1.4327
  746MOL0     C  597   1.732   1.934   4.231  0.0253  0.2875 -0.2305
  746MOL0     C  598   1.772   1.880   4.093 -0.4888  0.4972  0.0256
  746MOL0     O  599   1.890   1.950   4.050 -0.1677  0.0229 -0.6650
  746MOL0     C  600   2.007   1.917   4.117  0.4570 -0.1215  0.1228
  746MOL0     C  601   2.085   2.027   4.170 -0.7173  0.1924 -0.0968
  746MOL0     C  602   2.207   1.999   4.238  0.7998  0.3753  0.4851
  746MOL0     C  603   2.247   1.867   4.258  0.0051  0.3328  0.4642
  746MOL0     C  604   2.361   1.841   4.340 -0.4590 -0.3746 -0.1081
  746MOL0     O  605   2.430   1.959   4.380 -0.3104 -0.2889 -0.6177
  746MOL0     C  606   2.519   1.934   4.484  0.4814  0.8339  0.3052
  746MOL0     C  607   2.481   1.902   4.614 -0.5496 -0.2722  0.7821
  746MOL0     C  608   2.574   1.888   4.721 -0.1781 -0.1297 -0.6041
  746MOL0     C  609   2.713   1.919   4.706  0.1412 -0.0663  0.2298
  746MOL0     O  610   2.810   1.928   4.803 -0.2183  1.9008 -0.5284
  746MOL0     C  611   2.754   1.920   4.936  0.0837  0.1407  0.1265
  746MOL0     C  612   2.839   1.984   5.033  0.3157 -0.1829 -0.2402
  746MOL0     C  613   2.985   1.947   5.062 -0.1669 -0.6759  1.3155
  746MOL0     C  614   3.085   1.978   4.950  0.0144  0.8258  0.2290
  746MOL0     C  615   3.104   2.132   4.932 -0.2639  1.0562  0.4008
  746MOL0     C  616   3.154   2.162   4.791  0.5717 -0.4738  0.2584
  746MOL0     C  617   3.045   2.150   4.687 -0.0774  0.4059 -0.3554
  746MOL0     C  618   3.103   2.197   4.557  0.1238  0.3208 -0.4531
  746MOL0    Cl  619   3.001   2.132   4.415 -0.0754 -0.5420  0.1362
  746MOL0     C  620   2.747   1.961   4.569 -0.3053  0.2077  0.1995
  746MOL0     C  621   2.654   1.960   4.465 -0.8146 -0.0566  0.9648
  746MOL0     O  622   2.382   1.725   4.373  0.4183 -0.1442 -0.8694
  746MOL0     C  623   2.170   1.758   4.193 -0.1517 -0.4484  0.1386
  746MOL0     C  624   2.053   1.787   4.131  0.9593  0.2840 -0.0631
  746MOL0     N  625   1.572   1.976   4.532 -0.3509  0.2529 -0.1247
  746MOL0     N  626   1.464   1.930   4.583 -0.4254  0.0035  0.4844
  746MOL0     C  627   0.287   1.362   4.439  0.1381 -0.6893  0.1576
  746MOL0     C  628   0.169   1.301   4.411 -0.1008  0.3773 -0.2464
  746MOL0     C  629  -0.189   1.004   4.490 -0.2373  0.4226  0.8056
  746MOL0     C  630  -0.265   1.086   4.397 -0.9226  0.0276 -0.7227
  746MOL0     C  631  -0.392   1.063   4.362  0.5707 -0.8631  0.0627
  746MOL0     C  632  -0.458   0.948   4.407 -0.2036 -0.9481 -0.4989
  746MOL0     O  633  -0.594   0.917   4.382  0.3527 -0.2108  0.0307
  746MOL0     C  634  -0.671   0.999   4.288 -0.7384 -0.0566 -0.7403
  746MOL0     C  635  -0.818   0.949   4.266  0.3760 -0.6653 -0.0217
  746MOL0     C  636  -0.905   0.964   4.391  0.0898  0.2943  0.4106
  746MOL0     C  637  -1.051   0.934   4.377 -0.4523  0.2110  0.1327
  746MOL0     C  638  -1.091   0.840   4.491 -0.5469 -0.2209  1.6822
  746MOL0     C  639  -1.118   0.784   4.597  0.5245 -1.4925 -0.2941
  746MOL0     C  640  -0.389   0.863   4.496  0.9302 -0.6870 -0.7516
  746MOL0     C  641  -0.259   0.893   4.541  0.4144  0.4450 -0.1144
  746MOL0     C  642  -0.198   0.783   4.628  0.1412 -0.3134  0.0354
  746MOL0     H  643   0.161   1.106   4.691 -0.5067  0.7510  0.6697
  746MOL0     H  644   0.355   1.223   4.742 -1.5810 -0.2654  0.6178
  746MOL0     H  645   0.462   1.416   4.779  0.1936 -0.1271  0.1641
  746MOL0     H  646   0.604   1.337   4.717 -1.0578 -0.7768  1.1289
  746MOL0     H  647   0.641   1.568   4.826  0.7229 -0.2142  1.2141
  746MOL0     H  648   0.593   1.642   4.679  0.5559 -0.0444 -0.7901
  746MOL0     H  649   0.749   1.520   4.540 -0.3955 -1.1610 -0.7121
  746MOL0     H  650   0.822   1.439   4.676  0.5210  1.5546  1.6610
  746MOL0     H  651   0.813   1.738   4.621 -1.5959 -0.2732 -0.8209
  746MOL0     H  652   0.839   1.688   4.793  3.0473  3.1362 -0.9298
  746MOL0     H  653   1.053   1.584   4.732 -0.2825 -0.6897 -1.8090
  746MOL0     H  654   1.005   1.613   4.564  0.5384  2.3158 -1.6863
  746MOL0     H  655   0.971   1.860   4.622  1.3475  0.6616  0.0870
  746MOL0     H  656   1.055   1.835   4.772 -0.6894  1.4656 -0.5460
  746MOL0     H  657   1.176   1.809   4.503  0.7526  0.8699  0.2971
  746MOL0     H  658   1.258   1.772   4.658 -0.8624 -0.7946  1.5063
  746MOL0     H  659   1.142   2.030   4.542 -0.6140  0.1813  0.0656
  746MOL0     H  660   1.231   2.038   4.696 -0.3705  0.9395 -0.2248
  746MOL0     H  661   1.326   2.094   4.338  1.4226  2.3470 -0.0580
  746MOL0     H  662   1.616   2.242   4.306 -0.2684  0.0072 -1.0302
  746MOL0     H  663   1.714   2.172   4.423  1.0288  5.0518 -2.4684
  746MOL0     H  664   1.592   2.061   4.160  0.3856 -1.8980  1.8980
  746MOL0     H  665   1.755   2.134   4.168 -0.3164 -2.0917 -1.4931
  746MOL0     H  666   1.658   1.860   4.264 -0.2564 -0.4637 -2.3733
  746MOL0     H  667   1.817   1.929   4.300  0.3526  1.3236 -0.5408
  746MOL0     H  668   1.691   1.903   4.022 -0.4445 -0.0801 -0.2226
  746MOL0     H  669   1.781   1.771   4.091 -1.5311  0.3529 -3.3696
  746MOL0     H  670   2.063   2.132   4.159  1.1749  0.6061 -0.2912
  746MOL0     H  671   2.250   2.091   4.275 -2.1039  0.8305  3.1554
  746MOL0     H  672   2.375   1.896   4.636 -0.7230  3.3824  1.4653
  746MOL0     H  673   2.524   1.856   4.812  2.7019 -0.5445  0.9824
  746MOL0     H  674   2.654   1.964   4.939 -1.2864 -2.7001 -0.5634
  746MOL0     H  675   2.760   1.817   4.972  1.3016 -0.0968 -0.7180
  746MOL0     H  676   2.826   2.092   5.024  1.1672  0.2687  2.8107
  746MOL0     H  677   2.792   1.959   5.128 -0.8091  2.5633  0.0073
  746MOL0     H  678   3.018   1.978   5.162  0.2848 -3.1640  1.9955
  746MOL0     H  679   2.971   1.840   5.079 -1.5769 -0.7281  0.0427
  746MOL0     H  680   3.040   1.924   4.866  0.7232 -0.1017  0.4258
  746MOL0     H  681   3.183   1.931   4.956 -0.5400 -0.3749  0.2985
  746MOL0     H  682   3.187   2.170   4.993  0.2213  1.4919 -0.5146
  746MOL0     H  683   3.014   2.193   4.948 -0.8048  0.6266 -0.8555
  746MOL0     H  684   3.192   2.264   4.783  0.0492 -0.1506  1.5710
  746MOL0     H  685   3.241   2.098   4.779  0.0229 -1.4770  1.4943
  746MOL0     H  686   2.966   2.220   4.715  2.4826  3.4795 -0.1510
  746MOL0     H  687   3.013   2.047   4.674 -1.2233  0.6309  0.5424
  746MOL0     H  688   3.105   2.307   4.558  0.5720  0.4338  3.5298
  746MOL0     H  689   3.200   2.148   4.549  0.1112  0.2186  0.0234
  746MOL0     H  690   2.850   1.991   4.551 -1.1310  4.5964  1.5245
  746MOL0     H  691   2.688   1.994   4.368  0.5336 -3.2788  0.1602
  746MOL0     H  692   2.209   1.657   4.193 -0.0567 -0.4223 -0.5978
  746MOL0     H  693   1.995   1.706   4.088 -0.8043  1.5616 -0.2203
  746MOL0     H  694   0.323   1.428   4.361  0.3241  0.4615  1.1865
  746MOL0     H  695   0.129   1.322   4.312  1.3752 -1.2152 -1.2371
  746MOL0     H  696  -0.223   1.177   4.355 -2.4275  0.8740 -0.4428
  746MOL0     H  697  -0.441   1.132   4.295  1.0580 -0.9528 -0.3901
  746MOL0     H  698  -0.622   0.984   4.192  1.8232  1.4358  0.2380
  746MOL0     H  699  -0.667   1.101   4.327 -0.7693 -0.5076  0.5167
  746MOL0     H  700  -0.826   0.842   4.244  0.6116 -0.8713  0.8655
  746MOL0     H  701  -0.865   1.011   4.189  1.2873 -0.5072 -0.4657
  746MOL0     H  702  -0.892   1.069   4.416  0.4868 -0.1132  2.0548
  746MOL0     H  703  -0.863   0.903   4.472  2.1581  1.1519  0.0348
  746MOL0     H  704  -1.108   1.027   4.380 -0.2136  0.3433  1.0158
  746MOL0     H  705  -1.073   0.889   4.280 -0.4147 -2.4771  1.2938
  746MOL0     H  706  -1.112   0.736   4.693 -0.2238  2.3396  1.8790
  746MOL0     H  707  -0.444   0.776   4.532 -1.4222  0.5863 -1.0940
  746MOL0     H  708  -0.269   0.720   4.682 -0.7277 -1.4436 -2.2643
  746MOL0     H  709  -0.136   0.715   4.568  0.3367 -0.8617  0.8455
  746MOL0     H  710  -0.134   0.832   4.702 -2.3632  1.2287  1.3362
  747MOL0     O  711   5.257   6.785   5.577  0.8724  0.8189 -0.1453
  747MOL0     C  712   5.177   6.779   5.488 -0.2027  0.3232 -0.4688
  747MOL0     O  713   5.134   6.880   5.419 -0.5693 -0.2528 -0.2273
  747MOL0     C  714   5.201   6.999   5.445 -0.3279 -0.5892  0.3208
  747MOL0     C  715   5.133   7.104   5.520 -0.1803  0.5238  0.3708
  747MOL0     C  716   5.203   7.221   5.561 -0.2028  0.0395  0.6139
  747MOL0     C  717   5.333   7.243   5.519 -1.1206  0.0026 -0.8723
  747MOL0     O  718   5.400   7.354   5.563 -0.2885 -0.2124  0.1139
  747MOL0     C  719   5.399   7.384   5.701 -0.7893 -0.3720 -0.2256
  747MOL0     C  720   5.505   7.292   5.787 -1.0818 -0.4651 -0.4942
  747MOL0     C  721   5.658   7.319   5.769 -0.0961  0.9335  0.3968
  747MOL0     C  722   5.735   7.260   5.896  0.2421 -0.0947  0.1546
  747MOL0     C  723   5.888   7.265   5.872 -0.7542 -0.4611  0.6628
  747MOL0     C  724   5.982   7.194   5.970  0.9807 -1.2391 -0.2014
  747MOL0     C  725   6.126   7.238   5.951  0.2490 -0.0770 -0.6565
  747MOL0     C  726   6.226   7.149   6.033  0.5416  0.6211 -0.5735
  747MOL0     N  727   6.357   7.205   6.006  0.3214  0.2052  0.0098
  747MOL0     C  728   6.435   7.185   5.893  0.3616  0.6429 -0.1037
  747MOL0     C  729   6.525   7.292   5.896  0.0876  1.1103  0.6395
  747MOL0     C  730   6.622   7.309   5.779 -0.4154 -0.2151  0.6344
  747MOL0     C  731   6.763   7.279   5.812  0.0892  0.1112 -0.5325
  747MOL0     C  732   6.855   7.273   5.696 -0.6583  0.7488 -0.4550
  747MOL0     C  733   6.838   7.154   5.605 -0.3330  0.1108  0.7818
  747MOL0     O  734   6.911   7.148   5.480  0.1837 -0.2010 -0.2328
  747MOL0     C  735   7.029   7.081   5.486  0.2388 -0.2465 -0.1500
  747MOL0     C  736   7.083   6.996   5.582  0.2918  0.0172 -0.1038
  747MOL0     C  737   7.194   6.917   5.563 -0.7446 -0.6122  0.4854
  747MOL0     C  738   7.272   6.927   5.445  0.0820 -0.3488 -0.0911
  747MOL0     C  739   7.389   6.838   5.428 -0.6546  0.3926  0.9166
  747MOL0     O  740   7.433   6.753   5.537 -0.1600 -0.4709  0.8362
  747MOL0     C  741   7.546   6.678   5.530 -0.3022 -0.4837 -0.1664
  747MOL0     C  742   7.669   6.729   5.489  0.1107  0.1481 -0.0937
  747MOL0     C  743   7.780   6.651   5.505 -0.2427 -0.1777 -0.4497
  747MOL0     C  744   7.786   6.528   5.579  1.5695  0.0920 -0.6886
  747MOL0     O  745   7.912   6.472   5.598 -0.3755 -0.4642 -0.5125
  747MOL0     C  746   7.924   6.342   5.670  1.0472 -0.9660 -0.0761
  747MOL0     C  747   8.076   6.301   5.656 -0.1294  0.2143 -0.0094
  747MOL0     C  748   8.171   6.378   5.747  0.2307 -0.2482  0.6905
  747MOL0     C  749   8.303   6.313   5.741  0.0721 -0.0730 -0.1340
  747MOL0     C  750   8.412   6.397   5.811 -0.4135  0.5347  1.1729
  747MOL0     C  751   8.496   6.315   5.917 -0.4890  0.1246  0.4127
  747MOL0     C  752   8.618   6.399   5.963  0.1077  1.0420 -0.8541
  747MOL0     C  753   8.726   6.293   5.981 -0.0715 -0.0088 -1.2820
  747MOL0    Cl  754   8.885   6.358   6.018 -0.5784  0.0165  0.4463
  747MOL0     C  755   7.663   6.496   5.639  0.3731 -0.2950  0.3163
  747MOL0     C  756   7.542   6.562   5.606  0.1969  0.6525  0.6853
  747MOL0     O  757   7.441   6.830   5.314  0.1234 -1.0126 -1.2376
  747MOL0     C  758   7.223   7.015   5.350  0.1834  0.1364 -0.2826
  747MOL0     C  759   7.101   7.082   5.370  0.3624  0.0706  0.8542
  747MOL0     N  760   6.508   7.362   6.008 -0.1148  0.5219 -0.2796
  747MOL0     N  761   6.406   7.307   6.075  0.5675 -0.0339  0.2352
  747MOL0     C  762   5.397   7.142   5.455 -0.1733  0.6748  0.3917
  747MOL0     C  763   5.338   7.024   5.423 -0.0645  0.2815  0.6830
  747MOL0     C  764   5.108   6.651   5.456 -0.6884 -1.2736 -0.1064
  747MOL0     C  765   4.975   6.640   5.442  0.2979 -0.4209 -0.1877
  747MOL0     C  766   4.920   6.523   5.401  0.1439 -0.1812  0.7009
  747MOL0     C  767   4.991   6.411   5.372 -0.9106 -0.5053 -0.3694
  747MOL0     O  768   4.942   6.301   5.312 -0.2145  0.4715  0.2755
  747MOL0     C  769   4.877   6.319   5.181 -0.0724 -0.7370  0.2207
  747MOL0     C  770   4.983   6.341   5.068 -0.2186  0.4051  0.6429
  747MOL0     C  771   4.931   6.403   4.939 -0.1124 -0.8952  0.2632
  747MOL0     C  772   5.004   6.352   4.814  0.7963  0.1248  0.4181
  747MOL0     C  773   4.943   6.227   4.771  0.9233 -0.4676  1.2843
  747MOL0     C  774   4.905   6.128   4.720  0.3209  0.1570 -0.0605
  747MOL0     C  775   5.132   6.418   5.395  0.4836 -0.2605  0.7281
  747MOL0     C  776   5.187   6.532   5.434 -0.0604 -0.4758  0.2056
  747MOL0     C  777   5.333   6.536   5.455 -0.4362  0.1082 -0.0294
  747MOL0     H  778   5.040   7.077   5.569 -0.2957  1.5508  0.7365
  747MOL0     H  779   5.153   7.294   5.624 -0.2167  0.1597  0.4654
  747MOL0     H  780   5.425   7.490   5.714  1.5455 -0.5901 -2.2879
  747MOL0     H  781   5.300   7.370   5.744 -0.4547 -1.3451  0.2639
  747MOL0     H  782   5.485   7.190   5.753 -2.9305  0.0770 -1.1974
  747MOL0     H  783   5.483   7.306   5.893  1.4753  0.3143 -0.0169
  747MOL0     H  784   5.668   7.428   5.764 -0.0456  0.8977 -0.3891
  747MOL0     H  785   5.696   7.279   5.675  1.1371 -0.5555  1.4778
  747MOL0     H  786   5.707   7.316   5.986 -0.5054 -0.5899  0.2414
  747MOL0     H  787   5.706   7.156   5.915 -1.8116  0.3424 -0.3391
  747MOL0     H  788   5.905   7.215   5.776  1.2147  1.0251  0.1723
  747MOL0     H  789   5.927   7.366   5.859  0.3989 -0.6484  2.4075
  747MOL0     H  790   5.961   7.223   6.074  1.7590 -1.5328  0.0479
  747MOL0     H  791   5.968   7.086   5.977 -2.3724 -1.0793 -2.3625
  747MOL0     H  792   6.144   7.339   5.989  1.9592 -0.2415 -0.9383
  747MOL0     H  793   6.151   7.235   5.845 -1.7891 -3.0091 -1.1694
  747MOL0     H  794   6.199   7.141   6.139  0.5921  0.9408 -0.5359
  747MOL0     H  795   6.225   7.042   6.009 -1.3910  0.2064  1.0099
  747MOL0     H  796   6.422   7.138   5.796  2.4043  1.3689 -0.7733
  747MOL0     H  797   6.598   7.250   5.690  0.3807  2.0317 -1.1872
  747MOL0     H  798   6.619   7.411   5.737 -0.8527 -0.9988 -1.3520
  747MOL0     H  799   6.801   7.354   5.882  1.8253 -0.4709 -0.8051
  747MOL0     H  800   6.767   7.180   5.858 -1.2384  0.0402 -0.5163
  747MOL0     H  801   6.952   7.255   5.744 -1.7514 -0.9042  1.2560
  747MOL0     H  802   6.871   7.368   5.644  1.7314  0.6120 -0.0913
  747MOL0     H  803   6.733   7.160   5.574  0.4426 -1.3299 -2.5983
  747MOL0     H  804   6.856   7.066   5.668 -1.0284  0.1232  1.0010
  747MOL0     H  805   7.043   6.984   5.682  0.8354  1.2074  0.2699
  747MOL0     H  806   7.225   6.858   5.649 -1.3089 -1.2693  0.2489
  747MOL0     H  807   7.683   6.827   5.445  0.2596 -0.7419 -2.1041
  747MOL0     H  808   7.880   6.675   5.470  0.9699 -0.0126  2.8165
  747MOL0     H  809   7.898   6.350   5.776 -4.9777 -0.0129 -1.2841
  747MOL0     H  810   7.859   6.269   5.621  2.0049 -1.0781 -1.2252
  747MOL0     H  811   8.089   6.193   5.673 -2.8558 -0.3147 -0.6999
  747MOL0     H  812   8.085   6.317   5.548 -1.8841 -0.8234 -0.3647
  747MOL0     H  813   8.178   6.482   5.714 -1.5663 -0.2390  0.2863
  747MOL0     H  814   8.137   6.373   5.851  1.2534  0.7150  1.1078
  747MOL0     H  815   8.321   6.293   5.635  0.9619  0.1741 -0.0341
  747MOL0     H  816   8.309   6.213   5.783 -4.4309  0.2123  1.7721
  747MOL0     H  817   8.371   6.484   5.863 -0.2326 -0.0942  2.4122
  747MOL0     H  818   8.481   6.439   5.738 -3.2234 -1.3828 -2.9514
  747MOL0     H  819   8.426   6.294   5.999 -1.8314 -0.2863 -0.7871
  747MOL0     H  820   8.524   6.221   5.869 -3.1074 -0.3321 -0.3782
  747MOL0     H  821   8.591   6.434   6.063  0.4871 -0.7998 -0.0613
  747MOL0     H  822   8.637   6.477   5.890  0.5002  0.3113 -1.5472
  747MOL0     H  823   8.695   6.228   6.064  0.5758  0.6833 -0.4798
  747MOL0     H  824   8.739   6.224   5.898  2.1186 -0.8164 -0.3378
  747MOL0     H  825   7.667   6.413   5.709  0.1002 -3.1015 -2.7313
  747MOL0     H  826   7.447   6.530   5.648 -0.5845  0.9920 -0.7754
  747MOL0     H  827   7.294   7.022   5.269 -0.3543 -0.9885 -0.8719
  747MOL0     H  828   7.071   7.144   5.286 -0.2457 -2.1660 -0.6867
  747MOL0     H  829   5.501   7.155   5.427  0.0225 -0.1189  0.7058
  747MOL0     H  830   5.392   6.945   5.372 -2.2327 -2.2204  2.0500
  747MOL0     H  831   4.906   6.723   5.451 -0.2004 -0.5292 -2.4799
  747MOL0     H  832   4.811   6.525   5.399  0.1001  0.7189  2.2078
  747MOL0     H  833   4.806   6.402   5.180 -0.3054 -0.9368 -1.0442
  747MOL0     H  834   4.815   6.230   5.172 -0.9274 -0.3409  1.7081
  747MOL0     H  835   5.030   6.243   5.051  4.5258  2.1271  2.1608
  747MOL0     H  836   5.062   6.405   5.108 -0.1548  0.3738  0.5665
  747MOL0     H  837   4.947   6.511   4.945 -1.7170 -0.5275 -1.3844
  747MOL0     H  838   4.824   6.397   4.918 -0.1896  0.1868  0.2851
  747MOL0     H  839   4.997   6.419   4.728  0.6390 -0.9085 -0.3848
  747MOL0     H  840   5.111   6.333   4.827  0.3172 -1.7475  1.8906
  747MOL0     H  841   4.858   6.038   4.684  1.0263  0.0622 -0.7773
  747MOL0     H  842   5.204   6.338   5.384  0.5101 -0.3533  1.5326
  747MOL0     H  843   5.364   6.539   5.560 -0.1130  2.0092 -0.1445
  747MOL0     H  844   5.383   6.448   5.412 -0.4499 -1.9614  3.7724
  747MOL0     H  845   5.383   6.626   5.418  0.2206 -0.8083 -1.4891
  748MOL0     O  846  10.400   1.506   5.762 -0.2473 -0.4700 -0.0186
  748MOL0     C  847  10.510   1.557   5.726 -1.0488  0.5785  0.7154
  748MOL0     O  848  10.527   1.671   5.665  0.1992  0.3688  0.6929
  748MOL0     C  849  10.417   1.743   5.638  0.3063  0.0524  0.0096
  748MOL0     C  850  10.294   1.708   5.580 -0.3258 -0.7588 -0.9346
  748MOL0     C  851  10.206   1.804   5.540  0.2161  0.0299 -0.2842
  748MOL0     C  852  10.232   1.944   5.566 -0.1244  0.9975 -0.5658
  748MOL0     O  853  10.141   2.045   5.552 -0.5539 -0.0843 -0.5908
  748MOL0     C  854  10.079   2.036   5.430 -0.3244  0.7194 -0.1380
  748MOL0     C  855  10.060   2.182   5.386 -0.3284 -0.0959  0.4513
  748MOL0     C  856   9.971   2.203   5.254  0.0983 -0.5401 -0.3242
  748MOL0     C  857   9.822   2.181   5.288 -0.3162  0.0180 -0.4262
  748MOL0     C  858   9.731   2.260   5.187 -0.0079  0.4189  0.4911
  748MOL0     C  859   9.724   2.181   5.061  0.3375 -0.0571  0.2881
  748MOL0     C  860   9.680   2.264   4.940 -0.6713  0.0375  0.5673
  748MOL0     C  861   9.526   2.298   4.943 -0.4100 -0.5336  0.3758
  748MOL0     N  862   9.437   2.199   5.001  0.4374  0.6592 -0.1287
  748MOL0     C  863   9.438   2.069   4.958  0.4521  0.2193  0.3421
  748MOL0     C  864   9.339   2.007   5.024  0.0073 -0.9146  0.4823
  748MOL0     C  865   9.296   1.863   5.039  0.7547 -0.1691 -0.0883
  748MOL0     C  866   9.402   1.766   5.087  0.7237 -0.6195  0.5350
  748MOL0     C  867   9.441   1.796   5.230  0.5379  0.5363 -0.4328
  748MOL0     C  868   9.579   1.746   5.256  0.8356 -0.4355  0.2273
  748MOL0     O  869   9.673   1.829   5.190 -0.5060 -0.2521 -0.3785
  748MOL0     C  870   9.807   1.794   5.225  0.0641  0.5277  0.4249
  748MOL0     C  871   9.913   1.863   5.170 -0.5129 -0.3339 -0.1674
  748MOL0     C  872  10.045   1.823   5.172  0.7794  0.2719  1.1221
  748MOL0     C  873  10.084   1.706   5.237 -0.1045 -0.4857  0.2842
  748MOL0     C  874  10.229   1.656   5.218  0.2602 -0.1624  0.2333
  748MOL0     O  875  10.262   1.532   5.263  0.2183 -0.2912  0.3363
  748MOL0     C  876  10.388   1.489   5.248  0.0998 -0.1951 -0.2005
  748MOL0     C  877  10.466   1.470   5.362  0.7711  0.4477 -0.2138
  748MOL0     C  878  10.578   1.385   5.364  0.2515 -0.4137 -0.3452
  748MOL0     C  879  10.623   1.338   5.240 -0.2015  0.0544 -0.3741
  748MOL0     O  880  10.716   1.240   5.234 -0.2488  0.4943  0.0858
  748MOL0     C  881  10.761   1.169   5.354 -0.4054 -0.4401 -0.7875
  748MOL0     C  882  10.888   1.084   5.342  0.6646 -0.9930 -0.0630
  748MOL0     C  883  11.024   1.143   5.300 -0.8037 -0.0689 -0.3095
  748MOL0     C  884  11.069   1.240   5.411 -0.1708 -0.3723  0.2747
  748MOL0     C  885  11.214   1.282   5.375 -0.5462 -0.5049  0.5032
  748MOL0     C  886  11.284   1.355   5.480 -0.0064  0.4655 -0.4957
  748MOL0     C  887  11.432   1.397   5.449 -0.6608 -0.0115  0.0857
  748MOL0     C  888  11.474   1.510   5.544  0.0733 -1.1916 -0.1592
  748MOL0    Cl  889  11.621   1.586   5.490 -0.3033 -0.2349  0.6266
  748MOL0     C  890  10.555   1.380   5.125 -0.9160 -0.6371  0.1234
  748MOL0     C  891  10.436   1.449   5.129 -0.1197  0.0832  0.2068
  748MOL0     O  892  10.303   1.734   5.159  0.4800 -0.6149  0.1730
  748MOL0     C  893   9.979   1.640   5.303 -0.0084  0.3813 -0.3010
  748MOL0     C  894   9.849   1.677   5.294 -0.9328 -0.8595 -0.3274
  748MOL0     N  895   9.280   2.100   5.110  0.8569 -0.3469  0.2990
  748MOL0     N  896   9.343   2.211   5.099  0.1578  0.2031 -0.5806
  748MOL0     C  897  10.347   1.981   5.633  1.0374  0.7263 -0.7439
  748MOL0     C  898  10.436   1.875   5.663 -0.3843  1.3532  0.4114
  748MOL0     C  899  10.633   1.483   5.756  0.6077 -0.1902  0.4209
  748MOL0     C  900  10.757   1.547   5.716  0.2500 -0.3191 -0.6774
  748MOL0     C  901  10.886   1.496   5.727 -0.5574 -0.0955 -0.2193
  748MOL0     C  902  10.893   1.373   5.794 -0.0017 -0.1261 -0.4639
  748MOL0     O  903  11.016   1.334   5.805  0.5416 -0.1364 -0.3451
  748MOL0     C  904  11.038   1.277   5.936  0.0535 -0.0939  1.3032
  748MOL0     C  905  11.178   1.306   5.962 -0.4675  0.2893 -0.4491
  748MOL0     C  906  11.260   1.240   5.853  0.4843 -0.6633 -0.5470
  748MOL0     C  907  11.399   1.206   5.891 -0.3133 -0.4174  0.3714
  748MOL0     C  908  11.482   1.325   5.899  0.9761 -0.6948  0.2438
  748MOL0     C  909  11.548   1.431   5.910  0.0317  0.6480  0.4954
  748MOL0     C  910  10.778   1.300   5.842  0.2170  0.3579 -0.3036
  748MOL0     C  911  10.649   1.359   5.820 -0.4190  0.2007  0.3258
  748MOL0     C  912  10.533   1.284   5.882  0.5204 -0.2573 -0.2935
  748MOL0     H  913  10.279   1.600   5.581  0.6020 -0.8912 -0.5303
  748MOL0     H  914  10.111   1.782   5.492  0.4524  0.5311 -1.0005
  748MOL0     H  915  10.138   1.983   5.355  1.3017  1.0034  0.8981
  748MOL0     H  916   9.987   1.978   5.444 -1.2876  2.2374  0.0290
  748MOL0     H  917  10.157   2.225   5.362 -1.3943  2.7340  0.8091
  748MOL0     H  918  10.022   2.235   5.474 -2.2291 -2.2251  1.0422
  748MOL0     H  919  10.001   2.137   5.172 -0.5610 -0.0745 -0.9549
  748MOL0     H  920   9.983   2.304   5.215  2.2362 -1.4869 -2.3802
  748MOL0     H  921   9.796   2.074   5.289 -0.5901 -0.0815  4.3592
  748MOL0     H  922   9.803   2.221   5.388 -1.3266  1.8698 -1.3095
  748MOL0     H  923   9.637   2.273   5.240 -0.0382  0.0021  0.5406
  748MOL0     H  924   9.781   2.356   5.172  1.5155 -0.1934  1.4021
  748MOL0     H  925   9.826   2.162   5.027  0.7120  3.0788 -0.6336
  748MOL0     H  926   9.667   2.092   5.088 -0.0273  0.4629  1.2766
  748MOL0     H  927   9.699   2.219   4.842 -1.6644  0.6664  0.0693
  748MOL0     H  928   9.727   2.363   4.933 -0.2004 -0.3101 -2.4399
  748MOL0     H  929   9.514   2.396   4.991 -1.0296 -1.1624  1.5518
  748MOL0     H  930   9.500   2.304   4.837 -1.0564  0.3519  0.5742
  748MOL0     H  931   9.499   2.018   4.885 -1.0427 -0.5791 -0.4022
  748MOL0     H  932   9.209   1.855   5.105 -0.1109  0.3780 -1.1304
  748MOL0     H  933   9.265   1.833   4.939 -2.5490  2.3229 -0.0162
  748MOL0     H  934   9.361   1.664   5.090  2.2766 -1.2829  0.2408
  748MOL0     H  935   9.487   1.771   5.018  1.0821 -2.0533  0.8471
  748MOL0     H  936   9.363   1.748   5.291  1.7597 -3.4556 -1.6690
  748MOL0     H  937   9.433   1.903   5.252 -1.8844 -0.0633  2.2804
  748MOL0     H  938   9.589   1.639   5.237  0.9622  0.0047 -2.5143
  748MOL0     H  939   9.581   1.774   5.362 -0.9112  3.2843 -0.5611
  748MOL0     H  940   9.896   1.955   5.116  1.2202  0.5339  0.6637
  748MOL0     H  941  10.126   1.882   5.130 -1.1171  0.4509 -2.7447
  748MOL0     H  942  10.422   1.498   5.457 -0.5331 -2.7331  0.2494
  748MOL0     H  943  10.622   1.351   5.457  1.8101  2.0669 -0.1026
  748MOL0     H  944  10.777   1.236   5.438 -0.3577 -1.2151 -0.1675
  748MOL0     H  945  10.681   1.102   5.389 -1.4830  1.2761  0.1573
  748MOL0     H  946  10.893   1.034   5.439 -1.9079  0.9202  1.1802
  748MOL0     H  947  10.864   1.016   5.260 -0.0970 -0.5630 -0.2093
  748MOL0     H  948  11.097   1.065   5.278  0.5160  0.1255  2.7776
  748MOL0     H  949  11.017   1.209   5.213  3.3536  4.0594  2.0210
  748MOL0     H  950  11.062   1.190   5.508 -4.1289 -2.2189 -0.7898
  748MOL0     H  951  11.006   1.330   5.418  0.4192  0.0657  0.0936
  748MOL0     H  952  11.203   1.348   5.288  3.5900 -1.2625 -0.8176
  748MOL0     H  953  11.282   1.203   5.345 -0.3011 -0.3924  0.7584
  748MOL0     H  954  11.223   1.437   5.521 -3.6604 -1.5553 -1.4662
  748MOL0     H  955  11.307   1.293   5.567  1.2629  0.2839 -0.9433
  748MOL0     H  956  11.432   1.436   5.347 -2.1226 -1.7241 -0.6217
  748MOL0     H  957  11.505   1.316   5.444 -0.7954 -0.0492 -3.0745
  748MOL0     H  958  11.393   1.584   5.542  1.5420  0.4569 -0.4415
  748MOL0     H  959  11.497   1.486   5.648 -0.6361  1.6011  0.7319
  748MOL0     H  960  10.594   1.354   5.027  0.7672  0.5846  0.4297
  748MOL0     H  961  10.370   1.462   5.045 -2.7515  0.3135  2.1984
  748MOL0     H  962   9.984   1.545   5.355 -1.8955  1.0297  1.1756
  748MOL0     H  963   9.770   1.615   5.334  0.4225 -1.6135  1.2819
  748MOL0     H  964  10.386   2.081   5.651  1.3316  0.5141 -0.1765
  748MOL0     H  965  10.528   1.899   5.716  0.2280  1.5309 -0.6957
  748MOL0     H  966  10.751   1.650   5.680 -5.1409  0.3011  1.2040
  748MOL0     H  967  10.976   1.552   5.702 -0.8831  0.1190 -0.9108
  748MOL0     H  968  11.011   1.171   5.948 -0.4171 -0.4568 -1.9614
  748MOL0     H  969  10.972   1.323   6.010 -1.1424  2.6666 -1.2827
  748MOL0     H  970  11.207   1.275   6.063 -2.1003 -0.9613 -0.3276
  748MOL0     H  971  11.197   1.413   5.953 -1.5114  0.6107  0.9666
  748MOL0     H  972  11.256   1.300   5.762 -1.1208  2.6380  1.4813
  748MOL0     H  973  11.217   1.143   5.827 -0.3764 -1.2831  2.7071
  748MOL0     H  974  11.395   1.165   5.993 -0.4858 -0.1524  0.4739
  748MOL0     H  975  11.439   1.140   5.814 -0.0061  0.6167 -0.3747
  748MOL0     H  976  11.598   1.518   5.947 -2.6745  3.5333 -2.0700
  748MOL0     H  977  10.786   1.201   5.885  4.0061  0.2479 -0.9015
  748MOL0     H  978  10.573   1.201   5.941  0.2593  0.5795  1.0937
  748MOL0     H  979  10.477   1.357   5.941 -1.7769  0.3140 -2.9750
  748MOL0     H  980  10.466   1.254   5.801  3.6983 -3.7186 -1.9757
  749MOL0     O  981   2.818   5.696   6.256 -0.1038  0.2240 -0.1863
  749MOL0     C  982   2.764   5.796   6.206 -0.0551 -1.0684 -0.1557
  749MOL0     O  983   2.664   5.808   6.109 -0.2971  0.5851 -0.3725
  749MOL0     C  984   2.593   5.693   6.086 -0.2869  1.1143  0.4057
  749MOL0     C  985   2.549   5.589   6.180  0.0772  0.3257 -0.0281
  749MOL0     C  986   2.469   5.479   6.142 -0.0784  1.7519 -0.0285
  749MOL0     C  987   2.431   5.462   6.011 -0.4647  0.8831  0.9181
  749MOL0     O  988   2.359   5.356   5.963 -0.7599  0.5486  0.6016
  749MOL0     C  989   2.270   5.282   6.045 -0.6230  0.2747 -0.6140
  749MOL0     C  990   2.157   5.251   5.948  0.5317  0.3952 -0.1476
  749MOL0     C  991   2.185   5.124   5.877 -0.6498 -0.1386  0.4266
  749MOL0     C  992   2.108   5.002   5.931  0.7152 -1.9299 -1.1551
  749MOL0     C  993   2.155   4.877   5.881 -0.0839  0.2617  0.2020
  749MOL0     C  994   2.102   4.759   5.971  0.0326  0.0671 -0.0333
  749MOL0     C  995   1.947   4.742   5.963  0.3005  0.0848 -0.5044
  749MOL0     C  996   1.908   4.622   6.055  0.0920  0.2224  0.0110
  749MOL0     N  997   1.763   4.629   6.070  0.7028  0.4259 -0.2004
  749MOL0     C  998   1.674   4.536   6.037  0.4547 -0.3959  0.4784
  749MOL0     C  999   1.557   4.569   6.095 -0.4635  0.2572 -0.6878
  749MOL0     C 1000   1.442   4.470   6.109 -0.0169 -0.2320  0.1312
  749MOL0     C 1001   1.452   4.397   6.238 -0.4141  0.0599 -1.1445
  749MOL0     C 1002   1.326   4.329   6.290  0.0762  1.0686 -0.1082
  749MOL0     C 1003   1.328   4.257   6.429  0.8309  0.4055  0.7667
  749MOL0     O 1004   1.445   4.173   6.454 -0.2318  0.6229  0.7019
  749MOL0     C 1005   1.456   4.068   6.370  0.4406 -0.0141  0.5991
  749MOL0     C 1006   1.582   4.038   6.336  0.1972  0.5070  0.8561
  749MOL0     C 1007   1.605   3.936   6.242 -0.8729  0.5258  0.1777
  749MOL0     C 1008   1.497   3.865   6.186  0.6775  0.4110  0.3413
  749MOL0     C 1009   1.524   3.746   6.092 -0.0447 -0.5678  0.2939
  749MOL0     O 1010   1.419   3.663   6.058  0.6037 -0.3952  0.1192
  749MOL0     C 1011   1.438   3.550   5.995  0.3472 -0.3734 -0.1394
  749MOL0     C 1012   1.386   3.430   6.047 -0.4491 -0.4682  0.3887
  749MOL0     C 1013   1.427   3.307   5.995  0.0087 -0.2923  0.6132
  749MOL0     C 1014   1.513   3.299   5.879  0.4014 -0.8272  0.3178
  749MOL0     O 1015   1.545   3.178   5.836  0.0641  0.5358  0.4201
  749MOL0     C 1016   1.674   3.154   5.784  0.0644 -0.2083  0.4528
  749MOL0     C 1017   1.693   2.994   5.763  0.5919  0.1217  0.0212
  749MOL0     C 1018   1.591   2.928   5.657  0.5777  0.2085 -0.0584
  749MOL0     C 1019   1.616   2.973   5.508 -0.3068  0.4339 -0.8119
  749MOL0     C 1020   1.521   2.915   5.400 -1.3511 -0.2983  0.8672
  749MOL0     C 1021   1.388   2.988   5.389  0.3465  0.0859 -0.2391
  749MOL0     C 1022   1.312   2.938   5.274  1.0637  0.8848  0.2344
  749MOL0     C 1023   1.209   3.043   5.251 -0.5975 -0.1609 -0.3009
  749MOL0    Cl 1024   1.283   3.205   5.202 -0.4554  0.0250 -0.1295
  749MOL0     C 1025   1.552   3.418   5.824  0.3060 -0.7785 -0.1272
  749MOL0     C 1026   1.525   3.536   5.889 -0.0010  0.0465  0.9013
  749MOL0     O 1027   1.634   3.744   6.050 -1.0004  0.0248  0.3542
  749MOL0     C 1028   1.368   3.898   6.219 -0.0692  0.8143  0.1941
  749MOL0     C 1029   1.347   4.003   6.301  0.3185  0.0013 -0.4368
  749MOL0     N 1030   1.578   4.686   6.170  0.4007 -0.2339  0.1809
  749MOL0     N 1031   1.700   4.729   6.144 -0.5836 -0.0774 -0.4724
  749MOL0     C 1032   2.480   5.555   5.915  0.8235 -0.4863  0.2622
  749MOL0     C 1033   2.554   5.666   5.956 -0.9286 -0.5132 -0.4124
  749MOL0     C 1034   2.798   5.929   6.280 -0.2189 -0.4489 -0.4055
  749MOL0     C 1035   2.713   6.036   6.264  0.5336  0.7568 -0.1905
  749MOL0     C 1036   2.749   6.152   6.322  0.4726 -0.2119  0.3353
  749MOL0     C 1037   2.868   6.183   6.386  0.0413 -0.1579  0.2019
  749MOL0     O 1038   2.889   6.310   6.431 -0.5494 -0.1720  0.1489
  749MOL0     C 1039   3.020   6.370   6.392  0.4439  0.0681  0.0964
  749MOL0     C 1040   2.986   6.398   6.242  0.4376 -0.7599 -0.0354
  749MOL0     C 1041   3.103   6.463   6.162  0.2177 -0.0387  0.4619
  749MOL0     C 1042   3.059   6.483   6.013 -0.3308 -0.1052 -0.4638
  749MOL0     C 1043   2.954   6.588   6.002  0.3079 -0.8259 -0.3632
  749MOL0     C 1044   2.865   6.675   5.985  0.8115  0.2062  0.4401
  749MOL0     C 1045   2.962   6.074   6.402 -0.0496 -0.2575 -0.1266
  749MOL0     C 1046   2.919   5.950   6.343 -0.4003  0.1319 -0.4927
  749MOL0     C 1047   3.044   5.854   6.327  0.3150 -0.5718 -0.5190
  749MOL0     H 1048   2.569   5.595   6.287  0.9558  1.0987 -0.2210
  749MOL0     H 1049   2.436   5.408   6.217 -0.5446 -0.7779 -2.4488
  749MOL0     H 1050   2.313   5.193   6.093 -0.5863  1.6702  2.1878
  749MOL0     H 1051   2.232   5.339   6.131  0.1441 -0.1633  0.0297
  749MOL0     H 1052   2.133   5.324   5.870  0.8438  0.3535 -0.2834
  749MOL0     H 1053   2.071   5.248   6.016  1.1152  0.2401  0.5946
  749MOL0     H 1054   2.289   5.093   5.882 -0.4296  0.6175  0.7540
  749MOL0     H 1055   2.163   5.135   5.770 -4.7296 -0.4833  1.0693
  749MOL0     H 1056   2.115   5.003   6.041  0.5249  1.8778 -1.0255
  749MOL0     H 1057   2.001   5.022   5.922  1.1279  0.2346 -2.0079
  749MOL0     H 1058   2.124   4.859   5.778  1.0003  1.7417 -0.4350
  749MOL0     H 1059   2.264   4.876   5.887  0.1857 -0.6875 -3.0854
  749MOL0     H 1060   2.147   4.666   5.935  0.0006  0.6792 -1.7523
  749MOL0     H 1061   2.124   4.761   6.078  0.1451 -0.5789 -0.0450
  749MOL0     H 1062   1.928   4.719   5.858  1.7991  0.1041 -0.8105
  749MOL0     H 1063   1.898   4.833   5.998  0.5281 -0.7048  2.0887
  749MOL0     H 1064   1.957   4.540   6.002  3.0097  1.3928  0.6545
  749MOL0     H 1065   1.938   4.635   6.159  0.9214  4.2195 -0.5686
  749MOL0     H 1066   1.689   4.440   5.989 -0.0453 -1.1115  1.6905
  749MOL0     H 1067   1.349   4.527   6.104 -0.8041 -1.5191 -0.2251
  749MOL0     H 1068   1.429   4.407   6.020 -3.3470  0.9077 -0.3126
  749MOL0     H 1069   1.532   4.322   6.236  1.3667  1.8735 -1.3654
  749MOL0     H 1070   1.478   4.471   6.315 -2.1090  0.8055 -1.2405
  749MOL0     H 1071   1.284   4.258   6.218 -3.4909  3.3991 -0.6170
  749MOL0     H 1072   1.248   4.405   6.297 -0.8144  0.2666 -1.0207
  749MOL0     H 1073   1.234   4.211   6.460 -0.7360  2.2988 -0.8934
  749MOL0     H 1074   1.336   4.345   6.495 -2.4513 -0.3468  2.3472
  749MOL0     H 1075   1.666   4.082   6.388  1.6317 -2.0252  0.8504
  749MOL0     H 1076   1.706   3.909   6.215 -1.5404 -0.4402 -1.4691
  749MOL0     H 1077   1.329   3.442   6.138  0.0051  0.4302  0.5684
  749MOL0     H 1078   1.391   3.217   6.044  1.5189  0.2355  2.8246
  749MOL0     H 1079   1.677   3.204   5.687 -1.7821  1.3216  1.1187
  749MOL0     H 1080   1.749   3.192   5.853 -0.8205  0.1158  1.2531
  749MOL0     H 1081   1.790   2.982   5.715 -0.6349 -2.3908 -2.1245
  749MOL0     H 1082   1.694   2.950   5.863 -0.6496  1.3664  0.6193
  749MOL0     H 1083   1.608   2.820   5.649  1.1869  0.4263 -2.3773
  749MOL0     H 1084   1.485   2.929   5.685  0.1260 -1.4980 -1.5553
  749MOL0     H 1085   1.718   2.941   5.485  0.1591  0.1459  1.4259
  749MOL0     H 1086   1.616   3.082   5.494 -1.1505  0.1551 -3.7880
  749MOL0     H 1087   1.499   2.809   5.419 -1.6273 -0.8415 -1.9591
  749MOL0     H 1088   1.574   2.916   5.304 -2.1095  0.0184  0.4466
  749MOL0     H 1089   1.330   2.984   5.482 -0.6073 -0.4906 -0.8388
  749MOL0     H 1090   1.415   3.094   5.381  1.3320  0.1108  2.3245
  749MOL0     H 1091   1.263   2.841   5.285 -0.4819  1.6520  0.4161
  749MOL0     H 1092   1.368   2.918   5.183 -1.5785 -1.1737 -1.0503
  749MOL0     H 1093   1.144   2.998   5.175 -0.1477 -2.3187  0.5154
  749MOL0     H 1094   1.148   3.056   5.340 -0.5566  2.4546 -0.5931
  749MOL0     H 1095   1.607   3.433   5.732  0.4932  2.7207  0.4115
  749MOL0     H 1096   1.568   3.623   5.841 -0.9626  0.1949  0.2678
  749MOL0     H 1097   1.287   3.831   6.194 -0.1634  0.1919  1.9690
  749MOL0     H 1098   1.247   4.030   6.334  0.1606 -0.2756 -0.6857
  749MOL0     H 1099   2.451   5.543   5.811  0.2140  0.1058  0.3583
  749MOL0     H 1100   2.595   5.734   5.881  0.7511 -1.0006  0.0150
  749MOL0     H 1101   2.617   6.017   6.218  1.5038 -4.0225 -0.7683
  749MOL0     H 1102   2.678   6.233   6.305 -1.4255 -1.9052 -0.1869
  749MOL0     H 1103   3.098   6.302   6.425  0.6210  0.1267 -0.1993
  749MOL0     H 1104   3.028   6.463   6.450  2.9231 -1.1010  1.7781
  749MOL0     H 1105   2.900   6.464   6.255  0.4377 -1.1885  2.9204
  749MOL0     H 1106   2.956   6.311   6.183 -1.5932  0.8898 -1.5806
  749MOL0     H 1107   3.197   6.407   6.160  1.6012  2.1431  0.6887
  749MOL0     H 1108   3.133   6.561   6.200 -1.1115  0.0772  1.3134
  749MOL0     H 1109   3.149   6.522   5.965 -1.9502  2.3267 -1.7581
  749MOL0     H 1110   3.041   6.391   5.956  2.6088 -1.7267  0.9855
  749MOL0     H 1111   2.784   6.738   5.957  0.1896 -0.5008  0.6101
  749MOL0     H 1112   3.063   6.094   6.436  0.1091  0.0805 -0.7608
  749MOL0     H 1113   3.064   5.813   6.228 -2.2860 -0.4246 -1.1799
  749MOL0     H 1114   3.136   5.906   6.354  0.3681 -0.8555 -0.1516
  749MOL0     H 1115   3.010   5.780   6.400 -0.6449  3.0299  3.0638
  750MOL0     O 1116   4.108   3.869   1.333 -0.2177 -0.3500  0.6093
  750MOL0     C 1117   4.039   3.947   1.383 -0.3669 -0.3141  0.1917
  750MOL0     O 1118   4.060   3.992   1.510  0.6235 -0.8573  0.3291
  750MOL0     C 1119   4.175   3.954   1.573  0.5713 -0.5503 -0.1978
  750MOL0     C 1120   4.161   3.910   1.705 -0.1095  0.7857  0.5598
  750MOL0     C 1121   4.273   3.871   1.782 -0.1930 -1.0876 -0.4612
  750MOL0     C 1122   4.401   3.890   1.729  0.3145  0.3568  0.4703
  750MOL0     O 1123   4.508   3.843   1.808  0.4534 -0.0801 -0.0162
  750MOL0     C 1124   4.641   3.894   1.777 -0.6909  0.1619  0.2372
  750MOL0     C 1125   4.712   3.948   1.892 -0.3834 -0.0720 -0.2833
  750MOL0     C 1126   4.753   3.837   2.002 -1.1816  0.2099  1.2480
  750MOL0     C 1127   4.639   3.831   2.108  0.7995 -0.5700  0.3805
  750MOL0     C 1128   4.645   3.738   2.234 -0.2164  0.0304  0.1735
  750MOL0     C 1129   4.770   3.763   2.314  0.3187  0.0568  0.4389
  750MOL0     C 1130   4.876   3.650   2.292  0.1736 -0.4629 -0.1040
  750MOL0     C 1131   5.002   3.674   2.371 -0.4705  0.3964 -0.9660
  750MOL0     N 1132   5.101   3.567   2.366  0.9355  0.3214 -0.3546
  750MOL0     C 1133   5.216   3.575   2.292 -0.7755  0.0296 -0.4297
  750MOL0     C 1134   5.300   3.486   2.338 -0.4742  0.0029  0.7789
  750MOL0     C 1135   5.444   3.466   2.303 -0.6513  0.0607  0.4248
  750MOL0     C 1136   5.520   3.452   2.439  0.3965 -0.1848  0.6560
  750MOL0     C 1137   5.675   3.497   2.408  1.2657  0.1359  0.0991
  750MOL0     C 1138   5.743   3.476   2.535 -0.5031 -0.1677  0.1646
  750MOL0     O 1139   5.883   3.518   2.515 -0.0777 -0.7194 -0.0032
  750MOL0     C 1140   5.959   3.518   2.630  0.1585  0.9485  1.0928
  750MOL0     C 1141   5.913   3.481   2.759  0.1232 -0.1744 -0.3459
  750MOL0     C 1142   6.014   3.448   2.857  0.6073  0.2171  0.2788
  750MOL0     C 1143   6.153   3.465   2.837 -0.3912  1.2066  0.4033
  750MOL0     C 1144   6.258   3.437   2.945  0.2754  0.0866  0.2978
  750MOL0     O 1145   6.390   3.451   2.912  0.2610 -0.1942 -0.0325
  750MOL0     C 1146   6.494   3.426   2.999  0.6545 -0.1193 -0.5311
  750MOL0     C 1147   6.495   3.446   3.143  0.5684  0.3433  0.4492
  750MOL0     C 1148   6.600   3.403   3.217 -0.1335 -0.2782 -0.4250
  750MOL0     C 1149   6.710   3.341   3.168  0.0670 -0.3992  0.3043
  750MOL0     O 1150   6.807   3.296   3.252  0.2477  0.0843  0.0038
  750MOL0     C 1151   6.927   3.214   3.210 -0.1863 -0.8591  0.0536
  750MOL0     C 1152   6.984   3.142   3.331 -0.5304  0.1575 -0.0866
  750MOL0     C 1153   7.008   3.234   3.450  0.4485  0.5869  0.6627
  750MOL0     C 1154   7.065   3.155   3.571  1.1733 -0.0137 -0.0880
  750MOL0     C 1155   7.210   3.191   3.597 -0.2825  0.1814  0.2018
  750MOL0     C 1156   7.267   3.083   3.698  0.4051  0.0596 -0.2872
  750MOL0     C 1157   7.406   3.107   3.768 -0.4536 -0.5401 -0.1242
  750MOL0     C 1158   7.520   3.111   3.671 -0.5822 -0.0626  0.8304
  750MOL0    Cl 1159   7.678   3.149   3.754 -0.1700  0.1385  0.0663
  750MOL0     C 1160   6.713   3.320   3.031 -0.4156  0.8223  0.4441
  750MOL0     C 1161   6.611   3.358   2.947  1.0045  1.1214  0.2284
  750MOL0     O 1162   6.216   3.397   3.055  0.0271  0.0123  0.0061
  750MOL0     C 1163   6.190   3.510   2.711 -1.2009  0.3038  0.5293
  750MOL0     C 1164   6.098   3.537   2.612 -0.1837 -0.0035  0.4293
  750MOL0     N 1165   5.234   3.430   2.445 -0.9220  0.0045 -0.5098
  750MOL0     N 1166   5.119   3.471   2.460  0.3797  0.2778 -0.2450
  750MOL0     C 1167   4.419   3.947   1.592  0.0551  0.5331 -1.1048
  750MOL0     C 1168   4.307   3.972   1.520 -0.4470 -0.0543  0.0204
  750MOL0     C 1169   3.916   4.000   1.314  0.1137  0.0107  0.2341
  750MOL0     C 1170   3.829   4.070   1.393  0.4035 -0.3007  0.3567
  750MOL0     C 1171   3.700   4.110   1.347  0.4560  0.2293 -0.3074
  750MOL0     C 1172   3.671   4.095   1.208 -0.9829 -0.6581 -0.2791
  750MOL0     O 1173   3.556   4.153   1.168 -1.0377  0.4179 -0.5071
  750MOL0     C 1174   3.548   4.167   1.020  0.2023  0.3226 -0.9193
  750MOL0     C 1175   3.410   4.240   0.994  0.2151 -0.5277  0.5264
  750MOL0     C 1176   3.396   4.297   0.852 -0.8826 -0.3870  0.3332
  750MOL0     C 1177   3.265   4.382   0.833 -0.9247 -0.1655  0.3120
  750MOL0     C 1178   3.147   4.306   0.863  0.3310  0.3654 -0.0708
  750MOL0     C 1179   3.044   4.247   0.874  0.3324 -0.0642 -1.5692
  750MOL0     C 1180   3.774   4.050   1.120  0.5023  0.6658 -0.2316
  750MOL0     C 1181   3.894   3.992   1.169  0.6437  0.4034  0.3960
  750MOL0     C 1182   3.990   3.911   1.076  0.6985  0.0451 -0.0918
  750MOL0     H 1183   4.069   3.898   1.761 -0.3761  0.2141  0.0159
  750MOL0     H 1184   4.270   3.825   1.880  0.7142 -2.3146 -0.9752
  750MOL0     H 1185   4.705   3.814   1.740 -0.3877  0.4149  0.2107
  750MOL0     H 1186   4.644   3.973   1.702  0.9936 -0.3891 -0.3233
  750MOL0     H 1187   4.642   4.019   1.939 -0.3202 -0.2429  0.0758
  750MOL0     H 1188   4.802   4.002   1.863 -0.7298  2.1943  2.3160
  750MOL0     H 1189   4.852   3.848   2.047  0.0765  0.8136 -1.4444
  750MOL0     H 1190   4.749   3.742   1.950  1.6173 -0.1660  1.5251
  750MOL0     H 1191   4.614   3.932   2.142 -2.4978 -0.0915 -2.8522
  750MOL0     H 1192   4.552   3.799   2.050  0.3405 -0.8895  1.2291
  750MOL0     H 1193   4.560   3.775   2.293  1.2368  3.3065  0.4579
  750MOL0     H 1194   4.647   3.630   2.216  0.1923  0.3158 -1.6492
  750MOL0     H 1195   4.804   3.864   2.288 -3.8787  1.8766  1.0738
  750MOL0     H 1196   4.732   3.760   2.416  0.3773 -1.9570  0.4349
  750MOL0     H 1197   4.896   3.646   2.185  0.6313  3.4834 -0.3258
  750MOL0     H 1198   4.837   3.560   2.341 -0.1474  2.3104  5.5797
  750MOL0     H 1199   5.059   3.762   2.341 -1.1356  2.0598  2.3068
  750MOL0     H 1200   4.966   3.688   2.473 -2.5574 -0.1382 -1.5765
  750MOL0     H 1201   5.241   3.649   2.217 -1.0601  0.7999  0.2155
  750MOL0     H 1202   5.466   3.379   2.240  2.9210 -1.1391  3.0696
  750MOL0     H 1203   5.487   3.547   2.244 -0.7735 -0.4876 -0.4495
  750MOL0     H 1204   5.460   3.511   2.509 -1.9716  0.4620 -1.7500
  750MOL0     H 1205   5.525   3.345   2.462  3.7876  0.1470  2.1342
  750MOL0     H 1206   5.656   3.602   2.383 -3.8545 -0.8681 -1.5150
  750MOL0     H 1207   5.709   3.439   2.322 -3.4836 -3.3122  0.1299
  750MOL0     H 1208   5.727   3.372   2.563 -3.0868 -0.1211 -0.9051
  750MOL0     H 1209   5.699   3.535   2.616 -0.7835  1.6362 -1.2515
  750MOL0     H 1210   5.812   3.445   2.778  0.3919  0.4048  2.5948
  750MOL0     H 1211   5.984   3.413   2.955 -2.5671  2.3582  0.2293
  750MOL0     H 1212   6.413   3.500   3.189  1.4263  0.9942  1.2677
  750MOL0     H 1213   6.605   3.409   3.326  1.4139 -0.5061 -0.4589
  750MOL0     H 1214   6.900   3.144   3.131 -1.8161 -0.0796 -0.1348
  750MOL0     H 1215   7.006   3.284   3.180 -0.1553  0.0906  2.1590
  750MOL0     H 1216   6.916   3.062   3.362 -0.2396 -0.4306 -0.9287
  750MOL0     H 1217   7.082   3.102   3.300  0.3330  0.9684  1.4612
  750MOL0     H 1218   7.077   3.317   3.432  1.9252 -0.2084  2.3724
  750MOL0     H 1219   6.914   3.285   3.475  1.4566  0.7231  4.8799
  750MOL0     H 1220   7.055   3.050   3.542  1.5285 -0.5124  1.5409
  750MOL0     H 1221   7.006   3.174   3.661  0.0391 -0.9244 -0.6125
  750MOL0     H 1222   7.222   3.290   3.642  1.5064  0.5978 -1.0387
  750MOL0     H 1223   7.274   3.187   3.508 -0.2064 -0.1827  0.2698
  750MOL0     H 1224   7.194   3.072   3.778  1.7048 -1.5228  0.7467
  750MOL0     H 1225   7.272   2.990   3.640 -1.6110 -1.1103  1.2595
  750MOL0     H 1226   7.415   3.031   3.847  0.4505 -0.7426 -0.4099
  750MOL0     H 1227   7.400   3.202   3.821  3.7332  0.3584 -0.9334
  750MOL0     H 1228   7.532   3.021   3.610  1.0985  0.0679  0.9157
  750MOL0     H 1229   7.503   3.193   3.601  2.4720 -1.0059 -1.2373
  750MOL0     H 1230   6.800   3.266   2.997 -0.2568  2.8424 -2.7822
  750MOL0     H 1231   6.627   3.352   2.840  1.7631  1.2926  0.3318
  750MOL0     H 1232   6.296   3.520   2.690 -0.3181 -0.1970  4.1216
  750MOL0     H 1233   6.137   3.562   2.514  0.2420  1.9351  1.0668
  750MOL0     H 1234   4.516   3.970   1.548  1.2298  0.5412  1.3100
  750MOL0     H 1235   4.312   4.012   1.419 -0.7621 -4.3751 -1.9009
  750MOL0     H 1236   3.847   4.078   1.500  1.3881 -0.2453  0.1955
  750MOL0     H 1237   3.630   4.149   1.420 -1.4055  1.4457 -2.6041
  750MOL0     H 1238   3.554   4.067   0.976 -0.0131 -0.1656  0.1305
  750MOL0     H 1239   3.629   4.234   0.988 -0.0829  1.5404  0.7662
  750MOL0     H 1240   3.404   4.325   1.063 -1.0069  0.3520 -0.6173
  750MOL0     H 1241   3.332   4.169   1.023  0.0560  0.3224  2.3075
  750MOL0     H 1242   3.393   4.212   0.783  1.7225  1.4567 -2.2990
  750MOL0     H 1243   3.490   4.344   0.823  0.1593 -2.1086  0.7969
  750MOL0     H 1244   3.275   4.477   0.886 -0.1894  2.1079 -3.5186
  750MOL0     H 1245   3.278   4.402   0.726  0.1565  0.6419  0.5818
  750MOL0     H 1246   2.959   4.183   0.886 -2.0019  2.5834 -2.7693
  750MOL0     H 1247   3.753   4.030   1.015  2.1817  1.9690 -0.8750
  750MOL0     H 1248   4.090   3.956   1.082  1.4947 -1.6345 -0.2210
  750MOL0     H 1249   3.982   3.803   1.091 -0.4370 -0.0003 -0.8534
  750MOL0     H 1250   3.969   3.926   0.969  0.1319 -0.3205 -0.0340
  751MOL0     O 1251  10.709   9.731   1.977  0.5865  0.6952  0.7665
  751MOL0     C 1252  10.666   9.702   2.091  0.5520  0.6321  0.0797
  751MOL0     O 1253  10.740   9.633   2.190 -0.1290 -0.5028  0.5432
  751MOL0     C 1254  10.852   9.561   2.173 -0.1833  0.1036  0.0190
  751MOL0     C 1255  10.965   9.627   2.115 -0.2621  0.1576 -0.1075
  751MOL0     C 1256  11.080   9.558   2.086 -0.4253  0.1293 -0.6363
  751MOL0     C 1257  11.092   9.421   2.125 -0.7600  0.1911 -0.0537
  751MOL0     O 1258  11.221   9.363   2.100  0.3734  0.3266  0.2842
  751MOL0     C 1259  11.233   9.220   2.121  0.0430  0.1943  0.0037
  751MOL0     C 1260  11.387   9.189   2.126  1.0363  0.3639  0.1211
  751MOL0     C 1261  11.426   9.045   2.137 -1.0919 -0.1389 -0.0843
  751MOL0     C 1262  11.406   8.961   2.000  0.6683 -0.7988  0.3082
  751MOL0     C 1263  11.447   8.813   2.012 -0.7273  0.1033 -0.1566
  751MOL0     C 1264  11.594   8.789   1.990  0.5824 -0.0397 -0.7418
  751MOL0     C 1265  11.613   8.647   1.958  0.4293 -0.3482  0.6811
  751MOL0     C 1266  11.757   8.619   1.912  0.3334 -0.3285  0.2745
  751MOL0     N 1267  11.774   8.506   1.814  0.1138  0.5462 -0.8666
  751MOL0     C 1268  11.704   8.495   1.692  0.1988  0.4905 -1.1669
  751MOL0     C 1269  11.747   8.375   1.637  0.2600  0.2084  0.1703
  751MOL0     C 1270  11.710   8.321   1.501  0.7632 -0.6529 -0.0580
  751MOL0     C 1271  11.585   8.231   1.511  0.4829 -0.0062 -1.0578
  751MOL0     C 1272  11.591   8.112   1.609  0.1328 -0.1126  0.1578
  751MOL0     C 1273  11.464   8.064   1.674  0.1276  0.7135 -0.1441
  751MOL0     O 1274  11.365   8.017   1.575 -0.5026 -0.1802 -0.8403
  751MOL0     C 1275  11.408   7.915   1.494  0.3091  0.3387 -1.2753
  751MOL0     C 1276  11.481   7.798   1.535  0.0117 -0.4281  0.2241
  751MOL0     C 1277  11.516   7.699   1.439 -0.1051 -0.3178  0.0907
  751MOL0     C 1278  11.495   7.720   1.303 -0.3694 -0.4716 -1.1850
  751MOL0     C 1279  11.536   7.623   1.200 -0.3818  0.4798 -0.2563
  751MOL0     O 1280  11.634   7.530   1.226  0.1634  0.8129 -0.8099
  751MOL0     C 1281  11.666   7.433   1.141 -0.2230  0.5773 -0.1277
  751MOL0     C 1282  11.576   7.349   1.069  0.2783 -0.3660 -1.3391
  751MOL0     C 1283  11.608   7.256   0.975 -0.2011 -0.0761 -0.4987
  751MOL0     C 1284  11.742   7.243   0.944  0.2396  0.6327  0.6262
  751MOL0     O 1285  11.799   7.156   0.860 -0.1401 -0.4844  0.3294
  751MOL0     C 1286  11.733   7.100   0.749 -0.1679  0.1874  0.4049
  751MOL0     C 1287  11.684   6.962   0.786  0.0691  0.2364 -0.0440
  751MOL0     C 1288  11.644   6.904   0.648  0.4780 -0.4888 -0.4173
  751MOL0     C 1289  11.540   6.794   0.667 -0.3383  0.8294 -0.7624
  751MOL0     C 1290  11.598   6.671   0.727 -0.4948 -0.3164 -0.1560
  751MOL0     C 1291  11.516   6.543   0.729  0.2727 -0.7548 -0.1943
  751MOL0     C 1292  11.559   6.443   0.831  0.8620 -0.0193 -0.2281
  751MOL0     C 1293  11.441   6.366   0.889 -0.0419  0.0599 -1.2765
  751MOL0    Cl 1294  11.341   6.304   0.753 -0.2883 -0.0123 -0.1480
  751MOL0     C 1295  11.841   7.329   1.005  0.8165  0.5751  0.2935
  751MOL0     C 1296  11.802   7.416   1.104 -0.6495  0.7777  0.9728
  751MOL0     O 1297  11.474   7.626   1.098  0.0243  0.2207  0.1746
  751MOL0     C 1298  11.413   7.828   1.266  0.4611 -0.1800  0.0838
  751MOL0     C 1299  11.376   7.930   1.358  0.1691  0.7365 -0.3894
  751MOL0     N 1300  11.849   8.329   1.716 -1.0969 -0.3819  0.1836
  751MOL0     N 1301  11.861   8.401   1.817 -0.0840 -0.2543 -0.7784
  751MOL0     C 1302  10.976   9.357   2.185  0.5788  0.1981 -0.0381
  751MOL0     C 1303  10.853   9.419   2.201 -0.5774 -0.5826  0.6814
  751MOL0     C 1304  10.542   9.764   2.135 -1.5125  0.4790 -0.3411
  751MOL0     C 1305  10.536   9.821   2.265 -0.1396  0.0114  0.2687
  751MOL0     C 1306  10.428   9.884   2.319  0.0356  0.9829  0.4300
  751MOL0     C 1307  10.318   9.884   2.236 -0.0246 -0.0756  0.7077
  751MOL0     O 1308  10.198   9.944   2.279 -0.5094 -0.1844  0.1336
  751MOL0     C 1309  10.176   9.971   2.423 -0.1641 -0.4813 -0.1869
  751MOL0     C 1310  10.170   9.847   2.513 -0.9608  1.1614 -0.0227
  751MOL0     C 1311  10.051   9.756   2.469  0.0212 -0.2873 -0.5464
  751MOL0     C 1312  10.060   9.623   2.531  0.9826  0.4907 -0.2254
  751MOL0     C 1313  10.018   9.617   2.677 -0.5422 -0.0320  0.2275
  751MOL0     C 1314   9.990   9.614   2.797  0.0958  0.3681  0.5681
  751MOL0     C 1315  10.318   9.830   2.111 -0.9318  0.7024  0.5369
  751MOL0     C 1316  10.429   9.768   2.057  0.4877  0.7288 -0.2400
  751MOL0     C 1317  10.422   9.710   1.916 -0.0672  0.8390 -0.6448
  751MOL0     H 1318  10.963   9.733   2.093  0.2317  0.3200  0.5946
  751MOL0     H 1319  11.162   9.604   2.033  0.1833 -1.7178 -1.3854
  751MOL0     H 1320  11.182   9.199   2.215 -0.9433  2.2275 -0.0288
  751MOL0     H 1321  11.194   9.167   2.035 -0.4401 -3.7945  2.4449
  751MOL0     H 1322  11.420   9.234   2.220  0.7369  1.1585 -0.1444
  751MOL0     H 1323  11.447   9.228   2.043  2.9957  0.9251  1.7231
  751MOL0     H 1324  11.373   8.984   2.210 -0.1340 -2.6138 -1.3361
  751MOL0     H 1325  11.532   9.051   2.163 -1.0144 -0.2777 -0.3669
  751MOL0     H 1326  11.298   8.963   1.986  0.9747  1.3187 -2.6638
  751MOL0     H 1327  11.461   9.013   1.920  0.6233  2.6676  2.3340
  751MOL0     H 1328  11.406   8.762   2.099 -0.7214 -2.8152 -1.7402
  751MOL0     H 1329  11.406   8.767   1.921  1.5793 -0.3346 -1.0357
  751MOL0     H 1330  11.621   8.856   1.908 -2.1090  4.3681  1.5765
  751MOL0     H 1331  11.643   8.822   2.082 -1.6282  1.1179  0.0874
  751MOL0     H 1332  11.551   8.630   1.870  0.7712 -0.0714  0.3836
  751MOL0     H 1333  11.581   8.578   2.036 -0.1587 -2.1996 -1.1270
  751MOL0     H 1334  11.789   8.705   1.853 -2.0098 -0.4457 -1.3167
  751MOL0     H 1335  11.823   8.608   1.999 -0.4972 -1.5508  0.7781
  751MOL0     H 1336  11.627   8.558   1.648 -0.6544  0.6181  0.4517
  751MOL0     H 1337  11.687   8.396   1.424 -1.8890 -2.9930 -1.7363
  751MOL0     H 1338  11.796   8.262   1.468  2.1014 -1.3486  4.0591
  751MOL0     H 1339  11.506   8.295   1.552 -0.3198 -0.5217 -1.7610
  751MOL0     H 1340  11.551   8.190   1.416 -1.5179  1.0028 -0.8353
  751MOL0     H 1341  11.672   8.125   1.681  0.5995 -1.6274 -0.0535
  751MOL0     H 1342  11.619   8.023   1.551 -1.1701 -0.0742 -0.5733
  751MOL0     H 1343  11.420   8.153   1.721  3.6708  2.1478  0.8029
  751MOL0     H 1344  11.492   7.994   1.754  1.0327  1.5657  0.3135
  751MOL0     H 1345  11.520   7.771   1.632 -2.2993  0.2348  1.4040
  751MOL0     H 1346  11.583   7.619   1.466  0.1892 -1.0607 -2.6032
  751MOL0     H 1347  11.474   7.381   1.088  1.4623  3.4203 -0.4928
  751MOL0     H 1348  11.534   7.204   0.915 -0.7050 -1.9875  1.6264
  751MOL0     H 1349  11.651   7.158   0.706 -0.1646 -0.2188 -0.1586
  751MOL0     H 1350  11.813   7.083   0.676 -0.9845 -2.2404 -0.0069
  751MOL0     H 1351  11.766   6.898   0.818  0.8822  1.4605  0.3907
  751MOL0     H 1352  11.602   6.966   0.859 -0.2849  0.2479 -0.4407
  751MOL0     H 1353  11.588   6.971   0.582  2.1645 -1.7479 -3.3120
  751MOL0     H 1354  11.728   6.859   0.594 -1.7832 -2.3343 -2.6166
  751MOL0     H 1355  11.505   6.770   0.566  0.6278 -0.4936 -0.8134
  751MOL0     H 1356  11.447   6.824   0.717 -0.3130 -1.3512  0.7794
  751MOL0     H 1357  11.617   6.698   0.831 -3.1141  2.1646 -0.2084
  751MOL0     H 1358  11.686   6.657   0.663  0.0928  2.7466 -0.1592
  751MOL0     H 1359  11.423   6.595   0.755  0.6567  0.0765 -0.4239
  751MOL0     H 1360  11.513   6.502   0.627 -1.3804  0.0782 -0.5190
  751MOL0     H 1361  11.610   6.494   0.914  3.4890  0.0996 -1.7929
  751MOL0     H 1362  11.632   6.378   0.784 -0.8076 -2.1482 -0.0152
  751MOL0     H 1363  11.467   6.269   0.932 -1.4789  0.5337  0.8667
  751MOL0     H 1364  11.387   6.433   0.957  2.2393  1.3893 -0.6405
  751MOL0     H 1365  11.945   7.331   0.974  0.9829 -1.3534  0.6246
  751MOL0     H 1366  11.872   7.492   1.139  0.7354  1.0288 -2.0628
  751MOL0     H 1367  11.386   7.837   1.162 -1.5825 -1.0276  0.4880
  751MOL0     H 1368  11.308   8.012   1.336  2.1490  2.2693 -1.1208
  751MOL0     H 1369  10.991   9.255   2.219 -0.1243  1.1385  3.5618
  751MOL0     H 1370  10.780   9.354   2.247  0.6504 -1.9387  0.8102
  751MOL0     H 1371  10.630   9.807   2.318 -0.2955  1.8017  1.1157
  751MOL0     H 1372  10.428   9.932   2.416  1.9975 -0.7111  1.3446
  751MOL0     H 1373  10.083  10.027   2.435 -0.2053 -0.4859 -0.4818
  751MOL0     H 1374  10.257  10.034   2.461  0.6240 -2.3196  1.3968
  751MOL0     H 1375  10.167   9.877   2.618  0.9822  0.3651  0.3044
  751MOL0     H 1376  10.262   9.788   2.514 -1.3888  0.2955 -2.7104
  751MOL0     H 1377  10.039   9.765   2.360  0.0040 -2.1218 -0.7342
  751MOL0     H 1378   9.962   9.809   2.503  0.8529  1.9397 -1.6207
  751MOL0     H 1379   9.997   9.551   2.477  2.3059 -0.2500 -0.8305
  751MOL0     H 1380  10.164   9.591   2.523  1.0992  0.5764  0.7598
  751MOL0     H 1381   9.963   9.622   2.900 -0.5365 -0.4524  0.4737
  751MOL0     H 1382  10.217   9.821   2.073 -1.2705  0.5342  1.4393
  751MOL0     H 1383  10.508   9.732   1.852 -0.3627 -0.0152 -1.3640
  751MOL0     H 1384  10.403   9.602   1.920 -2.0906  1.1775  1.9017
  751MOL0     H 1385  10.337   9.749   1.858 -0.1725  1.8457  0.1459
  752MOL0     O 1386   5.932   9.414   3.449 -0.3848 -0.4973  0.7042
  752MOL0     C 1387   5.863   9.424   3.348 -0.6322 -0.0315 -0.2278
  752MOL0     O 1388   5.903   9.382   3.220  0.4749 -0.5199  0.3808
  752MOL0     C 1389   6.027   9.322   3.213 -0.2711 -0.3792  0.4056
  752MOL0     C 1390   6.124   9.386   3.136  0.6569  1.0104  0.1088
  752MOL0     C 1391   6.256   9.341   3.136  0.6421  0.1784  0.8654
  752MOL0     C 1392   6.291   9.225   3.208  0.2146  1.0865 -0.3104
  752MOL0     O 1393   6.422   9.202   3.205 -0.1186 -0.0478  0.1967
  752MOL0     C 1394   6.483   9.093   3.285  0.4618 -0.0956  0.0541
  752MOL0     C 1395   6.623   9.064   3.238  0.1645  0.8308  0.2150
  752MOL0     C 1396   6.716   9.173   3.263 -0.4617 -1.4049 -0.3859
  752MOL0     C 1397   6.834   9.183   3.173 -0.0510  0.7169 -0.3647
  752MOL0     C 1398   6.935   9.292   3.216 -0.0436 -0.8168 -0.4339
  752MOL0     C 1399   6.883   9.434   3.164 -0.2357 -0.8207 -0.0771
  752MOL0     C 1400   6.991   9.546   3.180  0.0831  0.6479  0.5184
  752MOL0     C 1401   7.065   9.551   3.046 -0.1224 -0.0351 -0.0296
  752MOL0     N 1402   7.184   9.647   3.052  0.4487 -0.1239  0.1854
  752MOL0     C 1403   7.306   9.646   2.990 -1.0486 -0.4336 -0.8453
  752MOL0     C 1404   7.362   9.772   3.017  0.5356  0.1162 -0.4109
  752MOL0     C 1405   7.499   9.829   2.968 -0.0856  0.7891  0.0195
  752MOL0     C 1406   7.471   9.925   2.851  0.3693  0.1925  0.0718
  752MOL0     C 1407   7.532  10.059   2.865  1.0091 -0.2491  0.0565
  752MOL0     C 1408   7.561  10.134   2.734 -0.1409  0.8190  0.0193
  752MOL0     O 1409   7.444  10.141   2.658  0.0830 -0.1026  0.2172
  752MOL0     C 1410   7.346  10.229   2.689  1.1228  0.3780  0.5377
  752MOL0     C 1411   7.226  10.195   2.623 -0.1626 -1.4785  0.3193
  752MOL0     C 1412   7.109  10.281   2.657 -0.6495  1.4032 -0.0900
  752MOL0     C 1413   7.121  10.384   2.741  0.5053  0.7913 -0.0110
  752MOL0     C 1414   6.999  10.467   2.757 -0.1527 -0.2055 -0.2882
  752MOL0     O 1415   7.038  10.595   2.786  0.0693 -0.2116 -0.2800
  752MOL0     C 1416   6.944  10.664   2.867 -0.1138  0.4337 -0.1452
  752MOL0     C 1417   6.919  10.631   3.006 -1.0359 -0.0947  0.2775
  752MOL0     C 1418   6.842  10.707   3.085  0.1218 -0.2021  0.1748
  752MOL0     C 1419   6.758  10.805   3.030 -0.3454 -1.0288  0.7708
  752MOL0     O 1420   6.689  10.891   3.109  0.5015  0.3567  0.0996
  752MOL0     C 1421   6.737  10.928   3.241 -0.0560  0.0583  0.1446
  752MOL0     C 1422   6.656  11.053   3.297 -0.6327  0.0157  0.4353
  752MOL0     C 1423   6.668  11.176   3.197  1.3362 -0.2148  0.0601
  752MOL0     C 1424   6.605  11.296   3.264 -0.3498 -0.2432  0.0383
  752MOL0     C 1425   6.593  11.416   3.177  0.3942 -0.7538  0.6468
  752MOL0     C 1426   6.497  11.528   3.220 -0.5088  0.4373 -0.5167
  752MOL0     C 1427   6.494  11.630   3.110  0.3318 -0.3452 -0.8022
  752MOL0     C 1428   6.392  11.749   3.146 -0.6157  0.0667 -0.5033
  752MOL0    Cl 1429   6.374  11.864   3.021 -0.2861 -0.1550 -0.5059
  752MOL0     C 1430   6.765  10.829   2.892 -0.0939  1.2926  0.5534
  752MOL0     C 1431   6.853  10.755   2.811 -0.6836 -0.0497 -0.0291
  752MOL0     O 1432   6.884  10.428   2.747  0.6474 -0.1773 -0.0253
  752MOL0     C 1433   7.238  10.413   2.798  0.7666 -0.1743 -0.2564
  752MOL0     C 1434   7.352  10.342   2.769 -0.2580 -0.4157 -0.1394
  752MOL0     N 1435   7.273   9.830   3.095 -0.1021 -0.5417 -0.6879
  752MOL0     N 1436   7.170   9.765   3.118  0.1680 -0.2359  0.4187
  752MOL0     C 1437   6.189   9.152   3.269 -0.4759  0.6878  1.1733
  752MOL0     C 1438   6.055   9.199   3.278 -0.5942  0.7645 -0.3379
  752MOL0     C 1439   5.720   9.463   3.358  0.0641  0.3334 -0.3612
  752MOL0     C 1440   5.643   9.482   3.242 -1.2423 -0.2981 -0.1691
  752MOL0     C 1441   5.520   9.550   3.244 -0.4771  0.0781 -0.4033
  752MOL0     C 1442   5.467   9.601   3.359 -0.0527  0.8006  0.3445
  752MOL0     O 1443   5.344   9.654   3.366  0.6031  0.5153 -0.4597
  752MOL0     C 1444   5.318   9.775   3.301 -0.4121  0.4525  1.3830
  752MOL0     C 1445   5.411   9.891   3.331  0.5557  0.1660  0.0184
  752MOL0     C 1446   5.390   9.950   3.467 -0.2971 -0.3173 -1.0168
  752MOL0     C 1447   5.520  10.020   3.517  0.4006  0.2512 -0.2926
  752MOL0     C 1448   5.486  10.104   3.634  0.2192 -0.4571  0.2402
  752MOL0     C 1449   5.441  10.167   3.733  0.7172  0.6655  0.3168
  752MOL0     C 1450   5.534   9.585   3.478  0.5269 -0.9330 -0.3364
  752MOL0     C 1451   5.656   9.510   3.487  0.2319 -0.0507 -0.2224
  752MOL0     C 1452   5.724   9.501   3.627 -0.0807  0.2850 -0.0864
  752MOL0     H 1453   6.095   9.471   3.075  2.0946  1.4482 -0.0036
  752MOL0     H 1454   6.335   9.399   3.090  0.1796 -1.4396 -2.1723
  752MOL0     H 1455   6.479   9.122   3.390 -2.0573 -2.4122  0.7134
  752MOL0     H 1456   6.409   9.012   3.281 -2.7186  2.5534  0.7939
  752MOL0     H 1457   6.614   9.059   3.129 -0.9344 -0.9672  0.3421
  752MOL0     H 1458   6.649   8.971   3.288 -0.6896  1.3804  1.7348
  752MOL0     H 1459   6.750   9.167   3.366  2.0752 -0.4557 -1.0833
  752MOL0     H 1460   6.655   9.264   3.258  1.5556  0.0748  0.1982
  752MOL0     H 1461   6.881   9.084   3.178 -0.3504  0.5857 -0.1435
  752MOL0     H 1462   6.791   9.199   3.074  1.8911  2.0150 -1.0666
  752MOL0     H 1463   6.964   9.284   3.321 -3.1753  3.5316  1.0762
  752MOL0     H 1464   7.023   9.258   3.162 -0.6914 -2.3601 -0.5702
  752MOL0     H 1465   6.863   9.424   3.057  2.8887  0.0180 -0.8244
  752MOL0     H 1466   6.787   9.469   3.205  0.3380  1.9633 -0.9055
  752MOL0     H 1467   7.068   9.525   3.255  1.8624  0.6851 -1.2128
  752MOL0     H 1468   6.950   9.645   3.204  0.1919  0.9250 -0.4038
  752MOL0     H 1469   7.104   9.453   3.017 -1.7430 -0.4733 -0.8641
  752MOL0     H 1470   6.997   9.595   2.973 -0.2371  2.3584  1.4203
  752MOL0     H 1471   7.348   9.564   2.932  1.0929 -0.6018  0.8452
  752MOL0     H 1472   7.542   9.875   3.058  0.3304  2.4220 -0.9809
  752MOL0     H 1473   7.562   9.745   2.939 -1.7258 -0.3899 -0.2662
  752MOL0     H 1474   7.515   9.879   2.762  0.8708  1.5710 -0.4270
  752MOL0     H 1475   7.366   9.948   2.833  0.3400 -0.4338 -0.5929
  752MOL0     H 1476   7.626  10.045   2.920  0.2276  0.1055  1.5224
  752MOL0     H 1477   7.464  10.132   2.908  0.4728 -0.1354 -0.9656
  752MOL0     H 1478   7.632  10.066   2.686 -0.0955  1.6389 -1.1122
  752MOL0     H 1479   7.611  10.230   2.753  1.0250  0.0635  0.9999
  752MOL0     H 1480   7.219  10.117   2.548  2.2433 -1.5864  0.1328
  752MOL0     H 1481   7.020  10.242   2.607  1.5962 -3.7760 -0.7778
  752MOL0     H 1482   6.967  10.546   3.054  0.4971 -0.3710 -1.6117
  752MOL0     H 1483   6.849  10.685   3.191  3.0925  0.2077  0.1404
  752MOL0     H 1484   6.738  10.846   3.314 -0.3996  0.0566  0.1475
  752MOL0     H 1485   6.843  10.953   3.234 -0.0741  1.0997  2.3982
  752MOL0     H 1486   6.554  11.023   3.322  0.6981 -2.1808  4.1201
  752MOL0     H 1487   6.712  11.083   3.387  1.7748  0.6630 -1.1772
  752MOL0     H 1488   6.773  11.192   3.174  0.8093  2.1899 -0.9372
  752MOL0     H 1489   6.614  11.154   3.104  1.0230 -0.7155  0.3509
  752MOL0     H 1490   6.647  11.311   3.364  1.7780 -1.3942 -0.6120
  752MOL0     H 1491   6.504  11.261   3.287 -0.2143 -1.4913 -1.1185
  752MOL0     H 1492   6.556  11.391   3.077 -0.7674  0.0855  0.8579
  752MOL0     H 1493   6.691  11.463   3.161 -0.9201  1.4853 -1.7821
  752MOL0     H 1494   6.395  11.488   3.224 -0.8268  0.2819 -5.3179
  752MOL0     H 1495   6.528  11.582   3.310  0.2703  2.2160 -1.8134
  752MOL0     H 1496   6.468  11.584   3.015  2.3834 -2.2854 -0.5182
  752MOL0     H 1497   6.592  11.678   3.099  1.3214 -0.5626  4.2997
  752MOL0     H 1498   6.301  11.710   3.193  1.1541 -1.1841  2.1903
  752MOL0     H 1499   6.436  11.794   3.236 -2.0997 -1.9708  1.3469
  752MOL0     H 1500   6.699  10.896   2.838 -0.0233  0.6108 -0.4119
  752MOL0     H 1501   6.868  10.763   2.703  3.2923  0.7558  0.4155
  752MOL0     H 1502   7.251  10.491   2.872  0.2421 -0.6691  0.3663
  752MOL0     H 1503   7.449  10.367   2.810  0.7600 -0.8213 -2.1452
  752MOL0     H 1504   6.216   9.064   3.326  0.1502  2.1243  3.1914
  752MOL0     H 1505   5.976   9.150   3.334  1.3035 -2.2730 -0.0939
  752MOL0     H 1506   5.680   9.435   3.152 -1.1402  2.0173 -1.4087
  752MOL0     H 1507   5.459   9.548   3.154 -2.4632 -4.3906  0.7577
  752MOL0     H 1508   5.214   9.798   3.324 -1.3937 -3.8493  2.0882
  752MOL0     H 1509   5.326   9.757   3.193 -1.7759  1.2357  1.1318
  752MOL0     H 1510   5.387   9.971   3.260 -3.8504 -0.6617  0.3172
  752MOL0     H 1511   5.514   9.867   3.303  0.1093  0.6759 -2.3041
  752MOL0     H 1512   5.353   9.871   3.534 -0.8327  0.7844  0.0325
  752MOL0     H 1513   5.299  10.010   3.475  0.3697  0.5223  1.4527
  752MOL0     H 1514   5.603   9.954   3.543  0.5109  0.8938  1.0509
  752MOL0     H 1515   5.549  10.083   3.432  0.8264  0.9775  0.3808
  752MOL0     H 1516   5.400  10.220   3.816  3.6940 -1.2454  3.3017
  752MOL0     H 1517   5.486   9.617   3.570  1.9605 -0.5903  0.3191
  752MOL0     H 1518   5.813   9.565   3.626  0.5199 -0.4504  1.8103
  752MOL0     H 1519   5.657   9.538   3.706  1.9367  0.1604  1.7926
  752MOL0     H 1520   5.757   9.400   3.650  1.6137  0.7019 -0.5346
  753MOL0     O 1521  10.543   4.386   2.038 -0.9341 -0.4942 -0.1266
  753MOL0     C 1522  10.635   4.444   2.107 -0.3754  0.7324  0.0126
  753MOL0     O 1523  10.643   4.583   2.110 -0.2648 -0.0995 -0.6803
  753MOL0     C 1524  10.547   4.657   2.053 -0.3375  0.1129 -0.5634
  753MOL0     C 1525  10.432   4.707   2.125  0.3107 -1.0050  0.6653
  753MOL0     C 1526  10.342   4.793   2.058  0.8444 -0.1403 -0.3152
  753MOL0     C 1527  10.358   4.818   1.918  0.4214 -0.5925 -0.5371
  753MOL0     O 1528  10.282   4.906   1.845 -0.5387  0.0992  0.8827
  753MOL0     C 1529  10.144   4.900   1.885  0.4912  1.1207 -0.1810
  753MOL0     C 1530  10.048   4.955   1.780  0.0547  0.7540 -0.4658
  753MOL0     C 1531   9.903   4.950   1.820  0.7211  0.8598 -0.3299
  753MOL0     C 1532   9.881   5.026   1.961 -0.4889 -0.0952  0.1116
  753MOL0     C 1533   9.736   5.044   2.003 -0.6581 -0.5274  0.2657
  753MOL0     C 1534   9.717   5.173   2.082 -0.5606 -0.3611  0.5139
  753MOL0     C 1535   9.572   5.193   2.110  0.4179  0.3890 -0.3674
  753MOL0     C 1536   9.501   5.303   2.033  0.7753 -0.2791 -0.0574
  753MOL0     N 1537   9.554   5.440   2.047 -0.4124  0.0994 -0.1648
  753MOL0     C 1538   9.541   5.517   2.160 -1.3854  0.0756 -0.1702
  753MOL0     C 1539   9.631   5.616   2.141  0.6476  0.7813  0.4271
  753MOL0     C 1540   9.649   5.725   2.236  0.4853 -0.2675 -0.8266
  753MOL0     C 1541   9.749   5.670   2.342  0.1479 -0.1479 -0.4636
  753MOL0     C 1542   9.741   5.760   2.463  0.1253 -0.0268 -0.2002
  753MOL0     C 1543   9.868   5.768   2.538  0.4858  0.3660 -1.1274
  753MOL0     O 1544   9.884   5.644   2.612  0.1468  0.8969  0.4060
  753MOL0     C 1545  10.002   5.621   2.681  0.2705  0.2197  0.0514
  753MOL0     C 1546  10.076   5.719   2.741  0.0495 -0.3050  0.6628
  753MOL0     C 1547  10.202   5.703   2.794  0.6141 -1.3069  0.6913
  753MOL0     C 1548  10.256   5.572   2.784  0.0924 -0.5348 -0.5909
  753MOL0     C 1549  10.395   5.536   2.809  0.2763 -0.0928 -0.1848
  753MOL0     O 1550  10.460   5.431   2.741  0.0204 -0.4349  0.5778
  753MOL0     C 1551  10.597   5.412   2.773 -0.2185 -0.2514 -0.3098
  753MOL0     C 1552  10.691   5.510   2.763  0.0257  0.0415 -0.3560
  753MOL0     C 1553  10.811   5.484   2.819 -0.7079 -0.0572 -0.4055
  753MOL0     C 1554  10.860   5.364   2.857 -0.4616 -0.2795  0.0208
  753MOL0     O 1555  10.991   5.333   2.887  0.1467  0.2633  0.2007
  753MOL0     C 1556  11.021   5.300   3.022  0.4286 -0.1481  0.4350
  753MOL0     C 1557  11.068   5.438   3.085 -0.0027 -0.1009 -0.1070
  753MOL0     C 1558  11.117   5.413   3.226 -0.5233 -0.6376  0.1188
  753MOL0     C 1559  11.155   5.536   3.312 -0.5772 -0.0150 -0.9577
  753MOL0     C 1560  11.278   5.606   3.240  0.2292  0.8847 -0.6381
  753MOL0     C 1561  11.292   5.736   3.313 -0.8048 -0.5634 -0.7613
  753MOL0     C 1562  11.401   5.817   3.250  0.3754  0.0229  0.0302
  753MOL0     C 1563  11.419   5.951   3.312 -0.2279  0.4883 -0.3034
  753MOL0    Cl 1564  11.564   6.026   3.230 -0.0089  0.0682  0.3155
  753MOL0     C 1565  10.762   5.263   2.864 -0.7470  0.4990 -0.5431
  753MOL0     C 1566  10.628   5.288   2.836  0.5959 -0.8386  0.0585
  753MOL0     O 1567  10.443   5.597   2.903  0.2019  0.0025  0.2187
  753MOL0     C 1568  10.185   5.465   2.727  0.2383 -0.4771 -0.1719
  753MOL0     C 1569  10.056   5.489   2.681  0.5051 -0.5214 -0.0324
  753MOL0     N 1570   9.692   5.597   2.013  0.3694 -1.1184 -0.6070
  753MOL0     N 1571   9.649   5.489   1.960  0.4080  0.7868  0.0731
  753MOL0     C 1572  10.475   4.774   1.862  0.6681  0.2936  0.4437
  753MOL0     C 1573  10.568   4.698   1.924  0.3669  0.1157 -0.6339
  753MOL0     C 1574  10.751   4.367   2.178 -0.4332 -0.1329  0.0774
  753MOL0     C 1575  10.732   4.230   2.165 -0.0964 -1.2011 -0.1082
  753MOL0     C 1576  10.809   4.140   2.239  0.1131 -0.3776 -0.2962
  753MOL0     C 1577  10.910   4.193   2.316 -0.0903  0.1637 -0.5430
  753MOL0     O 1578  10.992   4.106   2.386  1.1315 -1.0102  0.3047
  753MOL0     C 1579  11.111   4.090   2.316 -0.9712  0.2051  1.2604
  753MOL0     C 1580  11.187   3.984   2.386  0.3593 -0.3421  0.6296
  753MOL0     C 1581  11.241   4.031   2.516 -0.0840 -0.1501  0.4232
  753MOL0     C 1582  11.293   3.912   2.619  0.3254 -1.0214  1.5479
  753MOL0     C 1583  11.409   3.854   2.546  0.0897 -0.3108 -0.0269
  753MOL0     C 1584  11.497   3.810   2.478 -0.4703 -0.3523 -0.4666
  753MOL0     C 1585  10.922   4.329   2.335  0.6064 -0.1434 -0.0934
  753MOL0     C 1586  10.845   4.423   2.272 -0.6123 -0.7299  0.9588
  753MOL0     C 1587  10.870   4.569   2.307  0.4859  0.8240  0.5989
  753MOL0     H 1588  10.415   4.670   2.226 -1.8588 -4.7463 -0.8722
  753MOL0     H 1589  10.258   4.821   2.122  0.6078 -1.1408 -0.1704
  753MOL0     H 1590  10.118   4.800   1.919 -1.4837  1.2189 -1.2565
  753MOL0     H 1591  10.142   4.966   1.972 -2.8449 -2.3793  2.7589
  753MOL0     H 1592  10.062   4.898   1.687  2.8481  1.4799 -0.5881
  753MOL0     H 1593  10.081   5.058   1.770 -0.1303  0.8505 -0.0783
  753MOL0     H 1594   9.870   4.847   1.831 -1.4741  0.8824 -4.5365
  753MOL0     H 1595   9.849   5.006   1.743  1.9545  0.5909 -1.4337
  753MOL0     H 1596   9.920   4.954   2.034 -4.4874 -1.4304  1.1937
  753MOL0     H 1597   9.929   5.124   1.965  0.0248 -0.1109 -3.0905
  753MOL0     H 1598   9.674   5.047   1.912 -0.9002  0.7464  0.4538
  753MOL0     H 1599   9.696   4.963   2.064  1.0559 -0.8096  1.0703
  753MOL0     H 1600   9.770   5.153   2.176  0.1751 -1.8094 -0.1762
  753MOL0     H 1601   9.757   5.261   2.030 -1.8407  0.5959  1.0773
  753MOL0     H 1602   9.571   5.221   2.216  2.3705 -0.9706  0.0841
  753MOL0     H 1603   9.521   5.096   2.111 -1.1104  0.9921 -4.1588
  753MOL0     H 1604   9.517   5.280   1.928 -0.4038  3.1739 -1.1285
  753MOL0     H 1605   9.396   5.288   2.063  0.3777  3.3177  0.7809
  753MOL0     H 1606   9.469   5.500   2.239 -2.0533 -2.5479 -1.2402
  753MOL0     H 1607   9.684   5.816   2.186 -1.0017 -0.1119 -1.6473
  753MOL0     H 1608   9.558   5.754   2.288  2.6385  0.9837  2.6138
  753MOL0     H 1609   9.728   5.565   2.365 -0.2135 -0.2637 -1.2883
  753MOL0     H 1610   9.851   5.667   2.303 -0.8021 -1.3896 -3.0734
  753MOL0     H 1611   9.665   5.713   2.525 -0.8371  0.0266 -1.3047
  753MOL0     H 1612   9.713   5.863   2.438  1.1084 -0.1648 -2.1208
  753MOL0     H 1613   9.853   5.850   2.608 -2.1560 -2.0180  1.3373
  753MOL0     H 1614   9.947   5.785   2.464 -0.0878 -0.6846 -2.0092
  753MOL0     H 1615  10.028   5.815   2.728  1.3818  0.3300  0.2725
  753MOL0     H 1616  10.256   5.789   2.832  0.6963 -1.3820  0.7445
  753MOL0     H 1617  10.665   5.609   2.726 -3.4178 -0.6354 -0.0636
  753MOL0     H 1618  10.885   5.564   2.818 -0.4368 -0.2428  1.5407
  753MOL0     H 1619  10.927   5.271   3.071  0.8698  1.5418  2.4054
  753MOL0     H 1620  11.097   5.222   3.021  0.9119  0.3173 -0.4609
  753MOL0     H 1621  11.146   5.485   3.024 -0.1061 -1.0403 -0.9949
  753MOL0     H 1622  10.984   5.509   3.088  1.0758  1.2188 -0.0993
  753MOL0     H 1623  11.032   5.370   3.281 -0.9601  1.2532  0.9975
  753MOL0     H 1624  11.200   5.342   3.222  0.0749 -0.0471  1.3815
  753MOL0     H 1625  11.182   5.498   3.411  0.0260  1.3676 -0.5651
  753MOL0     H 1626  11.065   5.598   3.320 -0.3434  0.1388  0.9735
  753MOL0     H 1627  11.272   5.615   3.131 -1.6694 -1.2697 -0.7975
  753MOL0     H 1628  11.360   5.534   3.245 -0.7736 -0.3064 -0.5444
  753MOL0     H 1629  11.203   5.800   3.309 -1.9127 -1.9675  0.4903
  753MOL0     H 1630  11.322   5.727   3.418 -1.9217  1.5719 -0.2027
  753MOL0     H 1631  11.369   5.840   3.148 -0.7903  1.2179  0.6346
  753MOL0     H 1632  11.498   5.766   3.250  0.1515 -0.4177 -0.8339
  753MOL0     H 1633  11.337   6.022   3.295  1.8138  3.0478 -0.1585
  753MOL0     H 1634  11.433   5.952   3.421  1.2846  0.5454 -0.4718
  753MOL0     H 1635  10.803   5.169   2.898  3.8030  1.7052 -1.9609
  753MOL0     H 1636  10.548   5.221   2.866  2.1841 -3.3735 -1.0154
  753MOL0     H 1637  10.228   5.367   2.711  0.4242 -0.4221 -0.0202
  753MOL0     H 1638  10.000   5.415   2.625 -0.7882  1.4541 -1.4640
  753MOL0     H 1639  10.496   4.801   1.759  0.3872  0.3339  0.3952
  753MOL0     H 1640  10.661   4.667   1.878  0.8999 -0.3661  0.7259
  753MOL0     H 1641  10.658   4.187   2.098 -1.6854 -2.1257  2.1317
  753MOL0     H 1642  10.782   4.035   2.234 -2.4632  0.1325  1.0114
  753MOL0     H 1643  11.169   4.183   2.314 -1.7489  0.6844  0.9546
  753MOL0     H 1644  11.089   4.069   2.211  0.1029 -1.4734  1.3241
  753MOL0     H 1645  11.266   3.949   2.319 -0.8113 -2.5665  0.3046
  753MOL0     H 1646  11.125   3.894   2.397  1.5717 -1.2145  0.5270
  753MOL0     H 1647  11.169   4.082   2.581  1.3024 -1.5230  3.1927
  753MOL0     H 1648  11.322   4.097   2.482  0.1238 -1.4134 -1.7521
  753MOL0     H 1649  11.324   3.949   2.717 -1.9446 -2.9144  3.0705
  753MOL0     H 1650  11.214   3.840   2.642 -1.1696  0.0796  0.1086
  753MOL0     H 1651  11.576   3.783   2.411  0.7020  2.3965 -0.3011
  753MOL0     H 1652  11.006   4.368   2.391  1.1066  0.4023 -1.1842
  753MOL0     H 1653  10.905   4.620   2.217 -3.4793  2.8316 -0.0132
  753MOL0     H 1654  10.773   4.611   2.335  2.6871  6.2217  1.3444
  753MOL0     H 1655  10.942   4.583   2.389  1.3690 -1.6864  0.3441
  754MOL0     O 1656   6.510   0.584  10.626  0.0480  0.7188 -0.1165
  754MOL0     C 1657   6.479   0.469  10.581  0.7621 -0.6530  0.3297
  754MOL0     O 1658   6.370   0.444  10.502  0.1847  0.0864 -0.1902
  754MOL0     C 1659   6.291   0.550  10.479 -0.2735  0.2166 -0.0884
  754MOL0     C 1660   6.278   0.585  10.347  0.6107  1.1708  0.2586
  754MOL0     C 1661   6.192   0.691  10.304  0.5527  0.2354 -0.6039
  754MOL0     C 1662   6.116   0.756  10.402 -0.6409  0.5706 -0.4504
  754MOL0     O 1663   6.031   0.861  10.387 -0.1688  0.6141 -0.4037
  754MOL0     C 1664   6.012   0.921  10.262 -0.3455 -0.9795 -0.6633
  754MOL0     C 1665   5.894   1.007  10.302  0.7723 -0.0006  0.1415
  754MOL0     C 1666   5.818   1.073  10.177 -0.9221  0.0265  0.8538
  754MOL0     C 1667   5.716   1.176  10.231  0.6707 -0.1346 -1.3650
  754MOL0     C 1668   5.670   1.261  10.115  0.4678 -0.4142 -0.2730
  754MOL0     C 1669   5.554   1.365  10.159  0.9303  0.0028 -0.5887
  754MOL0     C 1670   5.582   1.452  10.281 -0.1321 -0.1027  0.0149
  754MOL0     C 1671   5.457   1.543  10.334  0.7846 -0.4454  0.7876
  754MOL0     N 1672   5.433   1.647  10.232  0.2231 -0.0121 -0.1452
  754MOL0     C 1673   5.517   1.745  10.194 -0.7484 -0.5302 -0.4101
  754MOL0     C 1674   5.453   1.813  10.093 -0.8015 -0.0442  0.5614
  754MOL0     C 1675   5.511   1.925  10.021  0.5360 -0.3111  0.6199
  754MOL0     C 1676   5.568   1.906   9.878  0.6033 -0.2640 -1.0000
  754MOL0     C 1677   5.672   1.787   9.861  0.1516  0.0448  0.8121
  754MOL0     C 1678   5.663   1.733   9.714  0.0251  0.2167  1.0477
  754MOL0     O 1679   5.755   1.624   9.704  0.3284  0.0988  0.2407
  754MOL0     C 1680   5.694   1.498   9.741 -0.5957  0.1214  0.2743
  754MOL0     C 1681   5.763   1.385   9.701  0.8418 -0.2587 -0.1550
  754MOL0     C 1682   5.709   1.255   9.706 -0.3526 -0.6026 -0.1920
  754MOL0     C 1683   5.585   1.228   9.749 -0.1187 -0.4049  0.7160
  754MOL0     C 1684   5.528   1.092   9.757 -0.2856  0.1543  0.5796
  754MOL0     O 1685   5.601   1.000   9.683  0.3952 -0.5627 -0.4711
  754MOL0     C 1686   5.629   0.886   9.735 -0.8378  0.4120 -0.8758
  754MOL0     C 1687   5.645   0.858   9.872  0.4038  0.7659 -0.4574
  754MOL0     C 1688   5.700   0.734   9.915  1.1757  0.3856  0.4912
  754MOL0     C 1689   5.727   0.630   9.817  1.8374  0.1986 -0.1978
  754MOL0     O 1690   5.798   0.514   9.858 -0.0905  0.7486  0.1180
  754MOL0     C 1691   5.890   0.521   9.969 -0.7362 -0.3683  0.5993
  754MOL0     C 1692   5.982   0.401   9.962  0.6252  0.2416  0.2771
  754MOL0     C 1693   6.082   0.427   9.844  0.3027 -1.5644  0.1121
  754MOL0     C 1694   6.161   0.299   9.822 -0.7528  0.5021  0.3379
  754MOL0     C 1695   6.265   0.270   9.941  0.3405  0.7782  0.2710
  754MOL0     C 1696   6.355   0.152   9.906 -0.7862 -0.3510  0.2685
  754MOL0     C 1697   6.483   0.147  10.000 -0.1822 -0.4394  0.1209
  754MOL0     C 1698   6.533   0.000  10.018 -0.4936 -0.3525  0.3012
  754MOL0    Cl 1699   6.678  -0.004  10.127 -0.2352  0.4311 -0.1296
  754MOL0     C 1700   5.698   0.648   9.685 -0.2516 -0.3772 -0.6769
  754MOL0     C 1701   5.655   0.775   9.644  0.2439 -0.2848 -0.3761
  754MOL0     O 1702   5.430   1.063   9.825  0.3714 -0.2507  0.1163
  754MOL0     C 1703   5.513   1.337   9.796  0.7250 -0.8192  0.1808
  754MOL0     C 1704   5.563   1.467   9.785 -0.0179 -0.0620 -0.1476
  754MOL0     N 1705   5.329   1.757  10.078  0.3424 -0.0111  0.7068
  754MOL0     N 1706   5.327   1.658  10.160 -0.2500 -0.1341 -0.0458
  754MOL0     C 1707   6.144   0.728  10.541 -1.2956  0.3412  0.1492
  754MOL0     C 1708   6.231   0.629  10.580 -0.0117  1.3611  0.8355
  754MOL0     C 1709   6.571   0.359  10.624 -0.3190 -0.8339 -0.1938
  754MOL0     C 1710   6.654   0.373  10.734  0.5207 -0.2324 -1.0355
  754MOL0     C 1711   6.727   0.260  10.784  0.2378 -0.9230  0.9963
  754MOL0     C 1712   6.709   0.134  10.732 -0.7965 -0.1206 -0.3268
  754MOL0     O 1713   6.775   0.025  10.779  0.1523  0.1790 -0.0734
  754MOL0     C 1714   6.733   0.000  10.918  0.7246  0.0420  0.2391
  754MOL0     C 1715   6.861  -0.007  11.000  0.4953 -0.1152  0.8950
  754MOL0     C 1716   6.957  -0.128  10.979  0.5993  0.2990  0.3962
  754MOL0     C 1717   7.063  -0.133  11.102  0.6612  0.5585 -0.1806
  754MOL0     C 1718   7.195  -0.073  11.065  0.9625  0.4131  0.8584
  754MOL0     C 1719   7.305  -0.034  11.055 -1.1116  0.8379  0.3696
  754MOL0     C 1720   6.637   0.117  10.617 -0.5797 -0.5023  0.0257
  754MOL0     C 1721   6.558   0.224  10.567  0.0151 -0.6774  0.1678
  754MOL0     C 1722   6.495   0.189  10.433  0.3093  0.7463 -0.1248
  754MOL0     H 1723   6.329   0.532  10.267  0.5629 -0.1443  1.0737
  754MOL0     H 1724   6.197   0.729  10.202 -1.8430 -0.8539 -1.2047
  754MOL0     H 1725   6.097   0.983  10.231 -1.3324  2.4431  2.6529
  754MOL0     H 1726   5.987   0.848  10.186 -1.6664 -0.3156 -0.8911
  754MOL0     H 1727   5.940   1.088  10.360  1.3545 -0.4023  0.2470
  754MOL0     H 1728   5.815   0.953  10.355  1.2346  0.1763  1.0276
  754MOL0     H 1729   5.781   0.996  10.109 -2.9003  2.0144 -0.4578
  754MOL0     H 1730   5.882   1.133  10.111 -3.3354  1.0489 -0.6934
  754MOL0     H 1731   5.634   1.130  10.287  2.6598 -0.4599  1.4979
  754MOL0     H 1732   5.776   1.235  10.301 -1.6645  0.5779  0.1586
  754MOL0     H 1733   5.749   1.331  10.084 -2.0127  1.5745 -2.5933
  754MOL0     H 1734   5.645   1.208  10.023 -1.0119  2.5749 -1.7217
  754MOL0     H 1735   5.540   1.437  10.077 -2.4254  0.0814 -0.0870
  754MOL0     H 1736   5.463   1.305  10.165  0.3792  0.8003 -0.8092
  754MOL0     H 1737   5.673   1.513  10.271  0.8211 -0.9795  2.5750
  754MOL0     H 1738   5.596   1.377  10.359 -1.5522  0.2707  0.6655
  754MOL0     H 1739   5.364   1.489  10.355 -1.1625  2.4975  0.3655
  754MOL0     H 1740   5.483   1.593  10.428 -2.0450 -0.8454  1.8961
  754MOL0     H 1741   5.619   1.751  10.230 -1.9618  1.1559  3.1125
  754MOL0     H 1742   5.438   2.006  10.027 -0.2381 -1.0301  1.1494
  754MOL0     H 1743   5.605   1.956  10.066  2.3065 -1.3676 -2.1159
  754MOL0     H 1744   5.480   1.887   9.816  2.5058 -3.5352 -3.0248
  754MOL0     H 1745   5.621   1.994   9.841  1.0099 -0.7495 -1.5968
  754MOL0     H 1746   5.660   1.715   9.942 -3.0029 -0.2392  0.2046
  754MOL0     H 1747   5.772   1.831   9.875  0.2559  0.3334 -0.6565
  754MOL0     H 1748   5.695   1.811   9.645  3.6940  1.1263  3.4878
  754MOL0     H 1749   5.556   1.715   9.699  0.2532  0.7065 -1.5389
  754MOL0     H 1750   5.863   1.397   9.660  0.9066 -0.6485 -0.1055
  754MOL0     H 1751   5.760   1.169   9.663 -1.6259 -1.2497 -0.4408
  754MOL0     H 1752   5.619   0.930   9.949  1.3214 -0.9083  1.5318
  754MOL0     H 1753   5.719   0.735  10.022  3.0335  0.3891  0.1990
  754MOL0     H 1754   5.945   0.613   9.990  0.8802 -0.6872 -1.7786
  754MOL0     H 1755   5.828   0.522  10.059 -0.9825 -2.2094  0.4761
  754MOL0     H 1756   6.039   0.380  10.053 -0.4674 -1.5594  0.5982
  754MOL0     H 1757   5.917   0.317   9.934 -2.6922  1.8020  2.5947
  754MOL0     H 1758   6.032   0.457   9.751  1.7303  0.4077 -0.0989
  754MOL0     H 1759   6.157   0.503   9.866  0.9370 -2.2424  0.3286
  754MOL0     H 1760   6.214   0.298   9.726 -1.6126 -2.5469 -0.2395
  754MOL0     H 1761   6.090   0.215   9.810  1.6230 -1.5567 -0.1353
  754MOL0     H 1762   6.197   0.254  10.026 -0.3071  2.8684  0.1901
  754MOL0     H 1763   6.316   0.366   9.955 -2.0159  1.8090  2.7906
  754MOL0     H 1764   6.298   0.059   9.921  1.0186 -1.5348  0.1096
  754MOL0     H 1765   6.385   0.145   9.801  2.1822 -1.8373  1.1084
  754MOL0     H 1766   6.454   0.199  10.092 -3.8487 -0.4418 -0.8921
  754MOL0     H 1767   6.563   0.209   9.961 -0.7806  1.3001  1.5167
  754MOL0     H 1768   6.448  -0.053  10.061 -2.3849  2.6677  0.5889
  754MOL0     H 1769   6.579  -0.038   9.926  0.2390  0.6507  0.2310
  754MOL0     H 1770   5.700   0.559   9.623 -1.9403 -2.3446  1.8631
  754MOL0     H 1771   5.629   0.785   9.539 -4.0120  2.0740  0.6442
  754MOL0     H 1772   5.413   1.332   9.836 -0.4128 -1.8634 -2.5749
  754MOL0     H 1773   5.501   1.549   9.821 -2.4958 -2.4948  1.5134
  754MOL0     H 1774   6.082   0.773  10.618 -3.7555  3.4339 -3.3252
  754MOL0     H 1775   6.227   0.591  10.682 -0.1521 -3.7927 -0.8223
  754MOL0     H 1776   6.653   0.467  10.789 -2.6303 -1.6126  1.5808
  754MOL0     H 1777   6.796   0.268  10.867 -2.0224  1.4642  2.7912
  754MOL0     H 1778   6.687  -0.098  10.931  0.5704 -0.1620 -1.6057
  754MOL0     H 1779   6.657   0.068  10.958  1.1294  0.0495  1.0170
  754MOL0     H 1780   6.819  -0.009  11.101 -2.1010  0.4227 -0.0987
  754MOL0     H 1781   6.908   0.092  10.990 -1.0950  0.9464  3.0202
  754MOL0     H 1782   7.000  -0.123  10.878  0.8958 -2.7661  0.2537
  754MOL0     H 1783   6.903  -0.224  10.981 -0.6418  0.9003 -1.3403
  754MOL0     H 1784   7.020  -0.084  11.190 -1.1438 -1.1967 -0.0217
  754MOL0     H 1785   7.087  -0.233  11.138 -0.4501  1.2332  2.7284
  754MOL0     H 1786   7.405   0.006  11.049 -0.7748 -0.0054  0.1702
  754MOL0     H 1787   6.623   0.021  10.568 -3.1696  0.7968 -2.0710
  754MOL0     H 1788   6.387   0.175  10.432  0.6065 -2.0400 -0.2837
  754MOL0     H 1789   6.509   0.272  10.363 -1.1996  2.7250  1.7613
  754MOL0     H 1790   6.540   0.097  10.396 -0.0894  0.9063 -1.0169
  755MOL0     O 1791  10.244   7.926   3.889  0.4051 -0.4377  0.0613
  755MOL0     C 1792  10.157   7.909   3.970 -0.0698  0.0649  0.3872
  755MOL0     O 1793  10.020   7.930   3.952  0.8078  0.2435 -0.3551
  755MOL0     C 1794   9.975   8.040   3.875 -0.4300  0.5126  0.0344
  755MOL0     C 1795   9.842   8.064   3.880  0.4352  0.2602  1.4426
  755MOL0     C 1796   9.775   8.177   3.820 -1.0706  0.2051 -0.1414
  755MOL0     C 1797   9.855   8.267   3.755 -0.0731 -0.3062  0.5125
  755MOL0     O 1798   9.794   8.377   3.724  0.3157  0.0520  0.0709
  755MOL0     C 1799   9.833   8.440   3.605  0.4933 -0.4445 -0.2904
  755MOL0     C 1800   9.789   8.367   3.470 -0.3583  0.3383  0.5444
  755MOL0     C 1801   9.636   8.357   3.455 -1.3676  0.5529 -0.5853
  755MOL0     C 1802   9.597   8.296   3.329  0.7054  0.6925  0.0466
  755MOL0     C 1803   9.459   8.346   3.290 -0.1685 -0.0052 -0.5509
  755MOL0     C 1804   9.415   8.268   3.171 -0.1115 -0.5442  1.0656
  755MOL0     C 1805   9.287   8.322   3.120  0.9461 -0.4315 -0.8611
  755MOL0     C 1806   9.245   8.266   2.993  0.4151 -0.2870  0.0856
  755MOL0     N 1807   9.172   8.144   3.007  0.2215  0.1993 -0.0830
  755MOL0     C 1808   9.232   8.027   3.042  0.6896 -0.1284 -0.1226
  755MOL0     C 1809   9.151   7.933   3.011  0.2735 -1.5116 -0.3220
  755MOL0     C 1810   9.178   7.785   3.036 -0.5789 -0.5913  0.7410
  755MOL0     C 1811   9.251   7.720   2.913  0.4674 -0.0930 -0.5827
  755MOL0     C 1812   9.158   7.708   2.787  1.3514  0.5690  0.2540
  755MOL0     C 1813   9.020   7.647   2.790  0.7252 -0.7324 -0.2416
  755MOL0     O 1814   9.027   7.500   2.793  0.3401 -1.0776 -0.0903
  755MOL0     C 1815   8.906   7.433   2.815 -0.4039 -1.0050 -0.2786
  755MOL0     C 1816   8.778   7.496   2.783 -0.7144  0.1534 -0.6258
  755MOL0     C 1817   8.661   7.427   2.812 -1.0393 -0.2829 -0.2351
  755MOL0     C 1818   8.659   7.305   2.868 -0.0716  0.7932 -0.5307
  755MOL0     C 1819   8.535   7.224   2.886  0.3200 -0.1758  0.1540
  755MOL0     O 1820   8.426   7.248   2.799 -0.3504  0.3149 -0.2600
  755MOL0     C 1821   8.308   7.171   2.817  0.5323  0.2799  0.2812
  755MOL0     C 1822   8.229   7.146   2.711  0.7531  0.9237 -0.5735
  755MOL0     C 1823   8.109   7.073   2.711 -0.3019  0.3129  0.3924
  755MOL0     C 1824   8.045   7.033   2.825 -0.3362 -1.3846 -0.7237
  755MOL0     O 1825   7.920   6.971   2.819  0.5932  0.4036  0.1859
  755MOL0     C 1826   7.878   6.864   2.920  0.4902 -0.6291  0.0869
  755MOL0     C 1827   7.764   6.796   2.855 -0.1103 -0.7711  0.5137
  755MOL0     C 1828   7.652   6.885   2.811  0.0782 -0.9797 -0.4654
  755MOL0     C 1829   7.522   6.813   2.782 -0.3615  0.0852  0.1331
  755MOL0     C 1830   7.522   6.736   2.651  0.0247  0.2263 -0.2257
  755MOL0     C 1831   7.394   6.652   2.630 -0.0659 -0.4349 -0.3428
  755MOL0     C 1832   7.419   6.499   2.625  0.1385 -0.0430  0.2150
  755MOL0     C 1833   7.290   6.426   2.623 -0.4012  0.0849  0.0385
  755MOL0    Cl 1834   7.207   6.432   2.784 -0.6173 -0.0907  0.0760
  755MOL0     C 1835   8.120   7.069   2.946 -0.5598  0.1146 -0.2036
  755MOL0     C 1836   8.246   7.134   2.940  0.1315 -0.1635  0.3464
  755MOL0     O 1837   8.533   7.147   2.989 -0.0851 -0.3829  0.5428
  755MOL0     C 1838   8.788   7.245   2.905  1.6655  0.4232 -0.7585
  755MOL0     C 1839   8.908   7.312   2.882  0.1199 -0.1715 -0.1566
  755MOL0     N 1840   9.042   7.981   2.941  1.0748 -0.1311 -0.1923
  755MOL0     N 1841   9.056   8.112   2.944  0.3944  0.6743 -0.4447
  755MOL0     C 1842   9.985   8.233   3.734 -0.0299 -0.1012 -0.2044
  755MOL0     C 1843  10.044   8.127   3.791 -0.5216  0.7497 -0.4471
  755MOL0     C 1844  10.194   7.835   4.089 -0.9445  0.2647  0.3776
  755MOL0     C 1845  10.112   7.727   4.134 -0.0424  0.1287 -0.1410
  755MOL0     C 1846  10.151   7.649   4.250  0.6004  1.0052 -0.2312
  755MOL0     C 1847  10.265   7.664   4.323 -0.0667 -1.1812  0.2255
  755MOL0     O 1848  10.300   7.572   4.418 -0.5376 -0.1586 -0.0347
  755MOL0     C 1849  10.421   7.595   4.498 -0.1390 -0.7973 -0.2332
  755MOL0     C 1850  10.543   7.571   4.407 -0.4390 -0.4791 -0.0510
  755MOL0     C 1851  10.663   7.657   4.440 -0.9670  0.3121 -0.5784
  755MOL0     C 1852  10.765   7.571   4.523  0.6077 -0.8045  0.2663
  755MOL0     C 1853  10.699   7.513   4.644 -0.3043  0.8200 -0.1065
  755MOL0     C 1854  10.659   7.465   4.751 -0.9672 -0.5246 -0.0199
  755MOL0     C 1855  10.334   7.785   4.289  0.3165 -0.2180 -0.7655
  755MOL0     C 1856  10.313   7.852   4.160  0.0464  1.3608 -0.0557
  755MOL0     C 1857  10.414   7.953   4.127  0.0768  0.4941  0.4471
  755MOL0     H 1858   9.770   7.995   3.923  1.0957 -1.2390  0.1911
  755MOL0     H 1859   9.670   8.203   3.831 -0.7377  1.5177  0.1171
  755MOL0     H 1860   9.798   8.544   3.611  1.3166 -0.1625 -0.3293
  755MOL0     H 1861   9.941   8.452   3.608  0.5479 -1.0162 -0.0059
  755MOL0     H 1862   9.826   8.264   3.469 -0.4493  0.3032  0.6961
  755MOL0     H 1863   9.847   8.413   3.390  2.3326 -1.0974  1.5443
  755MOL0     H 1864   9.598   8.458   3.441  1.4832  1.5648 -1.6375
  755MOL0     H 1865   9.591   8.310   3.544  2.1019 -0.1397  0.9543
  755MOL0     H 1866   9.671   8.311   3.251  2.4371 -2.8369  0.8122
  755MOL0     H 1867   9.598   8.188   3.348 -1.2513  0.6060 -0.1061
  755MOL0     H 1868   9.386   8.344   3.371 -2.9599 -0.0415 -2.8927
  755MOL0     H 1869   9.471   8.451   3.262 -2.1254  0.4754  0.2879
  755MOL0     H 1870   9.500   8.286   3.105  2.4036  0.2380  4.2638
  755MOL0     H 1871   9.422   8.159   3.180 -0.2943 -0.6253  0.3305
  755MOL0     H 1872   9.304   8.429   3.102  0.4989 -0.3223 -0.6636
  755MOL0     H 1873   9.211   8.302   3.197  2.3127 -0.8639  0.4354
  755MOL0     H 1874   9.179   8.339   2.947  0.9896  0.0566 -0.2021
  755MOL0     H 1875   9.322   8.254   2.917 -0.0311 -2.0832 -0.1259
  755MOL0     H 1876   9.325   8.004   3.092  0.1731 -0.0115  0.9192
  755MOL0     H 1877   9.235   7.782   3.130 -0.1632 -0.6639  0.4904
  755MOL0     H 1878   9.085   7.731   3.055  0.1214 -1.2001  2.7037
  755MOL0     H 1879   9.343   7.775   2.893  1.3033 -1.4497 -0.5879
  755MOL0     H 1880   9.283   7.621   2.946 -1.1133 -0.6125 -0.5266
  755MOL0     H 1881   9.214   7.641   2.722 -1.9103 -3.1098  0.8709
  755MOL0     H 1882   9.143   7.810   2.750  0.0563 -0.0632 -1.0825
  755MOL0     H 1883   8.964   7.679   2.701  0.3430 -0.7831 -0.0213
  755MOL0     H 1884   8.963   7.687   2.875 -2.7648 -4.6727 -0.3964
  755MOL0     H 1885   8.771   7.590   2.729  0.1667 -1.9983 -4.9426
  755MOL0     H 1886   8.569   7.468   2.773 -1.3831 -1.2556 -0.4789
  755MOL0     H 1887   8.244   7.191   2.613 -1.7459 -0.5237 -1.7130
  755MOL0     H 1888   8.061   7.059   2.615  1.1027  1.7985 -0.5852
  755MOL0     H 1889   7.957   6.789   2.935 -2.2603 -3.8172 -0.2806
  755MOL0     H 1890   7.854   6.908   3.017  0.2374 -4.4201  1.9513
  755MOL0     H 1891   7.803   6.736   2.772  0.3685  1.3339 -0.8837
  755MOL0     H 1892   7.719   6.728   2.927 -0.5687 -2.8065 -1.5521
  755MOL0     H 1893   7.635   6.945   2.900 -0.2990 -0.9422 -0.5601
  755MOL0     H 1894   7.679   6.936   2.718  1.0778 -2.0302 -0.7868
  755MOL0     H 1895   7.450   6.894   2.785  0.0132  0.4079  3.4416
  755MOL0     H 1896   7.499   6.747   2.866 -4.5317 -0.4543 -1.2116
  755MOL0     H 1897   7.611   6.672   2.649 -0.3392 -0.3109  0.4773
  755MOL0     H 1898   7.524   6.800   2.563 -0.1258  2.9399  1.6393
  755MOL0     H 1899   7.334   6.672   2.719 -0.1534  3.1059 -1.0693
  755MOL0     H 1900   7.352   6.673   2.532 -0.0925  2.7313  0.2374
  755MOL0     H 1901   7.480   6.466   2.710  0.1708  0.1668  0.2752
  755MOL0     H 1902   7.468   6.472   2.531  1.4089 -0.8945  1.0756
  755MOL0     H 1903   7.210   6.458   2.555 -0.8321 -1.6847 -0.3411
  755MOL0     H 1904   7.309   6.322   2.599  2.8575  0.2792  1.3636
  755MOL0     H 1905   8.079   7.047   3.044 -0.4930 -0.5302 -0.3134
  755MOL0     H 1906   8.287   7.174   3.032  1.4307 -1.7605  0.5125
  755MOL0     H 1907   8.783   7.146   2.948  6.0878  1.0513  1.7657
  755MOL0     H 1908   9.005   7.270   2.907  0.5991  0.6826 -0.5568
  755MOL0     H 1909  10.063   8.292   3.688  1.7554  0.0329  2.7329
  755MOL0     H 1910  10.146   8.113   3.756 -0.4782  3.1408 -1.4966
  755MOL0     H 1911  10.025   7.698   4.077  1.6372 -1.7533 -1.8967
  755MOL0     H 1912  10.078   7.577   4.286 -2.3370  2.8699 -1.9761
  755MOL0     H 1913  10.425   7.522   4.580  2.5105 -0.8998 -0.3567
  755MOL0     H 1914  10.415   7.691   4.549  0.5460  0.8054 -2.9917
  755MOL0     H 1915  10.518   7.594   4.304  3.2297  1.5605 -0.7025
  755MOL0     H 1916  10.553   7.463   4.399 -0.3174 -0.3829 -1.4385
  755MOL0     H 1917  10.637   7.743   4.503  0.0876  0.9838 -1.0300
  755MOL0     H 1918  10.719   7.693   4.353 -2.8660 -1.2854 -2.5720
  755MOL0     H 1919  10.795   7.490   4.456 -3.0997 -0.8627 -1.5967
  755MOL0     H 1920  10.865   7.612   4.538  1.1978 -2.1526  0.1253
  755MOL0     H 1921  10.638   7.423   4.847 -0.8982 -2.1957 -0.7042
  755MOL0     H 1922  10.424   7.805   4.347 -1.0283  2.9415  0.4751
  755MOL0     H 1923  10.513   7.918   4.095  0.0167 -1.7237  2.3916
  755MOL0     H 1924  10.379   8.037   4.066  0.8841 -0.2014 -1.0373
  755MOL0     H 1925  10.445   7.990   4.225  2.2167  0.0901 -0.0247
  756MOL0     O 1926   6.065   9.921   9.340 -0.2375  0.4858  0.5202
  756MOL0     C 1927   6.173   9.895   9.391 -0.1556  0.8398  0.8580
  756MOL0     O 1928   6.279   9.981   9.393  0.6326  0.0464  0.8870
  756MOL0     C 1929   6.275  10.091   9.304  0.3594  0.1034  0.5093
  756MOL0     C 1930   6.312  10.071   9.167 -0.2900 -0.2905  0.4398
  756MOL0     C 1931   6.315  10.177   9.071  0.0143  0.0630 -0.6488
  756MOL0     C 1932   6.276  10.309   9.123 -0.1133  0.6700  0.2654
  756MOL0     O 1933   6.275  10.419   9.040 -0.5287 -0.4820  0.3608
  756MOL0     C 1934   6.334  10.394   8.910  0.2590  0.0889  0.1338
  756MOL0     C 1935   6.323  10.516   8.828  0.3688  0.3978 -0.2127
  756MOL0     C 1936   6.390  10.634   8.894 -0.1293  0.2846  0.2520
  756MOL0     C 1937   6.413  10.750   8.791  0.9165  0.3136  0.1768
  756MOL0     C 1938   6.281  10.818   8.733  0.5766 -0.4339  0.5991
  756MOL0     C 1939   6.206  10.880   8.851 -0.8188  0.3985 -0.9544
  756MOL0     C 1940   6.105  10.969   8.781  0.6040  0.6494 -0.7379
  756MOL0     C 1941   6.001  11.027   8.863  0.4073 -0.1307 -0.1838
  756MOL0     N 1942   5.870  11.069   8.807  0.6084  0.1543 -0.3779
  756MOL0     C 1943   5.743  11.017   8.821 -1.1232 -0.9519  0.0533
  756MOL0     C 1944   5.653  11.107   8.769 -0.2248 -0.6251  0.9085
  756MOL0     C 1945   5.506  11.074   8.753 -0.2703 -0.4680 -0.4450
  756MOL0     C 1946   5.471  10.977   8.631 -0.5634 -0.3656  0.2155
  756MOL0     C 1947   5.510  10.829   8.642 -0.3120  0.4123 -0.4207
  756MOL0     C 1948   5.464  10.743   8.524  0.6148  0.3744  0.0163
  756MOL0     O 1949   5.481  10.781   8.383 -0.0525  0.0923  0.2458
  756MOL0     C 1950   5.387  10.760   8.294 -0.0554 -0.1942 -1.1530
  756MOL0     C 1951   5.371  10.853   8.201 -0.4162 -0.0409  1.0345
  756MOL0     C 1952   5.283  10.824   8.094 -0.2539  0.1430 -0.6785
  756MOL0     C 1953   5.219  10.697   8.094 -0.2058 -0.2849  0.9009
  756MOL0     C 1954   5.134  10.669   7.978  0.3695 -0.3927  0.5175
  756MOL0     O 1955   5.122  10.773   7.882  0.4482 -0.7435 -0.7854
  756MOL0     C 1956   5.069  10.742   7.758  0.2032  0.4231 -0.3411
  756MOL0     C 1957   5.081  10.614   7.696  0.4594  0.0150 -0.2896
  756MOL0     C 1958   5.024  10.594   7.571  0.1763 -0.4034  0.7283
  756MOL0     C 1959   4.959  10.702   7.505  0.3558  0.2510  1.1487
  756MOL0     O 1960   4.909  10.688   7.374  0.9274 -0.0313 -0.2101
  756MOL0     C 1961   4.885  10.560   7.314  0.5545  0.6592  0.3179
  756MOL0     C 1962   4.871  10.571   7.164  1.3670  0.5626  0.0168
  756MOL0     C 1963   4.859  10.436   7.079 -0.1591  0.4750 -0.4865
  756MOL0     C 1964   4.798  10.465   6.946 -0.8513  0.3504  0.7180
  756MOL0     C 1965   4.767  10.338   6.863 -0.0045  0.3557  0.5318
  756MOL0     C 1966   4.623  10.297   6.888 -0.8178  0.3442  0.4058
  756MOL0     C 1967   4.541  10.382   6.790 -0.8554  0.3272 -0.0910
  756MOL0     C 1968   4.398  10.338   6.784 -0.2632 -0.2985 -0.3804
  756MOL0    Cl 1969   4.312  10.450   6.661  0.1170  0.2427  0.0581
  756MOL0     C 1970   4.955  10.824   7.553 -0.1128  0.4141 -0.6725
  756MOL0     C 1971   5.012  10.849   7.681  0.2190 -0.4834  0.1945
  756MOL0     O 1972   5.060  10.567   7.987 -1.0487 -0.4733  0.3763
  756MOL0     C 1973   5.245  10.598   8.191  0.6156  0.2749 -0.2917
  756MOL0     C 1974   5.331  10.629   8.287 -0.0758  0.0865  0.7660
  756MOL0     N 1975   5.729  11.210   8.720  0.2253 -0.2205 -0.0771
  756MOL0     N 1976   5.849  11.194   8.746 -0.4980  0.0401 -0.3674
  756MOL0     C 1977   6.249  10.321   9.259 -0.5467 -0.6726 -0.1540
  756MOL0     C 1978   6.240  10.216   9.345 -0.9591 -0.3247 -0.1921
  756MOL0     C 1979   6.187   9.765   9.461  0.1073  0.1904  0.3450
  756MOL0     C 1980   6.240   9.763   9.584 -0.3627 -0.0243 -0.0864
  756MOL0     C 1981   6.244   9.644   9.658 -0.3895 -0.1916 -1.1712
  756MOL0     C 1982   6.194   9.519   9.601 -0.3705 -0.2395 -0.8685
  756MOL0     O 1983   6.223   9.395   9.668  0.0376 -0.9496 -0.5771
  756MOL0     C 1984   6.206   9.267   9.609 -0.6979  0.4609  0.9767
  756MOL0     C 1985   6.264   9.164   9.707 -0.4434 -0.4991  0.6703
  756MOL0     C 1986   6.162   9.174   9.828 -0.1665 -0.6755 -0.8298
  756MOL0     C 1987   6.041   9.071   9.833 -0.5286 -0.4224  0.5575
  756MOL0     C 1988   6.076   8.945   9.900  0.0936  0.6283  0.0142
  756MOL0     C 1989   6.099   8.826   9.935 -0.3572  0.2666  0.3871
  756MOL0     C 1990   6.139   9.526   9.472  0.7268 -0.0574 -0.1144
  756MOL0     C 1991   6.137   9.646   9.406  0.4972 -0.3126 -0.4746
  756MOL0     C 1992   6.105   9.632   9.257  0.0089  0.3142  0.5818
  756MOL0     H 1993   6.353   9.975   9.138  1.5733  0.2285  1.2495
  756MOL0     H 1994   6.340  10.156   8.968 -2.2365 -2.0430 -0.8628
  756MOL0     H 1995   6.433  10.348   8.905  0.5941  0.7402  0.5617
  756MOL0     H 1996   6.272  10.320   8.858  2.6333 -0.0538 -2.7464
  756MOL0     H 1997   6.217  10.530   8.805 -0.5547  0.1985  3.3361
  756MOL0     H 1998   6.371  10.495   8.731  0.8327 -0.6868  0.2280
  756MOL0     H 1999   6.483  10.624   8.951 -1.1746  0.8854  2.1873
  756MOL0     H 2000   6.319  10.676   8.967 -0.7829  2.8895 -1.7724
  756MOL0     H 2001   6.471  10.824   8.847 -0.0828  2.1685 -1.1179
  756MOL0     H 2002   6.465  10.706   8.706  0.7898 -1.6469  1.0556
  756MOL0     H 2003   6.312  10.895   8.662  2.1858 -2.1838 -0.7069
  756MOL0     H 2004   6.210  10.750   8.684 -0.8492  1.0372  0.5331
  756MOL0     H 2005   6.163  10.813   8.925  0.7596  0.1578 -0.2055
  756MOL0     H 2006   6.278  10.947   8.899  1.5965 -1.6740 -1.4519
  756MOL0     H 2007   6.053  10.919   8.698  2.0823 -0.0818 -1.2595
  756MOL0     H 2008   6.152  11.053   8.730  1.3603  0.6710 -0.0228
  756MOL0     H 2009   5.992  10.959   8.948  1.5666 -2.3350 -1.7363
  756MOL0     H 2010   6.025  11.126   8.901 -1.7192  1.2572 -2.1286
  756MOL0     H 2011   5.725  10.923   8.873 -0.1752  0.4301  3.1746
  756MOL0     H 2012   5.471  11.021   8.842  1.9058 -3.0576 -0.9763
  756MOL0     H 2013   5.453  11.169   8.752 -0.8598 -0.7810  0.3181
  756MOL0     H 2014   5.365  10.990   8.607 -0.2182  3.1247  0.1307
  756MOL0     H 2015   5.524  11.006   8.540 -2.4895 -0.4675 -0.9894
  756MOL0     H 2016   5.488  10.783   8.739  0.4453 -0.7329 -0.7763
  756MOL0     H 2017   5.619  10.823   8.640 -0.2320  0.5282  1.6798
  756MOL0     H 2018   5.357  10.735   8.542  0.7449 -2.1367 -0.0078
  756MOL0     H 2019   5.497  10.639   8.536 -0.8387 -0.1643 -0.4327
  756MOL0     H 2020   5.413  10.954   8.198 -2.6739  0.9374 -0.6856
  756MOL0     H 2021   5.269  10.895   8.013 -1.6721 -1.4994 -1.9634
  756MOL0     H 2022   5.126  10.533   7.753 -1.3687 -1.6326 -1.0666
  756MOL0     H 2023   5.037  10.491   7.538  2.3404 -1.6987  4.8518
  756MOL0     H 2024   4.977  10.504   7.331 -0.0021  0.4792  3.1937
  756MOL0     H 2025   4.796  10.519   7.362  0.4619 -1.1439 -1.2478
  756MOL0     H 2026   4.786  10.636   7.141  1.9680  2.2937  2.3162
  756MOL0     H 2027   4.960  10.626   7.134  0.6161  0.4352 -2.7523
  756MOL0     H 2028   4.955  10.383   7.075  0.4713  1.4963  0.5144
  756MOL0     H 2029   4.782  10.366   7.112  0.3805  0.2661  0.3731
  756MOL0     H 2030   4.876  10.511   6.885 -0.1078 -2.3406 -0.4907
  756MOL0     H 2031   4.717  10.534   6.972 -0.2175  0.6063  2.1293
  756MOL0     H 2032   4.836  10.256   6.884  0.1018 -0.2845 -2.0896
  756MOL0     H 2033   4.798  10.355   6.760  2.6480 -0.7206  1.0543
  756MOL0     H 2034   4.623  10.190   6.865  0.3792  0.0191  1.7670
  756MOL0     H 2035   4.595  10.325   6.990  0.0177  2.1254  0.1841
  756MOL0     H 2036   4.587  10.371   6.691  0.7550 -2.3255  0.8401
  756MOL0     H 2037   4.539  10.486   6.824  0.9980  0.1921  0.5641
  756MOL0     H 2038   4.384  10.236   6.748 -0.4198  0.1564 -1.6684
  756MOL0     H 2039   4.360  10.344   6.886  1.8431 -1.0116  0.5057
  756MOL0     H 2040   4.921  10.900   7.483 -0.2444  1.8260  0.8554
  756MOL0     H 2041   5.014  10.947   7.727  1.7530 -1.1304  1.5971
  756MOL0     H 2042   5.210  10.496   8.197 -2.2885  1.2181  0.5551
  756MOL0     H 2043   5.355  10.553   8.361 -4.0374 -2.0126  0.1599
  756MOL0     H 2044   6.242  10.414   9.314  0.7560 -3.0240  4.5070
  756MOL0     H 2045   6.204  10.238   9.445  0.0844 -0.0174  0.1192
  756MOL0     H 2046   6.269   9.858   9.629  2.9003 -1.0358  0.2135
  756MOL0     H 2047   6.283   9.631   9.759  0.6038  1.6164 -1.2781
  756MOL0     H 2048   6.258   9.266   9.513 -2.3295 -0.8954  0.0788
  756MOL0     H 2049   6.100   9.242   9.599  0.0770 -2.4404 -1.3260
  756MOL0     H 2050   6.368   9.191   9.726 -0.2365 -0.8469  0.0479
  756MOL0     H 2051   6.258   9.067   9.655 -2.0885  0.6647 -1.4864
  756MOL0     H 2052   6.139   9.278   9.850  0.2553 -1.3172  3.4193
  756MOL0     H 2053   6.223   9.146   9.915  1.7440 -0.2281 -1.9554
  756MOL0     H 2054   5.953   9.113   9.883 -1.3806  0.0919 -1.2538
  756MOL0     H 2055   6.010   9.058   9.729  2.9696 -0.3564 -0.6396
  756MOL0     H 2056   6.135   8.732   9.972 -1.7703 -0.8999 -1.0557
  756MOL0     H 2057   6.078   9.442   9.440  2.2394 -2.0020  1.7931
  756MOL0     H 2058   6.092   9.525   9.237  0.2708  0.2410  0.7901
  756MOL0     H 2059   6.006   9.671   9.236 -0.3616 -1.4114 -1.1282
  756MOL0     H 2060   6.196   9.669   9.208  1.1406 -0.4890  1.9998
  757MOL0     O 2061   7.679  10.622   3.144  0.2207 -0.5956 -1.0683
  757MOL0     C 2062   7.659  10.501   3.174 -0.6938  0.9852  0.4530
  757MOL0     O 2063   7.747  10.400   3.162  0.3535  0.3957 -0.3126
  757MOL0     C 2064   7.873  10.421   3.107  0.2346  0.4676  0.7154
  757MOL0     C 2065   7.985  10.461   3.176 -0.6506 -0.3259  0.7273
  757MOL0     C 2066   8.111  10.473   3.119  1.3785 -0.2123  0.5210
  757MOL0     C 2067   8.122  10.451   2.976 -0.7148  1.2865 -0.2362
  757MOL0     O 2068   8.250  10.464   2.931  0.3339  0.4661  0.5650
  757MOL0     C 2069   8.246  10.510   2.789 -0.5383 -0.0519  0.2133
  757MOL0     C 2070   8.388  10.555   2.753 -0.3456  1.6331  0.3599
  757MOL0     C 2071   8.445  10.678   2.820 -0.8357 -0.6654  0.2361
  757MOL0     C 2072   8.439  10.806   2.736 -0.4981  0.6844  0.4126
  757MOL0     C 2073   8.489  10.928   2.811 -0.6042 -0.6129 -0.2027
  757MOL0     C 2074   8.457  11.066   2.736  0.5093  0.6645 -0.8185
  757MOL0     C 2075   8.522  11.056   2.604 -0.6641 -0.9775  0.3344
  757MOL0     C 2076   8.515  11.187   2.513  0.1688 -0.4979 -0.4065
  757MOL0     N 2077   8.632  11.188   2.433 -0.4220 -0.5308 -0.2535
  757MOL0     C 2078   8.763  11.211   2.463 -0.4708 -0.4894 -0.3781
  757MOL0     C 2079   8.826  11.191   2.347 -0.1142 -0.9742 -0.3078
  757MOL0     C 2080   8.974  11.210   2.331  0.6600 -0.6698  0.2470
  757MOL0     C 2081   9.057  11.109   2.420  0.0841 -0.5882  0.6921
  757MOL0     C 2082   9.204  11.133   2.391 -0.5728 -0.3383 -0.8064
  757MOL0     C 2083   9.301  11.029   2.437  0.2130 -0.1334  0.4722
  757MOL0     O 2084   9.283  10.986   2.573  1.0397  0.2103  0.4141
  757MOL0     C 2085   9.354  11.051   2.665 -0.1150 -0.1807  0.7496
  757MOL0     C 2086   9.332  11.173   2.723 -0.0628  0.1710 -0.5646
  757MOL0     C 2087   9.417  11.228   2.830 -0.3474 -0.4769  0.2499
  757MOL0     C 2088   9.532  11.159   2.860 -0.9759 -0.1906  0.3892
  757MOL0     C 2089   9.629  11.210   2.956 -0.5185 -0.9683  0.4351
  757MOL0     O 2090   9.613  11.339   3.008  0.5067  0.9241  0.7659
  757MOL0     C 2091   9.713  11.383   3.094  0.5942 -0.6759 -0.6189
  757MOL0     C 2092   9.827  11.443   3.040 -0.6583  0.7168 -0.1480
  757MOL0     C 2093   9.930  11.482   3.131  0.0668  0.6035 -0.2621
  757MOL0     C 2094   9.915  11.466   3.266 -0.2976  0.1848  0.0365
  757MOL0     O 2095  10.006  11.498   3.365 -0.5341  0.3654 -0.5273
  757MOL0     C 2096  10.118  11.577   3.327  0.4916 -0.0117  0.6555
  757MOL0     C 2097  10.193  11.611   3.452  0.5225 -0.1985  0.2270
  757MOL0     C 2098  10.319  11.694   3.407  0.1731  0.7228  0.6882
  757MOL0     C 2099  10.398  11.754   3.523  0.0722 -0.7385  1.0096
  757MOL0     C 2100  10.532  11.807   3.480 -0.6264 -0.1862 -0.0852
  757MOL0     C 2101  10.528  11.936   3.398 -0.5474  0.0087  0.2463
  757MOL0     C 2102  10.657  11.947   3.316 -0.7675  0.8355 -0.5965
  757MOL0     C 2103  10.729  12.073   3.293  0.5780  0.6342 -0.2412
  757MOL0    Cl 2104  10.819  12.114   3.439  0.4233  0.0602  0.0902
  757MOL0     C 2105   9.802  11.400   3.310  0.2985  0.0701 -0.3454
  757MOL0     C 2106   9.693  11.368   3.228  0.0660 -0.1927  0.5468
  757MOL0     O 2107   9.716  11.131   2.988 -0.0544  0.6946  0.8196
  757MOL0     C 2108   9.558  11.032   2.795  0.2319 -0.7242 -1.0361
  757MOL0     C 2109   9.467  10.978   2.705 -0.5818  1.0120 -0.2629
  757MOL0     N 2110   8.738  11.133   2.250 -0.7812  0.5343 -0.4769
  757MOL0     N 2111   8.623  11.138   2.308 -0.1917 -0.1086 -0.1639
  757MOL0     C 2112   8.008  10.410   2.903  0.0183  0.1601  0.2487
  757MOL0     C 2113   7.884  10.397   2.970 -0.5114  0.5452  0.5143
  757MOL0     C 2114   7.518  10.455   3.171 -1.3805  0.2854  0.3071
  757MOL0     C 2115   7.501  10.318   3.164 -0.4759 -0.6307 -0.4964
  757MOL0     C 2116   7.375  10.259   3.148  0.9379 -0.2800  0.0668
  757MOL0     C 2117   7.263  10.338   3.167 -0.3222  1.0518  0.6750
  757MOL0     O 2118   7.137  10.292   3.155 -0.2064 -0.2088 -0.4880
  757MOL0     C 2119   7.123  10.158   3.120 -0.3292  0.6051 -0.4739
  757MOL0     C 2120   6.978  10.113   3.118 -0.1010 -0.2399  0.6658
  757MOL0     C 2121   6.893  10.196   3.020  0.2582 -0.0602 -0.8630
  757MOL0     C 2122   6.748  10.172   3.060 -0.3061  0.5495  0.8574
  757MOL0     C 2123   6.707  10.231   3.191 -0.2373 -0.1275 -0.3529
  757MOL0     C 2124   6.653  10.263   3.291 -1.0007 -0.6544 -0.0733
  757MOL0     C 2125   7.280  10.471   3.187  0.4344 -0.0285 -1.1192
  757MOL0     C 2126   7.403  10.541   3.183  0.0795 -0.7566  0.1146
  757MOL0     C 2127   7.403  10.693   3.187 -0.8703  0.3642 -0.4464
  757MOL0     H 2128   7.974  10.488   3.281 -2.7124  2.3536 -0.0787
  757MOL0     H 2129   8.192  10.516   3.177  0.5594  2.4704 -0.1869
  757MOL0     H 2130   8.222  10.422   2.729 -0.5553  0.1940 -0.1482
  757MOL0     H 2131   8.174  10.590   2.770  0.7823  0.6689 -2.3043
  757MOL0     H 2132   8.397  10.576   2.646  4.0247 -2.1204 -0.3225
  757MOL0     H 2133   8.443  10.463   2.774 -2.8527 -0.0902 -0.2066
  757MOL0     H 2134   8.550  10.647   2.824 -0.2142  1.1746 -0.5727
  757MOL0     H 2135   8.408  10.687   2.922 -0.8711 -3.5375  0.5489
  757MOL0     H 2136   8.501  10.787   2.648  0.1985  0.2733  0.9755
  757MOL0     H 2137   8.334  10.829   2.713 -1.7107 -2.0850  2.6159
  757MOL0     H 2138   8.455  10.925   2.915 -1.1914 -1.2327 -0.4025
  757MOL0     H 2139   8.598  10.927   2.804 -0.6556 -0.7408 -1.1158
  757MOL0     H 2140   8.349  11.077   2.733  0.3077 -0.5431  0.4322
  757MOL0     H 2141   8.505  11.148   2.790  2.5378 -0.0210 -1.4604
  757MOL0     H 2142   8.473  10.977   2.547  0.7254 -0.9428 -0.9680
  757MOL0     H 2143   8.625  11.024   2.622 -1.1537 -2.0309  1.4115
  757MOL0     H 2144   8.439  11.177   2.435  0.8978 -1.7676 -1.0003
  757MOL0     H 2145   8.495  11.274   2.576 -0.4933 -0.3668 -0.7842
  757MOL0     H 2146   8.795  11.255   2.557  0.0504 -1.7927  0.0705
  757MOL0     H 2147   8.991  11.191   2.225  1.4561 -0.5370  0.3462
  757MOL0     H 2148   9.010  11.313   2.340 -2.1378  0.2261  3.0441
  757MOL0     H 2149   9.044  11.126   2.527 -1.7754 -2.2918  0.8114
  757MOL0     H 2150   9.025  11.007   2.396  1.5238 -0.4435 -2.3098
  757MOL0     H 2151   9.232  11.225   2.444  0.4348 -1.8204  1.3309
  757MOL0     H 2152   9.228  11.151   2.286 -0.6881 -0.8807 -0.9292
  757MOL0     H 2153   9.402  11.067   2.422  0.5132 -0.4990  1.5015
  757MOL0     H 2154   9.285  10.945   2.368  0.4170  1.2594 -1.3192
  757MOL0     H 2155   9.243  11.234   2.708 -0.8741 -1.2533 -1.8583
  757MOL0     H 2156   9.398  11.325   2.875  3.3120 -0.4812  2.1476
  757MOL0     H 2157   9.853  11.444   2.935 -0.3656 -1.8000 -0.1423
  757MOL0     H 2158  10.024  11.520   3.093  1.8092 -2.2247  0.8229
  757MOL0     H 2159  10.189  11.519   3.267 -1.0752 -2.4527  1.0023
  757MOL0     H 2160  10.082  11.659   3.265  0.9351 -0.7577 -0.6255
  757MOL0     H 2161  10.131  11.673   3.516 -0.6906 -0.0389 -1.0492
  757MOL0     H 2162  10.231  11.527   3.511  0.9572  0.5299  0.9995
  757MOL0     H 2163  10.382  11.623   3.351  1.2334  0.8931  1.6275
  757MOL0     H 2164  10.294  11.763   3.326  1.5601  0.2841 -0.1429
  757MOL0     H 2165  10.432  11.681   3.596 -1.0474 -0.6334  1.6557
  757MOL0     H 2166  10.340  11.836   3.568 -0.8795 -0.1279 -1.1916
  757MOL0     H 2167  10.594  11.739   3.421  2.5899  1.3297  1.2605
  757MOL0     H 2168  10.590  11.819   3.573 -2.1243  0.8253  0.7646
  757MOL0     H 2169  10.445  11.936   3.327 -2.0769  2.3325  1.9012
  757MOL0     H 2170  10.509  12.021   3.464  2.5551  0.6267  0.5280
  757MOL0     H 2171  10.635  11.913   3.215 -0.5832 -2.6435  0.4034
  757MOL0     H 2172  10.726  11.884   3.373 -0.9864  2.2587  1.3527
  757MOL0     H 2173  10.796  12.066   3.207  1.9390  3.1076  0.5304
  757MOL0     H 2174  10.658  12.152   3.268  0.0411 -0.7582 -3.7035
  757MOL0     H 2175   9.778  11.387   3.415 -1.0672  2.2308 -0.3316
  757MOL0     H 2176   9.605  11.313   3.260 -0.1578 -2.2869 -3.0924
  757MOL0     H 2177   9.637  10.969   2.834 -0.6673 -0.2567  1.7724
  757MOL0     H 2178   9.487  10.879   2.666  2.2370  0.9498  1.1613
  757MOL0     H 2179   8.009  10.390   2.796 -0.6867 -0.3433  0.3310
  757MOL0     H 2180   7.802  10.370   2.905  1.5562  1.4987 -2.7272
  757MOL0     H 2181   7.576  10.245   3.136  0.7853  1.2198 -2.1964
  757MOL0     H 2182   7.378  10.156   3.113 -1.9070  0.8490 -4.3249
  757MOL0     H 2183   7.179  10.097   3.192  1.2694  0.6073 -1.6348
  757MOL0     H 2184   7.174  10.131   3.027  0.5348 -4.6309  1.1667
  757MOL0     H 2185   6.936  10.131   3.218 -1.2416  3.6835 -0.3494
  757MOL0     H 2186   6.983  10.012   3.078 -4.5944  0.0374 -1.1733
  757MOL0     H 2187   6.931  10.168   2.921  2.2774  5.3778 -1.9679
  757MOL0     H 2188   6.920  10.302   3.030  2.1880 -0.4528 -1.3938
  757MOL0     H 2189   6.694  10.218   2.978  1.2757  0.8598 -0.0417
  757MOL0     H 2190   6.736  10.063   3.054  0.3261  0.5768 -1.8816
  757MOL0     H 2191   6.600  10.285   3.382 -0.8902 -0.3799 -0.0772
  757MOL0     H 2192   7.194  10.529   3.220  2.8136  0.9320  4.5873
  757MOL0     H 2193   7.480  10.726   3.116 -0.9945  1.0802 -0.2602
  757MOL0     H 2194   7.305  10.724   3.151 -0.9636 -0.3684 -0.8318
  757MOL0     H 2195   7.434  10.735   3.284  0.7118 -0.7812 -0.4115
  758MOL0     O 2196   2.247   9.839   3.798 -0.4210  0.1970 -0.3843
  758MOL0     C 2197   2.340   9.800   3.868  0.4593 -0.0926  0.2198
  758MOL0     O 2198   2.331   9.718   3.979 -0.7148 -0.1142  0.3143
  758MOL0     C 2199   2.208   9.665   3.996 -0.4353  0.3048  0.2867
  758MOL0     C 2200   2.204   9.525   3.988 -0.5611  0.2131 -0.5019
  758MOL0     C 2201   2.090   9.457   4.022 -0.5863  0.1255 -0.5858
  758MOL0     C 2202   1.976   9.519   4.067 -0.9377  1.2035  0.8642
  758MOL0     O 2203   1.871   9.435   4.101  0.7356 -1.1562  0.3165
  758MOL0     C 2204   1.747   9.501   4.134  0.1916 -1.0478  0.9770
  758MOL0     C 2205   1.634   9.412   4.161  0.3013  0.1038 -0.2153
  758MOL0     C 2206   1.627   9.308   4.044  0.9914  1.1503  0.4058
  758MOL0     C 2207   1.490   9.236   4.043 -0.8018 -0.1402  0.5121
  758MOL0     C 2208   1.473   9.112   3.955  0.6825 -0.0995 -1.3558
  758MOL0     C 2209   1.480   9.147   3.804 -0.4087  0.6815 -0.6546
  758MOL0     C 2210   1.464   9.026   3.725  0.2837 -0.8625  1.3980
  758MOL0     C 2211   1.515   9.020   3.580  0.9515  0.6458  0.4110
  758MOL0     N 2212   1.502   9.136   3.492  0.5091 -0.2242 -0.3944
  758MOL0     C 2213   1.394   9.200   3.434  0.3769  0.1557  0.2678
  758MOL0     C 2214   1.441   9.273   3.331  0.2267 -0.1588 -0.1853
  758MOL0     C 2215   1.351   9.357   3.240 -0.0067  0.6191 -0.1140
  758MOL0     C 2216   1.287   9.271   3.124 -0.2206  0.2959 -0.1177
  758MOL0     C 2217   1.384   9.268   3.007 -0.4536 -0.8861 -0.0052
  758MOL0     C 2218   1.403   9.405   2.940 -0.3390 -0.1274 -0.1992
  758MOL0     O 2219   1.485   9.395   2.825 -0.0530  1.3012 -0.0514
  758MOL0     C 2220   1.482   9.496   2.731  0.4220  0.1420 -0.5395
  758MOL0     C 2221   1.404   9.617   2.735  0.6454  0.2612  0.2064
  758MOL0     C 2222   1.408   9.710   2.635 -0.0737  0.5824  0.5168
  758MOL0     C 2223   1.496   9.693   2.525  0.3040 -0.8800 -0.1105
  758MOL0     C 2224   1.532   9.811   2.443 -0.6490  0.3941 -0.5934
  758MOL0     O 2225   1.671   9.821   2.445 -0.5074 -0.2804 -0.5294
  758MOL0     C 2226   1.739   9.918   2.372  0.6874  0.0535 -0.4601
  758MOL0     C 2227   1.875   9.917   2.417  0.1725  0.5145  0.4321
  758MOL0     C 2228   1.965   9.997   2.345  0.8385 -0.5876  0.7249
  758MOL0     C 2229   1.931  10.069   2.230  0.2717 -0.8137 -0.1043
  758MOL0     O 2230   2.023  10.157   2.175  0.3063 -0.0929 -0.4179
  758MOL0     C 2231   2.143  10.084   2.159 -0.5192 -0.4739 -0.7786
  758MOL0     C 2232   2.237  10.157   2.065 -0.5780 -0.2867 -0.5030
  758MOL0     C 2233   2.296  10.280   2.131 -0.5956 -0.4863 -0.1193
  758MOL0     C 2234   2.370  10.375   2.025  0.2085 -0.0586 -0.5618
  758MOL0     C 2235   2.465  10.466   2.110  0.3063  0.1337  0.1270
  758MOL0     C 2236   2.597  10.409   2.143  0.3530  0.3639 -0.6155
  758MOL0     C 2237   2.699  10.379   2.037  0.3741 -0.4895  0.3738
  758MOL0     C 2238   2.834  10.313   2.076  0.7007 -0.6915 -0.2135
  758MOL0    Cl 2239   2.899  10.402   2.217 -0.3005  0.2832 -0.2006
  758MOL0     C 2240   1.798  10.062   2.189 -0.2024 -0.6238  0.2241
  758MOL0     C 2241   1.697   9.993   2.259 -0.0537 -0.1577 -0.3145
  758MOL0     O 2242   1.444   9.889   2.395 -0.2790  0.3709 -0.3696
  758MOL0     C 2243   1.570   9.580   2.513 -1.2525 -0.4854  0.3977
  758MOL0     C 2244   1.554   9.473   2.612  0.5677 -0.2322  0.1377
  758MOL0     N 2245   1.579   9.269   3.327 -0.1505  1.2887 -1.0141
  758MOL0     N 2246   1.611   9.189   3.432 -0.3157  0.2681 -0.7080
  758MOL0     C 2247   1.975   9.659   4.070  0.8491  0.0172 -0.4488
  758MOL0     C 2248   2.092   9.728   4.034  0.6507  0.4067 -0.1260
  758MOL0     C 2249   2.479   9.836   3.818  0.6253  0.1375  0.2283
  758MOL0     C 2250   2.563   9.916   3.904  0.4767 -0.1377  1.3787
  758MOL0     C 2251   2.687   9.982   3.863 -0.5906 -0.4094  0.4587
  758MOL0     C 2252   2.730   9.950   3.732 -0.2788 -1.2538 -0.0616
  758MOL0     O 2253   2.850  10.004   3.688  0.1938 -0.4083  0.1763
  758MOL0     C 2254   2.934  10.087   3.771  0.2017  0.2600  0.0287
  758MOL0     C 2255   3.050  10.150   3.692  0.1294  0.3328  0.3497
  758MOL0     C 2256   3.019  10.192   3.545  0.5252 -0.6176  0.2603
  758MOL0     C 2257   3.125  10.300   3.496  0.2707 -0.2555 -0.4856
  758MOL0     C 2258   3.264  10.254   3.472  0.6192  0.0574  0.0930
  758MOL0     C 2259   3.375  10.219   3.453  0.3323 -1.0221  0.6105
  758MOL0     C 2260   2.657   9.872   3.644  0.0667  0.6601  0.4800
  758MOL0     C 2261   2.530   9.817   3.682  1.3526 -0.4261 -0.3620
  758MOL0     C 2262   2.447   9.754   3.584 -0.1722  0.5703 -0.1030
  758MOL0     H 2263   2.287   9.463   3.955  1.6735  2.2666  0.9023
  758MOL0     H 2264   2.110   9.350   4.028  2.3068  0.5971 -0.1619
  758MOL0     H 2265   1.756   9.566   4.222  1.0613  0.2094 -0.0010
  758MOL0     H 2266   1.721   9.568   4.052  2.3336  0.1626  1.2355
  758MOL0     H 2267   1.543   9.470   4.181  0.1460 -0.5027  0.9427
  758MOL0     H 2268   1.641   9.365   4.259 -0.7484  1.0159  0.3179
  758MOL0     H 2269   1.699   9.226   4.053 -0.8756 -0.7670 -0.8445
  758MOL0     H 2270   1.644   9.351   3.945 -0.5432  1.5599  0.2785
  758MOL0     H 2271   1.469   9.206   4.146 -2.1617  3.8356  1.5555
  758MOL0     H 2272   1.421   9.311   4.003  0.8831 -0.0418 -2.5603
  758MOL0     H 2273   1.547   9.039   3.987  0.2183 -0.2765 -0.6565
  758MOL0     H 2274   1.371   9.075   3.970  1.0242 -0.4663  0.2136
  758MOL0     H 2275   1.406   9.223   3.775  0.7282  2.3880  0.7067
  758MOL0     H 2276   1.580   9.187   3.786  0.0547  0.1249  0.5871
  758MOL0     H 2277   1.356   9.010   3.721 -0.1216  1.5245 -1.7423
  758MOL0     H 2278   1.497   8.936   3.778 -3.4292 -1.2188  3.4425
  758MOL0     H 2279   1.619   8.988   3.585  1.2038  0.8075 -2.2443
  758MOL0     H 2280   1.460   8.939   3.530 -1.2940  1.8616  0.7748
  758MOL0     H 2281   1.290   9.179   3.456  0.2951  0.7728  0.4944
  758MOL0     H 2282   1.272   9.403   3.300  0.1807 -1.0294  1.5139
  758MOL0     H 2283   1.403   9.444   3.201 -0.5641  1.0999  0.2014
  758MOL0     H 2284   1.278   9.170   3.167  0.5181  0.0855 -0.4415
  758MOL0     H 2285   1.189   9.304   3.091 -0.4820 -2.3375 -2.3709
  758MOL0     H 2286   1.344   9.196   2.936  1.4284 -0.1848 -1.8723
  758MOL0     H 2287   1.485   9.242   3.043  0.2245  2.3424  0.7408
  758MOL0     H 2288   1.445   9.473   3.015 -1.1565 -0.8531  0.9513
  758MOL0     H 2289   1.301   9.436   2.919 -1.1631  0.1942  3.6633
  758MOL0     H 2290   1.330   9.646   2.809 -1.2661  0.6777 -1.7324
  758MOL0     H 2291   1.343   9.797   2.639  4.3382  4.6439 -3.0535
  758MOL0     H 2292   1.905   9.866   2.508 -1.4867 -2.4921 -0.5722
  758MOL0     H 2293   2.064   9.999   2.389  2.0571  1.4533 -1.8706
  758MOL0     H 2294   2.201  10.067   2.251  0.9186 -0.2779 -1.6163
  758MOL0     H 2295   2.134   9.980   2.127 -0.7152 -1.0703  1.0900
  758MOL0     H 2296   2.315  10.089   2.029  1.6424  1.2450  1.1365
  758MOL0     H 2297   2.193  10.196   1.974  0.9590  1.3601 -0.5877
  758MOL0     H 2298   2.216  10.330   2.186 -1.2777 -0.6084 -0.9767
  758MOL0     H 2299   2.376  10.247   2.199 -3.1358 -0.4157  3.1741
  758MOL0     H 2300   2.289  10.435   1.981  0.4507 -0.1223 -1.0991
  758MOL0     H 2301   2.417  10.315   1.947 -0.9368  0.9825 -2.1230
  758MOL0     H 2302   2.418  10.501   2.203 -1.0388  2.2807 -1.2764
  758MOL0     H 2303   2.498  10.550   2.050  2.7047 -1.3966 -0.8656
  758MOL0     H 2304   2.640  10.485   2.208 -1.9415 -0.6446  2.3335
  758MOL0     H 2305   2.602  10.308   2.187  1.4579 -0.1023 -1.7613
  758MOL0     H 2306   2.718  10.478   1.995 -0.4078 -0.0826  0.9335
  758MOL0     H 2307   2.656  10.315   1.960  4.7557 -0.5772 -2.3146
  758MOL0     H 2308   2.817  10.207   2.096  1.8226 -1.3411 -2.3044
  758MOL0     H 2309   2.902  10.316   1.990 -0.1363  0.6375 -0.8528
  758MOL0     H 2310   1.774  10.115   2.097 -0.9536 -1.4745 -0.0924
  758MOL0     H 2311   1.592   9.987   2.233  0.0313 -1.5165 -0.4074
  758MOL0     H 2312   1.623   9.555   2.422  1.0193 -1.0316  1.7790
  758MOL0     H 2313   1.613   9.382   2.609  0.1662 -0.4694 -1.3812
  758MOL0     H 2314   1.889   9.719   4.100 -0.8939 -3.3143  1.7714
  758MOL0     H 2315   2.098   9.835   4.052  0.4144  0.1556  1.5567
  758MOL0     H 2316   2.521   9.945   4.000 -0.1735  1.8349  0.5490
  758MOL0     H 2317   2.747  10.047   3.926  2.6577  0.0990 -2.8264
  758MOL0     H 2318   2.976  10.028   3.854  1.1356  1.6297  0.5711
  758MOL0     H 2319   2.876  10.167   3.818 -0.1386 -1.4477  2.8137
  758MOL0     H 2320   3.130  10.076   3.685 -1.5152 -1.5157  0.1586
  758MOL0     H 2321   3.094  10.236   3.743  2.5302 -0.9044  0.4720
  758MOL0     H 2322   2.919  10.235   3.540 -0.3489 -2.4406  1.0154
  758MOL0     H 2323   3.028  10.100   3.487  1.9579 -0.0221 -0.5300
  758MOL0     H 2324   3.080  10.339   3.404 -1.4954  1.8628  1.1419
  758MOL0     H 2325   3.122  10.389   3.560 -1.4472 -0.2351 -0.5301
  758MOL0     H 2326   3.477  10.196   3.430  1.0367  1.6053  0.7108
  758MOL0     H 2327   2.698   9.854   3.546  1.8511 -1.0657  1.4636
  758MOL0     H 2328   2.375   9.684   3.628  0.4969  0.1664  0.3823
  758MOL0     H 2329   2.402   9.832   3.523  1.4369  1.0539 -0.7200
  758MOL0     H 2330   2.510   9.696   3.516  0.6621  1.5097 -0.1635
  759MOL0     O 2331   5.310   6.892   8.371 -0.7087  0.1221 -0.4446
  759MOL0     C 2332   5.208   6.908   8.316 -0.1665 -0.5332 -0.6247
  759MOL0     O 2333   5.118   7.006   8.352  0.0932 -0.2411 -0.2185
  759MOL0     C 2334   5.144   7.082   8.464 -0.2594  0.8204  0.0185
  759MOL0     C 2335   5.069   7.049   8.577 -0.7078  0.1948  0.3877
  759MOL0     C 2336   5.081   7.131   8.696  0.5732  0.8189 -1.3406
  759MOL0     C 2337   5.187   7.225   8.710 -0.3465  0.6901 -0.3294
  759MOL0     O 2338   5.215   7.307   8.817 -1.0450 -0.0201 -0.1220
  759MOL0     C 2339   5.110   7.371   8.888  0.6457 -0.1474 -0.3968
  759MOL0     C 2340   5.146   7.489   8.980 -0.1131 -0.2860  0.3128
  759MOL0     C 2341   5.268   7.458   9.067 -0.0626 -0.3248  0.0033
  759MOL0     C 2342   5.231   7.346   9.160  0.2939 -0.8266 -0.9725
  759MOL0     C 2343   5.342   7.311   9.254 -0.5716  0.1489  0.2750
  759MOL0     C 2344   5.323   7.166   9.312 -0.0615  0.4465  0.3234
  759MOL0     C 2345   5.382   7.061   9.202 -0.6129  0.4248  0.2886
  759MOL0     C 2346   5.360   6.911   9.235 -0.2770  0.0311  0.0009
  759MOL0     N 2347   5.372   6.869   9.373 -0.2896  0.6360  0.2280
  759MOL0     C 2348   5.479   6.917   9.453  0.2938 -0.2018  0.4553
  759MOL0     C 2349   5.447   6.875   9.575 -0.8733 -1.3143 -0.0334
  759MOL0     C 2350   5.543   6.902   9.690 -0.2928 -0.4928 -0.6470
  759MOL0     C 2351   5.568   6.759   9.748 -0.7294  0.3521  0.0404
  759MOL0     C 2352   5.473   6.718   9.860  0.5232 -0.5251 -1.2686
  759MOL0     C 2353   5.537   6.594   9.933  0.6829  0.5110  0.4602
  759MOL0     O 2354   5.660   6.624   9.996  0.2877 -0.0045 -0.6088
  759MOL0     C 2355   5.670   6.714  10.097 -0.5697  1.7431  0.1218
  759MOL0     C 2356   5.560   6.747  10.177  0.1315  0.5315 -0.8978
  759MOL0     C 2357   5.577   6.827  10.286  0.5300 -0.1894  0.0719
  759MOL0     C 2358   5.701   6.881  10.314  0.5361 -0.2201 -0.9564
  759MOL0     C 2359   5.720   6.965  10.436 -0.6278  1.1090 -0.3749
  759MOL0     O 2360   5.842   7.011  10.463  0.3288  0.3383 -0.2078
  759MOL0     C 2361   5.846   7.117  10.546  0.0580 -0.5746 -0.0870
  759MOL0     C 2362   5.797   7.251  10.508 -0.2196  0.8961  0.5552
  759MOL0     C 2363   5.820   7.360  10.597 -0.2905  0.1000 -1.1800
  759MOL0     C 2364   5.879   7.334  10.721 -0.6358 -0.1880 -1.6425
  759MOL0     O 2365   5.888   7.447  10.806 -0.1590 -0.2428 -0.1577
  759MOL0     C 2366   5.922   7.440  10.946 -0.0303 -0.0764  0.5924
  759MOL0     C 2367   5.920   7.573  11.019  0.1713  0.2100 -0.3964
  759MOL0     C 2368   5.778   7.629  11.015  0.9711 -0.3046 -0.0424
  759MOL0     C 2369   5.671   7.545  11.089 -0.2298  0.0371  0.4764
  759MOL0     C 2370   5.531   7.611  11.095 -0.8546 -0.3268 -0.6847
  759MOL0     C 2371   5.439   7.504  11.139 -0.5599 -0.7121 -0.8070
  759MOL0     C 2372   5.300   7.554  11.165  0.3758 -0.2632  0.1412
  759MOL0     C 2373   5.278   7.623  11.300  0.5490 -0.1847 -0.7521
  759MOL0    Cl 2374   5.329   7.520  11.435 -0.2625  0.0189 -0.7640
  759MOL0     C 2375   5.921   7.211  10.761  0.9299  0.8874  0.0615
  759MOL0     C 2376   5.896   7.102  10.675 -0.5130 -0.7589  0.3590
  759MOL0     O 2377   5.618   6.991  10.498  0.1807  0.0420 -0.0159
  759MOL0     C 2378   5.819   6.851  10.228  0.7949  0.5304 -0.8003
  759MOL0     C 2379   5.795   6.760  10.129  0.0953 -0.8237  0.4131
  759MOL0     N 2380   5.342   6.804   9.569  0.0543  0.9071  0.2604
  759MOL0     N 2381   5.284   6.798   9.450 -0.4583  0.2060  0.3273
  759MOL0     C 2382   5.269   7.242   8.601 -0.8529 -0.5172  0.5613
  759MOL0     C 2383   5.249   7.173   8.476 -0.6688  0.9462 -0.3879
  759MOL0     C 2384   5.172   6.822   8.199 -0.6912  0.3571 -0.0221
  759MOL0     C 2385   5.058   6.861   8.122 -0.9393 -0.9844  0.4764
  759MOL0     C 2386   5.023   6.791   8.007 -0.0073 -0.0127 -0.2317
  759MOL0     C 2387   5.099   6.682   7.962  0.3907 -0.3265  0.2139
  759MOL0     O 2388   5.069   6.595   7.865  0.0734 -0.3357  0.1698
  759MOL0     C 2389   4.982   6.657   7.760  0.4329 -0.0396  0.1619
  759MOL0     C 2390   4.981   6.559   7.652 -0.5216  0.5478 -0.7454
  759MOL0     C 2391   5.117   6.502   7.588 -0.8001  0.7645 -0.0670
  759MOL0     C 2392   5.091   6.381   7.496 -0.2288 -0.6702  0.4390
  759MOL0     C 2393   5.016   6.433   7.376  0.0108 -0.3685  0.5379
  759MOL0     C 2394   4.952   6.473   7.280  0.3747 -0.1674 -1.5297
  759MOL0     C 2395   5.207   6.646   8.034 -0.4757  0.7472 -0.2718
  759MOL0     C 2396   5.251   6.715   8.155  0.0178  0.6233  0.3795
  759MOL0     C 2397   5.368   6.651   8.224  0.5263  0.0818  0.5241
  759MOL0     H 2398   4.990   6.976   8.561  0.1158 -0.2100 -2.1056
  759MOL0     H 2399   5.024   7.123   8.787  0.9468  0.8384 -1.1013
  759MOL0     H 2400   5.031   7.418   8.828  2.8732  1.4422 -2.2599
  759MOL0     H 2401   5.063   7.291   8.946  3.4662 -4.1841 -3.1534
  759MOL0     H 2402   5.055   7.518   9.033  0.1835 -0.4941  0.9381
  759MOL0     H 2403   5.176   7.573   8.916  1.0216 -1.1413 -0.3036
  759MOL0     H 2404   5.282   7.545   9.131 -0.2852 -0.4501  0.2227
  759MOL0     H 2405   5.362   7.439   9.015 -0.6498 -0.6943 -0.9658
  759MOL0     H 2406   5.136   7.368   9.209  0.0697 -2.6421 -0.5175
  759MOL0     H 2407   5.214   7.254   9.103 -0.2547 -1.8467  0.7620
  759MOL0     H 2408   5.438   7.318   9.203 -0.4800  0.5984  0.4973
  759MOL0     H 2409   5.342   7.372   9.345 -2.1253  0.0830  0.3491
  759MOL0     H 2410   5.382   7.155   9.403  2.6227 -0.9423 -1.4370
  759MOL0     H 2411   5.216   7.144   9.321  0.3917 -2.4038 -0.4624
  759MOL0     H 2412   5.489   7.079   9.196 -0.2451 -1.1772  1.3326
  759MOL0     H 2413   5.343   7.092   9.105 -1.0330  5.0352  1.6897
  759MOL0     H 2414   5.259   6.878   9.206 -0.8099 -2.5757  4.0136
  759MOL0     H 2415   5.429   6.844   9.183  0.1047  0.2163  0.2695
  759MOL0     H 2416   5.571   6.964   9.419 -0.2476  1.2440  0.8918
  759MOL0     H 2417   5.631   6.955   9.654  1.4065 -2.2692  0.7043
  759MOL0     H 2418   5.498   6.958   9.772 -0.3189 -3.2498  1.3716
  759MOL0     H 2419   5.556   6.682   9.671 -0.7981 -1.5750  1.9009
  759MOL0     H 2420   5.670   6.751   9.787  0.5272  1.4887 -2.7161
  759MOL0     H 2421   5.378   6.677   9.822  0.0575 -0.0723 -0.6120
  759MOL0     H 2422   5.439   6.805   9.918 -0.5467 -1.0795 -1.0238
  759MOL0     H 2423   5.557   6.519   9.856 -0.2114  1.0666 -0.3308
  759MOL0     H 2424   5.474   6.557  10.014  1.1940 -0.6797  0.3323
  759MOL0     H 2425   5.461   6.709  10.155 -0.1382  2.5252 -3.6547
  759MOL0     H 2426   5.497   6.847  10.356  1.6250  3.8681  0.3897
  759MOL0     H 2427   5.763   7.264  10.406 -0.8163 -1.5238  0.3771
  759MOL0     H 2428   5.780   7.461  10.591 -2.2636 -0.5860 -0.3205
  759MOL0     H 2429   5.850   7.369  10.988 -1.7004  0.9849 -0.3543
  759MOL0     H 2430   6.026   7.411  10.963  0.6104  0.6618 -1.7195
  759MOL0     H 2431   5.936   7.545  11.124 -0.6466 -0.4321 -0.4312
  759MOL0     H 2432   5.993   7.644  10.979 -0.2735  0.7530 -0.2492
  759MOL0     H 2433   5.776   7.727  11.062  0.2714  0.0998 -0.8806
  759MOL0     H 2434   5.751   7.635  10.909  0.8097 -1.0927 -0.0557
  759MOL0     H 2435   5.703   7.530  11.192 -2.4729 -0.9226  1.0817
  759MOL0     H 2436   5.661   7.453  11.030 -0.9583  2.2854 -3.2553
  759MOL0     H 2437   5.511   7.639  10.991 -1.3693 -2.8791 -1.3384
  759MOL0     H 2438   5.525   7.704  11.152 -1.1189  0.9457 -2.6674
  759MOL0     H 2439   5.427   7.424  11.065  3.1256 -0.9690 -1.3100
  759MOL0     H 2440   5.483   7.464  11.231  2.0424  5.0198  0.8996
  759MOL0     H 2441   5.229   7.475  11.137 -2.5248  1.8228  1.0632
  759MOL0     H 2442   5.277   7.627  11.087  1.9824 -1.4092 -1.4769
  759MOL0     H 2443   5.340   7.712  11.292  0.2831  0.3677  2.1106
  759MOL0     H 2444   5.172   7.647  11.316  0.5654 -0.5903  0.0286
  759MOL0     H 2445   5.972   7.197  10.856  0.3046 -1.0284  0.1566
  759MOL0     H 2446   5.935   7.006  10.704  0.9910  0.4720  2.7186
  759MOL0     H 2447   5.919   6.890  10.238  0.2605  1.4133  2.0060
  759MOL0     H 2448   5.878   6.729  10.067 -0.5129  1.1733 -1.5182
  759MOL0     H 2449   5.351   7.313   8.605  0.5102 -2.0884  2.7586
  759MOL0     H 2450   5.309   7.184   8.385  0.5977 -1.5258  0.0716
  759MOL0     H 2451   5.008   6.949   8.162  0.0890  0.1945 -0.7120
  759MOL0     H 2452   4.937   6.814   7.945  0.9516  2.5396 -0.7191
  759MOL0     H 2453   5.026   6.749   7.721  1.0588 -0.1267  0.6517
  759MOL0     H 2454   4.877   6.663   7.790 -0.2825 -1.9380 -1.6476
  759MOL0     H 2455   4.912   6.601   7.578 -0.4168 -0.8823 -1.7050
  759MOL0     H 2456   4.931   6.473   7.698 -0.0018  1.1140  0.9237
  759MOL0     H 2457   5.190   6.482   7.667 -0.3591  4.0817  0.5385
  759MOL0     H 2458   5.166   6.578   7.527  0.7815 -0.8847 -0.9363
  759MOL0     H 2459   5.193   6.354   7.469 -0.3001  2.3650 -3.9285
  759MOL0     H 2460   5.039   6.296   7.542 -3.4710  1.8214  1.8817
  759MOL0     H 2461   4.886   6.505   7.202 -1.1952  2.6641  0.7559
  759MOL0     H 2462   5.250   6.552   8.003 -2.3260 -0.3158  0.2043
  759MOL0     H 2463   5.459   6.711   8.206  2.9405 -3.3478  0.2698
  759MOL0     H 2464   5.349   6.634   8.330 -1.9975  0.9000  0.2717
  759MOL0     H 2465   5.380   6.552   8.179 -0.5198  0.6867 -1.1867
  760MOL0     O 2466   9.724  10.665   1.415 -0.4105 -0.8571 -0.5349
  760MOL0     C 2467   9.731  10.545   1.445  0.5086  0.5903  0.3625
  760MOL0     O 2468   9.781  10.487   1.558  0.0912 -0.8938 -0.7763
  760MOL0     C 2469   9.878  10.552   1.634 -0.2475 -1.1363  0.4430
  760MOL0     C 2470  10.008  10.498   1.629 -0.3131 -0.1947  0.1152
  760MOL0     C 2471  10.113  10.551   1.707 -0.2859  0.8420  0.8551
  760MOL0     C 2472  10.099  10.664   1.789 -0.4790 -0.1049  0.2443
  760MOL0     O 2473  10.194  10.691   1.877 -0.3178 -0.2060  0.0119
  760MOL0     C 2474  10.188  10.798   1.970  0.8582 -0.9277 -0.6807
  760MOL0     C 2475  10.332  10.840   2.012  0.7680 -0.3170  1.2671
  760MOL0     C 2476  10.388  10.742   2.116  0.0221 -0.3566  0.4114
  760MOL0     C 2477  10.537  10.778   2.138 -0.0654 -0.4948  0.0049
  760MOL0     C 2478  10.592  10.650   2.214 -0.6100 -0.1153 -0.0161
  760MOL0     C 2479  10.730  10.679   2.283  0.8901  0.3163 -0.4963
  760MOL0     C 2480  10.846  10.725   2.190  0.2558  0.1120  0.3973
  760MOL0     C 2481  10.960  10.772   2.281  0.0729 -0.1159  1.3484
  760MOL0     N 2482  11.080  10.808   2.191 -0.1650 -0.3227  0.2230
  760MOL0     C 2483  11.130  10.932   2.162 -0.8483  0.0284 -0.2856
  760MOL0     C 2484  11.249  10.897   2.087  0.6979 -0.9165  0.2822
  760MOL0     C 2485  11.339  10.991   1.998  0.2510 -0.0882 -0.5266
  760MOL0     C 2486  11.384  11.114   2.074 -0.5795  0.6611 -0.2115
  760MOL0     C 2487  11.426  11.217   1.965 -0.3933 -0.1833  0.1670
  760MOL0     C 2488  11.499  11.171   1.834  0.2045 -0.2873 -0.0484
  760MOL0     O 2489  11.529  11.284   1.750 -0.3683  0.1758 -0.4145
  760MOL0     C 2490  11.615  11.381   1.807 -0.2797  0.1851  0.2580
  760MOL0     C 2491  11.568  11.501   1.830 -0.8002 -0.5629 -0.4981
  760MOL0     C 2492  11.656  11.602   1.885 -0.4364  0.0103 -1.0056
  760MOL0     C 2493  11.784  11.572   1.926 -0.0954 -0.1672  0.5674
  760MOL0     C 2494  11.867  11.680   1.983  0.5361  0.3557 -0.2453
  760MOL0     O 2495  11.804  11.799   2.008  0.0164  0.4831 -0.6965
  760MOL0     C 2496  11.873  11.898   2.078 -0.3102  0.8632  0.0905
  760MOL0     C 2497  11.857  12.019   2.030  0.0499  0.3554  0.3365
  760MOL0     C 2498  11.899  12.138   2.087 -0.3789  0.9603 -0.2517
  760MOL0     C 2499  11.985  12.127   2.198  0.2924 -0.6239  0.6114
  760MOL0     O 2500  12.025  12.248   2.269  0.2704  0.0782  1.0259
  760MOL0     C 2501  11.910  12.312   2.318 -0.2199 -0.2693 -0.0702
  760MOL0     C 2502  11.931  12.458   2.319  1.1061 -0.4269  0.5559
  760MOL0     C 2503  12.047  12.485   2.417  0.2304  0.2573 -0.0281
  760MOL0     C 2504  12.055  12.631   2.462 -0.8014 -0.8076  0.6829
  760MOL0     C 2505  12.148  12.634   2.592  0.0383  1.5424  0.8897
  760MOL0     C 2506  12.178  12.775   2.651  0.1267  0.3285  0.2352
  760MOL0     C 2507  12.299  12.757   2.760  0.1151  0.5671  0.4342
  760MOL0     C 2508  12.362  12.884   2.822 -0.2842 -0.8534  0.4573
  760MOL0    Cl 2509  12.480  12.870   2.957 -0.0548 -0.4370  0.6844
  760MOL0     C 2510  12.011  12.004   2.250  0.8025  0.0604  0.1707
  760MOL0     C 2511  11.954  11.887   2.192  0.6711  0.2410  0.1171
  760MOL0     O 2512  11.982  11.654   2.013 -0.5094  0.2201  0.8415
  760MOL0     C 2513  11.839  11.444   1.883  0.3811 -0.8427  0.1328
  760MOL0     C 2514  11.751  11.348   1.832  0.1022 -0.4754  0.2048
  760MOL0     N 2515  11.260  10.763   2.082  0.1983  0.2211 -0.0780
  760MOL0     N 2516  11.159  10.710   2.143 -0.2827  0.0608 -0.2883
  760MOL0     C 2517   9.968  10.728   1.782 -0.4878 -0.7189 -0.2694
  760MOL0     C 2518   9.857  10.663   1.718 -0.7179 -0.1177  0.6835
  760MOL0     C 2519   9.642  10.477   1.349  0.0327 -0.2768  0.3914
  760MOL0     C 2520   9.535  10.541   1.273  0.2237 -0.4661 -0.9827
  760MOL0     C 2521   9.458  10.472   1.183  0.6110 -0.2753  0.6054
  760MOL0     C 2522   9.471  10.337   1.164 -0.0648  1.5552 -0.5506
  760MOL0     O 2523   9.404  10.263   1.071 -0.5714  0.3129  0.1045
  760MOL0     C 2524   9.289  10.323   1.010 -0.7509  0.1569  0.1515
  760MOL0     C 2525   9.214  10.227   0.911  0.6427  1.0769  0.6704
  760MOL0     C 2526   9.163  10.085   0.943  0.0841  0.0294 -0.1654
  760MOL0     C 2527   9.271   9.983   0.966 -0.7782 -0.1695  0.5988
  760MOL0     C 2528   9.231   9.858   1.028 -0.4221 -0.0735 -0.4432
  760MOL0     C 2529   9.213   9.750   1.084  0.1397  0.5344  0.0870
  760MOL0     C 2530   9.576  10.281   1.228 -0.1593 -0.0941  0.1608
  760MOL0     C 2531   9.653  10.339   1.330 -0.4334  0.1927  0.8004
  760MOL0     C 2532   9.755  10.242   1.405  0.6205 -0.7937  0.3686
  760MOL0     H 2533  10.023  10.410   1.568 -2.1252 -0.7128  0.3619
  760MOL0     H 2534  10.210  10.503   1.702 -0.1082  1.0856  1.7282
  760MOL0     H 2535  10.132  10.880   1.925  0.9415 -0.9158 -0.7648
  760MOL0     H 2536  10.136  10.774   2.063 -0.6211  0.0672 -1.2059
  760MOL0     H 2537  10.325  10.940   2.055 -2.0777  0.2469 -0.2402
  760MOL0     H 2538  10.399  10.830   1.926 -2.0629  1.6201 -1.3864
  760MOL0     H 2539  10.368  10.644   2.071  0.6050 -0.8008  1.1054
  760MOL0     H 2540  10.332  10.737   2.210  0.2044 -0.4833  0.5144
  760MOL0     H 2541  10.590  10.796   2.043  0.6124  0.1596  0.4983
  760MOL0     H 2542  10.542  10.871   2.195 -0.2403  0.7725 -1.9501
  760MOL0     H 2543  10.523  10.626   2.295  0.1495  0.8348  0.9434
  760MOL0     H 2544  10.591  10.570   2.140  1.7232  1.0723 -1.4455
  760MOL0     H 2545  10.703  10.759   2.352 -0.0786 -0.3052 -0.1319
  760MOL0     H 2546  10.765  10.599   2.350  2.2303  2.9097  2.1235
  760MOL0     H 2547  10.809  10.818   2.146  0.4048 -0.4260 -0.9047
  760MOL0     H 2548  10.873  10.651   2.114  0.3909 -0.5693  1.0981
  760MOL0     H 2549  10.916  10.857   2.335 -1.0156 -0.1092  0.4849
  760MOL0     H 2550  10.988  10.689   2.345  3.5247 -2.1125 -2.2920
  760MOL0     H 2551  11.083  11.027   2.184 -2.0450 -1.2793  3.3768
  760MOL0     H 2552  11.426  10.936   1.962 -0.9369 -0.5605 -2.9263
  760MOL0     H 2553  11.281  11.022   1.910 -1.0309  0.3582  0.4457
  760MOL0     H 2554  11.307  11.156   2.140 -0.2629  1.2443 -0.2060
  760MOL0     H 2555  11.473  11.090   2.133 -1.3226  0.3827  0.8273
  760MOL0     H 2556  11.483  11.285   2.030  3.1835 -0.7247 -2.1504
  760MOL0     H 2557  11.336  11.272   1.936 -1.4292 -1.6040  0.6120
  760MOL0     H 2558  11.444  11.104   1.767 -1.0282  0.3186  0.3256
  760MOL0     H 2559  11.590  11.121   1.867  1.6633  2.3403  0.1024
  760MOL0     H 2560  11.465  11.528   1.811 -0.4877  2.0408  1.0549
  760MOL0     H 2561  11.616  11.702   1.897  2.2073  0.9484  1.0758
  760MOL0     H 2562  11.797  12.040   1.942 -0.4519  2.8946  1.2087
  760MOL0     H 2563  11.874  12.234   2.043 -1.8008  1.4194  1.4760
  760MOL0     H 2564  11.822  12.300   2.255 -1.0823  1.8744  0.6365
  760MOL0     H 2565  11.893  12.277   2.420  0.2471 -0.9404 -0.2142
  760MOL0     H 2566  11.963  12.483   2.217  0.5728 -0.5610  0.3500
  760MOL0     H 2567  11.834  12.505   2.339  0.1983 -1.3119 -1.4515
  760MOL0     H 2568  12.031  12.422   2.505  1.7526  1.8987  1.4920
  760MOL0     H 2569  12.142  12.455   2.372 -0.1795 -4.5213  1.6887
  760MOL0     H 2570  11.957  12.652   2.506  0.6928 -0.7721  4.3277
  760MOL0     H 2571  12.092  12.700   2.386  2.6401 -3.1096  0.0635
  760MOL0     H 2572  12.248  12.595   2.574 -0.7805 -1.4711  2.1447
  760MOL0     H 2573  12.103  12.570   2.669  1.4829 -1.3061 -0.4976
  760MOL0     H 2574  12.191  12.834   2.560 -1.4012 -0.9461 -0.8743
  760MOL0     H 2575  12.083  12.798   2.701 -1.0922 -2.1151 -0.8107
  760MOL0     H 2576  12.379  12.704   2.706 -0.9039 -1.4414  0.8177
  760MOL0     H 2577  12.256  12.696   2.840 -1.4021  1.2292  0.1414
  760MOL0     H 2578  12.400  12.954   2.747  0.9232  0.0752  1.8621
  760MOL0     H 2579  12.286  12.955   2.854  0.7075  0.0435  0.8988
  760MOL0     H 2580  12.077  11.994   2.335 -0.5560 -0.8137  1.1663
  760MOL0     H 2581  11.971  11.787   2.230 -0.4042 -0.2479 -0.6548
  760MOL0     H 2582  11.942  11.419   1.906  0.5586 -0.2924 -0.0436
  760MOL0     H 2583  11.770  11.241   1.822  0.2984 -0.5492  1.3086
  760MOL0     H 2584   9.944  10.819   1.835  0.4569 -0.2225 -0.6742
  760MOL0     H 2585   9.763  10.717   1.726  0.0966  1.2586  1.4506
  760MOL0     H 2586   9.510  10.647   1.279  0.3901 -0.5111  1.7687
  760MOL0     H 2587   9.387  10.536   1.131  2.6296  1.8330  0.2498
  760MOL0     H 2588   9.311  10.405   0.942 -1.6209  1.4882  1.4146
  760MOL0     H 2589   9.213  10.355   1.082  1.4491  1.1589  2.1444
  760MOL0     H 2590   9.278  10.209   0.824 -1.8464  0.5319 -1.1739
  760MOL0     H 2591   9.125  10.276   0.871 -0.6267 -2.9145 -2.0345
  760MOL0     H 2592   9.093  10.035   0.876  1.7816 -3.6570  0.5891
  760MOL0     H 2593   9.098  10.089   1.032 -2.9771 -1.9053 -2.1234
  760MOL0     H 2594   9.326   9.958   0.875 -0.7318 -0.4390  0.6990
  760MOL0     H 2595   9.343  10.026   1.037 -1.1328 -0.1686  0.9626
  760MOL0     H 2596   9.215   9.655   1.134  2.5849  0.4389 -0.0735
  760MOL0     H 2597   9.587  10.176   1.202  0.7846  0.3340 -1.2216
  760MOL0     H 2598   9.745  10.254   1.513  0.8435  4.0714  0.0684
  760MOL0     H 2599   9.746  10.136   1.383  2.4964 -1.1308  0.9962
  760MOL0     H 2600   9.862  10.252   1.384  0.5196  0.6333  0.3738
  761MOL0     O 2601   5.639  10.550   0.258  0.3801 -0.0918  0.5450
  761MOL0     C 2602   5.753  10.566   0.302  0.4454  0.5947  0.4624
  761MOL0     O 2603   5.797  10.523   0.417 -0.2184 -0.3643  0.2890
  761MOL0     C 2604   5.709  10.440   0.484 -0.7339  0.3486 -0.1012
  761MOL0     C 2605   5.699  10.304   0.446 -0.3343  0.7993 -1.1326
  761MOL0     C 2606   5.616  10.221   0.530 -0.1190  0.1048 -0.2466
  761MOL0     C 2607   5.545  10.281   0.631  0.3768  0.0871 -0.1353
  761MOL0     O 2608   5.452  10.202   0.703  0.1921 -0.0321 -1.0063
  761MOL0     C 2609   5.331  10.166   0.630  0.0615  0.3821  0.1475
  761MOL0     C 2610   5.245  10.063   0.705 -0.5979 -0.2971  0.8560
  761MOL0     C 2611   5.253  10.078   0.853 -0.2541 -0.0531 -0.6039
  761MOL0     C 2612   5.207  10.222   0.893 -0.2548 -0.0356  0.0008
  761MOL0     C 2613   5.167  10.249   1.031 -0.1160 -0.1706  0.3479
  761MOL0     C 2614   5.056  10.166   1.078 -0.2024  0.1943 -0.5627
  761MOL0     C 2615   4.914  10.198   1.016 -0.4377 -0.0567 -0.3547
  761MOL0     C 2616   4.817  10.100   1.061  0.1461 -0.4093  0.3568
  761MOL0     N 2617   4.721  10.136   1.165  0.4685  0.2228  0.8518
  761MOL0     C 2618   4.702  10.251   1.232 -0.3930 -0.3775  0.5295
  761MOL0     C 2619   4.589  10.227   1.317  0.2815 -0.6055  0.4005
  761MOL0     C 2620   4.528  10.312   1.415  0.3734  0.1296 -0.0237
  761MOL0     C 2621   4.407  10.399   1.357 -0.7158 -0.4631 -0.7418
  761MOL0     C 2622   4.459  10.496   1.254 -0.7942 -1.1304 -0.0233
  761MOL0     C 2623   4.347  10.584   1.210  0.1446  0.2132 -0.2017
  761MOL0     O 2624   4.406  10.661   1.110 -0.2547 -0.0378  0.2702
  761MOL0     C 2625   4.326  10.733   1.031 -0.2947 -0.4653  0.2716
  761MOL0     C 2626   4.177  10.741   1.051 -1.1141 -0.5973 -0.9787
  761MOL0     C 2627   4.098  10.819   0.958 -0.3880 -0.2625 -0.5147
  761MOL0     C 2628   4.160  10.888   0.853 -0.3522  0.5289 -0.6645
  761MOL0     C 2629   4.077  10.962   0.759 -0.0686 -0.4156  0.3996
  761MOL0     O 2630   4.078  11.095   0.776  0.0139 -0.7761 -0.1596
  761MOL0     C 2631   4.015  11.165   0.678 -0.3859 -0.0974  0.1647
  761MOL0     C 2632   3.908  11.240   0.728  0.9556 -0.0355 -0.2292
  761MOL0     C 2633   3.856  11.353   0.654 -0.4086 -0.0167 -0.3664
  761MOL0     C 2634   3.903  11.380   0.525  0.7127  0.0227  0.1672
  761MOL0     O 2635   3.863  11.491   0.462 -0.4304  0.7448  0.5758
  761MOL0     C 2636   3.970  11.564   0.393  0.1555 -0.0787 -0.2668
  761MOL0     C 2637   4.076  11.621   0.492 -0.5795 -0.2062  0.2545
  761MOL0     C 2638   4.010  11.718   0.589  1.6468  0.1376  0.5712
  761MOL0     C 2639   4.131  11.773   0.673  0.2785  0.2090  0.6642
  761MOL0     C 2640   4.073  11.859   0.790  0.1236 -1.2421  1.0221
  761MOL0     C 2641   4.193  11.908   0.878  0.0774  0.3410 -0.3197
  761MOL0     C 2642   4.247  12.044   0.852  0.1411  0.0903 -0.2083
  761MOL0     C 2643   4.309  12.110   0.979  0.3711 -0.0735 -0.1613
  761MOL0    Cl 2644   4.457  12.020   1.028 -0.6473 -0.1853  0.2852
  761MOL0     C 2645   3.984  11.276   0.465  0.2512  0.7785 -0.2890
  761MOL0     C 2646   4.048  11.173   0.540  0.1643  0.1580 -0.0277
  761MOL0     O 2647   3.998  10.898   0.685  0.2806  0.0604  0.8959
  761MOL0     C 2648   4.304  10.884   0.837  1.9807  0.2930  0.1492
  761MOL0     C 2649   4.384  10.798   0.925  0.0685 -0.3120  0.3880
  761MOL0     N 2650   4.554  10.095   1.295  0.4679 -0.5976 -0.7316
  761MOL0     N 2651   4.640  10.046   1.221 -0.4780  0.2856 -0.0895
  761MOL0     C 2652   5.549  10.414   0.652  0.7812 -0.9579 -0.4257
  761MOL0     C 2653   5.628  10.498   0.579 -0.5273 -0.8169 -0.5799
  761MOL0     C 2654   5.838  10.655   0.228  0.9127 -1.1288  0.0285
  761MOL0     C 2655   5.970  10.622   0.222  1.2218  0.5760 -1.1037
  761MOL0     C 2656   6.055  10.703   0.149  0.1766  0.2354  0.6436
  761MOL0     C 2657   6.018  10.824   0.091 -0.2619  0.2539  0.1157
  761MOL0     O 2658   6.124  10.888   0.025  0.1801 -0.2016  0.3077
  761MOL0     C 2659   6.097  10.996  -0.067 -0.2363 -0.4825  0.0312
  761MOL0     C 2660   6.060  10.953  -0.213  0.1394  0.1296  0.4458
  761MOL0     C 2661   6.051  11.065  -0.313  0.2681 -0.3018  0.0837
  761MOL0     C 2662   5.960  11.177  -0.282  0.1182  0.1537  0.0340
  761MOL0     C 2663   5.830  11.131  -0.309  0.1312  1.6383  0.5654
  761MOL0     C 2664   5.715  11.079  -0.330 -0.5249 -0.3438  0.3401
  761MOL0     C 2665   5.890  10.859   0.105 -0.0719  0.1799  0.0288
  761MOL0     C 2666   5.795  10.783   0.175 -0.3771  1.0107  0.5065
  761MOL0     C 2667   5.650  10.833   0.189  0.0694 -0.4060  0.0691
  761MOL0     H 2668   5.760  10.265   0.364  0.2031 -1.7806  0.3876
  761MOL0     H 2669   5.606  10.115   0.509  1.3965  0.0305 -0.7209
  761MOL0     H 2670   5.280  10.260   0.605  1.6862  0.5835 -2.8860
  761MOL0     H 2671   5.351  10.124   0.530  1.5622  0.6975  0.2971
  761MOL0     H 2672   5.272   9.961   0.677 -1.2449 -0.7590  1.8550
  761MOL0     H 2673   5.140  10.076   0.677 -0.5086  0.7555  0.9827
  761MOL0     H 2674   5.349  10.057   0.900 -1.6680 -2.5530  1.4245
  761MOL0     H 2675   5.192   9.997   0.892 -0.5712  0.5637  0.2238
  761MOL0     H 2676   5.291  10.288   0.870  0.1776 -0.7299 -0.4746
  761MOL0     H 2677   5.131  10.265   0.827 -1.7577 -0.0691  1.6411
  761MOL0     H 2678   5.244  10.233   1.107 -0.5228  2.0532  1.3223
  761MOL0     H 2679   5.137  10.354   1.034 -0.2624 -0.1697 -0.7261
  761MOL0     H 2680   5.087  10.063   1.058  3.2840  1.4777 -2.4682
  761MOL0     H 2681   5.046  10.185   1.186 -0.8730  2.1544 -0.9322
  761MOL0     H 2682   4.932  10.186   0.909 -0.0705  1.1909 -0.4454
  761MOL0     H 2683   4.879  10.301   1.029  0.6091  0.2299  0.2616
  761MOL0     H 2684   4.762  10.087   0.968  2.0100 -0.1869 -0.8330
  761MOL0     H 2685   4.856  10.001   1.084  0.8115 -0.1310  0.4506
  761MOL0     H 2686   4.744  10.349   1.210 -2.0920  0.7593  2.0719
  761MOL0     H 2687   4.497  10.258   1.505  3.2681  1.2049  1.7557
  761MOL0     H 2688   4.606  10.376   1.456 -0.1235 -0.0626  1.2720
  761MOL0     H 2689   4.336  10.330   1.310 -2.9539  0.2710  1.3371
  761MOL0     H 2690   4.345  10.461   1.422  0.6546 -0.1368  0.3047
  761MOL0     H 2691   4.504  10.443   1.170 -1.5568 -2.4643  0.3636
  761MOL0     H 2692   4.542  10.560   1.284 -0.4553  0.0253 -3.1464
  761MOL0     H 2693   4.315  10.649   1.292 -2.0457 -1.4306  0.3589
  761MOL0     H 2694   4.257  10.526   1.186 -1.8028  2.1009  2.0195
  761MOL0     H 2695   4.137  10.704   1.144 -0.1365  1.1874  0.2021
  761MOL0     H 2696   3.991  10.805   0.971 -0.3658 -0.5750 -0.6543
  761MOL0     H 2697   3.890  11.234   0.835  0.8470 -0.5390 -0.2748
  761MOL0     H 2698   3.784  11.418   0.702  0.9042  0.4560  1.0491
  761MOL0     H 2699   4.017  11.509   0.311 -2.7589 -2.7933 -0.3005
  761MOL0     H 2700   3.931  11.655   0.347  2.5640  2.4433  2.2556
  761MOL0     H 2701   4.128  11.543   0.548  2.0826  1.0888 -0.2268
  761MOL0     H 2702   4.157  11.660   0.429  0.1491 -1.8632  0.1160
  761MOL0     H 2703   3.958  11.805   0.549 -0.8622 -1.3218  0.4736
  761MOL0     H 2704   3.948  11.654   0.653  2.1954 -5.7185 -3.8231
  761MOL0     H 2705   4.175  11.847   0.605 -0.2960 -0.0505 -0.0016
  761MOL0     H 2706   4.191  11.689   0.709 -0.4935 -1.2817 -1.3365
  761MOL0     H 2707   4.017  11.786   0.849  2.3278 -1.6112  2.8297
  761MOL0     H 2708   4.005  11.940   0.763  0.2470 -1.8110 -1.1853
  761MOL0     H 2709   4.163  11.902   0.983  4.0864  0.9193  1.0214
  761MOL0     H 2710   4.270  11.831   0.881 -1.0133 -0.7383  1.6720
  761MOL0     H 2711   4.175  12.117   0.813 -0.6158 -0.5928 -0.0981
  761MOL0     H 2712   4.325  12.028   0.776  1.7847 -1.9738  1.7808
  761MOL0     H 2713   4.326  12.217   0.964  0.6858  0.0144  0.7430
  761MOL0     H 2714   4.229  12.122   1.053  0.8059  2.7910 -0.0343
  761MOL0     H 2715   3.999  11.273   0.357 -0.3333  1.7640 -0.4079
  761MOL0     H 2716   4.130  11.120   0.493 -0.8599 -1.1396 -0.4269
  761MOL0     H 2717   4.354  10.945   0.762  1.7826  1.1677  0.7157
  761MOL0     H 2718   4.492  10.796   0.921  0.0787  0.5517 -3.2600
  761MOL0     H 2719   5.490  10.462   0.730  3.3069 -0.4484  1.2677
  761MOL0     H 2720   5.627  10.604   0.601 -0.0646 -0.6811 -1.1969
  761MOL0     H 2721   6.012  10.537   0.276  1.0867 -1.9166 -4.5496
  761MOL0     H 2722   6.157  10.670   0.135  0.3867  0.5934  1.3199
  761MOL0     H 2723   6.188  11.057  -0.064  0.0251 -0.9083  2.4229
  761MOL0     H 2724   6.025  11.066  -0.024  3.0241  3.2436  0.0163
  761MOL0     H 2725   5.959  10.911  -0.212 -0.8890  2.4243 -0.1663
  761MOL0     H 2726   6.121  10.869  -0.245  0.9689 -0.1249  2.5685
  761MOL0     H 2727   6.029  11.016  -0.408 -0.8732 -0.6093  0.4935
  761MOL0     H 2728   6.149  11.114  -0.309 -0.7656  1.7761  1.9018
  761MOL0     H 2729   5.962  11.208  -0.177 -2.3210 -1.9322  0.8008
  761MOL0     H 2730   5.993  11.261  -0.344  0.3602 -0.1532 -0.2571
  761MOL0     H 2731   5.616  11.042  -0.347 -0.3098 -0.5157 -0.5730
  761MOL0     H 2732   5.846  10.951   0.066 -0.2993 -0.2698 -0.8182
  761MOL0     H 2733   5.593  10.778   0.113  1.4592  2.9969 -3.8032
  761MOL0     H 2734   5.605  10.813   0.286 -0.3739 -1.0235 -0.2568
  761MOL0     H 2735   5.636  10.936   0.154  0.4962  0.2245  1.6682
  762MOL0     O 2736   7.488   2.822   0.399 -0.0489  0.1577 -1.0412
  762MOL0     C 2737   7.586   2.849   0.475  0.7930 -0.3393  0.3190
  762MOL0     O 2738   7.618   2.982   0.518 -0.3574  0.7759 -0.2668
  762MOL0     C 2739   7.517   3.076   0.520  0.6124  0.2242 -0.3326
  762MOL0     C 2740   7.548   3.191   0.448  0.1800  0.3414 -0.1168
  762MOL0     C 2741   7.457   3.293   0.429  0.6133  0.3830  0.4251
  762MOL0     C 2742   7.326   3.285   0.477 -0.6250 -0.2776  0.3067
  762MOL0     O 2743   7.243   3.390   0.453 -0.0687 -0.2825  0.0435
  762MOL0     C 2744   7.096   3.362   0.462 -0.6266 -0.2422  0.6849
  762MOL0     C 2745   7.008   3.470   0.407 -1.2177  1.1110 -0.6568
  762MOL0     C 2746   6.980   3.446   0.263  0.2327 -0.4944  0.4004
  762MOL0     C 2747   6.868   3.329   0.249  0.3584 -0.1284  0.2028
  762MOL0     C 2748   6.854   3.289   0.104 -0.2879 -0.0432  0.0421
  762MOL0     C 2749   6.744   3.191   0.077  0.8799 -0.1195 -0.0440
  762MOL0     C 2750   6.770   3.050   0.124 -0.1935  0.3391 -0.7285
  762MOL0     C 2751   6.682   2.948   0.058  0.1985 -0.4019 -0.7335
  762MOL0     N 2752   6.750   2.867  -0.043 -0.3493  0.5204  0.9779
  762MOL0     C 2753   6.844   2.913  -0.138 -0.1612  0.3814 -0.0078
  762MOL0     C 2754   6.901   2.808  -0.192  0.4363  0.3044  0.2047
  762MOL0     C 2755   7.000   2.799  -0.311 -0.4092 -0.6896  0.8716
  762MOL0     C 2756   7.142   2.844  -0.282 -0.4375 -0.5860 -0.3072
  762MOL0     C 2757   7.235   2.837  -0.401  0.3273 -1.1870 -0.0452
  762MOL0     C 2758   7.376   2.894  -0.362 -0.3376  0.4961 -1.7684
  762MOL0     O 2759   7.459   2.866  -0.474  0.2267  0.3573 -0.3184
  762MOL0     C 2760   7.573   2.936  -0.490  0.1049 -0.1164 -0.7853
  762MOL0     C 2761   7.661   2.884  -0.574 -0.2172  0.6327  0.3777
  762MOL0     C 2762   7.775   2.950  -0.622  1.0689 -0.4862 -0.0188
  762MOL0     C 2763   7.814   3.063  -0.553 -0.7635  1.0664  0.2237
  762MOL0     C 2764   7.945   3.130  -0.582 -0.7240 -0.1729  0.8885
  762MOL0     O 2765   7.980   3.234  -0.503  0.1672  0.6580  0.0666
  762MOL0     C 2766   8.111   3.256  -0.491 -0.1171 -0.0115  0.7038
  762MOL0     C 2767   8.206   3.170  -0.422  0.3063 -0.3922 -0.9347
  762MOL0     C 2768   8.344   3.201  -0.413  0.1110  0.5951 -1.0185
  762MOL0     C 2769   8.390   3.319  -0.474 -0.0443 -0.6514 -0.7603
  762MOL0     O 2770   8.510   3.375  -0.455  0.9970 -0.0704  0.3183
  762MOL0     C 2771   8.607   3.295  -0.395  0.1253 -0.3698  0.2528
  762MOL0     C 2772   8.742   3.360  -0.363 -0.4437 -0.3329 -0.1017
  762MOL0     C 2773   8.725   3.498  -0.315 -0.4106  0.2534  0.9043
  762MOL0     C 2774   8.836   3.521  -0.212 -0.5784  0.4850 -0.5590
  762MOL0     C 2775   8.836   3.658  -0.148 -0.1101 -0.2068  0.0762
  762MOL0     C 2776   8.947   3.690  -0.039 -0.2488  0.2192 -1.8092
  762MOL0     C 2777   8.982   3.574   0.058  0.4398 -0.5069 -0.2616
  762MOL0     C 2778   9.051   3.634   0.181  0.6531  0.9193 -0.2022
  762MOL0    Cl 2779   9.168   3.763   0.135  0.1642 -0.2264  0.0441
  762MOL0     C 2780   8.304   3.385  -0.558  0.0266  1.1713 -0.9968
  762MOL0     C 2781   8.168   3.355  -0.562  0.5877 -0.7487 -0.3802
  762MOL0     O 2782   8.017   3.087  -0.676 -0.9958  0.0546 -0.1050
  762MOL0     C 2783   7.732   3.112  -0.455 -0.3489 -1.0361 -0.4366
  762MOL0     C 2784   7.605   3.060  -0.430 -0.3559 -0.5108  1.0497
  762MOL0     N 2785   6.849   2.701  -0.130 -0.7369 -1.1069 -0.0068
  762MOL0     N 2786   6.770   2.734  -0.037  0.2018 -0.0659 -0.7558
  762MOL0     C 2787   7.296   3.163   0.547  0.3100 -0.7145  0.0808
  762MOL0     C 2788   7.389   3.056   0.558 -0.0722  0.6479 -0.6985
  762MOL0     C 2789   7.687   2.749   0.507 -0.1329 -0.5859  0.0299
  762MOL0     C 2790   7.791   2.789   0.600 -1.0369 -0.6842  0.2622
  762MOL0     C 2791   7.905   2.701   0.635 -0.2673  0.0406 -1.2455
  762MOL0     C 2792   7.912   2.570   0.588  0.7251 -0.9025 -0.3370
  762MOL0     O 2793   8.006   2.479   0.617 -0.4621 -0.4745 -0.5452
  762MOL0     C 2794   8.129   2.509   0.687 -0.2716 -0.5324 -0.2432
  762MOL0     C 2795   8.230   2.580   0.608 -0.5105  0.1405  0.2262
  762MOL0     C 2796   8.350   2.484   0.590  0.4008  0.4786  0.2094
  762MOL0     C 2797   8.310   2.374   0.492 -0.4434  0.2495 -0.4316
  762MOL0     C 2798   8.431   2.328   0.436  0.5113  0.4145  0.5650
  762MOL0     C 2799   8.545   2.308   0.395 -0.9282 -1.3484 -0.0358
  762MOL0     C 2800   7.805   2.540   0.509 -0.1619  0.0068  0.7721
  762MOL0     C 2801   7.701   2.616   0.453  0.5009  1.1376 -0.9137
  762MOL0     C 2802   7.612   2.540   0.351 -1.2978  0.4110 -0.6984
  762MOL0     H 2803   7.655   3.189   0.428  0.4603  0.4556  1.2836
  762MOL0     H 2804   7.480   3.390   0.386 -0.1303  0.5637  0.4226
  762MOL0     H 2805   7.078   3.266   0.412 -0.0925 -0.4327  0.8466
  762MOL0     H 2806   7.063   3.363   0.566  2.2557 -0.1769  1.7003
  762MOL0     H 2807   7.065   3.563   0.415 -1.4036  1.1913 -0.2273
  762MOL0     H 2808   6.916   3.482   0.465 -1.6184 -1.0071 -0.8012
  762MOL0     H 2809   7.079   3.423   0.223  1.5080  1.2120  2.3712
  762MOL0     H 2810   6.954   3.541   0.213 -1.0460  0.2891  2.4282
  762MOL0     H 2811   6.891   3.237   0.303 -4.6838 -2.2194 -0.6824
  762MOL0     H 2812   6.773   3.377   0.271 -0.3610 -0.8528 -1.1719
  762MOL0     H 2813   6.833   3.377   0.042 -2.7724 -2.2530 -2.6130
  762MOL0     H 2814   6.946   3.254   0.057  0.8239  0.1766  1.9623
  762MOL0     H 2815   6.650   3.229   0.119  0.8652 -1.1194  0.8890
  762MOL0     H 2816   6.723   3.201  -0.030 -1.4322 -0.0586  0.3582
  762MOL0     H 2817   6.754   3.032   0.231 -0.3398 -0.7719 -0.9267
  762MOL0     H 2818   6.873   3.022   0.098 -0.0409 -1.1469  1.1909
  762MOL0     H 2819   6.640   2.871   0.122 -3.3796  1.1368 -0.9873
  762MOL0     H 2820   6.598   2.994   0.005  0.8079 -2.4046 -3.6458
  762MOL0     H 2821   6.844   3.018  -0.166  1.1302  0.7459  1.2551
  762MOL0     H 2822   7.006   2.694  -0.340 -0.6372  0.2578 -3.1538
  762MOL0     H 2823   6.951   2.853  -0.393 -0.1424  2.1875  2.4816
  762MOL0     H 2824   7.144   2.949  -0.251  1.4892  0.6114 -3.8686
  762MOL0     H 2825   7.179   2.778  -0.204 -1.5288 -0.3083  0.4696
  762MOL0     H 2826   7.189   2.890  -0.485 -2.6991 -2.1849  0.8464
  762MOL0     H 2827   7.241   2.732  -0.430 -2.3952 -1.3185 -0.3710
  762MOL0     H 2828   7.404   2.851  -0.266 -2.0526 -0.8683 -1.8208
  762MOL0     H 2829   7.366   2.999  -0.335  2.1038  0.0087  1.5764
  762MOL0     H 2830   7.646   2.790  -0.626  3.5126 -0.0816  0.3198
  762MOL0     H 2831   7.834   2.918  -0.707 -0.2418 -1.9867 -0.4294
  762MOL0     H 2832   8.157   3.087  -0.373 -1.1890  1.4333  0.8450
  762MOL0     H 2833   8.407   3.136  -0.354 -1.2110 -1.3015 -1.5889
  762MOL0     H 2834   8.566   3.255  -0.302 -4.4689  3.5313  0.3224
  762MOL0     H 2835   8.634   3.219  -0.469 -1.5672  2.0355 -3.0814
  762MOL0     H 2836   8.792   3.301  -0.286 -2.5595 -0.4819  1.2262
  762MOL0     H 2837   8.796   3.356  -0.458 -0.9023 -1.8050 -0.3200
  762MOL0     H 2838   8.725   3.577  -0.391  0.3849 -0.6075 -0.0288
  762MOL0     H 2839   8.630   3.516  -0.266 -1.6073  2.1167 -1.8236
  762MOL0     H 2840   8.933   3.503  -0.261 -0.4353 -1.3799  0.3171
  762MOL0     H 2841   8.833   3.446  -0.132 -0.5892  0.9176 -0.1509
  762MOL0     H 2842   8.732   3.672  -0.116  0.5406  1.6393  1.5797
  762MOL0     H 2843   8.858   3.731  -0.227 -1.5935 -0.5968 -0.7401
  762MOL0     H 2844   9.038   3.723  -0.090  2.6527 -0.2212  2.5449
  762MOL0     H 2845   8.906   3.782   0.006 -0.3198 -0.8418  0.4691
  762MOL0     H 2846   9.048   3.503   0.009  1.3645 -1.5220  2.2775
  762MOL0     H 2847   8.897   3.511   0.086  0.4087 -0.4820 -0.2982
  762MOL0     H 2848   8.974   3.684   0.241 -1.9887 -1.4175 -1.3862
  762MOL0     H 2849   9.095   3.559   0.246  2.1594 -0.1882 -2.3728
  762MOL0     H 2850   8.340   3.470  -0.615  1.3153 -0.1185 -2.1564
  762MOL0     H 2851   8.115   3.420  -0.631 -1.8502 -3.4775 -1.2692
  762MOL0     H 2852   7.758   3.206  -0.407 -0.3446 -2.1700  1.9192
  762MOL0     H 2853   7.539   3.119  -0.368  3.1344 -1.5499  6.4856
  762MOL0     H 2854   7.202   3.165   0.600  0.3842  1.4630  0.2243
  762MOL0     H 2855   7.360   2.968   0.614 -0.9010  1.7479  0.6979
  762MOL0     H 2856   7.793   2.894   0.627 -3.7127 -0.3214 -0.6654
  762MOL0     H 2857   7.973   2.731   0.714 -1.3787  3.9689 -1.5524
  762MOL0     H 2858   8.159   2.412   0.728 -0.6886 -0.7267 -0.3916
  762MOL0     H 2859   8.094   2.574   0.768 -0.3346  1.2545 -1.6661
  762MOL0     H 2860   8.268   2.667   0.663  0.7524 -0.0456 -0.3112
  762MOL0     H 2861   8.203   2.619   0.510  0.6320 -2.9919 -1.4775
  762MOL0     H 2862   8.396   2.455   0.685  1.4382  0.1758 -0.3758
  762MOL0     H 2863   8.420   2.542   0.530 -1.2901  1.0010 -1.3557
  762MOL0     H 2864   8.268   2.289   0.547  1.7050 -0.5722  0.0581
  762MOL0     H 2865   8.240   2.413   0.418  0.1862 -0.3648 -1.3633
  762MOL0     H 2866   8.643   2.296   0.354  0.2051 -1.8609  2.6468
  762MOL0     H 2867   7.816   2.447   0.454 -1.9798  0.5666 -0.6642
  762MOL0     H 2868   7.574   2.622   0.289 -0.2742  0.7523 -0.8905
  762MOL0     H 2869   7.672   2.482   0.280 -0.1140 -0.2063  0.7514
  762MOL0     H 2870   7.533   2.485   0.404 -1.4042 -0.0793 -1.3544
  763MOL0     O 2871   4.353   6.822   6.003 -0.2723 -0.0629  0.1534
  763MOL0     C 2872   4.236   6.818   6.030  0.4680 -0.4760 -0.4721
  763MOL0     O 2873   4.178   6.853   6.148  0.3935 -1.0457  0.0129
  763MOL0     C 2874   4.253   6.924   6.240 -0.5616 -0.4107  0.0270
  763MOL0     C 2875   4.188   6.996   6.340  0.7776 -1.1147 -0.1457
  763MOL0     C 2876   4.253   7.073   6.444  0.0419 -0.7822 -0.2684
  763MOL0     C 2877   4.382   7.031   6.464  0.6225  0.0371  0.5482
  763MOL0     O 2878   4.433   7.087   6.579  0.0084 -0.0692  0.4391
  763MOL0     C 2879   4.569   7.123   6.569 -0.5970  0.4830  0.1917
  763MOL0     C 2880   4.611   7.204   6.689 -0.3245  0.9658 -0.5537
  763MOL0     C 2881   4.728   7.156   6.762 -0.2299 -0.2560 -0.1623
  763MOL0     C 2882   4.847   7.186   6.662 -0.3910  0.2511 -0.1878
  763MOL0     C 2883   4.968   7.110   6.717  1.1540 -0.0290 -0.9956
  763MOL0     C 2884   4.954   6.957   6.720  0.2418 -0.1189 -0.2275
  763MOL0     C 2885   5.094   6.894   6.767  0.5922 -0.2070  0.3124
  763MOL0     C 2886   5.083   6.746   6.782  0.6784 -0.8117  0.2897
  763MOL0     N 2887   5.046   6.678   6.667 -0.5412  0.1777  1.0077
  763MOL0     C 2888   4.944   6.589   6.646  0.1259 -0.7371 -0.2303
  763MOL0     C 2889   4.951   6.552   6.511 -1.0421  0.5322  0.1832
  763MOL0     C 2890   4.858   6.450   6.456 -0.2383 -0.1982 -0.2775
  763MOL0     C 2891   4.760   6.512   6.349 -0.5760 -0.2849 -0.3632
  763MOL0     C 2892   4.679   6.632   6.405 -0.3498  0.8368 -0.1028
  763MOL0     C 2893   4.601   6.592   6.530  0.1799 -0.7197  0.3054
  763MOL0     O 2894   4.496   6.496   6.522 -0.1419  0.2302  0.4717
  763MOL0     C 2895   4.371   6.549   6.498 -0.2359 -0.7860  0.6170
  763MOL0     C 2896   4.313   6.639   6.577 -0.3321  0.1449  0.0354
  763MOL0     C 2897   4.194   6.700   6.547 -0.3223  0.0155 -0.3050
  763MOL0     C 2898   4.123   6.656   6.440  0.4171 -0.1774 -0.3712
  763MOL0     C 2899   3.993   6.711   6.416  0.1698 -0.3500 -0.4266
  763MOL0     O 2900   3.953   6.822   6.483 -0.0627  0.5362  0.1112
  763MOL0     C 2901   3.815   6.844   6.469 -0.1852 -0.0681  0.9324
  763MOL0     C 2902   3.715   6.756   6.497  0.2086  0.9043  0.6850
  763MOL0     C 2903   3.575   6.792   6.487 -0.9475  0.6945 -0.3759
  763MOL0     C 2904   3.534   6.914   6.438  0.2316  0.2665 -0.1265
  763MOL0     O 2905   3.401   6.953   6.443  0.0344  0.1351 -0.5207
  763MOL0     C 2906   3.309   6.857   6.398 -0.4639 -0.8462  0.7142
  763MOL0     C 2907   3.201   6.915   6.302 -0.0438 -0.3079  0.3476
  763MOL0     C 2908   3.269   6.924   6.167 -0.3733  0.2208  0.0227
  763MOL0     C 2909   3.180   6.976   6.054  0.5040  0.2483 -0.5698
  763MOL0     C 2910   3.264   6.986   5.915 -0.5914 -0.1126  0.5719
  763MOL0     C 2911   3.198   7.073   5.805 -0.5315 -0.0605 -0.4374
  763MOL0     C 2912   3.056   7.019   5.770  0.1645 -0.0518  0.1187
  763MOL0     C 2913   3.004   7.105   5.649  0.4520 -0.4381 -0.1539
  763MOL0    Cl 2914   2.842   7.084   5.599  0.4805  0.2915 -0.1126
  763MOL0     C 2915   3.634   7.002   6.402  0.8474 -0.0492  0.2410
  763MOL0     C 2916   3.769   6.972   6.422 -0.8200  0.1134  0.2100
  763MOL0     O 2917   3.926   6.661   6.324 -0.3863 -0.6189  0.3633
  763MOL0     C 2918   4.186   6.557   6.348  0.3246 -0.0913  1.3015
  763MOL0     C 2919   4.305   6.506   6.385  0.1629  0.3302 -0.3703
  763MOL0     N 2920   5.057   6.622   6.451  0.0544  0.0540 -0.0225
  763MOL0     N 2921   5.108   6.694   6.545 -0.1304 -0.9860  1.1214
  763MOL0     C 2922   4.457   6.945   6.389  0.0554  0.1036  0.8874
  763MOL0     C 2923   4.391   6.902   6.270 -0.4045  0.1805 -0.0846
  763MOL0     C 2924   4.142   6.766   5.921 -0.5741  0.1406 -0.4348
  763MOL0     C 2925   4.019   6.720   5.974  0.0375 -0.8047  0.0009
  763MOL0     C 2926   3.915   6.685   5.887  0.0670 -0.0938  0.8001
  763MOL0     C 2927   3.928   6.678   5.743  0.3148 -0.4887  0.1616
  763MOL0     O 2928   3.818   6.655   5.666  0.7558  0.2758 -0.2493
  763MOL0     C 2929   3.826   6.645   5.528 -0.1171 -0.6263  1.1647
  763MOL0     C 2930   3.813   6.785   5.472 -0.6316  0.3221 -0.0590
  763MOL0     C 2931   3.825   6.789   5.324 -0.1443 -0.3176  0.4152
  763MOL0     C 2932   3.835   6.931   5.265  0.3807  0.3866 -0.9456
  763MOL0     C 2933   3.922   7.034   5.324 -0.2442  0.3434  0.0275
  763MOL0     C 2934   3.990   7.120   5.378 -0.4115 -0.7917  0.1216
  763MOL0     C 2935   4.063   6.709   5.696  0.0122  0.7820  0.8917
  763MOL0     C 2936   4.169   6.759   5.780  0.7453  0.2623  0.5381
  763MOL0     C 2937   4.307   6.781   5.710  0.9144  0.3939 -0.2361
  763MOL0     H 2938   4.087   7.022   6.313  1.3334  0.6993 -0.6177
  763MOL0     H 2939   4.210   7.156   6.500 -1.8872 -1.3095 -0.8860
  763MOL0     H 2940   4.622   7.028   6.578  1.5664  1.7394  1.4906
  763MOL0     H 2941   4.588   7.187   6.482 -3.0488  1.5594  0.3705
  763MOL0     H 2942   4.529   7.200   6.762  0.7548 -1.7506  0.6705
  763MOL0     H 2943   4.639   7.307   6.668  2.5714  0.4091  0.1451
  763MOL0     H 2944   4.716   7.049   6.783  3.3732 -0.6340  0.7954
  763MOL0     H 2945   4.734   7.209   6.858 -2.0479  2.2928 -1.3477
  763MOL0     H 2946   4.819   7.148   6.563 -0.2595 -1.4344  0.3843
  763MOL0     H 2947   4.873   7.292   6.657 -0.4314  0.3000  0.5922
  763MOL0     H 2948   5.044   7.153   6.652  0.3100 -1.9333 -3.3935
  763MOL0     H 2949   4.986   7.149   6.818 -2.7956  1.0334 -0.5021
  763MOL0     H 2950   4.885   6.924   6.798  2.5852 -0.8389  1.6869
  763MOL0     H 2951   4.916   6.912   6.628  0.5416 -0.4031 -0.2195
  763MOL0     H 2952   5.143   6.941   6.853  2.5392  2.7749 -2.2129
  763MOL0     H 2953   5.160   6.921   6.685 -2.0555 -1.8439 -2.5772
  763MOL0     H 2954   5.173   6.695   6.817 -0.5710 -2.5168  1.1892
  763MOL0     H 2955   5.004   6.730   6.857  0.4022 -0.4490  0.0799
  763MOL0     H 2956   4.873   6.541   6.713  1.2198 -0.9510  0.8031
  763MOL0     H 2957   4.917   6.371   6.408  0.1974  0.3168 -0.5974
  763MOL0     H 2958   4.802   6.400   6.536 -1.2622  3.5519  1.5537
  763MOL0     H 2959   4.819   6.556   6.267  0.9459 -2.2042 -0.3771
  763MOL0     H 2960   4.700   6.433   6.303  2.2447 -2.1432 -1.1643
  763MOL0     H 2961   4.612   6.668   6.326 -0.9155 -0.9252 -0.4861
  763MOL0     H 2962   4.744   6.711   6.444 -3.4403  2.6560  1.7922
  763MOL0     H 2963   4.559   6.690   6.557 -2.4421 -0.9754 -2.3063
  763MOL0     H 2964   4.670   6.552   6.605  0.3728 -0.6113  0.1876
  763MOL0     H 2965   4.369   6.667   6.666  0.4247 -0.8554 -0.0973
  763MOL0     H 2966   4.147   6.774   6.610  0.7459  0.1953  0.3050
  763MOL0     H 2967   3.737   6.658   6.538 -3.6389  0.0598  1.1055
  763MOL0     H 2968   3.501   6.730   6.536 -2.0826 -0.5114 -3.3764
  763MOL0     H 2969   3.357   6.775   6.346  1.4436  0.9955 -0.6005
  763MOL0     H 2970   3.265   6.808   6.485 -3.8253 -3.4682 -2.1476
  763MOL0     H 2971   3.107   6.860   6.295 -1.9432  2.4480  2.0525
  763MOL0     H 2972   3.165   7.012   6.339 -1.3726 -0.9235  0.7518
  763MOL0     H 2973   3.351   6.996   6.173 -0.2053  0.1202 -0.9175
  763MOL0     H 2974   3.315   6.829   6.139  0.5437  0.3404  1.0544
  763MOL0     H 2975   3.136   7.072   6.082  2.9434  0.4831  3.1511
  763MOL0     H 2976   3.101   6.902   6.038  0.5527 -0.0058  0.3264
  763MOL0     H 2977   3.266   6.882   5.879 -0.0910  0.6970 -1.9142
  763MOL0     H 2978   3.366   7.014   5.941 -0.6689  0.4447  0.2976
  763MOL0     H 2979   3.194   7.173   5.849 -0.6769 -0.3471  0.2192
  763MOL0     H 2980   3.268   7.072   5.721 -0.7496  0.2338 -0.6274
  763MOL0     H 2981   2.980   7.023   5.849 -0.3297 -0.0018 -0.3521
  763MOL0     H 2982   3.065   6.917   5.731 -0.7139  0.5277 -1.6943
  763MOL0     H 2983   3.017   7.212   5.669 -0.8958 -0.2044 -0.4413
  763MOL0     H 2984   3.080   7.083   5.573 -0.6485 -2.6907 -0.6924
  763MOL0     H 2985   3.604   7.100   6.367 -2.0766 -0.8511  0.2625
  763MOL0     H 2986   3.846   7.048   6.414  1.1756 -1.2635  3.7623
  763MOL0     H 2987   4.132   6.510   6.266 -0.4453  0.0780  1.6944
  763MOL0     H 2988   4.355   6.427   6.330 -1.9283 -0.0460 -1.8416
  763MOL0     H 2989   4.561   6.920   6.405  0.2605  0.0418 -0.4826
  763MOL0     H 2990   4.449   6.838   6.204 -0.5701 -0.2254  0.1650
  763MOL0     H 2991   3.992   6.727   6.078  0.9272 -1.5382  0.2963
  763MOL0     H 2992   3.825   6.659   5.942  1.3220 -1.9891  2.1064
  763MOL0     H 2993   3.741   6.593   5.482  1.4459 -2.0463 -0.2438
  763MOL0     H 2994   3.918   6.598   5.491  0.5482 -0.8571  3.0192
  763MOL0     H 2995   3.891   6.847   5.516 -0.3546 -0.7556  1.0236
  763MOL0     H 2996   3.722   6.836   5.506 -0.7370 -0.2837  0.5809
  763MOL0     H 2997   3.738   6.738   5.281 -1.6257 -0.1623  3.0182
  763MOL0     H 2998   3.916   6.732   5.299  1.9440  1.9715  2.2860
  763MOL0     H 2999   3.829   6.913   5.157 -2.0407  1.1863 -1.0093
  763MOL0     H 3000   3.734   6.971   5.283 -0.2019 -0.8731 -1.2743
  763MOL0     H 3001   4.054   7.200   5.409  0.1834 -0.1544 -2.4864
  763MOL0     H 3002   4.085   6.697   5.590  2.6034 -4.1183  1.6766
  763MOL0     H 3003   4.367   6.690   5.710 -0.9392 -0.8991 -0.0966
  763MOL0     H 3004   4.279   6.821   5.612  0.8356  1.4593  0.1995
  763MOL0     H 3005   4.366   6.853   5.768 -2.6118  1.3036  2.5958
  764MOL0     O 3006   1.318  11.318  10.993  0.0725 -0.0050  0.2818
  764MOL0     C 3007   1.276  11.428  11.024 -0.8466 -0.4888 -1.1691
  764MOL0     O 3008   1.356  11.544  11.025  0.1380 -0.4405  0.0535
  764MOL0     C 3009   1.491  11.541  11.046 -0.0606 -0.4078 -0.2419
  764MOL0     C 3010   1.563  11.663  11.021 -0.7408 -0.3200  0.3491
  764MOL0     C 3011   1.697  11.667  11.051 -0.5037 -0.3331  0.2196
  764MOL0     C 3012   1.767  11.563  11.116  0.4815  0.2070 -0.2469
  764MOL0     O 3013   1.906  11.554  11.123  1.1607 -0.0727 -0.4517
  764MOL0     C 3014   1.973  11.447  11.195 -0.0376  0.8909  0.5238
  764MOL0     C 3015   2.122  11.491  11.206  0.3883 -0.2564 -0.8192
  764MOL0     C 3016   2.147  11.637  11.243 -0.0755 -0.0300 -1.1619
  764MOL0     C 3017   2.300  11.664  11.261 -0.1252  0.3081  0.4227
  764MOL0     C 3018   2.344  11.787  11.181  0.7505 -0.0327  0.2662
  764MOL0     C 3019   2.488  11.836  11.204 -0.2922 -0.2395  0.3242
  764MOL0     C 3020   2.604  11.749  11.137  0.0626  0.6619  0.3347
  764MOL0     C 3021   2.631  11.793  10.995 -0.8226 -0.9179 -0.1102
  764MOL0     N 3022   2.746  11.718  10.941  0.2110 -0.6430 -0.3139
  764MOL0     C 3023   2.720  11.590  10.886  0.5646 -0.3730 -0.3379
  764MOL0     C 3024   2.839  11.546  10.838 -0.2100  0.9138 -0.2948
  764MOL0     C 3025   2.854  11.409  10.756  0.4087  0.1951  0.6265
  764MOL0     C 3026   2.826  11.453  10.607  0.3938  0.4505 -0.0034
  764MOL0     C 3027   2.831  11.336  10.503  1.2250  0.3730 -0.3515
  764MOL0     C 3028   2.809  11.383  10.364 -0.2215  0.5410  1.1666
  764MOL0     O 3029   2.700  11.473  10.352 -0.3433 -0.5163 -0.1370
  764MOL0     C 3030   2.575  11.418  10.330 -0.5654 -0.0338  0.2647
  764MOL0     C 3031   2.523  11.290  10.360  0.6370 -0.9473  0.2925
  764MOL0     C 3032   2.393  11.252  10.322  0.1459 -0.1770  0.0021
  764MOL0     C 3033   2.294  11.351  10.288  0.0163  0.1087  1.2937
  764MOL0     C 3034   2.159  11.326  10.231 -0.2113 -0.6074 -0.0527
  764MOL0     O 3035   2.079  11.435  10.209 -0.7682 -0.0145  1.0433
  764MOL0     C 3036   1.943  11.411  10.221  0.5527 -0.3745  0.5487
  764MOL0     C 3037   1.890  11.374  10.338 -0.9858 -0.7119  0.2827
  764MOL0     C 3038   1.753  11.372  10.354  0.6937  0.1161 -0.8667
  764MOL0     C 3039   1.672  11.394  10.241 -0.0463  0.1364  0.7250
  764MOL0     O 3040   1.539  11.399  10.283 -0.0127 -0.6525  0.1043
  764MOL0     C 3041   1.458  11.297  10.210 -1.0985  0.9492 -0.4452
  764MOL0     C 3042   1.316  11.353  10.180  0.6797 -0.1941  0.0387
  764MOL0     C 3043   1.243  11.248  10.082 -0.4522 -0.0671 -0.1067
  764MOL0     C 3044   1.091  11.259  10.108  0.3303  0.1282  0.6691
  764MOL0     C 3045   1.030  11.389  10.043 -0.9280  0.7294 -1.3127
  764MOL0     C 3046   1.000  11.378   9.898  0.5840 -0.7097 -0.3488
  764MOL0     C 3047   0.882  11.289   9.870  0.0990 -0.2755 -0.3244
  764MOL0     C 3048   0.792  11.362   9.774 -0.1953 -0.5400  0.4100
  764MOL0    Cl 3049   0.671  11.255   9.702 -0.0106  0.2947 -0.2020
  764MOL0     C 3050   1.729  11.415  10.116 -0.0607 -0.2776  0.2463
  764MOL0     C 3051   1.868  11.430  10.101  0.5385  0.6726  0.3808
  764MOL0     O 3052   2.137  11.214  10.195  0.7763  0.0619 -0.4966
  764MOL0     C 3053   2.349  11.479  10.273  0.5091 -0.7114 -0.4032
  764MOL0     C 3054   2.481  11.510  10.294  0.1006  0.7126  0.5494
  764MOL0     N 3055   2.942  11.640  10.871  0.1610  0.7731 -0.3113
  764MOL0     N 3056   2.879  11.745  10.925 -0.0188  0.0262 -0.6175
  764MOL0     C 3057   1.694  11.450  11.146  0.1289  0.1874 -0.4330
  764MOL0     C 3058   1.561  11.430  11.111  0.0559 -0.5797  0.1303
  764MOL0     C 3059   1.124  11.452  11.068  0.2645 -0.3056 -0.6099
  764MOL0     C 3060   1.086  11.586  11.088 -0.1963 -0.0139 -0.5221
  764MOL0     C 3061   0.958  11.610  11.138 -0.7194  0.1103 -0.3245
  764MOL0     C 3062   0.861  11.511  11.135 -0.4064 -0.2383 -0.4015
  764MOL0     O 3063   0.728  11.532  11.148 -0.6864 -0.9122 -0.0438
  764MOL0     C 3064   0.670  11.662  11.165  0.7240 -0.4155  0.2434
  764MOL0     C 3065   0.513  11.661  11.143  0.3255 -0.4619  0.7260
  764MOL0     C 3066   0.469  11.578  11.012  0.2952  0.5314  0.4037
  764MOL0     C 3067   0.454  11.431  11.046  0.8559  1.1809 -0.5020
  764MOL0     C 3068   0.374  11.355  10.944  0.5152 -0.0342 -0.1836
  764MOL0     C 3069   0.291  11.300  10.872  0.0575  0.2114 -0.0338
  764MOL0     C 3070   0.900  11.388  11.101 -0.4646  0.8878 -0.9454
  764MOL0     C 3071   1.030  11.352  11.082  0.2912 -0.0541 -0.6750
  764MOL0     C 3072   1.054  11.207  11.062  0.2460  0.2039  0.7610
  764MOL0     H 3073   1.527  11.743  10.958  2.8055 -0.2370 -1.8321
  764MOL0     H 3074   1.752  11.757  11.022 -3.8412  1.7049 -0.3531
  764MOL0     H 3075   1.915  11.436  11.287 -2.3850  0.5710 -0.9021
  764MOL0     H 3076   1.977  11.350  11.145  1.3055  1.2791 -0.1643
  764MOL0     H 3077   2.163  11.474  11.106  2.3145  0.1833 -0.1547
  764MOL0     H 3078   2.171  11.433  11.286 -1.6425 -0.2723  0.4870
  764MOL0     H 3079   2.093  11.653  11.337 -1.3877 -1.5061 -1.6109
  764MOL0     H 3080   2.115  11.701  11.160  1.0120  0.7296 -1.0074
  764MOL0     H 3081   2.322  11.664  11.369 -0.4210 -0.1956  0.4865
  764MOL0     H 3082   2.370  11.585  11.232  0.5908  1.6860 -1.8135
  764MOL0     H 3083   2.337  11.770  11.073  1.9534 -1.9571  0.4528
  764MOL0     H 3084   2.281  11.870  11.215 -0.0367 -0.5564  0.0977
  764MOL0     H 3085   2.493  11.939  11.167  1.5527 -0.7785 -1.0722
  764MOL0     H 3086   2.495  11.835  11.313 -1.5094 -0.9756  0.4204
  764MOL0     H 3087   2.572  11.646  11.152 -0.4458  1.1722  3.3042
  764MOL0     H 3088   2.698  11.775  11.187 -0.9646  1.0724  2.1435
  764MOL0     H 3089   2.536  11.772  10.943 -2.1824 -1.1549  2.3254
  764MOL0     H 3090   2.662  11.897  10.984  0.8866 -1.1392  2.0229
  764MOL0     H 3091   2.621  11.552  10.865 -0.5000  2.5431 -0.9556
  764MOL0     H 3092   2.955  11.367  10.756  1.0378  1.6691  0.9068
  764MOL0     H 3093   2.787  11.337  10.805 -1.8276  1.4226 -0.4759
  764MOL0     H 3094   2.722  11.486  10.607 -0.5395 -2.2136 -1.6361
  764MOL0     H 3095   2.897  11.531  10.575 -0.9898  0.3182 -3.7824
  764MOL0     H 3096   2.745  11.270  10.516 -0.5365  2.4624 -0.8145
  764MOL0     H 3097   2.923  11.280  10.521  0.9679 -0.2288 -0.8641
  764MOL0     H 3098   2.807  11.295  10.300 -0.1337 -2.7049  5.2154
  764MOL0     H 3099   2.904  11.434  10.343 -0.1221  0.9673  2.5656
  764MOL0     H 3100   2.583  11.209  10.399 -0.4943 -1.1522  1.6976
  764MOL0     H 3101   2.364  11.148  10.337 -0.0881 -0.0312  0.6046
  764MOL0     H 3102   1.942  11.348  10.429  0.7526 -1.1777 -0.7907
  764MOL0     H 3103   1.703  11.369  10.450  2.3094  1.8912  0.0995
  764MOL0     H 3104   1.507  11.256  10.121  0.3677  0.3447  0.6038
  764MOL0     H 3105   1.456  11.211  10.277  0.5432  2.2489  1.3747
  764MOL0     H 3106   1.258  11.367  10.272 -1.7617  0.9221 -1.6012
  764MOL0     H 3107   1.318  11.452  10.136 -0.2458 -0.9707 -1.8390
  764MOL0     H 3108   1.267  11.277   9.980  0.2976 -1.0002 -0.2139
  764MOL0     H 3109   1.275  11.144  10.094 -3.6563 -1.0545  1.0002
  764MOL0     H 3110   1.095  11.259  10.217 -1.8770  0.2409  0.7880
  764MOL0     H 3111   1.041  11.171  10.065  0.8591  1.0866 -2.1601
  764MOL0     H 3112   1.095  11.474  10.066  0.9958 -1.6269  3.3062
  764MOL0     H 3113   0.944  11.419  10.104  0.3198  4.2872 -1.0754
  764MOL0     H 3114   0.986  11.480   9.859  1.4650  0.2691  1.7385
  764MOL0     H 3115   1.083  11.336   9.840  1.8959  0.3826  0.6717
  764MOL0     H 3116   0.822  11.269   9.958  1.0715 -0.3546  0.3362
  764MOL0     H 3117   0.899  11.188   9.831 -2.0150 -1.4037  1.4807
  764MOL0     H 3118   0.735  11.436   9.831 -1.2370 -0.6755 -0.4324
  764MOL0     H 3119   0.852  11.421   9.704  0.3633  2.3370  3.0493
  764MOL0     H 3120   1.659  11.424  10.033  0.5221 -1.3015 -0.3865
  764MOL0     H 3121   1.910  11.459  10.005  1.9495 -2.0390  0.1053
  764MOL0     H 3122   2.292  11.565  10.239 -0.9860  0.1089  3.5682
  764MOL0     H 3123   2.512  11.613  10.280 -0.3097  0.5667 -1.8419
  764MOL0     H 3124   1.740  11.358  11.180  0.0431  0.1409 -0.4426
  764MOL0     H 3125   1.512  11.340  11.146  1.1924 -1.0898  0.4400
  764MOL0     H 3126   1.161  11.664  11.078  0.9548 -1.1957 -1.5764
  764MOL0     H 3127   0.940  11.715  11.159  1.0969  0.1882  1.0758
  764MOL0     H 3128   0.706  11.718  11.078 -0.4356 -0.6010 -0.3729
  764MOL0     H 3129   0.696  11.711  11.259  0.1739  1.2909 -0.4531
  764MOL0     H 3130   0.481  11.765  11.131  3.5683  0.4321 -1.6604
  764MOL0     H 3131   0.458  11.637  11.234  1.6885 -1.4999  1.3102
  764MOL0     H 3132   0.545  11.591  10.935  1.0675  5.7592  1.6423
  764MOL0     H 3133   0.368  11.605  10.980 -1.6480 -2.5919  3.1777
  764MOL0     H 3134   0.549  11.375  11.045 -0.2537 -0.8554  0.8445
  764MOL0     H 3135   0.403  11.423  11.142  2.3686 -0.3626  0.2527
  764MOL0     H 3136   0.213  11.255  10.815 -0.6452  0.2370  0.8727
  764MOL0     H 3137   0.824  11.310  11.100  0.5452 -0.1196 -0.3845
  764MOL0     H 3138   1.087  11.163  11.156 -2.5284  0.4256  1.9124
  764MOL0     H 3139   0.955  11.167  11.038  0.0564  1.7007 -1.1701
  764MOL0     H 3140   1.127  11.191  10.982 -2.2443  2.6176 -2.2635
  765MOL0     O 3141   8.219   4.286   6.047 -0.1850  0.3634 -0.0630
  765MOL0     C 3142   8.117   4.336   6.095  0.3621 -0.3499 -0.3142
  765MOL0     O 3143   8.100   4.463   6.143  1.1779 -0.5532  0.3447
  765MOL0     C 3144   8.202   4.564   6.139  0.6470  0.7016  0.1943
  765MOL0     C 3145   8.316   4.555   6.223  0.5320 -0.0891 -0.8750
  765MOL0     C 3146   8.406   4.662   6.222  0.7119 -0.4153  0.5254
  765MOL0     C 3147   8.386   4.777   6.143  0.3958 -0.8167  0.3843
  765MOL0     O 3148   8.472   4.881   6.158 -0.8738  0.0850 -0.0813
  765MOL0     C 3149   8.459   5.001   6.080  0.0015  0.7686 -0.1010
  765MOL0     C 3150   8.535   4.985   5.952 -0.2496 -0.0114  0.5700
  765MOL0     C 3151   8.679   5.043   5.970 -0.4951  1.1256  0.7800
  765MOL0     C 3152   8.772   4.933   6.026  0.2865 -0.5145  0.0731
  765MOL0     C 3153   8.902   5.004   6.061  0.8417 -0.5723 -0.3035
  765MOL0     C 3154   9.004   4.892   6.083 -0.3599  0.1140 -0.2127
  765MOL0     C 3155   9.151   4.954   6.095  1.0739  0.1562  0.3257
  765MOL0     C 3156   9.183   4.980   6.245  0.6098 -0.0881  0.5779
  765MOL0     N 3157   9.318   5.023   6.281 -0.2113  1.0828 -0.9997
  765MOL0     C 3158   9.363   5.036   6.410 -0.3012 -1.7129  0.0466
  765MOL0     C 3159   9.486   5.094   6.390 -0.6802 -0.7278 -0.3334
  765MOL0     C 3160   9.580   5.140   6.498  0.3233  1.0991 -0.8730
  765MOL0     C 3161   9.519   5.137   6.640 -0.3028 -0.6996 -1.2124
  765MOL0     C 3162   9.626   5.162   6.752 -0.0357 -0.2153  0.0261
  765MOL0     C 3163   9.601   5.116   6.888 -0.7861  0.0184  0.4665
  765MOL0     O 3164   9.515   5.200   6.959  0.0532  0.1638  0.2198
  765MOL0     C 3165   9.487   5.170   7.095 -0.2320  0.6748  0.6342
  765MOL0     C 3166   9.508   5.261   7.203  0.1569 -0.1075  0.2857
  765MOL0     C 3167   9.486   5.217   7.332  0.0158 -0.5916 -0.9311
  765MOL0     C 3168   9.455   5.088   7.366  0.1512  0.3368 -0.9914
  765MOL0     C 3169   9.432   5.038   7.501  0.1234 -0.6582 -0.2160
  765MOL0     O 3170   9.441   4.901   7.527  0.6564  0.6641 -0.6742
  765MOL0     C 3171   9.425   4.836   7.652  0.1737 -0.7900 -0.9665
  765MOL0     C 3172   9.366   4.888   7.770 -0.5080 -0.4476 -0.6630
  765MOL0     C 3173   9.382   4.821   7.897  0.1237  0.9263 -0.0729
  765MOL0     C 3174   9.445   4.694   7.897  0.5332 -0.5784 -0.3165
  765MOL0     O 3175   9.455   4.634   8.022 -0.7101 -0.7740  0.4271
  765MOL0     C 3176   9.588   4.606   8.071  0.0339  0.0495 -0.9880
  765MOL0     C 3177   9.585   4.535   8.197 -0.1327 -0.7433 -0.3150
  765MOL0     C 3178   9.719   4.477   8.237  0.7584 -0.0847 -0.7405
  765MOL0     C 3179   9.845   4.572   8.234 -0.6537  0.8608 -0.6266
  765MOL0     C 3180   9.974   4.490   8.259  0.1395 -0.5271  0.1114
  765MOL0     C 3181  10.025   4.442   8.119  0.0277  0.0625  0.6831
  765MOL0     C 3182  10.157   4.364   8.124 -0.4944 -0.3232  0.0090
  765MOL0     C 3183  10.185   4.332   7.984  0.1667  0.2403  0.5086
  765MOL0    Cl 3184  10.237   4.480   7.892  0.2327  0.3567 -0.2555
  765MOL0     C 3185   9.505   4.637   7.780 -0.7916  0.4849 -0.0385
  765MOL0     C 3186   9.500   4.716   7.664 -0.7957  0.0408 -0.2203
  765MOL0     O 3187   9.416   5.129   7.583  0.1141 -0.5349 -0.0159
  765MOL0     C 3188   9.427   5.002   7.264  0.1710 -0.0681  0.7823
  765MOL0     C 3189   9.445   5.041   7.135 -0.3731  0.3397 -0.2961
  765MOL0     N 3190   9.513   5.102   6.252  0.5905 -0.7598 -0.1458
  765MOL0     N 3191   9.404   5.071   6.186  0.0831  0.7639 -0.0482
  765MOL0     C 3192   8.273   4.780   6.062  0.2316 -0.1906  0.2155
  765MOL0     C 3193   8.180   4.674   6.058 -0.8522  0.3544 -0.0317
  765MOL0     C 3194   8.005   4.251   6.112  1.2349  0.1625 -0.2208
  765MOL0     C 3195   7.886   4.322   6.122 -0.0121  0.1376 -0.5930
  765MOL0     C 3196   7.759   4.268   6.145 -1.2735  0.8177 -0.1086
  765MOL0     C 3197   7.750   4.130   6.157  0.4406 -0.1833 -1.0589
  765MOL0     O 3198   7.623   4.074   6.175 -0.0006  0.1340  0.3931
  765MOL0     C 3199   7.601   3.928   6.176  0.3466 -0.5154  0.1622
  765MOL0     C 3200   7.458   3.898   6.214  1.0323 -0.3826  0.3612
  765MOL0     C 3201   7.364   3.970   6.113  0.3891 -0.5365 -0.8070
  765MOL0     C 3202   7.236   3.882   6.095  0.4178  0.1501 -0.1241
  765MOL0     C 3203   7.164   3.921   5.972 -0.3533 -0.2222  0.7310
  765MOL0     C 3204   7.127   3.961   5.860 -0.7649  0.0177  0.5433
  765MOL0     C 3205   7.870   4.058   6.136 -0.7869  0.2448 -0.0158
  765MOL0     C 3206   8.001   4.111   6.128  0.1634  1.5717 -0.5976
  765MOL0     C 3207   8.120   4.027   6.132  0.0712  0.1820  0.2205
  765MOL0     H 3208   8.333   4.472   6.290 -0.5493  0.3286 -0.0510
  765MOL0     H 3209   8.499   4.649   6.277  0.2107  0.8078  1.6981
  765MOL0     H 3210   8.356   5.025   6.052 -0.6369 -1.4520  0.1424
  765MOL0     H 3211   8.484   5.089   6.141 -4.6055  1.8443  0.6504
  765MOL0     H 3212   8.487   5.046   5.876  2.6980  3.0916  0.9658
  765MOL0     H 3213   8.536   4.879   5.925  1.0940  0.1429 -0.0205
  765MOL0     H 3214   8.677   5.128   6.039 -1.8903  1.5786  0.2150
  765MOL0     H 3215   8.710   5.075   5.870 -1.4853 -1.6470 -0.5241
  765MOL0     H 3216   8.729   4.894   6.119 -1.1804 -0.7957 -0.6865
  765MOL0     H 3217   8.782   4.849   5.956  0.3415 -2.6520  2.4986
  765MOL0     H 3218   8.938   5.068   5.980  2.2858  0.6110  1.2048
  765MOL0     H 3219   8.891   5.085   6.133 -0.1296  0.3778 -1.4661
  765MOL0     H 3220   8.996   4.823   6.167 -0.9246 -1.0714 -1.2027
  765MOL0     H 3221   9.000   4.826   5.996  0.3295  0.2718 -0.3743
  765MOL0     H 3222   9.168   5.037   6.027 -0.6318 -1.1217 -1.7647
  765MOL0     H 3223   9.208   4.864   6.067 -0.0498 -1.3093  2.3977
  765MOL0     H 3224   9.122   5.071   6.253  0.2279 -0.2618 -0.2301
  765MOL0     H 3225   9.138   4.910   6.317 -1.5008  0.7578  0.1612
  765MOL0     H 3226   9.313   5.019   6.504  2.1954 -2.3523  1.3473
  765MOL0     H 3227   9.660   5.066   6.494 -2.5543 -2.2428 -2.1143
  765MOL0     H 3228   9.630   5.234   6.473  1.1199  0.8030 -0.4170
  765MOL0     H 3229   9.437   5.209   6.645  0.2937  0.0477 -2.0423
  765MOL0     H 3230   9.493   5.031   6.654  2.3145 -1.2109  0.5992
  765MOL0     H 3231   9.633   5.271   6.756 -0.9578 -0.1478 -0.0832
  765MOL0     H 3232   9.717   5.115   6.715 -0.5678 -1.3361  0.1139
  765MOL0     H 3233   9.694   5.123   6.946 -1.7013  0.8746  1.8882
  765MOL0     H 3234   9.578   5.009   6.896 -1.8430  0.3113  1.6295
  765MOL0     H 3235   9.533   5.366   7.186 -1.1953  0.0286 -1.0964
  765MOL0     H 3236   9.490   5.288   7.414  0.5622 -0.1574 -1.3228
  765MOL0     H 3237   9.325   4.987   7.791  1.0423 -0.2233  1.8102
  765MOL0     H 3238   9.341   4.865   7.988 -1.7959 -0.5693 -0.1369
  765MOL0     H 3239   9.634   4.535   8.002  0.3907 -0.6359 -0.0603
  765MOL0     H 3240   9.646   4.698   8.085  1.7200 -0.9290 -1.2473
  765MOL0     H 3241   9.548   4.609   8.268 -0.6896 -2.4913  1.2849
  765MOL0     H 3242   9.518   4.450   8.183  2.5222 -2.6546 -2.6035
  765MOL0     H 3243   9.709   4.439   8.339  0.4496  0.4405 -0.5736
  765MOL0     H 3244   9.735   4.394   8.167 -2.2837 -0.2219 -1.4297
  765MOL0     H 3245   9.841   4.647   8.313 -0.6275 -1.1311  1.3426
  765MOL0     H 3246   9.841   4.607   8.130 -1.0684 -2.4634 -1.8454
  765MOL0     H 3247   9.951   4.409   8.330  0.7904 -0.7563  0.0725
  765MOL0     H 3248  10.049   4.550   8.312 -0.9008 -1.7069  3.1295
  765MOL0     H 3249   9.949   4.374   8.078 -0.2775  2.4115 -3.1231
  765MOL0     H 3250  10.038   4.530   8.055 -0.0472  0.4762  1.2270
  765MOL0     H 3251  10.155   4.274   8.187 -2.6123 -0.5067 -0.2731
  765MOL0     H 3252  10.242   4.421   8.162  2.2882 -3.0867 -1.6089
  765MOL0     H 3253  10.265   4.258   7.989  1.7341  1.8237 -0.0295
  765MOL0     H 3254  10.096   4.290   7.937 -1.5699  0.2430  3.4837
  765MOL0     H 3255   9.559   4.543   7.780 -0.2073  0.8084 -0.6264
  765MOL0     H 3256   9.540   4.688   7.567 -0.8789 -0.0052 -0.2417
  765MOL0     H 3257   9.383   4.907   7.290  0.5432 -0.6894 -0.7167
  765MOL0     H 3258   9.416   4.964   7.064  2.4573 -0.9371 -0.1882
  765MOL0     H 3259   8.257   4.864   5.996 -0.9560 -0.8669 -0.3865
  765MOL0     H 3260   8.085   4.695   6.009 -1.5969 -2.2224  0.1704
  765MOL0     H 3261   7.885   4.430   6.118  1.8407  0.2113  0.0740
  765MOL0     H 3262   7.664   4.317   6.165 -2.0290 -1.2095  1.7570
  765MOL0     H 3263   7.675   3.894   6.249 -0.9534  2.5051  3.1612
  765MOL0     H 3264   7.628   3.892   6.076  0.5520  1.2995 -0.4668
  765MOL0     H 3265   7.431   3.939   6.312 -1.5582 -1.4057  0.1412
  765MOL0     H 3266   7.448   3.789   6.209  0.7844 -0.3429 -0.0527
  765MOL0     H 3267   7.419   3.984   6.020  0.5090  0.7319 -0.5580
  765MOL0     H 3268   7.327   4.065   6.152 -1.4292 -0.2438 -3.0146
  765MOL0     H 3269   7.256   3.775   6.092 -0.7338 -0.1577  1.4838
  765MOL0     H 3270   7.171   3.888   6.183  1.0009 -0.9614  0.3923
  765MOL0     H 3271   7.076   3.965   5.767  1.9931 -1.4451 -1.1661
  765MOL0     H 3272   7.868   3.951   6.115  2.8021  0.4214 -2.0355
  765MOL0     H 3273   8.102   3.927   6.170  0.7755 -1.1326 -2.6165
  765MOL0     H 3274   8.150   4.019   6.027  0.2176 -1.2409  0.3538
  765MOL0     H 3275   8.203   4.071   6.189  1.4027 -1.1490 -0.6140
  766MOL0     O 3276   1.857   5.198   9.183  0.1875  0.7103  0.5145
  766MOL0     C 3277   1.961   5.155   9.231  0.5633 -0.1644  0.8551
  766MOL0     O 3278   2.082   5.167   9.169 -0.3393 -0.5879  0.7208
  766MOL0     C 3279   2.085   5.240   9.048 -0.4962  0.4935 -0.5941
  766MOL0     C 3280   2.107   5.373   9.039 -0.4244 -0.1297 -0.0903
  766MOL0     C 3281   2.108   5.443   8.919  0.4606 -0.3848 -0.0526
  766MOL0     C 3282   2.090   5.371   8.794  0.7128 -0.6122 -0.2933
  766MOL0     O 3283   2.097   5.424   8.667  0.0825 -0.0190  0.7499
  766MOL0     C 3284   2.144   5.560   8.666 -0.1188  0.3431 -1.2879
  766MOL0     C 3285   2.130   5.609   8.520 -0.1073 -0.1689  0.3355
  766MOL0     C 3286   2.200   5.741   8.510 -0.6755 -0.0537  0.0180
  766MOL0     C 3287   2.180   5.809   8.377  0.4501  0.6253 -0.0679
  766MOL0     C 3288   2.264   5.938   8.368 -0.1943  0.2502  0.3912
  766MOL0     C 3289   2.236   6.043   8.256  0.1798 -0.8493  0.4017
  766MOL0     C 3290   2.230   5.983   8.121  1.0480 -0.3470  0.6368
  766MOL0     C 3291   2.212   6.071   7.999  0.1297  0.1782  0.9570
  766MOL0     N 3292   2.341   6.136   7.966 -0.4919 -0.4641  0.3389
  766MOL0     C 3293   2.471   6.080   7.952  0.1863  0.7066 -0.0086
  766MOL0     C 3294   2.556   6.179   7.938 -0.0743  0.4608  0.9039
  766MOL0     C 3295   2.698   6.148   7.884  0.7274  0.1739  0.1845
  766MOL0     C 3296   2.708   6.048   7.777  0.1084  0.0715 -0.6163
  766MOL0     C 3297   2.651   6.103   7.645 -0.0707  1.1914 -0.3046
  766MOL0     C 3298   2.760   6.176   7.558 -0.1505 -0.2502 -0.2147
  766MOL0     O 3299   2.834   6.079   7.483 -1.2225  0.9029 -0.4307
  766MOL0     C 3300   2.928   6.131   7.393  0.1138 -0.0047  0.3796
  766MOL0     C 3301   3.002   6.043   7.317 -0.3538  0.0712  0.1941
  766MOL0     C 3302   3.083   6.082   7.209  0.4632  0.3754 -0.5518
  766MOL0     C 3303   3.116   6.220   7.198 -0.6006 -0.5389  0.1224
  766MOL0     C 3304   3.221   6.264   7.106  0.1470  0.1621 -0.9925
  766MOL0     O 3305   3.278   6.389   7.136 -1.2084 -0.4150  0.4781
  766MOL0     C 3306   3.403   6.415   7.073 -0.1667  0.0633 -0.4053
  766MOL0     C 3307   3.423   6.543   7.031  0.4025 -1.1810  0.0113
  766MOL0     C 3308   3.546   6.584   6.987  0.6479  0.5961  0.1491
  766MOL0     C 3309   3.643   6.496   6.980  0.5028 -0.4274  0.6075
  766MOL0     O 3310   3.774   6.542   6.963 -0.1988  0.6053  0.2623
  766MOL0     C 3311   3.816   6.574   6.832 -0.7423  0.7918  0.2778
  766MOL0     C 3312   3.963   6.609   6.834 -0.2943 -0.0611  0.9784
  766MOL0     C 3313   4.065   6.494   6.870  0.0561 -0.4334  0.0963
  766MOL0     C 3314   4.051   6.353   6.811 -0.7217  0.3640  0.4512
  766MOL0     C 3315   4.084   6.350   6.659  0.2828 -0.8678  0.0544
  766MOL0     C 3316   4.045   6.214   6.614  0.3998  0.0257 -0.3067
  766MOL0     C 3317   4.054   6.213   6.460  1.5495  0.0838  0.0364
  766MOL0     C 3318   3.937   6.285   6.380 -0.3020  0.6889 -0.2500
  766MOL0    Cl 3319   3.770   6.215   6.393 -0.1488  0.4441  0.3463
  766MOL0     C 3320   3.625   6.369   7.010 -1.1154  1.1383  0.4868
  766MOL0     C 3321   3.507   6.320   7.050 -0.2375 -0.6898 -0.4627
  766MOL0     O 3322   3.251   6.190   7.010  0.0992  0.0731 -0.4340
  766MOL0     C 3323   3.060   6.311   7.294  0.1275 -0.2817  0.4352
  766MOL0     C 3324   2.967   6.268   7.382 -0.4491 -0.9206  0.1210
  766MOL0     N 3325   2.483   6.299   7.954 -0.0369 -0.1825 -0.4576
  766MOL0     N 3326   2.362   6.273   7.961 -0.1696 -0.0803  0.0556
  766MOL0     C 3327   2.065   5.235   8.816 -0.2434  0.2483  0.3104
  766MOL0     C 3328   2.059   5.163   8.935 -0.9406 -0.1800  0.6697
  766MOL0     C 3329   1.938   5.073   9.353 -0.5247 -0.5649 -0.2665
  766MOL0     C 3330   1.797   5.053   9.397  0.0265  0.9414  0.1635
  766MOL0     C 3331   1.769   4.980   9.513  0.2966 -0.8143 -0.4436
  766MOL0     C 3332   1.874   4.919   9.574 -0.2366  1.4001  0.2215
  766MOL0     O 3333   1.846   4.839   9.680  0.1944 -0.9642 -0.7075
  766MOL0     C 3334   1.718   4.766   9.677 -0.2448  0.8018  0.5466
  766MOL0     C 3335   1.725   4.658   9.785  0.8632 -1.1128 -0.1293
  766MOL0     C 3336   1.603   4.569   9.790 -0.1280  0.2354  0.1876
  766MOL0     C 3337   1.600   4.466   9.913 -0.9183 -0.0394 -0.1023
  766MOL0     C 3338   1.730   4.406   9.949  0.1514 -0.3353 -0.6759
  766MOL0     C 3339   1.837   4.348   9.985 -0.5417 -0.4672 -0.7982
  766MOL0     C 3340   2.007   4.937   9.538 -0.0939 -0.3002 -0.1500
  766MOL0     C 3341   2.040   5.017   9.432 -0.2126  0.6469 -0.0288
  766MOL0     C 3342   2.191   5.018   9.403 -0.3544  0.2234  0.0843
  766MOL0     H 3343   2.127   5.431   9.128 -1.0381 -2.0083  1.3222
  766MOL0     H 3344   2.117   5.551   8.923 -5.3444  0.4144 -0.2281
  766MOL0     H 3345   2.074   5.618   8.727  0.6383 -0.2376  0.2039
  766MOL0     H 3346   2.242   5.552   8.715  0.1013 -0.6468 -1.8689
  766MOL0     H 3347   2.025   5.613   8.490 -0.3842  3.2505  1.3564
  766MOL0     H 3348   2.181   5.543   8.449 -1.2280 -2.4816  1.5414
  766MOL0     H 3349   2.307   5.726   8.530 -0.7116 -2.4520 -1.2012
  766MOL0     H 3350   2.170   5.812   8.587 -2.2238 -1.1567  0.4578
  766MOL0     H 3351   2.188   5.751   8.285 -4.7858  0.7287 -0.9254
  766MOL0     H 3352   2.078   5.848   8.372  0.8239  1.5096 -1.5197
  766MOL0     H 3353   2.246   5.986   8.465  1.9595  2.5497 -0.2418
  766MOL0     H 3354   2.370   5.911   8.360 -0.2734 -1.2114  3.1745
  766MOL0     H 3355   2.143   6.097   8.276 -1.0004 -2.2800 -0.9565
  766MOL0     H 3356   2.313   6.120   8.268 -1.1962  0.6985 -0.3850
  766MOL0     H 3357   2.136   5.928   8.129  0.0039  1.6338  5.9372
  766MOL0     H 3358   2.315   5.917   8.108  0.8318 -1.0520  2.5202
  766MOL0     H 3359   2.180   6.008   7.915  0.4462 -0.1957  1.1124
  766MOL0     H 3360   2.126   6.137   8.012 -0.7398  0.6746 -4.6212
  766MOL0     H 3361   2.496   5.975   7.938  2.2627  1.0912  0.5143
  766MOL0     H 3362   2.754   6.235   7.848  2.6393 -1.3274 -0.6185
  766MOL0     H 3363   2.760   6.121   7.970  0.5651  1.6988  0.8089
  766MOL0     H 3364   2.807   6.004   7.764 -0.7566 -2.5621  0.7811
  766MOL0     H 3365   2.643   5.963   7.802 -0.5205  0.0312 -2.2821
  766MOL0     H 3366   2.578   6.182   7.665 -1.2873  0.9940 -3.4862
  766MOL0     H 3367   2.595   6.029   7.587  1.6441  0.2682 -0.8458
  766MOL0     H 3368   2.830   6.230   7.623  0.1582 -1.6519  0.6581
  766MOL0     H 3369   2.702   6.247   7.498  0.1183  0.0953 -0.0724
  766MOL0     H 3370   2.988   5.936   7.330 -0.6986  0.0284 -0.4764
  766MOL0     H 3371   3.118   5.999   7.148  1.8044 -0.5295  1.3340
  766MOL0     H 3372   3.343   6.616   7.032  2.0106  0.8332 -2.6139
  766MOL0     H 3373   3.585   6.683   6.966  0.7497  1.1678  2.7311
  766MOL0     H 3374   3.791   6.498   6.757 -1.1711  0.9078  0.3001
  766MOL0     H 3375   3.761   6.664   6.805 -1.5636 -0.0549 -1.0178
  766MOL0     H 3376   3.983   6.650   6.735 -1.7954 -0.0594  0.6571
  766MOL0     H 3377   3.974   6.701   6.893 -5.2895 -0.0829  2.3709
  766MOL0     H 3378   4.163   6.540   6.852 -1.3254  2.3549 -0.9243
  766MOL0     H 3379   4.053   6.462   6.974  0.9908 -0.5888  0.1643
  766MOL0     H 3380   3.946   6.332   6.833 -0.3956 -2.3283 -0.1715
  766MOL0     H 3381   4.121   6.281   6.855 -1.9163 -1.6801 -0.8556
  766MOL0     H 3382   4.185   6.385   6.640 -1.1034  2.9801 -1.2716
  766MOL0     H 3383   4.012   6.422   6.617  0.6137  0.6305  1.8913
  766MOL0     H 3384   4.114   6.144   6.662  1.6546  1.7594  0.5858
  766MOL0     H 3385   3.944   6.193   6.650 -0.1144  0.8528 -1.2037
  766MOL0     H 3386   4.054   6.110   6.423  0.4683  0.1777 -0.2823
  766MOL0     H 3387   4.149   6.258   6.431  0.4395  3.0573  0.6012
  766MOL0     H 3388   3.926   6.391   6.404  1.0366  1.5948 -3.1060
  766MOL0     H 3389   3.956   6.266   6.274 -2.0127 -0.4215 -0.3968
  766MOL0     H 3390   3.708   6.299   7.000 -2.9432 -0.8514 -2.0347
  766MOL0     H 3391   3.486   6.215   7.066 -0.7430 -0.2987  1.9159
  766MOL0     H 3392   3.088   6.415   7.278  1.2816 -0.7087 -0.3869
  766MOL0     H 3393   2.927   6.344   7.448  0.2554  1.7795 -2.3518
  766MOL0     H 3394   2.069   5.169   8.730  0.7004  1.1113 -0.3319
  766MOL0     H 3395   2.031   5.058   8.937 -3.2467  0.4002  0.9084
  766MOL0     H 3396   1.709   5.079   9.340 -0.3445  1.1345  0.8063
  766MOL0     H 3397   1.664   4.975   9.539  0.4783 -0.7143  0.3441
  766MOL0     H 3398   1.700   4.721   9.580 -1.2466 -0.2064  1.1721
  766MOL0     H 3399   1.637   4.838   9.690 -0.8476  0.2819 -0.2899
  766MOL0     H 3400   1.732   4.706   9.883  0.7089  0.5020 -0.8633
  766MOL0     H 3401   1.808   4.588   9.771  0.5738 -1.2925 -0.9945
  766MOL0     H 3402   1.605   4.515   9.695 -1.2496  4.5198 -2.5792
  766MOL0     H 3403   1.521   4.641   9.778  0.6357  1.6892  2.8754
  766MOL0     H 3404   1.555   4.517   9.998  0.9745  1.2459  0.2103
  766MOL0     H 3405   1.534   4.381   9.894 -0.9251  0.0065 -0.2849
  766MOL0     H 3406   1.913   4.285  10.025  1.9278 -1.0662 -5.6864
  766MOL0     H 3407   2.090   4.892   9.591  0.8830  1.0500 -0.4901
  766MOL0     H 3408   2.259   4.985   9.483  2.0343  1.3107 -1.3669
  766MOL0     H 3409   2.204   4.949   9.319 -1.6392 -2.1345  1.6843
  766MOL0     H 3410   2.222   5.120   9.380  1.2878  0.1160  1.5503
  767MOL0     O 3411   1.687   1.564   3.602  0.3266  0.2842 -0.2968
  767MOL0     C 3412   1.730   1.660   3.670  0.6810 -0.2733  0.8464
  767MOL0     O 3413   1.662   1.767   3.704 -0.2869  0.0081 -0.1162
  767MOL0     C 3414   1.520   1.766   3.706  0.0781  0.0212 -0.0819
  767MOL0     C 3415   1.463   1.758   3.830  0.1175  0.0359  0.4080
  767MOL0     C 3416   1.325   1.752   3.841 -0.2846  0.4233  1.0462
  767MOL0     C 3417   1.245   1.747   3.723 -0.5769  0.8267 -0.0533
  767MOL0     O 3418   1.111   1.744   3.716 -1.0000 -0.4838  0.0907
  767MOL0     C 3419   1.045   1.778   3.828  0.3857 -0.0864  0.8689
  767MOL0     C 3420   0.895   1.783   3.785 -0.5659 -0.1831 -0.1091
  767MOL0     C 3421   0.840   1.648   3.744 -0.0378  0.3252 -0.5983
  767MOL0     C 3422   0.712   1.667   3.665 -0.5601 -0.3249  0.5095
  767MOL0     C 3423   0.601   1.725   3.759  0.4197  0.8927 -0.8705
  767MOL0     C 3424   0.469   1.652   3.724 -0.0166 -0.7926  0.5596
  767MOL0     C 3425   0.419   1.696   3.583 -0.0370  0.3345  0.0956
  767MOL0     C 3426   0.347   1.825   3.607 -0.1127  0.0944  1.0444
  767MOL0     N 3427   0.258   1.856   3.498 -0.5236  0.0895  0.4105
  767MOL0     C 3428   0.119   1.851   3.501  0.2512 -0.0344 -0.4312
  767MOL0     C 3429   0.080   1.900   3.385  0.1821 -0.2329  0.0241
  767MOL0     C 3430  -0.064   1.920   3.350 -0.6634  0.2144 -0.3070
  767MOL0     C 3431  -0.151   1.795   3.331  0.3517  1.0809  0.4561
  767MOL0     C 3432  -0.263   1.826   3.236  0.0907 -0.1797  0.0989
  767MOL0     C 3433  -0.348   1.696   3.206  0.2870 -0.3034  0.3466
  767MOL0     O 3434  -0.416   1.663   3.323  0.7859  0.1313  0.1462
  767MOL0     C 3435  -0.540   1.705   3.337 -0.0128 -1.5414 -0.4048
  767MOL0     C 3436  -0.607   1.798   3.255  0.4512  0.4437  0.1618
  767MOL0     C 3437  -0.736   1.827   3.289  0.5207  0.0615 -0.1694
  767MOL0     C 3438  -0.806   1.758   3.391 -0.2463 -0.2394  0.4298
  767MOL0     C 3439  -0.950   1.789   3.417 -0.4912 -0.0294  0.4437
  767MOL0     O 3440  -1.006   1.715   3.516  1.1231 -0.0208 -0.6179
  767MOL0     C 3441  -1.130   1.767   3.564  0.0371  0.6967  0.0688
  767MOL0     C 3442  -1.235   1.675   3.594 -0.1776  0.6664 -0.1851
  767MOL0     C 3443  -1.354   1.714   3.648  0.3059  0.6384 -0.0054
  767MOL0     C 3444  -1.390   1.847   3.656 -0.1250  0.0893  0.2092
  767MOL0     O 3445  -1.516   1.900   3.676  0.4066 -0.1248 -0.0124
  767MOL0     C 3446  -1.620   1.823   3.731  0.8121  0.2358 -0.5237
  767MOL0     C 3447  -1.755   1.887   3.733  0.1342 -0.3289  0.5452
  767MOL0     C 3448  -1.869   1.797   3.779  0.4995  0.3321  0.0155
  767MOL0     C 3449  -2.002   1.840   3.718  0.6143  1.0729 -0.3072
  767MOL0     C 3450  -2.126   1.772   3.771 -0.0139 -0.7439  0.9438
  767MOL0     C 3451  -2.153   1.635   3.695 -1.0388 -1.4953  0.3598
  767MOL0     C 3452  -2.240   1.541   3.787  0.8847 -0.2296  0.3140
  767MOL0     C 3453  -2.319   1.438   3.714 -0.0874 -0.5363 -0.3258
  767MOL0    Cl 3454  -2.452   1.496   3.620  0.1279  0.0638 -0.3055
  767MOL0     C 3455  -1.293   1.941   3.617  0.2501 -0.8607 -0.8328
  767MOL0     C 3456  -1.167   1.903   3.572  0.4550  0.3461  0.3582
  767MOL0     O 3457  -0.996   1.870   3.344  0.8831  0.4235 -0.4759
  767MOL0     C 3458  -0.731   1.676   3.476  0.0246  0.0308 -0.4384
  767MOL0     C 3459  -0.598   1.652   3.448  0.2651  0.4611  0.4978
  767MOL0     N 3460   0.190   1.915   3.294  0.7160 -0.1297 -0.2171
  767MOL0     N 3461   0.292   1.895   3.370 -0.1890 -0.1442 -0.0436
  767MOL0     C 3462   1.303   1.762   3.601  0.8060 -0.4364  0.7490
  767MOL0     C 3463   1.440   1.773   3.590 -0.1620  0.6393  0.2509
  767MOL0     C 3464   1.869   1.643   3.718  0.5835  0.0174  0.6885
  767MOL0     C 3465   1.904   1.507   3.754 -0.1641 -0.3081 -0.4885
  767MOL0     C 3466   2.034   1.487   3.802 -0.1776  0.3983 -0.5824
  767MOL0     C 3467   2.119   1.588   3.841 -0.5795  0.5601 -0.0919
  767MOL0     O 3468   2.230   1.566   3.925  0.7595 -0.0752  0.3886
  767MOL0     C 3469   2.279   1.436   3.935  0.3632 -0.1565 -0.2306
  767MOL0     C 3470   2.207   1.367   4.048 -0.5688  0.2716 -0.0913
  767MOL0     C 3471   2.264   1.224   4.055  0.5672  0.3030  0.1623
  767MOL0     C 3472   2.176   1.143   4.154  0.1315  0.5174  0.2696
  767MOL0     C 3473   2.064   1.087   4.073 -0.1149  0.1821 -0.2779
  767MOL0     C 3474   1.956   1.068   4.020  0.3260  0.4780  0.6369
  767MOL0     C 3475   2.083   1.720   3.803 -0.3212 -0.5320  0.6989
  767MOL0     C 3476   1.961   1.752   3.742 -0.7127  0.0737  0.6339
  767MOL0     C 3477   1.939   1.895   3.694 -0.3058 -0.5186 -0.2004
  767MOL0     H 3478   1.537   1.764   3.909  1.2743  1.2081 -0.7203
  767MOL0     H 3479   1.287   1.734   3.941 -0.2554  1.9319  1.3553
  767MOL0     H 3480   1.065   1.700   3.901  0.8351  0.4517  1.3368
  767MOL0     H 3481   1.082   1.869   3.877  0.2196 -0.1899  1.1919
  767MOL0     H 3482   0.885   1.861   3.709  6.0239  1.8844  0.5385
  767MOL0     H 3483   0.837   1.828   3.866 -0.4906  2.4767 -1.4198
  767MOL0     H 3484   0.827   1.592   3.837 -0.7930  1.3319 -0.0692
  767MOL0     H 3485   0.920   1.607   3.683  2.6070  2.9352  0.8706
  767MOL0     H 3486   0.718   1.732   3.577  0.4216  1.7469  2.0138
  767MOL0     H 3487   0.669   1.575   3.624 -2.7659  1.7400 -2.2341
  767MOL0     H 3488   0.619   1.696   3.863 -3.2178 -0.3681 -0.4747
  767MOL0     H 3489   0.590   1.834   3.760  0.3564  0.9054  1.5487
  767MOL0     H 3490   0.496   1.546   3.717  0.5322 -0.8032  2.3244
  767MOL0     H 3491   0.391   1.657   3.800 -3.9325  1.1243 -3.1461
  767MOL0     H 3492   0.350   1.618   3.548 -0.3669  0.8588 -0.4344
  767MOL0     H 3493   0.498   1.701   3.507 -0.7177  0.3526 -0.6285
  767MOL0     H 3494   0.296   1.826   3.704  1.5300  0.8909  1.9508
  767MOL0     H 3495   0.418   1.908   3.613 -0.9822  1.2912 -2.5488
  767MOL0     H 3496   0.047   1.824   3.577  2.4895 -2.2537  1.0676
  767MOL0     H 3497  -0.102   1.977   3.435  3.1727 -0.8824  2.4258
  767MOL0     H 3498  -0.066   1.991   3.266 -0.2712  5.4126  3.5666
  767MOL0     H 3499  -0.086   1.719   3.286  0.2292  1.6247 -0.6677
  767MOL0     H 3500  -0.200   1.759   3.422 -3.3767  0.0744 -1.7118
  767MOL0     H 3501  -0.228   1.868   3.141 -0.5348  3.3372  1.2876
  767MOL0     H 3502  -0.333   1.896   3.282  1.2846  0.4773  0.9849
  767MOL0     H 3503  -0.285   1.612   3.176  0.9177 -0.5111  2.1449
  767MOL0     H 3504  -0.411   1.715   3.118  2.8462  1.1518 -1.3154
  767MOL0     H 3505  -0.570   1.842   3.163 -1.8430  0.6029 -0.7657
  767MOL0     H 3506  -0.783   1.899   3.223  0.9849 -1.0993 -1.8351
  767MOL0     H 3507  -1.201   1.572   3.595  1.5414  1.1690  2.1429
  767MOL0     H 3508  -1.429   1.637   3.657 -1.0257  1.7123 -1.3046
  767MOL0     H 3509  -1.625   1.730   3.673  1.8833  1.2221 -2.2823
  767MOL0     H 3510  -1.591   1.783   3.829  1.4967 -1.2397 -1.2894
  767MOL0     H 3511  -1.749   1.974   3.800  0.8548 -0.6385  0.8896
  767MOL0     H 3512  -1.778   1.914   3.629  2.6061  1.9560  0.4808
  767MOL0     H 3513  -1.853   1.690   3.763  0.7500  0.4488 -0.5492
  767MOL0     H 3514  -1.872   1.805   3.888 -0.5072 -0.9058  0.1096
  767MOL0     H 3515  -2.006   1.829   3.609 -0.9733 -1.1186 -0.1066
  767MOL0     H 3516  -2.020   1.945   3.743 -2.5838  0.4385  0.5381
  767MOL0     H 3517  -2.210   1.837   3.744 -0.6534 -1.7466  0.5030
  767MOL0     H 3518  -2.121   1.769   3.880  0.1335  1.3281  1.0372
  767MOL0     H 3519  -2.204   1.660   3.602 -2.7868 -1.0506  1.3873
  767MOL0     H 3520  -2.052   1.595   3.681 -0.9297 -0.7090 -1.3522
  767MOL0     H 3521  -2.322   1.604   3.825 -2.8754 -4.2479 -0.2879
  767MOL0     H 3522  -2.180   1.489   3.862 -2.9625 -2.4253  2.1841
  767MOL0     H 3523  -2.252   1.362   3.673  1.6299 -0.1317  1.5561
  767MOL0     H 3524  -2.363   1.373   3.790  0.8612 -1.9360 -0.9176
  767MOL0     H 3525  -1.313   2.047   3.615 -2.9926 -1.3544 -0.1821
  767MOL0     H 3526  -1.100   1.986   3.554  0.0590  0.6708  0.3727
  767MOL0     H 3527  -0.783   1.624   3.556 -1.3832  0.5836 -0.9606
  767MOL0     H 3528  -0.547   1.576   3.506  0.9599  0.3299 -0.2683
  767MOL0     H 3529   1.229   1.771   3.522  1.3060  1.8571  0.4664
  767MOL0     H 3530   1.492   1.782   3.495  0.4517 -0.6212  0.4498
  767MOL0     H 3531   1.837   1.423   3.746 -0.0720 -0.7489  2.3606
  767MOL0     H 3532   2.051   1.384   3.829  0.7790  0.3383 -1.3726
  767MOL0     H 3533   2.385   1.434   3.963  1.1334 -2.1348 -2.8321
  767MOL0     H 3534   2.262   1.384   3.840  1.2501 -0.3570 -0.2947
  767MOL0     H 3535   2.102   1.357   4.021 -0.2158  0.6315 -1.7191
  767MOL0     H 3536   2.222   1.405   4.149 -0.4192 -1.3536  0.5287
  767MOL0     H 3537   2.365   1.240   4.094  0.3827  2.0558 -0.0029
  767MOL0     H 3538   2.277   1.171   3.960  3.5740  1.6236 -0.2573
  767MOL0     H 3539   2.245   1.072   4.200 -0.8040 -0.0663  0.7996
  767MOL0     H 3540   2.150   1.206   4.239 -0.2384  0.1900  0.3999
  767MOL0     H 3541   1.860   1.039   3.983 -0.1719  0.4509  1.9009
  767MOL0     H 3542   2.154   1.798   3.828 -0.7739  0.1852 -0.1853
  767MOL0     H 3543   2.025   1.934   3.640 -0.6175 -1.5392 -1.4836
  767MOL0     H 3544   1.860   1.888   3.619 -0.4820  1.4751 -0.2628
  767MOL0     H 3545   1.913   1.968   3.771  1.4472  2.1341 -1.9611
  768MOL0     O 3546   4.598   7.065   4.938  0.4059 -0.0504  0.4799
  768MOL0     C 3547   4.541   7.178   4.941  0.2100  0.5466  0.3065
  768MOL0     O 3548   4.592   7.295   4.939 -0.9062 -0.5561  0.4603
  768MOL0     C 3549   4.730   7.284   4.969  1.2144 -0.2719  0.2000
  768MOL0     C 3550   4.827   7.304   4.868  0.6201  0.0294  0.4161
  768MOL0     C 3551   4.967   7.299   4.891 -0.2523  0.6718  0.6816
  768MOL0     C 3552   5.014   7.257   5.013 -0.4745 -0.4803 -0.1395
  768MOL0     O 3553   5.144   7.231   5.038  0.3437 -0.0480 -0.7186
  768MOL0     C 3554   5.247   7.301   4.971 -0.3478 -0.1617  0.9212
  768MOL0     C 3555   5.392   7.280   5.019  0.5483  0.0193 -0.2344
  768MOL0     C 3556   5.438   7.139   4.975  0.6322 -0.3485  1.0390
  768MOL0     C 3557   5.578   7.113   5.042 -0.0956 -0.5581 -0.8642
  768MOL0     C 3558   5.627   6.974   5.050  1.0036  0.3255 -0.3224
  768MOL0     C 3559   5.774   6.964   5.095 -0.4156  1.0385 -0.6219
  768MOL0     C 3560   5.837   6.822   5.091  0.0804  0.4522  0.9321
  768MOL0     C 3561   5.779   6.727   5.194  0.2884 -0.3297  0.3283
  768MOL0     N 3562   5.777   6.588   5.154  0.7603 -0.7237  0.8935
  768MOL0     C 3563   5.718   6.530   5.046 -0.5120  0.4048 -0.3235
  768MOL0     C 3564   5.739   6.400   5.046 -0.6034  0.1194 -0.1633
  768MOL0     C 3565   5.678   6.309   4.939 -0.0331 -0.1155  0.0627
  768MOL0     C 3566   5.619   6.182   5.002 -0.6851  0.5022 -0.2018
  768MOL0     C 3567   5.567   6.088   4.891  0.3950  0.3181 -0.2300
  768MOL0     C 3568   5.594   5.940   4.925  0.1799 -0.6480  0.5095
  768MOL0     O 3569   5.562   5.847   4.819 -0.0237  0.1746  0.2678
  768MOL0     C 3570   5.425   5.818   4.796 -0.6147  0.2193 -0.1421
  768MOL0     C 3571   5.399   5.738   4.685 -0.3250  1.1653  0.3502
  768MOL0     C 3572   5.270   5.712   4.651  0.2974 -0.3262  1.4432
  768MOL0     C 3573   5.156   5.746   4.723 -0.3700 -0.6100 -0.6443
  768MOL0     C 3574   5.023   5.711   4.675  0.4431 -0.4943  0.1887
  768MOL0     O 3575   4.922   5.734   4.755  0.2003  0.0466  0.7060
  768MOL0     C 3576   4.802   5.678   4.732 -0.2291  0.4966 -0.7193
  768MOL0     C 3577   4.789   5.532   4.713  0.4217 -0.5369 -0.2642
  768MOL0     C 3578   4.675   5.483   4.655  0.2186 -0.6391 -0.3749
  768MOL0     C 3579   4.569   5.569   4.628 -0.1912  0.2051  0.0955
  768MOL0     O 3580   4.460   5.504   4.578 -0.0354  0.8521  0.0222
  768MOL0     C 3581   4.393   5.558   4.457  0.4336  0.5105  0.2055
  768MOL0     C 3582   4.300   5.461   4.374 -0.0926  0.7004 -0.4352
  768MOL0     C 3583   4.261   5.334   4.436 -0.1509  0.5143 -0.1075
  768MOL0     C 3584   4.186   5.371   4.568 -0.3526 -0.2376 -0.7358
  768MOL0     C 3585   4.121   5.246   4.627 -0.1939  0.5881  0.4858
  768MOL0     C 3586   4.068   5.274   4.767 -0.2378  0.1550 -0.0855
  768MOL0     C 3587   4.041   5.144   4.829  0.1870  0.2606 -0.2192
  768MOL0     C 3588   4.167   5.083   4.895  0.1545 -0.6096 -0.2866
  768MOL0    Cl 3589   4.180   5.176   5.051 -0.0169  0.0218  0.4133
  768MOL0     C 3590   4.583   5.706   4.657 -0.5941  0.8492  0.2923
  768MOL0     C 3591   4.699   5.758   4.705  0.2978  0.0247  0.2519
  768MOL0     O 3592   5.014   5.665   4.559  0.4693 -0.0785 -0.2310
  768MOL0     C 3593   5.182   5.814   4.841 -0.0530  0.0505  0.3242
  768MOL0     C 3594   5.314   5.853   4.877  0.8017  0.0307 -0.3060
  768MOL0     N 3595   5.794   6.371   5.172 -0.1914  0.0803 -0.3154
  768MOL0     N 3596   5.817   6.482   5.229  0.6100 -0.2440 -0.5428
  768MOL0     C 3597   4.918   7.226   5.113 -0.7246 -0.2774  0.9141
  768MOL0     C 3598   4.786   7.248   5.086 -0.6745  0.3295 -0.4863
  768MOL0     C 3599   4.397   7.172   4.927  0.1506  0.0986  0.2946
  768MOL0     C 3600   4.345   7.228   4.811 -0.1290  0.3339  0.1651
  768MOL0     C 3601   4.209   7.253   4.791  0.3880  0.1758 -0.3994
  768MOL0     C 3602   4.114   7.204   4.888 -0.7585 -1.3041  0.2158
  768MOL0     O 3603   3.980   7.231   4.876  0.7715  0.0784  0.4787
  768MOL0     C 3604   3.886   7.198   4.976  0.4696  1.5639 -0.1361
  768MOL0     C 3605   3.737   7.202   4.925  0.4353  0.3990 -0.0342
  768MOL0     C 3606   3.638   7.274   5.019  0.4827 -0.7400  0.5433
  768MOL0     C 3607   3.655   7.419   5.006  0.3714 -0.3414  0.4537
  768MOL0     C 3608   3.635   7.490   5.129 -0.1100 -0.3641 -0.7939
  768MOL0     C 3609   3.605   7.562   5.218  0.8292 -1.0822 -0.5769
  768MOL0     C 3610   4.171   7.164   5.013 -0.3744 -0.1485 -0.3965
  768MOL0     C 3611   4.311   7.153   5.037  0.7173 -0.5369  0.3068
  768MOL0     C 3612   4.362   7.121   5.179  0.3542  1.2868  0.8028
  768MOL0     H 3613   4.779   7.326   4.773  1.8840  0.5167 -0.1257
  768MOL0     H 3614   5.037   7.320   4.811  1.6750 -1.1390  1.7974
  768MOL0     H 3615   5.233   7.269   4.868 -2.2340 -1.0254  1.4065
  768MOL0     H 3616   5.217   7.406   4.967 -3.2720 -0.8879  1.2341
  768MOL0     H 3617   5.386   7.297   5.127 -1.3901 -2.7489  0.1733
  768MOL0     H 3618   5.459   7.355   4.974  0.5246  0.5342  0.5648
  768MOL0     H 3619   5.445   7.131   4.867  0.6932 -0.5944  1.0610
  768MOL0     H 3620   5.358   7.072   5.009 -0.9649 -2.0644 -5.0060
  768MOL0     H 3621   5.653   7.174   4.990 -1.5013  1.6369 -0.4590
  768MOL0     H 3622   5.573   7.158   5.142  1.4192 -0.3011 -0.8845
  768MOL0     H 3623   5.564   6.936   5.132  0.4320  1.4594 -0.2182
  768MOL0     H 3624   5.615   6.927   4.952 -0.0611 -2.2282  0.9430
  768MOL0     H 3625   5.829   7.027   5.024 -0.1295 -0.6469 -1.9669
  768MOL0     H 3626   5.789   6.995   5.199  3.4004  0.1842 -0.7713
  768MOL0     H 3627   5.945   6.835   5.095 -0.0473  1.4174  1.3777
  768MOL0     H 3628   5.809   6.778   4.995  0.8799  3.5602 -0.8708
  768MOL0     H 3629   5.838   6.744   5.285 -0.2977  1.7830  0.3772
  768MOL0     H 3630   5.673   6.745   5.216  0.0315 -0.1008 -1.0425
  768MOL0     H 3631   5.694   6.588   4.958  0.1518  0.1377 -0.6809
  768MOL0     H 3632   5.591   6.349   4.885 -0.0585 -2.4845 -1.7913
  768MOL0     H 3633   5.756   6.284   4.867  1.4742  4.6598 -0.3180
  768MOL0     H 3634   5.707   6.138   5.049 -1.1508  0.5123  0.6924
  768MOL0     H 3635   5.537   6.206   5.069  0.2089  2.0736  0.3903
  768MOL0     H 3636   5.604   6.125   4.795  1.0316  4.5225  1.4506
  768MOL0     H 3637   5.461   6.113   4.875 -0.0771 -0.2220  1.7642
  768MOL0     H 3638   5.542   5.911   5.017  2.3108  1.2123  2.4290
  768MOL0     H 3639   5.701   5.931   4.946  0.3362  4.2288  3.2468
  768MOL0     H 3640   5.481   5.722   4.616 -1.2609 -2.3812 -0.1584
  768MOL0     H 3641   5.262   5.661   4.555 -2.5173  0.5317  1.1371
  768MOL0     H 3642   4.862   5.459   4.747 -1.7855 -2.7989 -0.1714
  768MOL0     H 3643   4.648   5.381   4.628  2.7184 -2.0248  1.8855
  768MOL0     H 3644   4.338   5.645   4.493  0.5158  0.7609 -0.2727
  768MOL0     H 3645   4.462   5.602   4.385  0.7668  3.0526  1.9738
  768MOL0     H 3646   4.219   5.524   4.339 -0.3888  1.6809  1.8635
  768MOL0     H 3647   4.365   5.432   4.291  2.2759  2.4493  0.6838
  768MOL0     H 3648   4.204   5.263   4.374 -0.7214  1.3415 -0.5501
  768MOL0     H 3649   4.353   5.284   4.466  1.3800  4.3477  2.3024
  768MOL0     H 3650   4.114   5.452   4.554  1.5834  1.4483 -1.4610
  768MOL0     H 3651   4.265   5.393   4.641 -0.7312  1.4918 -0.8151
  768MOL0     H 3652   4.190   5.162   4.636 -0.1566  0.7512  1.8838
  768MOL0     H 3653   4.040   5.209   4.564 -0.1194 -0.3327  0.9248
  768MOL0     H 3654   4.135   5.337   4.825  2.7957 -0.0821 -3.0492
  768MOL0     H 3655   3.969   5.320   4.757 -1.9330 -2.7797  1.6091
  768MOL0     H 3656   3.996   5.072   4.760 -1.2607 -2.3903  3.1739
  768MOL0     H 3657   3.965   5.150   4.908 -0.4441  1.0063 -0.8639
  768MOL0     H 3658   4.146   4.978   4.919 -4.1338 -0.7971 -3.5369
  768MOL0     H 3659   4.249   5.066   4.825 -0.7531 -3.7887 -0.7746
  768MOL0     H 3660   4.498   5.770   4.639 -0.4587  1.1665  0.7749
  768MOL0     H 3661   4.710   5.865   4.716  0.6915  0.1215 -0.8983
  768MOL0     H 3662   5.105   5.830   4.916 -0.5830 -0.9211  0.0093
  768MOL0     H 3663   5.324   5.917   4.964 -5.1957  0.0178  0.7750
  768MOL0     H 3664   4.950   7.186   5.208 -1.4771 -0.3309  1.1474
  768MOL0     H 3665   4.721   7.212   5.166  0.3267 -0.0244  0.1877
  768MOL0     H 3666   4.420   7.251   4.736  0.5076  3.2880  1.5523
  768MOL0     H 3667   4.159   7.298   4.706 -0.5928 -1.2772 -0.6232
  768MOL0     H 3668   3.898   7.252   5.071 -0.8775 -1.2105  1.7854
  768MOL0     H 3669   3.899   7.098   5.020  1.3593  1.1487 -1.2818
  768MOL0     H 3670   3.702   7.099   4.924  0.5049  0.3527  0.9722
  768MOL0     H 3671   3.735   7.244   4.824  1.7824 -1.0416 -0.6950
  768MOL0     H 3672   3.663   7.241   5.121 -1.4654 -0.0393  1.2998
  768MOL0     H 3673   3.536   7.245   4.994 -0.5360  0.7717  2.5811
  768MOL0     H 3674   3.759   7.441   4.979  0.0712 -0.0451 -0.4882
  768MOL0     H 3675   3.590   7.461   4.929 -2.1425 -2.2494  1.3893
  768MOL0     H 3676   3.565   7.625   5.295  2.2749 -0.3588 -0.3839
  768MOL0     H 3677   4.108   7.140   5.098  0.1839 -0.0724  0.0518
  768MOL0     H 3678   4.283   7.153   5.248 -1.4066  2.4028 -1.5718
  768MOL0     H 3679   4.396   7.017   5.188 -0.5508  1.0110  1.1512
  768MOL0     H 3680   4.446   7.186   5.204  1.1491 -0.1665  2.0795
  769MOL0     O 3681  10.307   4.611   5.143  0.1251  0.7260 -0.7483
  769MOL0     C 3682  10.419   4.664   5.147  0.3815 -0.1872  0.6438
  769MOL0     O 3683  10.494   4.689   5.252 -0.3313  0.0340  0.3002
  769MOL0     C 3684  10.483   4.619   5.366  0.2681  0.2759  0.4049
  769MOL0     C 3685  10.435   4.692   5.478  0.8510 -0.4140  0.0343
  769MOL0     C 3686  10.420   4.624   5.589  0.2443 -0.0734  0.3339
  769MOL0     C 3687  10.442   4.496   5.601 -0.5428  0.2187 -1.0823
  769MOL0     O 3688  10.397   4.452   5.725 -0.5637 -0.4238  0.5372
  769MOL0     C 3689  10.485   4.370   5.796 -0.2709  0.0156  0.2171
  769MOL0     C 3690  10.422   4.326   5.927 -0.0054 -0.9905 -0.3253
  769MOL0     C 3691  10.537   4.262   6.002 -0.6365  0.8918 -0.7525
  769MOL0     C 3692  10.495   4.171   6.117  0.3144 -0.0936  0.4221
  769MOL0     C 3693  10.611   4.097   6.194 -0.3182  0.2451 -0.1584
  769MOL0     C 3694  10.738   4.179   6.204 -0.6641 -0.3868 -0.9179
  769MOL0     C 3695  10.850   4.116   6.286  0.0056 -0.2524 -0.3109
  769MOL0     C 3696  10.978   4.201   6.304 -0.1616 -0.8249 -1.3668
  769MOL0     N 3697  11.054   4.207   6.173 -0.0300  0.5856 -0.2187
  769MOL0     C 3698  11.049   4.102   6.083 -0.1954 -1.1857  0.4104
  769MOL0     C 3699  11.129   4.149   5.977  0.3090  0.1423  0.2649
  769MOL0     C 3700  11.188   4.087   5.849  0.6427 -0.2568  0.2154
  769MOL0     C 3701  11.287   3.971   5.869 -0.6534  0.7305 -0.8474
  769MOL0     C 3702  11.307   3.876   5.740  0.1810 -0.0110 -0.2851
  769MOL0     C 3703  11.413   3.771   5.750  0.0383 -0.5072 -0.2688
  769MOL0     O 3704  11.387   3.697   5.871  0.3655 -0.0306 -0.1467
  769MOL0     C 3705  11.466   3.582   5.905  1.0316 -0.3708 -0.2669
  769MOL0     C 3706  11.572   3.531   5.824 -0.6569  0.5675 -0.1441
  769MOL0     C 3707  11.636   3.410   5.857 -0.5063  0.2211 -0.1398
  769MOL0     C 3708  11.616   3.346   5.986 -0.1705  0.7047 -0.2464
  769MOL0     C 3709  11.680   3.215   6.012  0.4089  0.4289 -0.2535
  769MOL0     O 3710  11.797   3.218   5.943  0.6462  0.3971 -0.7655
  769MOL0     C 3711  11.872   3.097   5.922 -0.9572  0.4217 -0.3289
  769MOL0     C 3712  11.838   3.012   5.818  0.8497  0.2225 -0.0915
  769MOL0     C 3713  11.912   2.898   5.792  0.6367  0.5082 -0.6596
  769MOL0     C 3714  12.028   2.863   5.867 -0.9311  0.3956 -0.1276
  769MOL0     O 3715  12.115   2.769   5.816  0.3133  0.4210 -0.1202
  769MOL0     C 3716  12.243   2.752   5.882  0.5164  0.7079  0.1227
  769MOL0     C 3717  12.312   2.652   5.782  0.1890  0.3860 -2.0187
  769MOL0     C 3718  12.450   2.612   5.837 -0.1827  0.0774 -0.3028
  769MOL0     C 3719  12.564   2.702   5.780 -0.3604 -0.1130 -0.0300
  769MOL0     C 3720  12.704   2.658   5.830  0.2683  0.8976  0.7871
  769MOL0     C 3721  12.745   2.519   5.778  0.7029  0.2071 -0.6050
  769MOL0     C 3722  12.895   2.497   5.777 -0.1770 -0.4112  0.7954
  769MOL0     C 3723  12.923   2.351   5.802  0.0218 -0.8624  0.9935
  769MOL0    Cl 3724  13.103   2.319   5.764 -0.0746 -0.1488  0.3689
  769MOL0     C 3725  12.056   2.939   5.983 -0.4724 -0.0809 -0.7700
  769MOL0     C 3726  11.976   3.053   6.007  0.4590  0.4359 -0.1735
  769MOL0     O 3727  11.645   3.115   6.076 -0.7127  0.3112 -0.1317
  769MOL0     C 3728  11.512   3.397   6.067  0.6833  0.6010 -0.5476
  769MOL0     C 3729  11.437   3.501   6.023 -0.7230 -0.4403 -0.3451
  769MOL0     N 3730  11.167   4.283   6.008 -0.1742  0.7860  0.6285
  769MOL0     N 3731  11.115   4.318   6.124 -0.3608  0.1337 -0.7684
  769MOL0     C 3732  10.483   4.417   5.494  0.3501  0.6373 -0.4781
  769MOL0     C 3733  10.517   4.483   5.374 -0.6559  0.6229  0.2102
  769MOL0     C 3734  10.495   4.688   5.021  0.3993  0.3616 -0.0589
  769MOL0     C 3735  10.635   4.709   5.021 -0.0968  1.4254  0.3921
  769MOL0     C 3736  10.705   4.733   4.907  1.2691  0.0932 -0.8088
  769MOL0     C 3737  10.639   4.737   4.784 -0.0451  0.0785 -0.5966
  769MOL0     O 3738  10.692   4.748   4.663  0.1743 -0.3665  0.0493
  769MOL0     C 3739  10.824   4.790   4.635  0.8387  0.2812 -0.2349
  769MOL0     C 3740  10.850   4.810   4.486  0.3548 -0.9674 -0.0552
  769MOL0     C 3741  10.993   4.847   4.477  0.6663 -0.7246 -0.4788
  769MOL0     C 3742  11.032   4.926   4.352 -1.0669 -0.6076  0.6072
  769MOL0     C 3743  11.177   4.953   4.349 -0.3901 -0.9195  0.4048
  769MOL0     C 3744  11.300   4.959   4.350  0.7571  0.1589 -0.4324
  769MOL0     C 3745  10.506   4.717   4.779  0.3757 -0.9475  0.6932
  769MOL0     C 3746  10.432   4.681   4.892 -0.1693 -0.2362  1.0753
  769MOL0     C 3747  10.287   4.644   4.866  0.4579  0.2069 -0.8397
  769MOL0     H 3748  10.412   4.798   5.471 -1.5466 -0.7834  1.3937
  769MOL0     H 3749  10.379   4.683   5.670  0.6023  0.5947  0.0377
  769MOL0     H 3750  10.508   4.276   5.743 -2.6196 -0.4248 -0.1375
  769MOL0     H 3751  10.578   4.423   5.819  0.6376 -0.8882 -1.2000
  769MOL0     H 3752  10.345   4.253   5.901 -0.4824 -0.5404 -0.1728
  769MOL0     H 3753  10.388   4.404   5.996  3.0460 -2.3601  3.0677
  769MOL0     H 3754  10.595   4.344   6.044  0.8555  0.7537 -2.4025
  769MOL0     H 3755  10.611   4.219   5.934  0.6220  0.5970  0.7687
  769MOL0     H 3756  10.436   4.238   6.180 -1.3198  2.0465 -3.0892
  769MOL0     H 3757  10.430   4.099   6.066 -1.2100  1.1049  0.5907
  769MOL0     H 3758  10.575   4.106   6.297 -0.6538 -0.8942 -0.1605
  769MOL0     H 3759  10.631   3.994   6.165  0.1809  0.3684 -0.2511
  769MOL0     H 3760  10.778   4.206   6.106 -1.1890  1.3789 -0.6771
  769MOL0     H 3761  10.712   4.274   6.252  1.1114 -0.0578 -0.5334
  769MOL0     H 3762  10.869   4.019   6.240 -0.9733  0.0522 -1.3932
  769MOL0     H 3763  10.809   4.107   6.387 -2.4965  1.2978 -1.1213
  769MOL0     H 3764  10.943   4.299   6.339 -0.5089 -1.0053 -1.2082
  769MOL0     H 3765  11.033   4.156   6.388 -1.7069  0.1882  0.2533
  769MOL0     H 3766  11.008   4.002   6.088 -0.3635 -1.0700  1.4312
  769MOL0     H 3767  11.113   4.080   5.770 -0.6746  2.4112  1.1131
  769MOL0     H 3768  11.249   4.163   5.798 -1.4449  1.1336 -0.3170
  769MOL0     H 3769  11.382   3.997   5.916 -1.6722  0.4389  1.5002
  769MOL0     H 3770  11.240   3.907   5.944  0.6962  0.7416  0.0271
  769MOL0     H 3771  11.337   3.935   5.653 -2.9304  0.9546 -0.8537
  769MOL0     H 3772  11.217   3.817   5.717  1.1296 -1.1729 -1.0959
  769MOL0     H 3773  11.510   3.823   5.751 -0.0096 -0.4277  0.3484
  769MOL0     H 3774  11.405   3.705   5.663  0.0577 -0.3535 -0.3882
  769MOL0     H 3775  11.586   3.574   5.725  0.3418  2.1581  0.6624
  769MOL0     H 3776  11.703   3.376   5.778 -0.1567 -1.2009  0.7202
  769MOL0     H 3777  11.766   3.034   5.740  0.8537 -1.7842 -0.7190
  769MOL0     H 3778  11.887   2.858   5.694  2.6421 -1.6397 -0.4008
  769MOL0     H 3779  12.306   2.842   5.886  0.5433  0.7301 -0.7288
  769MOL0     H 3780  12.234   2.714   5.985 -2.3855  0.5385 -0.1139
  769MOL0     H 3781  12.248   2.565   5.801 -2.6554  2.7399  0.0685
  769MOL0     H 3782  12.311   2.694   5.681 -1.2665  1.8396 -1.4473
  769MOL0     H 3783  12.452   2.600   5.946 -0.6860 -0.7061 -0.3742
  769MOL0     H 3784  12.462   2.508   5.806 -0.0994 -0.8958  2.6693
  769MOL0     H 3785  12.553   2.803   5.821  4.1502  1.6860 -2.4464
  769MOL0     H 3786  12.571   2.711   5.671  2.1628  0.7227  0.1332
  769MOL0     H 3787  12.708   2.673   5.938  0.4007  2.5240  0.5919
  769MOL0     H 3788  12.771   2.729   5.781 -0.3223 -0.0375 -1.4929
  769MOL0     H 3789  12.698   2.439   5.836  2.2401  0.1351  0.6362
  769MOL0     H 3790  12.718   2.521   5.673  2.5709  0.5138 -1.1119
  769MOL0     H 3791  12.942   2.551   5.860 -0.4930 -0.1548  0.8076
  769MOL0     H 3792  12.936   2.531   5.682 -3.1466  0.7362 -0.1731
  769MOL0     H 3793  12.921   2.325   5.908  2.5418 -0.1233  1.2715
  769MOL0     H 3794  12.847   2.296   5.744  0.4419  0.7631 -1.2316
  769MOL0     H 3795  12.147   2.924   6.039 -0.2394 -0.5084 -1.2589
  769MOL0     H 3796  11.998   3.115   6.093 -2.8550 -0.9438  1.8876
  769MOL0     H 3797  11.498   3.339   6.158 -1.8187  3.7689  1.3048
  769MOL0     H 3798  11.357   3.524   6.092  1.7582  0.6369  2.4402
  769MOL0     H 3799  10.502   4.314   5.522 -0.7735  1.1355  2.5797
  769MOL0     H 3800  10.545   4.421   5.290 -0.8437 -1.4637  1.6026
  769MOL0     H 3801  10.692   4.694   5.112 -1.0242 -1.0692  0.6369
  769MOL0     H 3802  10.812   4.748   4.912  1.2044  1.2899 -2.1629
  769MOL0     H 3803  10.882   4.703   4.666  0.5558  0.7777  1.7980
  769MOL0     H 3804  10.848   4.881   4.690 -3.0287  0.3897  1.6022
  769MOL0     H 3805  10.790   4.893   4.446 -1.3230  0.8012  5.2182
  769MOL0     H 3806  10.826   4.724   4.424 -0.5047 -1.3648  0.7962
  769MOL0     H 3807  11.057   4.759   4.491  1.5446  0.2739  2.7624
  769MOL0     H 3808  11.008   4.921   4.557 -2.3233 -1.9335  1.3857
  769MOL0     H 3809  11.005   4.869   4.263  0.5739  0.8450 -0.9118
  769MOL0     H 3810  10.986   5.025   4.349  2.2994  1.1197 -3.5322
  769MOL0     H 3811  11.406   4.966   4.364  0.5004  1.4874  1.1816
  769MOL0     H 3812  10.468   4.728   4.678 -0.2190  0.6828  1.0707
  769MOL0     H 3813  10.268   4.543   4.902  0.4426  0.9184  1.2369
  769MOL0     H 3814  10.221   4.705   4.929  1.4386  2.5605 -1.9321
  769MOL0     H 3815  10.257   4.668   4.763 -2.1532  2.2362  0.2536
  770MOL0     O 3816   3.270   5.599   5.149  0.0275 -0.1242 -0.3219
  770MOL0     C 3817   3.204   5.515   5.090 -0.1461  0.3522  0.3898
  770MOL0     O 3818   3.093   5.549   5.009  0.9760 -0.0201 -0.5554
  770MOL0     C 3819   3.075   5.687   4.977 -0.7247 -0.1103 -0.1665
  770MOL0     C 3820   2.948   5.738   5.011  0.0851  0.3041 -0.7349
  770MOL0     C 3821   2.922   5.870   4.974  0.0374 -0.8179  0.2360
  770MOL0     C 3822   3.019   5.953   4.923 -0.0711 -0.6282 -0.2139
  770MOL0     O 3823   2.990   6.080   4.887 -0.5899 -0.5202 -0.0054
  770MOL0     C 3824   2.855   6.130   4.915  0.3097 -0.0656 -0.2556
  770MOL0     C 3825   2.860   6.283   4.870  0.2774  0.5831 -0.0765
  770MOL0     C 3826   2.735   6.362   4.914 -0.5666  0.4544 -0.3536
  770MOL0     C 3827   2.607   6.282   4.865 -0.5249 -0.4489  0.5517
  770MOL0     C 3828   2.505   6.388   4.844  0.2690  0.0059 -0.4511
  770MOL0     C 3829   2.471   6.458   4.972 -0.5911 -0.7250 -0.7800
  770MOL0     C 3830   2.344   6.534   4.964  0.4412  0.2554  0.7106
  770MOL0     C 3831   2.370   6.661   4.874 -0.3314  0.5943 -0.1606
  770MOL0     N 3832   2.473   6.760   4.931  0.2108 -0.4932  0.7319
  770MOL0     C 3833   2.481   6.797   5.062 -0.1246 -0.2302  0.3714
  770MOL0     C 3834   2.601   6.863   5.069  0.5971 -0.4996  0.2121
  770MOL0     C 3835   2.678   6.897   5.190 -0.8296 -0.2001  0.4517
  770MOL0     C 3836   2.761   6.788   5.254 -0.0655 -1.0024 -0.5373
  770MOL0     C 3837   2.889   6.755   5.180  0.7766 -0.6690 -0.2207
  770MOL0     C 3838   2.989   6.706   5.285 -0.1688  0.2852  0.4490
  770MOL0     O 3839   3.105   6.699   5.206 -0.4037  0.4022 -0.1326
  770MOL0     C 3840   3.162   6.577   5.195  0.1344  0.6823 -0.0336
  770MOL0     C 3841   3.124   6.473   5.115  0.2552  1.3441  0.1464
  770MOL0     C 3842   3.199   6.352   5.113  0.4242  0.3862  0.3972
  770MOL0     C 3843   3.309   6.333   5.191 -0.2951  0.1842  0.2852
  770MOL0     C 3844   3.394   6.205   5.173  1.1229  0.9358 -0.4168
  770MOL0     O 3845   3.378   6.133   5.053  0.4617 -0.3748  0.3152
  770MOL0     C 3846   3.482   6.063   5.016 -0.1396 -0.5294 -0.3495
  770MOL0     C 3847   3.572   6.109   4.923  0.6751 -0.8337  0.2142
  770MOL0     C 3848   3.682   6.034   4.873  0.3819  0.2397  0.9907
  770MOL0     C 3849   3.696   5.903   4.920  0.2435 -0.4481 -0.1617
  770MOL0     O 3850   3.796   5.810   4.896  1.0360  0.4684  0.5786
  770MOL0     C 3851   3.846   5.801   4.760  1.0987  0.1190 -0.7234
  770MOL0     C 3852   3.964   5.706   4.756  0.3843 -0.9918 -0.2190
  770MOL0     C 3853   4.079   5.771   4.841 -0.5042  0.0477  0.3194
  770MOL0     C 3854   4.188   5.664   4.863 -0.2292  0.3130  0.1268
  770MOL0     C 3855   4.329   5.716   4.906  0.3066 -0.4777 -0.9422
  770MOL0     C 3856   4.407   5.582   4.952 -0.8157  0.8615  0.4120
  770MOL0     C 3857   4.539   5.616   5.027  0.0474 -0.0761 -0.1908
  770MOL0     C 3858   4.594   5.482   5.077 -0.3636  1.1190  0.3955
  770MOL0    Cl 3859   4.727   5.543   5.175  0.1395  0.1610  0.0077
  770MOL0     C 3860   3.606   5.860   5.022 -0.6499  0.3323  0.3196
  770MOL0     C 3861   3.504   5.939   5.073 -0.8621 -0.8778 -0.1761
  770MOL0     O 3862   3.467   6.171   5.263  0.0452 -0.9327  0.2160
  770MOL0     C 3863   3.353   6.437   5.280  0.5247  0.5589  0.1479
  770MOL0     C 3864   3.271   6.555   5.278  0.0430 -0.1193 -0.3262
  770MOL0     N 3865   2.658   6.862   4.941  0.0624  0.0530  0.0361
  770MOL0     N 3866   2.582   6.803   4.864  0.1908  1.0493 -0.1283
  770MOL0     C 3867   3.151   5.908   4.910 -0.6482 -0.1348  0.0553
  770MOL0     C 3868   3.184   5.772   4.933  0.1822 -0.3915 -0.6610
  770MOL0     C 3869   3.257   5.371   5.096  0.0284 -0.8575  0.5556
  770MOL0     C 3870   3.329   5.326   5.210 -0.7050  0.4826 -0.6670
  770MOL0     C 3871   3.351   5.188   5.225 -0.0315  0.3431  0.0403
  770MOL0     C 3872   3.307   5.088   5.137 -0.2270  0.3011 -0.3890
  770MOL0     O 3873   3.346   4.960   5.162 -1.1124 -0.3036  0.2020
  770MOL0     C 3874   3.321   4.854   5.069  0.3731  0.2269 -0.2848
  770MOL0     C 3875   3.169   4.818   5.083 -0.6493  0.0159 -0.1359
  770MOL0     C 3876   3.149   4.714   4.978 -0.2491  0.3319  0.3043
  770MOL0     C 3877   3.009   4.651   4.973 -0.8058  1.2391 -0.0589
  770MOL0     C 3878   2.910   4.755   4.976  0.0824 -0.2351 -0.5461
  770MOL0     C 3879   2.835   4.847   4.980  0.0367  0.1620 -0.9180
  770MOL0     C 3880   3.250   5.135   5.022 -0.3901 -0.6083 -0.5056
  770MOL0     C 3881   3.218   5.273   5.008  0.8137  1.1116  0.2428
  770MOL0     C 3882   3.159   5.296   4.873 -0.4255  0.4730 -0.3527
  770MOL0     H 3883   2.873   5.684   5.068  0.6903  1.1990  0.9756
  770MOL0     H 3884   2.822   5.912   4.981  0.7488  1.1700 -0.8482
  770MOL0     H 3885   2.786   6.075   4.850  3.5143 -1.2781 -2.9219
  770MOL0     H 3886   2.831   6.122   5.022  0.6568  3.6405  0.2515
  770MOL0     H 3887   2.872   6.294   4.762  0.0614 -0.5045 -0.2172
  770MOL0     H 3888   2.952   6.319   4.917  1.6290 -2.0314 -0.5266
  770MOL0     H 3889   2.739   6.465   4.878  0.3645  0.8824  0.8935
  770MOL0     H 3890   2.720   6.376   5.022  1.8527 -2.1367  0.4342
  770MOL0     H 3891   2.630   6.259   4.760 -2.4063  0.6051 -0.1439
  770MOL0     H 3892   2.585   6.209   4.943  6.7618 -1.2477  2.5659
  770MOL0     H 3893   2.537   6.457   4.766 -0.9557  2.0754  0.7970
  770MOL0     H 3894   2.416   6.334   4.811 -1.2082  2.0097  0.0942
  770MOL0     H 3895   2.466   6.390   5.058 -0.8886  0.7608  0.4401
  770MOL0     H 3896   2.550   6.527   5.002 -1.4111 -0.0621 -0.0869
  770MOL0     H 3897   2.309   6.562   5.064  0.9000  3.1255  0.1765
  770MOL0     H 3898   2.260   6.491   4.910  0.5955  1.3982 -0.5076
  770MOL0     H 3899   2.393   6.635   4.770  1.0999 -0.9064  0.4782
  770MOL0     H 3900   2.273   6.712   4.869 -0.6378 -0.0853 -2.7835
  770MOL0     H 3901   2.410   6.777   5.142 -0.8078 -0.7206 -0.3535
  770MOL0     H 3902   2.739   6.984   5.165 -2.1176  0.3123 -1.0511
  770MOL0     H 3903   2.606   6.938   5.261  1.6604  1.0074  2.4553
  770MOL0     H 3904   2.802   6.835   5.344 -0.0475  0.3554 -1.2352
  770MOL0     H 3905   2.706   6.696   5.275  0.5471 -1.8328 -2.4281
  770MOL0     H 3906   2.933   6.841   5.131  0.1144  0.3198  0.8592
  770MOL0     H 3907   2.881   6.675   5.106 -1.1907  0.5023 -1.3666
  770MOL0     H 3908   2.958   6.607   5.320  0.2690 -0.2339 -0.5697
  770MOL0     H 3909   3.008   6.773   5.369  0.4795 -0.9556  1.3192
  770MOL0     H 3910   3.034   6.487   5.058  0.0279  0.5044  0.2750
  770MOL0     H 3911   3.166   6.276   5.043  0.0639 -1.3931  2.3875
  770MOL0     H 3912   3.559   6.205   4.873  0.2139 -0.0626  1.7539
  770MOL0     H 3913   3.753   6.091   4.814 -0.6699  0.4752 -0.0903
  770MOL0     H 3914   3.770   5.765   4.691  0.0745  0.9475 -0.0477
  770MOL0     H 3915   3.875   5.896   4.713  1.6771  1.1995  1.6411
  770MOL0     H 3916   3.936   5.614   4.807  0.1684 -1.0267 -0.3978
  770MOL0     H 3917   4.000   5.678   4.657 -0.1984 -0.0659 -0.7143
  770MOL0     H 3918   4.102   5.857   4.777 -1.9772  0.6183  0.5213
  770MOL0     H 3919   4.044   5.801   4.940  0.4751  0.8235  0.4428
  770MOL0     H 3920   4.201   5.597   4.778  1.8192 -0.1018  0.7008
  770MOL0     H 3921   4.147   5.605   4.947 -0.6875 -0.3399 -0.5435
  770MOL0     H 3922   4.332   5.790   4.988  1.5542 -3.2329  1.6914
  770MOL0     H 3923   4.364   5.754   4.810 -1.2942  0.9312 -1.0301
  770MOL0     H 3924   4.350   5.508   5.010 -1.8508  0.1816 -1.3867
  770MOL0     H 3925   4.437   5.524   4.865 -1.1872 -1.8182  1.9371
  770MOL0     H 3926   4.529   5.690   5.108 -0.1684  2.0690 -2.0862
  770MOL0     H 3927   4.614   5.657   4.959  0.4900 -0.3399  0.1318
  770MOL0     H 3928   4.526   5.428   5.143  2.5500  0.8183  3.4331
  770MOL0     H 3929   4.629   5.409   5.003 -0.8321 -0.8115  2.0092
  770MOL0     H 3930   3.623   5.766   5.072  0.7311 -0.2763 -1.1904
  770MOL0     H 3931   3.442   5.900   5.152 -0.2447  1.2801  1.4746
  770MOL0     H 3932   3.434   6.431   5.352 -1.2987 -0.7074  2.2239
  770MOL0     H 3933   3.313   6.633   5.341  3.4509  0.4956 -3.0589
  770MOL0     H 3934   3.223   5.975   4.864  0.2433 -1.5414 -0.6617
  770MOL0     H 3935   3.283   5.731   4.912 -0.0663 -0.7705 -1.1213
  770MOL0     H 3936   3.351   5.399   5.287 -1.1733 -0.2818  0.2139
  770MOL0     H 3937   3.402   5.155   5.315  2.1904 -0.9335 -1.5989
  770MOL0     H 3938   3.392   4.775   5.097  1.6722  1.5414  0.2532
  770MOL0     H 3939   3.346   4.878   4.965  1.2179 -0.0618 -0.1556
  770MOL0     H 3940   3.112   4.911   5.075 -0.8652 -0.2143 -1.5649
  770MOL0     H 3941   3.139   4.770   5.177 -0.0695  1.0411  0.5906
  770MOL0     H 3942   3.217   4.630   4.993  0.4294  0.8838  0.3457
  770MOL0     H 3943   3.170   4.746   4.876  2.9890 -3.6539 -0.5156
  770MOL0     H 3944   3.008   4.597   4.878 -0.3830  2.3890 -0.7319
  770MOL0     H 3945   2.992   4.578   5.053 -2.0865  1.9418  0.3414
  770MOL0     H 3946   2.779   4.936   4.998 -0.6032 -0.2829 -0.7076
  770MOL0     H 3947   3.222   5.059   4.951  0.4175 -1.6789  0.2834
  770MOL0     H 3948   3.213   5.241   4.795  1.1038 -3.1014  2.9350
  770MOL0     H 3949   3.053   5.268   4.865 -0.7995  0.1446  3.7336
  770MOL0     H 3950   3.149   5.402   4.846 -3.1904  0.7628  1.4102
  771MOL0     O 3951   2.625   7.058  10.538 -0.1568  0.0915 -0.0495
  771MOL0     C 3952   2.573   7.154  10.591  0.9098  0.5741 -0.0492
  771MOL0     O 3953   2.612   7.212  10.710  0.0497  0.0535  0.4995
  771MOL0     C 3954   2.716   7.144  10.766  0.6642 -0.3553  0.1812
  771MOL0     C 3955   2.702   7.034  10.853 -0.5250 -1.0827  0.4271
  771MOL0     C 3956   2.820   6.980  10.905  0.8133 -0.9392  0.5039
  771MOL0     C 3957   2.946   7.047  10.903 -0.2172 -0.3803  0.3833
  771MOL0     O 3958   3.054   7.010  10.983  0.1099  0.2158  0.6375
  771MOL0     C 3959   3.053   6.902  11.072  0.3765 -0.1334  0.2844
  771MOL0     C 3960   3.195   6.870  11.127  0.6742 -0.1140  0.9175
  771MOL0     C 3961   3.316   6.820  11.035 -0.0271 -1.1290  0.2441
  771MOL0     C 3962   3.284   6.706  10.941 -0.4055 -0.5311 -0.8906
  771MOL0     C 3963   3.410   6.649  10.860  0.4010 -0.1815 -0.0199
  771MOL0     C 3964   3.531   6.615  10.948 -0.4177  1.2869 -0.0033
  771MOL0     C 3965   3.517   6.486  11.043  0.3826 -0.3915 -0.7843
  771MOL0     C 3966   3.631   6.483  11.147 -0.1453 -0.3402 -0.0077
  771MOL0     N 3967   3.770   6.472  11.103  0.4673  0.0746  0.6157
  771MOL0     C 3968   3.877   6.526  11.161 -0.8493 -0.6918  0.1597
  771MOL0     C 3969   3.987   6.476  11.097 -0.2210 -0.3367  0.4518
  771MOL0     C 3970   4.132   6.508  11.130 -0.6951  0.6900  0.1363
  771MOL0     C 3971   4.205   6.548  11.004  0.0218 -0.1418  0.5507
  771MOL0     C 3972   4.333   6.631  11.041  0.9113  0.2976  0.9899
  771MOL0     C 3973   4.413   6.562  11.159 -0.6168  0.3041  0.3120
  771MOL0     O 3974   4.554   6.576  11.149  0.0523  0.0621 -0.0677
  771MOL0     C 3975   4.642   6.530  11.244 -0.2180 -0.2285  0.1377
  771MOL0     C 3976   4.776   6.549  11.219  0.6164  0.1540 -0.1739
  771MOL0     C 3977   4.868   6.496  11.310  1.1150 -0.8486 -0.7442
  771MOL0     C 3978   4.835   6.407  11.413 -0.5702  0.4372 -0.6372
  771MOL0     C 3979   4.943   6.349  11.494 -0.5560 -0.3998  0.5785
  771MOL0     O 3980   5.070   6.343  11.441 -0.0811  0.8631 -0.1905
  771MOL0     C 3981   5.155   6.257  11.504  0.9464 -0.7770 -0.2343
  771MOL0     C 3982   5.129   6.134  11.564 -0.7321  0.0972 -0.1703
  771MOL0     C 3983   5.236   6.058  11.612  0.0729 -0.1274  0.3432
  771MOL0     C 3984   5.370   6.101  11.607  0.0034  0.4945 -1.3226
  771MOL0     O 3985   5.476   6.032  11.660  0.3057  1.0076 -0.2211
  771MOL0     C 3986   5.455   5.886  11.668 -0.2549 -0.6220  1.4807
  771MOL0     C 3987   5.588   5.843  11.710 -0.3951  0.1746  0.9235
  771MOL0     C 3988   5.705   5.863  11.613 -0.2510  0.3143 -1.0424
  771MOL0     C 3989   5.839   5.856  11.679  0.3449  0.6442 -0.0716
  771MOL0     C 3990   5.954   5.864  11.573  0.8646 -0.0044 -0.6369
  771MOL0     C 3991   6.006   6.008  11.552 -0.8763  1.1523  0.3841
  771MOL0     C 3992   6.116   6.029  11.449 -0.5506 -0.1915 -0.0590
  771MOL0     C 3993   6.138   6.182  11.439 -0.6542  0.1758 -0.1827
  771MOL0    Cl 3994   5.987   6.273  11.380  0.3201 -0.4889 -0.4468
  771MOL0     C 3995   5.391   6.228  11.557  0.7174  0.1861  0.1381
  771MOL0     C 3996   5.286   6.306  11.500 -0.2666 -1.0338 -1.0598
  771MOL0     O 3997   4.904   6.307  11.598 -0.4336 -0.6066 -0.7400
  771MOL0     C 3998   4.702   6.380  11.433  0.1515 -0.7316 -0.6882
  771MOL0     C 3999   4.608   6.442  11.352  0.4802 -0.0215  0.0325
  771MOL0     N 4000   3.945   6.396  10.993  1.0234 -0.6446 -0.5677
  771MOL0     N 4001   3.817   6.380  11.015  0.1341 -0.2301  0.8900
  771MOL0     C 4002   2.953   7.152  10.817  1.8050  0.5362  0.5930
  771MOL0     C 4003   2.833   7.205  10.749  0.0240  0.4210  0.3937
  771MOL0     C 4004   2.467   7.209  10.506 -0.9020 -0.2788  0.3995
  771MOL0     C 4005   2.405   7.331  10.544  0.0668 -0.3252 -0.0288
  771MOL0     C 4006   2.312   7.404  10.466 -1.2650  0.7026 -0.0601
  771MOL0     C 4007   2.256   7.344  10.345 -0.1501 -0.3948  0.3716
  771MOL0     O 4008   2.160   7.400  10.274  0.2706 -0.4733  0.6133
  771MOL0     C 4009   2.071   7.494  10.341  0.4847  0.4966  0.2592
  771MOL0     C 4010   1.935   7.512  10.269  0.7181  0.5316  0.2122
  771MOL0     C 4011   1.842   7.614  10.343  0.5135  0.0079 -0.3200
  771MOL0     C 4012   1.698   7.619  10.286  0.2697 -0.4468 -0.7967
  771MOL0     C 4013   1.641   7.486  10.313  0.7446 -0.4956 -0.4702
  771MOL0     C 4014   1.582   7.377  10.313  0.6467 -0.9130  0.7638
  771MOL0     C 4015   2.313   7.223  10.312  0.6751 -0.3727  0.7199
  771MOL0     C 4016   2.411   7.153  10.386  0.6148  0.2083 -0.0284
  771MOL0     C 4017   2.438   7.018  10.335  0.7518  0.7367 -0.9826
  771MOL0     H 4018   2.608   6.988  10.879  0.1623 -3.0754 -0.3644
  771MOL0     H 4019   2.808   6.898  10.976 -3.1344 -1.0827 -0.1223
  771MOL0     H 4020   2.998   6.933  11.161  0.1738 -0.9833  0.4679
  771MOL0     H 4021   2.999   6.824  11.017 -0.1832  0.4196  0.0429
  771MOL0     H 4022   3.192   6.793  11.205  0.0919  0.8282  1.8710
  771MOL0     H 4023   3.229   6.957  11.185 -0.3941  0.2471  1.0314
  771MOL0     H 4024   3.397   6.776  11.094  1.4363 -1.7982 -2.1282
  771MOL0     H 4025   3.364   6.899  10.978  0.6004 -2.1180 -0.6369
  771MOL0     H 4026   3.233   6.620  10.986  1.2723 -0.8310  0.5878
  771MOL0     H 4027   3.220   6.751  10.865 -0.8469  0.8420  0.2353
  771MOL0     H 4028   3.380   6.569  10.792 -1.4711  0.9416 -0.5798
  771MOL0     H 4029   3.441   6.726  10.789  0.4620 -0.1343  0.0573
  771MOL0     H 4030   3.602   6.586  10.870 -1.5734 -2.1969  0.0646
  771MOL0     H 4031   3.562   6.697  11.013  1.9545 -3.0732  5.2491
  771MOL0     H 4032   3.515   6.396  10.981 -1.5961 -0.0038 -1.3310
  771MOL0     H 4033   3.422   6.493  11.097 -1.2245  4.3864 -3.6603
  771MOL0     H 4034   3.630   6.577  11.202  1.4260 -1.6560  2.4705
  771MOL0     H 4035   3.613   6.400  11.216 -0.9387  0.0614  0.2746
  771MOL0     H 4036   3.880   6.589  11.250 -2.5682  0.2156 -0.3892
  771MOL0     H 4037   4.139   6.576  11.216  1.1900  0.3493  0.2892
  771MOL0     H 4038   4.177   6.411  11.152  0.2474  0.8746 -0.8911
  771MOL0     H 4039   4.236   6.459  10.949  2.6090  1.5556 -0.9455
  771MOL0     H 4040   4.149   6.615  10.939  1.6641  1.5960  0.8333
  771MOL0     H 4041   4.311   6.735  11.066 -1.2088  0.3065 -0.6850
  771MOL0     H 4042   4.402   6.638  10.956 -1.7023  3.2834 -1.1057
  771MOL0     H 4043   4.379   6.458  11.164 -1.4474  0.5227 -0.3970
  771MOL0     H 4044   4.374   6.608  11.250  1.9228  1.7928  0.7273
  771MOL0     H 4045   4.802   6.604  11.129  0.3625  0.9226  0.2199
  771MOL0     H 4046   4.970   6.531  11.293  0.4800  0.6439 -1.6425
  771MOL0     H 4047   5.035   6.080  11.570  0.5606 -2.1377  1.5595
  771MOL0     H 4048   5.207   5.960  11.648 -2.2346 -0.8526 -3.0026
  771MOL0     H 4049   5.385   5.862  11.748 -1.9325 -1.0790 -0.0548
  771MOL0     H 4050   5.417   5.840  11.576 -1.9967  3.1355  0.0958
  771MOL0     H 4051   5.602   5.893  11.806 -2.6647  0.9224  0.9159
  771MOL0     H 4052   5.579   5.736  11.732 -1.9137 -0.3853 -1.9635
  771MOL0     H 4053   5.707   5.803  11.522  0.1838  2.2749 -2.3952
  771MOL0     H 4054   5.703   5.967  11.578  0.8543  0.0494 -1.9605
  771MOL0     H 4055   5.837   5.759  11.730  0.7388  0.2463 -0.8051
  771MOL0     H 4056   5.843   5.931  11.759 -3.0894  0.5589  0.3424
  771MOL0     H 4057   5.915   5.828  11.477 -2.2821  0.6883  0.2923
  771MOL0     H 4058   6.036   5.796  11.601 -0.2228 -2.4639 -2.8939
  771MOL0     H 4059   5.924   6.078  11.535 -1.4160  0.5915  0.6238
  771MOL0     H 4060   6.043   6.039  11.650 -0.2429 -1.3442  1.0120
  771MOL0     H 4061   6.099   5.991  11.348 -0.8763  1.2296 -0.5662
  771MOL0     H 4062   6.207   5.983  11.490  0.0564  0.3604 -0.7526
  771MOL0     H 4063   6.158   6.213  11.543 -0.9196 -2.7006  0.8122
  771MOL0     H 4064   6.219   6.202  11.369 -1.1644  1.4824 -0.4392
  771MOL0     H 4065   5.492   6.268  11.549  1.1966 -0.7264  1.3738
  771MOL0     H 4066   5.299   6.401  11.449 -1.2540 -0.1622  0.2584
  771MOL0     H 4067   4.680   6.307  11.511 -0.4935 -1.2534 -1.3429
  771MOL0     H 4068   4.505   6.411  11.367  0.9618 -5.2528 -4.2915
  771MOL0     H 4069   3.046   7.209  10.816  2.4096 -0.4096 -1.0279
  771MOL0     H 4070   2.851   7.301  10.702  0.0230  0.4938  0.5406
  771MOL0     H 4071   2.440   7.376  10.637  0.8995  0.4694 -0.7135
  771MOL0     H 4072   2.286   7.501  10.506 -1.5102  0.7982 -0.4447
  771MOL0     H 4073   2.126   7.589  10.343 -1.5329  1.7097  0.6665
  771MOL0     H 4074   2.044   7.458  10.440  2.0319  1.0879  0.9280
  771MOL0     H 4075   1.885   7.415  10.267  1.1497  0.3193 -1.5082
  771MOL0     H 4076   1.957   7.549  10.168  0.6730 -2.0974 -0.8393
  771MOL0     H 4077   1.895   7.709  10.350  0.0865  0.1230  2.5851
  771MOL0     H 4078   1.835   7.585  10.449  3.2837  0.0561 -0.0486
  771MOL0     H 4079   1.645   7.700  10.336 -3.8173 -0.9647 -3.7835
  771MOL0     H 4080   1.695   7.648  10.181  0.3550  1.2835 -0.3413
  771MOL0     H 4081   1.536   7.280  10.313 -0.6987 -0.3609 -1.8959
  771MOL0     H 4082   2.281   7.190  10.214 -0.5817 -1.7623  1.5521
  771MOL0     H 4083   2.538   7.022  10.290  1.5635 -1.1770  0.5081
  771MOL0     H 4084   2.455   6.944  10.414  0.6196  2.7719  1.0575
  771MOL0     H 4085   2.369   6.992  10.254 -1.0008  3.3845 -0.4717
  772MOL0     O 4086   4.624   4.499   7.020  0.3147  0.4628  0.0325
  772MOL0     C 4087   4.649   4.604   7.073 -0.0346 -0.5963 -0.5836
  772MOL0     O 4088   4.579   4.716   7.059  0.6570 -0.8475 -0.2100
  772MOL0     C 4089   4.466   4.731   6.971 -0.5093 -1.0860  0.2001
  772MOL0     C 4090   4.472   4.690   6.845 -0.0063  0.2422 -0.0968
  772MOL0     C 4091   4.358   4.707   6.751 -0.0684 -0.7563 -0.7187
  772MOL0     C 4092   4.247   4.781   6.788  0.3970  0.8357 -0.1757
  772MOL0     O 4093   4.142   4.809   6.706 -1.3915 -0.7434  0.1684
  772MOL0     C 4094   4.153   4.755   6.571 -0.2570  0.4547  0.2064
  772MOL0     C 4095   4.037   4.791   6.479  0.9148  0.4153 -0.3662
  772MOL0     C 4096   4.067   4.778   6.322  0.4549  0.0644  0.6469
  772MOL0     C 4097   3.927   4.726   6.265 -0.9855  0.9799 -0.3159
  772MOL0     C 4098   3.946   4.580   6.242 -0.3331 -0.3809 -0.7929
  772MOL0     C 4099   3.826   4.513   6.169 -0.0883 -0.1189  0.7240
  772MOL0     C 4100   3.843   4.359   6.160 -0.8674  0.1254  0.2852
  772MOL0     C 4101   3.765   4.306   6.038  0.8816  0.2532 -0.1893
  772MOL0     N 4102   3.768   4.165   6.013  1.4970 -0.9584 -0.0184
  772MOL0     C 4103   3.667   4.080   6.047  0.2014  0.0797 -0.1836
  772MOL0     C 4104   3.718   3.960   6.029 -0.1882  0.1712 -0.5306
  772MOL0     C 4105   3.637   3.828   6.041 -0.6950  0.0881 -0.9631
  772MOL0     C 4106   3.661   3.757   6.180  0.2931 -0.6004  0.2912
  772MOL0     C 4107   3.587   3.616   6.171 -0.0225  0.0052 -0.6591
  772MOL0     C 4108   3.621   3.523   6.294 -0.0929 -0.0642  0.2774
  772MOL0     O 4109   3.529   3.414   6.286 -0.2723 -0.1410  0.0128
  772MOL0     C 4110   3.548   3.313   6.189 -0.2021 -1.0423  0.1511
  772MOL0     C 4111   3.463   3.202   6.183 -0.2980 -0.0934 -0.4091
  772MOL0     C 4112   3.486   3.093   6.097 -0.2399 -0.8973 -0.3787
  772MOL0     C 4113   3.604   3.077   6.029 -1.0691  0.1755 -1.4255
  772MOL0     C 4114   3.634   2.967   5.944 -0.8034 -0.0107 -0.2480
  772MOL0     O 4115   3.533   2.881   5.917  0.4516 -0.0617 -0.4047
  772MOL0     C 4116   3.517   2.780   5.832 -0.4941  0.7123  0.3153
  772MOL0     C 4117   3.387   2.726   5.828 -0.9555 -0.2217  0.1593
  772MOL0     C 4118   3.366   2.608   5.746 -0.1580 -0.6451  0.4742
  772MOL0     C 4119   3.468   2.568   5.658  1.2088  0.3772 -0.0610
  772MOL0     O 4120   3.428   2.489   5.550 -1.0769 -0.2506 -0.5705
  772MOL0     C 4121   3.386   2.349   5.577  0.6985 -0.0066 -0.2377
  772MOL0     C 4122   3.498   2.257   5.637  0.2393 -0.6653  0.4261
  772MOL0     C 4123   3.424   2.130   5.676  0.4316 -0.6319  0.3728
  772MOL0     C 4124   3.515   2.041   5.753  0.4541  0.4531 -0.4848
  772MOL0     C 4125   3.466   1.899   5.768  0.1878 -0.0171 -0.1292
  772MOL0     C 4126   3.570   1.805   5.836  0.7433 -0.7334 -0.5855
  772MOL0     C 4127   3.515   1.659   5.856  0.0483  0.7369  0.6757
  772MOL0     C 4128   3.560   1.589   5.974  0.7553  0.5827 -0.3850
  772MOL0    Cl 4129   3.480   1.430   5.986 -0.5055 -0.1747  0.2228
  772MOL0     C 4130   3.589   2.634   5.654  0.0034 -0.7460  0.0423
  772MOL0     C 4131   3.618   2.734   5.739  0.7034 -1.3393  0.3720
  772MOL0     O 4132   3.751   2.952   5.901 -0.3566  0.2781  0.0838
  772MOL0     C 4133   3.699   3.182   6.039 -0.6254 -0.8469 -1.0958
  772MOL0     C 4134   3.669   3.297   6.113  0.3550  0.1526  0.0389
  772MOL0     N 4135   3.845   3.967   5.984  0.3909  0.3826  0.5150
  772MOL0     N 4136   3.874   4.092   5.974  0.2205  0.5956  0.0645
  772MOL0     C 4137   4.248   4.837   6.922 -0.5860  0.2498 -0.1275
  772MOL0     C 4138   4.362   4.809   7.009 -0.3149  0.4731 -1.0576
  772MOL0     C 4139   4.768   4.612   7.163  0.1053 -1.2089 -0.0613
  772MOL0     C 4140   4.777   4.724   7.253  0.1211  0.4121  0.8075
  772MOL0     C 4141   4.874   4.733   7.345 -0.3255 -0.5661  0.4978
  772MOL0     C 4142   4.986   4.631   7.337 -0.1631 -0.9672 -0.2392
  772MOL0     O 4143   5.096   4.646   7.418  0.3913 -0.0312  1.0883
  772MOL0     C 4144   5.192   4.546   7.432 -0.5818 -0.6579 -0.6352
  772MOL0     C 4145   5.330   4.596   7.497 -0.0327 -0.1781 -0.0481
  772MOL0     C 4146   5.314   4.641   7.642  0.8904 -0.2401  0.2959
  772MOL0     C 4147   5.449   4.687   7.692  0.9081  0.0020 -1.5377
  772MOL0     C 4148   5.436   4.752   7.824 -0.3844  0.2386  0.0366
  772MOL0     C 4149   5.423   4.789   7.941  0.0127  0.2232 -0.1915
  772MOL0     C 4150   4.977   4.525   7.251  0.4181  0.4024 -0.0750
  772MOL0     C 4151   4.868   4.507   7.165 -0.4185 -0.1787 -0.8140
  772MOL0     C 4152   4.880   4.387   7.078 -0.0297  0.4505 -0.1554
  772MOL0     H 4153   4.564   4.648   6.805 -0.9723  0.4332 -2.7113
  772MOL0     H 4154   4.382   4.670   6.652  3.1908  2.1263 -1.2343
  772MOL0     H 4155   4.240   4.808   6.530 -1.8861  4.1612  1.0813
  772MOL0     H 4156   4.170   4.647   6.563 -0.9528  0.4892 -3.1114
  772MOL0     H 4157   4.008   4.894   6.501 -1.7717  0.1797 -2.3111
  772MOL0     H 4158   3.949   4.735   6.514  0.3662  1.5878  0.1919
  772MOL0     H 4159   4.154   4.717   6.297  2.5704  3.1556 -0.0454
  772MOL0     H 4160   4.090   4.872   6.271  0.4112  0.5001  1.4198
  772MOL0     H 4161   3.843   4.746   6.332  0.1691 -2.2024  2.3738
  772MOL0     H 4162   3.914   4.778   6.170  0.7926  1.2450 -0.4573
  772MOL0     H 4163   4.040   4.555   6.193 -0.0718 -0.2302 -0.3788
  772MOL0     H 4164   3.939   4.522   6.334 -0.3828 -2.8357 -2.2705
  772MOL0     H 4165   3.730   4.535   6.216 -0.9601  0.8923 -1.3754
  772MOL0     H 4166   3.822   4.554   6.068 -0.3271  2.7172  1.7916
  772MOL0     H 4167   3.800   4.313   6.250 -1.4592  1.9279  0.9764
  772MOL0     H 4168   3.948   4.336   6.141 -0.3227  2.5651  0.0360
  772MOL0     H 4169   3.660   4.336   6.043  0.8692  0.4850 -1.4366
  772MOL0     H 4170   3.804   4.358   5.950 -0.3222  2.7911  0.6858
  772MOL0     H 4171   3.567   4.091   6.087  0.2890 -4.1383  1.7225
  772MOL0     H 4172   3.529   3.845   6.038 -0.8295  2.9152  5.0457
  772MOL0     H 4173   3.678   3.768   5.959  1.8095 -1.6443  1.4003
  772MOL0     H 4174   3.766   3.760   6.208  0.3373  2.2367  0.0642
  772MOL0     H 4175   3.609   3.808   6.261 -0.2025 -1.4878  0.5529
  772MOL0     H 4176   3.616   3.568   6.077 -0.8079 -1.5176 -0.1708
  772MOL0     H 4177   3.478   3.625   6.178 -0.0711 -0.9635  0.0758
  772MOL0     H 4178   3.604   3.586   6.381 -0.7896  0.9418 -0.5521
  772MOL0     H 4179   3.724   3.488   6.301  1.1468  3.5767  2.9286
  772MOL0     H 4180   3.371   3.209   6.241 -0.8702  1.2747 -1.4512
  772MOL0     H 4181   3.407   3.022   6.077  0.2618 -1.2992 -0.9807
  772MOL0     H 4182   3.310   2.777   5.884 -1.3134  2.6458 -2.6440
  772MOL0     H 4183   3.263   2.581   5.727  0.4221 -0.3761 -4.3490
  772MOL0     H 4184   3.296   2.347   5.639  0.3461  2.4663 -0.5737
  772MOL0     H 4185   3.362   2.315   5.476 -2.3101  1.1753 -0.0310
  772MOL0     H 4186   3.578   2.229   5.567  2.9103 -1.8522  3.6365
  772MOL0     H 4187   3.549   2.297   5.725 -1.3761  1.9259  0.2580
  772MOL0     H 4188   3.337   2.161   5.734  0.2715 -1.1649  0.4246
  772MOL0     H 4189   3.389   2.076   5.588  0.6160  0.2808 -0.2653
  772MOL0     H 4190   3.529   2.074   5.857 -0.3363  1.9986 -0.8400
  772MOL0     H 4191   3.619   2.042   5.721  0.5903  1.4886 -0.0569
  772MOL0     H 4192   3.442   1.861   5.668  1.0383  1.6813 -1.0241
  772MOL0     H 4193   3.379   1.901   5.834  0.7896  0.7019  0.6645
  772MOL0     H 4194   3.659   1.804   5.772 -0.5757 -0.1462 -2.4969
  772MOL0     H 4195   3.602   1.847   5.932  0.1181  0.1379 -0.7500
  772MOL0     H 4196   3.531   1.599   5.766 -4.1421 -0.9512  0.8126
  772MOL0     H 4197   3.405   1.658   5.864 -0.1358  1.6633 -1.2083
  772MOL0     H 4198   3.667   1.569   5.960  1.2584  3.0364 -0.5863
  772MOL0     H 4199   3.535   1.639   6.068 -1.4072  1.0916 -1.1697
  772MOL0     H 4200   3.666   2.609   5.582  0.8784 -1.2591  1.1415
  772MOL0     H 4201   3.708   2.790   5.716 -0.5396  0.4255 -0.4705
  772MOL0     H 4202   3.796   3.193   5.991  2.6703  1.3530  5.0460
  772MOL0     H 4203   3.733   3.383   6.098  1.8772 -1.1744 -1.3848
  772MOL0     H 4204   4.175   4.907   6.962 -1.0671 -0.9595  1.2070
  772MOL0     H 4205   4.362   4.853   7.109 -1.8259  0.5617 -1.0682
  772MOL0     H 4206   4.703   4.804   7.260  2.7002  2.8612  4.2462
  772MOL0     H 4207   4.888   4.812   7.419 -1.8228 -1.1448  1.4325
  772MOL0     H 4208   5.232   4.508   7.338 -0.8414 -2.2951 -0.1168
  772MOL0     H 4209   5.148   4.468   7.495 -0.7856 -0.7351 -0.8710
  772MOL0     H 4210   5.359   4.684   7.439  0.0341 -1.2410 -1.6994
  772MOL0     H 4211   5.408   4.520   7.491 -2.0877 -2.4260 -0.0949
  772MOL0     H 4212   5.263   4.561   7.696  1.1888 -2.0136 -1.8837
  772MOL0     H 4213   5.246   4.726   7.654  1.2897  0.1462 -0.1270
  772MOL0     H 4214   5.514   4.599   7.686  2.2756  0.8988 -0.5743
  772MOL0     H 4215   5.496   4.756   7.621  1.8324 -2.0501 -3.0469
  772MOL0     H 4216   5.410   4.839   8.034  1.7120 -0.3335  0.3922
  772MOL0     H 4217   5.047   4.442   7.260  0.5820  0.7339  3.1665
  772MOL0     H 4218   4.797   4.318   7.096 -1.4973  1.3609 -2.7664
  772MOL0     H 4219   4.889   4.411   6.971  1.7026  1.3573  0.1574
  772MOL0     H 4220   4.974   4.333   7.092 -0.4208 -0.7165 -1.7085
  773MOL0     O 4221   1.944   6.268  10.247 -0.4716 -0.4617 -0.6060
  773MOL0     C 4222   1.928   6.340  10.349  0.1298  0.1924 -0.3241
  773MOL0     O 4223   1.931   6.297  10.477  0.1548  0.7509  0.2374
  773MOL0     C 4224   1.970   6.169  10.500 -0.8246 -0.6385  0.2656
  773MOL0     C 4225   1.954   6.050  10.418 -0.7452 -0.4750 -0.0834
  773MOL0     C 4226   2.027   5.947  10.462 -0.4826 -0.4252  0.4138
  773MOL0     C 4227   2.093   5.934  10.582 -0.3596  0.3686 -0.6606
  773MOL0     O 4228   2.174   5.825  10.590  0.7732 -0.2896  0.0762
  773MOL0     C 4229   2.244   5.807  10.713  0.8150 -0.6334  0.4898
  773MOL0     C 4230   2.149   5.768  10.832  0.2852 -0.3944 -0.0215
  773MOL0     C 4231   2.229   5.735  10.960  1.0027  0.4878  0.6187
  773MOL0     C 4232   2.153   5.631  11.048  0.6060  0.3259  0.1540
  773MOL0     C 4233   2.231   5.594  11.177 -0.9790  0.3890  0.7167
  773MOL0     C 4234   2.174   5.482  11.252  0.6349 -0.7239 -0.1060
  773MOL0     C 4235   2.049   5.525  11.323  0.4810 -0.1921  0.4262
  773MOL0     C 4236   2.003   5.407  11.409  0.1485 -0.8304  0.6877
  773MOL0     N 4237   2.108   5.336  11.484  0.2386 -0.5378  0.3278
  773MOL0     C 4238   2.143   5.203  11.471 -0.6290 -0.5833 -0.2150
  773MOL0     C 4239   2.203   5.178  11.589  0.0187  0.4092 -0.4074
  773MOL0     C 4240   2.273   5.054  11.631 -0.1463  0.7921 -0.2243
  773MOL0     C 4241   2.204   4.955  11.728 -1.2238 -0.5181  1.1407
  773MOL0     C 4242   2.068   4.902  11.677  0.1113  0.8433 -0.4686
  773MOL0     C 4243   2.075   4.767  11.594  0.5184 -0.7825  0.3872
  773MOL0     O 4244   2.141   4.664  11.661 -0.1839  0.7839 -0.0579
  773MOL0     C 4245   2.121   4.540  11.607 -0.5939 -0.4289  0.0043
  773MOL0     C 4246   2.089   4.512  11.476  0.5129 -0.9121  0.1677
  773MOL0     C 4247   2.076   4.380  11.428  0.7021 -1.1000  0.0709
  773MOL0     C 4248   2.077   4.272  11.510  0.4495 -0.4944 -0.4129
  773MOL0     C 4249   2.069   4.134  11.463 -1.0427  0.4414 -0.0988
  773MOL0     O 4250   2.074   4.023  11.543  1.7821 -0.0845  0.0869
  773MOL0     C 4251   2.065   3.893  11.485  0.2669 -1.0201 -0.0634
  773MOL0     C 4252   1.994   3.800  11.562  0.2922  0.0780 -0.3063
  773MOL0     C 4253   1.992   3.668  11.527  1.1003  0.3128  0.0008
  773MOL0     C 4254   2.050   3.634  11.412  0.7112  1.2277  0.4363
  773MOL0     O 4255   2.049   3.499  11.368 -0.5493 -0.2824  0.1588
  773MOL0     C 4256   1.983   3.396  11.438 -0.5127 -0.1982 -0.8705
  773MOL0     C 4257   2.007   3.255  11.381  0.0828  0.0476 -0.3649
  773MOL0     C 4258   1.960   3.142  11.465 -0.1284  0.4136  0.4295
  773MOL0     C 4259   2.044   3.011  11.451 -0.3057  0.3777 -0.3817
  773MOL0     C 4260   2.010   2.920  11.577  0.0756 -0.5128  0.2821
  773MOL0     C 4261   2.069   2.779  11.555 -0.3164  0.1904  0.5320
  773MOL0     C 4262   2.045   2.694  11.674  0.4616  0.9274 -0.2726
  773MOL0     C 4263   2.092   2.549  11.675 -0.3492 -0.0253 -0.3774
  773MOL0    Cl 4264   2.261   2.546  11.619 -0.4924 -0.0362 -0.2079
  773MOL0     C 4265   2.128   3.714  11.330  0.3638  0.2555 -0.9403
  773MOL0     C 4266   2.129   3.851  11.362 -0.5194 -0.1993  0.0062
  773MOL0     O 4267   2.050   4.125  11.347 -0.1065 -0.4058  0.1216
  773MOL0     C 4268   2.107   4.300  11.647 -0.0332  0.8166  0.4997
  773MOL0     C 4269   2.135   4.429  11.691  0.4762 -0.5711 -0.6495
  773MOL0     N 4270   2.199   5.283  11.670  1.0768 -0.6606  0.3685
  773MOL0     N 4271   2.154   5.385  11.602  0.3316 -0.2048  1.0644
  773MOL0     C 4272   2.095   6.044  10.670 -0.5712  1.1428 -0.8326
  773MOL0     C 4273   2.033   6.164  10.629  1.0806 -0.5498 -0.7241
  773MOL0     C 4274   1.884   6.483  10.338 -0.6422  0.3284  0.9785
  773MOL0     C 4275   1.849   6.554  10.452 -0.0121  0.2081  0.6684
  773MOL0     C 4276   1.814   6.690  10.449  0.3418 -0.4647  0.0946
  773MOL0     C 4277   1.805   6.757  10.322 -0.0029 -0.3754 -1.0525
  773MOL0     O 4278   1.754   6.888  10.327 -0.2741  0.4486 -0.8632
  773MOL0     C 4279   1.848   6.983  10.281  0.3205  1.1480  0.0119
  773MOL0     C 4280   1.843   7.106  10.368  0.1084  0.1190 -0.3820
  773MOL0     C 4281   1.896   7.071  10.512 -0.1795 -0.0411 -0.1828
  773MOL0     C 4282   1.922   7.199  10.604  0.0142 -0.6464  0.1758
  773MOL0     C 4283   1.823   7.231  10.702 -0.3397 -0.1218 -0.2835
  773MOL0     C 4284   1.759   7.294  10.788  1.5843  0.8843  0.7183
  773MOL0     C 4285   1.857   6.687  10.209 -0.1551 -1.8177 -0.3077
  773MOL0     C 4286   1.895   6.554  10.215  0.0594  0.4956  0.7533
  773MOL0     C 4287   1.950   6.496  10.080  0.4071  0.3786 -0.8312
  773MOL0     H 4288   1.930   6.046  10.313  5.3364 -1.1500 -1.8300
  773MOL0     H 4289   2.032   5.862  10.394 -1.4159 -0.2090  0.0443
  773MOL0     H 4290   2.323   5.733  10.701 -0.1693 -1.3900 -1.8636
  773MOL0     H 4291   2.291   5.905  10.728 -1.7374  1.5430 -3.9123
  773MOL0     H 4292   2.088   5.684  10.798 -1.8337  1.9037 -2.4262
  773MOL0     H 4293   2.087   5.855  10.858  0.1653 -0.1569 -1.0557
  773MOL0     H 4294   2.246   5.828  11.015  0.8308 -0.1236  1.7361
  773MOL0     H 4295   2.325   5.688  10.938  1.0607  1.6159 -1.8479
  773MOL0     H 4296   2.051   5.666  11.070  0.8704 -0.3068  2.7341
  773MOL0     H 4297   2.145   5.541  10.986  5.8888  1.1350 -2.2421
  773MOL0     H 4298   2.327   5.551  11.147 -1.7206 -1.6016  1.0795
  773MOL0     H 4299   2.252   5.685  11.234  0.8109  1.1708 -1.0658
  773MOL0     H 4300   2.164   5.397  11.183  2.3924 -2.5547  1.7323
  773MOL0     H 4301   2.246   5.447  11.327  0.3934 -0.3491  0.2986
  773MOL0     H 4302   1.985   5.573  11.249 -0.4719 -0.1333  1.2711
  773MOL0     H 4303   2.070   5.609  11.391  1.3036  1.3319 -1.6216
  773MOL0     H 4304   1.938   5.443  11.489  1.3463 -0.2874  1.4385
  773MOL0     H 4305   1.950   5.326  11.358  1.0736 -2.8059  2.7105
  773MOL0     H 4306   2.133   5.130  11.392 -0.2824 -3.1710  1.9845
  773MOL0     H 4307   2.289   4.996  11.540  2.5676 -1.5080  1.5748
  773MOL0     H 4308   2.368   5.070  11.682 -0.3031 -3.8682  1.9854
  773MOL0     H 4309   2.274   4.872  11.738 -0.5203 -0.3607 -1.6213
  773MOL0     H 4310   2.190   5.002  11.826  2.3858  2.3885  0.5279
  773MOL0     H 4311   2.005   4.981  11.637  0.2890  1.7702  0.9964
  773MOL0     H 4312   2.008   4.876  11.765  4.4430 -1.4444  2.1697
  773MOL0     H 4313   2.127   4.788  11.501 -0.7085 -2.3328 -0.7061
  773MOL0     H 4314   1.975   4.730  11.570  0.8809 -1.6754  0.2169
  773MOL0     H 4315   2.093   4.601  11.414 -0.3658 -0.1212  1.2072
  773MOL0     H 4316   2.052   4.372  11.322  1.3710 -2.9266  0.0196
  773MOL0     H 4317   1.930   3.820  11.647  1.3756  0.9789  0.3112
  773MOL0     H 4318   1.942   3.608  11.603 -3.3834  1.4431 -1.7218
  773MOL0     H 4319   2.016   3.392  11.543  0.3025 -0.2268 -1.1258
  773MOL0     H 4320   1.875   3.415  11.431 -0.1446  1.7075 -2.0232
  773MOL0     H 4321   1.961   3.245  11.282  1.5588 -2.3493 -0.8693
  773MOL0     H 4322   2.115   3.242  11.376  0.1101  0.2143 -0.2260
  773MOL0     H 4323   1.980   3.169  11.570  0.4193 -3.7686  1.5729
  773MOL0     H 4324   1.853   3.121  11.455 -0.3762  0.8164  1.9048
  773MOL0     H 4325   2.149   3.038  11.442  0.0323 -0.5587  0.5558
  773MOL0     H 4326   2.020   2.948  11.364  1.6968 -0.8288 -0.1137
  773MOL0     H 4327   1.901   2.907  11.575  0.1844 -1.4373  0.3748
  773MOL0     H 4328   2.051   2.969  11.666 -2.3735  3.0573 -0.3317
  773MOL0     H 4329   2.010   2.745  11.469  0.4824  2.1106 -0.8487
  773MOL0     H 4330   2.176   2.792  11.538  0.4314  0.6316  4.6342
  773MOL0     H 4331   1.937   2.688  11.685  0.7876 -0.7204  4.4444
  773MOL0     H 4332   2.087   2.741  11.763  0.8655 -1.1051  0.6817
  773MOL0     H 4333   2.079   2.492  11.767 -2.1156 -1.3569 -1.4048
  773MOL0     H 4334   2.038   2.491  11.599 -0.6494 -2.7977  1.7884
  773MOL0     H 4335   2.182   3.668  11.248 -2.4683 -1.6991 -1.8843
  773MOL0     H 4336   2.187   3.915  11.296 -0.2613 -1.1460 -0.7122
  773MOL0     H 4337   2.107   4.231  11.731  1.4166  4.1951  3.5279
  773MOL0     H 4338   2.143   4.444  11.799  0.3591 -4.6601  0.0779
  773MOL0     H 4339   2.148   6.052  10.765  0.9658 -1.4000 -1.3871
  773MOL0     H 4340   2.037   6.252  10.691 -2.6481 -1.0739  0.5553
  773MOL0     H 4341   1.852   6.504  10.548 -1.5862 -3.2763 -0.9184
  773MOL0     H 4342   1.782   6.746  10.536  0.3761  0.6834 -0.6096
  773MOL0     H 4343   1.809   7.009  10.182  1.3996 -2.0415 -1.3733
  773MOL0     H 4344   1.950   6.951  10.259 -0.9953 -4.0427  0.2000
  773MOL0     H 4345   1.743   7.150  10.369 -1.0640 -2.2573 -2.1774
  773MOL0     H 4346   1.914   7.174  10.321  0.0053 -0.8874 -2.0600
  773MOL0     H 4347   1.989   7.015  10.496 -0.6427 -0.6687 -0.7005
  773MOL0     H 4348   1.825   7.007  10.565 -0.8671  1.6985  1.1098
  773MOL0     H 4349   2.016   7.178  10.657  0.0614 -0.5362  0.1376
  773MOL0     H 4350   1.937   7.289  10.543 -1.8907 -0.7165 -0.4608
  773MOL0     H 4351   1.698   7.361  10.845 -1.3916  0.1317 -1.3355
  773MOL0     H 4352   1.863   6.748  10.119  0.8601 -0.5707  0.5700
  773MOL0     H 4353   2.046   6.445  10.083  0.7646  0.7811  4.2176
  773MOL0     H 4354   1.878   6.418  10.053 -1.4251  1.0303  1.7538
  773MOL0     H 4355   1.953   6.579  10.009  0.2335  1.1629  0.0516
  774MOL0     O 4356   5.438   5.688   3.513  0.7240 -0.4498  0.0312
  774MOL0     C 4357   5.487   5.802   3.529 -0.1890  0.0296 -1.0809
  774MOL0     O 4358   5.417   5.913   3.542 -0.0604  0.5414 -1.2571
  774MOL0     C 4359   5.286   5.905   3.575  0.7987 -0.5731  0.4217
  774MOL0     C 4360   5.239   5.883   3.705 -0.4524  0.2691  0.8468
  774MOL0     C 4361   5.106   5.867   3.717  0.8968 -0.9457  0.9730
  774MOL0     C 4362   5.012   5.900   3.613 -0.0171  0.3237 -0.4975
  774MOL0     O 4363   4.879   5.866   3.635 -0.3325 -1.2641  1.0706
  774MOL0     C 4364   4.771   5.877   3.537 -0.0036  0.1241  0.5291
  774MOL0     C 4365   4.633   5.838   3.587  0.3970 -0.2629 -0.4062
  774MOL0     C 4366   4.557   5.945   3.670  0.7453 -0.2969  0.0636
  774MOL0     C 4367   4.473   5.877   3.779 -0.0810  0.4938 -1.3319
  774MOL0     C 4368   4.401   5.982   3.872  0.0638  1.5350 -0.0606
  774MOL0     C 4369   4.480   6.101   3.913  0.1879 -0.9595  0.4460
  774MOL0     C 4370   4.394   6.193   4.004 -0.6018  0.2159 -0.5358
  774MOL0     C 4371   4.485   6.309   4.037 -0.1828 -0.1356  1.0680
  774MOL0     N 4372   4.420   6.381   4.138 -0.2870  0.0257 -0.5228
  774MOL0     C 4373   4.325   6.474   4.106 -0.2364 -0.3677 -0.5337
  774MOL0     C 4374   4.264   6.492   4.223 -0.3503  0.6879 -0.4291
  774MOL0     C 4375   4.140   6.585   4.239  0.2363  0.2140  0.2809
  774MOL0     C 4376   4.046   6.517   4.349  0.2461 -0.4988  0.0079
  774MOL0     C 4377   3.975   6.404   4.288  0.9125  0.7405  0.5273
  774MOL0     C 4378   3.922   6.301   4.390  0.1199  0.3769 -0.4897
  774MOL0     O 4379   3.845   6.201   4.318 -0.2597  0.8112  0.0100
  774MOL0     C 4380   3.900   6.087   4.270  0.1309 -0.3115 -0.7639
  774MOL0     C 4381   4.039   6.064   4.290 -0.1343  1.0109  0.2297
  774MOL0     C 4382   4.102   5.957   4.225  0.3263  1.0910 -0.2929
  774MOL0     C 4383   4.031   5.863   4.153 -0.6394  0.4810 -0.0641
  774MOL0     C 4384   4.095   5.747   4.081 -0.4400  0.2884  0.9214
  774MOL0     O 4385   4.228   5.726   4.101 -0.3407 -0.4716  0.0077
  774MOL0     C 4386   4.291   5.621   4.049  0.1581  0.1926  0.5655
  774MOL0     C 4387   4.429   5.627   4.012 -0.5757  0.2500  0.2519
  774MOL0     C 4388   4.494   5.526   3.948  0.1836  1.0154  0.5403
  774MOL0     C 4389   4.432   5.405   3.918  0.7194  0.1569  0.3248
  774MOL0     O 4390   4.482   5.299   3.850  0.3181 -0.1109 -0.3618
  774MOL0     C 4391   4.618   5.294   3.824  0.6935  0.1079 -0.3631
  774MOL0     C 4392   4.629   5.171   3.728 -0.1342  0.0071 -0.0256
  774MOL0     C 4393   4.766   5.131   3.679  0.9384 -0.2201  0.7717
  774MOL0     C 4394   4.774   4.994   3.608 -0.0280 -0.7367 -0.3850
  774MOL0     C 4395   4.837   5.007   3.467 -0.5262 -1.3474  0.0168
  774MOL0     C 4396   4.803   4.883   3.378  0.2483  0.4419 -0.0740
  774MOL0     C 4397   4.897   4.862   3.273  0.0900 -0.1043  1.0194
  774MOL0     C 4398   5.031   4.794   3.305 -0.5753 -0.3130 -0.6953
  774MOL0    Cl 4399   5.113   4.740   3.159 -0.2107 -0.0048 -0.2198
  774MOL0     C 4400   4.303   5.396   3.960  1.2516  0.0181 -0.0149
  774MOL0     C 4401   4.234   5.493   4.025 -0.3684  0.4770 -0.0714
  774MOL0     O 4402   4.030   5.681   4.004  1.1650  0.6475  0.0769
  774MOL0     C 4403   3.900   5.883   4.134  1.2378 -0.6077 -0.0136
  774MOL0     C 4404   3.833   5.995   4.195  0.2517  1.0416 -0.3555
  774MOL0     N 4405   4.332   6.427   4.324 -0.1080 -0.0558  0.0173
  774MOL0     N 4406   4.425   6.354   4.272  0.3418 -0.1997 -0.3073
  774MOL0     C 4407   5.064   5.932   3.494 -0.5296  0.2810  0.5371
  774MOL0     C 4408   5.194   5.922   3.469  0.0230  0.2445  0.5180
  774MOL0     C 4409   5.635   5.822   3.527  0.1345 -0.4973  0.6840
  774MOL0     C 4410   5.689   5.954   3.509  0.2178 -0.6076 -0.8084
  774MOL0     C 4411   5.819   5.974   3.465 -0.3267  0.2170  0.0875
  774MOL0     C 4412   5.910   5.870   3.464 -0.0525 -0.2334 -0.2321
  774MOL0     O 4413   6.037   5.903   3.442  0.3279 -0.1400 -0.5522
  774MOL0     C 4414   6.141   5.802   3.433  1.3855  0.1684 -0.1229
  774MOL0     C 4415   6.259   5.861   3.346 -0.1017  0.0235 -0.4181
  774MOL0     C 4416   6.368   5.762   3.319  0.1627 -0.3761 -1.0792
  774MOL0     C 4417   6.505   5.802   3.366 -0.5864  0.1961  0.5285
  774MOL0     C 4418   6.603   5.704   3.316 -0.3671  0.1662  0.3857
  774MOL0     C 4419   6.701   5.636   3.287 -0.5673  0.8137  0.4273
  774MOL0     C 4420   5.865   5.750   3.508 -0.4312  0.1814  0.0488
  774MOL0     C 4421   5.727   5.714   3.532  0.3523  0.2330  0.8988
  774MOL0     C 4422   5.692   5.573   3.584  0.2206 -0.3396  0.1010
  774MOL0     H 4423   5.307   5.873   3.789 -2.2771  1.5362  2.5484
  774MOL0     H 4424   5.058   5.825   3.805 -0.5130  0.4608  0.9155
  774MOL0     H 4425   4.761   5.981   3.503 -2.2062 -0.0105  0.6210
  774MOL0     H 4426   4.782   5.819   3.445  1.5691 -0.4169  1.0247
  774MOL0     H 4427   4.639   5.744   3.643  2.2236  0.2227  0.2971
  774MOL0     H 4428   4.572   5.830   3.496  0.3956 -0.6164 -0.3763
  774MOL0     H 4429   4.487   6.005   3.611  1.7757 -0.0315 -0.9027
  774MOL0     H 4430   4.627   6.016   3.715 -0.9284  0.2072  2.0450
  774MOL0     H 4431   4.392   5.817   3.734  1.0835 -0.8959 -1.6536
  774MOL0     H 4432   4.531   5.812   3.846 -1.7978  1.2788  1.0472
  774MOL0     H 4433   4.314   6.007   3.811 -1.0035 -1.1305  0.2546
  774MOL0     H 4434   4.377   5.924   3.962 -3.2098 -2.2167 -3.0262
  774MOL0     H 4435   4.570   6.070   3.966  1.0641 -0.3531 -0.6325
  774MOL0     H 4436   4.498   6.159   3.822  2.6299 -1.2035  0.6923
  774MOL0     H 4437   4.367   6.144   4.098 -0.7862  1.8389  0.2960
  774MOL0     H 4438   4.303   6.230   3.957 -1.9486  1.5042  2.7979
  774MOL0     H 4439   4.587   6.275   4.055  0.0390  0.0648  0.2237
  774MOL0     H 4440   4.496   6.370   3.947 -0.1739  1.3568  2.0474
  774MOL0     H 4441   4.295   6.528   4.017 -1.3175 -0.2230 -0.1025
  774MOL0     H 4442   4.176   6.681   4.277 -2.4383  0.6773  1.8628
  774MOL0     H 4443   4.089   6.610   4.146 -0.2862 -3.3758 -0.5656
  774MOL0     H 4444   4.105   6.475   4.430 -1.8214 -2.8179  0.4380
  774MOL0     H 4445   3.970   6.589   4.381 -0.2513 -1.3478  0.7542
  774MOL0     H 4446   4.048   6.347   4.230  1.1659  0.1142  1.4324
  774MOL0     H 4447   3.896   6.443   4.223 -0.6708  0.8773  2.4476
  774MOL0     H 4448   3.843   6.344   4.452  0.5170  0.9204 -0.3449
  774MOL0     H 4449   3.991   6.268   4.469 -2.4580 -0.0666  1.7171
  774MOL0     H 4450   4.117   6.122   4.338  1.8647 -2.1862  1.2321
  774MOL0     H 4451   4.210   5.941   4.225  0.5891  2.5929 -2.1978
  774MOL0     H 4452   4.475   5.719   4.047 -1.2988 -0.9344  5.2034
  774MOL0     H 4453   4.592   5.545   3.906 -0.4591  1.7489 -0.7317
  774MOL0     H 4454   4.661   5.380   3.771  0.1876  1.6871  1.6407
  774MOL0     H 4455   4.661   5.289   3.925 -0.6963  2.9382  0.4833
  774MOL0     H 4456   4.587   5.085   3.781  0.0723 -0.1402 -0.1009
  774MOL0     H 4457   4.567   5.195   3.640  0.0051  3.2193  0.6362
  774MOL0     H 4458   4.806   5.210   3.615 -0.8509  1.5723  1.7537
  774MOL0     H 4459   4.822   5.126   3.773  2.2943  2.9985  0.2747
  774MOL0     H 4460   4.674   4.951   3.619 -0.7310  1.2798  1.9462
  774MOL0     H 4461   4.839   4.934   3.671  0.4394  0.7420  0.6009
  774MOL0     H 4462   4.946   5.008   3.476 -0.5728 -2.9582  1.3456
  774MOL0     H 4463   4.802   5.096   3.414 -1.1794 -2.9367 -2.4093
  774MOL0     H 4464   4.810   4.793   3.440 -0.3369 -0.1157 -0.8080
  774MOL0     H 4465   4.700   4.886   3.341  1.2257 -0.0419 -3.0685
  774MOL0     H 4466   4.928   4.959   3.232 -0.6136 -0.7147 -1.0389
  774MOL0     H 4467   4.847   4.798   3.200 -0.8672  3.1067 -1.4288
  774MOL0     H 4468   5.085   4.870   3.363  3.1355 -2.4851 -1.0054
  774MOL0     H 4469   5.024   4.711   3.376  3.6084  1.6349  2.4615
  774MOL0     H 4470   4.249   5.306   3.935  2.9196 -2.5955  4.5987
  774MOL0     H 4471   4.135   5.461   4.054 -0.4372  2.1843  1.8267
  774MOL0     H 4472   3.852   5.811   4.069  2.7048 -0.3611 -1.4502
  774MOL0     H 4473   3.726   6.002   4.177  0.0612 -1.9871 -0.9523
  774MOL0     H 4474   5.002   5.956   3.408 -0.8532 -1.6109  0.1892
  774MOL0     H 4475   5.230   5.934   3.367 -0.0375  0.7444  0.5558
  774MOL0     H 4476   5.628   6.042   3.528  1.5332 -0.0929  1.4674
  774MOL0     H 4477   5.841   6.080   3.459 -0.0288  0.3498  2.4083
  774MOL0     H 4478   6.100   5.725   3.367 -2.4035  1.4177  0.5107
  774MOL0     H 4479   6.185   5.750   3.518 -0.5196 -3.2190 -1.0432
  774MOL0     H 4480   6.304   5.945   3.400 -0.6545  0.2208 -0.2557
  774MOL0     H 4481   6.204   5.901   3.261 -1.7417 -0.3931  0.3937
  774MOL0     H 4482   6.356   5.766   3.210  1.8999  0.2506 -1.2760
  774MOL0     H 4483   6.348   5.659   3.350  2.7157 -0.5086  0.3819
  774MOL0     H 4484   6.527   5.903   3.332 -2.0876 -0.0793 -1.4147
  774MOL0     H 4485   6.495   5.796   3.475  3.2489  0.2789  1.0052
  774MOL0     H 4486   6.797   5.595   3.264 -1.1578  1.2526 -3.5817
  774MOL0     H 4487   5.936   5.670   3.526 -0.4166  0.1856  0.0104
  774MOL0     H 4488   5.787   5.527   3.615 -0.8679 -1.0799  2.5150
  774MOL0     H 4489   5.636   5.586   3.676  3.9073  0.3281  2.4741
  774MOL0     H 4490   5.639   5.505   3.516  0.2793 -1.5399  1.1975
  775MOL0     O 4491   5.107  10.554   8.670  0.4677 -0.0027 -0.8408
  775MOL0     C 4492   5.031  10.550   8.575  1.7514 -0.4219 -0.7936
  775MOL0     O 4493   4.987  10.658   8.511 -0.5525  0.0969 -0.1955
  775MOL0     C 4494   5.037  10.779   8.533  0.2889 -0.2496  0.7326
  775MOL0     C 4495   5.003  10.849   8.649 -0.3098  0.6467 -0.8583
  775MOL0     C 4496   5.035  10.979   8.657 -0.2867 -0.3830  0.2175
  775MOL0     C 4497   5.119  11.040   8.553  0.3961  0.3592  0.5944
  775MOL0     O 4498   5.161  11.169   8.560 -0.7222  0.4118  0.5641
  775MOL0     C 4499   5.184  11.220   8.695  1.1117 -0.5893  0.3759
  775MOL0     C 4500   5.065  11.314   8.733  0.5531 -0.0441  0.1775
  775MOL0     C 4501   5.072  11.407   8.858  0.3979 -0.0435  0.4696
  775MOL0     C 4502   5.020  11.545   8.822  0.6775 -0.4727  0.2172
  775MOL0     C 4503   4.994  11.627   8.950  0.6097 -0.7146 -0.0833
  775MOL0     C 4504   4.959  11.772   8.909  0.4931  1.0873  0.0955
  775MOL0     C 4505   4.879  11.849   9.023 -0.6249 -0.0723  0.4282
  775MOL0     C 4506   4.942  11.850   9.163 -0.3375  1.0831 -0.0392
  775MOL0     N 4507   5.064  11.929   9.159 -1.1282  0.2963  0.2577
  775MOL0     C 4508   5.186  11.885   9.198  0.1063 -0.4591 -0.4384
  775MOL0     C 4509   5.275  11.987   9.187  0.1393 -0.3153 -0.7022
  775MOL0     C 4510   5.419  11.980   9.222  0.4050 -0.0925 -0.0227
  775MOL0     C 4511   5.458  12.017   9.377  0.1826 -0.4624  0.3074
  775MOL0     C 4512   5.432  11.896   9.467  0.0945 -0.0934  0.1466
  775MOL0     C 4513   5.475  11.759   9.410  0.4107 -0.4926  0.1402
  775MOL0     O 4514   5.607  11.762   9.360  0.2724 -1.1789  0.2160
  775MOL0     C 4515   5.646  11.628   9.359  0.0909  0.0403 -1.2083
  775MOL0     C 4516   5.645  11.559   9.243  0.7828 -0.7186 -0.2408
  775MOL0     C 4517   5.693  11.424   9.242 -0.1359 -0.5630  0.0900
  775MOL0     C 4518   5.754  11.362   9.354 -0.3356  1.1213 -0.6556
  775MOL0     C 4519   5.820  11.227   9.356 -0.1378 -0.0278  0.1648
  775MOL0     O 4520   5.872  11.183   9.471  0.2375  0.1711 -0.1166
  775MOL0     C 4521   5.936  11.060   9.482 -0.0900 -0.1151 -0.7726
  775MOL0     C 4522   5.983  10.980   9.379  0.1201  1.1625 -0.1380
  775MOL0     C 4523   6.038  10.847   9.407  0.0736 -0.6890 -0.4592
  775MOL0     C 4524   6.029  10.793   9.539 -0.3685  0.7198 -0.3742
  775MOL0     O 4525   6.058  10.662   9.585  0.2358 -0.2851 -0.1088
  775MOL0     C 4526   6.063  10.557   9.491 -0.5513  0.3099 -0.0700
  775MOL0     C 4527   5.933  10.528   9.422  1.2290  0.4819 -0.8350
  775MOL0     C 4528   5.914  10.383   9.395 -0.2202  0.6908  0.5568
  775MOL0     C 4529   5.839  10.352   9.263  0.9010  0.0129  0.5643
  775MOL0     C 4530   5.869  10.214   9.211 -0.4157  0.0746  0.2783
  775MOL0     C 4531   5.811  10.180   9.070 -0.1673 -0.7263 -0.1985
  775MOL0     C 4532   5.868  10.045   9.018 -0.5515  0.0795  0.3260
  775MOL0     C 4533   5.996  10.070   8.951 -0.6011 -0.5502 -0.8034
  775MOL0    Cl 4534   5.971  10.131   8.777 -0.0224  0.4030 -0.4155
  775MOL0     C 4535   6.002  10.892   9.636  0.2862 -0.2141  0.4838
  775MOL0     C 4536   5.953  11.023   9.614  0.1717 -0.6424  0.1688
  775MOL0     O 4537   5.798  11.150   9.258 -0.3403  0.4947 -0.2370
  775MOL0     C 4538   5.766  11.446   9.466  0.9266  0.0155  1.3694
  775MOL0     C 4539   5.712  11.581   9.469  0.5282 -0.6057  0.7207
  775MOL0     N 4540   5.202  12.096   9.126  0.8137  0.4494 -0.8407
  775MOL0     N 4541   5.076  12.058   9.120 -0.9112 -0.3215  0.2135
  775MOL0     C 4542   5.158  10.967   8.443  1.1165  0.1083  0.1210
  775MOL0     C 4543   5.107  10.839   8.425 -0.5356  0.4262 -1.0218
  775MOL0     C 4544   4.968  10.417   8.541  0.8022  0.6518 -0.3443
  775MOL0     C 4545   4.984  10.317   8.640 -0.7739 -0.2873  0.0022
  775MOL0     C 4546   4.942  10.186   8.629 -0.2037  0.0123 -0.3309
  775MOL0     C 4547   4.868  10.158   8.512  0.3979  0.2138  0.1791
  775MOL0     O 4548   4.791  10.048   8.476 -0.0168  0.5570 -0.4454
  775MOL0     C 4549   4.784   9.946   8.577 -0.0871  0.0910 -0.0403
  775MOL0     C 4550   4.696   9.835   8.525 -0.2512  0.5637 -0.0670
  775MOL0     C 4551   4.674   9.734   8.632  0.5200 -0.4545 -0.6260
  775MOL0     C 4552   4.701   9.593   8.583 -0.3099  0.3693 -0.1566
  775MOL0     C 4553   4.583   9.561   8.511 -0.5277 -0.3469  0.9873
  775MOL0     C 4554   4.483   9.520   8.456  0.4676  0.5981  0.0559
  775MOL0     C 4555   4.855  10.255   8.410  1.0743  0.8319  0.0221
  775MOL0     C 4556   4.906  10.385   8.422  0.0375  0.8598  0.8015
  775MOL0     C 4557   4.891  10.479   8.303  0.2760 -0.0948 -0.0220
  775MOL0     H 4558   4.959  10.792   8.731  0.9676  2.0198  0.8593
  775MOL0     H 4559   4.996  11.022   8.749  1.4738 -2.3249  1.9900
  775MOL0     H 4560   5.195  11.138   8.767  4.0349  0.3464  1.1384
  775MOL0     H 4561   5.284  11.265   8.687  1.2150 -1.0113 -1.0619
  775MOL0     H 4562   4.971  11.259   8.725  0.8615 -0.2889 -2.4164
  775MOL0     H 4563   5.061  11.385   8.651  0.7972  1.3454  1.3218
  775MOL0     H 4564   5.177  11.413   8.888  0.2408  2.7061  0.7378
  775MOL0     H 4565   5.017  11.363   8.942 -3.9397  2.6690 -0.6181
  775MOL0     H 4566   5.086  11.599   8.753 -0.0398 -1.7740 -1.5549
  775MOL0     H 4567   4.925  11.543   8.767  1.2841  0.9174 -0.9463
  775MOL0     H 4568   4.905  11.587   9.000  1.3921 -0.3680  1.6901
  775MOL0     H 4569   5.072  11.617   9.026 -0.7546  0.2558  1.5291
  775MOL0     H 4570   5.050  11.821   8.877  1.3916 -1.1149 -0.9448
  775MOL0     H 4571   4.891  11.767   8.824  0.4779  0.4259  0.1404
  775MOL0     H 4572   4.775  11.817   9.028 -0.2028 -1.3992  0.9143
  775MOL0     H 4573   4.876  11.953   8.988 -2.6925 -0.8230 -1.9353
  775MOL0     H 4574   4.866  11.894   9.228  0.4866  0.8960  1.0768
  775MOL0     H 4575   4.963  11.747   9.196 -1.6061 -0.4061 -3.4435
  775MOL0     H 4576   5.201  11.786   9.241  2.8741  0.2285  0.3614
  775MOL0     H 4577   5.462  11.883   9.195  2.2816  1.2403 -2.1602
  775MOL0     H 4578   5.466  12.058   9.161  0.0735 -0.0181 -0.1820
  775MOL0     H 4579   5.563  12.047   9.384 -0.9057  3.8192  1.3245
  775MOL0     H 4580   5.417  12.109   9.420  0.8863  0.7180 -1.4266
  775MOL0     H 4581   5.329  11.887   9.504 -1.0610  0.9790 -2.5205
  775MOL0     H 4582   5.490  11.920   9.557  1.2408  0.2194 -0.6620
  775MOL0     H 4583   5.409  11.733   9.326 -0.3846  0.0088  0.5918
  775MOL0     H 4584   5.462  11.680   9.485  0.3579 -1.1064 -0.5040
  775MOL0     H 4585   5.604  11.605   9.154  2.1052  1.9964  0.4591
  775MOL0     H 4586   5.683  11.366   9.151  1.5157 -2.2549  0.9128
  775MOL0     H 4587   5.978  11.019   9.277 -0.2424  1.9293  0.1656
  775MOL0     H 4588   6.082  10.787   9.328 -0.7660 -2.0865  0.0728
  775MOL0     H 4589   6.139  10.581   9.416 -0.0161 -1.7126 -0.2342
  775MOL0     H 4590   6.081  10.471   9.556  0.0456  1.5692  1.4994
  775MOL0     H 4591   5.840  10.550   9.475  0.1969 -2.7203 -1.0998
  775MOL0     H 4592   5.923  10.588   9.331 -3.4259  2.0095  0.4005
  775MOL0     H 4593   6.014  10.340   9.396 -0.1654  0.7186 -1.2495
  775MOL0     H 4594   5.862  10.333   9.478 -0.6137  0.9279  0.4582
  775MOL0     H 4595   5.861  10.420   9.180 -3.6249 -1.4733 -2.2180
  775MOL0     H 4596   5.730  10.357   9.268  0.7311 -0.0489 -1.9283
  775MOL0     H 4597   5.845  10.146   9.293 -2.9171  0.5063 -0.0306
  775MOL0     H 4598   5.978  10.211   9.201 -0.2672  2.7058  0.3785
  775MOL0     H 4599   5.702  10.180   9.071 -0.1952 -2.3817  0.0026
  775MOL0     H 4600   5.849  10.255   9.001 -0.9538 -1.3777 -1.3739
  775MOL0     H 4601   5.816   9.993   8.937  1.8968 -0.0465 -1.3010
  775MOL0     H 4602   5.900   9.984   9.102 -1.8930 -1.2640 -0.0997
  775MOL0     H 4603   6.042  10.145   9.016 -1.4951 -0.7130  0.0305
  775MOL0     H 4604   6.071   9.991   8.943 -0.9440 -1.6541  3.8789
  775MOL0     H 4605   6.005  10.867   9.741 -1.4753 -0.1549  0.5735
  775MOL0     H 4606   5.928  11.086   9.699  0.0728 -0.7409  0.2131
  775MOL0     H 4607   5.822  11.407   9.550 -0.4520 -0.5971  2.0165
  775MOL0     H 4608   5.736  11.650   9.550 -1.8179 -0.2778  1.1968
  775MOL0     H 4609   5.215  11.007   8.360  0.3239 -1.9553 -1.5127
  775MOL0     H 4610   5.124  10.793   8.328  0.4785 -0.3992 -0.4753
  775MOL0     H 4611   5.048  10.333   8.727 -0.1939  1.8948 -0.7479
  775MOL0     H 4612   4.960  10.117   8.710 -0.6833  0.9632  0.6115
  775MOL0     H 4613   4.729   9.985   8.664  1.8308 -2.1394  2.3378
  775MOL0     H 4614   4.880   9.903   8.609 -1.7545 -3.9013  0.2005
  775MOL0     H 4615   4.752   9.787   8.445  1.1540  0.1544  1.1108
  775MOL0     H 4616   4.604   9.877   8.483  0.9542  1.1006 -2.3468
  775MOL0     H 4617   4.578   9.735   8.684  1.3038 -0.7327  0.8830
  775MOL0     H 4618   4.748   9.743   8.712  4.1271 -1.8047 -3.5234
  775MOL0     H 4619   4.785   9.581   8.513 -0.2862 -2.3371  0.2486
  775MOL0     H 4620   4.715   9.530   8.671  1.7002  1.6266  0.4978
  775MOL0     H 4621   4.395   9.483   8.407 -0.0104  1.8925 -0.1028
  775MOL0     H 4622   4.805  10.230   8.317  1.1873  3.9377 -0.9696
  775MOL0     H 4623   4.987  10.519   8.267 -0.8761  1.7293 -1.1828
  775MOL0     H 4624   4.852  10.419   8.220  1.9785 -1.3645  0.0261
  775MOL0     H 4625   4.835  10.567   8.336  1.7452  1.5299 -1.6238
  776MOL0     O 4626   5.664   5.847  11.244  0.3011 -0.0265  0.3515
  776MOL0     C 4627   5.621   5.842  11.129 -0.6230  0.2330  0.3906
  776MOL0     O 4628   5.494   5.814  11.092  0.3041 -1.0169 -0.3842
  776MOL0     C 4629   5.404   5.795  11.200 -0.5197 -0.5596  0.7952
  776MOL0     C 4630   5.389   5.662  11.248  0.7587  0.0052 -0.0745
  776MOL0     C 4631   5.278   5.640  11.336 -0.4212 -0.4544 -0.5086
  776MOL0     C 4632   5.199   5.747  11.384  0.4042  0.2054 -0.9631
  776MOL0     O 4633   5.083   5.733  11.464 -0.5292 -0.2262  0.2291
  776MOL0     C 4634   5.078   5.636  11.566 -0.2245  0.6721  0.4754
  776MOL0     C 4635   5.111   5.676  11.701 -0.3765  0.2509  0.9732
  776MOL0     C 4636   5.008   5.765  11.756  0.6534 -0.6160  0.2596
  776MOL0     C 4637   5.052   5.824  11.900  0.2638 -0.4739  0.1140
  776MOL0     C 4638   5.059   5.721  12.000  0.2969 -0.6882 -0.2596
  776MOL0     C 4639   5.090   5.790  12.136 -0.4936  1.0395  0.2422
  776MOL0     C 4640   5.117   5.688  12.262  0.1786 -0.0130  0.1883
  776MOL0     C 4641   4.982   5.663  12.331  0.0511  0.2198 -0.8444
  776MOL0     N 4642   5.001   5.546  12.412 -0.9136  0.6648 -0.4445
  776MOL0     C 4643   5.022   5.529  12.551 -0.2778 -0.4386 -0.0964
  776MOL0     C 4644   4.995   5.403  12.580 -0.1514 -0.1767  0.4607
  776MOL0     C 4645   4.989   5.335  12.713 -0.2259  0.2481 -0.8120
  776MOL0     C 4646   5.072   5.413  12.819  0.0962  0.5502  0.2586
  776MOL0     C 4647   5.103   5.325  12.930 -0.4996  0.4294 -0.3881
  776MOL0     C 4648   5.240   5.255  12.922 -0.7772  0.1399  0.4192
  776MOL0     O 4649   5.215   5.129  12.993  0.6209 -0.0027 -0.4960
  776MOL0     C 4650   5.321   5.046  13.027 -0.3635  0.0908 -0.1768
  776MOL0     C 4651   5.291   4.943  13.121  0.5395  0.0851 -0.5696
  776MOL0     C 4652   5.397   4.872  13.177 -0.1670 -0.0677  0.4979
  776MOL0     C 4653   5.530   4.894  13.135  0.1882 -0.2361 -0.1664
  776MOL0     C 4654   5.630   4.798  13.178 -0.5011 -0.3063  0.8197
  776MOL0     O 4655   5.743   4.792  13.099  0.1292 -0.1821  0.2198
  776MOL0     C 4656   5.843   4.714  13.143 -0.1799  0.5893  0.2105
  776MOL0     C 4657   5.824   4.576  13.160  0.3651  0.2824  0.1359
  776MOL0     C 4658   5.911   4.482  13.213  0.2727 -0.2200 -0.0958
  776MOL0     C 4659   6.041   4.539  13.246  1.5005  1.7526  0.0843
  776MOL0     O 4660   6.146   4.465  13.308  0.4075 -0.1090 -0.9750
  776MOL0     C 4661   6.115   4.331  13.349  0.1862  0.0885  0.0060
  776MOL0     C 4662   6.234   4.286  13.439 -0.4334  0.4305 -0.7468
  776MOL0     C 4663   6.366   4.251  13.360 -0.6191  0.7521  0.1097
  776MOL0     C 4664   6.483   4.285  13.453  0.0322  1.5420 -0.1209
  776MOL0     C 4665   6.625   4.248  13.411  0.1044  0.1190 -0.6989
  776MOL0     C 4666   6.730   4.268  13.532 -0.1810  0.2167  0.9627
  776MOL0     C 4667   6.714   4.390  13.615  0.5170 -0.8121  0.5011
  776MOL0     C 4668   6.825   4.406  13.715 -0.0737 -0.6243 -0.0670
  776MOL0    Cl 4669   6.783   4.538  13.813  0.4194  0.0627  0.0655
  776MOL0     C 4670   6.061   4.675  13.232 -0.2351 -0.2304  0.7506
  776MOL0     C 4671   5.961   4.765  13.192  0.5347  0.6961  1.2249
  776MOL0     O 4672   5.613   4.750  13.294 -0.2130 -0.3281  0.4827
  776MOL0     C 4673   5.558   5.005  13.047  0.9448 -0.4073  0.1324
  776MOL0     C 4674   5.454   5.078  12.996 -0.3415  0.8865  0.4929
  776MOL0     N 4675   4.951   5.340  12.466 -0.6032 -0.6719 -0.2059
  776MOL0     N 4676   4.961   5.421  12.368  0.2391 -0.1845 -0.1093
  776MOL0     C 4677   5.228   5.871  11.332 -0.1632 -0.1959 -0.2905
  776MOL0     C 4678   5.332   5.900  11.244 -1.1375 -0.4328  0.4942
  776MOL0     C 4679   5.718   5.869  11.012 -0.2450 -0.2892  0.8528
  776MOL0     C 4680   5.678   5.824  10.882  0.0699  0.8305  1.0323
  776MOL0     C 4681   5.779   5.821  10.783  0.9676 -0.9407 -0.0900
  776MOL0     C 4682   5.906   5.880  10.799  0.8249 -0.5083 -0.2079
  776MOL0     O 4683   5.991   5.876  10.687 -0.4766 -0.6048 -0.6628
  776MOL0     C 4684   6.129   5.912  10.695 -0.1239  0.6486  0.3469
  776MOL0     C 4685   6.213   5.891  10.573  0.0969  0.5451 -0.7503
  776MOL0     C 4686   6.226   5.747  10.523  0.1484  0.0019 -0.1807
  776MOL0     C 4687   6.317   5.723  10.404 -0.8906 -0.4752 -1.1013
  776MOL0     C 4688   6.456   5.757  10.441  0.1130  0.3494 -0.3652
  776MOL0     C 4689   6.570   5.794  10.461  0.0657  0.5378 -0.2145
  776MOL0     C 4690   5.936   5.932  10.921 -0.8628  0.1642 -0.7512
  776MOL0     C 4691   5.844   5.930  11.032  0.0246  0.5035 -0.1710
  776MOL0     C 4692   5.891   5.996  11.159  0.0157 -0.2395 -0.9376
  776MOL0     H 4693   5.449   5.579  11.213  3.3683  0.8574  2.0397
  776MOL0     H 4694   5.266   5.542  11.380 -1.7430 -2.0806 -4.1317
  776MOL0     H 4695   4.978   5.594  11.574  0.2440 -0.4252  0.7014
  776MOL0     H 4696   5.150   5.557  11.543  0.5247  2.4777 -4.4565
  776MOL0     H 4697   5.211   5.719  11.695  0.4049 -1.6897 -1.8430
  776MOL0     H 4698   5.113   5.588  11.766 -2.1273 -0.2239  0.4569
  776MOL0     H 4699   4.917   5.706  11.771 -0.1093  0.8517  1.7059
  776MOL0     H 4700   4.972   5.838  11.683 -1.0603 -1.3380  0.3229
  776MOL0     H 4701   5.129   5.900  11.887  0.7666 -1.1624 -1.1424
  776MOL0     H 4702   4.976   5.900  11.920  0.5888  0.4324 -1.8125
  776MOL0     H 4703   4.967   5.665  12.018 -0.2429  0.8327  2.3068
  776MOL0     H 4704   5.137   5.652  11.967  0.7966  0.3029 -1.2120
  776MOL0     H 4705   5.188   5.835  12.117  1.2517 -2.8401 -0.9000
  776MOL0     H 4706   5.021   5.872  12.157 -2.7885 -0.0391 -2.4422
  776MOL0     H 4707   5.185   5.752  12.319 -2.9459  1.6458  2.3579
  776MOL0     H 4708   5.167   5.599  12.224  0.5489  0.2978 -0.0603
  776MOL0     H 4709   4.938   5.747  12.385 -1.1283 -0.8873 -0.0330
  776MOL0     H 4710   4.911   5.651  12.248  0.6359 -0.2286 -1.2838
  776MOL0     H 4711   5.057   5.617  12.606  2.1379  0.0221 -2.2016
  776MOL0     H 4712   4.884   5.328  12.742 -0.7420 -2.6227 -2.9213
  776MOL0     H 4713   5.022   5.231  12.711  1.4761  0.7201  0.2424
  776MOL0     H 4714   5.168   5.448  12.778 -0.4108  2.7333  0.7799
  776MOL0     H 4715   5.019   5.501  12.858  1.5942  0.8598  1.6878
  776MOL0     H 4716   5.029   5.245  12.939  0.4239 -0.2185  2.6535
  776MOL0     H 4717   5.103   5.387  13.020  0.6785  0.8758 -0.6878
  776MOL0     H 4718   5.310   5.323  12.971 -1.1351 -0.1197  1.3078
  776MOL0     H 4719   5.278   5.233  12.822  2.9540 -0.3203  1.7648
  776MOL0     H 4720   5.189   4.923  13.152 -0.2685  0.4597 -2.7700
  776MOL0     H 4721   5.374   4.781  13.231  1.4442 -1.8063 -1.5360
  776MOL0     H 4722   5.729   4.539  13.124  0.7849  0.5070 -1.2887
  776MOL0     H 4723   5.898   4.376  13.231  1.0263 -0.1070  1.3166
  776MOL0     H 4724   6.027   4.329  13.414  0.6160  1.2891  0.6412
  776MOL0     H 4725   6.104   4.255  13.270 -1.1684 -2.0597  2.1357
  776MOL0     H 4726   6.246   4.367  13.512 -4.2720 -0.1016  0.6935
  776MOL0     H 4727   6.203   4.201  13.500 -0.0738 -0.8858 -2.3282
  776MOL0     H 4728   6.367   4.146  13.330 -1.2199  0.5343  0.8256
  776MOL0     H 4729   6.380   4.310  13.269 -1.6871  1.0795  0.1480
  776MOL0     H 4730   6.463   4.221  13.540  0.4306  1.3963 -0.1322
  776MOL0     H 4731   6.484   4.391  13.480 -0.7647  0.8995  2.8165
  776MOL0     H 4732   6.655   4.310  13.326 -0.4976  0.2303 -0.8355
  776MOL0     H 4733   6.626   4.143  13.381 -0.4142  0.0079 -0.3340
  776MOL0     H 4734   6.721   4.180  13.597  1.2155  0.5080  1.5850
  776MOL0     H 4735   6.829   4.259  13.486 -1.4198  0.9059 -2.0904
  776MOL0     H 4736   6.615   4.378  13.661 -0.4537  1.3062 -0.8629
  776MOL0     H 4737   6.703   4.476  13.549  1.3199  1.3048  2.9295
  776MOL0     H 4738   6.845   4.316  13.774  0.6918 -0.4328 -0.0200
  776MOL0     H 4739   6.923   4.429  13.673 -1.1306  1.7990 -1.4004
  776MOL0     H 4740   6.157   4.717  13.258  0.3522 -1.2478  0.3021
  776MOL0     H 4741   5.976   4.871  13.207  0.5960  0.9733 -0.5731
  776MOL0     H 4742   5.658   5.040  13.022  0.3171  0.9187 -0.6291
  776MOL0     H 4743   5.477   5.160  12.928 -0.2189  0.4420 -0.0111
  776MOL0     H 4744   5.155   5.948  11.355  1.3217  1.1350  0.1396
  776MOL0     H 4745   5.356   5.990  11.189 -1.5007 -0.5509  0.1355
  776MOL0     H 4746   5.580   5.782  10.863  0.1114  1.1225  0.0927
  776MOL0     H 4747   5.754   5.775  10.688  0.1375  1.1663 -0.9641
  776MOL0     H 4748   6.166   5.863  10.786 -3.1388  1.4585  2.1710
  776MOL0     H 4749   6.126   6.019  10.717 -0.3138  0.5982  0.5700
  776MOL0     H 4750   6.314   5.925  10.595  1.3043 -3.3782  0.6202
  776MOL0     H 4751   6.169   5.952  10.493 -1.4814 -0.3233 -0.5896
  776MOL0     H 4752   6.128   5.707  10.494 -1.4138  3.8135 -0.6750
  776MOL0     H 4753   6.260   5.688  10.609 -1.0146 -3.2939 -1.8105
  776MOL0     H 4754   6.302   5.623  10.363  1.0451 -0.0896 -2.9210
  776MOL0     H 4755   6.293   5.788  10.320  1.7548  0.6049 -1.1270
  776MOL0     H 4756   6.669   5.825  10.488 -0.5507  0.6516  2.0908
  776MOL0     H 4757   6.020   5.999  10.934 -0.6735 -0.4112  1.3742
  776MOL0     H 4758   5.961   6.078  11.143 -1.1575  1.8272  3.0051
  776MOL0     H 4759   5.806   6.038  11.213 -0.6508  1.0267 -2.8744
  776MOL0     H 4760   5.932   5.917  11.224 -0.5071  1.2701  1.3573
  777MOL0     O 4761   9.448   6.062   5.177 -0.1040 -0.8474 -0.2376
  777MOL0     C 4762   9.450   6.159   5.252 -0.2383 -0.0028 -0.0953
  777MOL0     O 4763   9.447   6.150   5.395 -0.3110  0.4366 -0.0934
  777MOL0     C 4764   9.426   6.025   5.451 -0.1610  0.3516 -0.3930
  777MOL0     C 4765   9.307   5.944   5.443 -0.5174 -0.9737  0.4627
  777MOL0     C 4766   9.303   5.820   5.499  0.6598 -0.5483 -0.9048
  777MOL0     C 4767   9.416   5.768   5.556  1.0103  0.0106  1.1236
  777MOL0     O 4768   9.411   5.649   5.616  0.0457 -0.5617  0.1006
  777MOL0     C 4769   9.523   5.558   5.602 -0.5059 -0.9203  0.3747
  777MOL0     C 4770   9.590   5.559   5.740  0.7998  0.5585  0.4659
  777MOL0     C 4771   9.702   5.445   5.760  0.3658  0.0564 -0.3473
  777MOL0     C 4772   9.838   5.505   5.757 -0.1099 -0.5947 -0.0530
  777MOL0     C 4773   9.943   5.391   5.768  0.3256 -0.1818  0.5688
  777MOL0     C 4774  10.085   5.432   5.710  0.1729 -0.4522 -0.1261
  777MOL0     C 4775  10.093   5.442   5.557  0.1693 -0.3485  0.1004
  777MOL0     C 4776  10.033   5.318   5.489  0.4818 -0.7548 -0.1789
  777MOL0     N 4777  10.097   5.197   5.545  0.6331  0.6859 -0.2122
  777MOL0     C 4778  10.030   5.070   5.533  0.3848  0.1098 -1.1725
  777MOL0     C 4779  10.127   4.973   5.541  0.5768 -0.9300 -1.4344
  777MOL0     C 4780  10.103   4.824   5.559  0.8175 -0.0433 -0.0645
  777MOL0     C 4781  10.105   4.793   5.706 -0.1470  0.0126  0.6907
  777MOL0     C 4782   9.967   4.763   5.773 -0.2662  0.3786 -0.7928
  777MOL0     C 4783   9.987   4.704   5.916 -0.4415  0.0327  0.1294
  777MOL0     O 4784  10.040   4.566   5.917 -0.0507 -0.4935 -0.6025
  777MOL0     C 4785  10.034   4.504   6.045 -0.3029  0.4839  0.0590
  777MOL0     C 4786  10.014   4.575   6.168  0.1333  0.1421 -0.0591
  777MOL0     C 4787  10.008   4.499   6.284  0.1494 -1.1778 -0.2136
  777MOL0     C 4788  10.001   4.356   6.289 -0.0517 -0.9735  0.3474
  777MOL0     C 4789   9.982   4.278   6.414 -0.2885  0.0530 -1.1280
  777MOL0     O 4790  10.007   4.343   6.532 -0.4867  0.2132 -0.3635
  777MOL0     C 4791   9.946   4.305   6.650  0.1803  0.5629  0.0445
  777MOL0     C 4792   9.812   4.297   6.661  0.4879 -0.1922  0.2286
  777MOL0     C 4793   9.749   4.269   6.780 -0.9419 -0.7940  0.0606
  777MOL0     C 4794   9.820   4.231   6.897 -0.0674 -0.2989 -0.1108
  777MOL0     O 4795   9.750   4.199   7.014  0.5371  0.6403 -0.7319
  777MOL0     C 4796   9.677   4.300   7.082  0.6010 -0.5089  0.3522
  777MOL0     C 4797   9.744   4.313   7.211  1.3625 -0.1735 -0.3768
  777MOL0     C 4798   9.671   4.423   7.293  0.3287  0.1155 -0.5897
  777MOL0     C 4799   9.734   4.453   7.432 -0.5375  0.3598 -0.0991
  777MOL0     C 4800   9.893   4.477   7.428  0.1694  0.7768  0.3058
  777MOL0     C 4801   9.935   4.592   7.326  0.2532  0.2863 -0.1944
  777MOL0     C 4802  10.083   4.627   7.317 -0.1965 -0.1029 -0.2634
  777MOL0     C 4803  10.135   4.646   7.173 -0.4142  0.1601  0.5264
  777MOL0    Cl 4804  10.132   4.494   7.072  0.0201  0.0683  0.1219
  777MOL0     C 4805   9.960   4.235   6.883  0.6108 -0.7190  0.6094
  777MOL0     C 4806  10.020   4.267   6.763 -0.5488 -0.2279 -0.1629
  777MOL0     O 4807   9.938   4.167   6.408 -0.4806 -0.2708 -1.2242
  777MOL0     C 4808  10.009   4.293   6.165 -0.2305  0.4344  0.7828
  777MOL0     C 4809  10.044   4.363   6.044  0.3298  0.2499 -0.1702
  777MOL0     N 4810  10.246   5.045   5.555 -0.3015 -0.3590 -0.4003
  777MOL0     N 4811  10.232   5.176   5.550 -0.3580 -0.2622  0.1362
  777MOL0     C 4812   9.534   5.840   5.564 -1.0165  0.5500  0.2491
  777MOL0     C 4813   9.542   5.965   5.512 -0.4476  0.8390 -0.8233
  777MOL0     C 4814   9.461   6.291   5.192 -0.0697 -1.0651 -0.2566
  777MOL0     C 4815   9.455   6.397   5.290  0.7485  1.2662 -0.2086
  777MOL0     C 4816   9.438   6.532   5.248 -0.7081  0.2698 -0.2567
  777MOL0     C 4817   9.450   6.571   5.113 -0.6070  0.5058  0.1651
  777MOL0     O 4818   9.425   6.694   5.074 -0.6281 -0.8744  0.5141
  777MOL0     C 4819   9.518   6.778   4.988 -0.8237  0.7408 -1.4721
  777MOL0     C 4820   9.655   6.801   5.059  0.4735 -0.7729  0.7886
  777MOL0     C 4821   9.753   6.683   5.034 -0.0403 -0.4296  0.1972
  777MOL0     C 4822   9.909   6.707   5.044  0.3354  0.3592  0.5765
  777MOL0     C 4823   9.942   6.789   5.158  0.2749 -0.8938 -0.1061
  777MOL0     C 4824   9.964   6.857   5.248 -0.0096  0.6190  0.5059
  777MOL0     C 4825   9.455   6.463   5.022 -0.4452 -0.1375  0.2685
  777MOL0     C 4826   9.469   6.321   5.056  0.6069  0.2704  0.1072
  777MOL0     C 4827   9.496   6.220   4.946 -0.0619 -0.1893  0.1921
  777MOL0     H 4828   9.228   6.000   5.395 -0.5787  2.1379  3.7432
  777MOL0     H 4829   9.205   5.772   5.503 -0.2574  1.3057  0.7334
  777MOL0     H 4830   9.493   5.458   5.571  0.9506 -1.2452 -0.0546
  777MOL0     H 4831   9.594   5.593   5.526 -0.8004 -2.9578 -0.8979
  777MOL0     H 4832   9.518   5.546   5.821  1.6264  1.1757  1.3115
  777MOL0     H 4833   9.635   5.657   5.755 -2.0655  1.8909  1.1540
  777MOL0     H 4834   9.682   5.366   5.687 -1.6958 -0.8614  1.0859
  777MOL0     H 4835   9.687   5.401   5.859 -0.8599  0.0450 -0.5299
  777MOL0     H 4836   9.853   5.561   5.665 -1.2127  1.6406  1.0499
  777MOL0     H 4837   9.856   5.579   5.836  1.8004 -0.6503 -0.3793
  777MOL0     H 4838   9.944   5.360   5.873  1.1811 -1.2250  0.2652
  777MOL0     H 4839   9.905   5.304   5.714 -0.5571 -0.2276  1.2345
  777MOL0     H 4840  10.115   5.528   5.752  0.5194 -0.4234 -0.4342
  777MOL0     H 4841  10.155   5.356   5.749 -0.1668 -2.0545 -2.4462
  777MOL0     H 4842  10.198   5.430   5.528  0.6274  1.6988  0.6923
  777MOL0     H 4843  10.043   5.536   5.530 -1.2547  0.8424  5.5914
  777MOL0     H 4844   9.924   5.326   5.493  0.5907  1.1394  0.1280
  777MOL0     H 4845  10.059   5.325   5.383 -2.1165 -1.4530 -0.9305
  777MOL0     H 4846   9.924   5.047   5.537  0.4567 -0.7903 -3.2637
  777MOL0     H 4847  10.016   4.797   5.498  1.2995  1.6129 -1.5665
  777MOL0     H 4848  10.176   4.770   5.498 -0.0173 -2.1991  0.7505
  777MOL0     H 4849  10.164   4.703   5.722  0.6106 -0.1963 -2.5947
  777MOL0     H 4850  10.164   4.864   5.765 -0.0007  1.1870 -0.7958
  777MOL0     H 4851   9.912   4.691   5.712  1.5488 -0.6666 -1.2909
  777MOL0     H 4852   9.906   4.854   5.778  0.9558  1.1540  0.9296
  777MOL0     H 4853   9.889   4.708   5.964 -0.8668 -3.2156 -0.2213
  777MOL0     H 4854  10.054   4.769   5.972  0.3557 -1.1919  0.6395
  777MOL0     H 4855  10.010   4.683   6.180  2.3432  0.1670  1.0153
  777MOL0     H 4856   9.985   4.544   6.380 -0.8821 -1.8023 -0.1514
  777MOL0     H 4857   9.758   4.332   6.573 -0.8195 -1.6380  0.3914
  777MOL0     H 4858   9.642   4.279   6.765 -1.1998 -3.1624 -0.0496
  777MOL0     H 4859   9.668   4.392   7.023 -1.1039 -1.7368 -1.4540
  777MOL0     H 4860   9.572   4.270   7.075  0.6125 -0.1928 -3.0390
  777MOL0     H 4861   9.746   4.220   7.267  2.3708 -0.3219 -0.6440
  777MOL0     H 4862   9.845   4.350   7.190  0.1504  4.8402  1.2548
  777MOL0     H 4863   9.650   4.512   7.233 -0.5189  0.2046 -0.1813
  777MOL0     H 4864   9.571   4.384   7.315  0.7691 -0.3898  0.6428
  777MOL0     H 4865   9.714   4.379   7.509  0.9661  0.7980  0.7656
  777MOL0     H 4866   9.678   4.543   7.457 -0.8377  0.3681 -0.7813
  777MOL0     H 4867   9.947   4.382   7.427 -2.1769 -0.6598 -1.6142
  777MOL0     H 4868   9.906   4.510   7.531  0.7155 -0.2525  0.5738
  777MOL0     H 4869   9.904   4.551   7.229  0.5730  0.1826 -0.2511
  777MOL0     H 4870   9.874   4.680   7.350  0.1294 -0.6438  3.3734
  777MOL0     H 4871  10.144   4.551   7.366 -0.7569  0.0161  0.6396
  777MOL0     H 4872  10.110   4.725   7.356  0.4067 -0.1241 -0.6197
  777MOL0     H 4873  10.080   4.721   7.115 -1.6004  0.7087  2.2974
  777MOL0     H 4874  10.238   4.682   7.169  0.0436 -1.1628 -1.3967
  777MOL0     H 4875  10.023   4.224   6.971  0.5776  1.7176  0.9904
  777MOL0     H 4876  10.127   4.260   6.752 -0.4316 -0.9661  1.2562
  777MOL0     H 4877   9.984   4.188   6.152 -1.7606  0.6988  1.3682
  777MOL0     H 4878  10.065   4.321   5.946  0.1626  0.8628 -0.4738
  777MOL0     H 4879   9.627   5.818   5.616  0.7036  0.1900 -2.7326
  777MOL0     H 4880   9.638   6.014   5.527 -0.4406  0.1722  1.6525
  777MOL0     H 4881   9.448   6.385   5.398  2.0597  1.2665 -0.1117
  777MOL0     H 4882   9.407   6.607   5.320 -2.0589  1.6570 -2.1697
  777MOL0     H 4883   9.473   6.877   4.977 -2.6049  0.2900  0.8014
  777MOL0     H 4884   9.529   6.731   4.890 -2.6086 -2.1414 -0.4585
  777MOL0     H 4885   9.639   6.831   5.164 -4.4026  3.0893 -0.6515
  777MOL0     H 4886   9.705   6.886   5.011 -0.4402  0.1190  1.3855
  777MOL0     H 4887   9.741   6.638   4.935 -0.5484  0.4245 -0.1495
  777MOL0     H 4888   9.724   6.599   5.098  0.8525 -1.1723 -0.3512
  777MOL0     H 4889   9.972   6.618   5.047  0.3725  0.3853  0.5792
  777MOL0     H 4890   9.937   6.769   4.958  3.0567 -0.6343  0.6555
  777MOL0     H 4891   9.969   6.914   5.339 -2.1879  3.1242 -0.8106
  777MOL0     H 4892   9.490   6.494   4.923 -0.0579  0.9745  0.7435
  777MOL0     H 4893   9.537   6.277   4.863  1.0055 -1.3533 -0.1038
  777MOL0     H 4894   9.564   6.140   4.976 -0.4103 -0.8307 -0.6896
  777MOL0     H 4895   9.405   6.175   4.906 -0.6910  0.5826  0.7081
  778MOL0     O 4896   8.297   5.776   6.713  0.2902 -0.3627 -0.0741
  778MOL0     C 4897   8.236   5.838   6.630 -0.3357 -0.1622  0.1070
  778MOL0     O 4898   8.289   5.872   6.512 -0.3085 -0.0837 -0.1974
  778MOL0     C 4899   8.279   5.780   6.411  0.5417  0.6910 -0.1891
  778MOL0     C 4900   8.262   5.640   6.434 -0.5367  0.1889  0.1542
  778MOL0     C 4901   8.250   5.559   6.322  1.0218 -0.6146 -0.1653
  778MOL0     C 4902   8.251   5.616   6.189  0.4572 -0.1939 -0.6122
  778MOL0     O 4903   8.237   5.536   6.081  0.3491  0.9061  0.0523
  778MOL0     C 4904   8.300   5.566   5.959 -1.0256  0.5150 -0.2253
  778MOL0     C 4905   8.321   5.427   5.904 -0.1882 -0.4349  0.3844
  778MOL0     C 4906   8.368   5.418   5.763  0.3525  0.0599  0.6167
  778MOL0     C 4907   8.261   5.471   5.666  0.1389 -0.1349  0.6264
  778MOL0     C 4908   8.273   5.400   5.530  0.2307 -1.4277  0.7192
  778MOL0     C 4909   8.383   5.459   5.437  0.1334 -0.1465  0.1721
  778MOL0     C 4910   8.372   5.409   5.293 -0.6122 -0.0175  0.2560
  778MOL0     C 4911   8.499   5.438   5.215 -0.1941  0.2182  0.4993
  778MOL0     N 4912   8.482   5.390   5.081  0.1281 -0.2243 -0.7589
  778MOL0     C 4913   8.445   5.463   4.970  0.0989  0.2506 -0.1381
  778MOL0     C 4914   8.444   5.376   4.868 -1.0659 -0.1664 -0.3937
  778MOL0     C 4915   8.399   5.379   4.729  0.2234 -0.1781  0.4567
  778MOL0     C 4916   8.298   5.482   4.690 -0.4775 -0.1351 -0.8866
  778MOL0     C 4917   8.164   5.468   4.771 -0.5165 -0.3984  0.3484
  778MOL0     C 4918   8.051   5.525   4.677 -0.3232 -0.6453  0.0518
  778MOL0     O 4919   8.075   5.666   4.645 -0.2067 -0.5258 -0.2184
  778MOL0     C 4920   7.989   5.736   4.562  0.6486  0.4858 -0.2994
  778MOL0     C 4921   7.918   5.670   4.459 -0.0751  0.0886  0.2861
  778MOL0     C 4922   7.848   5.738   4.368  1.5154  0.9941  0.0860
  778MOL0     C 4923   7.833   5.877   4.377  0.4843 -0.0909  0.6303
  778MOL0     C 4924   7.747   5.958   4.288 -0.7103 -0.1321 -0.0348
  778MOL0     O 4925   7.665   5.891   4.208 -0.1867  0.9418 -0.0265
  778MOL0     C 4926   7.582   5.943   4.113  0.1437 -0.8107  0.4680
  778MOL0     C 4927   7.439   5.965   4.123 -0.5027 -0.1378 -0.6619
  778MOL0     C 4928   7.363   6.005   4.014  0.1619  0.2480 -0.0017
  778MOL0     C 4929   7.421   6.012   3.883 -0.0527 -0.1676 -0.9280
  778MOL0     O 4930   7.349   6.067   3.775 -0.1283  0.3408  0.5316
  778MOL0     C 4931   7.211   6.090   3.784  0.5724 -0.2669 -0.7004
  778MOL0     C 4932   7.186   6.234   3.835 -0.2167  0.0645  0.1697
  778MOL0     C 4933   7.207   6.329   3.713 -0.5265 -0.3342  0.3011
  778MOL0     C 4934   7.092   6.364   3.621  0.3559 -0.8755 -0.7947
  778MOL0     C 4935   6.989   6.447   3.702 -0.7497  0.0797 -0.6533
  778MOL0     C 4936   6.912   6.540   3.602 -0.5670 -0.4091 -0.9158
  778MOL0     C 4937   6.818   6.630   3.692 -1.1688  0.1995  0.4812
  778MOL0     C 4938   6.724   6.712   3.595  0.1488  0.8267  0.1288
  778MOL0    Cl 4939   6.643   6.610   3.475 -0.2175 -0.2878  0.2297
  778MOL0     C 4940   7.557   5.981   3.864 -0.8150 -0.5397  0.1767
  778MOL0     C 4941   7.638   5.955   3.981  0.2915 -0.5785  0.1121
  778MOL0     O 4942   7.767   6.080   4.284 -0.4444  0.6427  0.1348
  778MOL0     C 4943   7.901   5.944   4.480 -0.2986  0.6414  0.7697
  778MOL0     C 4944   7.980   5.874   4.569  0.1147 -0.5681  0.1016
  778MOL0     N 4945   8.494   5.251   4.916 -0.1587  0.8780 -0.2074
  778MOL0     N 4946   8.531   5.275   5.038 -0.6294  0.3449 -0.5169
  778MOL0     C 4947   8.263   5.754   6.168 -0.1366  0.3245 -0.1266
  778MOL0     C 4948   8.279   5.830   6.285  0.1847 -0.7508 -0.0979
  778MOL0     C 4949   8.107   5.902   6.663  0.2595 -0.2999  0.2805
  778MOL0     C 4950   8.044   5.989   6.570  0.0871  0.3848  0.1482
  778MOL0     C 4951   7.920   6.051   6.598  0.1530 -0.9879 -0.1806
  778MOL0     C 4952   7.851   6.017   6.716  0.8948 -0.4724 -0.3456
  778MOL0     O 4953   7.723   6.075   6.754  0.1881 -0.1206 -0.2170
  778MOL0     C 4954   7.661   6.162   6.653  0.1252 -0.2850 -0.5601
  778MOL0     C 4955   7.716   6.301   6.670 -0.3419 -0.5224  0.5964
  778MOL0     C 4956   7.714   6.365   6.540 -0.3515 -0.1475  0.3051
  778MOL0     C 4957   7.765   6.506   6.539 -0.1663  0.9933 -0.0042
  778MOL0     C 4958   7.777   6.562   6.401  0.7782 -0.2047  0.4939
  778MOL0     C 4959   7.794   6.607   6.291 -0.7221  0.4767  0.3197
  778MOL0     C 4960   7.915   5.935   6.810  0.1427  0.3948  0.0902
  778MOL0     C 4961   8.039   5.880   6.790  0.0933  1.0343 -0.0647
  778MOL0     C 4962   8.093   5.797   6.898  0.0701 -0.6231 -0.2046
  778MOL0     H 4963   8.273   5.595   6.532  4.1598 -1.2495 -0.8093
  778MOL0     H 4964   8.237   5.453   6.341  1.1688 -0.1652  3.0816
  778MOL0     H 4965   8.234   5.624   5.894 -2.3474 -2.7801 -2.0380
  778MOL0     H 4966   8.399   5.611   5.974  0.8067 -2.3706 -2.7515
  778MOL0     H 4967   8.225   5.377   5.919 -1.3914  0.9521 -2.0306
  778MOL0     H 4968   8.400   5.371   5.954  2.6159 -0.0592 -3.2311
  778MOL0     H 4969   8.396   5.315   5.738 -0.2630 -0.1197  0.6311
  778MOL0     H 4970   8.459   5.477   5.757  1.5981 -1.9016 -2.5329
  778MOL0     H 4971   8.167   5.442   5.715  0.6920 -0.8542  1.2938
  778MOL0     H 4972   8.271   5.580   5.673 -1.4256 -0.0607  3.2786
  778MOL0     H 4973   8.274   5.291   5.532  0.2278 -1.5856 -2.7291
  778MOL0     H 4974   8.177   5.426   5.484  0.2635 -0.4932  1.1578
  778MOL0     H 4975   8.380   5.568   5.428 -0.8141 -0.2715 -1.3566
  778MOL0     H 4976   8.474   5.424   5.486 -1.3120 -0.2057  2.9900
  778MOL0     H 4977   8.289   5.464   5.248  0.0181  1.8506  1.2962
  778MOL0     H 4978   8.348   5.302   5.293 -0.0153 -0.1678  1.4315
  778MOL0     H 4979   8.521   5.545   5.210  3.5621 -0.3845  1.4733
  778MOL0     H 4980   8.578   5.390   5.274 -0.5673 -0.9338  0.0794
  778MOL0     H 4981   8.408   5.564   4.960 -3.5078 -1.1375 -2.9335
  778MOL0     H 4982   8.487   5.393   4.665 -0.9981 -1.3526 -1.6120
  778MOL0     H 4983   8.364   5.282   4.691 -2.4316  0.8143  0.1980
  778MOL0     H 4984   8.332   5.586   4.683 -1.4295  0.0870 -3.0957
  778MOL0     H 4985   8.271   5.463   4.586 -0.2148  2.9062 -1.6055
  778MOL0     H 4986   8.187   5.521   4.864  2.8287 -0.6899 -0.1622
  778MOL0     H 4987   8.145   5.360   4.773  0.7394 -0.6937 -1.2676
  778MOL0     H 4988   7.957   5.520   4.733  0.7054  0.2974  1.9680
  778MOL0     H 4989   8.047   5.460   4.590 -1.2640  0.2448 -0.6020
  778MOL0     H 4990   7.909   5.562   4.448 -1.9601  0.3099 -0.6590
  778MOL0     H 4991   7.788   5.690   4.292  0.9170  0.4806  0.8668
  778MOL0     H 4992   7.383   5.946   4.214 -0.2846 -0.5837 -0.6227
  778MOL0     H 4993   7.267   6.036   4.054 -0.1514 -1.8992  1.0479
  778MOL0     H 4994   7.155   6.071   3.691 -2.8750 -1.6193  1.4251
  778MOL0     H 4995   7.154   6.021   3.848 -2.5582  1.9771 -0.8212
  778MOL0     H 4996   7.087   6.240   3.882 -0.8550  1.0848 -1.2305
  778MOL0     H 4997   7.254   6.248   3.919  1.0326 -1.2356 -0.5812
  778MOL0     H 4998   7.250   6.426   3.741  0.0004 -1.0205  1.9853
  778MOL0     H 4999   7.288   6.285   3.653 -1.0655 -0.1941 -0.5581
  778MOL0     H 5000   7.056   6.271   3.578  1.2493 -2.3577  1.4703
  778MOL0     H 5001   7.134   6.423   3.539 -1.3295  0.0896 -0.9972
  778MOL0     H 5002   7.043   6.509   3.774  2.9833 -1.3526 -1.9972
  778MOL0     H 5003   6.922   6.385   3.762 -0.7711 -0.3537 -1.1230
  778MOL0     H 5004   6.975   6.604   3.539  1.3024 -1.0210  0.2240
  778MOL0     H 5005   6.851   6.477   3.538 -1.9161  1.2628 -1.3362
  778MOL0     H 5006   6.877   6.712   3.734  0.1076 -0.2196 -0.4425
  778MOL0     H 5007   6.767   6.572   3.769  2.1952 -0.6866  2.2043
  778MOL0     H 5008   6.653   6.759   3.664 -1.2069  0.1879 -0.8112
  778MOL0     H 5009   6.771   6.791   3.536  0.0466  1.0112  0.2915
  778MOL0     H 5010   7.591   5.991   3.762 -1.2172 -2.0644 -0.1342
  778MOL0     H 5011   7.747   5.952   3.979  0.3768 -0.5529  2.3064
  778MOL0     H 5012   7.890   6.051   4.486 -5.5907  0.2797  1.9608
  778MOL0     H 5013   8.035   5.923   4.648  1.6673 -1.1721 -0.5662
  778MOL0     H 5014   8.253   5.812   6.077  0.1908  1.8785  0.7800
  778MOL0     H 5015   8.269   5.937   6.270 -0.9958 -0.9916 -1.2231
  778MOL0     H 5016   8.101   6.004   6.480  0.5547 -1.1065  0.1772
  778MOL0     H 5017   7.875   6.114   6.521 -1.2056  0.5697  1.7724
  778MOL0     H 5018   7.553   6.153   6.668  0.2508 -0.8262  0.1271
  778MOL0     H 5019   7.672   6.117   6.554  1.0757  0.6837 -0.9085
  778MOL0     H 5020   7.824   6.297   6.686 -0.5611 -2.3043  1.9705
  778MOL0     H 5021   7.668   6.366   6.744  0.9466 -0.9550  1.8573
  778MOL0     H 5022   7.618   6.375   6.488  0.7213  0.7168 -1.6094
  778MOL0     H 5023   7.778   6.298   6.482  1.4052  0.1493  1.7885
  778MOL0     H 5024   7.701   6.576   6.593 -2.1943 -1.3313  0.8221
  778MOL0     H 5025   7.865   6.490   6.580 -0.1076  0.7126 -0.2543
  778MOL0     H 5026   7.797   6.649   6.193  0.1460  1.1990  0.6355
  778MOL0     H 5027   7.874   5.918   6.909  0.1278 -2.1542 -0.2650
  778MOL0     H 5028   8.026   5.809   6.983  1.1362  2.3219  0.3377
  778MOL0     H 5029   8.088   5.694   6.860 -0.4301  0.8068 -4.6576
  778MOL0     H 5030   8.189   5.840   6.928 -2.1408  1.3264  5.2841
  779MOL0     O 5031   9.116   7.902   3.555 -0.1977  0.1439 -0.8843
  779MOL0     C 5032   9.109   8.024   3.533 -1.2616 -0.6418  0.6128
  779MOL0     O 5033   9.204   8.101   3.473 -0.4433 -0.4577  0.5395
  779MOL0     C 5034   9.330   8.039   3.466 -0.8452  0.3040  0.2106
  779MOL0     C 5035   9.407   8.062   3.581  0.5650  0.3433 -0.8556
  779MOL0     C 5036   9.530   8.002   3.579 -1.6899 -0.9106 -0.0623
  779MOL0     C 5037   9.574   7.917   3.474 -0.8604 -0.8495 -0.0299
  779MOL0     O 5038   9.695   7.852   3.476 -0.0614 -0.2956  0.6616
  779MOL0     C 5039   9.773   7.851   3.596 -0.3492  0.0200  0.9422
  779MOL0     C 5040   9.851   7.717   3.586  0.1803  0.1888 -0.6786
  779MOL0     C 5041   9.959   7.690   3.694 -0.2824  0.0285 -0.0377
  779MOL0     C 5042  10.024   7.550   3.696 -0.2956 -0.3138  0.3557
  779MOL0     C 5043  10.164   7.540   3.777 -0.4401  0.0229  0.0466
  779MOL0     C 5044  10.199   7.395   3.833 -0.8823 -0.1052  0.5438
  779MOL0     C 5045  10.333   7.370   3.896 -0.9497  0.5682 -0.0548
  779MOL0     C 5046  10.363   7.427   4.038  0.1638 -0.2466  1.1368
  779MOL0     N 5047  10.491   7.382   4.090 -0.2472  0.1548 -0.0327
  779MOL0     C 5048  10.520   7.275   4.177  0.6186 -0.0181  0.5264
  779MOL0     C 5049  10.648   7.260   4.178  0.4124  0.5751 -0.3691
  779MOL0     C 5050  10.723   7.155   4.254 -0.4554  0.0367  0.1140
  779MOL0     C 5051  10.810   7.225   4.362 -0.5090 -0.2866  0.0011
  779MOL0     C 5052  10.900   7.128   4.433 -0.1961  0.1139 -0.1586
  779MOL0     C 5053  10.976   7.204   4.549  0.3092  0.2880  0.2621
  779MOL0     O 5054  11.044   7.320   4.497 -0.3285  0.3372 -0.0058
  779MOL0     C 5055  11.162   7.301   4.433 -0.0359  0.5141 -0.1454
  779MOL0     C 5056  11.174   7.344   4.304  0.0222 -0.1892 -0.0016
  779MOL0     C 5057  11.298   7.324   4.230  1.0146 -0.0245  0.4222
  779MOL0     C 5058  11.403   7.256   4.294 -0.0188 -0.8405  0.3464
  779MOL0     C 5059  11.534   7.258   4.226  0.7791  0.5933 -0.7450
  779MOL0     O 5060  11.550   7.333   4.112 -1.0894  0.5953 -0.1759
  779MOL0     C 5061  11.681   7.358   4.068 -0.3782  0.1648  0.8622
  779MOL0     C 5062  11.700   7.327   3.927 -0.4013  0.5660 -0.3289
  779MOL0     C 5063  11.826   7.354   3.879  1.1120 -0.0706  1.2544
  779MOL0     C 5064  11.924   7.419   3.951  0.5872  0.1474 -0.1310
  779MOL0     O 5065  12.045   7.428   3.894 -0.2775 -0.2400 -0.7349
  779MOL0     C 5066  12.145   7.510   3.966  0.7161  0.2920 -0.0407
  779MOL0     C 5067  12.262   7.500   3.866 -0.2803  0.2551  0.3508
  779MOL0     C 5068  12.390   7.555   3.935  0.2516  0.0184  0.4368
  779MOL0     C 5069  12.512   7.516   3.850 -0.9229 -0.2926  0.5611
  779MOL0     C 5070  12.640   7.568   3.921 -0.5869 -0.3384  0.0809
  779MOL0     C 5071  12.769   7.532   3.852  0.1478 -0.2739  0.1118
  779MOL0     C 5072  12.886   7.591   3.928  0.9111  0.4961 -0.6315
  779MOL0     C 5073  13.024   7.600   3.852 -0.0761 -0.3215  0.6774
  779MOL0    Cl 5074  13.125   7.655   3.982  0.2831  0.3286  0.0205
  779MOL0     C 5075  11.894   7.453   4.091  0.3445  0.8494 -0.0318
  779MOL0     C 5076  11.777   7.428   4.145  0.6049 -0.4327  0.3532
  779MOL0     O 5077  11.615   7.185   4.282 -0.4316 -0.7290 -0.1174
  779MOL0     C 5078  11.372   7.201   4.420 -0.8678  0.2147  0.0072
  779MOL0     C 5079  11.257   7.218   4.490 -0.4691  0.6323  0.0898
  779MOL0     N 5080  10.702   7.371   4.109 -0.3614 -0.2734  0.2057
  779MOL0     N 5081  10.610   7.440   4.068 -0.0953 -0.3188  0.9423
  779MOL0     C 5082   9.490   7.896   3.370 -0.0659 -0.5381  0.0598
  779MOL0     C 5083   9.362   7.953   3.362 -0.6212 -0.2935 -0.3223
  779MOL0     C 5084   8.994   8.091   3.597  0.8197 -0.8396  0.7559
  779MOL0     C 5085   9.007   8.224   3.639 -0.1529 -0.1030 -0.2453
  779MOL0     C 5086   8.902   8.284   3.709 -0.7669 -0.6113  0.3524
  779MOL0     C 5087   8.783   8.230   3.727  0.1683 -0.8401  1.3929
  779MOL0     O 5088   8.682   8.285   3.789  0.3582  0.2333 -0.0397
  779MOL0     C 5089   8.663   8.430   3.784  0.1653 -0.1207  0.6246
  779MOL0     C 5090   8.534   8.460   3.860  0.1643 -0.1016  0.2102
  779MOL0     C 5091   8.399   8.440   3.777 -0.2207  0.1918 -0.7229
  779MOL0     C 5092   8.288   8.407   3.872 -0.5418  0.2029 -0.1830
  779MOL0     C 5093   8.167   8.393   3.779 -1.6687 -0.4619  0.8944
  779MOL0     C 5094   8.073   8.388   3.703 -0.0906  0.3931  0.3134
  779MOL0     C 5095   8.766   8.103   3.675  0.2168  0.2913 -0.6148
  779MOL0     C 5096   8.861   8.034   3.609  0.6329 -0.3145  0.8530
  779MOL0     C 5097   8.816   7.906   3.551 -0.3799 -0.0551 -0.1670
  779MOL0     H 5098   9.375   8.120   3.667  0.3143  3.6491 -2.9914
  779MOL0     H 5099   9.595   8.024   3.663  1.7279  2.2819 -3.1595
  779MOL0     H 5100   9.829   7.945   3.592 -2.0140  0.9919 -1.4749
  779MOL0     H 5101   9.713   7.849   3.688  0.3424 -0.6590  1.4049
  779MOL0     H 5102   9.892   7.712   3.484 -0.9596  0.2414 -1.1491
  779MOL0     H 5103   9.776   7.638   3.592  1.6280 -1.1269  1.2621
  779MOL0     H 5104   9.916   7.705   3.794 -1.2916  2.3216 -0.7473
  779MOL0     H 5105  10.032   7.772   3.683 -0.0924 -0.2841 -1.2371
  779MOL0     H 5106   9.935   7.499   3.734 -0.0938 -0.3906  0.7282
  779MOL0     H 5107  10.048   7.527   3.591 -0.2571 -2.5909  0.8081
  779MOL0     H 5108  10.246   7.570   3.711  0.1421  0.1158  0.7936
  779MOL0     H 5109  10.153   7.600   3.867 -0.5616 -2.7600  2.0052
  779MOL0     H 5110  10.121   7.366   3.903 -2.2564 -1.8149 -1.5556
  779MOL0     H 5111  10.198   7.336   3.741 -0.6500  0.4150  0.2018
  779MOL0     H 5112  10.408   7.402   3.823  0.1230  0.0061  0.7681
  779MOL0     H 5113  10.353   7.265   3.921  0.8722  1.4589  2.6857
  779MOL0     H 5114  10.371   7.536   4.030  0.2808 -0.3698 -1.0605
  779MOL0     H 5115  10.282   7.404   4.107  0.2327 -0.5911  1.1049
  779MOL0     H 5116  10.453   7.213   4.237  0.3792  1.3867  1.7672
  779MOL0     H 5117  10.673   7.077   4.312  1.5787 -0.8780  0.7328
  779MOL0     H 5118  10.781   7.094   4.184  0.7328 -1.7441  2.5333
  779MOL0     H 5119  10.860   7.307   4.310 -0.6458  0.8056  1.5332
  779MOL0     H 5120  10.742   7.264   4.438 -0.7241 -3.9015  1.9076
  779MOL0     H 5121  10.981   7.092   4.369  2.2205  0.6263  2.3910
  779MOL0     H 5122  10.837   7.047   4.472  0.8828 -1.7982 -2.1822
  779MOL0     H 5123  11.040   7.138   4.608 -1.3715 -0.4225  1.3447
  779MOL0     H 5124  10.901   7.246   4.616  0.4373 -0.4121  0.8448
  779MOL0     H 5125  11.107   7.413   4.254 -0.9236 -2.4006 -2.0024
  779MOL0     H 5126  11.317   7.375   4.136  2.3826 -0.9865  0.1414
  779MOL0     H 5127  11.621   7.286   3.865 -1.2572  1.5577  0.0714
  779MOL0     H 5128  11.847   7.336   3.774 -0.8910 -0.4663  0.8868
  779MOL0     H 5129  12.120   7.616   3.972  2.5202  0.6960  1.2477
  779MOL0     H 5130  12.172   7.464   4.062 -1.2558 -1.1410 -0.1194
  779MOL0     H 5131  12.282   7.395   3.844  2.2223  1.0108 -1.3350
  779MOL0     H 5132  12.235   7.547   3.771 -0.0643 -0.7048 -0.1967
  779MOL0     H 5133  12.374   7.663   3.932 -1.8332 -0.2760 -0.8617
  779MOL0     H 5134  12.399   7.525   4.040 -1.7756 -2.3534  0.0222
  779MOL0     H 5135  12.497   7.537   3.744 -2.0710  0.0641  0.7779
  779MOL0     H 5136  12.524   7.407   3.857 -2.6843 -0.4097  3.2383
  779MOL0     H 5137  12.659   7.522   4.018  1.0817 -1.5196 -0.7518
  779MOL0     H 5138  12.627   7.672   3.950 -0.8277  0.0834 -1.4744
  779MOL0     H 5139  12.780   7.423   3.858  1.0591 -0.2409 -0.7026
  779MOL0     H 5140  12.761   7.577   3.752 -1.9937 -0.3562  0.1901
  779MOL0     H 5141  12.899   7.524   4.014 -1.3902  1.0129  0.2013
  779MOL0     H 5142  12.851   7.690   3.959 -1.7192 -0.0579 -1.5590
  779MOL0     H 5143  13.041   7.503   3.806 -0.1695  0.2140 -0.5220
  779MOL0     H 5144  13.029   7.682   3.780 -0.0381  1.2134  2.3564
  779MOL0     H 5145  11.975   7.502   4.144  0.6373  0.3279  0.0053
  779MOL0     H 5146  11.758   7.438   4.251  2.0384 -0.6480  0.6428
  779MOL0     H 5147  11.455   7.155   4.473  0.6180 -1.9668 -3.8097
  779MOL0     H 5148  11.239   7.192   4.594  3.6619  2.3959  1.4576
  779MOL0     H 5149   9.512   7.835   3.283 -3.9891 -3.9858  1.1654
  779MOL0     H 5150   9.288   7.934   3.284  0.7280  2.6523 -2.4965
  779MOL0     H 5151   9.109   8.261   3.637 -0.3492  0.5910 -3.3861
  779MOL0     H 5152   8.920   8.385   3.745 -1.7404  0.5897 -2.2717
  779MOL0     H 5153   8.668   8.478   3.686 -0.3437  1.9495  1.5602
  779MOL0     H 5154   8.742   8.472   3.846 -0.1158  1.6493 -0.1457
  779MOL0     H 5155   8.536   8.560   3.903 -1.6336 -1.1623  3.0658
  779MOL0     H 5156   8.528   8.398   3.949 -0.7015  1.2667  1.1425
  779MOL0     H 5157   8.402   8.347   3.719 -1.8754 -0.7904  0.6785
  779MOL0     H 5158   8.375   8.530   3.720  0.1523 -1.0101 -2.9153
  779MOL0     H 5159   8.315   8.315   3.924 -0.8089 -0.2759 -0.8725
  779MOL0     H 5160   8.269   8.489   3.941  2.3622  2.0901 -1.4292
  779MOL0     H 5161   7.991   8.382   3.634 -1.1427  1.0563  1.4544
  779MOL0     H 5162   8.665   8.065   3.687  0.4919 -1.9948 -4.2441
  779MOL0     H 5163   8.711   7.908   3.521 -0.0050 -1.5785 -1.7238
  779MOL0     H 5164   8.874   7.884   3.461  0.0545  1.3628 -0.2677
  779MOL0     H 5165   8.846   7.827   3.620 -2.1657 -0.2188  0.4609
  780MOL0     O 5166   2.896   3.127   9.416 -0.8460  0.0350  0.4503
  780MOL0     C 5167   2.848   3.039   9.487  0.8525  0.5643  0.3607
  780MOL0     O 5168   2.804   3.051   9.617 -0.4793  0.1515 -0.1051
  780MOL0     C 5169   2.859   3.156   9.688  0.6173  0.3648  0.0962
  780MOL0     C 5170   2.835   3.294   9.650  1.2614  0.7476  0.6145
  780MOL0     C 5171   2.869   3.395   9.735  0.0982  0.0105 -0.7108
  780MOL0     C 5172   2.939   3.379   9.856  0.0852  0.0943 -0.0316
  780MOL0     O 5173   2.957   3.493   9.932 -0.2458 -0.5627 -0.1936
  780MOL0     C 5174   3.094   3.536   9.949  0.3670 -0.2792  0.7606
  780MOL0     C 5175   3.117   3.675   9.882 -0.4799  0.3427  0.2327
  780MOL0     C 5176   3.255   3.737   9.918  0.2525 -0.6612 -0.2952
  780MOL0     C 5177   3.279   3.862   9.830 -0.1941 -0.0109 -0.2989
  780MOL0     C 5178   3.385   3.953   9.889 -0.4618  0.4023 -0.0244
  780MOL0     C 5179   3.520   3.885   9.929 -0.2188  0.1668  0.4784
  780MOL0     C 5180   3.618   3.984   9.986  0.5683  0.5555 -0.1978
  780MOL0     C 5181   3.568   4.077  10.100  0.0140  0.7178 -0.4511
  780MOL0     N 5182   3.578   4.219  10.069  0.3116  0.0374  0.3043
  780MOL0     C 5183   3.656   4.316  10.125 -0.5831  0.4386  0.7815
  780MOL0     C 5184   3.681   4.401  10.027 -0.1775 -0.7840 -0.2494
  780MOL0     C 5185   3.771   4.514  10.049 -0.5213  1.4297 -0.7455
  780MOL0     C 5186   3.925   4.479  10.030 -0.3771  0.6116 -0.0154
  780MOL0     C 5187   3.972   4.395  10.143 -0.1946  0.4995 -0.5763
  780MOL0     C 5188   4.052   4.265  10.104  0.7394 -0.9368  0.3580
  780MOL0     O 5189   3.972   4.187  10.012 -0.0483  0.6080  0.3985
  780MOL0     C 5190   4.041   4.101   9.927 -0.7137  0.2167  0.0247
  780MOL0     C 5191   4.180   4.077   9.928  0.1567 -0.5529 -0.2514
  780MOL0     C 5192   4.241   3.993   9.834 -0.2244 -0.3289  1.0852
  780MOL0     C 5193   4.168   3.919   9.738  0.7826  0.5734  0.1538
  780MOL0     C 5194   4.251   3.844   9.630 -0.1358 -0.6089  0.7351
  780MOL0     O 5195   4.388   3.853   9.625  0.1062  0.7946 -0.5174
  780MOL0     C 5196   4.437   3.774   9.528  0.0010  0.4375  0.2385
  780MOL0     C 5197   4.447   3.633   9.527  0.6529  0.0940 -0.3899
  780MOL0     C 5198   4.505   3.571   9.417  0.2865  0.0675  0.8282
  780MOL0     C 5199   4.567   3.642   9.309  0.1472  1.2225  0.1879
  780MOL0     O 5200   4.644   3.578   9.206  1.3961  0.5256  0.2869
  780MOL0     C 5201   4.608   3.448   9.167  0.0062  0.5221 -0.4788
  780MOL0     C 5202   4.700   3.413   9.049 -1.3903 -0.5530  0.3714
  780MOL0     C 5203   4.709   3.258   9.026 -0.5872 -0.4871 -0.3087
  780MOL0     C 5204   4.816   3.216   8.926  0.5019  0.0392  1.0837
  780MOL0     C 5205   4.850   3.065   8.934  0.6400  0.9411  0.3229
  780MOL0     C 5206   4.933   3.029   8.809  0.2754  0.4604  0.0747
  780MOL0     C 5207   4.980   2.884   8.815  0.1654  0.5013  0.0714
  780MOL0     C 5208   5.091   2.846   8.717  0.6854  0.7122 -0.0169
  780MOL0    Cl 5209   5.221   2.767   8.794 -0.2755  0.1147 -0.2581
  780MOL0     C 5210   4.550   3.781   9.309  0.7415  0.3035 -0.5051
  780MOL0     C 5211   4.485   3.839   9.420 -0.6216 -0.5102 -0.1992
  780MOL0     O 5212   4.177   3.785   9.547  0.0843  0.3772  0.5048
  780MOL0     C 5213   4.029   3.924   9.747  1.1995 -0.4185 -0.1556
  780MOL0     C 5214   3.973   4.021   9.830 -0.0561  0.0890 -0.2813
  780MOL0     N 5215   3.610   4.375   9.913 -0.1925  0.1938  0.4640
  780MOL0     N 5216   3.548   4.258   9.939 -0.6957 -0.4052  0.5777
  780MOL0     C 5217   2.970   3.243   9.893  0.1585  0.6660  0.7716
  780MOL0     C 5218   2.930   3.134   9.805  0.1432 -0.3455  0.9295
  780MOL0     C 5219   2.801   2.906   9.425 -0.0431  0.4306 -0.4514
  780MOL0     C 5220   2.728   2.814   9.508 -0.3639  0.2404 -0.2735
  780MOL0     C 5221   2.724   2.679   9.470  0.6057 -0.6300  0.1199
  780MOL0     C 5222   2.758   2.630   9.342  0.9606 -1.4201 -0.0576
  780MOL0     O 5223   2.757   2.498   9.330  0.2978  0.3372  1.2661
  780MOL0     C 5224   2.803   2.430   9.215 -0.7652  0.7479 -0.5373
  780MOL0     C 5225   2.959   2.401   9.221 -0.1109 -0.4408 -0.6540
  780MOL0     C 5226   3.015   2.336   9.357 -0.1868 -0.3990  0.4494
  780MOL0     C 5227   3.104   2.211   9.348 -0.4990 -0.1756 -0.3024
  780MOL0     C 5228   3.021   2.101   9.289  0.2970  0.7005  0.2985
  780MOL0     C 5229   2.946   2.034   9.224 -0.3970 -0.2022  0.1624
  780MOL0     C 5230   2.797   2.728   9.252  0.4683 -0.0236 -0.3566
  780MOL0     C 5231   2.829   2.856   9.290  0.1482 -0.3207 -0.3412
  780MOL0     C 5232   2.907   2.937   9.187  0.0589 -0.2978  0.0645
  780MOL0     H 5233   2.775   3.307   9.560 -2.6255 -2.9310  2.3031
  780MOL0     H 5234   2.843   3.496   9.704  1.2558  0.0301 -1.6727
  780MOL0     H 5235   3.119   3.539  10.055 -0.8561 -2.3685  1.1476
  780MOL0     H 5236   3.170   3.469   9.907  1.0319  0.9057 -0.0073
  780MOL0     H 5237   3.047   3.746   9.926 -0.9119  0.6926 -0.9976
  780MOL0     H 5238   3.107   3.658   9.774  2.6779  3.5276 -0.7440
  780MOL0     H 5239   3.336   3.666   9.898 -0.5137 -2.2347  1.8106
  780MOL0     H 5240   3.247   3.752  10.026 -0.0334 -1.2583 -0.2320
  780MOL0     H 5241   3.324   3.831   9.735  1.0701  3.1317 -0.8630
  780MOL0     H 5242   3.185   3.912   9.806 -0.6939 -0.2150  1.1187
  780MOL0     H 5243   3.412   4.020   9.808  1.2889  1.6286  1.4814
  780MOL0     H 5244   3.353   4.019   9.970  0.5349 -0.3796  1.0572
  780MOL0     H 5245   3.505   3.801   9.998  1.4242 -2.0205 -1.6647
  780MOL0     H 5246   3.560   3.826   9.846 -3.2633 -1.0427 -0.2546
  780MOL0     H 5247   3.669   4.047   9.912  2.6517  0.6447  1.2356
  780MOL0     H 5248   3.693   3.923  10.037 -0.0650  0.3119  0.4485
  780MOL0     H 5249   3.469   4.044  10.133  0.7064 -1.4981 -0.4231
  780MOL0     H 5250   3.635   4.071  10.187 -1.3969  0.7858  0.6707
  780MOL0     H 5251   3.717   4.307  10.214  4.0678  1.5145 -1.9763
  780MOL0     H 5252   3.743   4.592   9.977  0.6295 -0.0503 -2.9190
  780MOL0     H 5253   3.751   4.555  10.148  2.7822  0.8671  0.2785
  780MOL0     H 5254   3.940   4.425   9.936  2.1965 -3.5208  2.4389
  780MOL0     H 5255   3.975   4.576  10.022 -2.4530  1.6676 -1.0089
  780MOL0     H 5256   3.895   4.385  10.221  1.0214  0.7651  0.7085
  780MOL0     H 5257   4.047   4.459  10.190  0.7881 -0.5060 -0.7141
  780MOL0     H 5258   4.070   4.198  10.188 -0.4583 -1.3325  0.3125
  780MOL0     H 5259   4.148   4.299  10.065  0.0049 -1.5781 -2.1590
  780MOL0     H 5260   4.255   4.116   9.996 -1.2308  2.3543 -0.2349
  780MOL0     H 5261   4.348   3.973   9.836  0.6043  3.0928  4.8163
  780MOL0     H 5262   4.416   3.575   9.613  0.1085 -0.3916 -0.9029
  780MOL0     H 5263   4.519   3.466   9.437 -0.2719  0.4876  3.9780
  780MOL0     H 5264   4.633   3.385   9.253 -1.9132  1.5295  0.9006
  780MOL0     H 5265   4.505   3.430   9.134  0.4973 -0.5171 -1.5253
  780MOL0     H 5266   4.665   3.471   8.964 -1.6426  1.6836  1.9235
  780MOL0     H 5267   4.803   3.441   9.073 -0.6452 -1.9105 -1.0510
  780MOL0     H 5268   4.739   3.203   9.116  0.0640  2.0108  1.0967
  780MOL0     H 5269   4.616   3.214   8.989 -0.3580 -1.1081 -0.1600
  780MOL0     H 5270   4.903   3.277   8.953 -0.3673  2.4736 -1.2799
  780MOL0     H 5271   4.771   3.246   8.832 -0.2521 -2.7609  0.4397
  780MOL0     H 5272   4.758   3.006   8.928  3.7998 -4.7155  0.6994
  780MOL0     H 5273   4.894   3.022   9.024 -1.5449 -5.7825 -1.2201
  780MOL0     H 5274   4.877   3.021   8.715 -0.4689  1.8207  0.3800
  780MOL0     H 5275   5.017   3.098   8.797  4.0532 -3.8695 -1.4833
  780MOL0     H 5276   4.901   2.814   8.787  1.8821 -1.9492  1.0457
  780MOL0     H 5277   4.999   2.854   8.919 -0.0845  0.3571  0.0770
  780MOL0     H 5278   5.056   2.766   8.650 -0.6542 -1.6747  3.2497
  780MOL0     H 5279   5.131   2.935   8.668 -2.2458  1.8866 -0.4457
  780MOL0     H 5280   4.597   3.842   9.233  2.0525 -1.3264 -1.0710
  780MOL0     H 5281   4.492   3.947   9.426  3.3566 -0.5287 -1.8990
  780MOL0     H 5282   3.957   3.875   9.682 -1.5842 -0.7446  2.8975
  780MOL0     H 5283   3.866   4.040   9.825  0.2355  2.4620  0.9017
  780MOL0     H 5284   3.023   3.226   9.986  1.9643  2.1143  0.0646
  780MOL0     H 5285   2.957   3.035   9.840  1.3873 -0.4096 -0.1301
  780MOL0     H 5286   2.708   2.836   9.612  0.2558  2.9933 -0.6596
  780MOL0     H 5287   2.685   2.600   9.533  0.6614 -2.3079 -1.8515
  780MOL0     H 5288   2.782   2.485   9.123  2.0541  2.3273 -0.3608
  780MOL0     H 5289   2.751   2.334   9.209  0.4735 -0.4147  3.8622
  780MOL0     H 5290   3.003   2.498   9.197 -2.2741  0.0911 -2.8530
  780MOL0     H 5291   3.001   2.344   9.138  3.0291 -1.5628  1.5130
  780MOL0     H 5292   2.923   2.300   9.404  0.6997 -1.6715  1.2746
  780MOL0     H 5293   3.062   2.413   9.420  1.0630  0.5358 -1.5431
  780MOL0     H 5294   3.185   2.226   9.276 -0.1824 -0.3507  0.0130
  780MOL0     H 5295   3.152   2.177   9.440  2.4507  1.9180 -0.9322
  780MOL0     H 5296   2.887   1.960   9.174 -2.0866 -0.3756  2.3031
  780MOL0     H 5297   2.832   2.703   9.152  1.0139  1.6071 -0.6039
  780MOL0     H 5298   2.913   2.894   9.087 -1.3566  0.4801 -0.3812
  780MOL0     H 5299   2.856   3.032   9.170  1.4741  0.2894 -1.0568
  780MOL0     H 5300   3.009   2.951   9.225  0.5509 -0.1573 -1.2459
  781MOL0     O 5301  10.694   3.985   5.207 -0.1312 -0.3537 -0.3173
  781MOL0     C 5302  10.689   3.958   5.091 -0.2780  0.8879 -0.1405
  781MOL0     O 5303  10.611   4.027   4.996 -0.1427 -0.7185 -0.4825
  781MOL0     C 5304  10.491   4.068   5.032 -0.4179  1.0950 -0.3791
  781MOL0     C 5305  10.461   4.199   5.010 -0.3953  0.4293 -0.5004
  781MOL0     C 5306  10.338   4.255   5.036  0.5471 -0.0388 -1.5233
  781MOL0     C 5307  10.232   4.169   5.074 -1.2310 -0.1177  0.1726
  781MOL0     O 5308  10.103   4.205   5.109 -0.1392 -0.8054 -0.7588
  781MOL0     C 5309  10.067   4.338   5.100 -0.7333 -0.7677 -0.4358
  781MOL0     C 5310  10.038   4.381   4.955 -0.3810  0.1268 -0.9604
  781MOL0     C 5311   9.927   4.296   4.893 -0.3816 -0.6660 -0.3487
  781MOL0     C 5312   9.893   4.345   4.764  1.0266  0.7324  0.9456
  781MOL0     C 5313   9.795   4.460   4.765 -0.5179 -0.3820 -0.2265
  781MOL0     C 5314   9.765   4.520   4.627  0.1039  0.3120 -1.0121
  781MOL0     C 5315   9.622   4.566   4.610  0.2009  0.3665 -0.0040
  781MOL0     C 5316   9.589   4.588   4.464  0.5043  0.0198  0.7517
  781MOL0     N 5317   9.584   4.465   4.387  0.1030 -0.0059  0.4482
  781MOL0     C 5318   9.472   4.385   4.370  0.6186  0.2192  1.0465
  781MOL0     C 5319   9.504   4.286   4.283 -0.2334 -0.3599  0.0317
  781MOL0     C 5320   9.403   4.181   4.244  0.1243  0.3406  0.4082
  781MOL0     C 5321   9.353   4.110   4.369  0.6506  0.8631 -0.4384
  781MOL0     C 5322   9.307   3.969   4.345  0.5320  0.4246 -0.1539
  781MOL0     C 5323   9.276   3.917   4.481  0.9001  0.4558 -0.0851
  781MOL0     O 5324   9.200   3.796   4.465  0.9154 -0.0988 -0.0433
  781MOL0     C 5325   9.253   3.677   4.450 -0.5711 -0.3585  0.6978
  781MOL0     C 5326   9.172   3.574   4.397  0.2036 -0.5240 -0.2887
  781MOL0     C 5327   9.227   3.449   4.373 -0.2443  0.7226  0.1306
  781MOL0     C 5328   9.352   3.424   4.392  0.0427  0.3171 -0.7619
  781MOL0     C 5329   9.418   3.294   4.344  0.6903 -0.0977  0.0119
  781MOL0     O 5330   9.341   3.214   4.273 -0.3602 -0.0836 -0.7444
  781MOL0     C 5331   9.398   3.088   4.233 -0.6271 -0.4965  0.1973
  781MOL0     C 5332   9.507   3.086   4.140  0.4329  0.2673  0.2191
  781MOL0     C 5333   9.543   2.955   4.081  0.0463  0.5633  0.8533
  781MOL0     C 5334   9.480   2.837   4.117  0.0928 -0.5864  0.2688
  781MOL0     O 5335   9.520   2.732   4.058  0.1155 -0.3841 -0.1385
  781MOL0     C 5336   9.471   2.599   4.086  0.0741  0.7326  0.5747
  781MOL0     C 5337   9.525   2.525   3.965 -0.1748 -0.3974  0.8492
  781MOL0     C 5338   9.675   2.501   3.982 -0.5898  0.6460 -0.2675
  781MOL0     C 5339   9.765   2.601   3.898  1.1677 -0.2376 -0.2580
  781MOL0     C 5340   9.908   2.550   3.886 -0.0208  0.1405 -0.0866
  781MOL0     C 5341  10.013   2.628   3.814 -0.2792 -0.1676  0.2122
  781MOL0     C 5342   9.964   2.638   3.663 -0.1219 -0.3429  0.3691
  781MOL0     C 5343  10.074   2.697   3.581  0.0936 -0.1765  0.4739
  781MOL0    Cl 5344  10.039   2.698   3.406  0.3323 -0.3558  0.1600
  781MOL0     C 5345   9.379   2.848   4.221  0.6815 -0.6349  0.3633
  781MOL0     C 5346   9.340   2.972   4.273 -0.5341 -0.0174  0.1314
  781MOL0     O 5347   9.529   3.268   4.383 -0.4003 -0.3284 -0.3288
  781MOL0     C 5348   9.435   3.525   4.450 -0.4503 -0.0853  0.5549
  781MOL0     C 5349   9.387   3.648   4.475  0.5635  0.0020  0.6912
  781MOL0     N 5350   9.637   4.294   4.250 -0.3081 -0.2805  0.3442
  781MOL0     N 5351   9.678   4.406   4.307 -0.7937 -0.2201 -0.1505
  781MOL0     C 5352  10.266   4.033   5.099 -0.1950  0.0439  0.1817
  781MOL0     C 5353  10.395   3.980   5.085 -0.5978 -0.6379  1.0671
  781MOL0     C 5354  10.788   3.862   5.034 -0.4778  0.6321 -0.1519
  781MOL0     C 5355  10.821   3.884   4.900  0.6306 -0.1526 -0.2570
  781MOL0     C 5356  10.914   3.802   4.836  0.1030 -0.1340 -0.5489
  781MOL0     C 5357  10.975   3.697   4.908  0.3633 -0.5138  0.5182
  781MOL0     O 5358  11.075   3.617   4.854  0.9723 -0.0818  0.4237
  781MOL0     C 5359  11.057   3.574   4.716 -0.7532  0.3960 -0.1598
  781MOL0     C 5360  11.176   3.493   4.648  0.7191 -0.0995  0.2960
  781MOL0     C 5361  11.163   3.350   4.697 -0.5852  0.7688 -0.8606
  781MOL0     C 5362  11.292   3.274   4.701 -0.2885  0.5300 -0.4464
  781MOL0     C 5363  11.350   3.229   4.571  0.0531 -0.9341  0.4239
  781MOL0     C 5364  11.392   3.204   4.466  0.2400 -0.2215 -0.1914
  781MOL0     C 5365  10.921   3.673   5.034  0.0025  0.1418  0.1469
  781MOL0     C 5366  10.843   3.753   5.105  0.0918 -0.3942  0.8127
  781MOL0     C 5367  10.798   3.723   5.248  0.2446  1.4237 -0.2547
  781MOL0     H 5368  10.530   4.276   4.973  0.7974 -0.6405 -0.5763
  781MOL0     H 5369  10.333   4.363   5.040  3.1273  0.1322  1.2314
  781MOL0     H 5370   9.976   4.344   5.160  0.0062  1.3493  0.6105
  781MOL0     H 5371  10.142   4.402   5.149 -0.4426  1.1847 -3.1691
  781MOL0     H 5372  10.122   4.366   4.887  0.6715  0.4812  0.2248
  781MOL0     H 5373  10.015   4.487   4.956  1.1027  0.4819  0.5008
  781MOL0     H 5374   9.835   4.304   4.950  0.4655  0.5962  0.9139
  781MOL0     H 5375   9.969   4.195   4.887 -2.0208 -1.3332 -1.0272
  781MOL0     H 5376   9.977   4.365   4.697 -0.4185 -0.0373 -1.2048
  781MOL0     H 5377   9.848   4.256   4.719  2.9497 -0.2069  0.8003
  781MOL0     H 5378   9.709   4.438   4.829  0.0894 -1.1337  0.3436
  781MOL0     H 5379   9.844   4.537   4.824  0.4301 -1.0185 -0.1742
  781MOL0     H 5380   9.822   4.613   4.619 -1.2649  1.0410 -3.2789
  781MOL0     H 5381   9.804   4.460   4.544 -0.6049 -0.3415 -0.8818
  781MOL0     H 5382   9.605   4.665   4.654  1.8533  0.7527 -0.1474
  781MOL0     H 5383   9.556   4.487   4.647  0.1395 -0.0241 -0.9083
  781MOL0     H 5384   9.488   4.630   4.465  0.4265  0.0237 -1.7558
  781MOL0     H 5385   9.661   4.660   4.423 -0.2001  1.4760  1.9452
  781MOL0     H 5386   9.369   4.397   4.402 -0.5484 -1.6123 -1.6456
  781MOL0     H 5387   9.319   4.220   4.186  1.2262  0.4892 -1.1691
  781MOL0     H 5388   9.454   4.114   4.174  1.0383  1.7665 -0.3521
  781MOL0     H 5389   9.425   4.107   4.451  1.2426  1.3346 -0.9297
  781MOL0     H 5390   9.272   4.172   4.408  2.5588  2.6025  0.9885
  781MOL0     H 5391   9.388   3.913   4.298  0.8713 -0.0455  0.9414
  781MOL0     H 5392   9.224   3.966   4.274  0.9596 -2.0110 -0.6393
  781MOL0     H 5393   9.201   3.984   4.525 -0.1000  1.4690 -3.0962
  781MOL0     H 5394   9.364   3.913   4.545  0.9863  2.3153 -0.0146
  781MOL0     H 5395   9.069   3.595   4.367 -0.2295 -0.9752  0.8158
  781MOL0     H 5396   9.161   3.380   4.321  1.1567  0.2662 -1.1087
  781MOL0     H 5397   9.553   3.172   4.093  2.5186 -0.8838  0.0502
  781MOL0     H 5398   9.624   2.929   4.013 -0.0767  1.6891  0.2588
  781MOL0     H 5399   9.514   2.558   4.178  0.9473  0.5633  0.0988
  781MOL0     H 5400   9.363   2.586   4.072  0.7403 -3.1967 -3.4110
  781MOL0     H 5401   9.468   2.432   3.964 -1.0748  0.1374  0.0215
  781MOL0     H 5402   9.505   2.577   3.871  2.6475  2.7767  1.7889
  781MOL0     H 5403   9.714   2.503   4.084  2.5032 -2.2621 -1.1863
  781MOL0     H 5404   9.692   2.398   3.949 -0.9327  0.9082 -1.2839
  781MOL0     H 5405   9.757   2.698   3.948  2.3557 -0.4505  0.3860
  781MOL0     H 5406   9.724   2.612   3.797 -0.3871  0.5115  0.4213
  781MOL0     H 5407   9.906   2.448   3.847  1.7688 -0.2487  0.7286
  781MOL0     H 5408   9.934   2.553   3.993 -2.8746 -0.3747  0.7036
  781MOL0     H 5409  10.031   2.726   3.859  0.3447  0.5337 -1.4826
  781MOL0     H 5410  10.108   2.574   3.813 -0.6731 -0.9726 -2.9293
  781MOL0     H 5411   9.871   2.695   3.667  0.5958  0.8259  3.0450
  781MOL0     H 5412   9.941   2.539   3.624 -3.0020  0.6858 -0.8381
  781MOL0     H 5413  10.094   2.799   3.614  0.4279 -0.0104 -0.2289
  781MOL0     H 5414  10.164   2.638   3.599  0.7453  0.7734  0.4138
  781MOL0     H 5415   9.327   2.759   4.255  0.5712 -0.0911  1.6907
  781MOL0     H 5416   9.259   2.958   4.344 -0.4900  2.5733  0.7968
  781MOL0     H 5417   9.542   3.521   4.469 -0.5165  0.1806  1.0049
  781MOL0     H 5418   9.455   3.728   4.502  3.3527 -2.0343  0.1578
  781MOL0     H 5419  10.192   3.962   5.134 -0.4692  0.9066  1.4393
  781MOL0     H 5420  10.413   3.875   5.104 -1.9836 -1.1639 -0.2666
  781MOL0     H 5421  10.791   3.973   4.845  1.5349  1.1472  1.2565
  781MOL0     H 5422  10.951   3.838   4.740 -1.7544  4.1437  0.1358
  781MOL0     H 5423  11.047   3.667   4.659  1.0158  2.3583  2.4405
  781MOL0     H 5424  10.970   3.508   4.722  0.9422 -1.8703  0.9075
  781MOL0     H 5425  11.266   3.535   4.695  0.1162  1.6593 -0.0265
  781MOL0     H 5426  11.169   3.504   4.540 -0.3393  3.3954  0.5889
  781MOL0     H 5427  11.080   3.295   4.650 -0.5990 -1.2286  1.2790
  781MOL0     H 5428  11.125   3.366   4.799 -2.1672  1.2443 -1.4966
  781MOL0     H 5429  11.366   3.339   4.747  0.5216 -2.0847  2.2636
  781MOL0     H 5430  11.287   3.189   4.770  0.7755  1.7171  1.1762
  781MOL0     H 5431  11.430   3.198   4.366 -0.9997 -1.7698 -0.6090
  781MOL0     H 5432  10.970   3.591   5.085  0.1315 -0.4038 -0.8420
  781MOL0     H 5433  10.695   3.753   5.273 -1.0223 -2.8566  0.4893
  781MOL0     H 5434  10.790   3.614   5.246  0.6671  1.3937 -0.3048
  781MOL0     H 5435  10.878   3.751   5.318  3.2527 -1.7353 -2.1335
  782MOL0     O 5436  10.119   2.345   7.678 -0.0597  1.1402 -0.5711
  782MOL0     C 5437  10.004   2.306   7.696 -0.0126 -0.6813  1.7849
  782MOL0     O 5438   9.893   2.351   7.641 -0.2330 -0.2794  1.1179
  782MOL0     C 5439   9.887   2.453   7.545  0.4534 -0.0241  0.1356
  782MOL0     C 5440   9.978   2.552   7.528 -0.9361 -0.2226  0.3987
  782MOL0     C 5441   9.951   2.643   7.423 -1.3943  0.6923 -0.1599
  782MOL0     C 5442   9.840   2.641   7.339 -0.0537  0.3525 -0.2885
  782MOL0     O 5443   9.830   2.719   7.226 -0.4183  0.1141  0.3539
  782MOL0     C 5444   9.707   2.709   7.151 -0.0541  0.4634 -0.6393
  782MOL0     C 5445   9.693   2.817   7.052  0.1172  0.2771  0.6797
  782MOL0     C 5446   9.736   2.950   7.106 -0.0744 -0.3956 -0.3872
  782MOL0     C 5447   9.659   3.071   7.059  0.0258 -0.6086  0.2399
  782MOL0     C 5448   9.651   3.077   6.909  0.4404  0.8694  0.4417
  782MOL0     C 5449   9.611   3.217   6.865 -0.9013  0.4324  0.6489
  782MOL0     C 5450   9.611   3.228   6.714 -0.2121  0.1176 -0.4411
  782MOL0     C 5451   9.641   3.377   6.656 -0.5303 -0.6543 -0.2986
  782MOL0     N 5452   9.569   3.408   6.533 -0.3916  0.5038 -0.2700
  782MOL0     C 5453   9.579   3.324   6.431  1.3755  0.2433  0.1424
  782MOL0     C 5454   9.502   3.382   6.332  0.0662  0.2364 -0.8075
  782MOL0     C 5455   9.467   3.303   6.207  1.1627 -0.1951 -0.0953
  782MOL0     C 5456   9.326   3.346   6.163  0.6328  0.1179 -0.3428
  782MOL0     C 5457   9.319   3.459   6.056 -0.1227 -0.2593  0.1654
  782MOL0     C 5458   9.417   3.432   5.938  1.0360 -0.1454  0.8644
  782MOL0     O 5459   9.395   3.300   5.878 -0.0257 -0.4826 -0.5836
  782MOL0     C 5460   9.300   3.277   5.777  0.1627 -0.9716 -0.4679
  782MOL0     C 5461   9.180   3.352   5.762  0.4527  0.5320  0.5813
  782MOL0     C 5462   9.096   3.321   5.660  0.8215 -0.1179  0.4073
  782MOL0     C 5463   9.121   3.220   5.564  0.8761 -0.1551  0.1562
  782MOL0     C 5464   9.017   3.181   5.454 -0.4396  0.0987  0.6791
  782MOL0     O 5465   9.069   3.106   5.342  0.3477 -0.4998 -0.1995
  782MOL0     C 5466   8.987   3.077   5.233  0.7607  0.7798  0.2282
  782MOL0     C 5467   9.014   2.957   5.163  1.0727  0.2783  0.2381
  782MOL0     C 5468   8.923   2.926   5.057  0.2125 -0.0398 -0.3695
  782MOL0     C 5469   8.838   3.020   5.006 -0.2064 -0.5389  0.1239
  782MOL0     O 5470   8.755   2.989   4.906 -0.4460 -0.1361  0.2705
  782MOL0     C 5471   8.707   3.097   4.816 -0.1461  0.5417 -0.7828
  782MOL0     C 5472   8.626   3.045   4.706  2.0208  0.5117 -0.3948
  782MOL0     C 5473   8.593   3.151   4.601 -0.4529 -1.1411 -0.3830
  782MOL0     C 5474   8.704   3.203   4.510 -0.1382  1.1732 -0.4365
  782MOL0     C 5475   8.658   3.306   4.400 -0.6467 -0.9280 -0.2098
  782MOL0     C 5476   8.649   3.444   4.458 -0.4847 -0.1482 -0.1658
  782MOL0     C 5477   8.789   3.509   4.484 -0.0678  1.2534 -1.1614
  782MOL0     C 5478   8.778   3.663   4.492  1.0143 -0.3098 -0.4049
  782MOL0    Cl 5479   8.737   3.742   4.331  0.0608 -0.2794 -0.1368
  782MOL0     C 5480   8.828   3.145   5.067  0.8178 -0.1581 -0.6618
  782MOL0     C 5481   8.903   3.170   5.176 -0.8210  0.0176  0.0665
  782MOL0     O 5482   8.907   3.230   5.458  0.3283  0.0870 -0.7496
  782MOL0     C 5483   9.227   3.134   5.589 -0.8732 -0.0269  1.0681
  782MOL0     C 5484   9.316   3.175   5.690 -0.4033  0.7513 -0.4547
  782MOL0     N 5485   9.437   3.494   6.390  0.5443 -0.3280  0.3022
  782MOL0     N 5486   9.481   3.511   6.514 -0.6193  0.3964 -1.3136
  782MOL0     C 5487   9.744   2.554   7.381 -0.0761  0.3789 -0.2476
  782MOL0     C 5488   9.767   2.462   7.480 -0.9094 -0.0784  0.6083
  782MOL0     C 5489   9.977   2.185   7.776  0.1642 -0.3354  0.7970
  782MOL0     C 5490   9.848   2.130   7.776 -0.0789  0.2072  0.5074
  782MOL0     C 5491   9.822   2.022   7.856 -0.6706  0.8621  0.2647
  782MOL0     C 5492   9.907   1.983   7.955  0.5195 -0.2338  0.7877
  782MOL0     O 5493   9.855   1.886   8.037 -0.3704 -0.8888  0.0213
  782MOL0     C 5494   9.954   1.801   8.101 -0.5064 -0.8152 -0.0973
  782MOL0     C 5495   9.956   1.668   8.027 -0.2840  0.9307 -0.4062
  782MOL0     C 5496   9.823   1.598   8.051 -0.2452 -0.9723  0.4195
  782MOL0     C 5497   9.807   1.461   7.996 -0.8422 -0.2145  0.6886
  782MOL0     C 5498   9.895   1.366   8.072  0.0923  0.4860 -0.5567
  782MOL0     C 5499   9.942   1.286   8.153  0.2285  0.1172 -0.2662
  782MOL0     C 5500  10.037   2.037   7.958  0.2358 -0.2907  0.3430
  782MOL0     C 5501  10.076   2.134   7.868  0.0838  0.3805 -0.0209
  782MOL0     C 5502  10.223   2.181   7.879  0.0885 -0.6666  0.4667
  782MOL0     H 5503  10.070   2.561   7.584 -0.3925 -2.8047  0.0290
  782MOL0     H 5504  10.030   2.711   7.394  0.9284 -2.0162 -0.6217
  782MOL0     H 5505   9.703   2.614   7.097 -0.1210  1.5892 -2.6798
  782MOL0     H 5506   9.628   2.720   7.226  1.2143 -2.9120  1.4752
  782MOL0     H 5507   9.588   2.825   7.024  0.7363  1.7550 -1.5531
  782MOL0     H 5508   9.741   2.793   6.956  2.0089  2.4728  0.9790
  782MOL0     H 5509   9.841   2.968   7.083 -0.2373  0.0035 -0.8285
  782MOL0     H 5510   9.717   2.947   7.214  1.0775  1.3794 -0.0915
  782MOL0     H 5511   9.562   3.055   7.106  1.0270 -1.3692  2.2023
  782MOL0     H 5512   9.721   3.152   7.099  2.4564 -1.9036 -0.6749
  782MOL0     H 5513   9.751   3.052   6.871  0.0952  0.8407 -0.4747
  782MOL0     H 5514   9.567   3.016   6.878 -1.3077  4.4149 -2.6596
  782MOL0     H 5515   9.506   3.240   6.885 -0.9573  1.3072 -0.5500
  782MOL0     H 5516   9.680   3.286   6.914 -0.5910  1.9160 -1.6937
  782MOL0     H 5517   9.520   3.188   6.668  1.4316 -3.0800 -1.2092
  782MOL0     H 5518   9.689   3.160   6.679 -0.4537  0.1661 -1.0997
  782MOL0     H 5519   9.600   3.456   6.721 -0.0641  0.9876 -1.9002
  782MOL0     H 5520   9.746   3.403   6.642 -1.0014  2.0845  0.4495
  782MOL0     H 5521   9.620   3.224   6.434  0.4611 -0.2284 -1.4451
  782MOL0     H 5522   9.531   3.318   6.119 -0.7131 -2.3246 -1.9436
  782MOL0     H 5523   9.470   3.196   6.231 -2.4294  0.1855  2.7783
  782MOL0     H 5524   9.280   3.252   6.133  1.9743 -0.2397 -1.3501
  782MOL0     H 5525   9.270   3.393   6.245  2.9281  2.1608  0.1846
  782MOL0     H 5526   9.344   3.545   6.118  1.6199 -1.1483  0.7489
  782MOL0     H 5527   9.213   3.475   6.032 -0.3141 -2.1836 -0.3909
  782MOL0     H 5528   9.520   3.438   5.976  2.1105  1.0285 -1.9254
  782MOL0     H 5529   9.416   3.510   5.861 -0.2996  0.8937  1.8921
  782MOL0     H 5530   9.159   3.442   5.819  0.7258  0.4464  0.8213
  782MOL0     H 5531   9.003   3.376   5.648  2.7333  3.4166  0.4776
  782MOL0     H 5532   9.082   2.878   5.195 -2.6069 -3.1283  0.4945
  782MOL0     H 5533   8.912   2.838   4.995 -1.0845  0.4089 -0.8117
  782MOL0     H 5534   8.642   3.161   4.876  0.6718  0.2150  0.4802
  782MOL0     H 5535   8.805   3.137   4.787  0.8606 -2.6819 -2.2921
  782MOL0     H 5536   8.677   2.956   4.667 -1.4503 -3.9356  3.7623
  782MOL0     H 5537   8.528   3.009   4.741  2.0571  1.1286  0.3653
  782MOL0     H 5538   8.515   3.122   4.530 -0.4640  1.3804 -1.5058
  782MOL0     H 5539   8.543   3.239   4.642  1.1163  0.7068 -2.1813
  782MOL0     H 5540   8.746   3.109   4.471 -3.8789 -1.3002  0.9233
  782MOL0     H 5541   8.782   3.252   4.569 -1.4788  1.8723  0.8120
  782MOL0     H 5542   8.560   3.280   4.357 -0.7532  0.0198 -0.5661
  782MOL0     H 5543   8.725   3.293   4.315 -0.6554 -3.6438  0.1050
  782MOL0     H 5544   8.604   3.514   4.387  1.3906 -0.6061 -1.8934
  782MOL0     H 5545   8.599   3.449   4.555  0.8631 -2.2371  0.7133
  782MOL0     H 5546   8.859   3.484   4.403  2.0599  0.6088  0.7793
  782MOL0     H 5547   8.826   3.473   4.580 -1.3329  0.8808 -0.8033
  782MOL0     H 5548   8.699   3.695   4.560 -0.0043 -4.4034  0.6530
  782MOL0     H 5549   8.872   3.694   4.537  2.3207 -1.8441 -1.9225
  782MOL0     H 5550   8.759   3.220   5.030  0.3928 -0.2613 -0.0869
  782MOL0     H 5551   8.889   3.271   5.211  0.2273 -0.3752  1.7345
  782MOL0     H 5552   9.252   3.045   5.533  2.5898  2.2256 -1.3752
  782MOL0     H 5553   9.405   3.117   5.708 -0.8412  0.5725  1.2782
  782MOL0     H 5554   9.644   2.551   7.338  0.6439 -2.1882 -2.0032
  782MOL0     H 5555   9.682   2.397   7.499 -1.1177 -0.3031 -0.9410
  782MOL0     H 5556   9.761   2.168   7.724 -1.7043 -1.6555  1.7142
  782MOL0     H 5557   9.718   1.993   7.850 -0.4839  0.4343 -1.2649
  782MOL0     H 5558   9.928   1.783   8.206  3.5140 -2.4905  0.8107
  782MOL0     H 5559  10.057   1.838   8.103 -0.1421 -1.6809 -1.3445
  782MOL0     H 5560  10.032   1.608   8.077  0.2114  0.1712 -2.0104
  782MOL0     H 5561   9.975   1.692   7.922  2.5646  1.2803  0.1265
  782MOL0     H 5562   9.759   1.664   7.992  0.1468 -0.5313  0.4829
  782MOL0     H 5563   9.784   1.592   8.153 -1.6969 -1.9740 -0.1429
  782MOL0     H 5564   9.705   1.423   7.994 -0.0399 -2.5270 -0.5499
  782MOL0     H 5565   9.828   1.469   7.889 -1.1481  1.0174  0.7130
  782MOL0     H 5566   9.984   1.214   8.221 -1.0637 -2.7777 -2.3292
  782MOL0     H 5567  10.109   2.030   8.039 -1.2851 -2.6130  1.6182
  782MOL0     H 5568  10.270   2.118   7.955  1.1567 -0.5279 -0.0603
  782MOL0     H 5569  10.286   2.171   7.790 -0.3400 -0.9924  0.1982
  782MOL0     H 5570  10.230   2.282   7.920  2.5885 -0.6053  0.0620
  783MOL0     O 5571   8.786   1.227   2.522 -0.3623 -0.0529 -0.1825
  783MOL0     C 5572   8.866   1.141   2.476 -0.1929 -0.0586  0.1518
  783MOL0     O 5573   8.824   1.024   2.420  0.0449  0.5690 -0.0336
  783MOL0     C 5574   8.695   0.986   2.390  0.3613 -0.3427 -0.1592
  783MOL0     C 5575   8.670   0.850   2.394  0.4596 -0.5993 -0.3333
  783MOL0     C 5576   8.534   0.804   2.377 -1.3307  0.4592  1.1336
  783MOL0     C 5577   8.432   0.898   2.336  0.0757  0.9269 -0.0806
  783MOL0     O 5578   8.312   0.842   2.304  0.4183  0.2706  0.2662
  783MOL0     C 5579   8.222   0.928   2.220  0.5048 -0.1250 -0.7845
  783MOL0     C 5580   8.116   0.853   2.153  0.1276 -0.3082 -1.2696
  783MOL0     C 5581   8.019   0.933   2.074 -0.8371 -2.0385 -0.0308
  783MOL0     C 5582   7.930   1.028   2.159  0.2606  0.1424 -0.0557
  783MOL0     C 5583   7.821   1.090   2.082  0.1990 -0.5924 -0.3911
  783MOL0     C 5584   7.727   1.188   2.164  0.1231 -0.1929  1.9047
  783MOL0     C 5585   7.617   1.266   2.086  0.7955  0.1033 -0.7195
  783MOL0     C 5586   7.658   1.324   1.954 -0.1751 -0.2363  0.0460
  783MOL0     N 5587   7.565   1.428   1.892  0.0088  0.1833 -0.4366
  783MOL0     C 5588   7.435   1.414   1.897  0.7534 -0.8316 -0.7539
  783MOL0     C 5589   7.386   1.523   1.833 -0.4314  1.3868  0.4549
  783MOL0     C 5590   7.241   1.548   1.793  0.6904 -1.1577 -0.4974
  783MOL0     C 5591   7.162   1.609   1.911  0.0542 -0.6479 -1.2002
  783MOL0     C 5592   7.016   1.645   1.866  0.0350  0.6228 -0.3844
  783MOL0     C 5593   6.951   1.728   1.978 -0.0032 -0.4803  0.9543
  783MOL0     O 5594   6.886   1.634   2.067  0.0205  0.0677 -0.0146
  783MOL0     C 5595   6.751   1.628   2.064 -0.2170 -0.0215  1.0729
  783MOL0     C 5596   6.686   1.555   1.959  0.2238 -0.5100  0.0776
  783MOL0     C 5597   6.547   1.568   1.945  0.0822  0.9479 -0.3122
  783MOL0     C 5598   6.470   1.656   2.026  0.1740 -0.9856  0.2808
  783MOL0     C 5599   6.333   1.677   1.994  0.3365 -0.3763  0.2778
  783MOL0     O 5600   6.299   1.655   1.856 -0.2454  0.4665 -0.5384
  783MOL0     C 5601   6.169   1.613   1.833  0.1126 -0.3766  0.2738
  783MOL0     C 5602   6.117   1.660   1.710  0.1285  0.4486  0.4465
  783MOL0     C 5603   5.992   1.640   1.664 -0.1720 -0.4290  0.4172
  783MOL0     C 5604   5.897   1.566   1.737 -1.1477 -0.9907  0.4641
  783MOL0     O 5605   5.763   1.558   1.687  0.1963 -0.1045  0.1678
  783MOL0     C 5606   5.660   1.533   1.782 -1.1198  0.4322 -1.5331
  783MOL0     C 5607   5.529   1.567   1.720  0.0371 -0.3275  1.0526
  783MOL0     C 5608   5.412   1.531   1.802  0.3469  0.5276 -0.7514
  783MOL0     C 5609   5.295   1.629   1.792  0.0646 -0.4422 -0.2117
  783MOL0     C 5610   5.188   1.626   1.892  0.4398  0.3897  0.1656
  783MOL0     C 5611   5.072   1.716   1.867 -0.0169 -1.1084 -0.4007
  783MOL0     C 5612   4.973   1.717   1.990  0.0594  0.3884  0.4073
  783MOL0     C 5613   4.935   1.570   2.026 -0.4366  1.0265 -0.4802
  783MOL0    Cl 5614   4.848   1.500   1.879  0.1943 -0.4325  0.6305
  783MOL0     C 5615   5.943   1.520   1.862  0.0463  0.1395  0.0647
  783MOL0     C 5616   6.083   1.534   1.905  1.2740 -0.6844  0.2323
  783MOL0     O 5617   6.257   1.688   2.085  0.5090 -0.1457 -0.8036
  783MOL0     C 5618   6.535   1.716   2.136 -0.0745  0.3809  0.0753
  783MOL0     C 5619   6.674   1.703   2.153 -0.3668  0.1594 -0.3965
  783MOL0     N 5620   7.503   1.598   1.802 -0.3339 -0.5751  0.3468
  783MOL0     N 5621   7.604   1.542   1.823  0.0082  0.7037  0.2728
  783MOL0     C 5622   8.466   1.036   2.322  0.6079  0.4441 -0.1132
  783MOL0     C 5623   8.591   1.083   2.355 -1.0170 -0.1082 -0.0785
  783MOL0     C 5624   9.011   1.173   2.490 -0.1802  0.2863 -0.8007
  783MOL0     C 5625   9.102   1.141   2.385  0.1967 -0.3541 -0.3989
  783MOL0     C 5626   9.237   1.155   2.394 -0.3121  0.6519 -0.1100
  783MOL0     C 5627   9.290   1.226   2.505  0.5265 -0.7959 -0.9258
  783MOL0     O 5628   9.419   1.259   2.509 -0.6464 -0.4444 -0.1670
  783MOL0     C 5629   9.497   1.159   2.576  0.0731 -0.2028  0.7526
  783MOL0     C 5630   9.649   1.150   2.552  0.0469  0.1375  0.0937
  783MOL0     C 5631   9.691   1.178   2.404  0.4622  0.3981 -0.1475
  783MOL0     C 5632   9.801   1.291   2.399 -0.0197 -0.2043 -0.4321
  783MOL0     C 5633   9.818   1.353   2.256  0.0162 -0.0929 -1.5038
  783MOL0     C 5634   9.827   1.393   2.139  0.3674  1.2163  0.1052
  783MOL0     C 5635   9.202   1.271   2.602 -0.0161 -0.2210  0.6075
  783MOL0     C 5636   9.067   1.232   2.611 -0.4444 -0.0929 -0.3714
  783MOL0     C 5637   8.993   1.272   2.748 -0.6622 -0.0910 -0.1651
  783MOL0     H 5638   8.754   0.795   2.435  0.1390  0.8361  2.4097
  783MOL0     H 5639   8.505   0.700   2.382 -3.0970  0.8594  0.0386
  783MOL0     H 5640   8.182   1.006   2.285  3.9381  0.0404  1.4141
  783MOL0     H 5641   8.286   0.975   2.145 -0.1329  0.9315 -0.6796
  783MOL0     H 5642   8.057   0.803   2.230 -0.0394  1.6123 -0.0956
  783MOL0     H 5643   8.150   0.765   2.099 -0.1849 -2.4594  1.7823
  783MOL0     H 5644   7.952   0.878   2.007 -2.7588  0.1392 -0.0275
  783MOL0     H 5645   8.078   0.990   2.002  1.2699 -3.0890  0.7822
  783MOL0     H 5646   7.898   0.977   2.251  2.3659 -0.7374  0.2545
  783MOL0     H 5647   7.993   1.107   2.201 -1.3136  0.7831  1.2233
  783MOL0     H 5648   7.870   1.154   2.008  1.1349 -2.0574 -1.0828
  783MOL0     H 5649   7.763   1.004   2.047  1.5473 -3.0739  2.9226
  783MOL0     H 5650   7.684   1.131   2.247 -1.1628 -0.4823  1.0742
  783MOL0     H 5651   7.798   1.264   2.197  0.3698  0.6198 -0.3334
  783MOL0     H 5652   7.579   1.350   2.144 -1.6154 -2.6698  2.0672
  783MOL0     H 5653   7.534   1.196   2.080  0.5775  0.3125 -0.2103
  783MOL0     H 5654   7.755   1.375   1.949 -0.1358 -0.2483 -5.3490
  783MOL0     H 5655   7.663   1.238   1.886  1.3966  1.3370 -1.9283
  783MOL0     H 5656   7.374   1.336   1.941  0.0114 -0.1002 -0.4612
  783MOL0     H 5657   7.245   1.612   1.705 -1.6105 -0.5671 -0.2422
  783MOL0     H 5658   7.195   1.455   1.760 -0.2110 -0.8926 -0.0297
  783MOL0     H 5659   7.159   1.553   2.005  1.7028  1.9281  0.5272
  783MOL0     H 5660   7.211   1.702   1.942 -1.4820 -1.2585  4.1100
  783MOL0     H 5661   6.957   1.554   1.850  1.3494 -0.0579 -1.7490
  783MOL0     H 5662   7.023   1.698   1.771  0.9563  0.6093 -0.3374
  783MOL0     H 5663   6.872   1.792   1.937  0.6966 -0.0196  0.3148
  783MOL0     H 5664   7.025   1.791   2.027 -1.2475  2.2731 -0.4729
  783MOL0     H 5665   6.734   1.487   1.890 -1.1207 -0.9918 -0.4304
  783MOL0     H 5666   6.488   1.509   1.875  0.5436 -0.4691  0.4568
  783MOL0     H 5667   6.186   1.712   1.644 -1.7038  0.0075 -1.9322
  783MOL0     H 5668   5.976   1.685   1.567  1.4988  1.1515  0.8064
  783MOL0     H 5669   5.676   1.431   1.819  0.6161  1.2336  0.0286
  783MOL0     H 5670   5.671   1.591   1.874 -3.2405 -2.7485  0.9711
  783MOL0     H 5671   5.529   1.675   1.700 -1.3588 -0.1638  1.7840
  783MOL0     H 5672   5.531   1.514   1.625  3.8472  3.5288 -1.3882
  783MOL0     H 5673   5.374   1.433   1.772  2.0423 -0.8628  1.2766
  783MOL0     H 5674   5.446   1.530   1.906 -3.0430  0.7866  0.4940
  783MOL0     H 5675   5.255   1.617   1.691  2.5799 -0.6006 -1.2521
  783MOL0     H 5676   5.343   1.727   1.799  1.8399 -1.2005 -1.0527
  783MOL0     H 5677   5.227   1.660   1.988  3.0902 -2.0234  0.1049
  783MOL0     H 5678   5.144   1.526   1.898 -3.3725  1.8591 -0.6414
  783MOL0     H 5679   5.110   1.817   1.848 -0.6444 -0.6163  0.8734
  783MOL0     H 5680   5.022   1.692   1.773  2.7960  1.7249 -2.9004
  783MOL0     H 5681   4.880   1.769   1.965  0.7290  1.4208 -0.0547
  783MOL0     H 5682   5.015   1.759   2.082 -1.9438 -1.0648  2.0501
  783MOL0     H 5683   5.014   1.504   2.062 -0.8534  0.4609 -0.6031
  783MOL0     H 5684   4.862   1.566   2.108 -1.0787 -1.8744 -1.0855
  783MOL0     H 5685   5.869   1.467   1.922  0.5227 -0.4026  0.1816
  783MOL0     H 5686   6.120   1.489   1.997  0.2869  0.9312  1.4854
  783MOL0     H 5687   6.485   1.786   2.202 -2.6671 -0.9735 -0.3131
  783MOL0     H 5688   6.714   1.748   2.244 -2.4626 -0.7794  1.0670
  783MOL0     H 5689   8.395   1.114   2.297  0.8272  1.7473  2.8486
  783MOL0     H 5690   8.623   1.186   2.351 -0.4502 -0.3233 -2.7791
  783MOL0     H 5691   9.066   1.094   2.294 -0.0475  0.8077 -0.9097
  783MOL0     H 5692   9.315   1.130   2.322  1.0157  2.1808  0.7258
  783MOL0     H 5693   9.453   1.062   2.555  0.5759 -0.8193  2.3970
  783MOL0     H 5694   9.491   1.168   2.685 -2.0435 -0.7532  0.7156
  783MOL0     H 5695   9.675   1.047   2.578 -1.9452 -1.5391 -3.6661
  783MOL0     H 5696   9.700   1.218   2.621  0.8704 -1.0194  0.6687
  783MOL0     H 5697   9.613   1.218   2.338  0.8038  0.7696 -0.3294
  783MOL0     H 5698   9.721   1.089   2.347  0.5582 -1.6433  2.8489
  783MOL0     H 5699   9.771   1.368   2.471  0.3112 -1.8349  1.5435
  783MOL0     H 5700   9.896   1.247   2.431  1.5171  2.3754 -1.1056
  783MOL0     H 5701   9.821   1.414   2.034 -2.1834 -4.5522 -1.3158
  783MOL0     H 5702   9.237   1.339   2.679 -2.4452 -0.7358  2.2921
  783MOL0     H 5703   9.066   1.290   2.828 -2.2975 -0.9286  1.5890
  783MOL0     H 5704   8.922   1.354   2.733 -2.4446 -1.6422 -0.4803
  783MOL0     H 5705   8.952   1.177   2.782  1.6133 -1.4391 -0.9734
  784MOL0     O 5706   8.982   2.828   2.927  0.4993  0.6268 -0.5032
  784MOL0     C 5707   8.908   2.893   2.994  0.9586 -0.7962 -0.0913
  784MOL0     O 5708   8.880   2.879   3.126 -0.5364  0.0127 -0.4680
  784MOL0     C 5709   8.974   2.821   3.210 -0.7323 -0.0815 -0.2572
  784MOL0     C 5710   9.092   2.878   3.241  1.0121  0.6167 -0.1562
  784MOL0     C 5711   9.173   2.826   3.346  0.7349  0.6154  0.5141
  784MOL0     C 5712   9.131   2.699   3.405 -0.3849  0.5016  0.0946
  784MOL0     O 5713   9.200   2.642   3.511 -0.6364 -0.2939  0.4409
  784MOL0     C 5714   9.213   2.724   3.634 -0.0902  0.7921  0.0356
  784MOL0     C 5715   9.280   2.633   3.738  0.1770 -0.0510  0.4409
  784MOL0     C 5716   9.194   2.507   3.781 -0.5168  0.6026  0.1241
  784MOL0     C 5717   9.082   2.544   3.872  0.7002  0.1836  0.2517
  784MOL0     C 5718   8.970   2.439   3.867  0.8853  0.0560  0.2736
  784MOL0     C 5719   9.006   2.324   3.954 -0.3911  0.5446  0.4950
  784MOL0     C 5720   9.014   2.346   4.105  0.0175 -0.1568 -1.1622
  784MOL0     C 5721   9.068   2.234   4.195 -0.1635 -0.6490 -0.2352
  784MOL0     N 5722   9.198   2.176   4.154  0.7453  0.0174 -0.8624
  784MOL0     C 5723   9.305   2.217   4.216 -0.4194  0.6605  0.5438
  784MOL0     C 5724   9.408   2.158   4.143  1.0282  0.6389 -0.3708
  784MOL0     C 5725   9.553   2.180   4.162 -0.2532 -0.1487 -0.0003
  784MOL0     C 5726   9.648   2.092   4.082 -0.5449 -0.5307  0.2576
  784MOL0     C 5727   9.792   2.140   4.103  0.0380 -0.2264  0.1259
  784MOL0     C 5728   9.878   2.027   4.036 -0.1988  0.0799 -0.3583
  784MOL0     O 5729  10.018   2.060   4.063 -0.0133 -0.6601  0.0194
  784MOL0     C 5730  10.110   1.977   4.009 -0.8731 -0.5268  0.5876
  784MOL0     C 5731  10.217   2.038   3.953 -0.4113 -0.6381  0.5819
  784MOL0     C 5732  10.320   1.958   3.902  0.7831 -0.5808  0.0256
  784MOL0     C 5733  10.320   1.813   3.896  0.6700 -0.5486  0.4768
  784MOL0     C 5734  10.431   1.732   3.863  0.1657 -0.0958 -0.1495
  784MOL0     O 5735  10.408   1.603   3.845  0.1209 -0.2789 -0.1927
  784MOL0     C 5736  10.513   1.531   3.819 -0.4067  0.1252  0.1224
  784MOL0     C 5737  10.504   1.440   3.718  0.2826 -0.0080  0.1439
  784MOL0     C 5738  10.610   1.348   3.695 -0.4187  0.0639 -0.2150
  784MOL0     C 5739  10.727   1.334   3.776  0.6845 -0.0150 -0.5261
  784MOL0     O 5740  10.823   1.248   3.740 -0.0743  0.6694 -0.0939
  784MOL0     C 5741  10.940   1.244   3.814 -0.3410 -0.0837 -0.2550
  784MOL0     C 5742  10.982   1.094   3.813 -0.0354 -0.5562  0.2170
  784MOL0     C 5743  11.089   1.063   3.920 -0.3116 -0.2869 -1.2369
  784MOL0     C 5744  11.235   1.090   3.878  0.6033 -0.7334 -0.8016
  784MOL0     C 5745  11.322   1.093   4.006  0.4410  0.5602  0.5248
  784MOL0     C 5746  11.464   1.115   3.963  0.2193 -0.6905  0.5068
  784MOL0     C 5747  11.558   1.065   4.072  0.2993  0.8161 -0.4738
  784MOL0     C 5748  11.708   1.080   4.045  0.5299  0.8660  0.0378
  784MOL0    Cl 5749  11.743   1.243   4.000 -0.0196  0.0423 -0.0937
  784MOL0     C 5750  10.733   1.425   3.889 -0.6004  0.1008  0.3440
  784MOL0     C 5751  10.634   1.529   3.900  0.9873  0.1674  1.3229
  784MOL0     O 5752  10.541   1.784   3.866 -0.8495 -0.0936  0.6187
  784MOL0     C 5753  10.197   1.758   3.945  0.2939 -0.0041 -0.2351
  784MOL0     C 5754  10.095   1.837   4.004 -0.7787 -0.1544  0.6322
  784MOL0     N 5755   9.351   2.081   4.050 -0.1935  0.7040 -0.0630
  784MOL0     N 5756   9.224   2.091   4.059 -0.2654  0.6503  0.8848
  784MOL0     C 5757   9.012   2.647   3.380 -0.3543  0.6227  0.0878
  784MOL0     C 5758   8.930   2.705   3.278  0.0167  0.6547  0.3511
  784MOL0     C 5759   8.841   3.005   2.927  0.4048 -0.7211  1.0527
  784MOL0     C 5760   8.702   3.017   2.942  0.6598 -0.7795  0.3737
  784MOL0     C 5761   8.625   3.124   2.883 -1.0014  0.6081 -0.3833
  784MOL0     C 5762   8.697   3.218   2.810 -0.0166  0.0207  0.0686
  784MOL0     O 5763   8.650   3.328   2.743 -0.0476 -0.1100 -0.5894
  784MOL0     C 5764   8.528   3.322   2.671  0.2584 -0.0501  0.2794
  784MOL0     C 5765   8.520   3.200   2.569 -1.0330  0.1858 -0.3301
  784MOL0     C 5766   8.385   3.158   2.513  0.5149 -0.0532 -0.6648
  784MOL0     C 5767   8.401   3.071   2.382  0.7292  0.2258 -0.1402
  784MOL0     C 5768   8.270   3.004   2.348  0.1343 -0.6721 -0.9372
  784MOL0     C 5769   8.166   2.941   2.332 -0.6603  0.1183 -0.1774
  784MOL0     C 5770   8.833   3.207   2.788  0.3697  1.4387 -0.2862
  784MOL0     C 5771   8.908   3.101   2.847 -0.3022 -0.0462 -0.8233
  784MOL0     C 5772   9.061   3.111   2.840  0.4601 -0.9799 -1.1503
  784MOL0     H 5773   9.110   2.969   3.185 -0.4842 -0.4210 -2.4491
  784MOL0     H 5774   9.259   2.885   3.375 -0.2716  2.2176  0.4187
  784MOL0     H 5775   9.269   2.817   3.620 -2.1302  2.2467  1.0254
  784MOL0     H 5776   9.113   2.748   3.671 -1.5711 -3.8338 -0.4015
  784MOL0     H 5777   9.317   2.694   3.821  2.6423 -1.5748  0.5550
  784MOL0     H 5778   9.365   2.595   3.681 -1.3025  0.0145 -1.9367
  784MOL0     H 5779   9.255   2.435   3.835 -0.2695  0.4611 -0.3376
  784MOL0     H 5780   9.164   2.455   3.689  1.1808  2.7400 -1.7806
  784MOL0     H 5781   9.115   2.581   3.969  1.0843  3.7079 -1.0745
  784MOL0     H 5782   9.028   2.629   3.827  1.1565 -1.0951 -2.9853
  784MOL0     H 5783   8.880   2.487   3.907 -0.5363 -1.6137 -0.7683
  784MOL0     H 5784   8.953   2.394   3.769  0.8180 -3.2303  1.6660
  784MOL0     H 5785   8.926   2.253   3.933 -0.1780  0.3405  0.3693
  784MOL0     H 5786   9.099   2.279   3.918  0.4348  1.4079  1.4764
  784MOL0     H 5787   8.917   2.355   4.156  0.4097 -0.5901 -0.3260
  784MOL0     H 5788   9.080   2.431   4.124 -1.7394  1.0685 -0.1294
  784MOL0     H 5789   9.086   2.289   4.288  3.5226  1.1414 -1.7814
  784MOL0     H 5790   8.993   2.162   4.226 -0.9927 -0.4259 -1.6472
  784MOL0     H 5791   9.322   2.301   4.283  0.1280  1.3998 -0.5065
  784MOL0     H 5792   9.564   2.285   4.132 -1.8141  0.7182  2.2235
  784MOL0     H 5793   9.574   2.166   4.268 -0.8381  0.6918  0.2436
  784MOL0     H 5794   9.634   1.987   4.110  0.9917 -1.9545 -3.6951
  784MOL0     H 5795   9.626   2.098   3.975  0.3258  1.4918  0.1471
  784MOL0     H 5796   9.805   2.143   4.212 -1.3209 -0.7844  0.3189
  784MOL0     H 5797   9.827   2.229   4.049  1.4901 -1.4368 -0.9871
  784MOL0     H 5798   9.863   2.027   3.928 -0.2192  1.0058 -0.3582
  784MOL0     H 5799   9.853   1.926   4.069 -1.3745  0.3647 -0.3418
  784MOL0     H 5800  10.208   2.144   3.935 -0.2541 -0.9125 -1.3007
  784MOL0     H 5801  10.404   2.005   3.852  0.0977 -0.9867 -1.5836
  784MOL0     H 5802  10.423   1.444   3.647  0.9577  2.4377 -0.5733
  784MOL0     H 5803  10.601   1.287   3.605  2.4371  2.3211 -2.2427
  784MOL0     H 5804  11.018   1.305   3.767  0.8605 -0.6028  0.9854
  784MOL0     H 5805  10.931   1.280   3.917 -0.2096 -1.3702  0.2297
  784MOL0     H 5806  10.895   1.032   3.837 -0.8236  0.5863  0.4030
  784MOL0     H 5807  11.016   1.065   3.713  1.0449  0.1093  0.3815
  784MOL0     H 5808  11.064   1.115   4.012  3.0217  0.0937 -0.4295
  784MOL0     H 5809  11.078   0.956   3.940 -0.8761  0.1099  0.8210
  784MOL0     H 5810  11.240   1.181   3.817 -1.2832  0.9292  1.3748
  784MOL0     H 5811  11.269   1.012   3.810  4.1483  2.7228 -3.4376
  784MOL0     H 5812  11.309   0.998   4.059 -0.6210  1.5089  2.0721
  784MOL0     H 5813  11.309   1.175   4.078 -0.7210  2.7630 -2.0284
  784MOL0     H 5814  11.480   1.057   3.872 -1.8779 -0.2285 -0.1925
  784MOL0     H 5815  11.486   1.220   3.943  2.4874 -1.5395 -2.0883
  784MOL0     H 5816  11.533   0.965   4.107  2.5662  1.0098  1.9630
  784MOL0     H 5817  11.543   1.121   4.165  1.9047  0.8603 -0.2166
  784MOL0     H 5818  11.769   1.041   4.127 -4.6586 -1.2617  3.3960
  784MOL0     H 5819  11.724   1.016   3.958 -0.9698  2.1604 -1.2586
  784MOL0     H 5820  10.805   1.445   3.968 -0.4473  2.6789 -0.3507
  784MOL0     H 5821  10.658   1.604   3.975 -1.8153  2.8526 -0.2279
  784MOL0     H 5822  10.190   1.650   3.954 -1.7240  0.1658  1.0196
  784MOL0     H 5823  10.009   1.784   4.043 -1.5599  1.3025  0.9503
  784MOL0     H 5824   8.991   2.550   3.422  3.5187 -0.2171  0.4964
  784MOL0     H 5825   8.833   2.666   3.250  1.0205 -0.5233 -1.7573
  784MOL0     H 5826   8.641   2.953   3.005  0.1591  1.2462  2.0732
  784MOL0     H 5827   8.517   3.125   2.878 -0.9769  1.5396 -0.9374
  784MOL0     H 5828   8.514   3.419   2.624 -3.3279 -0.3098  0.5657
  784MOL0     H 5829   8.453   3.316   2.751  1.5433 -0.1381  1.5207
  784MOL0     H 5830   8.558   3.110   2.617 -1.5027  0.9411  1.5496
  784MOL0     H 5831   8.580   3.228   2.483  3.0544  1.5016  2.6521
  784MOL0     H 5832   8.320   3.244   2.493 -2.0786 -1.8464 -0.5618
  784MOL0     H 5833   8.327   3.098   2.584 -0.1819 -0.6436 -1.6914
  784MOL0     H 5834   8.436   3.120   2.291 -1.5365  0.9970 -0.6657
  784MOL0     H 5835   8.467   2.989   2.410 -0.7181 -0.6608  0.7964
  784MOL0     H 5836   8.087   2.870   2.316 -0.1398 -1.1572  2.4664
  784MOL0     H 5837   8.883   3.271   2.715  1.1691  0.5237 -0.5670
  784MOL0     H 5838   9.088   3.085   2.737  1.0359  1.1475 -1.5835
  784MOL0     H 5839   9.096   3.213   2.861  0.1002 -0.3754 -3.2504
  784MOL0     H 5840   9.109   3.040   2.908 -2.1621 -1.4186  0.4144
  785MOL0     O 5841  10.452   0.664   2.876 -0.6396 -0.3891 -0.1103
  785MOL0     C 5842  10.566   0.637   2.835 -0.6056  0.3816 -0.2532
  785MOL0     O 5843  10.599   0.535   2.748 -0.5925  0.0963  0.2270
  785MOL0     C 5844  10.497   0.493   2.663 -0.9598 -0.5965  0.7833
  785MOL0     C 5845  10.508   0.363   2.613  0.4975 -0.0912  0.2948
  785MOL0     C 5846  10.415   0.300   2.532  0.8338  0.3730 -0.5173
  785MOL0     C 5847  10.304   0.367   2.488 -0.3550  0.1896  0.4570
  785MOL0     O 5848  10.198   0.310   2.417  0.3487  0.1344  0.3212
  785MOL0     C 5849  10.171   0.170   2.445 -0.5769  0.2959 -0.2561
  785MOL0     C 5850  10.033   0.137   2.395  0.0007 -0.5061  0.2126
  785MOL0     C 5851  10.028   0.129   2.239  1.8275  0.3721 -1.0233
  785MOL0     C 5852   9.874   0.099   2.201 -0.2487  0.1747 -0.7893
  785MOL0     C 5853   9.853   0.130   2.051  0.4596  0.4866  0.4153
  785MOL0     C 5854   9.728   0.072   2.007 -0.0066  0.1541  0.3275
  785MOL0     C 5855   9.600   0.134   2.080 -0.4303  0.0181  0.4917
  785MOL0     C 5856   9.484   0.036   2.078  0.1355 -0.7076  0.5783
  785MOL0     N 5857   9.460   0.002   1.936 -0.6138 -0.4826 -0.3770
  785MOL0     C 5858   9.434   0.095   1.838 -0.2466 -0.3911 -0.0520
  785MOL0     C 5859   9.454   0.027   1.719  0.1087  0.6933  0.6679
  785MOL0     C 5860   9.460   0.093   1.579 -0.0727  0.0656 -0.0059
  785MOL0     C 5861   9.602   0.114   1.518  0.5879  0.7812 -0.1037
  785MOL0     C 5862   9.662   0.250   1.554 -0.1593 -0.2127 -0.2142
  785MOL0     C 5863   9.807   0.258   1.509  0.1707  0.0236 -0.2227
  785MOL0     O 5864   9.817   0.249   1.369 -0.4339  0.2160  0.2402
  785MOL0     C 5865   9.930   0.312   1.317 -0.7221 -1.0312 -0.1848
  785MOL0     C 5866  10.054   0.349   1.384  0.6482 -0.4764  0.2948
  785MOL0     C 5867  10.136   0.443   1.324 -0.8740 -0.6837  0.3817
  785MOL0     C 5868  10.108   0.508   1.201 -0.9918 -0.7324 -0.0805
  785MOL0     C 5869  10.208   0.578   1.129 -0.2469  0.4612  0.8621
  785MOL0     O 5870  10.172   0.615   0.997 -0.2807  0.8655 -0.3005
  785MOL0     C 5871  10.272   0.643   0.904 -0.5409  0.1876  0.3283
  785MOL0     C 5872  10.232   0.735   0.815 -0.3524 -0.1510  0.3509
  785MOL0     C 5873  10.313   0.777   0.713 -0.4435  0.7690  0.4188
  785MOL0     C 5874  10.429   0.717   0.685 -0.7955 -0.3668 -0.1392
  785MOL0     O 5875  10.499   0.762   0.570  0.6614 -0.6586  0.4719
  785MOL0     C 5876  10.625   0.711   0.529 -0.2438 -0.2670 -0.8469
  785MOL0     C 5877  10.734   0.745   0.630  0.4638 -0.1540 -0.3418
  785MOL0     C 5878  10.883   0.723   0.582 -0.0519  0.3587  0.3018
  785MOL0     C 5879  10.936   0.574   0.613  0.8491 -0.4699 -0.1180
  785MOL0     C 5880  10.964   0.573   0.765 -0.1185  0.2048  0.8758
  785MOL0     C 5881  11.013   0.433   0.803  0.0013  0.3920  0.7443
  785MOL0     C 5882  11.042   0.410   0.951  1.4069 -0.1663  0.2455
  785MOL0     C 5883  11.027   0.266   1.001  0.0421 -1.0080 -0.6184
  785MOL0    Cl 5884  11.099   0.239   1.165  0.0310  0.6443 -0.2547
  785MOL0     C 5885  10.470   0.605   0.768  0.9181  0.0993  0.6661
  785MOL0     C 5886  10.394   0.569   0.878  1.0879  0.0211  0.0495
  785MOL0     O 5887  10.319   0.598   1.184 -0.0717 -0.7214  0.2930
  785MOL0     C 5888   9.989   0.462   1.134 -0.2443 -0.2780 -0.1415
  785MOL0     C 5889   9.911   0.357   1.183  0.2745  0.6331 -0.3572
  785MOL0     N 5890   9.483  -0.104   1.749  1.2935 -0.1086  0.3412
  785MOL0     N 5891   9.498  -0.112   1.874 -0.7822  0.4158 -0.7633
  785MOL0     C 5892  10.285   0.497   2.541 -0.2881  0.6412  0.3165
  785MOL0     C 5893  10.379   0.558   2.622  0.7416 -0.4527 -0.3208
  785MOL0     C 5894  10.674   0.700   2.915 -0.0217  0.0515 -0.4339
  785MOL0     C 5895  10.804   0.647   2.903 -0.0799 -0.6126 -0.8306
  785MOL0     C 5896  10.911   0.715   2.962 -0.3408  0.1548 -0.0938
  785MOL0     C 5897  10.897   0.832   3.031  0.4219 -0.0414 -0.5428
  785MOL0     O 5898  10.994   0.905   3.103 -0.9331  0.3340  0.5238
  785MOL0     C 5899  11.009   0.852   3.224 -0.1934  0.1855 -0.5134
  785MOL0     C 5900  11.117   0.925   3.304 -0.0919  0.1559  0.1806
  785MOL0     C 5901  11.134   0.860   3.436 -0.7424  0.6315 -0.2608
  785MOL0     C 5902  11.202   0.712   3.436 -0.0640 -1.0144  0.0484
  785MOL0     C 5903  11.239   0.672   3.569 -0.0853  0.1157  0.1945
  785MOL0     C 5904  11.260   0.632   3.679 -0.4446 -0.1167  0.4409
  785MOL0     C 5905  10.768   0.887   3.033  0.7008  0.5345 -0.0854
  785MOL0     C 5906  10.656   0.822   2.980  0.2670 -0.4355 -0.3009
  785MOL0     C 5907  10.526   0.900   2.986 -0.1050 -0.9909  0.1090
  785MOL0     H 5908  10.598   0.304   2.621  0.9592  0.6677  0.8424
  785MOL0     H 5909  10.425   0.199   2.493  0.1603 -0.7326  1.9628
  785MOL0     H 5910  10.251   0.107   2.406  0.5826  0.6104  1.4859
  785MOL0     H 5911  10.166   0.168   2.555  1.5327  2.4565 -0.0363
  785MOL0     H 5912   9.958   0.211   2.425  0.2168  0.2380 -1.0219
  785MOL0     H 5913   9.992   0.037   2.413  1.7228 -1.9058 -2.9051
  785MOL0     H 5914  10.095   0.050   2.203  0.7234  0.0937 -2.5804
  785MOL0     H 5915  10.060   0.224   2.194  1.8018  0.8509 -0.0572
  785MOL0     H 5916   9.851  -0.006   2.218 -1.9986  0.7256  0.4919
  785MOL0     H 5917   9.811   0.152   2.273  1.8825  1.3806  0.3000
  785MOL0     H 5918   9.855   0.236   2.021  1.9961  0.0677 -1.1054
  785MOL0     H 5919   9.922   0.067   1.995  1.0823  0.0212  1.6798
  785MOL0     H 5920   9.721   0.070   1.898 -2.1476  0.3964  0.4231
  785MOL0     H 5921   9.732  -0.033   2.040 -1.7837  0.1196  0.5485
  785MOL0     H 5922   9.568   0.222   2.024  1.1706 -0.7194 -1.7296
  785MOL0     H 5923   9.623   0.166   2.182  1.1772 -0.9684  0.4744
  785MOL0     H 5924   9.510  -0.052   2.137  1.4857  0.3042  1.5625
  785MOL0     H 5925   9.394   0.074   2.128 -0.9005 -0.7356 -1.1909
  785MOL0     H 5926   9.410   0.199   1.862  2.3459 -0.4081  3.2860
  785MOL0     H 5927   9.417   0.015   1.516 -2.1788  1.7060 -0.7103
  785MOL0     H 5928   9.411   0.190   1.567  0.3301 -0.0214 -3.1053
  785MOL0     H 5929   9.655   0.020   1.537 -1.1867 -0.7199 -2.0735
  785MOL0     H 5930   9.589   0.117   1.409  0.3258 -2.1850 -0.2300
  785MOL0     H 5931   9.654   0.260   1.663 -0.2740 -5.8326  0.5608
  785MOL0     H 5932   9.610   0.325   1.494  1.4277  0.1273 -1.2283
  785MOL0     H 5933   9.852   0.166   1.546 -1.6217 -0.3513  1.1304
  785MOL0     H 5934   9.859   0.345   1.550 -0.9229  1.3161 -1.4512
  785MOL0     H 5935  10.066   0.300   1.481  0.3836 -1.9911 -0.4088
  785MOL0     H 5936  10.224   0.480   1.376 -2.0752  0.9675  1.3355
  785MOL0     H 5937  10.138   0.787   0.832 -0.9636 -1.4205  0.9143
  785MOL0     H 5938  10.262   0.853   0.655 -1.3898 -0.9179 -1.0652
  785MOL0     H 5939  10.624   0.602   0.520  2.9682 -0.5002  0.1851
  785MOL0     H 5940  10.655   0.755   0.433  0.2341  0.4358 -0.3828
  785MOL0     H 5941  10.725   0.852   0.652  0.3699 -0.6428  2.3045
  785MOL0     H 5942  10.720   0.686   0.720  2.8958  0.2556  0.3739
  785MOL0     H 5943  10.879   0.729   0.473  1.2521 -0.2797  0.1941
  785MOL0     H 5944  10.946   0.803   0.623 -0.7143  1.7644 -1.3189
  785MOL0     H 5945  11.035   0.550   0.573  2.3896  3.5450  0.7453
  785MOL0     H 5946  10.857   0.502   0.592  1.3606 -0.4073 -2.5760
  785MOL0     H 5947  10.875   0.592   0.826 -1.4615 -1.9953 -0.3020
  785MOL0     H 5948  11.036   0.654   0.784 -1.4633  1.2018  1.9091
  785MOL0     H 5949  10.942   0.359   0.765  0.5231 -1.2946  2.8934
  785MOL0     H 5950  11.107   0.408   0.753 -1.1890  0.9737 -1.9669
  785MOL0     H 5951  10.972   0.472   1.008  0.7437 -0.6440 -0.0304
  785MOL0     H 5952  11.144   0.439   0.977  1.2507 -0.0345  0.7419
  785MOL0     H 5953  10.920   0.243   0.997 -0.7328  2.1992 -1.1466
  785MOL0     H 5954  11.063   0.200   0.922 -3.2173 -1.4199 -1.9060
  785MOL0     H 5955  10.543   0.533   0.733  1.3741  0.1535  1.4865
  785MOL0     H 5956  10.416   0.480   0.935  0.8400 -0.8169 -1.1370
  785MOL0     H 5957   9.965   0.503   1.036  0.1652  1.6696  0.5311
  785MOL0     H 5958   9.828   0.329   1.119 -1.0308 -2.7462  2.4927
  785MOL0     H 5959  10.199   0.559   2.522 -1.3174  0.3793  3.4847
  785MOL0     H 5960  10.360   0.661   2.651 -2.7713 -1.5728  2.2085
  785MOL0     H 5961  10.820   0.554   2.850  1.1934 -2.1356  2.0185
  785MOL0     H 5962  11.008   0.668   2.946 -0.8982 -2.5123  3.3987
  785MOL0     H 5963  11.047   0.749   3.222  2.3530  0.8848  2.5907
  785MOL0     H 5964  10.913   0.865   3.274  1.7102  0.2647  3.5894
  785MOL0     H 5965  11.094   1.032   3.307  0.5198  0.2635  2.8426
  785MOL0     H 5966  11.210   0.929   3.246 -0.7826  0.6643 -0.9444
  785MOL0     H 5967  11.036   0.838   3.479 -0.9726 -0.7461 -1.3953
  785MOL0     H 5968  11.199   0.922   3.497 -1.3903 -0.2093  1.3402
  785MOL0     H 5969  11.135   0.634   3.400 -0.5765 -1.6087  2.1053
  785MOL0     H 5970  11.299   0.719   3.387 -0.0877  0.8346  0.2055
  785MOL0     H 5971  11.283   0.586   3.773 -1.7788  2.1817  2.0147
  785MOL0     H 5972  10.772   0.984   3.082 -1.7849  0.5243  0.2329
  785MOL0     H 5973  10.468   0.844   3.059  2.0643 -0.6789  2.2049
  785MOL0     H 5974  10.535   1.004   3.020  1.4372  0.2868 -3.6643
  785MOL0     H 5975  10.491   0.918   2.884 -0.3207  0.9819  0.4808
  786MOL0     O 5976   4.712   5.404   9.661 -0.2116  0.5214 -0.7046
  786MOL0     C 5977   4.805   5.421   9.580  0.6921  0.1767 -0.2990
  786MOL0     O 5978   4.791   5.461   9.459 -0.1168  0.6069  0.7101
  786MOL0     C 5979   4.679   5.516   9.411 -0.0971 -0.5755 -0.0256
  786MOL0     C 5980   4.577   5.585   9.491 -0.1133  0.8526 -0.3147
  786MOL0     C 5981   4.470   5.649   9.423 -0.6212  0.5781 -0.8530
  786MOL0     C 5982   4.443   5.626   9.287  0.1317  1.0008  0.2683
  786MOL0     O 5983   4.321   5.660   9.238  0.6250 -0.2597  0.3743
  786MOL0     C 5984   4.313   5.690   9.097  0.0106  0.0137 -0.0198
  786MOL0     C 5985   4.180   5.780   9.068 -0.0963 -0.3131  0.8063
  786MOL0     C 5986   4.181   5.865   8.935  0.3302  0.2868  0.3353
  786MOL0     C 5987   4.159   5.772   8.816  1.1551  0.6714 -0.2280
  786MOL0     C 5988   4.145   5.839   8.680 -0.5557  0.1133  0.4215
  786MOL0     C 5989   4.204   5.753   8.573 -0.7417 -0.2509  0.2889
  786MOL0     C 5990   4.355   5.750   8.591 -0.2772 -0.3528  0.3178
  786MOL0     C 5991   4.404   5.612   8.563 -0.3969  0.4520 -0.2310
  786MOL0     N 5992   4.385   5.517   8.676  0.5195  0.0414  1.2270
  786MOL0     C 5993   4.267   5.449   8.698  0.0453 -0.1158 -0.1960
  786MOL0     C 5994   4.278   5.392   8.818 -0.4112  1.5521  0.3835
  786MOL0     C 5995   4.172   5.324   8.889 -0.6308 -0.0897  0.6815
  786MOL0     C 5996   4.087   5.410   8.981 -0.2792 -0.3950 -0.0370
  786MOL0     C 5997   3.957   5.331   9.028  0.2785 -0.1949 -0.4044
  786MOL0     C 5998   3.902   5.417   9.143 -1.0176  0.5276  0.7584
  786MOL0     O 5999   3.964   5.365   9.265 -0.3025  0.0385  0.6005
  786MOL0     C 6000   3.888   5.297   9.359  0.2538 -0.0379 -0.4490
  786MOL0     C 6001   3.944   5.195   9.437 -1.0420  0.7692 -0.0035
  786MOL0     C 6002   3.869   5.118   9.522 -0.3945 -0.6236 -0.1201
  786MOL0     C 6003   3.740   5.157   9.557  0.0418  0.9451  0.6390
  786MOL0     C 6004   3.671   5.081   9.662 -0.5952 -1.2024 -1.0043
  786MOL0     O 6005   3.531   5.086   9.661 -0.9438  0.5413 -0.3551
  786MOL0     C 6006   3.472   4.988   9.739 -0.0754 -0.4246 -0.3261
  786MOL0     C 6007   3.433   4.993   9.881 -0.8115  0.4620 -0.3553
  786MOL0     C 6008   3.372   4.884   9.941 -0.1709  0.3930 -0.4823
  786MOL0     C 6009   3.356   4.760   9.875  0.3340 -0.2621 -0.5216
  786MOL0     O 6010   3.310   4.656   9.944 -0.1198 -0.2775  0.7960
  786MOL0     C 6011   3.188   4.602   9.908  0.5305  0.4571  0.5661
  786MOL0     C 6012   3.189   4.483   9.801  0.6821  0.1215  0.4015
  786MOL0     C 6013   3.058   4.468   9.723 -0.3994 -0.0651  0.1365
  786MOL0     C 6014   3.050   4.329   9.658  0.6297 -0.3349  0.1009
  786MOL0     C 6015   3.017   4.216   9.752  0.0533  0.0139 -0.1655
  786MOL0     C 6016   2.982   4.077   9.695  0.8932  0.3818  0.0946
  786MOL0     C 6017   2.866   4.090   9.590  0.0845 -0.4967  0.1785
  786MOL0     C 6018   2.797   3.955   9.565 -0.0198 -0.2463  0.8559
  786MOL0    Cl 6019   2.924   3.833   9.559 -0.0220  0.2470 -0.5336
  786MOL0     C 6020   3.403   4.756   9.743 -0.0934  0.2886  0.1049
  786MOL0     C 6021   3.451   4.873   9.674 -1.1960  0.4510 -0.4546
  786MOL0     O 6022   3.738   5.021   9.747  0.2473  0.0967  0.0504
  786MOL0     C 6023   3.681   5.260   9.488 -0.5252  0.9356 -0.1089
  786MOL0     C 6024   3.750   5.334   9.386 -1.2799 -0.3053 -0.1608
  786MOL0     N 6025   4.411   5.412   8.855  0.2079 -0.4882  0.3605
  786MOL0     N 6026   4.476   5.492   8.768 -0.1532  1.7800 -0.2967
  786MOL0     C 6027   4.553   5.560   9.207  0.9236  0.2647  0.2755
  786MOL0     C 6028   4.667   5.517   9.275  0.7392  0.6853 -0.5746
  786MOL0     C 6029   4.941   5.427   9.617 -0.0696 -0.0242 -0.4540
  786MOL0     C 6030   5.043   5.379   9.532 -0.6631  0.2915  0.0191
  786MOL0     C 6031   5.176   5.382   9.574  0.1149 -0.7530  0.1055
  786MOL0     C 6032   5.210   5.445   9.688 -0.0905  0.6502 -0.6630
  786MOL0     O 6033   5.340   5.438   9.721 -0.0351 -0.6303  0.1656
  786MOL0     C 6034   5.387   5.511   9.834  0.1873  0.7828  0.2913
  786MOL0     C 6035   5.537   5.501   9.838 -0.4598  0.3028  0.3845
  786MOL0     C 6036   5.601   5.369   9.796  0.6112 -0.2749  0.1662
  786MOL0     C 6037   5.752   5.351   9.832  0.6194  0.5474 -0.1681
  786MOL0     C 6038   5.775   5.304   9.964 -0.2291 -0.4990  0.8627
  786MOL0     C 6039   5.777   5.254  10.074 -1.1233  0.5360  0.3762
  786MOL0     C 6040   5.111   5.462   9.786  0.0878 -0.1082 -0.0011
  786MOL0     C 6041   4.971   5.466   9.751  0.1047 -0.1281  0.0918
  786MOL0     C 6042   4.869   5.532   9.834 -0.2224 -0.2933 -0.0917
  786MOL0     H 6043   4.578   5.611   9.596  0.1569  0.8783 -0.3225
  786MOL0     H 6044   4.409   5.717   9.481  0.3915  1.3118 -0.6169
  786MOL0     H 6045   4.404   5.737   9.059 -1.3211  2.4893 -0.3574
  786MOL0     H 6046   4.292   5.602   9.036 -0.6854  0.8610 -1.0241
  786MOL0     H 6047   4.158   5.834   9.161 -1.3807 -4.0987  2.9125
  786MOL0     H 6048   4.094   5.713   9.066 -1.4284  1.2982  1.5134
  786MOL0     H 6049   4.279   5.909   8.918 -1.0397  3.0440 -1.0756
  786MOL0     H 6050   4.117   5.953   8.942  1.6908  1.3477 -0.1238
  786MOL0     H 6051   4.240   5.699   8.815  3.2359  2.7640  2.0654
  786MOL0     H 6052   4.067   5.718   8.842  0.8313  0.8518 -0.9712
  786MOL0     H 6053   4.043   5.859   8.646  0.8334  2.2419 -2.9829
  786MOL0     H 6054   4.199   5.934   8.683 -0.0698 -0.0654  4.7820
  786MOL0     H 6055   4.157   5.654   8.567  0.6793 -1.0194  1.2317
  786MOL0     H 6056   4.178   5.805   8.481 -0.0672 -0.8065 -0.2235
  786MOL0     H 6057   4.396   5.785   8.685 -0.9702  0.9743  0.1469
  786MOL0     H 6058   4.402   5.807   8.510 -1.4885  1.3379  0.7543
  786MOL0     H 6059   4.353   5.582   8.470 -1.8918 -0.4752  0.8506
  786MOL0     H 6060   4.513   5.607   8.556 -0.2320 -3.0980  2.3371
  786MOL0     H 6061   4.165   5.471   8.669  0.3895  2.0104 -0.0029
  786MOL0     H 6062   4.109   5.273   8.816  0.5899 -0.1313 -0.3905
  786MOL0     H 6063   4.208   5.244   8.954 -1.8773  0.7618  2.4763
  786MOL0     H 6064   4.143   5.462   9.059 -3.3716  2.7820  0.3417
  786MOL0     H 6065   4.050   5.494   8.921  1.3876  3.1508  3.4326
  786MOL0     H 6066   3.979   5.230   9.063  0.8014  1.0415  3.2212
  786MOL0     H 6067   3.890   5.338   8.942  2.7496  3.6827 -2.3132
  786MOL0     H 6068   3.793   5.406   9.147 -0.9397 -1.4312 -1.1950
  786MOL0     H 6069   3.928   5.522   9.125  1.5256 -0.2364 -0.4474
  786MOL0     H 6070   4.046   5.164   9.417 -1.9997 -1.7623 -1.4120
  786MOL0     H 6071   3.913   5.033   9.573  1.2777 -0.5976 -1.4097
  786MOL0     H 6072   3.452   5.089   9.928  2.1419  0.5034 -1.4189
  786MOL0     H 6073   3.350   4.899  10.046  4.2284  0.6182  0.6128
  786MOL0     H 6074   3.122   4.575   9.991 -1.7217 -1.3281 -1.6394
  786MOL0     H 6075   3.124   4.678   9.863 -0.7268  0.9872  3.0739
  786MOL0     H 6076   3.255   4.504   9.716 -1.8214 -2.2631 -2.3353
  786MOL0     H 6077   3.224   4.394   9.853 -1.1911  1.2502  3.8937
  786MOL0     H 6078   2.971   4.489   9.787 -1.2310  0.9923 -1.3055
  786MOL0     H 6079   3.057   4.545   9.646 -1.4703 -1.6600 -1.5274
  786MOL0     H 6080   3.145   4.312   9.606 -0.2525 -1.8840 -1.0708
  786MOL0     H 6081   2.981   4.337   9.574  0.7768  1.3083  0.0924
  786MOL0     H 6082   2.944   4.261   9.819  0.8185  2.7614 -1.0470
  786MOL0     H 6083   3.103   4.197   9.817  0.2556 -2.2480 -1.0021
  786MOL0     H 6084   3.073   4.042   9.646  2.2745  1.5532  1.6871
  786MOL0     H 6085   2.966   4.006   9.776  3.1961 -0.4343 -0.1036
  786MOL0     H 6086   2.903   4.150   9.506 -3.0299  2.4107  0.6655
  786MOL0     H 6087   2.787   4.153   9.631  0.8539  1.7725 -1.6163
  786MOL0     H 6088   2.712   3.936   9.632 -1.4574  3.6724  0.4406
  786MOL0     H 6089   2.750   3.954   9.467 -1.3737 -2.5299  1.4668
  786MOL0     H 6090   3.400   4.656   9.699  1.3769  0.7131 -1.0399
  786MOL0     H 6091   3.475   4.853   9.571  0.2332 -1.5546  0.2051
  786MOL0     H 6092   3.578   5.289   9.506 -0.9012 -0.7698  0.6990
  786MOL0     H 6093   3.699   5.409   9.326  0.4689  1.9814  1.0476
  786MOL0     H 6094   4.538   5.542   9.101  0.7498  0.9205  0.1836
  786MOL0     H 6095   4.747   5.468   9.221  1.9911  0.2026  1.5901
  786MOL0     H 6096   5.035   5.348   9.429  1.3337  2.4514 -0.8676
  786MOL0     H 6097   5.246   5.336   9.505  0.3955 -1.8035  1.0600
  786MOL0     H 6098   5.350   5.464   9.925 -1.0349 -0.4988 -0.8159
  786MOL0     H 6099   5.364   5.616   9.812  1.1841  0.5214 -2.3323
  786MOL0     H 6100   5.566   5.526   9.940 -0.6659 -4.1463  1.7420
  786MOL0     H 6101   5.575   5.560   9.755 -0.8217 -1.2219 -0.9180
  786MOL0     H 6102   5.579   5.373   9.689 -3.1340  1.0948  0.8389
  786MOL0     H 6103   5.548   5.283   9.836  0.5672  0.3691  1.5411
  786MOL0     H 6104   5.792   5.273   9.766 -1.7724 -1.4992  0.6339
  786MOL0     H 6105   5.800   5.449   9.828  0.1696  0.9085  1.9469
  786MOL0     H 6106   5.766   5.215  10.173 -1.1193 -0.5045 -0.0247
  786MOL0     H 6107   5.143   5.497   9.884  1.0962 -2.1915  0.4765
  786MOL0     H 6108   4.918   5.614   9.887  1.8872  0.9820 -3.6420
  786MOL0     H 6109   4.802   5.596   9.775  0.4651  0.8087  0.2872
  786MOL0     H 6110   4.812   5.461   9.894  0.9253 -1.2482 -0.0888
  787MOL0     O 6111   5.531   0.100   2.146  0.1070 -0.3328  0.4033
  787MOL0     C 6112   5.541   0.210   2.205  0.2676 -0.5453  0.2948
  787MOL0     O 6113   5.640   0.242   2.304 -0.2178  0.1249  0.7116
  787MOL0     C 6114   5.755   0.164   2.312  0.1578  0.7477 -0.5096
  787MOL0     C 6115   5.813   0.157   2.441  0.4961  0.6013  0.1324
  787MOL0     C 6116   5.922   0.082   2.466 -0.5284 -0.2427  0.2261
  787MOL0     C 6117   5.982   0.003   2.364 -0.0563  0.2503 -0.4550
  787MOL0     O 6118   6.097  -0.067   2.402 -0.7356 -0.2774 -0.2053
  787MOL0     C 6119   6.181  -0.112   2.302  0.5180  0.1295 -0.0804
  787MOL0     C 6120   6.320  -0.133   2.368 -0.3241  0.3180  0.2797
  787MOL0     C 6121   6.425  -0.171   2.261  0.1026  0.6043 -0.1509
  787MOL0     C 6122   6.560  -0.191   2.329  0.2831  0.3077 -0.5852
  787MOL0     C 6123   6.676  -0.198   2.236 -0.7076 -0.6233  0.1104
  787MOL0     C 6124   6.811  -0.197   2.328  0.5093  0.5785 -0.0416
  787MOL0     C 6125   6.952  -0.202   2.256  0.3176  0.0847 -0.1608
  787MOL0     C 6126   6.957  -0.117   2.129  0.9839 -0.1917  0.8695
  787MOL0     N 6127   7.102  -0.083   2.098 -0.0538  0.0988 -0.3036
  787MOL0     C 6128   7.197  -0.174   2.039 -0.8156  0.2799 -0.6122
  787MOL0     C 6129   7.312  -0.098   2.045  1.2396 -0.2303 -0.5660
  787MOL0     C 6130   7.446  -0.137   1.998 -0.3466  0.0047  0.2826
  787MOL0     C 6131   7.539  -0.020   1.979  0.6817  0.5241  0.2645
  787MOL0     C 6132   7.652  -0.029   2.076  0.3375  0.4025  0.0292
  787MOL0     C 6133   7.774   0.046   2.038  0.1929 -0.6203 -0.5961
  787MOL0     O 6134   7.833  -0.003   1.914 -0.1091  0.2537 -0.4717
  787MOL0     C 6135   7.950   0.057   1.869  1.0344  0.3439  0.6356
  787MOL0     C 6136   8.001   0.010   1.751  0.4485  0.9165 -0.6494
  787MOL0     C 6137   8.122   0.063   1.697  0.0361  0.5811 -0.3620
  787MOL0     C 6138   8.196   0.165   1.768  0.2782 -0.1664 -0.8261
  787MOL0     C 6139   8.318   0.239   1.721  0.3197 -0.5273  0.2869
  787MOL0     O 6140   8.361   0.209   1.596 -0.0353 -0.6217 -0.1619
  787MOL0     C 6141   8.492   0.213   1.561  0.7704  0.4459  0.1000
  787MOL0     C 6142   8.594   0.283   1.618 -0.2012  0.3792  0.3787
  787MOL0     C 6143   8.729   0.275   1.563  0.4162 -0.8054 -0.8033
  787MOL0     C 6144   8.753   0.211   1.440 -0.4675  0.0096 -0.4036
  787MOL0     O 6145   8.882   0.207   1.387  0.9537 -0.6866  0.4732
  787MOL0     C 6146   8.896   0.128   1.276  0.3097 -0.1149  0.4516
  787MOL0     C 6147   9.050   0.143   1.252 -0.0193 -0.6985  0.9396
  787MOL0     C 6148   9.093   0.281   1.211  0.1415 -0.3421 -0.7599
  787MOL0     C 6149   9.049   0.330   1.068 -0.0699  0.8848 -0.5895
  787MOL0     C 6150   9.103   0.466   1.040  0.0310 -0.6892  0.4323
  787MOL0     C 6151   9.030   0.585   1.078 -0.7206 -0.0783 -0.5132
  787MOL0     C 6152   9.087   0.714   1.032  0.4436  0.2593  1.4696
  787MOL0     C 6153   9.093   0.748   0.877 -0.9113  0.6014  0.2627
  787MOL0    Cl 6154   9.226   0.647   0.797  0.1176  0.3018 -0.5618
  787MOL0     C 6155   8.643   0.142   1.380  0.3238  0.4360  0.1088
  787MOL0     C 6156   8.517   0.144   1.450  0.2995 -1.4300 -0.5334
  787MOL0     O 6157   8.373   0.314   1.799  0.4434  0.8340 -0.2806
  787MOL0     C 6158   8.137   0.211   1.890  0.1613 -0.6508 -0.1796
  787MOL0     C 6159   8.013   0.166   1.936 -0.2006 -0.0693  0.0980
  787MOL0     N 6160   7.275   0.029   2.100 -0.1199  0.0565  0.4595
  787MOL0     N 6161   7.160   0.032   2.139  0.1136  0.0872  0.5364
  787MOL0     C 6162   5.926   0.005   2.238 -0.2589  0.6715 -0.0828
  787MOL0     C 6163   5.811   0.081   2.211  0.0762 -0.5812 -0.4738
  787MOL0     C 6164   5.434   0.312   2.174 -0.7748  0.0745  1.4259
  787MOL0     C 6165   5.397   0.318   2.046  0.1948  0.3261  0.2398
  787MOL0     C 6166   5.276   0.382   2.000  0.2544 -0.3258 -0.4517
  787MOL0     C 6167   5.205   0.463   2.088  1.0209  0.2356  0.2581
  787MOL0     O 6168   5.111   0.560   2.062 -0.5146  0.5689 -0.2491
  787MOL0     C 6169   5.058   0.567   1.925  0.0124 -0.8023 -0.2839
  787MOL0     C 6170   4.914   0.621   1.921  0.2080  0.9639 -0.4490
  787MOL0     C 6171   4.891   0.767   1.963 -0.0851 -0.6139  0.0759
  787MOL0     C 6172   4.750   0.793   1.970  0.0509  0.1596  0.3083
  787MOL0     C 6173   4.657   0.743   1.859 -0.4890  1.0764 -0.5353
  787MOL0     C 6174   4.569   0.707   1.784 -1.0353 -0.0731 -0.4510
  787MOL0     C 6175   5.249   0.459   2.226 -0.2025 -0.4204  0.3534
  787MOL0     C 6176   5.354   0.378   2.270  0.0670  0.3539  0.3482
  787MOL0     C 6177   5.366   0.362   2.416 -0.6034  0.5421 -0.4377
  787MOL0     H 6178   5.763   0.220   2.514 -0.2759  1.4583 -1.0857
  787MOL0     H 6179   5.961   0.084   2.567 -0.4422  3.5931  0.2368
  787MOL0     H 6180   6.149  -0.209   2.262 -0.2116  0.3603 -0.0586
  787MOL0     H 6181   6.183  -0.037   2.223  0.7770  0.6953  0.4490
  787MOL0     H 6182   6.322  -0.229   2.421  3.4355 -0.8243 -1.5236
  787MOL0     H 6183   6.357  -0.046   2.423  0.6559  0.7459 -0.9882
  787MOL0     H 6184   6.433  -0.095   2.183  2.5652  0.2174 -0.3628
  787MOL0     H 6185   6.395  -0.267   2.216  1.3203  0.1686 -0.0721
  787MOL0     H 6186   6.571  -0.109   2.401 -0.2829 -0.6769  0.6626
  787MOL0     H 6187   6.564  -0.287   2.381  0.2033  0.7345  0.2302
  787MOL0     H 6188   6.674  -0.297   2.189  0.2183  1.3176 -4.5607
  787MOL0     H 6189   6.671  -0.107   2.176 -2.4164  0.0397  1.1719
  787MOL0     H 6190   6.817  -0.107   2.391 -0.3019 -1.2316  2.8426
  787MOL0     H 6191   6.796  -0.269   2.409  3.8523  0.4450  0.6254
  787MOL0     H 6192   6.975  -0.305   2.227 -0.6276 -0.2071  0.0894
  787MOL0     H 6193   7.032  -0.164   2.321 -0.8152  0.0270  1.3151
  787MOL0     H 6194   6.921  -0.173   2.042  0.7683 -1.3302  1.6817
  787MOL0     H 6195   6.901  -0.023   2.139  1.6607  0.0480  2.8251
  787MOL0     H 6196   7.182  -0.273   1.996 -2.0584  0.6034 -0.9525
  787MOL0     H 6197   7.485  -0.212   2.068  1.8992  0.7897 -0.0561
  787MOL0     H 6198   7.447  -0.188   1.901 -1.3942  0.8756 -0.2085
  787MOL0     H 6199   7.570  -0.020   1.874  0.5140  0.8995  0.2145
  787MOL0     H 6200   7.498   0.081   1.990 -2.1454 -0.3037 -1.6914
  787MOL0     H 6201   7.681  -0.133   2.091 -1.7908 -0.0627  1.3845
  787MOL0     H 6202   7.616   0.011   2.172 -1.1169  1.0718 -0.7620
  787MOL0     H 6203   7.842   0.029   2.122 -2.1847 -1.2963  1.3231
  787MOL0     H 6204   7.749   0.151   2.028 -1.7643 -1.1756 -2.1880
  787MOL0     H 6205   7.934  -0.062   1.707 -0.6692  0.8025  1.1474
  787MOL0     H 6206   8.159   0.026   1.602 -2.1261 -1.5147 -0.4766
  787MOL0     H 6207   8.579   0.345   1.705  2.0789 -2.4197  3.0045
  787MOL0     H 6208   8.811   0.329   1.610  0.0892  0.3824 -1.5733
  787MOL0     H 6209   8.872   0.024   1.300  0.9833  0.1073  2.2642
  787MOL0     H 6210   8.849   0.169   1.186  1.2040  2.0003  0.8895
  787MOL0     H 6211   9.111   0.108   1.335  2.0858 -2.0265 -1.0224
  787MOL0     H 6212   9.074   0.070   1.173  0.3678 -0.8409  1.1850
  787MOL0     H 6213   9.054   0.353   1.283 -0.5681  0.9407 -2.3524
  787MOL0     H 6214   9.202   0.286   1.204  0.1259  0.1010 -0.7225
  787MOL0     H 6215   8.940   0.325   1.063 -0.1876 -2.0008  2.0370
  787MOL0     H 6216   9.085   0.240   1.017 -0.9929  1.0927 -1.6732
  787MOL0     H 6217   9.115   0.468   0.931 -0.0971  4.1597  0.2934
  787MOL0     H 6218   9.206   0.473   1.078 -0.4167 -1.6762  1.9017
  787MOL0     H 6219   8.927   0.582   1.040 -1.0438 -0.6668  0.4002
  787MOL0     H 6220   9.030   0.585   1.187  0.1554  0.0438 -0.5062
  787MOL0     H 6221   9.188   0.720   1.073  0.3357 -2.6012  2.3492
  787MOL0     H 6222   9.022   0.789   1.080 -0.6541 -0.3218  0.9235
  787MOL0     H 6223   9.003   0.724   0.819  0.8887  1.7581 -3.3461
  787MOL0     H 6224   9.121   0.854   0.872  0.8437  0.2423  1.6837
  787MOL0     H 6225   8.650   0.103   1.279 -2.9764 -1.5950  0.5357
  787MOL0     H 6226   8.435   0.093   1.400 -0.7554 -2.0053  1.6661
  787MOL0     H 6227   8.172   0.304   1.934 -5.9517  1.9465  0.2626
  787MOL0     H 6228   7.974   0.206   2.028 -0.5144  0.2564 -0.1740
  787MOL0     H 6229   5.964  -0.050   2.153  1.7891  2.9245 -0.7385
  787MOL0     H 6230   5.754   0.094   2.120 -0.6597  1.2046  0.1908
  787MOL0     H 6231   5.444   0.258   1.968  1.5698  1.7124 -0.0418
  787MOL0     H 6232   5.244   0.379   1.896 -0.8365 -2.5571 -0.1144
  787MOL0     H 6233   5.039   0.469   1.878  0.3275 -1.7140  1.4141
  787MOL0     H 6234   5.116   0.633   1.860 -0.7036 -1.6912 -1.9017
  787MOL0     H 6235   4.853   0.556   1.984 -2.9946  2.7614 -1.4520
  787MOL0     H 6236   4.871   0.607   1.821 -1.9729 -0.5310  0.6151
  787MOL0     H 6237   4.939   0.833   1.890  1.0957 -2.2223 -0.6967
  787MOL0     H 6238   4.925   0.784   2.066 -2.9228  2.7482  0.6386
  787MOL0     H 6239   4.702   0.770   2.065  2.9169 -5.3148  0.8211
  787MOL0     H 6240   4.753   0.902   1.959  1.8091  0.2009  0.7882
  787MOL0     H 6241   4.478   0.679   1.734 -1.1993  0.6467 -0.5710
  787MOL0     H 6242   5.192   0.524   2.292 -0.1380  0.7371 -0.6852
  787MOL0     H 6243   5.465   0.400   2.441 -0.5499 -0.3040  0.7486
  787MOL0     H 6244   5.296   0.425   2.471  2.4719  1.8430  2.3341
  787MOL0     H 6245   5.370   0.253   2.430  1.0987  0.3674 -1.9349
  788MOL0     O 6246   3.924   5.570   5.221 -0.5886  0.3693  0.0973
  788MOL0     C 6247   3.900   5.685   5.262 -0.1355  0.2814 -0.2562
  788MOL0     O 6248   3.783   5.724   5.314  0.1795  0.2192 -1.1057
  788MOL0     C 6249   3.715   5.640   5.404 -1.0216  0.0759 -0.1161
  788MOL0     C 6250   3.790   5.565   5.498 -0.1006  0.8939  0.0623
  788MOL0     C 6251   3.736   5.472   5.581  0.4266 -0.6262  0.0223
  788MOL0     C 6252   3.596   5.449   5.582  0.2261  0.4751 -0.1713
  788MOL0     O 6253   3.537   5.364   5.676 -0.3957  0.0854  0.3324
  788MOL0     C 6254   3.441   5.270   5.620 -0.4820  0.2776  0.5782
  788MOL0     C 6255   3.311   5.283   5.685 -0.0796  0.0822  0.0872
  788MOL0     C 6256   3.322   5.227   5.824 -0.6288 -0.6545 -0.1775
  788MOL0     C 6257   3.197   5.278   5.907  0.4905 -0.8075  1.1748
  788MOL0     C 6258   3.198   5.251   6.057 -0.1041 -0.5533 -0.2304
  788MOL0     C 6259   3.321   5.275   6.136 -0.1945 -0.1911  0.5106
  788MOL0     C 6260   3.358   5.426   6.133  0.3797  0.8431 -0.3345
  788MOL0     C 6261   3.464   5.456   6.244  0.5247 -0.1766 -0.3720
  788MOL0     N 6262   3.410   5.487   6.384 -0.9942 -0.5527  0.3893
  788MOL0     C 6263   3.333   5.606   6.411  0.2173  0.5551 -0.6845
  788MOL0     C 6264   3.291   5.590   6.535 -0.3702 -0.2017 -0.2949
  788MOL0     C 6265   3.195   5.670   6.634  0.2250  0.4324  0.7094
  788MOL0     C 6266   3.239   5.816   6.656 -0.4965 -0.0551 -1.2490
  788MOL0     C 6267   3.153   5.887   6.762 -1.0350 -0.0027 -0.0201
  788MOL0     C 6268   3.006   5.894   6.747  0.2989  0.5528 -0.1323
  788MOL0     O 6269   2.960   5.922   6.872  0.3207  0.8015 -0.3179
  788MOL0     C 6270   2.911   6.049   6.911  0.7010  0.6400 -0.6119
  788MOL0     C 6271   2.942   6.160   6.844  0.8797  0.4959 -0.5425
  788MOL0     C 6272   2.894   6.288   6.901 -0.2312  0.0649 -0.1327
  788MOL0     C 6273   2.813   6.301   7.012  0.7180  0.1623  0.6065
  788MOL0     C 6274   2.763   6.428   7.051  0.9246 -0.4444 -0.5730
  788MOL0     O 6275   2.842   6.535   7.028  0.1836  0.1394  0.1024
  788MOL0     C 6276   2.802   6.664   7.049 -0.2986 -1.1889  0.7578
  788MOL0     C 6277   2.668   6.718   7.024 -1.1140  0.7755  0.6362
  788MOL0     C 6278   2.643   6.853   7.044 -0.1088 -0.4652  0.3674
  788MOL0     C 6279   2.736   6.936   7.102 -0.4249 -0.5389  0.2541
  788MOL0     O 6280   2.722   7.070   7.136  0.4081  0.5968  0.4560
  788MOL0     C 6281   2.675   7.079   7.273 -0.0715  0.2055  0.3141
  788MOL0     C 6282   2.676   7.227   7.315 -0.3633 -0.1302  0.4446
  788MOL0     C 6283   2.811   7.273   7.334  0.1499 -0.0600  0.1897
  788MOL0     C 6284   2.804   7.428   7.369 -0.4079 -0.0165  0.4720
  788MOL0     C 6285   2.939   7.469   7.431  0.1569  0.2490  0.5305
  788MOL0     C 6286   2.927   7.622   7.458  0.0237 -0.3129 -0.8997
  788MOL0     C 6287   3.057   7.701   7.495 -0.5522  0.7758  0.2808
  788MOL0     C 6288   3.111   7.637   7.620  0.0999  0.4195 -0.4114
  788MOL0    Cl 6289   3.232   7.764   7.695  0.1139  1.0751  0.0301
  788MOL0     C 6290   2.860   6.878   7.139  0.1533 -0.1165  0.3376
  788MOL0     C 6291   2.895   6.749   7.108 -0.5503 -0.3518  0.3939
  788MOL0     O 6292   2.651   6.436   7.100  0.1287 -0.4265  0.1194
  788MOL0     C 6293   2.790   6.178   7.085 -0.4160  0.6891 -0.3848
  788MOL0     C 6294   2.840   6.057   7.031  0.2130  0.1033 -0.2936
  788MOL0     N 6295   3.326   5.464   6.579 -0.1317  0.6055 -0.4286
  788MOL0     N 6296   3.387   5.396   6.485 -0.7130  0.1625  0.1075
  788MOL0     C 6297   3.511   5.529   5.505  0.7338 -0.1524  0.4678
  788MOL0     C 6298   3.571   5.622   5.414  0.2483 -0.1987  0.2379
  788MOL0     C 6299   3.995   5.791   5.239  0.1276  0.0924  0.3691
  788MOL0     C 6300   3.939   5.909   5.190  0.0287  0.5762 -0.3683
  788MOL0     C 6301   4.024   5.995   5.134 -0.3576 -1.2969 -0.5141
  788MOL0     C 6302   4.164   5.982   5.151  0.1526 -0.3705  0.3568
  788MOL0     O 6303   4.223   6.093   5.087  0.3314 -0.3349 -0.4726
  788MOL0     C 6304   4.318   6.069   4.985  0.4314 -0.4621 -0.2508
  788MOL0     C 6305   4.401   6.191   4.981 -0.0496 -0.1280 -0.1205
  788MOL0     C 6306   4.551   6.161   5.007  1.1396  0.0139 -0.8622
  788MOL0     C 6307   4.617   6.048   4.926 -0.0643  0.5896  0.1347
  788MOL0     C 6308   4.746   6.006   4.977  0.8570 -0.5640 -0.2172
  788MOL0     C 6309   4.861   5.970   5.007 -0.1253  0.4356  0.8583
  788MOL0     C 6310   4.222   5.870   5.209 -0.2034 -1.4093 -0.1595
  788MOL0     C 6311   4.136   5.769   5.249  0.7764 -0.0155 -0.6830
  788MOL0     C 6312   4.192   5.647   5.315  0.4574 -0.1947 -0.2402
  788MOL0     H 6313   3.897   5.584   5.492  0.2744 -1.4409 -2.0923
  788MOL0     H 6314   3.804   5.422   5.650  3.5714  1.1978 -1.5543
  788MOL0     H 6315   3.423   5.289   5.514 -0.3123  3.4171  1.0146
  788MOL0     H 6316   3.479   5.167   5.628 -0.3562  0.3980  1.6457
  788MOL0     H 6317   3.233   5.230   5.630  0.1865  0.0527 -0.2613
  788MOL0     H 6318   3.282   5.388   5.687  1.1858  0.4444  1.1474
  788MOL0     H 6319   3.408   5.269   5.878  0.5550 -2.2872 -0.7205
  788MOL0     H 6320   3.344   5.121   5.834  1.7424 -0.3754 -1.6207
  788MOL0     H 6321   3.192   5.386   5.891 -2.0965 -1.1328 -0.9356
  788MOL0     H 6322   3.109   5.234   5.859  3.1289 -2.1481 -2.9303
  788MOL0     H 6323   3.118   5.312   6.099 -0.9199 -2.8126  1.7080
  788MOL0     H 6324   3.172   5.145   6.064 -1.0848 -0.3666 -0.8746
  788MOL0     H 6325   3.306   5.234   6.236  4.1411 -2.0191  0.5967
  788MOL0     H 6326   3.397   5.221   6.080 -1.3526  0.1407 -1.5060
  788MOL0     H 6327   3.268   5.489   6.138 -1.2913 -1.2525 -1.8680
  788MOL0     H 6328   3.405   5.440   6.035  0.5599  0.1849 -0.3475
  788MOL0     H 6329   3.522   5.363   6.247  3.1021  0.9252 -5.1707
  788MOL0     H 6330   3.536   5.531   6.211  1.2575 -1.3176 -1.4683
  788MOL0     H 6331   3.301   5.683   6.341 -1.1976  1.4905  0.9306
  788MOL0     H 6332   3.105   5.673   6.571  2.2031  1.2435 -2.2768
  788MOL0     H 6333   3.187   5.625   6.733  0.6904  0.3615  0.7135
  788MOL0     H 6334   3.342   5.814   6.694 -0.0011  3.4798 -2.0526
  788MOL0     H 6335   3.241   5.871   6.561  2.5858  0.9808 -0.7182
  788MOL0     H 6336   3.185   5.992   6.760 -0.7605  0.0046  2.3304
  788MOL0     H 6337   3.172   5.839   6.858 -1.1468 -1.1869 -0.5736
  788MOL0     H 6338   2.965   5.800   6.710 -1.3497  2.0323 -2.3572
  788MOL0     H 6339   2.980   5.959   6.663  0.4024  0.7800  0.0101
  788MOL0     H 6340   3.006   6.169   6.757  2.6977  1.3638  0.8009
  788MOL0     H 6341   2.932   6.364   6.833  2.4536 -3.1850 -2.6607
  788MOL0     H 6342   2.602   6.642   6.983 -0.1731  0.4108 -0.2524
  788MOL0     H 6343   2.544   6.893   7.028 -0.6169 -2.2715 -1.5839
  788MOL0     H 6344   2.578   7.028   7.268 -1.0371  1.9314  0.6313
  788MOL0     H 6345   2.728   7.011   7.341 -2.5960 -1.0677  1.1314
  788MOL0     H 6346   2.624   7.289   7.241 -0.2394 -2.4426 -1.7195
  788MOL0     H 6347   2.632   7.237   7.414  1.3042  0.3353  1.1779
  788MOL0     H 6348   2.849   7.217   7.420  0.3729 -0.7477 -0.3443
  788MOL0     H 6349   2.874   7.246   7.248  0.8802 -2.4591  1.3950
  788MOL0     H 6350   2.721   7.450   7.438 -2.3873 -2.2035 -1.0344
  788MOL0     H 6351   2.788   7.485   7.277  0.3309  1.2701  1.1221
  788MOL0     H 6352   3.019   7.439   7.363 -0.1870  0.5581 -0.0171
  788MOL0     H 6353   2.952   7.417   7.526 -0.9450 -2.7065 -0.8302
  788MOL0     H 6354   2.873   7.668   7.374 -0.4868  1.8255  0.5108
  788MOL0     H 6355   2.860   7.624   7.544 -0.6834 -2.3157 -1.3633
  788MOL0     H 6356   3.038   7.806   7.519  0.0696  0.7097  1.1010
  788MOL0     H 6357   3.114   7.687   7.403 -2.8674 -1.8724 -0.9119
  788MOL0     H 6358   3.034   7.621   7.696  0.6377  1.7041  0.4494
  788MOL0     H 6359   3.157   7.544   7.585 -0.4856  0.7236 -2.0597
  788MOL0     H 6360   2.932   6.944   7.186  0.8525 -0.3798 -0.3451
  788MOL0     H 6361   2.995   6.713   7.127  1.1650  3.6123 -0.0604
  788MOL0     H 6362   2.734   6.178   7.178 -4.7498 -2.9319 -2.6191
  788MOL0     H 6363   2.827   5.964   7.086 -1.2292 -0.2748 -1.2195
  788MOL0     H 6364   3.405   5.514   5.521  0.8145 -0.6404  0.5612
  788MOL0     H 6365   3.524   5.687   5.341 -0.7783 -1.3913 -0.2077
  788MOL0     H 6366   3.831   5.921   5.185 -0.0865 -0.2125  0.0327
  788MOL0     H 6367   3.995   6.088   5.086  2.5725  0.3626  0.6378
  788MOL0     H 6368   4.268   6.045   4.890  0.6654  0.9789 -0.7594
  788MOL0     H 6369   4.379   5.982   5.010  4.0142  2.6426  3.0828
  788MOL0     H 6370   4.378   6.260   5.063 -2.2377  2.3607 -2.6388
  788MOL0     H 6371   4.390   6.240   4.884  1.0874 -1.0650 -0.7525
  788MOL0     H 6372   4.544   6.125   5.110 -0.2051  0.5680 -0.7473
  788MOL0     H 6373   4.609   6.253   4.999  1.3843 -0.0466  0.0519
  788MOL0     H 6374   4.559   5.955   4.928  0.5180  0.2080 -0.5112
  788MOL0     H 6375   4.628   6.072   4.820 -0.8914 -0.0974 -0.1187
  788MOL0     H 6376   4.966   5.950   5.015 -0.0441  0.2537 -0.5018
  788MOL0     H 6377   4.328   5.878   5.227 -0.1690  1.2579 -1.1228
  788MOL0     H 6378   4.155   5.642   5.418  1.6249 -0.6552  0.1755
  788MOL0     H 6379   4.164   5.562   5.253  2.0116 -0.2448 -0.9223
  788MOL0     H 6380   4.302   5.649   5.312  0.4824 -1.0828 -0.2114
  789MOL0     O 6381   0.885   3.113  10.002  0.0292  0.1517 -0.0334
  789MOL0     C 6382   0.830   3.180  10.085  0.0841 -0.4369 -1.2372
  789MOL0     O 6383   0.758   3.127  10.191  0.1497 -0.4306 -0.5176
  789MOL0     C 6384   0.766   2.995  10.224 -0.6179 -0.0233 -0.5227
  789MOL0     C 6385   0.894   2.949  10.239 -0.2737  0.2852 -0.7088
  789MOL0     C 6386   0.905   2.816  10.276 -0.1749  0.9533 -1.2114
  789MOL0     C 6387   0.801   2.731  10.302  0.0505  0.1169  0.2946
  789MOL0     O 6388   0.843   2.618  10.368  0.7893  0.4330 -0.2919
  789MOL0     C 6389   0.756   2.551  10.457  0.8243  0.1690  1.4557
  789MOL0     C 6390   0.700   2.417  10.389 -1.1047 -0.6893 -0.1843
  789MOL0     C 6391   0.823   2.324  10.347 -0.1372 -0.8368 -0.7644
  789MOL0     C 6392   0.908   2.278  10.472  0.1561  0.3305  0.2817
  789MOL0     C 6393   0.838   2.161  10.543  0.4324 -1.0144  0.5313
  789MOL0     C 6394   0.937   2.046  10.566  1.4298  0.0098  0.6518
  789MOL0     C 6395   0.890   1.933  10.652  0.4749  0.1120  0.6375
  789MOL0     C 6396   1.019   1.870  10.717  0.3493  0.2892  0.7249
  789MOL0     N 6397   1.102   1.790  10.627  0.6562 -0.4176 -0.3499
  789MOL0     C 6398   1.065   1.740  10.499  0.1198 -1.2366  0.0536
  789MOL0     C 6399   1.176   1.691  10.453 -1.2245  0.8374 -0.2297
  789MOL0     C 6400   1.215   1.638  10.317 -0.0251 -0.5728  0.1485
  789MOL0     C 6401   1.093   1.638  10.223  0.3957  0.5758  0.4614
  789MOL0     C 6402   1.091   1.763  10.139 -0.4593  0.3307  0.0041
  789MOL0     C 6403   0.977   1.765  10.046 -0.2617 -0.2029  0.8715
  789MOL0     O 6404   0.853   1.772  10.122  0.1815  0.9809  0.2084
  789MOL0     C 6405   0.745   1.826  10.053 -1.0047  0.4790  0.5080
  789MOL0     C 6406   0.707   1.952  10.088 -0.2615 -0.2022 -0.5496
  789MOL0     C 6407   0.602   2.011  10.017 -1.0032 -0.5930  0.3391
  789MOL0     C 6408   0.518   1.936   9.931 -0.8832  0.7057 -0.4285
  789MOL0     C 6409   0.411   1.988   9.844 -0.0576 -0.7871  0.4414
  789MOL0     O 6410   0.345   1.917   9.742  0.1571  0.1384  0.2544
  789MOL0     C 6411   0.267   1.992   9.660  0.5870 -0.2566  0.0440
  789MOL0     C 6412   0.143   2.053   9.695  0.6073 -0.4699  0.1830
  789MOL0     C 6413   0.081   2.143   9.611  0.2288 -0.2831 -0.1590
  789MOL0     C 6414   0.137   2.180   9.486  0.2003  0.3222 -0.0477
  789MOL0     O 6415   0.069   2.265   9.403 -0.6063  0.0437 -0.0548
  789MOL0     C 6416   0.122   2.392   9.364  1.2196  0.5833  0.4413
  789MOL0     C 6417   0.016   2.481   9.300 -0.3736 -0.4920 -0.4024
  789MOL0     C 6418   0.078   2.621   9.279  0.0108 -0.2473 -0.3749
  789MOL0     C 6419   0.035   2.713   9.403 -0.5535  0.1086 -0.2497
  789MOL0     C 6420   0.117   2.845   9.434  0.4322  0.3758 -0.0756
  789MOL0     C 6421   0.068   2.912   9.559 -0.5210 -0.1440 -0.2999
  789MOL0     C 6422   0.071   2.825   9.685 -0.1342 -0.4120 -0.8980
  789MOL0     C 6423   0.023   2.922   9.792  1.1073 -0.2063  0.4177
  789MOL0    Cl 6424   0.040   2.858   9.953  0.4566  0.0089  0.3485
  789MOL0     C 6425   0.249   2.109   9.446 -0.3927 -0.0827  0.4204
  789MOL0     C 6426   0.311   2.021   9.531 -0.6596  0.4348  0.2952
  789MOL0     O 6427   0.400   2.109   9.862 -0.2121 -0.8343 -0.6176
  789MOL0     C 6428   0.557   1.803   9.903 -0.3638 -0.0614 -0.5511
  789MOL0     C 6429   0.666   1.751   9.967  0.0297 -0.3704  0.2700
  789MOL0     N 6430   1.279   1.702  10.550 -0.3519  0.0567  0.2388
  789MOL0     N 6431   1.235   1.772  10.646 -0.0717  0.1537 -0.2588
  789MOL0     C 6432   0.669   2.776  10.272 -0.1113 -0.0309 -0.5123
  789MOL0     C 6433   0.657   2.907  10.241 -0.1630 -0.7227 -0.6482
  789MOL0     C 6434   0.826   3.329  10.077 -0.1452  0.0605  0.3636
  789MOL0     C 6435   0.777   3.399  10.188  0.3047 -0.3131 -0.5048
  789MOL0     C 6436   0.767   3.546  10.195 -0.5875  0.0798  0.1191
  789MOL0     C 6437   0.799   3.612  10.077 -0.1193  0.8132 -0.4501
  789MOL0     O 6438   0.788   3.746  10.060  0.0095 -0.6090  0.0029
  789MOL0     C 6439   0.766   3.830  10.181  0.1624  0.9390  0.6716
  789MOL0     C 6440   0.797   3.972  10.144  0.2827 -0.6450  0.9123
  789MOL0     C 6441   0.936   3.993  10.109 -0.2077 -0.1966  1.3239
  789MOL0     C 6442   0.964   4.119  10.024 -0.5821  0.3664  0.4619
  789MOL0     C 6443   0.937   4.247  10.095 -0.2524 -0.0447  0.3566
  789MOL0     C 6444   0.953   4.342  10.167 -0.2075 -0.2557 -0.0900
  789MOL0     C 6445   0.840   3.540   9.967 -0.2853  0.2561  0.1326
  789MOL0     C 6446   0.863   3.402   9.963  0.4622  1.3323  0.5701
  789MOL0     C 6447   0.933   3.349   9.839  1.2375  0.4863  0.2368
  789MOL0     H 6448   0.975   3.019  10.222  0.3166  0.0894  1.0172
  789MOL0     H 6449   1.000   2.767  10.298  0.1491  2.6443  1.7471
  789MOL0     H 6450   0.802   2.518  10.551  2.3598 -1.0319  0.3308
  789MOL0     H 6451   0.678   2.624  10.482  0.5168  0.8681 -1.2691
  789MOL0     H 6452   0.645   2.438  10.296  3.1840  0.4653 -2.7307
  789MOL0     H 6453   0.629   2.369  10.457 -0.6817 -1.3398 -0.2006
  789MOL0     H 6454   0.881   2.383  10.275 -0.2147 -0.5321 -0.5788
  789MOL0     H 6455   0.780   2.233  10.303  0.6446 -2.0751  0.8959
  789MOL0     H 6456   1.000   2.238  10.428 -0.7444 -2.2810  0.5628
  789MOL0     H 6457   0.934   2.343  10.555 -0.3725  0.3165  0.4598
  789MOL0     H 6458   0.801   2.201  10.638  1.9132  0.6796  0.4465
  789MOL0     H 6459   0.746   2.139  10.487 -0.4700  2.4030  0.4034
  789MOL0     H 6460   0.951   2.007  10.465  0.3720 -0.4796  0.6794
  789MOL0     H 6461   1.035   2.083  10.600  0.2718  1.0633  3.1466
  789MOL0     H 6462   0.833   1.858  10.598  0.5079  0.4031  0.1947
  789MOL0     H 6463   0.819   1.967  10.728 -1.5333 -0.4052 -0.9552
  789MOL0     H 6464   1.070   1.952  10.768  1.0611  0.6805 -0.5532
  789MOL0     H 6465   0.983   1.800  10.793 -1.5088 -0.7658 -1.0096
  789MOL0     H 6466   0.969   1.749  10.448 -1.5188  2.1737  3.2096
  789MOL0     H 6467   1.296   1.699  10.278 -0.3801  0.4877  1.0264
  789MOL0     H 6468   1.250   1.535  10.330  1.0132 -0.0311  2.0303
  789MOL0     H 6469   1.109   1.551  10.158  1.0679  0.9924  0.0600
  789MOL0     H 6470   1.001   1.620  10.280  0.5234 -2.8847 -0.1976
  789MOL0     H 6471   1.182   1.784  10.082 -0.0630  3.2544  1.5388
  789MOL0     H 6472   1.085   1.851  10.203 -1.7253  0.5380 -0.3771
  789MOL0     H 6473   0.966   1.684   9.974  1.9181  2.8407 -3.2842
  789MOL0     H 6474   0.978   1.853   9.981 -0.8528 -1.5112 -0.9685
  789MOL0     H 6475   0.759   2.015  10.159 -2.9123  0.9919  0.4786
  789MOL0     H 6476   0.578   2.113  10.043 -1.0856  0.1317 -2.3013
  789MOL0     H 6477   0.108   2.039   9.797 -0.5375  0.6517 -0.0208
  789MOL0     H 6478  -0.010   2.189   9.646 -0.2848 -0.8220 -0.7513
  789MOL0     H 6479   0.147   2.437   9.461  0.5115  1.9231  0.0363
  789MOL0     H 6480   0.214   2.380   9.306  1.5036 -3.2077  1.4043
  789MOL0     H 6481  -0.010   2.429   9.207  2.4670  0.5121 -1.8624
  789MOL0     H 6482  -0.078   2.485   9.355 -0.5207 -1.0895 -0.5921
  789MOL0     H 6483   0.186   2.618   9.269  0.1791  3.8323 -1.7325
  789MOL0     H 6484   0.043   2.669   9.187 -1.0357  0.8772  0.5726
  789MOL0     H 6485   0.037   2.649   9.492 -0.7299 -0.0630 -0.3678
  789MOL0     H 6486  -0.068   2.743   9.385 -0.6903  0.1322  0.5239
  789MOL0     H 6487   0.101   2.911   9.349 -0.0528 -3.3516 -3.1461
  789MOL0     H 6488   0.222   2.816   9.437  0.4380  0.1450 -1.7955
  789MOL0     H 6489   0.130   3.000   9.578 -0.3199  0.1448 -2.0701
  789MOL0     H 6490  -0.036   2.941   9.547 -0.8432 -1.3982 -0.7628
  789MOL0     H 6491   0.177   2.801   9.696  0.1979 -0.3475 -3.4091
  789MOL0     H 6492   0.009   2.736   9.673  0.8861 -0.9755 -2.2304
  789MOL0     H 6493   0.088   3.011   9.793 -0.3942  0.9153  0.7227
  789MOL0     H 6494  -0.077   2.961   9.773  1.3437 -0.2897 -1.2144
  789MOL0     H 6495   0.297   2.134   9.353 -1.0152 -1.9816 -0.4576
  789MOL0     H 6496   0.391   1.955   9.499 -1.6688 -1.1777  1.0097
  789MOL0     H 6497   0.513   1.740   9.826 -1.4176  0.1710 -0.1599
  789MOL0     H 6498   0.689   1.647   9.947  1.7415 -0.1072  0.7006
  789MOL0     H 6499   0.583   2.710  10.277 -0.4532  0.4351  3.9418
  789MOL0     H 6500   0.563   2.958  10.224 -0.3737 -0.7248  0.4348
  789MOL0     H 6501   0.750   3.361  10.286  0.5304  1.3847  0.2414
  789MOL0     H 6502   0.739   3.610  10.278 -1.8151  0.7782 -0.8009
  789MOL0     H 6503   0.830   3.816  10.268 -0.1742  1.9369  1.1025
  789MOL0     H 6504   0.662   3.824  10.213  0.5151 -1.4025  1.5428
  789MOL0     H 6505   0.765   4.038  10.226  0.8114  0.8927 -0.0778
  789MOL0     H 6506   0.737   3.988  10.054 -0.7549 -1.7420  1.3740
  789MOL0     H 6507   0.968   3.900  10.060  0.4279 -0.1505  1.6528
  789MOL0     H 6508   0.996   3.993  10.200  2.6821 -2.6385 -0.3744
  789MOL0     H 6509   1.071   4.106  10.004 -0.9157  0.3190 -1.4430
  789MOL0     H 6510   0.925   4.120   9.922  2.5479 -2.2889 -0.9693
  789MOL0     H 6511   0.949   4.424  10.235 -0.9952  0.0095 -0.4423
  789MOL0     H 6512   0.869   3.604   9.884  0.5249  0.8297  0.8394
  789MOL0     H 6513   0.994   3.258   9.846  0.3723 -0.2105 -0.9659
  789MOL0     H 6514   0.860   3.316   9.765  1.8212  0.8368 -0.5257
  789MOL0     H 6515   1.001   3.424   9.796 -1.6847  1.7467 -2.6447
  790MOL0     O 6516   3.931  10.716   3.217  0.0754 -0.2150 -1.2505
  790MOL0     C 6517   4.003  10.807   3.260  0.0109 -0.2333  0.1937
  790MOL0     O 6518   3.975  10.881   3.377  0.7835  0.3090 -0.5793
  790MOL0     C 6519   3.888  10.831   3.466  0.3474 -0.2802 -0.5443
  790MOL0     C 6520   3.917  10.722   3.548 -0.2087  0.2241  1.0370
  790MOL0     C 6521   3.826  10.673   3.634 -0.0017 -0.3989 -0.3307
  790MOL0     C 6522   3.701  10.725   3.662  0.8753  0.3523 -0.4550
  790MOL0     O 6523   3.605  10.662   3.730  0.2471 -0.1422 -0.6434
  790MOL0     C 6524   3.554  10.742   3.839 -0.1903  0.5306 -0.2044
  790MOL0     C 6525   3.498  10.646   3.934 -0.5019  0.2776  0.3072
  790MOL0     C 6526   3.394  10.549   3.873  0.9887  0.2126  0.0622
  790MOL0     C 6527   3.383  10.425   3.959 -0.3995 -1.1152  0.8465
  790MOL0     C 6528   3.275  10.332   3.911 -0.1574  0.8870 -0.0566
  790MOL0     C 6529   3.299  10.185   3.970 -0.0745  0.1797 -0.9423
  790MOL0     C 6530   3.265  10.165   4.117 -0.5231 -0.2175 -0.1610
  790MOL0     C 6531   3.265  10.018   4.171  0.1434 -0.3154 -0.5656
  790MOL0     N 6532   3.126   9.947   4.156 -0.4637 -0.8125 -0.1682
  790MOL0     C 6533   3.113   9.825   4.116  0.3319  0.5322 -0.5063
  790MOL0     C 6534   2.989   9.792   4.152  0.8711  0.5529  1.0636
  790MOL0     C 6535   2.915   9.662   4.126 -0.3538  0.2047  0.1453
  790MOL0     C 6536   2.893   9.631   3.987 -0.1752 -0.6444 -0.7966
  790MOL0     C 6537   2.874   9.484   3.952  0.1089 -0.5623  0.4512
  790MOL0     C 6538   2.785   9.408   4.043  0.6326 -0.2995  0.1917
  790MOL0     O 6539   2.658   9.463   4.079  0.1421  0.7152 -0.4560
  790MOL0     C 6540   2.581   9.393   4.171  0.1583  0.3116 -0.8742
  790MOL0     C 6541   2.607   9.274   4.239 -0.2506  0.2923 -0.1264
  790MOL0     C 6542   2.519   9.218   4.332 -0.7405  0.1501  0.5363
  790MOL0     C 6543   2.408   9.284   4.371  0.1355 -0.7963  0.6469
  790MOL0     C 6544   2.305   9.240   4.476 -0.0680  0.3945  0.3795
  790MOL0     O 6545   2.195   9.319   4.497  0.2875  0.5130  0.1758
  790MOL0     C 6546   2.101   9.296   4.600 -0.2590 -0.0582 -0.9016
  790MOL0     C 6547   2.141   9.269   4.729 -0.1604 -0.3321 -0.3944
  790MOL0     C 6548   2.046   9.234   4.825  1.1917  0.5542  0.2743
  790MOL0     C 6549   1.911   9.219   4.787  0.3406  0.7258  0.2899
  790MOL0     O 6550   1.808   9.179   4.868  0.6400  0.3896  0.3314
  790MOL0     C 6551   1.837   9.173   5.011 -0.3754 -0.1829 -0.3123
  790MOL0     C 6552   1.716   9.145   5.093  0.1976 -0.0736 -0.5709
  790MOL0     C 6553   1.674   9.001   5.060 -1.1845 -0.0015  0.2641
  790MOL0     C 6554   1.562   8.952   5.146 -0.3498  0.5230  0.6696
  790MOL0     C 6555   1.480   8.842   5.073  1.0115  0.4911  0.3056
  790MOL0     C 6556   1.364   8.778   5.146 -0.1598  0.3627  0.1770
  790MOL0     C 6557   1.298   8.677   5.052  0.0001 -0.2912  0.4758
  790MOL0     C 6558   1.195   8.586   5.127  0.0307 -1.3041  0.1239
  790MOL0    Cl 6559   1.109   8.499   5.004  0.2746  0.1620 -0.1624
  790MOL0     C 6560   1.877   9.257   4.654  0.6900  0.2033 -0.0269
  790MOL0     C 6561   1.974   9.289   4.565  0.0517  0.8651  0.2536
  790MOL0     O 6562   2.340   9.135   4.537 -0.0653  0.4295 -0.1301
  790MOL0     C 6563   2.380   9.404   4.301 -0.3962  0.1586 -0.0557
  790MOL0     C 6564   2.461   9.456   4.198 -0.8290  0.0943  0.4197
  790MOL0     N 6565   2.928   9.897   4.226  0.6070  0.3313  0.0518
  790MOL0     N 6566   3.025   9.989   4.234 -0.0675 -0.8692 -0.0648
  790MOL0     C 6567   3.675  10.844   3.597  0.0860 -0.3439  0.1897
  790MOL0     C 6568   3.772  10.900   3.505  0.6593 -0.5168  0.1147
  790MOL0     C 6569   4.111  10.856   3.172  0.7022 -0.1688  0.1057
  790MOL0     C 6570   4.094  10.836   3.029  0.5157  1.0829 -0.1007
  790MOL0     C 6571   4.205  10.868   2.949 -1.0809  0.0362  0.0767
  790MOL0     C 6572   4.310  10.952   2.986  0.1591  0.1408  0.3031
  790MOL0     O 6573   4.412  10.995   2.906  0.7871  0.9499  1.1053
  790MOL0     C 6574   4.442  11.131   2.893 -0.2927 -0.4132  0.3936
  790MOL0     C 6575   4.315  11.225   2.884 -0.2135  0.5484 -0.2732
  790MOL0     C 6576   4.220  11.206   2.758  0.4401 -0.0794 -0.1931
  790MOL0     C 6577   4.206  11.321   2.664 -0.6203  0.6951  1.1181
  790MOL0     C 6578   4.334  11.364   2.592  0.1318 -0.7567 -0.5214
  790MOL0     C 6579   4.437  11.418   2.561  0.4098  0.2728 -0.2357
  790MOL0     C 6580   4.311  10.981   3.121  0.1576  0.1861 -0.9153
  790MOL0     C 6581   4.219  10.940   3.215  0.8530  0.4052  0.1644
  790MOL0     C 6582   4.231  10.989   3.354  0.4969 -0.2989  0.0691
  790MOL0     H 6583   4.002  10.657   3.528 -1.4035 -0.9195 -0.6271
  790MOL0     H 6584   3.863  10.577   3.670  0.7697 -1.4722 -3.5732
  790MOL0     H 6585   3.640  10.784   3.891 -1.5941  2.7877  0.4481
  790MOL0     H 6586   3.484  10.823   3.814  1.5483  3.2727  2.9582
  790MOL0     H 6587   3.454  10.693   4.022  0.0854  0.4997  0.4872
  790MOL0     H 6588   3.586  10.586   3.962 -0.7866 -0.7978 -1.0038
  790MOL0     H 6589   3.426  10.506   3.777  0.0140  1.0148 -0.6399
  790MOL0     H 6590   3.299  10.604   3.873  1.9559  2.0126  2.3192
  790MOL0     H 6591   3.480  10.375   3.971  0.0513  0.1391  2.7419
  790MOL0     H 6592   3.369  10.464   4.060  0.6614  1.0266  0.2267
  790MOL0     H 6593   3.184  10.374   3.953  0.4886  1.1205  1.1607
  790MOL0     H 6594   3.274  10.341   3.802 -0.6632  0.6976 -0.0677
  790MOL0     H 6595   3.240  10.108   3.920 -0.4409 -0.8013  0.9225
  790MOL0     H 6596   3.401  10.152   3.948  0.6232  2.0234 -0.7245
  790MOL0     H 6597   3.173  10.215   4.147  0.9704  4.0715 -1.8958
  790MOL0     H 6598   3.345  10.220   4.167 -0.8905  0.9680 -0.8344
  790MOL0     H 6599   3.341   9.951   4.127 -0.0761 -0.6287 -0.4713
  790MOL0     H 6600   3.280  10.027   4.279 -0.6924  0.1858 -0.4857
  790MOL0     H 6601   3.186   9.760   4.068  2.1130  2.0782 -0.0376
  790MOL0     H 6602   2.986   9.591   4.170 -0.9766 -0.8576 -0.5198
  790MOL0     H 6603   2.824   9.658   4.187  0.4571 -0.0946  1.3842
  790MOL0     H 6604   2.799   9.681   3.962  1.9865  3.0903 -2.2772
  790MOL0     H 6605   2.968   9.677   3.922  0.1918  0.3618  0.2846
  790MOL0     H 6606   2.964   9.422   3.946 -0.0262 -0.7866  0.6851
  790MOL0     H 6607   2.838   9.472   3.850  1.4810 -2.4471  0.1353
  790MOL0     H 6608   2.838   9.391   4.137  0.2872 -0.7069  0.3132
  790MOL0     H 6609   2.769   9.312   3.994 -1.4034  0.6462 -1.1707
  790MOL0     H 6610   2.702   9.224   4.230  0.6733  1.4319  2.3775
  790MOL0     H 6611   2.550   9.128   4.384 -0.8496 -0.8360 -1.0641
  790MOL0     H 6612   2.243   9.255   4.764 -1.4063 -1.5257  3.2468
  790MOL0     H 6613   2.080   9.207   4.924  0.7768 -1.1303 -0.0052
  790MOL0     H 6614   1.897   9.085   5.037 -0.0153  0.5360  1.4607
  790MOL0     H 6615   1.886   9.266   5.040  0.0964  0.6352 -3.3897
  790MOL0     H 6616   1.726   9.147   5.202  0.1187 -2.0927 -0.5050
  790MOL0     H 6617   1.633   9.212   5.068 -1.2101 -2.0511 -1.4056
  790MOL0     H 6618   1.644   8.997   4.955  1.5784 -1.1375 -0.5855
  790MOL0     H 6619   1.758   8.931   5.063 -0.3584  0.9619  3.2744
  790MOL0     H 6620   1.486   9.026   5.170 -0.6079  0.8040 -0.9025
  790MOL0     H 6621   1.588   8.914   5.245 -2.6258 -1.1335  0.7013
  790MOL0     H 6622   1.543   8.760   5.037  1.9948  1.7722 -1.0107
  790MOL0     H 6623   1.430   8.902   4.996  0.4047  1.5709  1.4931
  790MOL0     H 6624   1.397   8.714   5.228  1.2119  1.8357  0.8304
  790MOL0     H 6625   1.298   8.860   5.177 -0.1876  0.3372  0.1860
  790MOL0     H 6626   1.375   8.611   5.010 -0.2209  0.3324 -0.9726
  790MOL0     H 6627   1.243   8.734   4.976 -0.5697  1.3776  2.0650
  790MOL0     H 6628   1.255   8.530   5.199  1.2122  0.1919  0.3486
  790MOL0     H 6629   1.126   8.649   5.183  2.0552 -1.5292  3.0656
  790MOL0     H 6630   1.775   9.275   4.624  0.7896  1.0281  0.0912
  790MOL0     H 6631   1.951   9.313   4.461  2.0814 -1.0872 -0.7285
  790MOL0     H 6632   2.287   9.457   4.317  0.6656  1.2964  3.5112
  790MOL0     H 6633   2.432   9.540   4.136  0.9550  2.0392  2.0502
  790MOL0     H 6634   3.590  10.898   3.638  0.4205  1.0165 -0.8545
  790MOL0     H 6635   3.752  10.999   3.464  2.8879 -0.8964 -2.0733
  790MOL0     H 6636   4.007  10.796   2.979  1.1114 -2.4172  1.3921
  790MOL0     H 6637   4.202  10.824   2.850 -0.2890  1.4518 -0.6086
  790MOL0     H 6638   4.485  11.141   2.793 -1.1324 -2.5306 -0.2414
  790MOL0     H 6639   4.510  11.159   2.973 -0.6561  3.8247 -0.5196
  790MOL0     H 6640   4.352  11.328   2.885  1.3682  0.0059  0.3966
  790MOL0     H 6641   4.258  11.205   2.975 -0.7988  2.0722 -0.2873
  790MOL0     H 6642   4.118  11.204   2.796  1.1172 -0.1025  1.7677
  790MOL0     H 6643   4.248  11.111   2.711  2.4287  0.9827 -1.2922
  790MOL0     H 6644   4.135  11.287   2.588 -1.1149  1.6249  1.1514
  790MOL0     H 6645   4.160  11.402   2.720 -1.1671  0.8112  0.5114
  790MOL0     H 6646   4.532  11.457   2.530  0.9702 -1.9363 -1.5172
  790MOL0     H 6647   4.386  11.048   3.161  0.1257 -1.4211  2.1022
  790MOL0     H 6648   4.163  11.066   3.391 -1.5620 -2.5983  1.3455
  790MOL0     H 6649   4.219  10.907   3.425  3.5073 -0.2575  0.7437
  790MOL0     H 6650   4.329  11.033   3.376  0.3837 -0.9461  2.0321
  791MOL0     O 6651   4.058   1.275   7.022  0.3244  0.5531 -0.6586
  791MOL0     C 6652   4.080   1.236   7.130 -0.2574  0.2336 -0.2180
  791MOL0     O 6653   4.173   1.286   7.214  0.0842 -0.2798 -0.2409
  791MOL0     C 6654   4.265   1.375   7.157 -0.6098 -0.0583 -0.5688
  791MOL0     C 6655   4.366   1.332   7.067  0.7632 -0.6658  0.0562
  791MOL0     C 6656   4.472   1.416   7.023  0.0647 -0.7491  0.6284
  791MOL0     C 6657   4.463   1.555   7.061 -0.6899  0.4430  0.6126
  791MOL0     O 6658   4.560   1.649   7.038 -0.0608 -0.2576 -0.2015
  791MOL0     C 6659   4.695   1.614   7.033  0.2996 -0.6157  0.4507
  791MOL0     C 6660   4.800   1.717   7.033  0.1208 -0.6014  0.0472
  791MOL0     C 6661   4.805   1.811   6.917  0.9902  0.2605 -0.5160
  791MOL0     C 6662   4.741   1.769   6.779  0.1999 -0.3130  0.5997
  791MOL0     C 6663   4.824   1.669   6.703 -0.3252 -0.2690  0.7749
  791MOL0     C 6664   4.766   1.628   6.565 -0.1882 -0.5531  0.8913
  791MOL0     C 6665   4.620   1.550   6.569 -0.4501  0.3303  0.8402
  791MOL0     C 6666   4.617   1.442   6.675 -0.1010 -0.1402  0.5256
  791MOL0     N 6667   4.494   1.365   6.649 -0.6365  0.3787 -0.6772
  791MOL0     C 6668   4.372   1.407   6.616  0.7071 -0.3642 -0.4139
  791MOL0     C 6669   4.298   1.299   6.593 -0.7388  0.2661 -0.6410
  791MOL0     C 6670   4.157   1.303   6.542 -0.3475 -0.5529  0.1320
  791MOL0     C 6671   4.061   1.268   6.661 -0.3037  0.3312  0.8785
  791MOL0     C 6672   3.938   1.198   6.599 -0.3104 -0.1520 -0.8364
  791MOL0     C 6673   3.848   1.154   6.705 -1.1078  0.5154  0.6852
  791MOL0     O 6674   3.720   1.111   6.654 -0.2932 -0.5793  0.5118
  791MOL0     C 6675   3.630   1.070   6.740  1.0508 -0.3361 -0.6284
  791MOL0     C 6676   3.510   1.014   6.692  0.3975 -0.3622  0.6514
  791MOL0     C 6677   3.412   0.970   6.783  0.6111  1.1726  0.2637
  791MOL0     C 6678   3.430   0.978   6.917 -0.6908  0.1192 -1.3715
  791MOL0     C 6679   3.313   0.943   7.003  0.1307  0.2912  0.7262
  791MOL0     O 6680   3.214   0.858   6.950  0.9053 -0.4588  0.8187
  791MOL0     C 6681   3.115   0.826   7.039  0.4818 -0.7489 -0.1305
  791MOL0     C 6682   3.022   0.911   7.095  0.3983  0.0212 -0.8855
  791MOL0     C 6683   2.938   0.868   7.201  1.0272 -0.1915 -0.2537
  791MOL0     C 6684   2.950   0.744   7.258 -0.0555  0.6538  0.0027
  791MOL0     O 6685   2.877   0.714   7.367  0.6371  0.2604 -0.6349
  791MOL0     C 6686   2.912   0.630   7.481 -0.0362 -0.2842 -0.1296
  791MOL0     C 6687   2.799   0.640   7.584 -0.1238 -1.1070  0.7607
  791MOL0     C 6688   2.839   0.757   7.683 -0.1108  0.6153  0.2891
  791MOL0     C 6689   2.708   0.801   7.751  0.0239  0.1519 -0.2032
  791MOL0     C 6690   2.726   0.879   7.876 -0.1035  0.6211 -0.8094
  791MOL0     C 6691   2.782   0.802   8.006  0.3155 -0.8547 -0.3106
  791MOL0     C 6692   2.681   0.824   8.122 -0.1461 -0.0689 -0.1351
  791MOL0     C 6693   2.686   0.964   8.181 -0.4494  0.3097  0.2572
  791MOL0    Cl 6694   2.601   0.978   8.336  0.2893 -0.6387  0.1457
  791MOL0     C 6695   3.043   0.656   7.206  0.3121  0.2780  0.0680
  791MOL0     C 6696   3.114   0.691   7.087  0.9976  0.6370 -0.7257
  791MOL0     O 6697   3.298   1.007   7.105 -0.0706 -0.2348 -0.1832
  791MOL0     C 6698   3.547   1.033   6.971 -0.1072 -0.0159  0.6840
  791MOL0     C 6699   3.646   1.078   6.880  1.2010 -0.5463 -0.0153
  791MOL0     N 6700   4.381   1.191   6.606 -0.0704 -0.7714  0.2206
  791MOL0     N 6701   4.492   1.226   6.655 -0.5351 -0.9838  0.0852
  791MOL0     C 6702   4.350   1.600   7.138 -1.0674 -0.0741  0.9956
  791MOL0     C 6703   4.262   1.507   7.188  0.5315 -0.9388 -0.5631
  791MOL0     C 6704   3.976   1.158   7.199 -0.3512  0.4327  0.5905
  791MOL0     C 6705   3.905   1.224   7.293  0.4877 -0.4713  0.0938
  791MOL0     C 6706   3.781   1.169   7.338 -0.1925 -0.1548  0.1489
  791MOL0     C 6707   3.735   1.044   7.296 -1.0760 -0.2201 -0.0386
  791MOL0     O 6708   3.612   0.986   7.329 -0.5824 -0.4382  0.6800
  791MOL0     C 6709   3.568   0.969   7.471  0.0480 -0.7618  0.2707
  791MOL0     C 6710   3.669   0.881   7.551 -0.3877  0.4264  0.5767
  791MOL0     C 6711   3.704   0.749   7.495  0.1249  0.1574  1.0007
  791MOL0     C 6712   3.670   0.621   7.571  0.8695 -0.0713  0.6675
  791MOL0     C 6713   3.528   0.595   7.566  0.7585 -0.0881  0.4718
  791MOL0     C 6714   3.406   0.586   7.571  0.1764 -0.4290 -0.0320
  791MOL0     C 6715   3.824   0.977   7.202 -0.1700  0.5340 -0.0331
  791MOL0     C 6716   3.950   1.028   7.165  0.0379 -0.2225 -0.0743
  791MOL0     C 6717   4.031   0.949   7.066 -0.6259 -0.4085  0.6633
  791MOL0     H 6718   4.368   1.224   7.052  1.1703 -1.3193  3.7889
  791MOL0     H 6719   4.550   1.360   6.973  0.7786  0.4310  0.3612
  791MOL0     H 6720   4.710   1.558   7.126  1.9001 -1.2794 -0.1758
  791MOL0     H 6721   4.719   1.544   6.953  0.1822  1.0967 -1.1544
  791MOL0     H 6722   4.903   1.685   7.048  0.9196  2.5657  2.3496
  791MOL0     H 6723   4.779   1.775   7.123 -3.6796  0.7622 -1.5071
  791MOL0     H 6724   4.908   1.843   6.905  2.2894 -3.1323  0.3768
  791MOL0     H 6725   4.744   1.901   6.931  1.0250  0.6173 -2.4590
  791MOL0     H 6726   4.639   1.732   6.797 -0.5524  1.0959 -0.6323
  791MOL0     H 6727   4.734   1.859   6.718 -1.0913 -0.5182  0.4124
  791MOL0     H 6728   4.930   1.695   6.690 -0.1580 -1.4089 -0.4179
  791MOL0     H 6729   4.838   1.580   6.764  0.9292 -1.3090 -0.9078
  791MOL0     H 6730   4.772   1.718   6.503  1.1871 -1.0004  0.3280
  791MOL0     H 6731   4.839   1.553   6.534  3.1369  2.6171  0.2985
  791MOL0     H 6732   4.597   1.506   6.471  1.1888  2.5209 -0.6370
  791MOL0     H 6733   4.546   1.626   6.597 -0.7247  0.0848  0.7814
  791MOL0     H 6734   4.703   1.376   6.659  0.7009 -0.1319  4.0522
  791MOL0     H 6735   4.620   1.488   6.774  0.7449  0.6734  0.1333
  791MOL0     H 6736   4.328   1.506   6.624 -2.4471 -1.7853  1.5480
  791MOL0     H 6737   4.137   1.404   6.504  2.4419  0.7334  1.7333
  791MOL0     H 6738   4.153   1.218   6.473  0.1517 -0.1842 -0.3707
  791MOL0     H 6739   4.106   1.187   6.720 -1.5293 -1.9992 -1.2058
  791MOL0     H 6740   4.037   1.361   6.713 -2.0870  0.1632  0.4116
  791MOL0     H 6741   3.963   1.110   6.539  2.0929  0.5430 -0.9561
  791MOL0     H 6742   3.881   1.270   6.540  2.2890  1.3170 -1.7194
  791MOL0     H 6743   3.820   1.239   6.768  0.3731  1.1458  0.5407
  791MOL0     H 6744   3.897   1.077   6.765 -0.5160  0.4993  0.1867
  791MOL0     H 6745   3.501   0.989   6.587 -0.0052 -2.6060  1.1652
  791MOL0     H 6746   3.326   0.913   6.750  0.6795 -2.4250  5.1532
  791MOL0     H 6747   3.022   1.017   7.070 -1.3544  0.6455  1.4459
  791MOL0     H 6748   2.869   0.942   7.242  1.3483  0.5002 -0.9257
  791MOL0     H 6749   2.915   0.528   7.442  0.5117 -1.4328  2.7206
  791MOL0     H 6750   3.013   0.655   7.514 -0.3275  3.3840 -1.5170
  791MOL0     H 6751   2.711   0.663   7.524  1.5694  2.5543 -0.6554
  791MOL0     H 6752   2.794   0.543   7.635  1.0918 -0.5663  1.9596
  791MOL0     H 6753   2.922   0.726   7.747 -0.9012  2.1815  2.1536
  791MOL0     H 6754   2.879   0.840   7.624 -2.4674  2.7682  1.5239
  791MOL0     H 6755   2.642   0.718   7.774 -1.3796  1.2565 -0.1020
  791MOL0     H 6756   2.667   0.869   7.675  0.7353 -0.4898 -1.1806
  791MOL0     H 6757   2.629   0.923   7.901 -0.3382 -1.3363  2.3536
  791MOL0     H 6758   2.791   0.962   7.850 -1.0125  1.6750  0.1786
  791MOL0     H 6759   2.806   0.696   7.997 -1.7366 -1.2483 -2.0297
  791MOL0     H 6760   2.878   0.844   8.035 -0.2730  0.5469 -0.3094
  791MOL0     H 6761   2.696   0.746   8.198  0.3375  1.6526  1.6207
  791MOL0     H 6762   2.582   0.813   8.079  0.0855 -0.2189 -0.6303
  791MOL0     H 6763   2.794   0.979   8.194  0.5444 -4.1141 -1.0802
  791MOL0     H 6764   2.647   1.032   8.105  0.7203  1.8848  1.0065
  791MOL0     H 6765   3.041   0.554   7.241 -1.5435 -0.5786 -2.2361
  791MOL0     H 6766   3.178   0.610   7.055  0.4557 -1.3592  2.7489
  791MOL0     H 6767   3.564   1.035   7.078  0.9849 -1.2114  0.5582
  791MOL0     H 6768   3.736   1.103   6.935  3.1029 -1.2054 -2.6663
  791MOL0     H 6769   4.339   1.704   7.166  0.9997  1.0342 -1.7320
  791MOL0     H 6770   4.179   1.551   7.242  0.4829 -1.5036 -0.1626
  791MOL0     H 6771   3.917   1.328   7.324 -0.3590  0.0865 -1.3781
  791MOL0     H 6772   3.721   1.223   7.411 -1.2750  0.8239 -1.4072
  791MOL0     H 6773   3.473   0.915   7.465  0.3110 -1.0537 -2.4524
  791MOL0     H 6774   3.544   1.066   7.516 -2.1454 -2.2816  2.7193
  791MOL0     H 6775   3.613   0.864   7.643 -2.7626  3.9065  0.0095
  791MOL0     H 6776   3.759   0.942   7.563  0.3302 -0.4579 -0.2048
  791MOL0     H 6777   3.812   0.748   7.477 -0.0137  2.8019 -0.4282
  791MOL0     H 6778   3.663   0.731   7.395 -0.5084  0.5360  1.1852
  791MOL0     H 6779   3.722   0.536   7.525  0.7241  0.4713 -0.5402
  791MOL0     H 6780   3.689   0.641   7.677  1.5542  0.1860  0.5044
  791MOL0     H 6781   3.299   0.580   7.580  0.0960 -0.3397 -0.8659
  791MOL0     H 6782   3.799   0.877   7.168 -1.8841  1.2537 -1.0294
  791MOL0     H 6783   4.042   0.842   7.080  2.4425  0.0477  2.6610
  791MOL0     H 6784   3.987   0.968   6.967  1.8038  0.8641 -0.2727
  791MOL0     H 6785   4.135   0.981   7.074  0.6242 -2.9671 -2.6429
  792MOL0     O 6786   2.132   5.153   6.878 -0.0501  0.4397 -0.7910
  792MOL0     C 6787   2.099   5.204   6.763  0.3478 -0.6119 -0.3186
  792MOL0     O 6788   1.999   5.289   6.746  0.5146  0.0504  1.1150
  792MOL0     C 6789   1.909   5.303   6.844  0.0688 -0.2406 -0.6197
  792MOL0     C 6790   1.836   5.192   6.879  0.9086 -1.2331 -0.1627
  792MOL0     C 6791   1.726   5.208   6.966  0.4824 -0.7434 -0.8965
  792MOL0     C 6792   1.704   5.329   7.043  0.2330  0.2605 -0.4245
  792MOL0     O 6793   1.606   5.351   7.138  0.6299  0.0736  0.3768
  792MOL0     C 6794   1.530   5.240   7.185  0.1540  0.4157 -0.5782
  792MOL0     C 6795   1.432   5.278   7.299  0.0146  0.5107  0.3544
  792MOL0     C 6796   1.388   5.165   7.380 -0.1089  0.7912  0.0280
  792MOL0     C 6797   1.512   5.100   7.454 -0.2203 -0.3104  0.1161
  792MOL0     C 6798   1.450   5.002   7.562  0.1569 -0.0315 -0.7352
  792MOL0     C 6799   1.416   4.859   7.496  0.4347 -0.2720 -0.2819
  792MOL0     C 6800   1.543   4.765   7.490 -0.3707 -0.0013  0.0773
  792MOL0     C 6801   1.531   4.673   7.359 -0.9376 -0.4120 -0.0168
  792MOL0     N 6802   1.412   4.600   7.356 -0.2040 -0.9387 -0.0390
  792MOL0     C 6803   1.354   4.510   7.439 -0.1398 -0.5013 -0.2570
  792MOL0     C 6804   1.238   4.467   7.383 -0.3281  0.4142  0.9235
  792MOL0     C 6805   1.151   4.353   7.422 -0.5227 -0.6816  0.3147
  792MOL0     C 6806   1.231   4.248   7.504  0.4073 -0.0869  0.1460
  792MOL0     C 6807   1.146   4.130   7.542 -0.0330  0.5533  0.8711
  792MOL0     C 6808   1.227   4.055   7.638  0.2268  0.7158  0.1164
  792MOL0     O 6809   1.141   3.966   7.707 -0.3195 -0.1135  0.3406
  792MOL0     C 6810   1.210   3.874   7.782  0.2048 -0.4043 -0.9192
  792MOL0     C 6811   1.229   3.754   7.730  0.3401  0.1292 -0.0169
  792MOL0     C 6812   1.310   3.658   7.785  0.5921  0.3663  0.0056
  792MOL0     C 6813   1.358   3.678   7.918 -0.5363  0.4025 -0.0531
  792MOL0     C 6814   1.409   3.566   8.001 -0.4190 -0.4407 -0.8245
  792MOL0     O 6815   1.475   3.463   7.926  0.6341 -0.3761  0.2521
  792MOL0     C 6816   1.496   3.343   7.996  0.9224  0.5004  0.1328
  792MOL0     C 6817   1.396   3.242   8.001  0.1801 -0.9129 -0.7452
  792MOL0     C 6818   1.435   3.117   8.046  0.3641  0.2821  0.3944
  792MOL0     C 6819   1.560   3.079   8.087 -1.1806 -0.0191 -0.2480
  792MOL0     O 6820   1.588   2.947   8.111  0.0545  0.2706 -0.0163
  792MOL0     C 6821   1.575   2.918   8.254 -0.2553  0.2418 -0.0200
  792MOL0     C 6822   1.635   2.776   8.280  0.1927  0.4129 -0.3676
  792MOL0     C 6823   1.618   2.717   8.418 -0.1725 -0.4179  0.7720
  792MOL0     C 6824   1.677   2.580   8.399  0.5388  0.5206 -0.2448
  792MOL0     C 6825   1.658   2.517   8.535  0.2253 -0.2739 -0.9698
  792MOL0     C 6826   1.623   2.365   8.524 -0.7887  0.2057  0.8456
  792MOL0     C 6827   1.735   2.281   8.458  0.9443  0.1843  0.7439
  792MOL0     C 6828   1.679   2.129   8.459 -0.9332 -0.3718 -0.0540
  792MOL0    Cl 6829   1.528   2.116   8.364 -0.4337  0.3976  0.3891
  792MOL0     C 6830   1.656   3.183   8.084  0.0573 -0.3613 -0.2598
  792MOL0     C 6831   1.621   3.303   8.032  0.2693 -0.2927 -0.2618
  792MOL0     O 6832   1.397   3.566   8.124  0.0684  0.1115  1.0563
  792MOL0     C 6833   1.329   3.801   7.974 -0.0508 -0.0397 -0.2435
  792MOL0     C 6834   1.264   3.904   7.898  0.3409  0.0978 -0.6932
  792MOL0     N 6835   1.226   4.526   7.261 -0.2730  0.5064  0.1689
  792MOL0     N 6836   1.323   4.616   7.252 -0.3576 -0.9589 -0.3139
  792MOL0     C 6837   1.787   5.440   7.013 -0.1738  0.4338  1.3047
  792MOL0     C 6838   1.888   5.421   6.916 -0.3299  0.3436  0.2927
  792MOL0     C 6839   2.211   5.212   6.671  0.0697  0.0639 -0.8844
  792MOL0     C 6840   2.222   5.323   6.581  0.6660 -0.5793 -0.2201
  792MOL0     C 6841   2.326   5.335   6.485 -0.3570 -0.5754 -0.4144
  792MOL0     C 6842   2.433   5.245   6.475  1.0663 -1.0572 -0.0258
  792MOL0     O 6843   2.541   5.273   6.391  0.1991 -0.4825 -0.5461
  792MOL0     C 6844   2.667   5.244   6.450 -0.0193  0.1285  0.0152
  792MOL0     C 6845   2.762   5.234   6.319  0.5811 -0.0744 -0.1788
  792MOL0     C 6846   2.910   5.222   6.371  0.0021  0.7028  0.9944
  792MOL0     C 6847   2.991   5.342   6.411  0.7190  0.5037 -0.2282
  792MOL0     C 6848   2.910   5.442   6.489 -0.3921 -0.6218  0.6282
  792MOL0     C 6849   2.851   5.526   6.550 -0.7172  0.5026 -0.7676
  792MOL0     C 6850   2.415   5.129   6.551 -0.2977 -0.9297 -0.4308
  792MOL0     C 6851   2.310   5.112   6.647 -0.5768 -0.0777 -0.3972
  792MOL0     C 6852   2.315   4.994   6.736  0.9848  0.1765  0.3529
  792MOL0     H 6853   1.853   5.102   6.820  4.4930 -0.7669 -0.0759
  792MOL0     H 6854   1.677   5.114   6.990 -0.3936 -0.5929 -2.0137
  792MOL0     H 6855   1.472   5.201   7.101 -0.6200  0.9962 -0.3340
  792MOL0     H 6856   1.598   5.166   7.228  1.3859  3.4182  3.2444
  792MOL0     H 6857   1.341   5.312   7.249 -0.0519  0.8202  0.6863
  792MOL0     H 6858   1.470   5.357   7.364 -4.1475  0.8533  2.7448
  792MOL0     H 6859   1.326   5.104   7.313  1.0452  4.1174 -4.5544
  792MOL0     H 6860   1.316   5.191   7.458  1.6399  1.1663  1.5940
  792MOL0     H 6861   1.580   5.053   7.383  2.2933  4.6751 -1.2254
  792MOL0     H 6862   1.583   5.168   7.502  0.9207 -1.9355  0.8625
  792MOL0     H 6863   1.511   4.984   7.650 -1.6439 -3.3706  0.0094
  792MOL0     H 6864   1.358   5.039   7.609 -0.9256 -1.1641 -1.8905
  792MOL0     H 6865   1.358   4.824   7.582  0.0093  1.0216 -0.0274
  792MOL0     H 6866   1.366   4.853   7.399 -0.0426 -1.9770  0.0407
  792MOL0     H 6867   1.547   4.708   7.583 -3.1224 -1.4274 -0.5733
  792MOL0     H 6868   1.630   4.832   7.487  1.0331 -1.6067  2.3526
  792MOL0     H 6869   1.547   4.740   7.274  0.2265 -2.8076 -1.8148
  792MOL0     H 6870   1.618   4.607   7.354 -0.1678  0.6338 -1.2030
  792MOL0     H 6871   1.403   4.472   7.528 -2.7562 -3.9949 -0.0863
  792MOL0     H 6872   1.069   4.389   7.486  0.4724 -2.4117  2.7069
  792MOL0     H 6873   1.109   4.309   7.331  0.3996  1.1625 -1.0803
  792MOL0     H 6874   1.313   4.211   7.441  0.7958  2.6586 -1.1109
  792MOL0     H 6875   1.268   4.305   7.591  0.5333  2.2464 -1.3499
  792MOL0     H 6876   1.125   4.066   7.456  1.7228  1.8430 -0.6079
  792MOL0     H 6877   1.055   4.174   7.583 -0.3640 -0.9505  1.8141
  792MOL0     H 6878   1.260   4.117   7.723  0.9053  0.4298  0.0649
  792MOL0     H 6879   1.317   4.020   7.587  2.2561  3.4053  1.5520
  792MOL0     H 6880   1.191   3.741   7.629 -0.7348 -2.6127  0.6243
  792MOL0     H 6881   1.326   3.565   7.730  0.9437  0.5505 -0.2086
  792MOL0     H 6882   1.293   3.270   7.977 -0.5703 -0.5165  2.4545
  792MOL0     H 6883   1.358   3.044   8.027 -0.1281  1.4706 -2.7971
  792MOL0     H 6884   1.641   2.986   8.310  0.5436 -1.2604  0.9149
  792MOL0     H 6885   1.474   2.912   8.294 -0.3665 -2.6862 -0.5199
  792MOL0     H 6886   1.585   2.702   8.217 -1.0856 -1.0565  2.1756
  792MOL0     H 6887   1.742   2.778   8.259  0.6093 -0.0030  1.5228
  792MOL0     H 6888   1.677   2.779   8.485 -0.9529 -0.3097  1.3756
  792MOL0     H 6889   1.515   2.738   8.448  0.6717  2.6391  1.9085
  792MOL0     H 6890   1.784   2.588   8.377  0.0630  0.0726 -2.9726
  792MOL0     H 6891   1.629   2.524   8.319 -0.8220 -2.6096  2.4963
  792MOL0     H 6892   1.583   2.567   8.597  1.0429  1.1266 -1.0596
  792MOL0     H 6893   1.752   2.535   8.588 -3.4865  4.1664  5.5284
  792MOL0     H 6894   1.615   2.326   8.626 -0.0896 -0.3625  0.6927
  792MOL0     H 6895   1.525   2.356   8.476 -0.0391 -2.6483 -0.3869
  792MOL0     H 6896   1.824   2.271   8.521  0.8280  1.4485  1.1463
  792MOL0     H 6897   1.758   2.315   8.357  0.8062  1.7910  1.2229
  792MOL0     H 6898   1.756   2.061   8.421 -3.0325 -1.2863 -3.0151
  792MOL0     H 6899   1.670   2.111   8.567  3.5986 -3.4313  0.0870
  792MOL0     H 6900   1.761   3.162   8.102  1.0817  2.4110 -2.3505
  792MOL0     H 6901   1.688   3.387   8.020 -1.5859  1.3941  0.5584
  792MOL0     H 6902   1.362   3.815   8.077 -0.4905  0.5964 -0.1797
  792MOL0     H 6903   1.243   4.003   7.938 -1.8780  0.3347 -2.2441
  792MOL0     H 6904   1.765   5.540   7.048  0.2111  0.6146  1.0344
  792MOL0     H 6905   1.957   5.502   6.894  0.6475 -1.4500 -4.4381
  792MOL0     H 6906   2.145   5.399   6.572  1.0142 -0.4895 -4.2083
  792MOL0     H 6907   2.327   5.427   6.428  2.8647  0.0701  0.4559
  792MOL0     H 6908   2.666   5.154   6.512 -1.9100  1.8694  2.7767
  792MOL0     H 6909   2.695   5.322   6.522 -1.3729 -1.6388  2.6148
  792MOL0     H 6910   2.736   5.325   6.263  1.4976  1.8384  2.2901
  792MOL0     H 6911   2.733   5.154   6.250  3.2301 -1.0149 -0.3054
  792MOL0     H 6912   2.974   5.167   6.302  1.0044 -0.1353  2.5352
  792MOL0     H 6913   2.910   5.167   6.466 -1.0867  0.8489  1.0977
  792MOL0     H 6914   3.076   5.319   6.476 -0.2355  0.2413  0.9686
  792MOL0     H 6915   3.027   5.394   6.321 -0.2307  0.2365 -0.7747
  792MOL0     H 6916   2.814   5.616   6.596 -1.5377  0.0682 -0.5505
  792MOL0     H 6917   2.496   5.057   6.551  0.5814  0.0264 -0.3165
  792MOL0     H 6918   2.222   4.953   6.775  0.1227  2.1871  0.4998
  792MOL0     H 6919   2.366   4.912   6.683  1.2035  0.0686  0.7234
  792MOL0     H 6920   2.374   5.029   6.821 -0.7415  5.2173 -0.2029
  793MOL0     O 6921   9.871   3.235   5.012  0.4407  0.4662  0.0805
  793MOL0     C 6922   9.913   3.123   4.977  0.4845  0.2877  0.1119
  793MOL0     O 6923  10.004   3.039   5.049  0.9642 -0.4022  0.1873
  793MOL0     C 6924  10.097   3.094   5.132  1.1123 -0.1630 -0.2457
  793MOL0     C 6925  10.112   3.227   5.182 -0.0933  1.2404 -0.3123
  793MOL0     C 6926  10.217   3.263   5.266  0.7964  0.1224 -0.8625
  793MOL0     C 6927  10.307   3.168   5.308  0.0765 -0.3482 -0.0128
  793MOL0     O 6928  10.409   3.207   5.390 -0.0947 -0.3254  0.8023
  793MOL0     C 6929  10.531   3.257   5.311  0.3121 -0.8510 -0.0025
  793MOL0     C 6930  10.606   3.344   5.416 -0.8176 -0.2126 -0.7469
  793MOL0     C 6931  10.642   3.288   5.560  0.0800 -0.4822 -0.4203
  793MOL0     C 6932  10.723   3.163   5.558  0.4063 -0.1344  0.1711
  793MOL0     C 6933  10.864   3.185   5.485 -0.2885  0.7890 -0.3940
  793MOL0     C 6934  10.934   3.052   5.456 -0.6220 -0.4432  0.5341
  793MOL0     C 6935  11.026   3.071   5.317  0.0239 -0.3744 -0.2480
  793MOL0     C 6936  11.114   2.959   5.289  0.7497 -0.2125 -1.0178
  793MOL0     N 6937  11.137   2.954   5.141 -0.3485 -0.3056  0.2733
  793MOL0     C 6938  11.074   2.889   5.035 -1.1130 -0.3686  0.1234
  793MOL0     C 6939  11.127   2.943   4.921 -0.4326  0.0871 -0.4731
  793MOL0     C 6940  11.080   2.938   4.789 -0.7278  0.7606  0.2998
  793MOL0     C 6941  11.129   2.818   4.703 -0.4267 -0.0639 -1.1802
  793MOL0     C 6942  11.270   2.842   4.641 -0.1540 -0.3190 -1.0898
  793MOL0     C 6943  11.319   2.718   4.562  0.0939  0.2371  1.0787
  793MOL0     O 6944  11.234   2.693   4.447  0.0785 -0.0837 -0.4204
  793MOL0     C 6945  11.308   2.706   4.334 -0.1994  1.0457  0.0241
  793MOL0     C 6946  11.340   2.591   4.265 -0.8393 -0.6042  0.9645
  793MOL0     C 6947  11.433   2.606   4.153  0.4936 -0.1616  0.2192
  793MOL0     C 6948  11.484   2.730   4.111 -0.3207 -0.7595  1.0053
  793MOL0     C 6949  11.592   2.748   4.003 -0.6357 -0.7117 -0.1678
  793MOL0     O 6950  11.671   2.634   3.977  0.5197 -0.1222  0.3555
  793MOL0     C 6951  11.760   2.657   3.882 -0.7778  0.2117  0.9691
  793MOL0     C 6952  11.747   2.626   3.741 -0.2279 -0.4072 -0.2103
  793MOL0     C 6953  11.861   2.651   3.656  0.3583  0.2380 -0.1813
  793MOL0     C 6954  11.981   2.694   3.707  0.0170  0.1643 -0.6177
  793MOL0     O 6955  12.092   2.730   3.633 -0.4950  0.3222  0.2039
  793MOL0     C 6956  12.073   2.770   3.496 -0.0398 -0.0805  0.6600
  793MOL0     C 6957  12.080   2.639   3.411 -0.2691 -0.0095  0.2561
  793MOL0     C 6958  12.216   2.609   3.356 -1.0629 -0.3844 -0.2620
  793MOL0     C 6959  12.236   2.471   3.305 -0.2915  0.5831  0.3631
  793MOL0     C 6960  12.389   2.425   3.314 -0.0312 -0.6780 -0.6344
  793MOL0     C 6961  12.473   2.508   3.221  0.3064  0.3745  0.0714
  793MOL0     C 6962  12.611   2.441   3.203 -0.6404 -0.1610 -0.1146
  793MOL0     C 6963  12.705   2.527   3.119  0.5409  0.1568 -0.3582
  793MOL0    Cl 6964  12.769   2.653   3.238  0.2483 -0.4944 -0.2194
  793MOL0     C 6965  11.988   2.726   3.841  0.5100  1.2275  0.3902
  793MOL0     C 6966  11.882   2.706   3.925  0.0733  0.4822  0.0780
  793MOL0     O 6967  11.611   2.860   3.956 -0.0762  0.6298  0.2453
  793MOL0     C 6968  11.448   2.841   4.181  0.0815  0.0663  1.3801
  793MOL0     C 6969  11.361   2.824   4.285  0.6023 -0.3554 -1.4785
  793MOL0     N 6970  11.224   3.039   4.961 -0.6023  0.1960 -0.3774
  793MOL0     N 6971  11.223   3.046   5.091 -0.3032  0.6728 -0.1693
  793MOL0     C 6972  10.287   3.038   5.263  0.1483  0.0877 -0.0167
  793MOL0     C 6973  10.191   2.998   5.175  0.5594 -0.7112 -0.6402
  793MOL0     C 6974   9.823   3.057   4.879 -0.3503  0.2734 -0.1130
  793MOL0     C 6975   9.791   2.926   4.906  0.5841 -0.3637  0.3425
  793MOL0     C 6976   9.708   2.857   4.813  0.4129  0.0372 -0.3851
  793MOL0     C 6977   9.664   2.919   4.702 -0.7879 -0.6832  0.1965
  793MOL0     O 6978   9.598   2.847   4.613  0.9428 -0.3596 -0.6683
  793MOL0     C 6979   9.656   2.833   4.483  0.4600 -0.6572 -0.1086
  793MOL0     C 6980   9.742   2.702   4.478  0.0098 -0.6490 -0.3904
  793MOL0     C 6981   9.662   2.573   4.480 -0.0978 -0.1854  1.0159
  793MOL0     C 6982   9.732   2.456   4.546  1.6901 -0.5052 -0.4386
  793MOL0     C 6983   9.664   2.331   4.540 -0.3799 -0.1652 -0.2205
  793MOL0     C 6984   9.613   2.225   4.537  0.2393  0.3563  0.5144
  793MOL0     C 6985   9.682   3.057   4.681 -0.1656  1.6310  0.2615
  793MOL0     C 6986   9.756   3.126   4.770 -0.6822  0.3689  0.0249
  793MOL0     C 6987   9.764   3.274   4.740 -0.2905 -0.3351  0.2811
  793MOL0     H 6988  10.030   3.299   5.174 -0.3143  0.7366 -4.2337
  793MOL0     H 6989  10.224   3.368   5.294 -2.6315 -0.1375  1.7042
  793MOL0     H 6990  10.589   3.180   5.259  0.2415  0.4097 -2.0837
  793MOL0     H 6991  10.509   3.327   5.230  1.3859 -1.7234 -1.0826
  793MOL0     H 6992  10.523   3.415   5.423 -0.9354 -0.0919 -2.8263
  793MOL0     H 6993  10.698   3.382   5.370 -0.8474  3.9149  2.0696
  793MOL0     H 6994  10.546   3.280   5.613 -1.7563  1.7043 -3.1007
  793MOL0     H 6995  10.698   3.359   5.621 -2.9921  0.7027  1.2326
  793MOL0     H 6996  10.727   3.124   5.660 -1.8026  2.2169  1.2742
  793MOL0     H 6997  10.673   3.093   5.491 -0.3142  0.3443  0.2045
  793MOL0     H 6998  10.857   3.240   5.391  1.3986  1.7636  0.0175
  793MOL0     H 6999  10.929   3.242   5.553 -0.0850 -0.7178  0.7407
  793MOL0     H 7000  10.996   3.016   5.538  0.9130  0.9284  0.0261
  793MOL0     H 7001  10.863   2.974   5.427 -0.7658 -0.6077  1.3281
  793MOL0     H 7002  11.083   3.164   5.325 -0.4111  0.1759 -2.7713
  793MOL0     H 7003  10.958   3.095   5.235  1.4476 -0.9264 -1.6414
  793MOL0     H 7004  11.212   2.961   5.338  1.3104  0.9109 -2.1269
  793MOL0     H 7005  11.074   2.861   5.317  3.2224 -1.8442 -2.7496
  793MOL0     H 7006  10.997   2.813   5.046 -1.5516  0.1914  0.9996
  793MOL0     H 7007  10.971   2.941   4.790 -0.7454  0.2927 -0.0976
  793MOL0     H 7008  11.116   3.028   4.739  1.9079  2.3358  4.4297
  793MOL0     H 7009  11.115   2.725   4.760 -0.0350  0.2257 -0.6009
  793MOL0     H 7010  11.064   2.813   4.616  0.4726 -0.8741 -1.8260
  793MOL0     H 7011  11.331   2.849   4.731  0.6266 -1.1311 -1.5411
  793MOL0     H 7012  11.261   2.939   4.592 -4.0957 -0.4140 -0.8466
  793MOL0     H 7013  11.328   2.623   4.616  0.0370 -0.1603  0.3901
  793MOL0     H 7014  11.419   2.749   4.530  0.4576 -0.8842  1.0951
  793MOL0     H 7015  11.303   2.492   4.291  0.2457 -2.1352 -2.7082
  793MOL0     H 7016  11.474   2.518   4.105  0.1185 -0.4280  0.3794
  793MOL0     H 7017  11.659   2.597   3.686 -1.0086 -1.8152  1.6880
  793MOL0     H 7018  11.846   2.631   3.550  0.1915  0.1335 -0.1392
  793MOL0     H 7019  11.969   2.789   3.468  0.0293 -3.5037 -2.7557
  793MOL0     H 7020  12.134   2.850   3.453 -2.3937  0.8928 -1.0681
  793MOL0     H 7021  12.046   2.556   3.474  0.2700  1.3837  2.5261
  793MOL0     H 7022  12.020   2.649   3.320  2.5531  1.0539 -1.6268
  793MOL0     H 7023  12.232   2.667   3.264 -2.1726 -0.3787 -0.4611
  793MOL0     H 7024  12.289   2.623   3.436  0.1283 -0.2330 -1.3275
  793MOL0     H 7025  12.221   2.471   3.197 -0.4376 -1.3388  0.3423
  793MOL0     H 7026  12.165   2.396   3.341  1.6267 -1.9102 -0.7102
  793MOL0     H 7027  12.401   2.318   3.295  3.4917 -0.2359 -1.4600
  793MOL0     H 7028  12.423   2.448   3.415  3.3845  5.1408 -2.5699
  793MOL0     H 7029  12.433   2.537   3.124  0.6311 -4.4362 -1.8109
  793MOL0     H 7030  12.489   2.600   3.278  1.5331  0.2263 -0.0166
  793MOL0     H 7031  12.605   2.339   3.163  3.4769  0.0614 -1.7489
  793MOL0     H 7032  12.657   2.422   3.300  4.5597 -0.4618 -2.3006
  793MOL0     H 7033  12.788   2.463   3.087 -1.3183 -1.9495 -1.2249
  793MOL0     H 7034  12.663   2.565   3.025  0.6756 -1.9363 -1.3142
  793MOL0     H 7035  12.081   2.770   3.877  2.1683 -0.5830 -1.4193
  793MOL0     H 7036  11.902   2.698   4.032 -2.6027 -1.1301  0.5504
  793MOL0     H 7037  11.499   2.934   4.154  0.4205 -0.5175 -0.0682
  793MOL0     H 7038  11.335   2.912   4.344 -0.8687 -1.4352 -0.4195
  793MOL0     H 7039  10.355   2.957   5.288 -2.0231 -1.6182  0.6479
  793MOL0     H 7040  10.183   2.898   5.136  0.8656 -0.8665 -0.3107
  793MOL0     H 7041   9.824   2.865   4.989  1.6102  0.5042  0.5934
  793MOL0     H 7042   9.686   2.751   4.818 -2.9429  0.5454 -1.6516
  793MOL0     H 7043   9.719   2.918   4.456  1.2726 -1.4593 -0.7800
  793MOL0     H 7044   9.576   2.835   4.409  1.2028 -0.3941 -0.9130
  793MOL0     H 7045   9.813   2.697   4.562  4.1450  2.0862 -3.3119
  793MOL0     H 7046   9.799   2.708   4.385  2.2297  0.3427  0.9408
  793MOL0     H 7047   9.643   2.546   4.376  0.6643 -0.6269  0.9850
  793MOL0     H 7048   9.567   2.588   4.532 -1.1397 -0.1923 -0.7979
  793MOL0     H 7049   9.832   2.452   4.501  1.5386  1.5985 -1.0667
  793MOL0     H 7050   9.749   2.487   4.650  2.6166  0.2849 -0.7986
  793MOL0     H 7051   9.569   2.128   4.536 -1.2098  0.9522  1.8259
  793MOL0     H 7052   9.638   3.102   4.593 -1.9936 -0.6382 -0.0720
  793MOL0     H 7053   9.767   3.345   4.822 -0.3546  0.6941 -0.5909
  793MOL0     H 7054   9.857   3.291   4.685 -0.9266  1.0110 -0.4211
  793MOL0     H 7055   9.682   3.297   4.672 -0.0617  1.3415  0.5415
  794MOL0     O 7056   4.296  10.638   8.038 -0.5048  0.8113 -0.6893
  794MOL0     C 7057   4.298  10.663   8.154 -0.5084 -0.2831  0.1956
  794MOL0     O 7058   4.244  10.584   8.249  0.2316 -0.1343 -0.3745
  794MOL0     C 7059   4.132  10.508   8.235  0.5166 -0.1129  0.1544
  794MOL0     C 7060   4.041  10.498   8.128 -0.7327  0.3658  0.6685
  794MOL0     C 7061   3.934  10.407   8.124 -0.1296 -0.5082 -1.4646
  794MOL0     C 7062   3.896  10.335   8.238  0.7775 -0.2140  0.8016
  794MOL0     O 7063   3.785  10.266   8.249  0.4283  0.1432 -0.9981
  794MOL0     C 7064   3.697  10.233   8.133  0.0071 -0.0802 -0.0158
  794MOL0     C 7065   3.767  10.134   8.046  0.2967  0.0588  0.1022
  794MOL0     C 7066   3.668  10.084   7.946 -0.0366  1.0214 -0.7849
  794MOL0     C 7067   3.740  10.001   7.842 -0.0841  1.2212  0.7498
  794MOL0     C 7068   3.637   9.914   7.760 -0.2435 -0.9093 -0.2376
  794MOL0     C 7069   3.701   9.799   7.675 -0.1010  0.9835 -0.5641
  794MOL0     C 7070   3.603   9.754   7.565  0.2098  0.0657 -1.5945
  794MOL0     C 7071   3.678   9.672   7.464 -0.7660 -0.5745  0.2585
  794MOL0     N 7072   3.598   9.625   7.345  0.2834 -0.3550  0.2241
  794MOL0     C 7073   3.498   9.686   7.279 -0.3891 -0.1103 -0.2529
  794MOL0     C 7074   3.448   9.600   7.192 -0.0008 -0.1141  0.1203
  794MOL0     C 7075   3.344   9.639   7.090 -0.2122  0.0921  0.0353
  794MOL0     C 7076   3.200   9.628   7.151  0.9578 -0.0138  0.4773
  794MOL0     C 7077   3.095   9.651   7.041  0.8478 -0.4893  0.0457
  794MOL0     C 7078   2.950   9.622   7.093  0.3643  0.4854  0.5841
  794MOL0     O 7079   2.859   9.653   6.989  1.1699 -0.0731  0.2185
  794MOL0     C 7080   2.727   9.685   7.031  0.0570  1.2366  0.3891
  794MOL0     C 7081   2.641   9.755   6.946  0.3428  0.5276 -0.5746
  794MOL0     C 7082   2.514   9.790   6.984  0.2920  0.6194 -0.8275
  794MOL0     C 7083   2.463   9.758   7.113  0.4166 -0.3327 -0.9158
  794MOL0     C 7084   2.325   9.825   7.149  0.7663  0.1019  0.7662
  794MOL0     O 7085   2.274   9.769   7.261 -0.1686  0.5006 -0.0700
  794MOL0     C 7086   2.162   9.824   7.321  1.2484 -0.5029 -0.3202
  794MOL0     C 7087   2.175   9.949   7.392  0.5976 -0.1669  0.0529
  794MOL0     C 7088   2.072  10.005   7.457  0.0175 -0.0730 -0.2031
  794MOL0     C 7089   1.949   9.945   7.447  0.0534  0.0733  0.1425
  794MOL0     O 7090   1.848  10.017   7.503  0.2036  0.1386  0.1015
  794MOL0     C 7091   1.748  10.049   7.411 -0.2949 -0.4254 -0.3830
  794MOL0     C 7092   1.656  10.148   7.485 -0.5411  0.2730  0.6761
  794MOL0     C 7093   1.720  10.271   7.560 -0.3077  1.0719 -0.9367
  794MOL0     C 7094   1.616  10.339   7.642  1.4450 -0.1713 -0.1991
  794MOL0     C 7095   1.669  10.437   7.742 -0.1363  0.4641 -0.1198
  794MOL0     C 7096   1.660  10.388   7.889 -0.4416  0.6417  1.0815
  794MOL0     C 7097   1.736  10.476   7.981  1.1297  1.2227  0.4432
  794MOL0     C 7098   1.712  10.441   8.124  0.5708 -1.3681  0.6124
  794MOL0    Cl 7099   1.790  10.583   8.207 -0.4556  0.0228 -0.4076
  794MOL0     C 7100   1.923   9.817   7.388 -1.0055  0.0679 -0.2729
  794MOL0     C 7101   2.040   9.755   7.322 -0.6606 -0.1795  0.4000
  794MOL0     O 7102   2.280   9.924   7.092  0.7424 -0.4447 -0.3397
  794MOL0     C 7103   2.545   9.686   7.207 -0.7060 -0.5689  0.0938
  794MOL0     C 7104   2.678   9.643   7.157 -0.0550  0.3010 -0.5403
  794MOL0     N 7105   3.511   9.476   7.216 -0.1382  0.2433  0.1197
  794MOL0     N 7106   3.594   9.488   7.305  0.1113 -0.5746  0.2566
  794MOL0     C 7107   3.975  10.354   8.352 -0.2145 -0.5795  0.0758
  794MOL0     C 7108   4.090  10.435   8.344 -1.1330 -0.3990 -0.0254
  794MOL0     C 7109   4.388  10.769   8.201  0.5672  0.0878 -0.1976
  794MOL0     C 7110   4.392  10.785   8.351  0.2906 -0.4398  0.4977
  794MOL0     C 7111   4.460  10.896   8.401  0.5688  0.0056 -0.5753
  794MOL0     C 7112   4.520  10.994   8.318 -0.2080 -0.2565  0.2821
  794MOL0     O 7113   4.579  11.098   8.383  0.1601  0.2138  0.0573
  794MOL0     C 7114   4.717  11.087   8.425  0.5677  1.0831  0.3266
  794MOL0     C 7115   4.706  11.130   8.566  0.6088  0.7131  0.8576
  794MOL0     C 7116   4.671  11.018   8.665  0.9556  0.1639 -0.1941
  794MOL0     C 7117   4.698  11.059   8.811 -0.0126  0.0154 -0.1734
  794MOL0     C 7118   4.751  10.940   8.878  0.6682 -0.6129 -0.0632
  794MOL0     C 7119   4.781  10.841   8.940 -1.0683  0.1303 -0.0696
  794MOL0     C 7120   4.520  10.980   8.179  0.2173  0.1502 -1.3432
  794MOL0     C 7121   4.448  10.871   8.122 -0.5127  0.7776  0.2235
  794MOL0     C 7122   4.449  10.867   7.971 -0.2727  0.3940  0.4157
  794MOL0     H 7123   4.057  10.549   8.035 -1.6343 -0.6289 -0.0628
  794MOL0     H 7124   3.880  10.407   8.030  0.6181  0.8591 -1.9172
  794MOL0     H 7125   3.604  10.192   8.171  1.2624 -0.7830  2.5079
  794MOL0     H 7126   3.677  10.320   8.069 -1.0749 -0.7836 -0.6668
  794MOL0     H 7127   3.792  10.050   8.112 -1.0105 -0.6357 -0.2448
  794MOL0     H 7128   3.851  10.179   7.993 -1.1702 -0.8840 -3.2716
  794MOL0     H 7129   3.619  10.166   7.891 -3.6787  0.5429  1.4154
  794MOL0     H 7130   3.586  10.026   7.990  1.5667 -1.5147 -0.9565
  794MOL0     H 7131   3.805  10.059   7.776 -2.4163  1.1570 -1.8260
  794MOL0     H 7132   3.805   9.921   7.877 -1.9721 -0.9476 -0.3685
  794MOL0     H 7133   3.561   9.869   7.824 -1.5116  1.6282  0.1743
  794MOL0     H 7134   3.568   9.981   7.707  0.7859  1.3431  1.1178
  794MOL0     H 7135   3.791   9.838   7.627  1.1066 -0.4840  0.3839
  794MOL0     H 7136   3.729   9.715   7.739 -0.2447 -2.2447 -4.3184
  794MOL0     H 7137   3.549   9.842   7.529 -0.3964  0.0116 -0.8427
  794MOL0     H 7138   3.524   9.694   7.611 -0.1904  2.7311  1.4699
  794MOL0     H 7139   3.757   9.733   7.418 -0.0944 -1.4421  0.2297
  794MOL0     H 7140   3.729   9.584   7.504 -0.7705  0.4975  2.7627
  794MOL0     H 7141   3.465   9.789   7.293 -3.0149 -0.8725 -0.3707
  794MOL0     H 7142   3.359   9.741   7.054 -2.2316 -0.4090 -2.5077
  794MOL0     H 7143   3.350   9.566   7.010  0.6535 -0.4671  0.5998
  794MOL0     H 7144   3.179   9.528   7.192 -1.0937 -0.6384 -1.8860
  794MOL0     H 7145   3.184   9.705   7.226 -2.3670  0.2117 -0.3488
  794MOL0     H 7146   3.133   9.587   6.960  1.3048 -1.5492  1.0574
  794MOL0     H 7147   3.093   9.757   7.016  1.1980 -0.1193  1.4913
  794MOL0     H 7148   2.935   9.681   7.183 -3.2174 -0.6720  0.9133
  794MOL0     H 7149   2.945   9.513   7.098 -1.4272  0.4919 -0.3185
  794MOL0     H 7150   2.677   9.789   6.849 -1.4470  0.1353 -1.4212
  794MOL0     H 7151   2.449   9.834   6.908 -0.5740 -1.2474 -1.2355
  794MOL0     H 7152   2.274   9.994   7.391 -0.0318  1.3686 -2.1396
  794MOL0     H 7153   2.092  10.084   7.529 -0.0200 -0.6448  0.4456
  794MOL0     H 7154   1.782  10.111   7.328  1.2083  0.0005  0.5100
  794MOL0     H 7155   1.694   9.961   7.375  0.3066 -0.4806 -1.1941
  794MOL0     H 7156   1.585  10.192   7.415 -2.3082 -0.3746  1.9856
  794MOL0     H 7157   1.594  10.093   7.556 -1.5190 -1.8423 -1.6499
  794MOL0     H 7158   1.799  10.224   7.619 -1.7734 -0.0999  0.1839
  794MOL0     H 7159   1.759  10.343   7.487  1.5877 -0.4843 -1.5301
  794MOL0     H 7160   1.556  10.264   7.693 -3.9469  1.6845 -3.0897
  794MOL0     H 7161   1.542  10.389   7.579  0.3926 -0.4472  0.8020
  794MOL0     H 7162   1.618  10.533   7.741  0.6452  0.9670  2.1182
  794MOL0     H 7163   1.771  10.472   7.722  2.3280 -5.0612  0.8544
  794MOL0     H 7164   1.555  10.380   7.917 -0.6512  1.4661  0.5512
  794MOL0     H 7165   1.713  10.293   7.893 -0.6738  0.3888 -0.9704
  794MOL0     H 7166   1.712  10.580   7.956 -2.4160  0.5348  0.4523
  794MOL0     H 7167   1.843  10.463   7.964  1.0299  1.0650 -0.0995
  794MOL0     H 7168   1.603  10.435   8.134  0.2423 -3.7385 -2.7494
  794MOL0     H 7169   1.742  10.343   8.163 -0.8556 -1.1374  2.4919
  794MOL0     H 7170   1.824   9.773   7.384 -0.8716 -0.4826  1.5379
  794MOL0     H 7171   2.015   9.666   7.265 -2.9855  0.3247  0.5146
  794MOL0     H 7172   2.506   9.650   7.301 -0.0145 -0.7438  0.3187
  794MOL0     H 7173   2.750   9.576   7.204  1.4417  0.4927 -2.4211
  794MOL0     H 7174   3.957  10.299   8.444 -0.1598 -0.7791 -0.0320
  794MOL0     H 7175   4.156  10.460   8.426  1.3707 -1.4024 -1.6259
  794MOL0     H 7176   4.332  10.723   8.416 -3.3427 -0.0690 -2.2098
  794MOL0     H 7177   4.454  10.937   8.501 -0.8137 -0.5896 -0.3897
  794MOL0     H 7178   4.776  11.149   8.357  0.2191 -2.2108 -3.3661
  794MOL0     H 7179   4.760  10.987   8.415 -1.3659  0.0072  2.0378
  794MOL0     H 7180   4.646  11.219   8.588 -0.2089  0.0685  1.2745
  794MOL0     H 7181   4.811  11.156   8.584  1.4801 -1.0154 -1.2937
  794MOL0     H 7182   4.745  10.942   8.641  0.3980 -0.5836  0.4354
  794MOL0     H 7183   4.570  10.978   8.651 -0.2893  2.8885  0.3548
  794MOL0     H 7184   4.784  11.126   8.807  2.4375 -2.9545 -0.4587
  794MOL0     H 7185   4.613  11.102   8.865  1.7046 -1.1604  3.8324
  794MOL0     H 7186   4.797  10.753   8.999  0.8196  1.6350  1.7763
  794MOL0     H 7187   4.551  11.061   8.114 -0.5651  0.0830 -1.8136
  794MOL0     H 7188   4.516  10.943   7.931  2.4411 -1.7697  0.5656
  794MOL0     H 7189   4.468  10.766   7.932 -0.0754  0.5610  0.0758
  794MOL0     H 7190   4.343  10.889   7.955 -0.5929 -0.0693  1.7836
  795MOL0     O 7191   1.200   4.008   1.588  0.5885  0.0474 -0.4677
  795MOL0     C 7192   1.218   3.944   1.693  1.1755 -0.2158  0.1646
  795MOL0     O 7193   1.309   3.845   1.708  0.5197 -0.4887  0.7470
  795MOL0     C 7194   1.382   3.822   1.592 -0.5387  0.9043  0.5269
  795MOL0     C 7195   1.518   3.857   1.582  0.8766  0.8292 -1.1510
  795MOL0     C 7196   1.598   3.825   1.476  0.0156 -0.4198 -0.1145
  795MOL0     C 7197   1.549   3.747   1.366  0.2202  0.3198 -0.4804
  795MOL0     O 7198   1.616   3.694   1.257  0.0368  0.6607  0.1361
  795MOL0     C 7199   1.758   3.698   1.261 -0.6363  0.4614 -0.4514
  795MOL0     C 7200   1.815   3.678   1.124 -0.2796 -0.0909  0.5880
  795MOL0     C 7201   1.866   3.526   1.125 -0.0416  0.4703  0.6639
  795MOL0     C 7202   1.911   3.494   0.985 -0.0578 -0.3868 -0.3411
  795MOL0     C 7203   1.918   3.345   0.964 -0.5460  0.6994  0.0843
  795MOL0     C 7204   2.040   3.284   1.034 -0.2006  0.3876 -0.3380
  795MOL0     C 7205   2.038   3.137   0.996 -0.2516  0.0071 -0.2251
  795MOL0     C 7206   2.078   3.052   1.113 -0.0550  0.1822 -0.2806
  795MOL0     N 7207   2.221   3.035   1.137  0.1394 -1.0064  0.1174
  795MOL0     C 7208   2.313   2.983   1.043 -0.2814  0.3437  0.7964
  795MOL0     C 7209   2.432   2.997   1.104  0.9513 -0.3054  0.6945
  795MOL0     C 7210   2.569   2.957   1.066 -0.8690  0.1333  0.2496
  795MOL0     C 7211   2.660   3.077   1.038  0.2331 -0.9005 -0.3198
  795MOL0     C 7212   2.615   3.183   0.934  0.4932 -0.0355  0.5484
  795MOL0     C 7213   2.571   3.125   0.790  0.1160  0.2381 -0.4376
  795MOL0     O 7214   2.538   3.224   0.699  0.4008 -0.6526  0.4054
  795MOL0     C 7215   2.641   3.284   0.632  0.8319 -0.0639 -0.4079
  795MOL0     C 7216   2.609   3.394   0.549  0.2163  0.1267  0.0134
  795MOL0     C 7217   2.701   3.464   0.469  0.3711 -0.8770 -0.3902
  795MOL0     C 7218   2.840   3.440   0.486 -0.0320  0.7669 -1.1330
  795MOL0     C 7219   2.947   3.527   0.432  0.1264 -0.7501 -1.2463
  795MOL0     O 7220   2.904   3.627   0.358  0.0026 -0.0578  0.6449
  795MOL0     C 7221   2.987   3.694   0.270  0.0424  0.1477 -0.0421
  795MOL0     C 7222   3.061   3.802   0.322  0.3127 -0.0819 -0.1254
  795MOL0     C 7223   3.133   3.885   0.236  0.3937  0.5297  0.5321
  795MOL0     C 7224   3.136   3.852   0.103 -0.2856  0.4275  0.0045
  795MOL0     O 7225   3.207   3.927   0.009  0.3051  0.6227 -0.1160
  795MOL0     C 7226   3.344   3.926   0.012 -0.4667  0.3848  0.0208
  795MOL0     C 7227   3.411   4.042   0.098 -0.1906 -0.1973 -0.5532
  795MOL0     C 7228   3.332   4.169   0.101  0.9485 -0.2585  0.3526
  795MOL0     C 7229   3.318   4.232  -0.039 -0.4698  0.7996 -0.1019
  795MOL0     C 7230   3.247   4.364  -0.014 -0.4029 -0.7358 -0.0739
  795MOL0     C 7231   3.098   4.343  -0.001  0.1765  0.3788 -0.1418
  795MOL0     C 7232   3.024   4.462  -0.046  0.0689 -0.0332 -0.0950
  795MOL0     C 7233   3.002   4.571   0.061  0.2164  0.1558 -0.0121
  795MOL0    Cl 7234   3.153   4.652   0.101  0.2274  0.1391  0.3764
  795MOL0     C 7235   3.061   3.751   0.049  0.0971  0.4650 -0.3312
  795MOL0     C 7236   2.984   3.670   0.134  0.0596  0.2682 -0.2977
  795MOL0     O 7237   3.066   3.496   0.444  0.1773  0.3461  0.0549
  795MOL0     C 7238   2.884   3.339   0.575 -0.6796  0.0465 -0.0828
  795MOL0     C 7239   2.783   3.261   0.644 -0.2709 -0.0573 -0.0657
  795MOL0     N 7240   2.408   3.037   1.231 -0.1891  0.0234  0.6501
  795MOL0     N 7241   2.286   3.077   1.249  0.1792  1.2841 -0.4956
  795MOL0     C 7242   1.421   3.708   1.365  0.0350 -0.2606 -0.4133
  795MOL0     C 7243   1.336   3.746   1.480 -0.4955 -0.5047  0.3170
  795MOL0     C 7244   1.156   3.991   1.820  0.9293 -0.0025  0.2036
  795MOL0     C 7245   1.143   3.900   1.926  0.5877  0.6756  0.6193
  795MOL0     C 7246   1.089   3.940   2.044 -0.3798  0.1225 -0.4965
  795MOL0     C 7247   1.037   4.062   2.061 -0.2295 -0.2282  0.1870
  795MOL0     O 7248   0.969   4.110   2.173 -0.9180 -0.2821  0.7391
  795MOL0     C 7249   0.911   4.015   2.261  0.3867 -1.0214 -0.1754
  795MOL0     C 7250   0.811   4.080   2.365  0.1832 -0.0326 -0.0192
  795MOL0     C 7251   0.737   3.976   2.446 -0.8642 -0.4994  0.0312
  795MOL0     C 7252   0.636   4.045   2.540 -0.1390 -0.3093  0.3056
  795MOL0     C 7253   0.511   3.967   2.549 -1.1074 -0.3508  0.8674
  795MOL0     C 7254   0.417   3.892   2.551  0.3099 -0.9260 -0.3234
  795MOL0     C 7255   1.054   4.155   1.956  0.4682 -0.2256 -0.3356
  795MOL0     C 7256   1.098   4.121   1.833 -0.7349 -0.4208  0.4708
  795MOL0     C 7257   1.089   4.225   1.722 -0.1748 -0.0010 -0.4418
  795MOL0     H 7258   1.562   3.904   1.669  1.2987 -1.5807  0.0252
  795MOL0     H 7259   1.700   3.863   1.483 -0.3841  0.5330  0.7647
  795MOL0     H 7260   1.793   3.797   1.292  1.7863  0.2078 -2.1006
  795MOL0     H 7261   1.790   3.617   1.327 -1.1102 -1.0334 -1.9800
  795MOL0     H 7262   1.895   3.752   1.114 -0.3965 -0.2105 -1.5554
  795MOL0     H 7263   1.738   3.688   1.047  0.0202  1.0537  0.4250
  795MOL0     H 7264   1.795   3.453   1.165  0.3045 -0.7995 -0.8922
  795MOL0     H 7265   1.958   3.516   1.183 -0.7549 -1.0954  1.5793
  795MOL0     H 7266   1.840   3.533   0.911 -1.8198 -3.6056 -0.4890
  795MOL0     H 7267   2.014   3.525   0.965 -0.2964  0.5696 -0.1423
  795MOL0     H 7268   1.827   3.295   0.998 -0.0312  1.2315  2.3825
  795MOL0     H 7269   1.932   3.328   0.857 -3.0394 -0.5114 -0.1123
  795MOL0     H 7270   2.130   3.339   1.002 -1.0262  3.3500  2.0248
  795MOL0     H 7271   2.032   3.301   1.142 -0.9622  2.1771 -0.6428
  795MOL0     H 7272   2.106   3.100   0.919  1.3124  1.1631  0.5349
  795MOL0     H 7273   1.938   3.111   0.961 -0.1839 -1.5706  0.7169
  795MOL0     H 7274   2.029   3.076   1.208 -0.1109 -1.8283  0.2440
  795MOL0     H 7275   2.040   2.955   1.081  0.2507 -0.8382  2.2225
  795MOL0     H 7276   2.307   2.968   0.936  0.0579  0.8343  0.7069
  795MOL0     H 7277   2.623   2.898   1.141  2.4813 -1.0833 -2.8445
  795MOL0     H 7278   2.552   2.902   0.973 -1.0069 -2.8977  1.9590
  795MOL0     H 7279   2.670   3.136   1.130 -4.2817 -1.5776  0.8321
  795MOL0     H 7280   2.759   3.037   1.013  0.6156 -0.0334 -0.2530
  795MOL0     H 7281   2.695   3.253   0.907 -0.3305  0.1406 -1.7260
  795MOL0     H 7282   2.529   3.241   0.968  1.7176  0.6962  2.5552
  795MOL0     H 7283   2.487   3.056   0.797 -1.0865  1.5749 -1.3027
  795MOL0     H 7284   2.646   3.054   0.753 -1.2202 -1.8230  0.6100
  795MOL0     H 7285   2.503   3.414   0.532  0.3707 -1.0224 -3.0301
  795MOL0     H 7286   2.669   3.544   0.403  0.0940 -0.6153  0.0514
  795MOL0     H 7287   3.056   3.820   0.428  1.1816  0.6987 -0.2100
  795MOL0     H 7288   3.196   3.968   0.264 -0.2524  1.1968  0.0389
  795MOL0     H 7289   3.379   3.827   0.040  1.3757  0.5524 -1.4540
  795MOL0     H 7290   3.373   3.945  -0.092 -0.7601 -1.5508 -0.4450
  795MOL0     H 7291   3.431   4.010   0.201  0.7718  1.5920 -0.1427
  795MOL0     H 7292   3.510   4.063   0.058  0.9977 -1.4983  1.5180
  795MOL0     H 7293   3.236   4.155   0.151  0.8738  0.4507  0.4211
  795MOL0     H 7294   3.385   4.246   0.158 -0.2459  1.1381 -0.3652
  795MOL0     H 7295   3.251   4.173  -0.103 -0.9778  0.6544  0.5475
  795MOL0     H 7296   3.415   4.234  -0.088 -1.2958 -1.5843 -2.0806
  795MOL0     H 7297   3.272   4.437  -0.093 -0.2969  0.1944  0.7986
  795MOL0     H 7298   3.275   4.418   0.077  0.9282  0.6752 -1.2554
  795MOL0     H 7299   3.064   4.257  -0.059 -2.6943 -0.7341  2.9051
  795MOL0     H 7300   3.078   4.326   0.105  2.0970  0.3449  0.2566
  795MOL0     H 7301   2.929   4.427  -0.089  1.3124  0.9236 -4.0017
  795MOL0     H 7302   3.079   4.502  -0.131  0.2482  1.2893  0.6256
  795MOL0     H 7303   2.938   4.651   0.025 -0.1575  0.3588  1.0458
  795MOL0     H 7304   2.959   4.528   0.152  0.2698 -0.9567 -0.4929
  795MOL0     H 7305   3.056   3.743  -0.059 -2.5981 -0.1339 -0.2326
  795MOL0     H 7306   2.920   3.590   0.099 -2.2378  2.1486 -0.7064
  795MOL0     H 7307   2.989   3.313   0.581  0.4458  2.2317 -5.0690
  795MOL0     H 7308   2.809   3.189   0.721 -1.0978  1.9003  2.1981
  795MOL0     H 7309   1.377   3.638   1.294 -1.8772  1.1804 -0.7419
  795MOL0     H 7310   1.231   3.717   1.486 -0.8593  0.8744  0.9899
  795MOL0     H 7311   1.203   3.810   1.927  2.0254  1.5135  3.7457
  795MOL0     H 7312   1.096   3.872   2.128  3.8887 -2.3856 -2.5432
  795MOL0     H 7313   0.984   3.949   2.309  1.0277 -0.5516 -0.4852
  795MOL0     H 7314   0.850   3.941   2.208  1.0916 -2.4794  0.9691
  795MOL0     H 7315   0.738   4.145   2.316 -0.9850  0.9846  2.8434
  795MOL0     H 7316   0.864   4.157   2.421 -2.4847  3.2536 -1.6625
  795MOL0     H 7317   0.804   3.912   2.505  0.8315  1.7809  0.7274
  795MOL0     H 7318   0.685   3.912   2.374 -2.1168 -0.8493  1.2140
  795MOL0     H 7319   0.683   4.047   2.639  5.2937  0.2222 -1.9982
  795MOL0     H 7320   0.613   4.142   2.495 -2.3040 -1.6885 -1.8486
  795MOL0     H 7321   0.324   3.838   2.554  0.6615 -1.6928 -2.1552
  795MOL0     H 7322   1.013   4.256   1.956 -3.1738 -1.5321 -0.2957
  795MOL0     H 7323   1.180   4.245   1.666 -0.9410  0.3728 -1.5852
  795MOL0     H 7324   1.007   4.207   1.652  0.2270 -2.4201 -0.3584
  795MOL0     H 7325   1.060   4.316   1.775 -0.9264 -1.3364  1.5638
  796MOL0     O 7326   2.892  10.609   1.786 -0.0591  0.4040  0.0806
  796MOL0     C 7327   2.951  10.686   1.707 -0.1672 -0.0066  0.2005
  796MOL0     O 7328   2.942  10.681   1.567 -0.1136  0.1405 -0.1757
  796MOL0     C 7329   2.870  10.588   1.497 -0.0327 -0.3969 -0.3137
  796MOL0     C 7330   2.837  10.635   1.370 -0.8476  0.1226  0.1785
  796MOL0     C 7331   2.756  10.552   1.291  0.0270 -0.6828  1.0204
  796MOL0     C 7332   2.706  10.426   1.338 -0.9581 -1.2521 -0.1819
  796MOL0     O 7333   2.616  10.340   1.264  0.1438  0.4782  0.1632
  796MOL0     C 7334   2.591  10.361   1.119 -0.3698 -0.2342 -0.2396
  796MOL0     C 7335   2.481  10.261   1.069  0.2597  0.8994  0.2252
  796MOL0     C 7336   2.521  10.120   1.113  0.6189  0.8097 -1.9384
  796MOL0     C 7337   2.421  10.017   1.059  0.1735 -0.2845  0.2840
  796MOL0     C 7338   2.272  10.012   1.110 -1.1864 -0.2645  0.6254
  796MOL0     C 7339   2.186   9.959   0.995  0.0879 -0.1965 -0.2329
  796MOL0     C 7340   2.228   9.821   0.943  0.3418  0.7802  0.8183
  796MOL0     C 7341   2.167   9.798   0.808 -0.0525  0.1762  0.7026
  796MOL0     N 7342   2.025   9.765   0.799 -0.1860  0.3780 -0.2576
  796MOL0     C 7343   1.973   9.639   0.800 -0.0018 -0.4277 -0.7028
  796MOL0     C 7344   1.847   9.663   0.809  0.1318 -1.0264 -0.0951
  796MOL0     C 7345   1.730   9.580   0.787 -0.2966  0.1625 -0.8172
  796MOL0     C 7346   1.733   9.515   0.652 -0.5650 -0.0073 -0.0297
  796MOL0     C 7347   1.644   9.396   0.655  0.1025  1.2399 -0.6841
  796MOL0     C 7348   1.710   9.279   0.599 -0.6794 -0.1080 -0.2628
  796MOL0     O 7349   1.809   9.224   0.700  0.4664  0.8110 -0.7665
  796MOL0     C 7350   1.914   9.160   0.645 -0.1046 -0.4520  0.2007
  796MOL0     C 7351   2.036   9.227   0.653 -0.2964  0.0271  0.6121
  796MOL0     C 7352   2.140   9.184   0.571 -0.0788 -0.2614  0.2823
  796MOL0     C 7353   2.125   9.079   0.480  0.7297 -0.2716 -0.3503
  796MOL0     C 7354   2.233   9.033   0.392 -0.2847 -1.0157 -0.1867
  796MOL0     O 7355   2.342   9.109   0.395  0.0784 -0.2778  0.7884
  796MOL0     C 7356   2.455   9.070   0.328 -1.1141  0.2320 -0.8853
  796MOL0     C 7357   2.556   8.998   0.397  0.0391 -0.3717  0.4520
  796MOL0     C 7358   2.663   8.943   0.325 -0.8725  0.0232  0.1315
  796MOL0     C 7359   2.669   8.971   0.190 -0.1130  1.1317  0.1647
  796MOL0     O 7360   2.778   8.948   0.115  0.8035 -0.4514  0.4214
  796MOL0     C 7361   2.859   8.835   0.142  0.0060 -0.1322 -0.1345
  796MOL0     C 7362   3.003   8.858   0.075 -0.5227  0.4568 -0.8312
  796MOL0     C 7363   3.108   8.767   0.141 -0.7956  0.5017  0.0962
  796MOL0     C 7364   3.247   8.807   0.089 -0.7596  0.2662  0.0899
  796MOL0     C 7365   3.358   8.796   0.194 -0.3691 -0.2008  0.5030
  796MOL0     C 7366   3.497   8.819   0.151  0.3128  0.1616 -0.0976
  796MOL0     C 7367   3.525   8.973   0.123 -0.4031  0.5138 -0.0660
  796MOL0     C 7368   3.496   9.010  -0.029 -0.3513  0.8678 -0.4856
  796MOL0    Cl 7369   3.498   9.195  -0.033  0.0383  0.3471  0.0376
  796MOL0     C 7370   2.570   9.054   0.130  0.3499  0.4601 -0.0216
  796MOL0     C 7371   2.454   9.092   0.196 -0.7919  0.1239  0.6297
  796MOL0     O 7372   2.218   8.934   0.324  0.1610  0.0376  0.9544
  796MOL0     C 7373   2.003   9.007   0.479  0.5475 -0.5905  0.0189
  796MOL0     C 7374   1.897   9.049   0.559  0.2041 -0.0226 -0.0406
  796MOL0     N 7375   1.816   9.804   0.811  0.1133  0.5150 -0.4308
  796MOL0     N 7376   1.929   9.864   0.799 -0.6291 -0.1265  0.4314
  796MOL0     C 7377   2.748  10.381   1.462  0.4245  0.2692 -0.1449
  796MOL0     C 7378   2.822  10.470   1.534 -0.9704  0.2390 -0.2947
  796MOL0     C 7379   3.019  10.796   1.770  0.3955 -0.3395 -0.0543
  796MOL0     C 7380   3.039  10.904   1.691  0.5026  1.0170  0.8036
  796MOL0     C 7381   3.097  11.018   1.737 -0.2272 -0.5511 -0.2853
  796MOL0     C 7382   3.136  11.033   1.865 -1.0307  0.4122  0.0681
  796MOL0     O 7383   3.211  11.136   1.912  0.0773  0.8021 -0.3930
  796MOL0     C 7384   3.244  11.241   1.821 -0.5217  0.3364 -1.1489
  796MOL0     C 7385   3.353  11.187   1.713 -0.9155  0.1048  1.0093
  796MOL0     C 7386   3.491  11.127   1.765 -1.1038  0.8197  0.2404
  796MOL0     C 7387   3.576  11.057   1.650 -0.3040 -0.7324  0.2830
  796MOL0     C 7388   3.523  10.919   1.627 -0.8419  0.2076  0.7348
  796MOL0     C 7389   3.471  10.817   1.620  0.0113 -0.1621  0.0502
  796MOL0     C 7390   3.119  10.921   1.951  1.2639  0.7981  0.1477
  796MOL0     C 7391   3.068  10.797   1.905  0.1545  0.4152 -0.7847
  796MOL0     C 7392   3.061  10.687   2.001 -0.4953 -0.9982 -0.1021
  796MOL0     H 7393   2.865  10.734   1.334 -3.5746  1.5043  1.4873
  796MOL0     H 7394   2.741  10.575   1.186 -2.1439  0.0200  1.4470
  796MOL0     H 7395   2.551  10.461   1.101  1.7201  0.4271 -1.5251
  796MOL0     H 7396   2.687  10.347   1.070  1.2276  3.6435  1.3404
  796MOL0     H 7397   2.467  10.269   0.961  1.1263  2.4630  0.2005
  796MOL0     H 7398   2.387  10.280   1.121  0.0635  0.0940  0.1793
  796MOL0     H 7399   2.526  10.110   1.222  0.2779 -2.6474 -2.1472
  796MOL0     H 7400   2.625  10.099   1.085  0.7979  1.4592 -1.7796
  796MOL0     H 7401   2.426  10.022   0.950 -0.2142  1.6061  0.3236
  796MOL0     H 7402   2.452   9.915   1.085 -1.8049 -0.7943  0.7704
  796MOL0     H 7403   2.258   9.963   1.207 -2.4111  2.4979  1.9615
  796MOL0     H 7404   2.228  10.110   1.129 -1.5405 -0.1567 -0.6760
  796MOL0     H 7405   2.084   9.949   1.034  0.2996 -0.0279  0.3681
  796MOL0     H 7406   2.173  10.023   0.907  1.6773 -2.2697 -2.1036
  796MOL0     H 7407   2.187   9.738   1.001  1.0410  0.5282  0.9715
  796MOL0     H 7408   2.338   9.821   0.934  0.3822  2.3346  1.0122
  796MOL0     H 7409   2.175   9.889   0.748 -3.2560 -0.8042 -1.4276
  796MOL0     H 7410   2.225   9.720   0.757 -0.0319  1.5577 -1.4861
  796MOL0     H 7411   2.028   9.547   0.786 -1.1169 -0.9319 -1.9912
  796MOL0     H 7412   1.729   9.504   0.866  1.3671  1.4240  0.4786
  796MOL0     H 7413   1.634   9.634   0.792 -0.4162 -0.1502  1.1390
  796MOL0     H 7414   1.692   9.594   0.589  2.2292  2.1203  0.6522
  796MOL0     H 7415   1.837   9.490   0.630  0.0293  2.2088  0.0880
  796MOL0     H 7416   1.560   9.418   0.589 -0.0886 -0.3596 -1.0110
  796MOL0     H 7417   1.601   9.373   0.753  1.2954 -1.0491 -0.6230
  796MOL0     H 7418   1.765   9.310   0.509  0.5076 -3.5866 -0.8952
  796MOL0     H 7419   1.638   9.200   0.578 -1.4058  0.8500 -1.5289
  796MOL0     H 7420   2.044   9.316   0.716  0.4999  0.9154 -0.7041
  796MOL0     H 7421   2.233   9.237   0.586  0.1525 -0.6347  0.1574
  796MOL0     H 7422   2.563   9.001   0.505 -1.4345  1.9048  0.5342
  796MOL0     H 7423   2.747   8.896   0.375 -1.4779 -1.4007 -0.1284
  796MOL0     H 7424   2.888   8.827   0.248 -1.0591  0.0637  0.1871
  796MOL0     H 7425   2.821   8.737   0.114  0.0766 -1.1671  2.9415
  796MOL0     H 7426   3.005   8.843  -0.033 -1.2272  0.4603 -0.8504
  796MOL0     H 7427   3.025   8.961   0.101 -0.4572  0.2900 -0.2002
  796MOL0     H 7428   3.100   8.787   0.248 -1.0257  2.6520 -0.2956
  796MOL0     H 7429   3.091   8.662   0.113  3.2347  0.1403 -1.7800
  796MOL0     H 7430   3.247   8.907   0.045  0.2897 -0.9941 -3.1001
  796MOL0     H 7431   3.288   8.744   0.008  2.1042  3.1233 -0.9006
  796MOL0     H 7432   3.359   8.699   0.245 -1.2534  0.9064  2.7753
  796MOL0     H 7433   3.339   8.877   0.266  2.0009  0.8674  0.0385
  796MOL0     H 7434   3.558   8.784   0.236 -0.1531 -3.5742 -1.1000
  796MOL0     H 7435   3.514   8.752   0.066 -0.1333 -0.9000  0.6221
  796MOL0     H 7436   3.630   8.995   0.145  0.5260 -1.1456 -2.3315
  796MOL0     H 7437   3.461   9.038   0.182 -2.2949 -1.6076  0.3459
  796MOL0     H 7438   3.575   8.979  -0.098  0.0253 -0.3894  0.4685
  796MOL0     H 7439   3.402   8.969  -0.066 -2.2172  1.8930  2.6993
  796MOL0     H 7440   2.590   9.078   0.026  3.4448  1.2844  0.6624
  796MOL0     H 7441   2.374   9.147   0.148 -0.3260 -1.0459 -1.6839
  796MOL0     H 7442   1.982   8.919   0.419  0.0879 -0.1483 -0.4850
  796MOL0     H 7443   1.798   9.006   0.562  0.6294 -1.0077  0.0709
  796MOL0     H 7444   2.724  10.282   1.499  0.5367  0.7557  1.2803
  796MOL0     H 7445   2.861  10.433   1.628  3.2869  1.5897 -1.3122
  796MOL0     H 7446   3.000  10.907   1.590 -2.1178 -0.3141  1.6955
  796MOL0     H 7447   3.092  11.104   1.670 -1.9485  0.2843  0.8327
  796MOL0     H 7448   3.298  11.313   1.882 -0.0563 -0.8470 -0.1251
  796MOL0     H 7449   3.158  11.289   1.775 -1.4495  2.5189  2.4896
  796MOL0     H 7450   3.377  11.269   1.646  0.4913 -0.9971  0.1084
  796MOL0     H 7451   3.296  11.120   1.649  0.0108  1.2693 -1.1582
  796MOL0     H 7452   3.475  11.055   1.845 -0.5327  2.1726  1.6323
  796MOL0     H 7453   3.552  11.206   1.810  0.6205 -0.2923 -0.0507
  796MOL0     H 7454   3.576  11.116   1.558  0.5112  1.6708  1.7159
  796MOL0     H 7455   3.683  11.054   1.675  0.0319  0.9816 -0.7675
  796MOL0     H 7456   3.426  10.721   1.629 -1.7764  0.6021 -0.3188
  796MOL0     H 7457   3.162  10.925   2.051  0.4694  2.0719  0.4578
  796MOL0     H 7458   2.958  10.650   2.010  0.2093 -2.8532  0.7616
  796MOL0     H 7459   3.130  10.609   1.969  1.3792  0.4110  0.3774
  796MOL0     H 7460   3.091  10.725   2.099 -1.7873 -0.6373  0.1843
  797MOL0     O 7461   2.963   1.416   0.227  0.0035 -0.0585 -0.2653
  797MOL0     C 7462   2.844   1.423   0.260 -0.0294 -0.3132  0.4758
  797MOL0     O 7463   2.788   1.340   0.354 -0.2405 -0.0969  0.4316
  797MOL0     C 7464   2.879   1.259   0.407 -0.2382  0.4063 -0.6237
  797MOL0     C 7465   2.907   1.135   0.345  0.0142  0.7626 -0.1807
  797MOL0     C 7466   2.997   1.040   0.406 -0.1372 -0.1030  0.5026
  797MOL0     C 7467   3.056   1.075   0.524 -0.3093  0.6854 -0.9548
  797MOL0     O 7468   3.138   0.976   0.576 -0.4830  0.1583  0.8705
  797MOL0     C 7469   3.240   1.006   0.666  0.1176  0.0414  0.0118
  797MOL0     C 7470   3.317   0.884   0.698 -0.2579  0.6760 -0.6140
  797MOL0     C 7471   3.427   0.907   0.801 -0.2199 -0.7599 -0.6105
  797MOL0     C 7472   3.372   0.920   0.946 -0.6424  1.2003 -0.5216
  797MOL0     C 7473   3.497   0.938   1.035  0.3994  0.4159  0.0720
  797MOL0     C 7474   3.458   0.941   1.183  0.0709  0.1421 -0.6832
  797MOL0     C 7475   3.406   1.074   1.222 -0.3542  0.6106 -0.1283
  797MOL0     C 7476   3.524   1.172   1.243 -0.1142 -1.1061 -0.3501
  797MOL0     N 7477   3.569   1.260   1.134 -0.1090  0.7909  0.2570
  797MOL0     C 7478   3.493   1.347   1.072  0.5958 -0.6814  0.1997
  797MOL0     C 7479   3.578   1.422   1.005 -0.5893 -0.5165  0.1748
  797MOL0     C 7480   3.528   1.533   0.917 -0.5141  1.0136 -0.3916
  797MOL0     C 7481   3.591   1.540   0.774  0.0097 -0.2902 -0.7908
  797MOL0     C 7482   3.631   1.410   0.709 -0.6461 -0.3752 -0.5794
  797MOL0     C 7483   3.506   1.322   0.689 -0.2497 -0.1902  0.0413
  797MOL0     O 7484   3.463   1.329   0.546 -0.1217 -0.1753 -0.4491
  797MOL0     C 7485   3.489   1.213   0.472  0.5637  0.2429  0.1609
  797MOL0     C 7486   3.377   1.168   0.398  0.0222 -0.0579  0.8406
  797MOL0     C 7487   3.398   1.066   0.305  0.8785 -0.2581 -0.2292
  797MOL0     C 7488   3.520   0.987   0.298 -0.1060  0.8584  0.1565
  797MOL0     C 7489   3.538   0.873   0.201 -0.0462  0.4658  0.8288
  797MOL0     O 7490   3.437   0.816   0.125 -0.9962 -0.4295  0.4684
  797MOL0     C 7491   3.456   0.695   0.062  0.1618  0.4436 -0.4861
  797MOL0     C 7492   3.493   0.576   0.132 -1.3952  0.6198  0.5170
  797MOL0     C 7493   3.489   0.451   0.061 -0.1354 -0.2514  0.5151
  797MOL0     C 7494   3.450   0.445  -0.079  0.1872 -0.3122 -0.7748
  797MOL0     O 7495   3.465   0.322  -0.136  0.0334 -0.1465 -0.6561
  797MOL0     C 7496   3.452   0.329  -0.279  0.6082  0.5206  0.2807
  797MOL0     C 7497   3.477   0.194  -0.348 -0.5421  0.6934 -1.0557
  797MOL0     C 7498   3.435   0.197  -0.493  0.1747  0.5157 -0.6735
  797MOL0     C 7499   3.305   0.123  -0.522  0.1687  0.4674 -0.3208
  797MOL0     C 7500   3.260   0.108  -0.667  0.2357  0.4721 -0.4314
  797MOL0     C 7501   3.283   0.226  -0.767 -0.5027  0.0761 -0.2129
  797MOL0     C 7502   3.202   0.231  -0.901  0.3721  0.2401 -0.1446
  797MOL0     C 7503   3.222   0.113  -0.990  0.2593  0.8811  0.4803
  797MOL0    Cl 7504   3.201  -0.056  -0.939  0.1183 -0.0360 -0.0034
  797MOL0     C 7505   3.415   0.566  -0.144  1.3060  0.2880 -0.4726
  797MOL0     C 7506   3.407   0.687  -0.072  0.6222  0.4842 -0.9317
  797MOL0     O 7507   3.656   0.835   0.207  0.5069  0.4510  0.5737
  797MOL0     C 7508   3.623   1.025   0.388 -0.3283  0.1580 -0.0532
  797MOL0     C 7509   3.603   1.135   0.471  0.5275  0.7895  0.1130
  797MOL0     N 7510   3.710   1.386   1.024  0.2923  0.5298  0.6803
  797MOL0     N 7511   3.699   1.292   1.109 -0.4606 -0.5850  0.2641
  797MOL0     C 7512   3.024   1.196   0.586 -0.1915 -0.5235 -0.6176
  797MOL0     C 7513   2.937   1.289   0.532  0.0532  0.1229  0.2122
  797MOL0     C 7514   2.753   1.512   0.191  0.1037 -1.2599  0.5972
  797MOL0     C 7515   2.610   1.487   0.200 -0.1019 -0.1026 -1.2526
  797MOL0     C 7516   2.520   1.574   0.144  0.1674  0.4595  0.6670
  797MOL0     C 7517   2.556   1.699   0.095  0.4434 -0.0465 -0.2203
  797MOL0     O 7518   2.462   1.791   0.050  0.3437  0.3622 -0.2668
  797MOL0     C 7519   2.332   1.744   0.016 -0.5627  0.4095 -0.0862
  797MOL0     C 7520   2.291   1.832  -0.102 -0.1591 -0.6747 -0.5538
  797MOL0     C 7521   2.159   1.791  -0.167 -0.1572 -0.2701 -0.2582
  797MOL0     C 7522   2.165   1.650  -0.237  0.0071  0.7428 -1.0997
  797MOL0     C 7523   2.066   1.609  -0.346  1.1161  1.5187  0.8321
  797MOL0     C 7524   1.976   1.577  -0.426 -0.3472 -0.4742  0.2993
  797MOL0     C 7525   2.688   1.718   0.080  0.1042 -0.6180 -0.3639
  797MOL0     C 7526   2.792   1.633   0.122  0.2169 -0.0708 -0.0093
  797MOL0     C 7527   2.932   1.685   0.116 -0.4353 -0.6291 -0.2640
  797MOL0     H 7528   2.865   1.104   0.250 -0.0228 -2.3472  0.7367
  797MOL0     H 7529   3.014   0.938   0.374  2.0259 -0.2261  1.8413
  797MOL0     H 7530   3.315   1.077   0.630  0.2044  0.0769  0.2632
  797MOL0     H 7531   3.201   1.053   0.756 -0.1557 -2.2183  1.1354
  797MOL0     H 7532   3.365   0.852   0.605 -1.1063 -3.6400  0.2242
  797MOL0     H 7533   3.248   0.809   0.736  0.3523  0.1937 -0.4412
  797MOL0     H 7534   3.487   0.982   0.747  0.7767 -1.2271 -0.1750
  797MOL0     H 7535   3.492   0.820   0.800  2.8826  1.3679 -3.1611
  797MOL0     H 7536   3.299   0.998   0.974  1.4441  2.0352  3.3185
  797MOL0     H 7537   3.319   0.825   0.958 -2.0640  2.1330  1.0836
  797MOL0     H 7538   3.572   0.859   1.026  0.1628  0.1994 -0.0254
  797MOL0     H 7539   3.548   1.033   1.019 -2.3231  1.7113 -1.8082
  797MOL0     H 7540   3.376   0.873   1.207  0.1657 -0.3089 -1.5775
  797MOL0     H 7541   3.541   0.907   1.246 -1.7348  1.0060  2.3589
  797MOL0     H 7542   3.350   1.052   1.313 -0.1079 -1.5162 -0.4326
  797MOL0     H 7543   3.322   1.111   1.163 -1.1601 -0.4156  0.3534
  797MOL0     H 7544   3.488   1.229   1.329  0.4783 -0.9727 -0.1840
  797MOL0     H 7545   3.612   1.114   1.270  0.0322 -1.5809 -1.7876
  797MOL0     H 7546   3.388   1.372   1.079  0.5081 -1.1288  0.5606
  797MOL0     H 7547   3.420   1.531   0.902 -0.9833  0.4762  2.5659
  797MOL0     H 7548   3.540   1.624   0.976  0.6480  0.6399 -0.0309
  797MOL0     H 7549   3.528   1.598   0.706  0.0368  0.3419 -0.2852
  797MOL0     H 7550   3.692   1.583   0.774  0.5149 -1.3976  0.8661
  797MOL0     H 7551   3.715   1.373   0.769 -1.0372  0.3370  0.4454
  797MOL0     H 7552   3.675   1.436   0.613  3.9288  0.3994  1.4378
  797MOL0     H 7553   3.425   1.360   0.752  1.3226  0.5716  1.6782
  797MOL0     H 7554   3.525   1.221   0.728  1.4797 -0.7805 -2.1506
  797MOL0     H 7555   3.278   1.211   0.402 -0.2512 -0.7411  1.4795
  797MOL0     H 7556   3.314   1.047   0.239 -0.1945  1.3202  0.6344
  797MOL0     H 7557   3.524   0.569   0.236  0.3855  0.4374  0.0060
  797MOL0     H 7558   3.526   0.355   0.097 -1.8208 -1.5254 -1.0054
  797MOL0     H 7559   3.346   0.350  -0.299 -0.0294 -2.5509 -0.0083
  797MOL0     H 7560   3.513   0.397  -0.339 -0.5483 -1.5258 -3.5478
  797MOL0     H 7561   3.584   0.176  -0.334 -0.8897 -1.7787 -1.2079
  797MOL0     H 7562   3.434   0.118  -0.282  0.0689  3.0754  2.3206
  797MOL0     H 7563   3.418   0.299  -0.530 -0.4146  0.8961  0.5742
  797MOL0     H 7564   3.513   0.140  -0.543 -0.3443 -0.3672 -0.4965
  797MOL0     H 7565   3.216   0.162  -0.471  0.6662  0.1578  0.8238
  797MOL0     H 7566   3.318   0.024  -0.478 -1.2695  0.5314  0.3206
  797MOL0     H 7567   3.155   0.078  -0.655 -0.5401  3.0260 -0.0081
  797MOL0     H 7568   3.322   0.029  -0.710 -0.0374 -0.4693  0.8433
  797MOL0     H 7569   3.257   0.317  -0.711  3.3624  0.4459  1.3122
  797MOL0     H 7570   3.385   0.220  -0.806  0.3362  0.3692  1.8193
  797MOL0     H 7571   3.223   0.319  -0.962  0.1116 -0.0380 -0.6499
  797MOL0     H 7572   3.101   0.242  -0.859 -0.6560  0.9047 -2.6404
  797MOL0     H 7573   3.166   0.133  -1.082  0.7648  0.9393  0.1814
  797MOL0     H 7574   3.324   0.119  -1.029 -0.4477  0.2991 -1.5705
  797MOL0     H 7575   3.408   0.580  -0.252 -2.9253 -0.4015 -0.4596
  797MOL0     H 7576   3.385   0.775  -0.131 -0.3412 -0.9481 -2.8113
  797MOL0     H 7577   3.724   0.990   0.403  0.7452  2.6093 -0.9687
  797MOL0     H 7578   3.678   1.154   0.547 -0.0637  0.4160  0.8070
  797MOL0     H 7579   3.071   1.234   0.676  2.9518 -1.2779 -1.8183
  797MOL0     H 7580   2.910   1.386   0.572 -4.3339 -1.2544  1.1715
  797MOL0     H 7581   2.563   1.406   0.254  0.9376  1.6600  2.6364
  797MOL0     H 7582   2.415   1.547   0.152  0.3643 -0.5341  0.0600
  797MOL0     H 7583   2.265   1.747   0.102 -1.4939 -1.8731 -0.6602
  797MOL0     H 7584   2.329   1.639  -0.016  3.3078  0.3875 -0.9263
  797MOL0     H 7585   2.373   1.834  -0.174  1.0631  1.3635  0.7914
  797MOL0     H 7586   2.272   1.933  -0.065 -0.6661 -0.8661 -0.2853
  797MOL0     H 7587   2.142   1.861  -0.249  1.0157 -0.6988 -0.8947
  797MOL0     H 7588   2.069   1.788  -0.105 -1.1764 -0.8576 -1.7268
  797MOL0     H 7589   2.263   1.645  -0.286  0.8475 -3.3222  0.5935
  797MOL0     H 7590   2.155   1.582  -0.152  1.8320  4.2288  2.1901
  797MOL0     H 7591   1.902   1.548  -0.498 -0.7427 -3.5109  1.7697
  797MOL0     H 7592   2.714   1.816   0.041 -0.0931 -0.9258 -1.2901
  797MOL0     H 7593   2.945   1.777   0.060 -1.9456 -0.0918  0.2000
  797MOL0     H 7594   2.972   1.699   0.217  1.9666 -1.4460 -1.0320
  797MOL0     H 7595   2.990   1.608   0.065 -0.8627 -0.7495 -0.5808
  798MOL0     O 7596   7.336   0.260   1.090 -1.0575 -0.0712  0.5684
  798MOL0     C 7597   7.350   0.325   0.986  0.0342  0.2679  0.0410
  798MOL0     O 7598   7.251   0.349   0.896 -0.5247  0.1626 -0.0936
  798MOL0     C 7599   7.140   0.263   0.899 -0.2668 -0.3590  0.0965
  798MOL0     C 7600   7.128   0.147   0.812  0.2478 -0.7827 -0.6925
  798MOL0     C 7601   7.019   0.064   0.821  0.3903  0.5838 -0.0715
  798MOL0     C 7602   6.912   0.086   0.904 -0.3300 -1.0698 -0.1706
  798MOL0     O 7603   6.803   0.006   0.898  0.5746 -0.5958  0.2832
  798MOL0     C 7604   6.743  -0.018   1.024  0.2082  0.9733  0.0945
  798MOL0     C 7605   6.654  -0.148   1.030 -0.4719 -0.6744 -0.3214
  798MOL0     C 7606   6.617  -0.176   1.177 -0.8150 -0.4242  0.3117
  798MOL0     C 7607   6.525  -0.292   1.189  0.0627 -0.2177 -0.7928
  798MOL0     C 7608   6.477  -0.337   1.335 -0.5710 -0.0222  0.8464
  798MOL0     C 7609   6.373  -0.451   1.323  0.7482  0.4922 -0.0252
  798MOL0     C 7610   6.337  -0.514   1.460  0.7836  0.4636 -0.7417
  798MOL0     C 7611   6.218  -0.603   1.435  0.4281  0.2775 -0.1177
  798MOL0     N 7612   6.157  -0.629   1.563  0.0573 -0.1438  0.4980
  798MOL0     C 7613   6.202  -0.711   1.662  0.7000 -0.3645 -0.7667
  798MOL0     C 7614   6.114  -0.692   1.764  0.1453 -0.4636 -0.1591
  798MOL0     C 7615   6.109  -0.744   1.903 -0.1982  0.4640  0.6385
  798MOL0     C 7616   6.229  -0.833   1.934  0.1761 -0.1366 -0.1924
  798MOL0     C 7617   6.196  -0.925   2.054  0.5964 -0.4207  0.0865
  798MOL0     C 7618   6.304  -1.020   2.096  1.4551  0.2497  0.3741
  798MOL0     O 7619   6.410  -0.945   2.154  0.7851 -0.3472  0.1718
  798MOL0     C 7620   6.531  -1.014   2.158 -1.1880 -0.3049 -0.3114
  798MOL0     C 7621   6.543  -1.155   2.172  0.4343  0.0376  0.6280
  798MOL0     C 7622   6.669  -1.208   2.182  0.0725 -0.2935 -0.3280
  798MOL0     C 7623   6.785  -1.132   2.202  0.4643 -0.3087  0.4296
  798MOL0     C 7624   6.907  -1.197   2.235 -0.6290 -0.0057  0.0868
  798MOL0     O 7625   7.013  -1.114   2.252  0.0836  0.1389 -0.1839
  798MOL0     C 7626   7.134  -1.166   2.199  0.0082 -0.5844 -0.7894
  798MOL0     C 7627   7.164  -1.209   2.075 -0.6586  0.0695 -0.3478
  798MOL0     C 7628   7.298  -1.224   2.032 -0.4860  0.0247  0.2959
  798MOL0     C 7629   7.403  -1.216   2.125 -0.0382  0.2986 -0.1201
  798MOL0     O 7630   7.527  -1.246   2.078 -0.2789 -0.1560  0.2773
  798MOL0     C 7631   7.627  -1.146   2.091 -0.1692 -0.4177  0.4513
  798MOL0     C 7632   7.765  -1.210   2.077  0.0301 -0.7898 -0.7720
  798MOL0     C 7633   7.775  -1.299   1.952  0.3155  0.7354 -0.5927
  798MOL0     C 7634   7.922  -1.336   1.934  0.1968 -0.8726 -0.2921
  798MOL0     C 7635   7.948  -1.442   1.824 -0.5109  0.4962  0.9219
  798MOL0     C 7636   8.068  -1.527   1.857 -0.0897  0.0371  0.3981
  798MOL0     C 7637   8.201  -1.453   1.866 -0.7161  0.7011 -0.7955
  798MOL0     C 7638   8.324  -1.544   1.897 -0.1125 -0.1869 -0.5026
  798MOL0    Cl 7639   8.320  -1.579   2.080  0.1972 -0.0726 -0.1587
  798MOL0     C 7640   7.378  -1.175   2.255  0.3781 -0.5707 -0.4716
  798MOL0     C 7641   7.237  -1.146   2.288  0.9401 -0.9180 -0.3707
  798MOL0     O 7642   6.915  -1.318   2.236  0.0917  0.2293 -0.3368
  798MOL0     C 7643   6.773  -0.993   2.187 -0.2754  0.3037 -0.0580
  798MOL0     C 7644   6.647  -0.940   2.159  0.2027  0.1701  0.2935
  798MOL0     N 7645   6.013  -0.603   1.722 -0.0002 -0.3639 -0.2228
  798MOL0     N 7646   6.046  -0.563   1.602  0.8232 -0.2739 -0.1914
  798MOL0     C 7647   6.925   0.200   0.990  0.0694 -0.0296 -0.1124
  798MOL0     C 7648   7.033   0.290   0.984 -0.5526  0.1894  0.2822
  798MOL0     C 7649   7.492   0.368   0.952  0.0429  0.3204 -1.3045
  798MOL0     C 7650   7.584   0.349   1.051 -0.8750  0.0234  0.9382
  798MOL0     C 7651   7.718   0.389   1.029 -0.5314 -0.2488  0.4564
  798MOL0     C 7652   7.759   0.441   0.905 -0.0718 -0.1782 -0.6493
  798MOL0     O 7653   7.885   0.495   0.898 -0.4897  0.0952  0.0927
  798MOL0     C 7654   7.930   0.588   0.802  0.2425  0.2396  0.2389
  798MOL0     C 7655   8.068   0.636   0.829  0.3028 -0.4240  0.0814
  798MOL0     C 7656   8.074   0.711   0.970 -0.0845 -0.2806 -0.6557
  798MOL0     C 7657   8.221   0.738   1.015 -0.0787  0.4545  1.2813
  798MOL0     C 7658   8.274   0.836   0.928 -0.3653 -0.0962 -0.4345
  798MOL0     C 7659   8.312   0.918   0.853  0.0045 -0.3258  0.7872
  798MOL0     C 7660   7.667   0.449   0.804 -0.2594 -0.1863  0.2189
  798MOL0     C 7661   7.531   0.429   0.832 -0.8239  0.1828  0.8200
  798MOL0     C 7662   7.434   0.474   0.723  0.7984 -0.4374 -0.4264
  798MOL0     H 7663   7.211   0.131   0.744 -0.6728 -1.6306 -1.6592
  798MOL0     H 7664   7.021  -0.027   0.762  2.8077  0.6729 -0.2270
  798MOL0     H 7665   6.813  -0.024   1.107 -0.7009 -0.7813  0.7802
  798MOL0     H 7666   6.678   0.065   1.051  2.3571  3.0963 -0.8847
  798MOL0     H 7667   6.724  -0.220   0.985  2.0447  1.7009 -0.5286
  798MOL0     H 7668   6.570  -0.143   0.960  1.3777  0.2950 -2.6094
  798MOL0     H 7669   6.563  -0.090   1.217  1.0958  0.6856  0.6371
  798MOL0     H 7670   6.709  -0.199   1.231 -1.5512  3.2563  3.5884
  798MOL0     H 7671   6.443  -0.278   1.118  0.8042  0.4557 -1.5430
  798MOL0     H 7672   6.591  -0.366   1.142 -0.8367  0.1154 -2.6997
  798MOL0     H 7673   6.561  -0.365   1.400 -0.1174  0.1368  0.3346
  798MOL0     H 7674   6.429  -0.250   1.382 -1.0674 -0.3115  0.8826
  798MOL0     H 7675   6.279  -0.415   1.281  0.3121  0.6931  1.0792
  798MOL0     H 7676   6.410  -0.532   1.261  0.6930  0.0240  0.5431
  798MOL0     H 7677   6.318  -0.443   1.541 -0.7572 -0.5198 -0.1921
  798MOL0     H 7678   6.424  -0.571   1.494  0.4276 -0.1473 -0.8481
  798MOL0     H 7679   6.152  -0.560   1.358 -0.3568  2.6224  1.7473
  798MOL0     H 7680   6.236  -0.700   1.387 -0.0809 -0.9210  2.0045
  798MOL0     H 7681   6.294  -0.768   1.666  0.9423 -0.1525 -2.4667
  798MOL0     H 7682   6.124  -0.666   1.979  0.9028 -0.6056  1.5678
  798MOL0     H 7683   6.018  -0.799   1.927 -2.0048  3.4199  1.1530
  798MOL0     H 7684   6.272  -0.893   1.853  0.8820 -0.6545  0.5571
  798MOL0     H 7685   6.310  -0.765   1.962 -0.2712  0.6192 -0.6901
  798MOL0     H 7686   6.101  -0.976   2.035  0.8372 -0.7970 -0.1347
  798MOL0     H 7687   6.170  -0.864   2.141 -1.9367 -1.6265  0.2571
  798MOL0     H 7688   6.329  -1.071   2.002  0.9720 -0.5788  0.6884
  798MOL0     H 7689   6.268  -1.091   2.170 -3.5838  0.8032 -1.1867
  798MOL0     H 7690   6.457  -1.220   2.157 -0.7570  2.0403 -2.1117
  798MOL0     H 7691   6.668  -1.316   2.189 -1.3297 -0.5450 -3.0979
  798MOL0     H 7692   7.089  -1.230   1.999  1.4086 -2.9344 -1.7435
  798MOL0     H 7693   7.312  -1.265   1.932 -2.8482  1.1263 -0.5817
  798MOL0     H 7694   7.624  -1.063   2.019  2.5987  0.7738  1.5775
  798MOL0     H 7695   7.618  -1.095   2.187 -0.9391 -2.6023  1.6012
  798MOL0     H 7696   7.844  -1.138   2.054 -2.1018  1.6237 -1.0529
  798MOL0     H 7697   7.784  -1.261   2.172  0.0905  1.9779  0.8093
  798MOL0     H 7698   7.718  -1.391   1.958 -0.8368  1.4855  0.6042
  798MOL0     H 7699   7.744  -1.238   1.867 -0.2145 -0.4371 -1.2553
  798MOL0     H 7700   7.974  -1.357   2.027 -0.0880 -0.9643 -0.1516
  798MOL0     H 7701   7.985  -1.255   1.895  1.1784 -2.2251 -1.6585
  798MOL0     H 7702   7.964  -1.395   1.726 -1.2896  0.5855  0.8293
  798MOL0     H 7703   7.860  -1.506   1.814 -0.7319  1.0677 -1.4268
  798MOL0     H 7704   8.040  -1.586   1.945 -1.5145  1.6787  1.0990
  798MOL0     H 7705   8.066  -1.601   1.776 -1.0343 -0.4379  0.8387
  798MOL0     H 7706   8.184  -1.382   1.947 -3.0626 -1.5247  0.8119
  798MOL0     H 7707   8.229  -1.396   1.777  2.3931 -0.0796 -0.4354
  798MOL0     H 7708   8.324  -1.637   1.840 -1.8898 -1.5788  1.6009
  798MOL0     H 7709   8.412  -1.488   1.864  0.7973 -3.0305 -3.4593
  798MOL0     H 7710   7.457  -1.147   2.324  0.5114 -0.6920 -0.5745
  798MOL0     H 7711   7.228  -1.088   2.379  0.6287 -1.9246  0.2565
  798MOL0     H 7712   6.857  -0.924   2.192  1.8420 -1.6141 -4.2504
  798MOL0     H 7713   6.632  -0.834   2.138  1.2233 -0.1121 -2.2174
  798MOL0     H 7714   6.837   0.217   1.051  2.8485  0.4235  4.1801
  798MOL0     H 7715   7.053   0.374   1.050  1.5422 -0.4762  0.5526
  798MOL0     H 7716   7.548   0.304   1.143 -1.0919 -1.3898  0.2033
  798MOL0     H 7717   7.799   0.391   1.102  0.8137 -0.8741 -0.9670
  798MOL0     H 7718   7.856   0.668   0.791 -0.3766 -0.6446 -3.1097
  798MOL0     H 7719   7.938   0.527   0.712  2.7755  0.8352 -0.0310
  798MOL0     H 7720   8.080   0.710   0.749 -3.2452 -0.6503 -0.8307
  798MOL0     H 7721   8.148   0.561   0.830  1.5916  0.8965 -0.2157
  798MOL0     H 7722   8.020   0.663   1.052 -1.8075 -1.5831 -2.4732
  798MOL0     H 7723   8.027   0.808   0.954  1.7188  0.6438 -0.5030
  798MOL0     H 7724   8.217   0.777   1.117  2.6977 -1.2810  2.1814
  798MOL0     H 7725   8.296   0.658   1.020 -0.3199  0.1834  0.6111
  798MOL0     H 7726   8.342   0.999   0.789  0.0708 -1.8249 -1.1934
  798MOL0     H 7727   7.686   0.489   0.706 -0.2859 -0.5238  0.0746
  798MOL0     H 7728   7.480   0.541   0.650  0.0379 -0.7762 -1.2352
  798MOL0     H 7729   7.385   0.386   0.681 -1.0228  0.9431 -1.3435
  798MOL0     H 7730   7.351   0.534   0.760  3.1902  3.6222 -0.9627
  799MOL0     O 7731   0.740   1.931   0.839 -0.4848  0.1281  0.7168
  799MOL0     C 7732   0.759   1.904   0.958  1.0167  1.0124 -0.2183
  799MOL0     O 7733   0.669   1.919   1.055  0.2476 -0.5029  0.0179
  799MOL0     C 7734   0.540   1.960   1.029 -0.4088 -0.2861  0.2687
  799MOL0     C 7735   0.521   2.094   0.998  0.0533 -0.2338 -0.1940
  799MOL0     C 7736   0.401   2.146   0.959  1.2748 -1.0691 -0.8716
  799MOL0     C 7737   0.290   2.055   0.950 -0.8137  0.1867  0.2314
  799MOL0     O 7738   0.166   2.098   0.920  0.3434  0.9067  0.5611
  799MOL0     C 7739   0.110   2.225   0.958 -0.7535  0.4691  0.3883
  799MOL0     C 7740   0.025   2.203   1.086 -0.3786 -0.1568 -0.4973
  799MOL0     C 7741  -0.017   2.334   1.137  0.4894 -1.1599 -0.3776
  799MOL0     C 7742  -0.131   2.395   1.061  0.3314 -0.7493 -0.1978
  799MOL0     C 7743  -0.185   2.523   1.139  0.7865 -0.4361  0.2871
  799MOL0     C 7744  -0.301   2.584   1.061  0.7457  0.4500 -1.2097
  799MOL0     C 7745  -0.411   2.659   1.140 -0.1902 -0.7218 -0.1987
  799MOL0     C 7746  -0.358   2.802   1.169  0.8089  0.4945  0.6587
  799MOL0     N 7747  -0.465   2.879   1.231  0.4618  0.0365 -0.0890
  799MOL0     C 7748  -0.558   2.838   1.322 -0.0457 -0.2147 -0.2421
  799MOL0     C 7749  -0.628   2.952   1.356 -1.2810  0.3694  0.0502
  799MOL0     C 7750  -0.715   2.966   1.471  0.7542 -0.2906  0.4012
  799MOL0     C 7751  -0.858   2.992   1.428 -0.6077  0.2671  1.4641
  799MOL0     C 7752  -0.957   2.993   1.550  0.8682  0.3912 -0.8660
  799MOL0     C 7753  -0.991   3.134   1.618 -0.5786  0.4602 -0.2422
  799MOL0     O 7754  -1.031   3.224   1.507 -0.2378 -0.4781 -0.4967
  799MOL0     C 7755  -1.115   3.324   1.544  0.1643 -0.0209  0.0607
  799MOL0     C 7756  -1.203   3.379   1.451  1.0092 -0.0450 -0.7686
  799MOL0     C 7757  -1.280   3.489   1.472 -0.2353  0.1936 -0.0242
  799MOL0     C 7758  -1.290   3.548   1.596  0.0840  0.3443 -0.4497
  799MOL0     C 7759  -1.386   3.655   1.613 -0.4363 -0.3340 -1.2246
  799MOL0     O 7760  -1.367   3.725   1.723  0.8990 -0.3887  0.1681
  799MOL0     C 7761  -1.453   3.828   1.752  0.6779 -0.3331 -0.5793
  799MOL0     C 7762  -1.509   3.922   1.663  0.0688  0.9275 -0.3198
  799MOL0     C 7763  -1.619   4.002   1.706 -0.2214 -0.2422  0.0962
  799MOL0     C 7764  -1.663   4.012   1.833  0.5568  0.2386 -0.2477
  799MOL0     O 7765  -1.768   4.094   1.875 -0.7179  0.8649 -0.4632
  799MOL0     C 7766  -1.801   4.214   1.805 -0.2880  0.4489  0.5134
  799MOL0     C 7767  -1.680   4.319   1.807 -0.6488 -0.6441  0.6857
  799MOL0     C 7768  -1.722   4.462   1.854 -0.0177  0.4048  0.4711
  799MOL0     C 7769  -1.794   4.549   1.751 -0.6268 -0.1450  1.1155
  799MOL0     C 7770  -1.846   4.685   1.787  0.6323 -0.3043  0.5942
  799MOL0     C 7771  -1.976   4.670   1.883 -0.0373  0.7701  0.6147
  799MOL0     C 7772  -2.022   4.795   1.950  0.0613  0.3113 -0.0488
  799MOL0     C 7773  -2.144   4.777   2.043  0.2487 -0.3026  0.0260
  799MOL0    Cl 7774  -2.223   4.939   2.073 -0.0007  0.0083 -0.1089
  799MOL0     C 7775  -1.592   3.925   1.927 -0.7175 -0.6756 -0.2777
  799MOL0     C 7776  -1.493   3.838   1.881 -0.1376  0.3765 -0.8829
  799MOL0     O 7777  -1.471   3.666   1.532  0.8093 -0.4154 -0.0882
  799MOL0     C 7778  -1.196   3.503   1.694 -0.4047  0.0585  0.5269
  799MOL0     C 7779  -1.114   3.394   1.660  0.6688 -0.7013  0.3850
  799MOL0     N 7780  -0.565   3.053   1.296  0.3809  0.2778 -0.4577
  799MOL0     N 7781  -0.475   3.015   1.221  0.0208  0.2376 -0.3564
  799MOL0     C 7782   0.313   1.917   0.980 -0.3523 -1.0995 -0.4275
  799MOL0     C 7783   0.441   1.865   1.023  0.1380  0.0465  0.4977
  799MOL0     C 7784   0.907   1.883   0.991 -0.4133  0.9881 -0.1782
  799MOL0     C 7785   0.989   1.816   0.901 -0.8068  0.7414  0.4460
  799MOL0     C 7786   1.132   1.806   0.916  0.6919 -0.8493  1.5188
  799MOL0     C 7787   1.196   1.873   1.019 -0.3979 -0.9762 -0.7748
  799MOL0     O 7788   1.333   1.864   1.028 -0.3952  0.7378  0.5448
  799MOL0     C 7789   1.384   1.985   0.980  0.4031  0.1509  0.1942
  799MOL0     C 7790   1.490   2.016   1.085 -0.0035  0.8038 -0.1062
  799MOL0     C 7791   1.487   2.173   1.108 -0.0354 -0.5214 -0.2454
  799MOL0     C 7792   1.371   2.221   1.195  0.5865 -0.1922  0.3456
  799MOL0     C 7793   1.357   2.149   1.315  0.4654 -0.5316 -0.5194
  799MOL0     C 7794   1.354   2.101   1.425 -0.1020  0.1365  0.8096
  799MOL0     C 7795   1.112   1.935   1.114  0.5380  0.7319 -0.3392
  799MOL0     C 7796   0.970   1.940   1.100 -0.7762 -0.2489 -0.6140
  799MOL0     C 7797   0.896   2.026   1.198 -0.6747 -0.7314 -0.1975
  799MOL0     H 7798   0.605   2.162   1.002 -1.5326  1.7636  3.1274
  799MOL0     H 7799   0.388   2.252   0.938  1.6986 -1.3056 -2.4953
  799MOL0     H 7800   0.181   2.305   0.979 -0.5474  0.3226  0.2586
  799MOL0     H 7801   0.062   2.268   0.869  1.0266 -0.7571 -1.2580
  799MOL0     H 7802   0.082   2.148   1.161  1.8692  1.8301 -0.6462
  799MOL0     H 7803  -0.063   2.144   1.057 -1.0467  1.1178 -1.1903
  799MOL0     H 7804   0.072   2.396   1.140  0.2482 -0.8363  0.7667
  799MOL0     H 7805  -0.056   2.305   1.235 -0.4716  0.7260 -0.1465
  799MOL0     H 7806  -0.092   2.437   0.968 -2.6254 -1.5919 -1.9727
  799MOL0     H 7807  -0.209   2.326   1.027  0.2135  0.9985 -3.9137
  799MOL0     H 7808  -0.220   2.496   1.239  1.0179  2.1025  1.1220
  799MOL0     H 7809  -0.108   2.598   1.160 -0.3002  0.1841  2.3710
  799MOL0     H 7810  -0.276   2.651   0.978 -0.1352  0.4321 -1.4978
  799MOL0     H 7811  -0.366   2.508   1.015  0.4884 -0.1538  0.0906
  799MOL0     H 7812  -0.443   2.614   1.234  1.6945 -2.4576 -0.3376
  799MOL0     H 7813  -0.503   2.670   1.081  0.7793  2.7294 -1.2705
  799MOL0     H 7814  -0.270   2.806   1.234  1.4011 -1.2722  0.0240
  799MOL0     H 7815  -0.321   2.847   1.076  2.6319 -2.4580 -0.2007
  799MOL0     H 7816  -0.569   2.738   1.363  1.3007 -1.2228 -2.1986
  799MOL0     H 7817  -0.708   2.869   1.521  0.4618  1.0555  3.2452
  799MOL0     H 7818  -0.692   3.044   1.545 -2.2722 -0.7786  2.0313
  799MOL0     H 7819  -0.860   3.082   1.366  2.2936  0.5322  1.6191
  799MOL0     H 7820  -0.880   2.902   1.370 -4.4120 -1.5894  5.1499
  799MOL0     H 7821  -0.914   2.927   1.625 -0.5723 -1.2354 -1.4287
  799MOL0     H 7822  -1.049   2.958   1.503  1.8303 -0.8450 -1.8802
  799MOL0     H 7823  -0.905   3.167   1.678  1.6448 -1.4572 -2.1681
  799MOL0     H 7824  -1.081   3.114   1.678  0.7251 -0.5427  1.5014
  799MOL0     H 7825  -1.201   3.327   1.356  0.3831 -0.7914 -0.3872
  799MOL0     H 7826  -1.327   3.534   1.386 -0.1966 -2.3095 -1.4614
  799MOL0     H 7827  -1.471   3.924   1.562  1.2819  2.1402  0.1160
  799MOL0     H 7828  -1.664   4.065   1.630 -0.2562 -0.9355 -0.4686
  799MOL0     H 7829  -1.834   4.185   1.704  0.1936 -1.2645  0.8186
  799MOL0     H 7830  -1.890   4.239   1.864 -0.5241 -0.7214  0.6865
  799MOL0     H 7831  -1.597   4.288   1.871 -2.4285 -3.2914  1.8852
  799MOL0     H 7832  -1.641   4.332   1.706 -0.9686 -0.7496  0.5474
  799MOL0     H 7833  -1.782   4.446   1.944  0.3369  0.3902  0.7061
  799MOL0     H 7834  -1.633   4.517   1.887  0.7160 -1.1211  1.1640
  799MOL0     H 7835  -1.881   4.508   1.697  0.1700 -0.0150 -0.3278
  799MOL0     H 7836  -1.714   4.555   1.677 -1.7035  1.5689  0.0190
  799MOL0     H 7837  -1.869   4.759   1.710 -0.2780 -0.8191  0.3572
  799MOL0     H 7838  -1.769   4.745   1.837  1.4963 -0.7515 -0.1732
  799MOL0     H 7839  -2.062   4.629   1.829 -0.6628  1.6371  0.9309
  799MOL0     H 7840  -1.940   4.610   1.968 -0.3943  1.2749  1.1301
  799MOL0     H 7841  -2.047   4.855   1.862  2.9291  0.9998 -0.5040
  799MOL0     H 7842  -1.949   4.845   2.015 -0.9224  1.6910  0.0310
  799MOL0     H 7843  -2.209   4.713   1.983  1.1724 -1.0305 -0.2267
  799MOL0     H 7844  -2.115   4.723   2.133  0.9170  0.0911  0.0522
  799MOL0     H 7845  -1.613   3.941   2.033 -1.9799 -0.8623 -0.4772
  799MOL0     H 7846  -1.437   3.773   1.947 -0.4799  0.5468 -0.4156
  799MOL0     H 7847  -1.197   3.537   1.797 -0.7775 -0.8063  0.8200
  799MOL0     H 7848  -1.047   3.345   1.731  3.4637 -3.0570 -3.4921
  799MOL0     H 7849   0.219   1.863   0.975 -0.7059 -0.9783  2.7220
  799MOL0     H 7850   0.453   1.758   1.033  0.4785 -0.1428 -1.5378
  799MOL0     H 7851   0.929   1.774   0.821  0.5562  0.0118 -0.2328
  799MOL0     H 7852   1.206   1.761   0.850  2.4692  2.4153  1.0976
  799MOL0     H 7853   1.315   2.068   0.962 -0.9652 -1.2618 -1.4630
  799MOL0     H 7854   1.430   1.969   0.882 -1.5690  2.8808 -1.3130
  799MOL0     H 7855   1.590   1.995   1.045  1.2273  2.7275  1.7190
  799MOL0     H 7856   1.481   1.950   1.171  1.1366 -0.9480 -1.2733
  799MOL0     H 7857   1.489   2.212   1.006 -0.8998 -0.4224 -0.2380
  799MOL0     H 7858   1.579   2.214   1.149 -0.2614  1.6482 -1.7160
  799MOL0     H 7859   1.400   2.324   1.217  0.7824 -0.6372  2.2833
  799MOL0     H 7860   1.276   2.223   1.141  0.7600  0.7267  0.0553
  799MOL0     H 7861   1.341   2.048   1.516 -4.1068  0.5802  0.6733
  799MOL0     H 7862   1.154   1.988   1.199  0.6620 -1.4035  0.9827
  799MOL0     H 7863   0.955   2.086   1.268 -2.4239  0.8726 -0.0251
  799MOL0     H 7864   0.836   2.099   1.142 -1.6436 -1.0282  0.4274
  799MOL0     H 7865   0.835   1.957   1.257  0.7670 -1.2607  0.7366
  800MOL0     O 7866   2.835   6.335   4.231  0.0556  0.4806  0.3558
  800MOL0     C 7867   2.794   6.383   4.337  0.1531 -0.2259  0.2002
  800MOL0     O 7868   2.790   6.321   4.457 -0.2223  0.5603 -0.6583
  800MOL0     C 7869   2.854   6.202   4.475 -0.0089 -0.4645 -0.5187
  800MOL0     C 7870   2.782   6.101   4.529 -0.7679 -0.9337 -1.1251
  800MOL0     C 7871   2.842   5.972   4.546 -0.5738  0.2730  0.6889
  800MOL0     C 7872   2.962   5.954   4.482  0.2940  0.3141 -1.3499
  800MOL0     O 7873   3.005   5.823   4.473  0.7822 -0.1925  0.0746
  800MOL0     C 7874   2.917   5.726   4.410 -0.9098  0.6446 -0.0630
  800MOL0     C 7875   2.900   5.612   4.518  0.2775 -0.0993  0.1151
  800MOL0     C 7876   3.030   5.538   4.539  0.4166 -0.2200 -0.0634
  800MOL0     C 7877   3.066   5.463   4.403 -0.0763 -0.0118 -0.1871
  800MOL0     C 7878   3.194   5.385   4.398 -0.1981  0.0202  0.0718
  800MOL0     C 7879   3.214   5.293   4.279 -0.0413  0.8295 -0.4109
  800MOL0     C 7880   3.355   5.238   4.298 -0.1233 -0.4526  0.4020
  800MOL0     C 7881   3.365   5.108   4.206 -0.0453 -0.2222 -0.1955
  800MOL0     N 7882   3.486   5.030   4.236 -0.2095  0.0929  0.0197
  800MOL0     C 7883   3.540   4.941   4.145  0.0315  0.6987 -0.6432
  800MOL0     C 7884   3.651   4.897   4.215  0.5007  0.5696  0.6969
  800MOL0     C 7885   3.765   4.801   4.163  0.2295 -1.2125 -0.3336
  800MOL0     C 7886   3.713   4.662   4.110 -0.3817 -0.2168  0.4568
  800MOL0     C 7887   3.624   4.602   4.221 -0.5099  0.4966  0.0114
  800MOL0     C 7888   3.706   4.592   4.353 -0.0751 -0.2089  0.5277
  800MOL0     O 7889   3.819   4.518   4.324 -0.5538  0.0569  0.1675
  800MOL0     C 7890   3.926   4.547   4.406 -0.1795 -0.8456  0.8395
  800MOL0     C 7891   4.029   4.626   4.359  0.0578  0.1659 -0.4926
  800MOL0     C 7892   4.138   4.660   4.444 -0.1957  1.0256  0.8730
  800MOL0     C 7893   4.148   4.598   4.568  0.1372 -0.9407  0.9539
  800MOL0     C 7894   4.256   4.642   4.669 -0.4868  0.2823  0.0062
  800MOL0     O 7895   4.343   4.747   4.634  0.9796  0.9698 -0.7354
  800MOL0     C 7896   4.413   4.815   4.738 -0.2021 -0.1212 -1.2709
  800MOL0     C 7897   4.376   4.831   4.869 -0.9158 -0.1245  0.2966
  800MOL0     C 7898   4.444   4.900   4.971 -0.0057 -0.2620  0.6351
  800MOL0     C 7899   4.560   4.971   4.928 -0.1597 -0.8776 -1.4170
  800MOL0     O 7900   4.644   5.047   5.010 -1.2289  0.0811  0.3133
  800MOL0     C 7901   4.651   5.016   5.149 -0.9200 -0.3594 -0.3191
  800MOL0     C 7902   4.786   5.052   5.195 -0.2596 -0.3557  0.4675
  800MOL0     C 7903   4.803   5.200   5.191 -0.1866  0.3723  0.0883
  800MOL0     C 7904   4.944   5.233   5.249  0.2662 -0.3448  0.1222
  800MOL0     C 7905   4.990   5.381   5.237 -0.8133 -0.3837 -0.7290
  800MOL0     C 7906   5.143   5.398   5.262  0.6125 -0.6852 -0.2081
  800MOL0     C 7907   5.180   5.548   5.257  0.1835  1.0217 -0.1610
  800MOL0     C 7908   5.322   5.555   5.321 -1.3250  0.3383  0.4257
  800MOL0    Cl 7909   5.440   5.437   5.260 -0.2196  0.1320  0.2770
  800MOL0     C 7910   4.594   4.976   4.792 -0.6095  1.0322 -0.0088
  800MOL0     C 7911   4.528   4.886   4.703 -0.0203 -0.6603 -0.0472
  800MOL0     O 7912   4.265   4.580   4.774 -0.3742  0.2285 -0.5994
  800MOL0     C 7913   4.044   4.512   4.605  1.3088  0.7570 -0.4586
  800MOL0     C 7914   3.937   4.483   4.525  0.1312 -0.5297 -0.4762
  800MOL0     N 7915   3.660   4.970   4.333  1.0653  0.3516  0.3719
  800MOL0     N 7916   3.562   5.041   4.348  0.2851 -0.2333 -0.4040
  800MOL0     C 7917   3.028   6.047   4.421 -0.4089 -0.6521  0.1434
  800MOL0     C 7918   2.977   6.170   4.417  0.1523 -1.1644  0.6944
  800MOL0     C 7919   2.724   6.520   4.333 -0.2824  0.1965 -0.3311
  800MOL0     C 7920   2.672   6.566   4.455 -0.2563 -0.8178  0.0575
  800MOL0     C 7921   2.613   6.686   4.466  0.5857 -0.3354  0.7027
  800MOL0     C 7922   2.603   6.779   4.361 -0.4364  0.8013  0.3935
  800MOL0     O 7923   2.546   6.895   4.386 -0.2939  0.4813  0.4025
  800MOL0     C 7924   2.628   7.005   4.353 -0.6486 -0.2659 -0.4548
  800MOL0     C 7925   2.582   7.135   4.430  0.2270 -0.3081  0.2622
  800MOL0     C 7926   2.460   7.208   4.374 -0.3079  0.0534 -0.4592
  800MOL0     C 7927   2.509   7.302   4.255 -0.1946 -0.0340 -0.6076
  800MOL0     C 7928   2.374   7.376   4.219 -0.3643 -0.4499 -0.2513
  800MOL0     C 7929   2.284   7.448   4.197  0.7800  1.7793  0.1260
  800MOL0     C 7930   2.655   6.734   4.237 -0.0470  0.6215  0.5664
  800MOL0     C 7931   2.715   6.608   4.219 -0.1337 -1.0995 -0.6154
  800MOL0     C 7932   2.774   6.583   4.087 -0.2061 -0.0047  1.0353
  800MOL0     H 7933   2.680   6.115   4.561  0.2884  2.7482  1.1404
  800MOL0     H 7934   2.779   5.898   4.594  0.6626 -0.5311  1.1383
  800MOL0     H 7935   2.826   5.783   4.391 -2.1134 -0.3604  2.2749
  800MOL0     H 7936   2.956   5.701   4.311 -0.9424 -0.1655  0.1264
  800MOL0     H 7937   2.820   5.542   4.494  1.8138 -1.8067 -0.2567
  800MOL0     H 7938   2.856   5.663   4.604 -2.1317  0.8731 -1.5876
  800MOL0     H 7939   3.017   5.472   4.626  0.6887  1.5826  1.4144
  800MOL0     H 7940   3.109   5.608   4.569 -2.1141  1.7464  2.6402
  800MOL0     H 7941   2.985   5.394   4.377 -1.6891  2.2590 -1.5681
  800MOL0     H 7942   3.071   5.530   4.317  0.1746 -1.3592 -1.2375
  800MOL0     H 7943   3.278   5.455   4.397  2.7193 -3.1273  1.0643
  800MOL0     H 7944   3.211   5.330   4.491  0.5969 -1.5890 -0.9721
  800MOL0     H 7945   3.137   5.215   4.272  0.4112  0.1941  1.2304
  800MOL0     H 7946   3.216   5.355   4.189 -0.6161  0.2524 -0.8358
  800MOL0     H 7947   3.370   5.203   4.400  0.0087  2.3572  1.4052
  800MOL0     H 7948   3.430   5.308   4.261  0.0097 -1.6258 -1.7447
  800MOL0     H 7949   3.280   5.042   4.224 -0.3005  0.3469  0.7391
  800MOL0     H 7950   3.369   5.128   4.099  2.4433 -1.8219 -0.4991
  800MOL0     H 7951   3.488   4.904   4.057  0.6641  2.8657 -2.0065
  800MOL0     H 7952   3.816   4.853   4.081  0.5443 -1.2797 -0.1800
  800MOL0     H 7953   3.844   4.794   4.238 -1.9820 -0.3240  2.2085
  800MOL0     H 7954   3.655   4.674   4.018  0.7722 -3.7708 -0.8906
  800MOL0     H 7955   3.788   4.586   4.084 -1.1211 -0.1369 -2.2628
  800MOL0     H 7956   3.579   4.507   4.191 -1.0172  1.0761 -1.1234
  800MOL0     H 7957   3.534   4.661   4.235  1.4620  3.4299  1.3114
  800MOL0     H 7958   3.642   4.532   4.419  0.7461 -0.0591  1.4857
  800MOL0     H 7959   3.711   4.689   4.403 -0.2766  1.2564 -2.1088
  800MOL0     H 7960   4.026   4.674   4.261  5.1248 -2.0575 -2.0572
  800MOL0     H 7961   4.208   4.735   4.409  1.4251 -1.3075 -1.3240
  800MOL0     H 7962   4.280   4.789   4.898 -0.6881 -0.4457  0.5726
  800MOL0     H 7963   4.400   4.918   5.068 -1.4295  4.6900 -0.6537
  800MOL0     H 7964   4.571   5.071   5.199 -0.7527  1.0479 -1.5348
  800MOL0     H 7965   4.633   4.910   5.168  0.1821 -1.0002 -2.4618
  800MOL0     H 7966   4.809   5.012   5.294 -1.2063 -0.6512  0.5705
  800MOL0     H 7967   4.862   5.018   5.123  1.6636  0.2839  2.0924
  800MOL0     H 7968   4.789   5.237   5.089  2.0721 -1.3091 -0.9286
  800MOL0     H 7969   4.725   5.236   5.258 -2.3661 -2.3347 -0.8385
  800MOL0     H 7970   5.024   5.179   5.197  0.7880 -0.6007  1.1453
  800MOL0     H 7971   4.946   5.207   5.356  2.1981 -0.7085  0.0357
  800MOL0     H 7972   4.935   5.437   5.313 -1.2516  2.4848 -2.9824
  800MOL0     H 7973   4.963   5.433   5.145 -0.4961  1.8118  0.3541
  800MOL0     H 7974   5.163   5.351   5.358  1.7852  2.1812  1.0598
  800MOL0     H 7975   5.201   5.343   5.188  1.9454 -1.1739  1.1479
  800MOL0     H 7976   5.108   5.604   5.317  0.8681  0.8001  0.8855
  800MOL0     H 7977   5.170   5.577   5.152  4.0024  0.3432 -0.8516
  800MOL0     H 7978   5.368   5.655   5.320 -0.4420  0.1411  4.1104
  800MOL0     H 7979   5.317   5.521   5.425 -4.2125  2.3732  1.0676
  800MOL0     H 7980   4.682   5.031   4.760 -1.3334  1.4275 -1.4342
  800MOL0     H 7981   4.559   4.882   4.599  0.3883 -2.8059  0.0977
  800MOL0     H 7982   4.044   4.460   4.700  1.8231 -1.3328 -1.5314
  800MOL0     H 7983   3.852   4.423   4.556 -0.5562  1.2899  1.3502
  800MOL0     H 7984   3.127   6.032   4.378 -0.6449  0.4566 -0.8312
  800MOL0     H 7985   3.044   6.243   4.372 -1.6364  0.2977  0.2924
  800MOL0     H 7986   2.672   6.499   4.540 -2.7405  0.1756  0.9317
  800MOL0     H 7987   2.588   6.723   4.565 -2.1544  2.9925 -0.9905
  800MOL0     H 7988   2.616   7.036   4.249 -2.6056  0.5366 -0.0491
  800MOL0     H 7989   2.733   6.979   4.368 -0.6274 -0.5439 -1.0552
  800MOL0     H 7990   2.668   7.201   4.434 -0.4023  0.6375 -1.1373
  800MOL0     H 7991   2.549   7.091   4.525  0.3844 -2.1248 -0.4950
  800MOL0     H 7992   2.417   7.274   4.450  0.1230 -1.2381  0.9357
  800MOL0     H 7993   2.396   7.132   4.328 -2.4313 -1.1645  4.0061
  800MOL0     H 7994   2.592   7.367   4.282  0.0380 -1.5377  2.7821
  800MOL0     H 7995   2.522   7.229   4.174 -2.2045 -3.2001  1.6491
  800MOL0     H 7996   2.200   7.510   4.173 -0.3672  0.3801  0.4130
  800MOL0     H 7997   2.660   6.802   4.153 -1.2547 -1.1610 -1.0390
  800MOL0     H 7998   2.736   6.654   4.012  0.4089  0.4092  1.1044
  800MOL0     H 7999   2.883   6.592   4.089  0.1474 -2.2061 -2.1156
  800MOL0     H 8000   2.746   6.495   4.029  1.1646  0.2545 -0.0646
  801MOL0     O 8001   7.060   7.940   0.660  0.7801  0.3557 -1.0324
  801MOL0     C 8002   6.952   7.888   0.689  0.3577  0.6452 -0.0261
  801MOL0     O 8003   6.917   7.837   0.811  0.8183  0.0667  0.3961
  801MOL0     C 8004   7.000   7.810   0.920  0.0961  0.0480  0.2991
  801MOL0     C 8005   7.138   7.821   0.931 -0.3978 -0.4342 -0.1612
  801MOL0     C 8006   7.218   7.782   1.046  0.6070 -1.4434 -0.5366
  801MOL0     C 8007   7.146   7.745   1.163  0.3528 -0.0933  1.0702
  801MOL0     O 8008   7.222   7.710   1.275 -0.1671  0.0447  0.1382
  801MOL0     C 8009   7.163   7.646   1.386  0.3088  0.0800  0.3099
  801MOL0     C 8010   7.125   7.496   1.361  0.2850 -0.3510 -0.3506
  801MOL0     C 8011   7.111   7.417   1.499  0.4487  0.0001  1.1745
  801MOL0     C 8012   7.003   7.470   1.584 -0.2802 -0.5410 -0.6380
  801MOL0     C 8013   6.886   7.383   1.595  0.1257  0.4038 -0.3306
  801MOL0     C 8014   6.789   7.388   1.480  0.0319 -0.9465  0.5581
  801MOL0     C 8015   6.675   7.289   1.505 -0.8444 -0.9452  0.1448
  801MOL0     C 8016   6.622   7.227   1.381 -0.4096  0.2984  0.5339
  801MOL0     N 8017   6.527   7.308   1.299 -0.6852  0.0974 -0.2957
  801MOL0     C 8018   6.392   7.288   1.298  0.3224  0.6074 -0.2103
  801MOL0     C 8019   6.345   7.394   1.245  0.9509  0.0665 -0.3624
  801MOL0     C 8020   6.200   7.424   1.228 -0.4574  0.0697  0.5537
  801MOL0     C 8021   6.123   7.436   1.359  0.2903 -0.7840  1.5120
  801MOL0     C 8022   6.177   7.534   1.464 -0.1373  0.1402 -0.1786
  801MOL0     C 8023   6.213   7.674   1.413  0.6438 -0.1718 -0.1933
  801MOL0     O 8024   6.255   7.771   1.510  0.6406  0.1582 -0.6608
  801MOL0     C 8025   6.317   7.874   1.446 -0.9042 -0.3993  1.4049
  801MOL0     C 8026   6.263   7.939   1.333  0.5027  0.5056  0.1684
  801MOL0     C 8027   6.327   8.041   1.271  1.3257  0.7855 -0.3295
  801MOL0     C 8028   6.435   8.101   1.327 -0.7534  0.2056 -0.0323
  801MOL0     C 8029   6.491   8.221   1.273  1.0430 -0.5365  1.1958
  801MOL0     O 8030   6.588   8.269   1.351  0.7021  0.0503  0.2265
  801MOL0     C 8031   6.663   8.370   1.304 -0.2224 -0.4337 -0.2794
  801MOL0     C 8032   6.769   8.340   1.214 -0.6134 -0.4737  0.5635
  801MOL0     C 8033   6.861   8.446   1.188  0.0452  0.4070  0.0477
  801MOL0     C 8034   6.850   8.575   1.242 -0.1494 -0.2325  0.0585
  801MOL0     O 8035   6.950   8.657   1.184  0.2569  0.6265  0.3066
  801MOL0     C 8036   6.943   8.795   1.216 -0.1333 -0.3837 -0.1817
  801MOL0     C 8037   7.062   8.869   1.160  0.0404 -0.0584  0.0876
  801MOL0     C 8038   7.017   9.012   1.106 -0.8135  0.2670  0.1859
  801MOL0     C 8039   7.134   9.104   1.074 -0.0442 -0.3594  0.1817
  801MOL0     C 8040   7.089   9.232   1.011  0.2706 -0.0503 -0.2543
  801MOL0     C 8041   7.084   9.244   0.856 -0.2431 -0.5168  0.0019
  801MOL0     C 8042   7.218   9.218   0.791  0.2863 -0.5042 -0.4459
  801MOL0     C 8043   7.201   9.257   0.650 -0.2194 -0.3252 -0.0188
  801MOL0    Cl 8044   7.357   9.227   0.566  0.1458  0.1123  0.2918
  801MOL0     C 8045   6.728   8.602   1.297  0.9835 -0.7113 -0.3719
  801MOL0     C 8046   6.637   8.504   1.334 -0.1686  0.9672  2.2529
  801MOL0     O 8047   6.447   8.271   1.168 -0.4147 -0.4422  0.0454
  801MOL0     C 8048   6.498   8.041   1.441  0.4932 -0.1706 -0.2960
  801MOL0     C 8049   6.438   7.934   1.501 -0.3004  0.9379 -0.9484
  801MOL0     N 8050   6.451   7.479   1.214  0.2431 -0.1270 -1.0671
  801MOL0     N 8051   6.561   7.426   1.245 -0.2904  1.3112  0.5081
  801MOL0     C 8052   7.011   7.734   1.150  0.1313  0.1652 -0.6647
  801MOL0     C 8053   6.934   7.764   1.034  0.5820  0.1742 -0.7321
  801MOL0     C 8054   6.839   7.894   0.588 -0.3178 -0.0255  0.6304
  801MOL0     C 8055   6.721   7.834   0.620 -0.1173 -0.5182  0.2026
  801MOL0     C 8056   6.616   7.815   0.526  0.5039 -0.2406  0.3016
  801MOL0     C 8057   6.637   7.853   0.391  0.1043 -0.1519  0.4084
  801MOL0     O 8058   6.547   7.816   0.292  0.1389  0.5730  0.1472
  801MOL0     C 8059   6.431   7.740   0.328 -0.0875  0.2485  0.7996
  801MOL0     C 8060   6.330   7.835   0.387 -0.1528  0.8541  0.8965
  801MOL0     C 8061   6.201   7.764   0.430  0.5450 -0.2345  0.3393
  801MOL0     C 8062   6.112   7.869   0.504  0.3891  0.2038 -0.3131
  801MOL0     C 8063   5.979   7.816   0.543 -0.3006 -0.1039 -0.4883
  801MOL0     C 8064   5.883   7.772   0.603 -0.8396  0.8070  1.1958
  801MOL0     C 8065   6.753   7.925   0.364 -0.0935 -1.4318 -0.1995
  801MOL0     C 8066   6.854   7.941   0.457  0.1375  0.1670  0.1416
  801MOL0     C 8067   6.991   7.987   0.401  0.0715  0.3394  0.6595
  801MOL0     H 8068   7.197   7.846   0.844 -0.0011  1.7713  0.6864
  801MOL0     H 8069   7.326   7.782   1.053  0.6892 -1.0517 -1.6067
  801MOL0     H 8070   7.230   7.655   1.472 -0.1522  2.0397  0.4994
  801MOL0     H 8071   7.075   7.700   1.419  1.3040  0.6462  2.1565
  801MOL0     H 8072   7.204   7.444   1.306 -0.8037 -0.3763 -1.9362
  801MOL0     H 8073   7.044   7.495   1.287  0.8628  1.4319 -1.0523
  801MOL0     H 8074   7.207   7.415   1.551 -0.1532  0.0449  2.3083
  801MOL0     H 8075   7.088   7.313   1.475 -1.1270  0.9387 -1.8579
  801MOL0     H 8076   7.046   7.486   1.684 -2.8537 -0.3583  0.5186
  801MOL0     H 8077   6.966   7.570   1.561  0.5014  0.3740  1.7714
  801MOL0     H 8078   6.929   7.286   1.621  0.6852  0.5380 -0.7230
  801MOL0     H 8079   6.837   7.410   1.689 -0.0382  1.0928 -0.6085
  801MOL0     H 8080   6.754   7.490   1.462  2.9971 -0.1224 -1.2409
  801MOL0     H 8081   6.852   7.356   1.396  1.3682 -0.7522  1.4594
  801MOL0     H 8082   6.602   7.346   1.563  1.3086  1.8157  0.3338
  801MOL0     H 8083   6.709   7.210   1.572 -0.1223  0.5154  1.5503
  801MOL0     H 8084   6.705   7.193   1.319 -1.2466  1.0159 -1.0652
  801MOL0     H 8085   6.576   7.135   1.419  0.7980  0.4106  2.3412
  801MOL0     H 8086   6.343   7.195   1.325  3.3019 -0.3408  2.5621
  801MOL0     H 8087   6.197   7.517   1.169  0.6337 -0.5819 -0.5792
  801MOL0     H 8088   6.140   7.372   1.154  0.7551  1.4192 -1.4842
  801MOL0     H 8089   6.026   7.479   1.332  0.6874 -1.2652 -0.9574
  801MOL0     H 8090   6.110   7.340   1.409 -1.3273 -0.9758  0.7975
  801MOL0     H 8091   6.271   7.489   1.498  0.0973 -2.7907 -3.9715
  801MOL0     H 8092   6.117   7.537   1.555 -2.0594  3.6090 -1.3874
  801MOL0     H 8093   6.120   7.711   1.368 -1.0192  0.5078  3.4369
  801MOL0     H 8094   6.291   7.655   1.339 -0.0856  0.9069 -1.2671
  801MOL0     H 8095   6.166   7.914   1.290 -0.3028  1.3084  1.4218
  801MOL0     H 8096   6.270   8.084   1.189 -0.9094 -2.7976 -0.8831
  801MOL0     H 8097   6.788   8.246   1.165  4.1122  0.2976  0.4859
  801MOL0     H 8098   6.942   8.429   1.118 -2.1792 -1.2922 -2.2980
  801MOL0     H 8099   6.856   8.837   1.165 -0.0307  1.6597  1.2325
  801MOL0     H 8100   6.936   8.802   1.325  2.8206 -1.3509  0.1758
  801MOL0     H 8101   7.147   8.874   1.229 -0.6706  1.2848  0.9056
  801MOL0     H 8102   7.107   8.808   1.081  1.6875 -0.1045  1.0103
  801MOL0     H 8103   6.963   8.995   1.012 -1.3150  0.3191  0.4587
  801MOL0     H 8104   6.948   9.063   1.174  3.0960  4.0887  1.7089
  801MOL0     H 8105   7.189   9.046   0.999 -0.0758 -0.7528  0.4614
  801MOL0     H 8106   7.189   9.130   1.164  0.3218  2.1342 -0.6670
  801MOL0     H 8107   7.144   9.316   1.054 -1.4421  0.7559  0.4536
  801MOL0     H 8108   6.991   9.252   1.055  0.6597  0.7347  0.2702
  801MOL0     H 8109   7.005   9.182   0.812 -1.8376  0.8820  0.7373
  801MOL0     H 8110   7.068   9.349   0.831  0.5568 -0.7053 -1.3422
  801MOL0     H 8111   7.251   9.115   0.803 -1.5687 -0.9494  1.6656
  801MOL0     H 8112   7.301   9.275   0.834  0.2768 -1.4236  0.8468
  801MOL0     H 8113   7.126   9.229   0.577  1.7927  1.2810 -2.9078
  801MOL0     H 8114   7.186   9.365   0.654  0.0830 -0.2437 -0.9174
  801MOL0     H 8115   6.693   8.704   1.313 -1.5012 -1.4179 -0.7653
  801MOL0     H 8116   6.544   8.523   1.385 -0.8789 -1.0586  1.8298
  801MOL0     H 8117   6.587   8.081   1.489  0.7423 -0.6046 -0.3946
  801MOL0     H 8118   6.489   7.896   1.589  1.5170  0.6442 -2.0730
  801MOL0     H 8119   6.940   7.706   1.228 -0.5755 -0.7424 -1.6137
  801MOL0     H 8120   6.828   7.741   1.038  0.5336  0.6010  0.8408
  801MOL0     H 8121   6.709   7.798   0.722 -4.4050  1.3179  0.5712
  801MOL0     H 8122   6.531   7.756   0.559 -1.0173  0.4481 -2.0659
  801MOL0     H 8123   6.456   7.661   0.399  1.3440 -0.1087 -0.0610
  801MOL0     H 8124   6.391   7.690   0.239 -1.1579  1.4219  0.5940
  801MOL0     H 8125   6.307   7.905   0.307 -1.8860  2.2877  2.5331
  801MOL0     H 8126   6.371   7.889   0.473  0.0284  0.6830  0.9198
  801MOL0     H 8127   6.222   7.679   0.496 -3.1770 -2.4341 -0.9704
  801MOL0     H 8128   6.160   7.732   0.334  1.6662  3.2673 -1.4846
  801MOL0     H 8129   6.164   7.907   0.593 -1.1416 -2.6658  1.9498
  801MOL0     H 8130   6.090   7.949   0.432 -1.0641  0.1366  0.0293
  801MOL0     H 8131   5.801   7.723   0.652 -0.1342  0.8354  2.4436
  801MOL0     H 8132   6.778   7.946   0.261  2.1081 -1.7844  0.2029
  801MOL0     H 8133   6.987   8.031   0.301  3.0350  2.7754  1.4721
  801MOL0     H 8134   7.022   8.064   0.472  0.6997  1.5021 -0.8330
  801MOL0     H 8135   7.064   7.905   0.407 -1.9927 -1.5775  0.9519
  802MOL0     O 8136   7.859   1.092   0.031 -0.2641 -0.0385  0.4581
  802MOL0     C 8137   7.743   1.057   0.044 -0.5017  0.6922  0.3411
  802MOL0     O 8138   7.690   0.942  -0.011 -1.0803 -0.0411 -0.4621
  802MOL0     C 8139   7.763   0.848  -0.085  0.1837 -0.3767  0.5042
  802MOL0     C 8140   7.694   0.761  -0.172  0.0854  0.4465  0.9531
  802MOL0     C 8141   7.759   0.663  -0.260 -0.4766  0.2778  0.2160
  802MOL0     C 8142   7.894   0.645  -0.254 -0.1864 -0.2055 -0.6167
  802MOL0     O 8143   7.967   0.579  -0.343 -0.6246  0.3030 -0.4710
  802MOL0     C 8144   7.963   0.435  -0.337  0.2944 -0.3326 -0.2660
  802MOL0     C 8145   8.043   0.372  -0.216  0.9505  0.5443 -0.1816
  802MOL0     C 8146   8.191   0.423  -0.201 -0.0665  0.2326  0.5512
  802MOL0     C 8147   8.286   0.338  -0.285 -0.2083  0.0820 -0.4792
  802MOL0     C 8148   8.440   0.365  -0.285  0.5169  0.2510 -0.7214
  802MOL0     C 8149   8.510   0.320  -0.163 -0.0189  0.1458 -0.0455
  802MOL0     C 8150   8.656   0.321  -0.193  0.3299 -0.8024  0.1612
  802MOL0     C 8151   8.728   0.459  -0.172 -0.5856 -0.0346  0.4778
  802MOL0     N 8152   8.868   0.453  -0.204 -0.4753  1.0880  0.8779
  802MOL0     C 8153   8.955   0.503  -0.112  0.2428 -0.3154  0.0293
  802MOL0     C 8154   9.068   0.514  -0.186 -0.7653  0.6163 -0.1844
  802MOL0     C 8155   9.200   0.567  -0.145  1.4103  0.4107 -0.5372
  802MOL0     C 8156   9.308   0.581  -0.244  0.6056  0.4997 -0.0342
  802MOL0     C 8157   9.426   0.609  -0.166  0.0359 -0.1275 -0.4558
  802MOL0     C 8158   9.535   0.661  -0.258 -0.9325  0.1311  0.5810
  802MOL0     O 8159   9.640   0.706  -0.176  0.1446 -0.0558  0.5619
  802MOL0     C 8160   9.763   0.733  -0.229 -0.0413  0.4508 -0.3318
  802MOL0     C 8161   9.795   0.739  -0.371  0.5149 -0.3931  0.2606
  802MOL0     C 8162   9.922   0.778  -0.411  0.8573  0.4241 -0.2686
  802MOL0     C 8163  10.021   0.809  -0.315  0.4170 -0.1304 -0.0363
  802MOL0     C 8164  10.159   0.845  -0.358  0.7135 -0.8070 -0.5619
  802MOL0     O 8165  10.237   0.886  -0.253 -0.5410  0.2170  0.4337
  802MOL0     C 8166  10.367   0.927  -0.278 -1.3010  0.3594  0.5364
  802MOL0     C 8167  10.460   0.858  -0.371  0.2456 -0.5327 -0.9501
  802MOL0     C 8168  10.578   0.919  -0.418  0.6185  0.2896  0.0679
  802MOL0     C 8169  10.624   1.030  -0.351 -1.4686 -0.8811  1.0099
  802MOL0     O 8170  10.756   1.079  -0.384  0.9831 -0.1601 -0.7584
  802MOL0     C 8171  10.850   1.001  -0.459 -0.6835 -0.3099  0.1315
  802MOL0     C 8172  10.996   1.053  -0.434 -0.5485 -0.6526  0.5648
  802MOL0     C 8173  11.033   1.024  -0.290  0.1676  0.6279 -0.6346
  802MOL0     C 8174  11.176   1.053  -0.269 -0.4191  0.6788  0.3280
  802MOL0     C 8175  11.232   1.030  -0.125 -0.3443  0.2006  0.3026
  802MOL0     C 8176  11.385   1.050  -0.125 -0.0631  0.7637  0.3346
  802MOL0     C 8177  11.454   1.059   0.013  0.9965 -0.0224  0.3074
  802MOL0     C 8178  11.608   1.057   0.002  0.1116 -0.0760  0.1243
  802MOL0    Cl 8179  11.676   1.117  -0.160  0.4770 -0.0126  0.1047
  802MOL0     C 8180  10.548   1.085  -0.244 -0.7926 -0.5918  0.2558
  802MOL0     C 8181  10.416   1.035  -0.213 -0.8221  0.6621  0.6679
  802MOL0     O 8182  10.188   0.844  -0.476 -0.1023  0.0055  0.4103
  802MOL0     C 8183   9.986   0.802  -0.187  0.5802 -0.8533 -0.8582
  802MOL0     C 8184   9.860   0.777  -0.140  0.6442 -0.1493 -0.3125
  802MOL0     N 8185   9.043   0.478  -0.320  0.7311  0.5099 -0.1616
  802MOL0     N 8186   8.927   0.442  -0.332  0.2303  0.2231 -0.3247
  802MOL0     C 8187   7.962   0.718  -0.155 -1.2834  0.8098  0.0017
  802MOL0     C 8188   7.896   0.821  -0.074 -0.1688  0.1049 -0.2110
  802MOL0     C 8189   7.658   1.144   0.120 -1.3956 -0.0304 -0.8051
  802MOL0     C 8190   7.717   1.196   0.240  0.3945  0.5958 -0.7284
  802MOL0     C 8191   7.646   1.289   0.329  0.7101 -0.2286 -0.1339
  802MOL0     C 8192   7.522   1.346   0.281 -1.5383  0.4186  0.2560
  802MOL0     O 8193   7.464   1.450   0.349  0.0136  0.0528  0.0910
  802MOL0     C 8194   7.455   1.452   0.491  0.5488 -0.0405 -0.7560
  802MOL0     C 8195   7.312   1.477   0.533  0.1293  0.8071 -0.2042
  802MOL0     C 8196   7.231   1.593   0.482  0.5534 -0.2832  0.3897
  802MOL0     C 8197   7.076   1.558   0.505 -0.4229  0.3760 -0.0783
  802MOL0     C 8198   7.044   1.522   0.643  0.1513 -0.2569 -0.0179
  802MOL0     C 8199   7.016   1.493   0.756  0.1840 -0.1612  0.7437
  802MOL0     C 8200   7.464   1.290   0.160  0.4454 -0.6901 -0.2119
  802MOL0     C 8201   7.523   1.186   0.083 -0.3135  0.5042  0.4362
  802MOL0     C 8202   7.441   1.134  -0.037 -0.1194 -0.2285 -1.4280
  802MOL0     H 8203   7.590   0.781  -0.195  0.2460 -1.2885 -1.7305
  802MOL0     H 8204   7.693   0.611  -0.329 -1.1091  0.3462  0.7650
  802MOL0     H 8205   7.858   0.405  -0.336  0.4290 -1.0286  2.8127
  802MOL0     H 8206   8.019   0.403  -0.426  1.3968  0.2722  0.1847
  802MOL0     H 8207   8.044   0.262  -0.214  0.0431  0.5363  0.3623
  802MOL0     H 8208   7.985   0.400  -0.127 -2.5564 -2.6982 -1.1952
  802MOL0     H 8209   8.230   0.427  -0.099  1.9962  3.6527 -0.1866
  802MOL0     H 8210   8.209   0.527  -0.233  3.8603 -0.9870 -2.0290
  802MOL0     H 8211   8.263   0.233  -0.266  1.3820 -0.0520  0.9394
  802MOL0     H 8212   8.257   0.355  -0.389 -0.7008 -0.2024 -0.3892
  802MOL0     H 8213   8.481   0.313  -0.372  3.0123  0.1226  0.4385
  802MOL0     H 8214   8.453   0.472  -0.305  1.8468  0.0979 -0.7836
  802MOL0     H 8215   8.495   0.379  -0.073  1.7331 -0.6820  0.8375
  802MOL0     H 8216   8.474   0.217  -0.152 -0.4255  0.3002  0.0798
  802MOL0     H 8217   8.671   0.298  -0.299 -0.4016 -0.8540  0.0637
  802MOL0     H 8218   8.710   0.247  -0.135  0.9961  0.8411  1.7252
  802MOL0     H 8219   8.681   0.530  -0.241 -0.2566  0.0174  0.3052
  802MOL0     H 8220   8.715   0.503  -0.073 -2.4589 -4.3144  2.3919
  802MOL0     H 8221   8.932   0.512  -0.007 -1.5284 -2.0394 -0.1451
  802MOL0     H 8222   9.194   0.659  -0.085  3.0944  1.0807 -1.3565
  802MOL0     H 8223   9.215   0.492  -0.066  0.6051  1.9454  1.1739
  802MOL0     H 8224   9.326   0.490  -0.301  2.0640  0.2059  0.8113
  802MOL0     H 8225   9.276   0.661  -0.311 -1.1652 -0.0342  0.1255
  802MOL0     H 8226   9.473   0.513  -0.142 -0.4802 -0.0422  0.9640
  802MOL0     H 8227   9.416   0.688  -0.092  0.0013  1.5972 -2.2224
  802MOL0     H 8228   9.496   0.735  -0.329  1.3840 -0.2239 -1.1655
  802MOL0     H 8229   9.575   0.578  -0.317  0.8334  1.4123 -0.1051
  802MOL0     H 8230   9.730   0.726  -0.458 -0.1649  2.9867  0.1274
  802MOL0     H 8231   9.934   0.778  -0.519  1.7359 -1.4797 -0.2052
  802MOL0     H 8232  10.421   0.773  -0.427 -1.6948  0.5022 -1.2195
  802MOL0     H 8233  10.631   0.876  -0.503 -0.4437  1.2255 -1.1223
  802MOL0     H 8234  10.843   0.898  -0.424 -2.0323  0.2111  1.4991
  802MOL0     H 8235  10.816   1.008  -0.563  2.4840 -0.5152 -1.0192
  802MOL0     H 8236  11.066   1.018  -0.510  0.3823  0.5069  0.8674
  802MOL0     H 8237  10.989   1.161  -0.449 -1.0429 -0.8090 -0.4330
  802MOL0     H 8238  10.971   1.084  -0.223 -3.6114 -2.9974 -0.5442
  802MOL0     H 8239  11.013   0.918  -0.272  1.7601  0.3491 -0.3518
  802MOL0     H 8240  11.195   1.155  -0.304 -1.8484  0.7813 -0.2260
  802MOL0     H 8241  11.232   0.986  -0.335  1.9243  2.5490  0.2800
  802MOL0     H 8242  11.210   0.927  -0.093  3.7495 -0.4451  1.5525
  802MOL0     H 8243  11.177   1.102  -0.064  0.5323  1.0977  0.0565
  802MOL0     H 8244  11.428   0.962  -0.172  0.9527 -0.2676  3.0366
  802MOL0     H 8245  11.391   1.146  -0.178 -3.0805  1.5691  1.2066
  802MOL0     H 8246  11.425   0.961   0.052 -0.6789 -0.1157 -1.0474
  802MOL0     H 8247  11.414   1.140   0.074  0.6819 -0.3445  0.5354
  802MOL0     H 8248  11.655   1.117   0.080  1.7283  0.4965 -1.2282
  802MOL0     H 8249  11.639   0.952   0.010  3.2194  0.7456  0.0954
  802MOL0     H 8250  10.590   1.169  -0.191 -1.5631  0.7214 -1.1558
  802MOL0     H 8251  10.369   1.070  -0.122  1.2906 -1.0942  2.5735
  802MOL0     H 8252  10.065   0.817  -0.114  1.0151 -0.0833 -1.4780
  802MOL0     H 8253   9.842   0.778  -0.033  1.7807 -1.8702 -0.0700
  802MOL0     H 8254   8.069   0.715  -0.136 -1.4500  1.2447  1.0803
  802MOL0     H 8255   7.950   0.879   0.000  2.7389 -3.8431  1.0800
  802MOL0     H 8256   7.817   1.166   0.269 -0.2557 -0.9934 -0.0170
  802MOL0     H 8257   7.694   1.330   0.418  3.7365 -0.7065 -1.4290
  802MOL0     H 8258   7.523   1.527   0.533 -1.9926  0.9593  1.9492
  802MOL0     H 8259   7.480   1.355   0.535 -1.9772  0.4477  2.1369
  802MOL0     H 8260   7.309   1.479   0.643 -0.1917 -2.3515 -0.0641
  802MOL0     H 8261   7.265   1.383   0.505  1.2415 -1.9783  5.6119
  802MOL0     H 8262   7.243   1.599   0.374  2.0700  0.3242  0.5676
  802MOL0     H 8263   7.266   1.682   0.535 -1.1964 -0.1116  1.3552
  802MOL0     H 8264   7.029   1.650   0.471  1.7059  1.6165  0.1893
  802MOL0     H 8265   7.050   1.473   0.440  0.1051  0.1139  0.0514
  802MOL0     H 8266   7.020   1.463   0.858  1.1493 -0.1522  0.7190
  802MOL0     H 8267   7.368   1.331   0.131 -0.1688 -1.3676  0.8052
  802MOL0     H 8268   7.455   1.026  -0.047  0.7628 -0.4391  1.2859
  802MOL0     H 8269   7.334   1.149  -0.022  0.0859  0.5600 -0.6704
  802MOL0     H 8270   7.470   1.181  -0.132  2.6074  0.7933 -0.1794
  803MOL0     O 8271   8.066   4.934   0.309  0.3859  0.0989 -0.1064
  803MOL0     C 8272   8.015   4.972   0.204  0.5517 -0.6623 -0.9512
  803MOL0     O 8273   8.056   4.949   0.082 -0.0074  0.0681 -0.2773
  803MOL0     C 8274   8.186   4.893   0.067 -0.2454 -0.0673 -0.2328
  803MOL0     C 8275   8.200   4.755   0.091  0.6636 -0.6074 -0.0915
  803MOL0     C 8276   8.333   4.712   0.086 -0.6724  0.4348 -0.0682
  803MOL0     C 8277   8.444   4.795   0.058 -0.0479  0.3311 -0.0742
  803MOL0     O 8278   8.567   4.743   0.040 -0.6571 -0.9505  0.4677
  803MOL0     C 8279   8.594   4.647  -0.070 -0.0295  0.2815 -0.0874
  803MOL0     C 8280   8.648   4.719  -0.191  0.2410  0.6656  0.4054
  803MOL0     C 8281   8.743   4.841  -0.175  0.7755  0.5130  0.5371
  803MOL0     C 8282   8.795   4.898  -0.309  0.9855 -0.3654  0.3362
  803MOL0     C 8283   8.684   4.968  -0.386 -0.2528  0.9093 -0.1971
  803MOL0     C 8284   8.734   5.034  -0.510 -0.4489 -0.8505  0.0162
  803MOL0     C 8285   8.634   5.107  -0.598 -0.3037  0.4718 -0.0191
  803MOL0     C 8286   8.683   5.144  -0.737 -0.4200 -0.1133 -0.5728
  803MOL0     N 8287   8.789   5.241  -0.723 -0.2199 -0.0068  0.6333
  803MOL0     C 8288   8.780   5.383  -0.730 -0.4430  0.0305  0.4555
  803MOL0     C 8289   8.912   5.425  -0.730  0.1807  0.2315  0.1283
  803MOL0     C 8290   8.967   5.558  -0.715 -0.0813 -0.3584  0.5188
  803MOL0     C 8291   8.903   5.662  -0.820 -0.7083 -0.3851 -0.9686
  803MOL0     C 8292   8.985   5.649  -0.949 -0.4755 -0.8400 -0.1413
  803MOL0     C 8293   8.938   5.727  -1.075 -0.1353 -0.4242 -0.2987
  803MOL0     O 8294   8.878   5.848  -1.037 -0.5780  0.0370 -0.9185
  803MOL0     C 8295   8.879   5.958  -1.123 -0.4024  0.0028  0.0150
  803MOL0     C 8296   8.840   6.083  -1.069  0.1041 -0.0001 -0.4846
  803MOL0     C 8297   8.827   6.198  -1.155  0.5235  0.2609  0.6200
  803MOL0     C 8298   8.857   6.182  -1.295  0.3596  0.2107  0.2892
  803MOL0     C 8299   8.845   6.301  -1.389  0.0935 -0.6445 -0.2228
  803MOL0     O 8300   8.857   6.260  -1.521  0.3910 -0.1677 -0.0441
  803MOL0     C 8301   8.804   6.336  -1.624 -0.2116  1.0416 -0.0509
  803MOL0     C 8302   8.874   6.348  -1.744 -0.0600  0.4661 -0.0798
  803MOL0     C 8303   8.819   6.428  -1.847  0.4373 -0.0833 -0.4683
  803MOL0     C 8304   8.702   6.498  -1.822  0.6193 -0.0968  0.1279
  803MOL0     O 8305   8.646   6.571  -1.919 -1.4205  0.0294 -0.1270
  803MOL0     C 8306   8.746   6.641  -1.998  0.5802  0.3269 -0.9268
  803MOL0     C 8307   8.661   6.751  -2.070 -0.4442 -0.0861 -0.3935
  803MOL0     C 8308   8.719   6.804  -2.204 -0.1815  0.6750 -0.4531
  803MOL0     C 8309   8.601   6.866  -2.283  0.6521  0.7729 -0.7785
  803MOL0     C 8310   8.641   6.935  -2.413  0.8676  0.2534  0.5511
  803MOL0     C 8311   8.524   7.013  -2.465  0.3157  0.7316  1.1069
  803MOL0     C 8312   8.569   7.081  -2.608 -0.5511  0.5611  0.0574
  803MOL0     C 8313   8.515   7.219  -2.645 -0.0596 -0.0772  0.3481
  803MOL0    Cl 8314   8.332   7.231  -2.636 -0.1806  0.2312 -0.5119
  803MOL0     C 8315   8.632   6.489  -1.701  0.7028 -0.2981 -0.4338
  803MOL0     C 8316   8.682   6.403  -1.598 -0.1545  0.1914 -0.0296
  803MOL0     O 8317   8.835   6.417  -1.343 -0.4355  0.7153 -0.5524
  803MOL0     C 8318   8.918   6.065  -1.336 -0.0330  0.7507 -0.1928
  803MOL0     C 8319   8.926   5.949  -1.255  0.0147 -0.4276  0.3256
  803MOL0     N 8320   8.991   5.312  -0.724 -1.6942 -0.0359  0.0847
  803MOL0     N 8321   8.919   5.205  -0.714  0.5950 -0.2110 -0.4587
  803MOL0     C 8322   8.425   4.926   0.030 -0.0423  0.6237  0.5624
  803MOL0     C 8323   8.294   4.973   0.037 -1.0238  0.5008  0.0152
  803MOL0     C 8324   7.885   5.051   0.217 -0.9328  0.3055  0.4180
  803MOL0     C 8325   7.823   5.094   0.097  0.1505  0.5162  0.5958
  803MOL0     C 8326   7.705   5.157   0.099  0.0587 -1.8192 -0.1082
  803MOL0     C 8327   7.637   5.196   0.216 -0.5071  1.1242 -1.0935
  803MOL0     O 8328   7.519   5.268   0.203  0.5012 -0.2361  0.7657
  803MOL0     C 8329   7.447   5.293   0.324 -0.2450 -0.2369 -0.1676
  803MOL0     C 8330   7.335   5.403   0.298 -0.8399  0.8772  0.3157
  803MOL0     C 8331   7.389   5.542   0.250 -0.2147  0.6274  0.2405
  803MOL0     C 8332   7.354   5.646   0.349  0.1975 -0.3340 -0.6717
  803MOL0     C 8333   7.464   5.650   0.450  0.4323 -0.3541  0.0989
  803MOL0     C 8334   7.538   5.639   0.545 -0.7641 -0.1939  0.7183
  803MOL0     C 8335   7.697   5.151   0.332 -0.5224 -0.9529 -0.4402
  803MOL0     C 8336   7.812   5.074   0.335 -0.3742 -0.2300 -0.1589
  803MOL0     C 8337   7.849   5.018   0.477 -0.1397 -1.0087  0.2994
  803MOL0     H 8338   8.119   4.687   0.114  1.7360 -1.0350  2.8812
  803MOL0     H 8339   8.345   4.604   0.088 -2.3029  0.1227 -2.4324
  803MOL0     H 8340   8.666   4.576  -0.027 -2.4601 -2.1970  0.1311
  803MOL0     H 8341   8.497   4.602  -0.090  0.0813  0.7495 -1.7903
  803MOL0     H 8342   8.562   4.750  -0.252  1.0493  4.8336  1.0937
  803MOL0     H 8343   8.712   4.652  -0.248  1.7768  4.8920 -3.4198
  803MOL0     H 8344   8.829   4.814  -0.113  0.5152  1.3267  1.2662
  803MOL0     H 8345   8.703   4.920  -0.112  0.1756  0.1334  0.6361
  803MOL0     H 8346   8.862   4.980  -0.282 -1.3413  2.1919 -1.0887
  803MOL0     H 8347   8.840   4.816  -0.364  0.1751 -1.1413  0.7934
  803MOL0     H 8348   8.619   4.891  -0.429  1.7712  0.2461 -2.2790
  803MOL0     H 8349   8.626   5.036  -0.324  0.0799 -0.3384  1.5346
  803MOL0     H 8350   8.807   5.109  -0.479 -0.1316 -0.8246 -0.7716
  803MOL0     H 8351   8.790   4.965  -0.575  1.9483  0.3685  0.6872
  803MOL0     H 8352   8.590   5.199  -0.559 -4.7252 -1.0165 -0.9228
  803MOL0     H 8353   8.554   5.034  -0.610  0.7198 -0.7670  0.5122
  803MOL0     H 8354   8.713   5.054  -0.791 -1.2632 -0.6366 -0.1913
  803MOL0     H 8355   8.599   5.191  -0.789  1.2201  3.9742  0.0330
  803MOL0     H 8356   8.693   5.448  -0.718 -0.7944 -0.7354  2.2634
  803MOL0     H 8357   8.966   5.576  -0.607  1.8878  2.5805  0.1526
  803MOL0     H 8358   9.074   5.563  -0.736 -0.0262  1.0801  1.0495
  803MOL0     H 8359   8.795   5.645  -0.832 -1.0660  1.5998 -0.9510
  803MOL0     H 8360   8.904   5.760  -0.772  2.4840 -2.8310  5.0707
  803MOL0     H 8361   9.002   5.544  -0.975 -1.0592 -0.9325 -0.1656
  803MOL0     H 8362   9.083   5.694  -0.933 -0.7986  0.3235 -1.2999
  803MOL0     H 8363   8.859   5.676  -1.131 -0.0152 -1.4371  0.4355
  803MOL0     H 8364   9.027   5.749  -1.136 -0.7375  0.1975 -0.9755
  803MOL0     H 8365   8.810   6.087  -0.965  0.4473 -1.1404 -0.3365
  803MOL0     H 8366   8.779   6.289  -1.122 -0.8993 -0.7109  1.3793
  803MOL0     H 8367   8.967   6.297  -1.766 -0.5564 -1.0011  1.0830
  803MOL0     H 8368   8.858   6.423  -1.949 -0.8216 -1.9364 -0.9070
  803MOL0     H 8369   8.820   6.700  -1.944  2.1131 -0.3617 -2.1879
  803MOL0     H 8370   8.802   6.574  -2.065 -0.9365 -0.7599 -1.1743
  803MOL0     H 8371   8.563   6.706  -2.087  0.8238 -2.4129 -2.0963
  803MOL0     H 8372   8.640   6.837  -2.006  1.0683 -0.4334  0.6230
  803MOL0     H 8373   8.788   6.885  -2.181  3.1519 -1.1442 -3.2299
  803MOL0     H 8374   8.772   6.733  -2.268 -0.7328  0.4723 -0.7000
  803MOL0     H 8375   8.561   6.945  -2.219  0.6239 -0.0256  0.2160
  803MOL0     H 8376   8.522   6.794  -2.302  1.9021 -0.6491 -0.7936
  803MOL0     H 8377   8.664   6.848  -2.476 -1.1258 -0.7852  1.1782
  803MOL0     H 8378   8.736   6.988  -2.405  0.3750  0.9362  2.7875
  803MOL0     H 8379   8.436   6.949  -2.468  1.5157 -0.9439 -0.4547
  803MOL0     H 8380   8.508   7.095  -2.394 -0.2086  1.3608  0.2886
  803MOL0     H 8381   8.542   7.006  -2.682  1.0793 -1.1138  1.0671
  803MOL0     H 8382   8.679   7.078  -2.608 -0.3989  2.4061 -2.9545
  803MOL0     H 8383   8.552   7.283  -2.565  1.7849 -1.2047  0.4501
  803MOL0     H 8384   8.559   7.244  -2.742  0.3850 -1.5609  0.1453
  803MOL0     H 8385   8.552   6.561  -1.690  0.8543 -0.2844  0.7719
  803MOL0     H 8386   8.624   6.392  -1.507  1.6832  0.0434  1.1778
  803MOL0     H 8387   8.963   6.048  -1.433  2.0042  2.1284  0.4296
  803MOL0     H 8388   8.960   5.856  -1.300 -1.7992 -0.4681 -1.1114
  803MOL0     H 8389   8.506   4.984  -0.013  2.0548 -1.0835  2.0166
  803MOL0     H 8390   8.271   5.079   0.024 -0.1476  0.5365 -1.5737
  803MOL0     H 8391   7.873   5.079   0.002 -0.8447 -0.9699  0.2683
  803MOL0     H 8392   7.645   5.190   0.014  0.9924 -1.9506 -0.8356
  803MOL0     H 8393   7.521   5.337   0.392  3.4476  0.3124 -4.1039
  803MOL0     H 8394   7.405   5.200   0.361 -0.0174 -0.1557  0.2905
  803MOL0     H 8395   7.258   5.397   0.375  1.0544 -1.0377  2.2307
  803MOL0     H 8396   7.293   5.349   0.213  1.6537 -1.7717  0.5949
  803MOL0     H 8397   7.338   5.570   0.157  0.0374  0.8329  0.1622
  803MOL0     H 8398   7.494   5.527   0.223  0.3043 -0.2038  2.5392
  803MOL0     H 8399   7.352   5.740   0.292 -2.6370  0.9072  1.2074
  803MOL0     H 8400   7.251   5.640   0.385 -0.7681  1.0537 -2.9432
  803MOL0     H 8401   7.611   5.633   0.623  2.9435 -2.5864 -2.4965
  803MOL0     H 8402   7.638   5.165   0.423 -0.1296 -0.7196 -0.2220
  803MOL0     H 8403   7.754   4.999   0.527 -2.2083 -1.8187 -3.5696
  803MOL0     H 8404   7.900   4.921   0.477 -0.3304 -1.1291  1.5847
  803MOL0     H 8405   7.926   5.080   0.524 -1.2203  1.2656 -0.7784
  804MOL0     O 8406   4.398   3.218   3.600  0.4519  0.0216 -0.6794
  804MOL0     C 8407   4.452   3.127   3.537 -0.1212 -0.7391 -0.3226
  804MOL0     O 8408   4.533   3.145   3.429  0.5458 -0.3829  0.2379
  804MOL0     C 8409   4.595   3.264   3.405 -0.3571 -0.4838 -0.0391
  804MOL0     C 8410   4.530   3.385   3.421 -0.1639  0.8547  0.3511
  804MOL0     C 8411   4.598   3.507   3.402  0.3171 -0.4747 -0.1288
  804MOL0     C 8412   4.733   3.502   3.359  1.1961 -0.2924 -0.1091
  804MOL0     O 8413   4.811   3.610   3.336  0.0809  1.0810 -0.5939
  804MOL0     C 8414   4.765   3.708   3.246  0.2976  0.3738  0.4595
  804MOL0     C 8415   4.887   3.794   3.225 -0.0768 -0.0503 -0.6101
  804MOL0     C 8416   5.011   3.734   3.148 -0.2327  0.3965 -0.1066
  804MOL0     C 8417   5.102   3.845   3.085 -0.7328  0.4389 -0.0034
  804MOL0     C 8418   5.142   3.948   3.183 -0.4196 -0.3734 -0.5528
  804MOL0     C 8419   5.228   4.047   3.112 -0.4617  0.1009  0.0176
  804MOL0     C 8420   5.283   4.148   3.208  0.0380 -0.8245  0.8431
  804MOL0     C 8421   5.237   4.301   3.184 -0.7741 -0.1317  0.1696
  804MOL0     N 8422   5.097   4.318   3.196 -0.5817  0.1092  0.3005
  804MOL0     C 8423   5.023   4.290   3.311  0.2036  0.2894  0.2435
  804MOL0     C 8424   4.890   4.293   3.272 -0.9060  0.3656 -0.3366
  804MOL0     C 8425   4.763   4.261   3.347  0.1961  0.0941 -0.1593
  804MOL0     C 8426   4.672   4.145   3.278  0.2035  0.0749  0.0631
  804MOL0     C 8427   4.525   4.155   3.318  0.3883  1.0816 -0.0783
  804MOL0     C 8428   4.502   4.167   3.476  0.6888 -0.7017 -0.0609
  804MOL0     O 8429   4.513   4.047   3.550  0.4308  0.5359 -0.5876
  804MOL0     C 8430   4.503   4.055   3.683  0.2661 -0.0089 -0.2054
  804MOL0     C 8431   4.576   3.963   3.759  0.3553  0.6280 -0.4055
  804MOL0     C 8432   4.572   3.968   3.899 -0.0546  0.2390 -0.3275
  804MOL0     C 8433   4.471   4.041   3.966  0.0832 -0.9658 -0.0846
  804MOL0     C 8434   4.452   4.033   4.110 -1.3383 -0.5733 -0.6662
  804MOL0     O 8435   4.537   3.944   4.170 -0.1457  0.0941  0.4798
  804MOL0     C 8436   4.568   3.967   4.299  0.4766 -0.0732 -0.2214
  804MOL0     C 8437   4.665   4.061   4.330 -0.6884  0.0593  0.0798
  804MOL0     C 8438   4.694   4.087   4.464  0.2722  0.4476 -0.8830
  804MOL0     C 8439   4.609   4.031   4.563 -0.9211  0.5234 -0.6087
  804MOL0     O 8440   4.623   4.077   4.694  0.1913 -0.3283  0.6345
  804MOL0     C 8441   4.705   3.976   4.755 -0.2215 -0.3305 -0.5151
  804MOL0     C 8442   4.778   4.029   4.884 -0.6474  0.5572 -0.1720
  804MOL0     C 8443   4.905   4.103   4.845  0.1610  0.0163 -0.3819
  804MOL0     C 8444   4.962   4.170   4.974  0.1358  0.1996  0.4080
  804MOL0     C 8445   5.067   4.276   4.940  1.4557 -0.3736  0.9632
  804MOL0     C 8446   5.112   4.348   5.064 -0.5015 -0.1529  0.6840
  804MOL0     C 8447   5.230   4.455   5.037 -0.2757  0.2454 -0.1209
  804MOL0     C 8448   5.253   4.505   4.895  0.2667 -0.1067  0.6105
  804MOL0    Cl 8449   5.381   4.626   4.890  0.3505  0.5091 -0.0529
  804MOL0     C 8450   4.519   3.933   4.531  0.8659 -1.0373 -0.5430
  804MOL0     C 8451   4.493   3.900   4.401 -1.1418 -0.3513  0.5342
  804MOL0     O 8452   4.384   4.119   4.168 -0.1641  0.7841  0.0688
  804MOL0     C 8453   4.403   4.135   3.887 -0.1809  0.0555  0.5555
  804MOL0     C 8454   4.423   4.149   3.747  0.1831  0.4946 -1.5181
  804MOL0     N 8455   4.895   4.300   3.127  0.4125 -0.8208 -0.8821
  804MOL0     N 8456   5.015   4.325   3.092  0.1386 -0.3533  0.2504
  804MOL0     C 8457   4.796   3.380   3.352 -0.3493  0.1006  0.0037
  804MOL0     C 8458   4.726   3.265   3.354  0.0972 -0.0571  0.1482
  804MOL0     C 8459   4.440   2.985   3.592 -0.2964  0.7249  0.4547
  804MOL0     C 8460   4.529   2.895   3.541 -0.2500 -0.5475 -0.1463
  804MOL0     C 8461   4.528   2.765   3.570 -0.3381  0.0919 -0.1128
  804MOL0     C 8462   4.418   2.709   3.644  0.2140 -0.1339 -0.5958
  804MOL0     O 8463   4.375   2.581   3.676  0.4970  0.1323 -0.1736
  804MOL0     C 8464   4.449   2.472   3.623  0.0837  0.1715  0.0375
  804MOL0     C 8465   4.412   2.344   3.698 -0.2958  0.4548 -0.8856
  804MOL0     C 8466   4.437   2.342   3.851 -0.5277  0.7932 -0.0820
  804MOL0     C 8467   4.349   2.232   3.919 -0.5140 -0.0987  0.3938
  804MOL0     C 8468   4.378   2.106   3.846 -0.4263  1.2721 -1.5251
  804MOL0     C 8469   4.411   2.006   3.782 -0.8683  0.1589  0.1321
  804MOL0     C 8470   4.324   2.801   3.699  0.2824 -0.0197  0.4428
  804MOL0     C 8471   4.340   2.941   3.677  0.3690 -0.6068 -0.3664
  804MOL0     C 8472   4.233   3.035   3.737 -0.2876  0.4914  0.4210
  804MOL0     H 8473   4.423   3.385   3.440  0.2902  0.0200  3.3979
  804MOL0     H 8474   4.554   3.603   3.427 -1.0778 -0.8833 -0.9262
  804MOL0     H 8475   4.736   3.662   3.152  0.9476 -0.6385  0.7339
  804MOL0     H 8476   4.683   3.775   3.275 -2.1331 -0.7299 -3.2346
  804MOL0     H 8477   4.909   3.831   3.326  0.8807  1.4846 -1.3281
  804MOL0     H 8478   4.854   3.887   3.178 -0.6996  0.5527  0.9577
  804MOL0     H 8479   4.973   3.677   3.062 -3.0192  1.7287  0.1229
  804MOL0     H 8480   5.069   3.657   3.201 -3.4292 -3.3276 -1.4672
  804MOL0     H 8481   5.188   3.794   3.041 -1.0080  0.0782 -0.1267
  804MOL0     H 8482   5.043   3.893   3.007 -0.1566  1.8987  0.4216
  804MOL0     H 8483   5.060   4.007   3.225  0.4610 -0.1996  0.9696
  804MOL0     H 8484   5.201   3.915   3.269 -1.4873  1.6039  1.0247
  804MOL0     H 8485   5.308   3.987   3.066 -1.5411 -0.4431 -1.2032
  804MOL0     H 8486   5.171   4.097   3.033 -0.5184 -1.2412 -0.8308
  804MOL0     H 8487   5.392   4.140   3.197 -0.1891 -3.0920 -0.2394
  804MOL0     H 8488   5.261   4.137   3.315  0.4464 -2.8464  0.7435
  804MOL0     H 8489   5.286   4.360   3.262 -0.8082  0.0445  0.0569
  804MOL0     H 8490   5.274   4.333   3.086  1.3627 -2.8214 -0.0402
  804MOL0     H 8491   5.048   4.267   3.414  0.1206 -2.8425 -0.3315
  804MOL0     H 8492   4.775   4.230   3.451 -0.7524  1.6903  0.4601
  804MOL0     H 8493   4.699   4.349   3.354 -0.2791 -0.2423 -0.2077
  804MOL0     H 8494   4.686   4.142   3.170  0.2031 -1.9840  0.0648
  804MOL0     H 8495   4.713   4.046   3.302 -1.9459 -1.4644 -2.1130
  804MOL0     H 8496   4.470   4.068   3.282  4.2934 -0.9444 -1.7319
  804MOL0     H 8497   4.470   4.233   3.265 -3.9032 -0.2816  1.8934
  804MOL0     H 8498   4.409   4.224   3.483  1.4070  0.7827 -1.8726
  804MOL0     H 8499   4.568   4.243   3.518 -1.1725  0.7025  0.4622
  804MOL0     H 8500   4.622   3.883   3.701 -0.4626 -1.2906  1.4391
  804MOL0     H 8501   4.638   3.894   3.943 -0.5417  0.1795  0.3210
  804MOL0     H 8502   4.719   4.104   4.246 -0.4288  1.8257  1.1006
  804MOL0     H 8503   4.776   4.156   4.485  1.5474 -1.5480  1.2677
  804MOL0     H 8504   4.635   3.899   4.786 -1.9182  1.3234 -0.0613
  804MOL0     H 8505   4.784   3.931   4.695 -1.0024 -0.2209 -1.6601
  804MOL0     H 8506   4.704   4.090   4.936  0.5957  0.7981  1.3813
  804MOL0     H 8507   4.804   3.940   4.942 -1.7416  0.7230  0.6161
  804MOL0     H 8508   4.966   4.038   4.781  0.0772  0.6793 -1.1435
  804MOL0     H 8509   4.877   4.189   4.784 -1.8906 -1.0596 -1.0476
  804MOL0     H 8510   5.011   4.090   5.030  0.4707  0.1830  0.0926
  804MOL0     H 8511   4.879   4.220   5.026  0.5796  2.4799 -0.9356
  804MOL0     H 8512   5.019   4.351   4.876  1.6700 -1.3734 -0.4293
  804MOL0     H 8513   5.151   4.229   4.888  0.5476 -1.9749  0.8425
  804MOL0     H 8514   5.022   4.388   5.112 -0.7543  0.1881 -0.0619
  804MOL0     H 8515   5.152   4.265   5.122  0.2013 -0.7123 -0.5614
  804MOL0     H 8516   5.324   4.420   5.080 -0.1322 -1.3487 -1.6368
  804MOL0     H 8517   5.198   4.537   5.102 -2.5456 -0.3568 -0.3863
  804MOL0     H 8518   5.280   4.424   4.827 -3.1201 -1.4709  0.6985
  804MOL0     H 8519   5.163   4.553   4.856 -0.5426 -0.0185  2.4636
  804MOL0     H 8520   4.461   3.890   4.612  1.9797  2.3773  2.3475
  804MOL0     H 8521   4.413   3.838   4.364 -1.6712  0.1138  0.8895
  804MOL0     H 8522   4.333   4.209   3.925 -0.3707 -0.1866  0.6783
  804MOL0     H 8523   4.361   4.216   3.689 -0.7001 -1.4496 -2.9639
  804MOL0     H 8524   4.901   3.376   3.325  0.4923 -3.0457  3.1503
  804MOL0     H 8525   4.770   3.173   3.318  0.3958  0.9428 -2.1987
  804MOL0     H 8526   4.597   2.928   3.462 -0.8287 -1.6268 -1.1251
  804MOL0     H 8527   4.585   2.692   3.514 -0.0931  0.4340 -0.3111
  804MOL0     H 8528   4.553   2.493   3.647  0.2832 -0.5157 -0.1765
  804MOL0     H 8529   4.444   2.451   3.515 -1.4584  1.9776 -0.2904
  804MOL0     H 8530   4.457   2.259   3.647 -3.2415 -1.0469 -1.1969
  804MOL0     H 8531   4.303   2.336   3.688 -0.9335  3.7140  1.6686
  804MOL0     H 8532   4.397   2.439   3.882  0.5251  0.3049  3.2128
  804MOL0     H 8533   4.545   2.336   3.871 -0.9628 -1.0376  2.1260
  804MOL0     H 8534   4.378   2.233   4.024 -0.6478  4.3802  0.5608
  804MOL0     H 8535   4.242   2.249   3.900 -0.5155  0.5686  0.9921
  804MOL0     H 8536   4.464   1.929   3.731  0.2409  0.8204  0.2480
  804MOL0     H 8537   4.246   2.750   3.754 -0.1633 -0.3582 -0.4910
  804MOL0     H 8538   4.182   3.099   3.664  0.1998 -1.6475 -1.9527
  804MOL0     H 8539   4.153   2.970   3.774  0.1872 -3.0276 -3.8861
  804MOL0     H 8540   4.270   3.098   3.819 -1.5178 -1.8362  2.9378
  805MOL0     O 8541   5.052  10.042   5.714  0.4577  0.0515  0.0871
  805MOL0     C 8542   5.013  10.046   5.592  0.2653 -0.6559  0.3493
  805MOL0     O 8543   5.070  10.127   5.491 -0.8142  0.4136 -1.1857
  805MOL0     C 8544   5.185  10.185   5.531 -0.1571 -0.0920 -0.8085
  805MOL0     C 8545   5.295  10.171   5.447 -0.4180 -0.5813 -0.5586
  805MOL0     C 8546   5.419  10.232   5.484  0.2551  0.1554  0.4728
  805MOL0     C 8547   5.433  10.320   5.593  0.7465 -0.1726  0.6070
  805MOL0     O 8548   5.540  10.397   5.630  0.5129  0.1258 -0.0031
  805MOL0     C 8549   5.635  10.423   5.523 -1.3739  0.5494 -1.0490
  805MOL0     C 8550   5.750  10.505   5.588  0.3961  1.2415 -0.0327
  805MOL0     C 8551   5.886  10.474   5.521 -0.2473 -0.1130 -0.0190
  805MOL0     C 8552   5.947  10.601   5.458  0.1621 -0.1413  0.5399
  805MOL0     C 8553   6.096  10.595   5.401  0.0580 -0.1171  0.4264
  805MOL0     C 8554   6.116  10.684   5.281 -0.7773 -0.2205 -0.5885
  805MOL0     C 8555   6.260  10.697   5.238 -0.0867 -1.0296 -0.0153
  805MOL0     C 8556   6.320  10.588   5.143  0.5352 -0.4783  0.0108
  805MOL0     N 8557   6.463  10.639   5.128 -0.4283  0.4272 -0.0719
  805MOL0     C 8558   6.507  10.719   5.021 -0.5386 -0.2287  0.6956
  805MOL0     C 8559   6.643  10.707   5.013 -0.3346 -0.4468  0.1219
  805MOL0     C 8560   6.738  10.788   4.933 -0.5022 -0.5050 -0.2142
  805MOL0     C 8561   6.873  10.717   4.942  0.0132  0.2819  0.4456
  805MOL0     C 8562   6.972  10.788   4.858 -0.3519  0.1246 -0.4258
  805MOL0     C 8563   7.028  10.918   4.916 -0.3437 -0.6504  0.0303
  805MOL0     O 8564   7.101  10.893   5.037 -0.9237 -0.0967  0.2939
  805MOL0     C 8565   7.226  10.842   5.023 -0.5567  0.5899  0.2361
  805MOL0     C 8566   7.261  10.730   5.095 -0.7682  0.2488  0.1873
  805MOL0     C 8567   7.385  10.662   5.074 -0.8876  0.0519 -0.1481
  805MOL0     C 8568   7.475  10.711   4.977 -0.2752  1.2578  0.1574
  805MOL0     C 8569   7.606  10.648   4.960 -0.7146  0.1379 -0.1777
  805MOL0     O 8570   7.634  10.544   5.036 -0.2798  0.3173  0.0065
  805MOL0     C 8571   7.750  10.467   5.025 -1.1293 -0.5579 -0.2510
  805MOL0     C 8572   7.870  10.503   5.088  0.5874 -0.0702  0.1662
  805MOL0     C 8573   7.986  10.429   5.095  0.1675  0.4864 -0.8740
  805MOL0     C 8574   7.983  10.298   5.032  0.2420  0.2777  0.3097
  805MOL0     O 8575   8.102  10.223   5.036  0.0474 -0.6874  1.2231
  805MOL0     C 8576   8.109  10.084   4.986  0.1400 -0.1019  0.4421
  805MOL0     C 8577   8.249  10.019   4.951  0.0847 -0.0540 -0.3407
  805MOL0     C 8578   8.261   9.866   4.949  0.1942 -0.6559  0.0029
  805MOL0     C 8579   8.387   9.822   4.870 -0.3767 -0.9649  1.0727
  805MOL0     C 8580   8.384   9.677   4.875  0.5166  1.2906 -0.1526
  805MOL0     C 8581   8.510   9.622   4.801  0.0058  0.1788  0.2452
  805MOL0     C 8582   8.505   9.475   4.766  0.2412 -0.1019  0.3905
  805MOL0     C 8583   8.404   9.433   4.656 -0.4158 -0.6085  0.0842
  805MOL0    Cl 8584   8.478   9.469   4.498 -0.2712  0.0174 -0.2857
  805MOL0     C 8585   7.868  10.256   4.970  1.2037 -0.7084  0.3160
  805MOL0     C 8586   7.755  10.338   4.973  0.4134  0.2821  0.4931
  805MOL0     O 8587   7.679  10.684   4.866  0.0213 -0.3914  0.2940
  805MOL0     C 8588   7.444  10.827   4.911  0.9924  0.2145 -0.4148
  805MOL0     C 8589   7.327  10.892   4.942 -0.0540 -0.0548  0.7026
  805MOL0     N 8590   6.673  10.632   5.125 -0.2770  0.4153 -0.5822
  805MOL0     N 8591   6.567  10.588   5.195 -0.5173 -0.1787 -0.6621
  805MOL0     C 8592   5.317  10.340   5.676  0.3807  0.5101 -0.4479
  805MOL0     C 8593   5.193  10.279   5.639 -0.4306 -0.7805 -0.4578
  805MOL0     C 8594   4.898   9.973   5.545  0.7084 -1.1917  0.3107
  805MOL0     C 8595   4.834  10.007   5.424 -0.1856  0.2365  0.1060
  805MOL0     C 8596   4.707   9.959   5.396 -0.1316 -0.4260 -0.8366
  805MOL0     C 8597   4.649   9.873   5.484 -0.5634  0.0383  0.0172
  805MOL0     O 8598   4.528   9.804   5.465  0.7953 -0.1724 -0.6557
  805MOL0     C 8599   4.410   9.863   5.406 -0.6970 -0.3987  1.0365
  805MOL0     C 8600   4.323   9.932   5.507 -0.4078  0.8783  0.4194
  805MOL0     C 8601   4.215   9.848   5.571 -0.1165 -0.2592 -0.9714
  805MOL0     C 8602   4.121   9.772   5.489 -0.0048  0.1577 -0.0351
  805MOL0     C 8603   4.031   9.846   5.401  0.8710  0.0166  1.1732
  805MOL0     C 8604   3.964   9.913   5.331  0.7976  0.1953 -0.0185
  805MOL0     C 8605   4.727   9.818   5.585 -0.0519  0.4610  0.3747
  805MOL0     C 8606   4.851   9.871   5.622 -0.6581  0.2587  0.4789
  805MOL0     C 8607   4.924   9.802   5.741 -0.2515  1.1351 -0.0679
  805MOL0     H 8608   5.288  10.099   5.366  0.3528 -0.9955 -0.2758
  805MOL0     H 8609   5.511  10.214   5.429 -0.4674  2.9226 -1.9111
  805MOL0     H 8610   5.676  10.331   5.481 -1.9417  1.5429 -4.0916
  805MOL0     H 8611   5.606  10.485   5.438  1.8185  1.5085 -1.5904
  805MOL0     H 8612   5.765  10.464   5.688  1.3749 -0.9355 -1.0213
  805MOL0     H 8613   5.734  10.613   5.595  1.0784  1.5648 -2.4457
  805MOL0     H 8614   5.869  10.401   5.441 -0.6483  0.2622 -0.2827
  805MOL0     H 8615   5.949  10.437   5.602 -0.9660 -1.7492 -0.1649
  805MOL0     H 8616   5.873  10.623   5.381  1.2270  2.8402  0.2614
  805MOL0     H 8617   5.932  10.678   5.534 -0.7857  0.1438  0.0709
  805MOL0     H 8618   6.160  10.632   5.481 -1.9445  0.9595  1.5997
  805MOL0     H 8619   6.117  10.490   5.377  1.6973 -0.6752  3.7051
  805MOL0     H 8620   6.050  10.653   5.199 -1.2660 -1.5574  0.2699
  805MOL0     H 8621   6.090  10.786   5.309 -1.3921 -0.9037  1.4574
  805MOL0     H 8622   6.324  10.699   5.327  2.7508  2.0619 -1.8533
  805MOL0     H 8623   6.278  10.797   5.196  0.0722 -0.9031  0.3520
  805MOL0     H 8624   6.313  10.495   5.200 -0.9168 -0.9166 -0.8209
  805MOL0     H 8625   6.258  10.580   5.052 -3.3055  2.8385  1.9787
  805MOL0     H 8626   6.454  10.776   4.946 -3.2753 -1.4544  1.5891
  805MOL0     H 8627   6.702  10.784   4.830 -4.8084 -0.9000  1.1305
  805MOL0     H 8628   6.744  10.887   4.979  0.0998 -0.4713 -0.3546
  805MOL0     H 8629   6.910  10.708   5.045  0.7934  1.8396  0.3273
  805MOL0     H 8630   6.865  10.617   4.897 -2.0827  0.9747 -0.8593
  805MOL0     H 8631   6.922  10.803   4.762  1.9215 -1.5385 -2.0069
  805MOL0     H 8632   7.060  10.724   4.839  0.3393  1.7050 -3.1953
  805MOL0     H 8633   6.940  10.974   4.948  0.2848 -0.5557  1.6943
  805MOL0     H 8634   7.070  10.995   4.850 -1.1202  1.5073  1.9138
  805MOL0     H 8635   7.184  10.686   5.157 -0.3200 -3.3031 -1.4978
  805MOL0     H 8636   7.419  10.574   5.128 -3.0399 -2.5363 -2.7012
  805MOL0     H 8637   7.876  10.597   5.142  1.9459 -1.0023  1.7389
  805MOL0     H 8638   8.079  10.449   5.147 -0.2992  0.4625 -0.0245
  805MOL0     H 8639   8.057  10.036   5.070  0.9110  4.7899  4.1671
  805MOL0     H 8640   8.049  10.074   4.895  0.7507  0.7592 -0.0669
  805MOL0     H 8641   8.283  10.058   4.855 -1.1245 -1.0031 -1.1902
  805MOL0     H 8642   8.325  10.053   5.021 -1.5517  0.1431  1.4362
  805MOL0     H 8643   8.272   9.837   5.054  0.7581  0.5039  0.2817
  805MOL0     H 8644   8.169   9.831   4.900 -2.1762  4.0795  0.4106
  805MOL0     H 8645   8.477   9.857   4.922  1.1050  0.2486 -2.0254
  805MOL0     H 8646   8.402   9.869   4.772  2.9818 -1.0973  1.3755
  805MOL0     H 8647   8.298   9.638   4.821 -1.9831  4.1747  1.4671
  805MOL0     H 8648   8.375   9.636   4.976  2.2141 -1.4226 -0.9811
  805MOL0     H 8649   8.530   9.682   4.711  1.3091  2.7085  2.0771
  805MOL0     H 8650   8.595   9.647   4.866 -0.5879  1.5364  0.5534
  805MOL0     H 8651   8.472   9.418   4.853  2.0263 -0.5643  0.8056
  805MOL0     H 8652   8.606   9.445   4.736  0.9067  3.7920 -1.9780
  805MOL0     H 8653   8.393   9.325   4.669 -2.3096 -0.7651 -2.1485
  805MOL0     H 8654   8.304   9.477   4.657  1.2419  3.6570  1.5720
  805MOL0     H 8655   7.867  10.167   4.908  2.9877 -1.2617  1.0307
  805MOL0     H 8656   7.666  10.305   4.922 -2.9475  4.0147  3.2277
  805MOL0     H 8657   7.505  10.876   4.836 -0.0405  0.8915 -0.8364
  805MOL0     H 8658   7.316  10.990   4.897 -0.5166  0.0174  0.9640
  805MOL0     H 8659   5.322  10.408   5.760 -3.7494  1.8973 -1.0599
  805MOL0     H 8660   5.107  10.306   5.700 -0.1768  1.7816 -1.1093
  805MOL0     H 8661   4.879  10.077   5.355  0.1244 -1.1457 -1.1511
  805MOL0     H 8662   4.661   9.986   5.301 -0.6482  3.8978  0.4223
  805MOL0     H 8663   4.356   9.780   5.360  0.6925  0.7906 -3.1834
  805MOL0     H 8664   4.447   9.932   5.330  0.3854 -2.3672 -0.3084
  805MOL0     H 8665   4.266  10.005   5.449  0.8200  0.7725 -1.0040
  805MOL0     H 8666   4.383   9.986   5.580 -1.7641 -1.6752  3.6838
  805MOL0     H 8667   4.171   9.905   5.653  0.5389 -1.8933  0.5803
  805MOL0     H 8668   4.268   9.771   5.628 -2.6854 -0.7102  0.9610
  805MOL0     H 8669   4.169   9.693   5.430 -1.3884  0.6654 -1.9377
  805MOL0     H 8670   4.053   9.722   5.558 -3.6990  1.7642 -2.2253
  805MOL0     H 8671   3.917   9.974   5.257  0.1634 -0.4180 -0.1297
  805MOL0     H 8672   4.710   9.717   5.620  0.0462  0.6872  1.0912
  805MOL0     H 8673   5.027   9.777   5.714 -0.7409  0.0234 -1.0020
  805MOL0     H 8674   4.912   9.866   5.829  2.1947 -1.3187  2.2434
  805MOL0     H 8675   4.876   9.706   5.764 -2.8541  2.2175 -0.6604
  806MOL0     O 8676   2.110   2.111   0.311 -0.7710  0.3282 -1.1361
  806MOL0     C 8677   2.033   2.018   0.335  0.0057  0.5672 -0.1842
  806MOL0     O 8678   2.068   1.890   0.371  0.2536 -0.5010  0.2177
  806MOL0     C 8679   2.200   1.850   0.392  0.4854  0.1231 -0.5120
  806MOL0     C 8680   2.315   1.908   0.342  0.2905 -0.2761 -0.4464
  806MOL0     C 8681   2.442   1.863   0.381 -0.2156 -0.6446  0.8494
  806MOL0     C 8682   2.453   1.765   0.475 -0.6005 -0.7115  0.2618
  806MOL0     O 8683   2.567   1.712   0.523 -0.2966 -0.1927 -0.8669
  806MOL0     C 8684   2.700   1.773   0.492  0.2303  0.1938  0.1314
  806MOL0     C 8685   2.722   1.911   0.564 -0.1518  0.0529 -0.6871
  806MOL0     C 8686   2.853   1.977   0.524 -0.4066 -0.0607  0.4756
  806MOL0     C 8687   2.872   1.995   0.371 -1.0345  0.0196  0.0514
  806MOL0     C 8688   2.955   2.128   0.339 -0.0875  0.2014 -0.0373
  806MOL0     C 8689   3.092   2.109   0.391 -0.1973 -1.0811 -0.2276
  806MOL0     C 8690   3.178   2.231   0.353  0.0026  1.3411 -0.6132
  806MOL0     C 8691   3.324   2.203   0.374  0.5669  0.1415 -0.7078
  806MOL0     N 8692   3.393   2.326   0.329  0.1893 -0.7376  0.1460
  806MOL0     C 8693   3.511   2.320   0.257  0.4554  0.3748  0.6127
  806MOL0     C 8694   3.535   2.451   0.228 -0.2948 -0.6068  0.1074
  806MOL0     C 8695   3.656   2.497   0.158 -0.6361  0.8623  0.2520
  806MOL0     C 8696   3.673   2.658   0.174 -0.3884  0.9796  0.4500
  806MOL0     C 8697   3.802   2.707   0.115  0.1962  0.7011 -0.1495
  806MOL0     C 8698   3.841   2.652  -0.023  0.4421  0.0364  0.1538
  806MOL0     O 8699   3.933   2.549  -0.017  0.3350  0.2598 -0.4896
  806MOL0     C 8700   4.069   2.565  -0.048  1.4542 -0.3950 -0.1459
  806MOL0     C 8701   4.152   2.472  -0.128  0.9330 -0.0919 -0.1315
  806MOL0     C 8702   4.279   2.511  -0.160 -0.3855  0.1184  0.1414
  806MOL0     C 8703   4.347   2.625  -0.108 -0.1341 -0.2752 -0.3253
  806MOL0     C 8704   4.491   2.652  -0.134  0.4308 -0.0313  0.2477
  806MOL0     O 8705   4.570   2.551  -0.193  0.3481 -0.4612  0.5087
  806MOL0     C 8706   4.704   2.546  -0.209 -0.0745 -0.2511 -0.5366
  806MOL0     C 8707   4.757   2.418  -0.237  0.8718 -0.2131 -0.5426
  806MOL0     C 8708   4.895   2.396  -0.246  0.6707 -0.2150  0.7345
  806MOL0     C 8709   4.984   2.509  -0.259  0.3210 -0.2117 -1.1218
  806MOL0     O 8710   5.119   2.483  -0.293  0.6200  0.6960 -0.0229
  806MOL0     C 8711   5.212   2.586  -0.306 -0.1991 -0.4023 -0.6475
  806MOL0     C 8712   5.204   2.648  -0.445 -0.1668  1.0505 -0.5986
  806MOL0     C 8713   5.205   2.543  -0.559  0.0198  0.8730 -0.3752
  806MOL0     C 8714   5.247   2.606  -0.693 -0.3017  0.2470  0.1863
  806MOL0     C 8715   5.268   2.512  -0.812 -0.1935 -0.1869  0.8334
  806MOL0     C 8716   5.341   2.377  -0.796 -0.8734 -0.2853  0.6669
  806MOL0     C 8717   5.483   2.401  -0.759  0.2119 -0.0926  0.0180
  806MOL0     C 8718   5.568   2.277  -0.775  0.0265  0.6162 -0.3390
  806MOL0    Cl 8719   5.514   2.147  -0.664  0.3922  0.3798 -0.2272
  806MOL0     C 8720   4.934   2.639  -0.217 -0.0717  0.1536  0.1135
  806MOL0     C 8721   4.796   2.658  -0.194 -1.0624  0.0128  0.7463
  806MOL0     O 8722   4.531   2.766  -0.105 -0.2756  0.1641  0.4107
  806MOL0     C 8723   4.277   2.701  -0.013 -0.3306 -0.7367 -1.7277
  806MOL0     C 8724   4.141   2.675   0.013  0.7048  0.2375 -0.4304
  806MOL0     N 8725   3.443   2.533   0.298  0.2207  0.1477 -0.6033
  806MOL0     N 8726   3.354   2.454   0.362 -0.7031  0.2823 -1.3710
  806MOL0     C 8727   2.336   1.709   0.524  0.3694  0.3316 -1.0497
  806MOL0     C 8728   2.211   1.753   0.490 -0.7587 -0.4740  0.3529
  806MOL0     C 8729   1.889   2.050   0.319  0.3607 -0.1200  0.2537
  806MOL0     C 8730   1.859   2.157   0.229 -0.6617 -0.1226  0.2204
  806MOL0     C 8731   1.732   2.185   0.192 -0.1422  0.0874 -0.3666
  806MOL0     C 8732   1.622   2.119   0.254  0.6258 -0.0110 -0.5737
  806MOL0     O 8733   1.499   2.168   0.226  0.3348 -0.1704 -0.0861
  806MOL0     C 8734   1.385   2.091   0.267  0.7758  0.0259 -0.2751
  806MOL0     C 8735   1.253   2.149   0.217  0.4645  0.3299  0.7350
  806MOL0     C 8736   1.124   2.067   0.249 -0.6891 -0.4371 -0.4992
  806MOL0     C 8737   1.056   1.996   0.140 -0.3807 -0.2957  0.6317
  806MOL0     C 8738   1.010   2.095   0.040  0.1597  0.6546  0.4299
  806MOL0     C 8739   0.977   2.158  -0.050  1.0742 -0.0095  0.4245
  806MOL0     C 8740   1.654   2.023   0.349 -0.1303 -0.2227  0.3879
  806MOL0     C 8741   1.778   1.998   0.386  0.2393 -0.3668  0.3036
  806MOL0     C 8742   1.797   1.929   0.512  0.1529 -0.5320 -0.2765
  806MOL0     H 8743   2.311   1.978   0.260  1.3399  0.1319 -0.1552
  806MOL0     H 8744   2.532   1.906   0.338 -1.5134  4.3467  2.4401
  806MOL0     H 8745   2.778   1.709   0.534  0.3959  1.3150  1.6134
  806MOL0     H 8746   2.722   1.786   0.386 -0.0714 -0.6282 -0.0408
  806MOL0     H 8747   2.717   1.902   0.673  0.5266  2.1224 -0.4383
  806MOL0     H 8748   2.639   1.971   0.524 -1.3463 -0.8984  0.2776
  806MOL0     H 8749   2.940   1.937   0.577  0.9872  4.1068  1.6880
  806MOL0     H 8750   2.862   2.079   0.563 -0.5476  1.0070 -2.0634
  806MOL0     H 8751   2.926   1.907   0.335 -1.0503 -0.1425  0.4189
  806MOL0     H 8752   2.777   1.999   0.316 -1.1626  1.1352  0.3258
  806MOL0     H 8753   2.957   2.142   0.230 -1.8738 -1.8001 -0.3980
  806MOL0     H 8754   2.905   2.216   0.381 -1.6673  0.3873 -2.1171
  806MOL0     H 8755   3.090   2.084   0.497  0.5016  2.2092  0.6566
  806MOL0     H 8756   3.133   2.027   0.332  1.3734 -0.7740  0.4043
  806MOL0     H 8757   3.137   2.305   0.422  0.9791  0.8528  0.5291
  806MOL0     H 8758   3.159   2.235   0.245 -2.3728  1.3345 -0.2269
  806MOL0     H 8759   3.351   2.197   0.480 -1.3711  0.9658 -0.1100
  806MOL0     H 8760   3.355   2.111   0.324 -1.2443 -0.9019 -0.0355
  806MOL0     H 8761   3.549   2.232   0.207 -0.7635  1.1073 -1.7783
  806MOL0     H 8762   3.742   2.448   0.204  0.4668 -1.2515 -3.6340
  806MOL0     H 8763   3.658   2.468   0.053 -0.4902  3.3281 -0.4922
  806MOL0     H 8764   3.590   2.704   0.119  1.0983  2.5847 -0.5514
  806MOL0     H 8765   3.658   2.698   0.275 -2.9143 -0.2564  0.6517
  806MOL0     H 8766   3.870   2.678   0.196  0.8109  0.4640 -0.7441
  806MOL0     H 8767   3.808   2.816   0.121 -0.1647  0.6751  0.9634
  806MOL0     H 8768   3.887   2.727  -0.088  0.7695  0.6742  1.1010
  806MOL0     H 8769   3.746   2.624  -0.069  0.8074 -1.7212  0.3873
  806MOL0     H 8770   4.121   2.369  -0.142 -0.6649  0.0780  1.6219
  806MOL0     H 8771   4.328   2.434  -0.218 -1.2412 -2.4871  2.6137
  806MOL0     H 8772   4.688   2.337  -0.260 -0.7349  1.1262 -0.6298
  806MOL0     H 8773   4.931   2.298  -0.276  2.7261  0.6795  0.1709
  806MOL0     H 8774   5.209   2.657  -0.223 -0.3989 -1.8590  0.6334
  806MOL0     H 8775   5.304   2.528  -0.294  2.6195  3.9500  1.1745
  806MOL0     H 8776   5.113   2.709  -0.441  0.4641  1.9682  2.2634
  806MOL0     H 8777   5.289   2.713  -0.465 -0.5695  1.1507 -2.1065
  806MOL0     H 8778   5.269   2.458  -0.531 -2.4818 -0.5140  1.5286
  806MOL0     H 8779   5.107   2.496  -0.551  1.0283 -1.0176  3.4241
  806MOL0     H 8780   5.344   2.654  -0.676 -0.3606  0.5645 -0.3387
  806MOL0     H 8781   5.168   2.675  -0.723  1.4243  1.1243 -2.8146
  806MOL0     H 8782   5.323   2.560  -0.893  1.2145 -2.8260  0.1060
  806MOL0     H 8783   5.167   2.495  -0.852  1.3534  0.2241 -3.9057
  806MOL0     H 8784   5.292   2.313  -0.723  0.7234 -1.2037  0.9958
  806MOL0     H 8785   5.338   2.323  -0.892 -2.8680 -1.1111  1.1409
  806MOL0     H 8786   5.486   2.455  -0.664  0.3025  1.7423 -0.9754
  806MOL0     H 8787   5.526   2.482  -0.819  0.3888  0.3243  0.6991
  806MOL0     H 8788   5.574   2.253  -0.881 -0.3605 -0.3887 -0.1416
  806MOL0     H 8789   5.666   2.312  -0.742  0.3158  1.9593 -2.4483
  806MOL0     H 8790   5.001   2.720  -0.242  0.1174 -0.9837 -3.8093
  806MOL0     H 8791   4.760   2.759  -0.178  0.0055  0.3956  0.8472
  806MOL0     H 8792   4.334   2.780   0.034  0.0049  0.1715 -3.5570
  806MOL0     H 8793   4.083   2.729   0.088 -0.8635 -1.0979 -0.6294
  806MOL0     H 8794   2.348   1.647   0.612 -2.3540  1.4686  0.2364
  806MOL0     H 8795   2.121   1.721   0.541 -0.5875 -2.8585 -0.6941
  806MOL0     H 8796   1.933   2.204   0.166 -2.2661 -0.5283 -2.0869
  806MOL0     H 8797   1.712   2.261   0.118 -4.2010  2.7599  3.0315
  806MOL0     H 8798   1.380   2.090   0.376  0.9026  0.1972 -0.2667
  806MOL0     H 8799   1.389   1.985   0.240  3.2961  0.5413 -2.3431
  806MOL0     H 8800   1.265   2.148   0.109  0.3497 -2.3984  0.6772
  806MOL0     H 8801   1.246   2.253   0.252 -2.2114  0.3825  0.2705
  806MOL0     H 8802   1.047   2.136   0.285 -0.6812 -0.3748 -0.6009
  806MOL0     H 8803   1.137   2.003   0.337 -2.2676 -0.2574 -0.1115
  806MOL0     H 8804   1.133   1.932   0.095 -1.0205  0.1022 -1.1033
  806MOL0     H 8805   0.978   1.936   0.188 -0.1258 -1.8722 -0.8291
  806MOL0     H 8806   0.962   2.213  -0.141  4.3468 -1.0264 -0.8657
  806MOL0     H 8807   1.568   1.975   0.395 -2.1725  1.9205 -0.9693
  806MOL0     H 8808   1.809   1.822   0.493  2.0657 -0.8047  2.0078
  806MOL0     H 8809   1.881   1.973   0.566 -0.1553  1.8614 -1.5776
  806MOL0     H 8810   1.710   1.952   0.575 -0.8752 -0.4878 -1.6847
  807MOL0     O 8811   5.306  11.147   3.603  0.0304  0.4800 -0.1941
  807MOL0     C 8812   5.195  11.119   3.547  0.6836  0.5907  0.8606
  807MOL0     O 8813   5.194  11.095   3.420  0.3879  0.0429  0.3253
  807MOL0     C 8814   5.293  11.140   3.344  0.5437 -0.1267  0.7952
  807MOL0     C 8815   5.427  11.097   3.355  0.6373  0.1284  0.1214
  807MOL0     C 8816   5.526  11.148   3.267  0.5607 -0.5538 -0.2541
  807MOL0     C 8817   5.494  11.246   3.175  0.3291 -0.1381  0.4742
  807MOL0     O 8818   5.595  11.290   3.094  0.3045 -1.0521 -0.3598
  807MOL0     C 8819   5.564  11.409   3.012  0.1522  0.7450 -0.1632
  807MOL0     C 8820   5.670  11.448   2.914  0.9627 -0.3068 -0.2044
  807MOL0     C 8821   5.675  11.344   2.801 -0.3048 -0.6192  0.2240
  807MOL0     C 8822   5.558  11.363   2.702 -0.1600 -0.2999 -0.7174
  807MOL0     C 8823   5.594  11.295   2.563 -0.1491 -0.5865  0.4692
  807MOL0     C 8824   5.480  11.329   2.469  0.3055  0.1278  0.2120
  807MOL0     C 8825   5.514  11.300   2.327 -0.4030  0.0878  0.8424
  807MOL0     C 8826   5.487  11.164   2.293 -0.3392 -0.1396  1.0007
  807MOL0     N 8827   5.526  11.143   2.149  0.1205  0.0908  0.1348
  807MOL0     C 8828   5.613  11.220   2.078  0.4851 -0.1542 -0.8849
  807MOL0     C 8829   5.603  11.192   1.951  0.0860  0.7823  0.4350
  807MOL0     C 8830   5.677  11.255   1.848  0.6318 -0.5943  1.3205
  807MOL0     C 8831   5.808  11.172   1.818  0.5383  0.7153  0.0550
  807MOL0     C 8832   5.920  11.208   1.918 -0.2967  0.0959 -0.9435
  807MOL0     C 8833   6.030  11.100   1.928  0.6386 -0.3580  0.0566
  807MOL0     O 8834   6.130  11.170   2.008  0.6881 -0.1587 -0.2029
  807MOL0     C 8835   6.249  11.120   1.988  0.8140  1.5925 -0.7233
  807MOL0     C 8836   6.288  11.005   2.058  1.2550 -0.5844 -0.0368
  807MOL0     C 8837   6.420  10.959   2.053  1.3146  0.4267  0.4500
  807MOL0     C 8838   6.518  11.022   1.968  0.5754  0.4438  0.2295
  807MOL0     C 8839   6.653  10.964   1.965  0.0928 -0.5357 -0.0232
  807MOL0     O 8840   6.753  11.048   1.926 -0.2103  0.2287 -0.4548
  807MOL0     C 8841   6.880  10.993   1.908  0.3336  0.0147 -0.6661
  807MOL0     C 8842   6.950  11.043   1.799  1.0662 -0.2057 -0.4184
  807MOL0     C 8843   7.080  11.013   1.774 -0.0546  0.4708 -0.0664
  807MOL0     C 8844   7.145  10.936   1.866 -0.0369 -0.8544  0.2250
  807MOL0     O 8845   7.281  10.923   1.831 -0.0729 -0.1610  0.2907
  807MOL0     C 8846   7.365  10.835   1.908  0.1425  0.6717  0.1943
  807MOL0     C 8847   7.484  10.799   1.826 -0.2462  0.2185  0.2191
  807MOL0     C 8848   7.564  10.686   1.893 -0.1867 -0.3191  0.1759
  807MOL0     C 8849   7.709  10.708   1.848 -0.5422  0.4807 -0.4204
  807MOL0     C 8850   7.802  10.586   1.871 -0.2057 -0.1771 -0.4563
  807MOL0     C 8851   7.951  10.616   1.844 -0.4692  0.6691 -0.1147
  807MOL0     C 8852   7.988  10.680   1.715  0.5376 -0.4471  0.4076
  807MOL0     C 8853   7.944  10.613   1.593  0.3422 -0.4716 -0.1387
  807MOL0    Cl 8854   8.032  10.460   1.556  0.3181 -0.5469  0.1645
  807MOL0     C 8855   7.082  10.886   1.979  0.5211 -0.0953 -0.3273
  807MOL0     C 8856   6.951  10.907   1.999 -0.0361  0.6589 -0.5998
  807MOL0     O 8857   6.665  10.844   2.001  0.5081  0.2744  0.6567
  807MOL0     C 8858   6.477  11.125   1.879  0.2853  0.5025  0.0363
  807MOL0     C 8859   6.346  11.180   1.901 -0.4447  0.6061  0.2243
  807MOL0     N 8860   5.498  11.099   1.941 -1.0756 -1.1242 -0.1562
  807MOL0     N 8861   5.458  11.068   2.059 -0.1415 -0.5575 -0.2911
  807MOL0     C 8862   5.361  11.284   3.165  0.1805 -0.1362 -0.3245
  807MOL0     C 8863   5.262  11.228   3.242 -0.5193  0.0121 -0.4378
  807MOL0     C 8864   5.073  11.098   3.626 -0.3886  1.2298  0.3472
  807MOL0     C 8865   5.092  11.107   3.764  0.8903 -0.4554 -0.6255
  807MOL0     C 8866   4.990  11.069   3.859  0.1513  0.2226  0.0838
  807MOL0     C 8867   4.870  11.023   3.820 -0.4663 -0.6946  0.3162
  807MOL0     O 8868   4.768  11.005   3.911  0.1404  0.2026 -0.3117
  807MOL0     C 8869   4.645  11.076   3.874  0.3054 -0.6966  0.2868
  807MOL0     C 8870   4.531  10.982   3.883  0.2687 -0.3165 -0.3064
  807MOL0     C 8871   4.557  10.865   3.792  0.3690 -0.5118  0.0311
  807MOL0     C 8872   4.474  10.747   3.826  0.0106 -0.3340 -1.2476
  807MOL0     C 8873   4.343  10.767   3.761  0.5030  0.9559  0.1736
  807MOL0     C 8874   4.239  10.789   3.704 -0.4433  0.5726 -0.0545
  807MOL0     C 8875   4.853  11.002   3.683  0.1966 -0.6690  0.5613
  807MOL0     C 8876   4.955  11.027   3.584  0.1274 -0.2609  0.0755
  807MOL0     C 8877   4.923  10.993   3.443 -0.5435  0.2634  0.2578
  807MOL0     H 8878   5.464  11.026   3.428  0.5104  1.3204  1.3719
  807MOL0     H 8879   5.629  11.118   3.286  1.3012  2.7886  1.8400
  807MOL0     H 8880   5.478  11.386   2.948 -0.7214 -1.2279  1.5878
  807MOL0     H 8881   5.537  11.497   3.071 -1.3874 -0.1705  0.5779
  807MOL0     H 8882   5.767  11.453   2.965  1.5850 -0.2002 -1.3786
  807MOL0     H 8883   5.648  11.545   2.869  0.7220 -1.1521 -1.9800
  807MOL0     H 8884   5.687  11.244   2.846  2.9483 -1.4405 -2.1050
  807MOL0     H 8885   5.768  11.355   2.744 -1.1571  1.0284 -0.9122
  807MOL0     H 8886   5.467  11.319   2.743  0.2888  1.6086  2.8111
  807MOL0     H 8887   5.544  11.471   2.697  0.6520 -0.1971 -0.9633
  807MOL0     H 8888   5.693  11.331   2.531  0.0587  1.3193  2.9747
  807MOL0     H 8889   5.607  11.187   2.573  0.4428 -0.5325  0.3229
  807MOL0     H 8890   5.387  11.273   2.486 -0.1483  0.3809 -1.2638
  807MOL0     H 8891   5.452  11.434   2.483 -0.9853 -0.2185  0.3727
  807MOL0     H 8892   5.616  11.334   2.308 -0.7252  0.3602 -0.4762
  807MOL0     H 8893   5.449  11.361   2.264 -0.7058 -1.1646 -0.0997
  807MOL0     H 8894   5.528  11.085   2.356  1.4277 -0.7306 -0.7725
  807MOL0     H 8895   5.380  11.140   2.287  0.1193 -2.1476 -0.3596
  807MOL0     H 8896   5.683  11.291   2.120  0.0282 -0.2336  0.0349
  807MOL0     H 8897   5.623  11.246   1.754  3.3749  3.1767 -0.8538
  807MOL0     H 8898   5.691  11.363   1.857 -2.1325  0.1350 -1.4392
  807MOL0     H 8899   5.788  11.065   1.810  0.9848  0.5267  1.2841
  807MOL0     H 8900   5.842  11.209   1.721  3.3215 -1.5063  0.0753
  807MOL0     H 8901   5.876  11.220   2.017  2.5098 -3.0639  0.8794
  807MOL0     H 8902   5.959  11.308   1.894  1.7950 -0.9881 -2.3466
  807MOL0     H 8903   6.050  11.073   1.824  0.0893  0.0716 -0.1670
  807MOL0     H 8904   5.995  11.010   1.979 -0.3433  0.2369  0.4701
  807MOL0     H 8905   6.212  10.958   2.121  0.8124  0.9444  0.6097
  807MOL0     H 8906   6.450  10.870   2.107 -2.8461 -0.3565  1.8703
  807MOL0     H 8907   6.897  11.105   1.728  0.4543  0.8263  0.8992
  807MOL0     H 8908   7.124  11.042   1.679  1.4252 -3.8119 -0.9146
  807MOL0     H 8909   7.399  10.892   1.994 -3.4047 -0.2774  2.4649
  807MOL0     H 8910   7.313  10.743   1.939 -0.6364  0.0218 -2.7042
  807MOL0     H 8911   7.455  10.779   1.722  0.1601 -0.8920  0.3075
  807MOL0     H 8912   7.544  10.891   1.825  2.4156 -1.4127  1.0989
  807MOL0     H 8913   7.545  10.706   1.999  0.2198  0.9423  0.0341
  807MOL0     H 8914   7.526  10.588   1.863  0.9864 -1.2031  1.4633
  807MOL0     H 8915   7.741  10.793   1.909 -0.1408  1.7094 -2.2767
  807MOL0     H 8916   7.706  10.740   1.744 -4.2157 -0.5221 -0.7620
  807MOL0     H 8917   7.774  10.508   1.799  0.5530  0.9200 -1.9985
  807MOL0     H 8918   7.789  10.543   1.971 -1.6146 -0.7747 -0.8677
  807MOL0     H 8919   7.993  10.684   1.918  1.4836  1.1369 -1.5705
  807MOL0     H 8920   8.009  10.525   1.863 -2.3002 -0.5577 -0.1321
  807MOL0     H 8921   8.095  10.697   1.697 -0.3236  1.1497 -4.7907
  807MOL0     H 8922   7.940  10.778   1.718 -1.3329 -1.2804 -0.8791
  807MOL0     H 8923   7.838  10.594   1.610 -0.1855  1.7881 -0.4955
  807MOL0     H 8924   7.957  10.679   1.506 -0.6589  0.3693  0.3197
  807MOL0     H 8925   7.133  10.817   2.045 -1.5401 -0.1349  1.3270
  807MOL0     H 8926   6.921  10.860   2.092  2.6954 -1.5856 -0.7166
  807MOL0     H 8927   6.547  11.162   1.806 -1.1260  1.3915 -0.9178
  807MOL0     H 8928   6.306  11.273   1.862 -1.4355  0.4405  0.7950
  807MOL0     H 8929   5.317  11.342   3.085 -0.9109 -2.0700 -1.2070
  807MOL0     H 8930   5.161  11.266   3.224  0.6220  2.1067 -3.3482
  807MOL0     H 8931   5.180  11.146   3.814  0.1392 -2.5565  2.5996
  807MOL0     H 8932   5.007  11.081   3.965  1.9882 -1.2369  0.0166
  807MOL0     H 8933   4.643  11.109   3.770  0.0510 -3.5098 -0.6988
  807MOL0     H 8934   4.641  11.164   3.938  1.0177 -0.2152 -0.3240
  807MOL0     H 8935   4.436  11.030   3.858  1.4632  1.9962 -0.7025
  807MOL0     H 8936   4.528  10.943   3.985 -0.8542 -2.6471 -1.1541
  807MOL0     H 8937   4.659  10.825   3.792  0.5866 -0.0472 -1.8605
  807MOL0     H 8938   4.532  10.894   3.689 -3.1656 -1.7938  0.3712
  807MOL0     H 8939   4.526  10.658   3.790 -0.7764 -0.1159 -3.0291
  807MOL0     H 8940   4.459  10.733   3.934  0.9233  0.0454 -1.0628
  807MOL0     H 8941   4.145  10.810   3.655 -0.1417 -1.1796 -1.4665
  807MOL0     H 8942   4.753  10.982   3.647 -0.5852  2.4382  0.7927
  807MOL0     H 8943   4.959  11.063   3.367  2.6911 -2.2076 -0.7266
  807MOL0     H 8944   4.967  10.894   3.427  0.4481  0.4233  1.8112
  807MOL0     H 8945   4.815  10.979   3.429 -0.3973 -2.1870  1.0764
  808MOL0     O 8946   1.910  10.559   5.727 -0.3032 -0.9535 -0.4121
  808MOL0     C 8947   1.814  10.501   5.777  0.1547 -0.1024 -0.5458
  808MOL0     O 8948   1.812  10.428   5.892 -0.5052 -0.2531  0.0557
  808MOL0     C 8949   1.929  10.414   5.962 -0.6543 -0.8072  0.3421
  808MOL0     C 8950   2.036  10.341   5.904 -0.2050 -0.8199  0.5757
  808MOL0     C 8951   2.154  10.328   5.977  0.1311  0.0294  0.7361
  808MOL0     C 8952   2.173  10.379   6.102  0.0358  0.3157 -1.4832
  808MOL0     O 8953   2.290  10.351   6.169  0.8779 -0.7904 -0.3887
  808MOL0     C 8954   2.362  10.452   6.241 -0.1750  0.4480  1.1216
  808MOL0     C 8955   2.378  10.583   6.157 -0.1480  0.0654  0.0984
  808MOL0     C 8956   2.447  10.685   6.255  0.3480  0.1431  0.2941
  808MOL0     C 8957   2.445  10.830   6.201  0.3919  0.0746 -0.1850
  808MOL0     C 8958   2.521  10.909   6.303  0.5108  0.6406  0.0281
  808MOL0     C 8959   2.668  10.865   6.313  0.5478  0.7078 -0.5746
  808MOL0     C 8960   2.749  10.993   6.340  0.0309  1.0983  0.2030
  808MOL0     C 8961   2.893  10.956   6.366  0.1278 -0.0743 -0.3404
  808MOL0     N 8962   2.977  11.070   6.339 -1.4619 -0.4026  0.0564
  808MOL0     C 8963   3.000  11.140   6.216  0.4406 -0.6635  0.4260
  808MOL0     C 8964   3.100  11.231   6.241  0.0169  0.5918 -0.5197
  808MOL0     C 8965   3.179  11.314   6.149  0.4893  0.4113  0.0119
  808MOL0     C 8966   3.212  11.219   6.028 -0.3316 -0.3729  0.1637
  808MOL0     C 8967   3.284  11.301   5.912 -0.2715  0.8566 -0.5523
  808MOL0     C 8968   3.191  11.385   5.825 -0.5376 -0.0820 -0.4347
  808MOL0     O 8969   3.163  11.517   5.884 -0.0551  0.7808 -0.0815
  808MOL0     C 8970   3.059  11.583   5.826  0.6565  0.1141 -0.0893
  808MOL0     C 8971   2.984  11.542   5.717  0.2152  0.5038  0.5865
  808MOL0     C 8972   2.860  11.600   5.674 -1.5978 -0.0358 -0.2644
  808MOL0     C 8973   2.815  11.706   5.749 -0.3250  0.3953  0.1894
  808MOL0     C 8974   2.706  11.783   5.700 -0.5505 -0.5886  0.4054
  808MOL0     O 8975   2.652  11.748   5.570 -0.5352 -0.8939  0.0491
  808MOL0     C 8976   2.588  11.837   5.497  0.4112 -0.8426 -0.3560
  808MOL0     C 8977   2.604  11.821   5.361  0.4852 -0.8193 -0.0821
  808MOL0     C 8978   2.544  11.915   5.286 -0.1424 -0.8900  0.5505
  808MOL0     C 8979   2.454  12.015   5.328 -0.0538  0.2654 -0.3378
  808MOL0     O 8980   2.401  12.090   5.230  0.0738 -0.7071  0.4060
  808MOL0     C 8981   2.301  12.189   5.261  0.5712  0.1626  0.0286
  808MOL0     C 8982   2.285  12.290   5.146 -1.0161  0.2753  0.1679
  808MOL0     C 8983   2.181  12.235   5.053  0.2650  0.2723  1.0181
  808MOL0     C 8984   2.046  12.203   5.123 -0.1169 -0.3928 -0.1274
  808MOL0     C 8985   1.935  12.210   5.015 -0.3444 -0.3243 -0.2604
  808MOL0     C 8986   1.783  12.209   5.066 -0.3764  0.3636 -0.0587
  808MOL0     C 8987   1.692  12.233   4.944  0.0366 -0.3503  0.6874
  808MOL0     C 8988   1.541  12.211   4.975 -0.0030 -0.2524 -0.4611
  808MOL0    Cl 8989   1.477  12.314   5.102  0.4677 -0.1832 -0.1512
  808MOL0     C 8990   2.424  12.017   5.459 -0.6510 -0.4394 -0.0751
  808MOL0     C 8991   2.490  11.930   5.542  0.0869 -0.6355  0.5095
  808MOL0     O 8992   2.670  11.883   5.768 -0.0307  0.1020  0.7493
  808MOL0     C 8993   2.892  11.757   5.854  0.1071 -0.8476 -0.5699
  808MOL0     C 8994   3.005  11.689   5.894 -1.7148  0.3375  0.5072
  808MOL0     N 8995   3.137  11.207   6.373  0.4526  0.3231  0.1690
  808MOL0     N 8996   3.060  11.119   6.430 -0.1050 -0.5091  0.3221
  808MOL0     C 8997   2.063  10.439   6.163 -1.2803  0.3341 -1.7560
  808MOL0     C 8998   1.950  10.453   6.098  0.4370  0.0704 -0.4453
  808MOL0     C 8999   1.677  10.518   5.735 -0.0800 -0.2810  0.3322
  808MOL0     C 9000   1.577  10.537   5.830  0.2641  0.6777 -0.3675
  808MOL0     C 9001   1.441  10.553   5.783 -0.8962 -0.7334 -0.7154
  808MOL0     C 9002   1.412  10.576   5.644 -0.8692 -0.0228  0.3380
  808MOL0     O 9003   1.281  10.610   5.622  0.2034  0.5319 -0.3902
  808MOL0     C 9004   1.232  10.599   5.487 -0.1677 -0.5333  0.9814
  808MOL0     C 9005   1.103  10.686   5.476 -0.0818 -0.5190  0.2031
  808MOL0     C 9006   0.984  10.657   5.562  1.0052  0.0513  0.1895
  808MOL0     C 9007   0.979  10.749   5.682  0.0914 -0.6445 -0.6128
  808MOL0     C 9008   0.864  10.708   5.759  0.4173  0.2650 -0.2493
  808MOL0     C 9009   0.775  10.675   5.840  0.0404  0.5051  0.7978
  808MOL0     C 9010   1.519  10.559   5.548  0.0638  0.9987  0.4321
  808MOL0     C 9011   1.645  10.535   5.592 -0.7106 -0.2939 -0.5100
  808MOL0     C 9012   1.753  10.516   5.492  0.4867 -0.4392  1.3520
  808MOL0     H 9013   2.026  10.288   5.810 -0.4231  0.2562 -0.0148
  808MOL0     H 9014   2.238  10.270   5.940 -0.3762 -1.3204  1.6073
  808MOL0     H 9015   2.304  10.467   6.332 -1.2548 -0.8132  0.6875
  808MOL0     H 9016   2.464  10.422   6.268  1.4895  2.0758 -2.5833
  808MOL0     H 9017   2.283  10.629   6.126  0.3453  1.5244  0.6923
  808MOL0     H 9018   2.447  10.566   6.075 -3.1040 -1.0822 -2.3410
  808MOL0     H 9019   2.551  10.653   6.248  1.1758  2.7063 -0.0586
  808MOL0     H 9020   2.408  10.669   6.356 -1.0853  0.7308 -0.1374
  808MOL0     H 9021   2.497  10.827   6.105  0.7390 -0.0080  0.0025
  808MOL0     H 9022   2.346  10.876   6.193  0.6703  0.3755 -2.6252
  808MOL0     H 9023   2.505  11.014   6.277 -2.0367  1.1078  2.9146
  808MOL0     H 9024   2.479  10.899   6.404 -1.7785 -1.2182 -1.0064
  808MOL0     H 9025   2.682  10.806   6.404 -2.3707  1.6808  0.6110
  808MOL0     H 9026   2.712  10.804   6.234  1.5200 -2.1282  1.9744
  808MOL0     H 9027   2.695  11.052   6.414 -2.7459  1.1424 -1.6972
  808MOL0     H 9028   2.741  11.044   6.243 -2.6093  0.9736  0.2771
  808MOL0     H 9029   2.917  10.911   6.462  1.0861  0.0341 -0.5179
  808MOL0     H 9030   2.918  10.884   6.288  1.9779 -3.1750  2.8386
  808MOL0     H 9031   2.964  11.111   6.118 -0.3300 -0.7140  0.7149
  808MOL0     H 9032   3.117  11.392   6.105  0.0523  1.0847  1.7375
  808MOL0     H 9033   3.274  11.339   6.197  2.7474 -5.3961 -0.5550
  808MOL0     H 9034   3.283  11.141   6.057 -1.3118 -1.9585 -1.4654
  808MOL0     H 9035   3.129  11.163   5.985 -0.3080 -0.9117  0.8192
  808MOL0     H 9036   3.333  11.235   5.840 -2.4967  1.0656 -2.3802
  808MOL0     H 9037   3.348  11.369   5.968 -1.1824 -0.8755  2.8741
  808MOL0     H 9038   3.102  11.324   5.807 -0.1203 -0.4446 -1.3267
  808MOL0     H 9039   3.238  11.392   5.727  1.4783 -0.0557  0.4925
  808MOL0     H 9040   3.012  11.456   5.656 -1.9579 -0.7916  1.3167
  808MOL0     H 9041   2.810  11.576   5.581 -0.4943  2.3035 -1.5741
  808MOL0     H 9042   2.665  11.744   5.315 -2.2718 -2.1421 -1.8078
  808MOL0     H 9043   2.555  11.912   5.178 -0.1092  3.2252  0.2700
  808MOL0     H 9044   2.207  12.141   5.287  0.6387  0.1476  0.2450
  808MOL0     H 9045   2.326  12.247   5.350  1.1301  1.1741 -0.7478
  808MOL0     H 9046   2.254  12.390   5.179 -0.9797  0.4009 -0.1722
  808MOL0     H 9047   2.383  12.296   5.100 -1.0924  1.2361  0.1217
  808MOL0     H 9048   2.168  12.316   4.980 -0.6582 -2.2373 -1.7753
  808MOL0     H 9049   2.224  12.151   4.997 -0.5437 -0.6005  1.6741
  808MOL0     H 9050   2.035  12.273   5.207 -0.5804 -0.4375 -0.1442
  808MOL0     H 9051   2.029  12.104   5.166  0.7606  1.0856  4.0974
  808MOL0     H 9052   1.945  12.126   4.944  1.2039  0.4123 -0.9513
  808MOL0     H 9053   1.939  12.314   4.981 -2.5226 -0.3720 -0.8461
  808MOL0     H 9054   1.758  12.119   5.124  1.9265  0.1820  0.7695
  808MOL0     H 9055   1.775  12.295   5.133  0.4540  2.2396 -2.2126
  808MOL0     H 9056   1.705  12.163   4.861  0.6916  1.0276 -0.4251
  808MOL0     H 9057   1.705  12.339   4.921 -1.7486  1.0067  4.8971
  808MOL0     H 9058   1.483  12.227   4.884  1.6818  1.8016 -1.2690
  808MOL0     H 9059   1.527  12.113   5.022  2.2138 -0.7523 -0.7369
  808MOL0     H 9060   2.356  12.087   5.507 -0.9737 -0.5235 -0.4014
  808MOL0     H 9061   2.472  11.951   5.647  1.0397  1.6987  0.2542
  808MOL0     H 9062   2.853  11.836   5.916 -3.0377  0.3745 -3.7378
  808MOL0     H 9063   3.059  11.733   5.977  0.7397 -1.2709 -0.1461
  808MOL0     H 9064   2.069  10.471   6.267 -1.2481 -4.1802 -0.0958
  808MOL0     H 9065   1.883  10.525   6.145 -0.7637 -1.7735  0.7735
  808MOL0     H 9066   1.599  10.539   5.936  1.4487  0.3989 -0.5966
  808MOL0     H 9067   1.361  10.584   5.850 -0.2806 -0.8993  0.1128
  808MOL0     H 9068   1.201  10.497   5.462 -2.0447  0.6255 -1.8662
  808MOL0     H 9069   1.300  10.644   5.415 -3.3730  0.7538 -1.4910
  808MOL0     H 9070   1.069  10.673   5.373  0.8550 -1.2600 -0.0283
  808MOL0     H 9071   1.129  10.792   5.481  1.2852 -0.8127 -0.3267
  808MOL0     H 9072   0.998  10.552   5.589  1.4164 -0.0179 -0.2830
  808MOL0     H 9073   0.897  10.682   5.500 -0.6769  1.3033  2.8424
  808MOL0     H 9074   1.069  10.751   5.744 -0.7398 -3.3376  0.8094
  808MOL0     H 9075   0.957  10.850   5.646 -1.4319 -0.4774  0.6664
  808MOL0     H 9076   0.706  10.622   5.903 -0.9069 -0.7755 -1.1972
  808MOL0     H 9077   1.487  10.565   5.445 -6.2437  1.0095  2.0209
  808MOL0     H 9078   1.813  10.608   5.491 -0.4103  0.2785  4.0239
  808MOL0     H 9079   1.822  10.435   5.519 -0.5053 -1.3077  1.3273
  808MOL0     H 9080   1.699  10.500   5.399 -1.9447  0.7144  2.4827
  809MOL0     O 9081   4.521   0.150   3.991 -0.4890 -0.8872 -0.2252
  809MOL0     C 9082   4.635   0.197   3.994  0.3801 -0.3560  0.5745
  809MOL0     O 9083   4.675   0.299   3.915  0.5390 -0.1043 -0.7430
  809MOL0     C 9084   4.586   0.341   3.812  0.7158 -0.7430 -0.0582
  809MOL0     C 9085   4.624   0.316   3.681  0.0259 -0.7365  0.1468
  809MOL0     C 9086   4.545   0.355   3.580  0.3598  0.1019  0.0178
  809MOL0     C 9087   4.420   0.417   3.609 -0.3730 -0.0319 -0.3026
  809MOL0     O 9088   4.332   0.458   3.516  0.1082  0.3743 -0.1973
  809MOL0     C 9089   4.374   0.441   3.381 -0.4443 -0.0653  0.0780
  809MOL0     C 9090   4.471   0.547   3.324  0.1317  0.4563  0.4458
  809MOL0     C 9091   4.494   0.523   3.176  0.8506 -0.4272 -0.0049
  809MOL0     C 9092   4.400   0.612   3.086  0.0227 -0.1962  0.1623
  809MOL0     C 9093   4.419   0.566   2.945  0.8513  0.6507  0.5103
  809MOL0     C 9094   4.563   0.618   2.905 -0.4132 -0.5366  0.3169
  809MOL0     C 9095   4.582   0.597   2.756  0.1097  0.0506 -0.0516
  809MOL0     C 9096   4.731   0.617   2.708  0.0748 -0.0509  0.0078
  809MOL0     N 9097   4.758   0.764   2.704 -0.0900 -0.7781 -0.8037
  809MOL0     C 9098   4.812   0.828   2.811 -0.2678  0.2811 -1.4732
  809MOL0     C 9099   4.844   0.949   2.771  0.4824 -0.6842 -0.4893
  809MOL0     C 9100   4.893   1.056   2.856 -0.5311 -0.1440 -0.3488
  809MOL0     C 9101   5.035   1.051   2.880  0.1256  0.6570 -0.6203
  809MOL0     C 9102   5.072   1.150   2.977 -0.7009  1.0708 -1.1133
  809MOL0     C 9103   5.230   1.167   2.966 -0.2610 -0.4684 -0.6145
  809MOL0     O 9104   5.263   1.265   2.863 -0.3277  0.6954 -0.1195
  809MOL0     C 9105   5.209   1.390   2.884 -0.2703 -0.1066  0.3102
  809MOL0     C 9106   5.203   1.457   3.009  0.8862  0.1536 -0.3670
  809MOL0     C 9107   5.147   1.589   3.022 -0.4093 -0.3744  0.1238
  809MOL0     C 9108   5.100   1.652   2.912  0.2659 -0.2986 -0.2894
  809MOL0     C 9109   5.036   1.790   2.927 -0.2220 -0.2455 -0.4893
  809MOL0     O 9110   5.032   1.872   2.823  0.4334 -0.5027  0.9042
  809MOL0     C 9111   4.955   1.983   2.833  0.4521  0.1326 -0.2002
  809MOL0     C 9112   4.836   1.986   2.763  0.4064 -0.0353  0.6634
  809MOL0     C 9113   4.751   2.091   2.771  0.5352 -1.0821  0.1900
  809MOL0     C 9114   4.787   2.206   2.842 -0.4969 -0.6941 -0.5212
  809MOL0     O 9115   4.718   2.328   2.851  0.4119 -0.5795 -0.0937
  809MOL0     C 9116   4.634   2.357   2.737  0.1751 -0.0286  0.9034
  809MOL0     C 9117   4.562   2.492   2.768 -0.5267  0.3885  0.0800
  809MOL0     C 9118   4.479   2.537   2.646  0.4860 -0.1634  0.6866
  809MOL0     C 9119   4.417   2.670   2.677  0.2421 -0.3153 -0.5375
  809MOL0     C 9120   4.361   2.740   2.547  0.4701  0.0801 -0.1520
  809MOL0     C 9121   4.323   2.885   2.588 -0.1283  0.4667 -0.2912
  809MOL0     C 9122   4.288   2.969   2.468  0.6127 -0.8457  0.6658
  809MOL0     C 9123   4.248   3.114   2.502  0.0715  0.0156 -0.8891
  809MOL0    Cl 9124   4.205   3.213   2.353 -0.5116  0.2600 -0.0805
  809MOL0     C 9125   4.904   2.199   2.916 -0.1483  0.6514  0.6146
  809MOL0     C 9126   4.985   2.096   2.910 -0.4930 -0.6035  0.2542
  809MOL0     O 9127   4.965   1.808   3.030  0.3958  0.2965 -0.6602
  809MOL0     C 9128   5.120   1.595   2.788 -1.1259  0.2585  0.1959
  809MOL0     C 9129   5.174   1.464   2.772 -0.8254 -0.6154  0.5087
  809MOL0     N 9130   4.819   0.952   2.629 -0.3090 -0.0543  0.6631
  809MOL0     N 9131   4.766   0.843   2.592  0.8420 -0.0245 -0.6356
  809MOL0     C 9132   4.382   0.440   3.736 -0.5027  0.5138  0.1030
  809MOL0     C 9133   4.465   0.395   3.833 -0.0753 -0.1311 -1.0670
  809MOL0     C 9134   4.742   0.140   4.076 -0.7070  0.4984  0.3305
  809MOL0     C 9135   4.860   0.215   4.085 -0.4666 -0.8250  0.0767
  809MOL0     C 9136   4.954   0.181   4.180 -0.6519  0.4352  0.1623
  809MOL0     C 9137   4.950   0.053   4.243 -0.2910  0.4165 -0.0163
  809MOL0     O 9138   5.048  -0.006   4.325 -0.2454  0.1496  0.3581
  809MOL0     C 9139   5.166   0.076   4.351 -0.5932  0.0336 -0.0366
  809MOL0     C 9140   5.260  -0.014   4.425  0.2952 -1.0748  0.8243
  809MOL0     C 9141   5.203  -0.050   4.568  0.2168  0.6212  0.7201
  809MOL0     C 9142   5.271   0.034   4.678 -0.0210  0.0179  0.2561
  809MOL0     C 9143   5.416   0.027   4.681 -0.3137 -0.0443 -0.2508
  809MOL0     C 9144   5.541   0.024   4.702  0.0481  1.1287  0.1549
  809MOL0     C 9145   4.838  -0.014   4.242  0.1666 -0.4341  0.7651
  809MOL0     C 9146   4.730   0.023   4.159  0.2135  0.0693  0.3901
  809MOL0     C 9147   4.606  -0.061   4.155  0.0112  0.2263 -0.0656
  809MOL0     H 9148   4.725   0.281   3.659  0.5437  0.6170  0.2596
  809MOL0     H 9149   4.573   0.328   3.478  0.3629 -3.0918  0.7588
  809MOL0     H 9150   4.404   0.338   3.360 -1.5565 -0.0975 -1.4937
  809MOL0     H 9151   4.281   0.448   3.325 -2.3242 -1.1904  2.8289
  809MOL0     H 9152   4.572   0.537   3.364  0.4002  0.2632 -0.2535
  809MOL0     H 9153   4.443   0.651   3.345 -0.7729  0.1976  0.5781
  809MOL0     H 9154   4.495   0.415   3.156  0.1794 -0.5595  0.6160
  809MOL0     H 9155   4.594   0.560   3.156  1.4052 -1.6547  0.3812
  809MOL0     H 9156   4.295   0.602   3.114  0.4465 -3.1006  1.1136
  809MOL0     H 9157   4.420   0.718   3.101  1.6549 -0.2442 -1.4161
  809MOL0     H 9158   4.405   0.457   2.943 -1.0954  0.8727 -1.8761
  809MOL0     H 9159   4.345   0.620   2.886 -0.7978 -0.3777  1.5723
  809MOL0     H 9160   4.558   0.726   2.917 -1.6210 -0.8345  3.6508
  809MOL0     H 9161   4.647   0.583   2.967  1.5339  1.6190 -0.9695
  809MOL0     H 9162   4.507   0.660   2.708 -1.0592 -0.6083  0.8652
  809MOL0     H 9163   4.571   0.492   2.727 -2.1617  0.6325 -1.6065
  809MOL0     H 9164   4.797   0.566   2.779 -2.0639  0.1250  2.2646
  809MOL0     H 9165   4.736   0.581   2.605  2.5302 -2.3941  0.8189
  809MOL0     H 9166   4.833   0.781   2.906  0.5556  2.0186 -0.7635
  809MOL0     H 9167   4.878   1.152   2.806  2.2323 -0.5361 -2.1373
  809MOL0     H 9168   4.841   1.055   2.952  1.3054  1.4293  0.7383
  809MOL0     H 9169   5.054   0.949   2.914 -1.8829  0.3591 -0.2641
  809MOL0     H 9170   5.078   1.077   2.783  0.4441 -0.1514 -0.7057
  809MOL0     H 9171   5.044   1.111   3.075  0.2420 -0.3949 -1.4027
  809MOL0     H 9172   5.009   1.239   2.965  1.2895  2.5872 -0.8540
  809MOL0     H 9173   5.285   1.073   2.952  0.5791 -0.2613  1.0091
  809MOL0     H 9174   5.281   1.198   3.058 -3.0762  0.7213  0.6456
  809MOL0     H 9175   5.246   1.413   3.098 -1.9057 -2.3983 -0.1651
  809MOL0     H 9176   5.122   1.631   3.120 -1.0735 -1.6928  0.5455
  809MOL0     H 9177   4.805   1.918   2.685 -1.3085 -0.6223  1.7837
  809MOL0     H 9178   4.662   2.072   2.711  0.6583 -1.1460  0.0275
  809MOL0     H 9179   4.694   2.355   2.646 -1.6649  0.5818 -0.3819
  809MOL0     H 9180   4.547   2.291   2.729  1.0101 -1.3406  2.0356
  809MOL0     H 9181   4.502   2.481   2.859  0.6491 -0.3579  0.7991
  809MOL0     H 9182   4.642   2.564   2.788 -1.1867  1.3931 -0.8054
  809MOL0     H 9183   4.553   2.555   2.568  2.8542 -0.1483  2.7930
  809MOL0     H 9184   4.398   2.469   2.616 -1.1457 -0.7899  5.5575
  809MOL0     H 9185   4.489   2.735   2.727 -0.8045 -0.0004  0.5912
  809MOL0     H 9186   4.333   2.652   2.744 -0.0572  4.0190  0.5190
  809MOL0     H 9187   4.271   2.685   2.519  1.6912 -1.0073 -2.2065
  809MOL0     H 9188   4.439   2.743   2.470  1.9439  2.9539  1.2837
  809MOL0     H 9189   4.240   2.889   2.659 -0.6737 -0.1715 -0.8751
  809MOL0     H 9190   4.419   2.920   2.627 -0.5332 -0.8820  2.1254
  809MOL0     H 9191   4.208   2.918   2.416 -0.9410  2.1988 -0.1912
  809MOL0     H 9192   4.382   2.962   2.413  0.3707 -1.5205  0.3374
  809MOL0     H 9193   4.176   3.125   2.583  0.0969  2.4746 -1.1425
  809MOL0     H 9194   4.339   3.165   2.536 -1.7643  2.7637  0.1874
  809MOL0     H 9195   4.930   2.279   2.985 -1.0176  1.6345 -0.1767
  809MOL0     H 9196   5.066   2.086   2.982 -1.6573 -2.4976  1.3794
  809MOL0     H 9197   5.087   1.643   2.696  2.2530 -3.2229 -3.1789
  809MOL0     H 9198   5.192   1.439   2.668  1.6125  2.6283 -0.0406
  809MOL0     H 9199   4.282   0.473   3.765 -2.3543 -2.2558 -2.4274
  809MOL0     H 9200   4.432   0.424   3.933 -1.3597  5.0469 -2.6651
  809MOL0     H 9201   4.890   0.291   4.014  2.7179  1.1355  3.2106
  809MOL0     H 9202   5.041   0.242   4.197  1.5510 -1.5706 -2.8709
  809MOL0     H 9203   5.129   0.156   4.415 -1.1655  0.7615 -1.2450
  809MOL0     H 9204   5.215   0.113   4.261 -1.8932 -0.2266 -0.8824
  809MOL0     H 9205   5.360   0.030   4.427 -0.0660 -0.1260 -0.5503
  809MOL0     H 9206   5.275  -0.111   4.377  0.5592 -1.0987  0.9490
  809MOL0     H 9207   5.231  -0.154   4.586 -0.7363 -0.3830 -2.8603
  809MOL0     H 9208   5.094  -0.043   4.566 -0.0912 -2.3688  1.7894
  809MOL0     H 9209   5.234   0.136   4.662  0.4570  0.1576  0.0305
  809MOL0     H 9210   5.239  -0.006   4.775  0.2520  0.4126  0.5142
  809MOL0     H 9211   5.645   0.002   4.701 -0.7265 -3.8678  1.9087
  809MOL0     H 9212   4.825  -0.089   4.320 -3.7260 -2.3046 -1.3855
  809MOL0     H 9213   4.529  -0.005   4.208  0.7931 -0.2455  1.6486
  809MOL0     H 9214   4.577  -0.091   4.054 -0.9008 -0.7827  0.4835
  809MOL0     H 9215   4.629  -0.153   4.209  0.3815  0.7445  0.6747
  810MOL0     O 9216   4.899   3.552   9.788  0.4338  0.1744  0.6474
  810MOL0     C 9217   4.953   3.553   9.898 -0.2475 -0.1151  0.2544
  810MOL0     O 9218   5.016   3.454   9.964 -0.3187  0.2033 -0.0934
  810MOL0     C 9219   4.997   3.339   9.898 -0.1449 -0.5998 -0.6577
  810MOL0     C 9220   5.060   3.309   9.774  0.6970 -0.1531 -0.1582
  810MOL0     C 9221   5.045   3.188   9.714 -0.0055  0.6509  0.7345
  810MOL0     C 9222   4.964   3.087   9.764 -0.1263 -0.5024 -0.1686
  810MOL0     O 9223   4.952   2.973   9.686 -0.5742  0.1517  0.4771
  810MOL0     C 9224   4.851   2.872   9.721  0.3856 -0.3630 -0.3365
  810MOL0     C 9225   4.879   2.754   9.627  0.6783  0.4517 -0.1409
  810MOL0     C 9226   4.752   2.659   9.618  0.5505  1.0090 -0.1220
  810MOL0     C 9227   4.785   2.547   9.525  0.0603 -0.6437  0.4732
  810MOL0     C 9228   4.663   2.478   9.467 -0.5377 -0.3536  0.5830
  810MOL0     C 9229   4.588   2.394   9.567  0.9759 -0.7882  0.2128
  810MOL0     C 9230   4.667   2.272   9.622 -0.0265 -0.9481  0.6162
  810MOL0     C 9231   4.682   2.162   9.519  0.4197  1.2579  0.2232
  810MOL0     N 9232   4.792   2.073   9.563 -0.1052  0.7244 -0.5843
  810MOL0     C 9233   4.807   1.968   9.656 -1.2163 -0.1210 -0.4648
  810MOL0     C 9234   4.925   1.909   9.631 -0.9236  0.3502  0.1406
  810MOL0     C 9235   4.986   1.806   9.714 -0.1585  0.5774  0.4784
  810MOL0     C 9236   5.066   1.716   9.608  0.2855 -1.0154  0.1531
  810MOL0     C 9237   5.085   1.577   9.655  0.4396 -0.1362  0.5365
  810MOL0     C 9238   5.120   1.551   9.793 -0.7064 -0.0475 -1.1739
  810MOL0     O 9239   5.091   1.409   9.814 -1.1708  0.1891 -0.4551
  810MOL0     C 9240   5.138   1.348   9.930  0.5332 -1.3163 -0.0381
  810MOL0     C 9241   5.133   1.413  10.059  0.2181  0.1637 -0.2078
  810MOL0     C 9242   5.164   1.348  10.171  0.3624  0.4707 -0.0258
  810MOL0     C 9243   5.212   1.212  10.159 -0.2374 -1.5730  0.6131
  810MOL0     C 9244   5.262   1.146  10.285 -0.9540 -0.4984 -0.3592
  810MOL0     O 9245   5.280   1.006  10.285  0.4629 -0.0948  0.3594
  810MOL0     C 9246   5.324   0.953  10.407  0.1186 -0.2885  0.3058
  810MOL0     C 9247   5.455   0.897  10.416  0.3333  0.4851  0.6866
  810MOL0     C 9248   5.506   0.836  10.522  0.0192 -0.1446  0.1204
  810MOL0     C 9249   5.431   0.846  10.642 -0.4265 -0.6614  1.2540
  810MOL0     O 9250   5.454   0.771  10.754 -0.3277  0.8617 -0.3838
  810MOL0     C 9251   5.571   0.689  10.753  0.1320 -0.0182  0.6255
  810MOL0     C 9252   5.560   0.615  10.882  0.2704  0.4219  0.6526
  810MOL0     C 9253   5.673   0.526  10.928 -0.0885 -0.0184 -0.4103
  810MOL0     C 9254   5.803   0.602  10.939  0.1476  0.3517  0.3892
  810MOL0     C 9255   5.909   0.509  10.992 -0.0202 -0.0145 -1.2221
  810MOL0     C 9256   6.040   0.576  11.029 -0.0721  1.5784 -0.1781
  810MOL0     C 9257   6.146   0.480  10.979 -0.7991  1.1739  0.5459
  810MOL0     C 9258   6.272   0.491  11.063  0.4667 -0.1655 -1.0935
  810MOL0    Cl 9259   6.337   0.662  11.048  0.6239 -0.0591 -0.1255
  810MOL0     C 9260   5.311   0.905  10.647  0.8058 -1.1371  0.0172
  810MOL0     C 9261   5.249   0.951  10.525 -0.1328  0.3102 -0.2665
  810MOL0     O 9262   5.286   1.217  10.379 -0.6787  0.3949  0.3641
  810MOL0     C 9263   5.226   1.150  10.038  0.6330  0.2522  0.1081
  810MOL0     C 9264   5.184   1.221   9.924 -0.2803 -0.5595  0.2440
  810MOL0     N 9265   4.986   1.983   9.526  0.4141  0.4329  0.4773
  810MOL0     N 9266   4.903   2.080   9.495  0.2265 -0.5282 -0.8619
  810MOL0     C 9267   4.904   3.115   9.889  0.2390  0.7660 -0.5351
  810MOL0     C 9268   4.923   3.234   9.958 -0.7585  0.1291  0.9325
  810MOL0     C 9269   4.958   3.673   9.974 -0.3195 -0.3792 -0.7002
  810MOL0     C 9270   4.933   3.662  10.114  0.1719 -0.5733  0.2373
  810MOL0     C 9271   4.949   3.771  10.199 -0.8483 -0.2490 -0.2796
  810MOL0     C 9272   4.999   3.897  10.151  0.7283 -0.6999  0.5211
  810MOL0     O 9273   5.001   4.012  10.224  0.4906  0.0073 -0.1248
  810MOL0     C 9274   5.001   4.015  10.365  0.0625  0.3919 -0.4056
  810MOL0     C 9275   4.866   4.017  10.433  0.4869  0.1029 -0.6865
  810MOL0     C 9276   4.878   4.069  10.584 -0.4556  0.4770 -0.1778
  810MOL0     C 9277   4.743   4.094  10.651 -0.1128  0.2850 -1.0364
  810MOL0     C 9278   4.758   4.132  10.789  0.3641 -0.7243 -0.2680
  810MOL0     C 9279   4.767   4.161  10.905  0.1139  0.4248  0.1471
  810MOL0     C 9280   5.021   3.909  10.014  0.6322  0.1321  0.3052
  810MOL0     C 9281   4.992   3.797   9.927  0.1908  0.5816  0.0478
  810MOL0     C 9282   5.013   3.822   9.779  0.5928  0.0589  0.0733
  810MOL0     H 9283   5.120   3.383   9.723  4.2298 -3.1208 -0.7372
  810MOL0     H 9284   5.088   3.158   9.619 -1.0699 -1.5374  0.8983
  810MOL0     H 9285   4.852   2.834   9.824 -1.3107 -1.0753 -0.5407
  810MOL0     H 9286   4.750   2.910   9.701 -0.7341 -3.3034 -0.7565
  810MOL0     H 9287   4.964   2.692   9.656 -1.0333 -4.0737 -3.7879
  810MOL0     H 9288   4.879   2.805   9.531  0.6317  0.8928  0.0900
  810MOL0     H 9289   4.661   2.707   9.584 -1.5855 -1.3518  1.8571
  810MOL0     H 9290   4.729   2.626   9.720 -2.2025  1.4423 -0.5453
  810MOL0     H 9291   4.841   2.596   9.445  0.6146 -1.7490  0.1712
  810MOL0     H 9292   4.854   2.480   9.577 -0.0929 -0.7771  0.5058
  810MOL0     H 9293   4.600   2.552   9.417 -0.0021  0.6507  1.3381
  810MOL0     H 9294   4.696   2.416   9.383 -3.1671 -1.7410  0.4895
  810MOL0     H 9295   4.544   2.450   9.650 -1.5868 -1.7465 -0.4118
  810MOL0     H 9296   4.505   2.349   9.512  1.7883 -0.8005 -1.0249
  810MOL0     H 9297   4.615   2.238   9.713 -4.8480 -0.3609 -1.6412
  810MOL0     H 9298   4.760   2.314   9.663 -1.5795  1.7501  1.5915
  810MOL0     H 9299   4.596   2.095   9.528 -0.0825  2.0381  1.4475
  810MOL0     H 9300   4.696   2.202   9.418 -0.4273 -1.4045 -1.0527
  810MOL0     H 9301   4.739   1.957   9.740 -1.9681  0.6419 -0.9529
  810MOL0     H 9302   5.047   1.855   9.790  1.9894  1.6836 -1.8195
  810MOL0     H 9303   4.907   1.745   9.758  0.0836  1.0442  1.5873
  810MOL0     H 9304   5.016   1.722   9.510  2.0515  2.2249 -0.7077
  810MOL0     H 9305   5.167   1.755   9.595 -0.6468  1.0081 -1.6100
  810MOL0     H 9306   5.156   1.530   9.587  1.2576  1.1516  0.4867
  810MOL0     H 9307   4.992   1.523   9.634  1.3573 -1.6607  0.2288
  810MOL0     H 9308   5.070   1.611   9.870 -0.1078 -1.2357  0.1802
  810MOL0     H 9309   5.228   1.567   9.789 -0.5226 -0.9349 -0.3081
  810MOL0     H 9310   5.098   1.515  10.068  0.5038  0.2765 -0.3754
  810MOL0     H 9311   5.167   1.393  10.270 -2.8178 -1.5348  1.1317
  810MOL0     H 9312   5.518   0.903  10.329 -0.2104  1.9977  0.3572
  810MOL0     H 9313   5.595   0.774  10.516  0.5419  0.7081 -1.1678
  810MOL0     H 9314   5.568   0.616  10.672  1.0137  0.6265 -0.0089
  810MOL0     H 9315   5.661   0.752  10.760  0.7461 -1.0215  2.2357
  810MOL0     H 9316   5.556   0.693  10.959  2.4014  0.7899  0.4476
  810MOL0     H 9317   5.466   0.559  10.885  0.4749 -0.3030 -2.6991
  810MOL0     H 9318   5.638   0.485  11.024 -1.4227 -3.4104 -2.1940
  810MOL0     H 9319   5.682   0.427  10.882  0.6576  0.6154 -1.6662
  810MOL0     H 9320   5.797   0.691  11.002  0.1689 -1.4990  3.1822
  810MOL0     H 9321   5.831   0.634  10.839 -2.8097  2.5586  0.1209
  810MOL0     H 9322   5.916   0.422  10.925 -2.2747  1.4513 -3.5603
  810MOL0     H 9323   5.860   0.458  11.076 -4.2969 -0.5470 -3.7339
  810MOL0     H 9324   6.050   0.675  10.984  0.3594  0.9790 -1.4512
  810MOL0     H 9325   6.051   0.583  11.138  0.4357 -1.5892  0.0575
  810MOL0     H 9326   6.170   0.491  10.873  2.0026 -0.3831  0.9347
  810MOL0     H 9327   6.108   0.378  10.992 -0.9557  1.0714 -0.6227
  810MOL0     H 9328   6.261   0.453  11.165 -0.1044  1.7629 -0.3947
  810MOL0     H 9329   6.340   0.418  11.017  0.3813  0.8112 -2.8553
  810MOL0     H 9330   5.269   0.915  10.747  1.6031  0.4191  0.2165
  810MOL0     H 9331   5.146   0.982  10.515 -0.5266 -1.0052 -0.4927
  810MOL0     H 9332   5.273   1.052  10.029 -0.7653 -0.4505  0.0582
  810MOL0     H 9333   5.183   1.187   9.821 -2.9740 -0.7575  0.2703
  810MOL0     H 9334   4.849   3.044   9.949  1.0214  1.0756  0.5794
  810MOL0     H 9335   4.879   3.255  10.054  0.2800  0.3214  1.3843
  810MOL0     H 9336   4.905   3.568  10.162  4.9510 -1.6262  1.4747
  810MOL0     H 9337   4.936   3.757  10.306  1.2209  0.8058  0.1676
  810MOL0     H 9338   5.041   4.112  10.395 -1.0961  0.2078  2.0519
  810MOL0     H 9339   5.077   3.948  10.407  0.1467 -0.6976 -2.2032
  810MOL0     H 9340   4.838   3.912  10.443  3.3416 -0.6443  0.6467
  810MOL0     H 9341   4.796   4.082  10.381 -1.3042 -0.2602  1.1405
  810MOL0     H 9342   4.935   4.161  10.597  2.0855 -1.2754  2.3136
  810MOL0     H 9343   4.930   3.994  10.645 -0.2642  1.8737  1.4222
  810MOL0     H 9344   4.699   4.179  10.597 -0.8586 -1.6543 -3.6783
  810MOL0     H 9345   4.682   4.005  10.639  0.1433  0.1696 -1.4904
  810MOL0     H 9346   4.736   4.201  10.999 -0.6253  1.9920 -0.7197
  810MOL0     H 9347   5.034   4.000   9.958 -0.7232 -0.3174 -0.7943
  810MOL0     H 9348   5.046   3.730   9.730 -0.2561 -0.3280  0.2097
  810MOL0     H 9349   4.923   3.846   9.721  0.5113  3.2690  1.3367
  810MOL0     H 9350   5.095   3.890   9.756 -0.8160  1.4095 -1.2175
  811MOL0     O 9351   8.105   7.413   0.414  0.0672 -0.2409  0.7125
  811MOL0     C 9352   8.023   7.490   0.455 -0.3972  0.2502  0.3188
  811MOL0     O 9353   8.005   7.521   0.585  0.0810  0.0710  0.2696
  811MOL0     C 9354   8.086   7.462   0.677  0.1328  0.7050  0.1129
  811MOL0     C 9355   8.118   7.327   0.670 -0.1060  0.5024  0.0885
  811MOL0     C 9356   8.206   7.288   0.772  0.1137 -0.0535 -0.2157
  811MOL0     C 9357   8.248   7.360   0.884 -0.0050 -0.3588  1.2993
  811MOL0     O 9358   8.332   7.292   0.973  0.6565  0.3716  0.5434
  811MOL0     C 9359   8.413   7.384   1.048  1.1295  0.0378  0.4688
  811MOL0     C 9360   8.476   7.294   1.155  0.5606 -0.0966 -0.5363
  811MOL0     C 9361   8.582   7.205   1.105 -0.6030 -1.0880  0.3341
  811MOL0     C 9362   8.616   7.101   1.213  0.1323  0.0445 -0.1594
  811MOL0     C 9363   8.715   7.001   1.179 -0.0179 -0.3264 -0.2231
  811MOL0     C 9364   8.870   7.045   1.191 -0.5014  0.2488  0.0489
  811MOL0     C 9365   8.945   6.971   1.078 -0.0991  0.4197  0.8428
  811MOL0     C 9366   9.093   7.005   1.081 -0.5338 -0.0983 -0.0570
  811MOL0     N 9367   9.174   6.942   1.190  1.1259 -0.0086 -0.1384
  811MOL0     C 9368   9.252   6.835   1.163  0.8122  0.1450  0.2882
  811MOL0     C 9369   9.287   6.784   1.288  0.7071 -0.8632 -0.1629
  811MOL0     C 9370   9.386   6.677   1.307  0.7249  0.2697  0.0426
  811MOL0     C 9371   9.326   6.550   1.376 -0.2725 -0.4720  0.3818
  811MOL0     C 9372   9.322   6.557   1.525  0.1853 -0.2687  0.0315
  811MOL0     C 9373   9.282   6.418   1.579 -0.3962 -0.7311 -0.4835
  811MOL0     O 9374   9.375   6.315   1.538  0.2543  0.6003  0.6055
  811MOL0     C 9375   9.464   6.275   1.632  1.1044  0.0184 -0.6085
  811MOL0     C 9376   9.504   6.140   1.640 -0.6699  0.2862  0.7534
  811MOL0     C 9377   9.590   6.100   1.742 -0.1646  0.7247 -0.6764
  811MOL0     C 9378   9.647   6.189   1.832 -0.2173  0.1377  0.0363
  811MOL0     C 9379   9.703   6.147   1.960 -0.4749  0.3161 -0.3184
  811MOL0     O 9380   9.727   6.249   2.048  0.3872 -1.0280  0.5994
  811MOL0     C 9381   9.756   6.237   2.179  0.3264 -0.2923  0.1884
  811MOL0     C 9382   9.660   6.177   2.260 -0.5068 -0.4738 -0.4606
  811MOL0     C 9383   9.682   6.180   2.394  0.2933 -0.9671 -0.6440
  811MOL0     C 9384   9.798   6.235   2.448 -0.6287  0.1794  0.1723
  811MOL0     O 9385   9.814   6.220   2.585  0.2732 -0.2958  0.2440
  811MOL0     C 9386   9.944   6.223   2.644  0.5133  0.3853  0.3319
  811MOL0     C 9387   9.929   6.190   2.790 -0.0701  0.2300 -0.8628
  811MOL0     C 9388  10.066   6.177   2.862  0.2743 -0.2203  0.2588
  811MOL0     C 9389  10.061   6.143   3.006 -1.3670 -0.0321 -0.0302
  811MOL0     C 9390  10.206   6.165   3.056 -0.2740 -0.7206 -0.8395
  811MOL0     C 9391  10.314   6.064   3.022  0.8239 -0.2658  0.1085
  811MOL0     C 9392  10.446   6.093   3.097  0.7054 -0.0146 -0.2297
  811MOL0     C 9393  10.554   6.001   3.051  0.3206  0.3821  0.3180
  811MOL0    Cl 9394  10.701   6.003   3.142  0.0924  0.4841 -0.0751
  811MOL0     C 9395   9.887   6.303   2.367 -0.2284  0.4360 -1.1764
  811MOL0     C 9396   9.860   6.310   2.229 -0.3144  0.2934 -0.3610
  811MOL0     O 9397   9.708   6.026   1.990 -0.2625 -0.0767  0.2509
  811MOL0     C 9398   9.623   6.322   1.817  0.2843  0.2923  0.3072
  811MOL0     C 9399   9.524   6.369   1.716  0.1849  0.1256  0.1346
  811MOL0     N 9400   9.241   6.877   1.385 -0.7214 -0.4393  0.0163
  811MOL0     N 9401   9.179   6.975   1.322 -0.4557 -0.3564 -0.5323
  811MOL0     C 9402   8.209   7.490   0.883  0.0672  0.2749  0.7932
  811MOL0     C 9403   8.130   7.545   0.782  0.0195 -0.9599  0.6947
  811MOL0     C 9404   7.926   7.561   0.364  0.4726 -0.7472  0.0614
  811MOL0     C 9405   7.826   7.639   0.427  0.2047 -0.0909  0.0505
  811MOL0     C 9406   7.715   7.677   0.347  0.2510 -0.8790 -0.1942
  811MOL0     C 9407   7.713   7.648   0.206  0.4216 -0.0794  0.5625
  811MOL0     O 9408   7.608   7.682   0.123  0.3899 -0.5057  0.6106
  811MOL0     C 9409   7.498   7.754   0.185  0.3708  0.0115  0.7642
  811MOL0     C 9410   7.393   7.784   0.078 -0.1718 -0.2792 -0.1615
  811MOL0     C 9411   7.320   7.661   0.020 -0.1080  0.0555 -0.3008
  811MOL0     C 9412   7.205   7.691  -0.082 -0.5458 -1.2983  0.2415
  811MOL0     C 9413   7.260   7.739  -0.213 -0.2500  0.2775 -1.1209
  811MOL0     C 9414   7.321   7.762  -0.313 -0.0939 -0.4177  0.6954
  811MOL0     C 9415   7.820   7.585   0.148 -0.4328  0.0004 -0.4058
  811MOL0     C 9416   7.933   7.539   0.222 -0.0948 -0.6643 -0.1653
  811MOL0     C 9417   8.032   7.448   0.156 -0.1109  0.9208 -0.2786
  811MOL0     H 9418   8.075   7.255   0.601 -0.8552 -0.6489  1.6753
  811MOL0     H 9419   8.248   7.188   0.772 -1.2031 -0.7336  3.0096
  811MOL0     H 9420   8.474   7.447   0.982 -1.0880  0.0011 -1.7803
  811MOL0     H 9421   8.343   7.453   1.095 -0.2524  0.7674 -2.4124
  811MOL0     H 9422   8.396   7.239   1.205  0.1652 -2.0731 -3.1041
  811MOL0     H 9423   8.515   7.368   1.224  0.0175  1.0764 -1.4549
  811MOL0     H 9424   8.673   7.263   1.084 -0.3041 -2.0017 -1.0132
  811MOL0     H 9425   8.550   7.156   1.013 -0.9554 -0.3458  0.0528
  811MOL0     H 9426   8.650   7.160   1.298  0.7285 -0.3821 -0.0935
  811MOL0     H 9427   8.529   7.045   1.248  1.2115 -2.4703 -1.2572
  811MOL0     H 9428   8.696   6.920   1.249 -0.8165  0.0900  0.0534
  811MOL0     H 9429   8.692   6.965   1.078 -2.7705 -1.2154  0.6324
  811MOL0     H 9430   8.885   7.151   1.167 -0.2659  0.3798  0.7673
  811MOL0     H 9431   8.911   7.001   1.282  0.4798 -1.0000 -0.9649
  811MOL0     H 9432   8.899   6.997   0.982  4.7093  2.1428 -1.3480
  811MOL0     H 9433   8.939   6.864   1.101 -3.2599  0.0700 -0.9510
  811MOL0     H 9434   9.129   6.967   0.985  0.5162 -2.2948  1.1143
  811MOL0     H 9435   9.104   7.114   1.087  0.5188 -0.2423  1.2889
  811MOL0     H 9436   9.279   6.789   1.069  1.3282  1.1643 -0.0751
  811MOL0     H 9437   9.433   6.656   1.210 -1.5759 -1.4207 -0.8042
  811MOL0     H 9438   9.468   6.707   1.372  0.6398 -3.1365  1.9494
  811MOL0     H 9439   9.228   6.522   1.335  0.8734 -0.0940 -2.8200
  811MOL0     H 9440   9.399   6.470   1.360  1.7705  1.5475 -0.9176
  811MOL0     H 9441   9.242   6.624   1.557  1.9799  0.5467  3.2790
  811MOL0     H 9442   9.418   6.598   1.560 -0.0680  3.1267 -2.6334
  811MOL0     H 9443   9.185   6.389   1.537 -0.1068 -1.5766 -0.6086
  811MOL0     H 9444   9.261   6.412   1.686 -2.2393  1.7222 -0.6305
  811MOL0     H 9445   9.477   6.063   1.568  5.0317 -0.5775 -0.9996
  811MOL0     H 9446   9.617   5.995   1.743 -1.2655  0.4189 -1.6480
  811MOL0     H 9447   9.575   6.135   2.208 -1.1209 -2.1071  1.7224
  811MOL0     H 9448   9.614   6.140   2.469  1.2641 -0.9765  0.2687
  811MOL0     H 9449  10.018   6.158   2.597 -0.2240  0.1745 -0.5604
  811MOL0     H 9450   9.988   6.321   2.629  0.5811  0.7506  2.4894
  811MOL0     H 9451   9.866   6.267   2.835 -2.3551 -2.0644  0.1236
  811MOL0     H 9452   9.879   6.096   2.814 -1.0648  1.1717  0.9260
  811MOL0     H 9453  10.117   6.104   2.799 -0.8279 -1.2428  0.5144
  811MOL0     H 9454  10.117   6.273   2.848  1.7163 -0.9535  0.3140
  811MOL0     H 9455  10.031   6.038   3.010  1.4545 -1.0541 -2.2635
  811MOL0     H 9456   9.993   6.200   3.070 -1.3128 -4.8816  5.0329
  811MOL0     H 9457  10.181   6.152   3.161 -1.5035  0.6778 -0.9289
  811MOL0     H 9458  10.245   6.266   3.046  2.0781 -1.4604  0.3756
  811MOL0     H 9459  10.275   5.964   3.043  0.0894 -0.3200 -1.3479
  811MOL0     H 9460  10.344   6.064   2.916  0.6862 -0.2708  0.0693
  811MOL0     H 9461  10.423   6.087   3.204 -5.1351  1.2087 -1.0767
  811MOL0     H 9462  10.474   6.197   3.079 -1.4922  0.6042 -0.3869
  811MOL0     H 9463  10.512   5.900   3.056 -2.5209  1.4554  0.0594
  811MOL0     H 9464  10.578   6.030   2.948  0.1414  1.2833  0.5183
  811MOL0     H 9465   9.983   6.345   2.394  0.3704  0.3774 -3.0634
  811MOL0     H 9466   9.933   6.364   2.169 -1.9393  1.0264 -1.7317
  811MOL0     H 9467   9.666   6.393   1.887  1.8684  0.3231 -0.6479
  811MOL0     H 9468   9.514   6.477   1.720  0.0268  0.1010  0.3411
  811MOL0     H 9469   8.232   7.560   0.963  2.5081 -0.4431  0.7879
  811MOL0     H 9470   8.088   7.645   0.791 -0.8505 -1.0352 -1.7071
  811MOL0     H 9471   7.820   7.655   0.535 -0.7254 -0.9732  0.1500
  811MOL0     H 9472   7.635   7.732   0.395 -0.6574 -2.5375  0.3026
  811MOL0     H 9473   7.529   7.854   0.217 -2.8614  1.8114 -1.1676
  811MOL0     H 9474   7.450   7.707   0.272  0.1299 -1.8994 -0.3347
  811MOL0     H 9475   7.446   7.826  -0.008  0.1692  1.5937  0.9122
  811MOL0     H 9476   7.316   7.856   0.106  0.3575  1.4954 -2.9038
  811MOL0     H 9477   7.263   7.617   0.103 -0.6295 -0.1844 -0.7758
  811MOL0     H 9478   7.388   7.582  -0.014 -1.4170 -0.6910 -1.2818
  811MOL0     H 9479   7.149   7.597  -0.089  1.5001 -2.7675  2.2322
  811MOL0     H 9480   7.128   7.765  -0.057 -0.3451 -0.4609 -1.4737
  811MOL0     H 9481   7.389   7.770  -0.395 -0.3975 -0.8162  0.4056
  811MOL0     H 9482   7.812   7.549   0.046 -0.6451 -0.0964 -0.3566
  811MOL0     H 9483   8.011   7.442   0.049 -1.1058 -1.3490 -0.0104
  811MOL0     H 9484   8.135   7.482   0.171  0.2422 -0.8807  1.7052
  811MOL0     H 9485   8.035   7.345   0.191  0.2314  1.2798  0.7692
  812MOL0     O 9486   1.841   7.091   3.362 -0.0467  1.1044  0.2633
  812MOL0     C 9487   1.798   7.203   3.394 -0.2718 -0.3064 -0.7986
  812MOL0     O 9488   1.867   7.313   3.435  0.3824  0.0157  0.3013
  812MOL0     C 9489   1.999   7.318   3.399  0.6442  0.1190  0.3374
  812MOL0     C 9490   2.015   7.398   3.289  0.4394  0.9353  0.0879
  812MOL0     C 9491   2.143   7.423   3.244 -0.3078 -0.0933 -0.2964
  812MOL0     C 9492   2.264   7.365   3.300 -0.0045 -0.0104 -0.3442
  812MOL0     O 9493   2.400   7.390   3.265  0.2066  0.4052  0.5114
  812MOL0     C 9494   2.424   7.502   3.176 -0.0037  0.0528  0.2472
  812MOL0     C 9495   2.550   7.486   3.099 -0.2713 -0.7896 -0.2185
  812MOL0     C 9496   2.669   7.456   3.193  0.5448 -0.2024  0.5661
  812MOL0     C 9497   2.698   7.309   3.235  0.5118 -0.2716 -0.3953
  812MOL0     C 9498   2.841   7.310   3.304 -0.0670 -0.9222  0.0387
  812MOL0     C 9499   2.825   7.381   3.449  0.2116 -0.4470 -0.2948
  812MOL0     C 9500   2.940   7.340   3.539  0.9187 -0.4817  0.6186
  812MOL0     C 9501   2.947   7.414   3.668  0.2194  0.1406  0.4309
  812MOL0     N 9502   2.844   7.366   3.755  0.0946  0.1994 -1.1507
  812MOL0     C 9503   2.719   7.414   3.765  0.4497 -1.1857  0.0417
  812MOL0     C 9504   2.659   7.338   3.849  0.5080  0.6879 -0.1479
  812MOL0     C 9505   2.517   7.325   3.885  0.3147 -0.2874 -0.5845
  812MOL0     C 9506   2.418   7.310   3.767  0.0492 -0.3612  0.4750
  812MOL0     C 9507   2.272   7.323   3.810  0.1296  0.4667 -0.1861
  812MOL0     C 9508   2.213   7.202   3.883  0.2508 -0.8997 -0.1452
  812MOL0     O 9509   2.182   7.094   3.796 -0.1420  0.1373  0.8704
  812MOL0     C 9510   2.058   7.052   3.768 -0.5428 -0.1033 -0.1936
  812MOL0     C 9511   2.045   6.915   3.748  0.3680  0.4068 -1.1455
  812MOL0     C 9512   1.921   6.848   3.733 -0.2915  0.0353 -0.0085
  812MOL0     C 9513   1.809   6.929   3.720  1.2076  0.0270  0.1101
  812MOL0     C 9514   1.686   6.865   3.695  0.6612 -0.5114 -0.1766
  812MOL0     O 9515   1.579   6.923   3.637  0.1551 -0.2912  0.0392
  812MOL0     C 9516   1.455   6.860   3.613  0.0251 -0.9598  0.1787
  812MOL0     C 9517   1.461   6.754   3.525  0.5914  1.0854  0.3758
  812MOL0     C 9518   1.333   6.692   3.492 -1.0723 -0.0339  0.4147
  812MOL0     C 9519   1.218   6.749   3.529  0.6244 -0.5481  0.0455
  812MOL0     O 9520   1.099   6.688   3.492 -0.2205 -0.0265 -0.1128
  812MOL0     C 9521   1.014   6.649   3.599  0.4521 -0.0711 -0.2476
  812MOL0     C 9522   0.941   6.525   3.555 -0.4836 -0.3545  0.7498
  812MOL0     C 9523   0.825   6.498   3.650  0.1385  0.1379 -0.2507
  812MOL0     C 9524   0.719   6.401   3.606 -0.7536  1.0313  0.6195
  812MOL0     C 9525   0.764   6.256   3.631  0.6373 -0.4819  1.3684
  812MOL0     C 9526   0.644   6.152   3.644  0.6070  0.7673  0.1540
  812MOL0     C 9527   0.694   6.001   3.640  1.2782  0.3524 -0.7272
  812MOL0     C 9528   0.584   5.905   3.573  0.2467 -0.7639  0.3913
  812MOL0    Cl 9529   0.649   5.734   3.557 -0.0449  0.1499  0.5496
  812MOL0     C 9530   1.211   6.858   3.624  0.6306 -0.5239  0.1932
  812MOL0     C 9531   1.336   6.915   3.672 -0.1875  0.0848  0.4616
  812MOL0     O 9532   1.679   6.749   3.738  0.6810 -0.4714 -0.3442
  812MOL0     C 9533   1.818   7.071   3.732  0.3545 -0.8551 -0.6530
  812MOL0     C 9534   1.941   7.131   3.753 -0.4846 -0.9140 -0.3211
  812MOL0     N 9535   2.749   7.250   3.911 -0.6264 -0.3680  0.5346
  812MOL0     N 9536   2.862   7.265   3.843  1.1610 -0.6170 -0.7299
  812MOL0     C 9537   2.240   7.272   3.405 -0.0878  0.6452 -0.2506
  812MOL0     C 9538   2.104   7.241   3.452 -0.7638 -0.8375  0.8258
  812MOL0     C 9539   1.644   7.224   3.404 -0.3748  0.6038 -0.6661
  812MOL0     C 9540   1.603   7.337   3.474 -0.2530 -0.9056 -0.0152
  812MOL0     C 9541   1.478   7.359   3.523  0.5576  0.1899  0.4876
  812MOL0     C 9542   1.377   7.265   3.487 -1.1547 -0.1864  0.9075
  812MOL0     O 9543   1.254   7.269   3.534  0.7687  0.6782 -0.0771
  812MOL0     C 9544   1.153   7.325   3.447  0.0401 -0.0101  0.2095
  812MOL0     C 9545   1.144   7.482   3.468  0.1043  0.4425  0.4772
  812MOL0     C 9546   1.009   7.529   3.422 -0.8882  0.2051 -0.6769
  812MOL0     C 9547   0.978   7.682   3.437 -0.0534 -0.5219  0.3250
  812MOL0     C 9548   1.082   7.764   3.370  0.2948 -0.3181  0.2339
  812MOL0     C 9549   1.162   7.833   3.307 -0.8725  0.5151  0.0639
  812MOL0     C 9550   1.409   7.156   3.410  0.4383  0.0260 -0.0791
  812MOL0     C 9551   1.544   7.133   3.373 -1.8612  0.3755 -0.2185
  812MOL0     C 9552   1.564   7.007   3.290  0.1279 -0.7441  0.3331
  812MOL0     H 9553   1.929   7.453   3.255 -1.0137 -2.4605 -2.2568
  812MOL0     H 9554   2.158   7.478   3.152  6.6692  1.6917  1.2935
  812MOL0     H 9555   2.346   7.515   3.100  0.6072 -2.0122 -0.8358
  812MOL0     H 9556   2.423   7.594   3.233  5.7473 -0.1429  1.2592
  812MOL0     H 9557   2.570   7.580   3.047 -1.3093  0.6322  1.8407
  812MOL0     H 9558   2.547   7.415   3.016  0.6345  2.1384 -2.9317
  812MOL0     H 9559   2.657   7.522   3.279  1.1738  1.4824 -0.5879
  812MOL0     H 9560   2.757   7.491   3.138  1.1222  0.5382  1.9207
  812MOL0     H 9561   2.616   7.276   3.300 -0.9744 -0.4948 -2.2886
  812MOL0     H 9562   2.695   7.234   3.155  1.7882 -1.8729  0.9920
  812MOL0     H 9563   2.872   7.207   3.324  0.6726 -0.5626  0.8102
  812MOL0     H 9564   2.918   7.350   3.238  0.1841 -0.1012  0.8072
  812MOL0     H 9565   2.809   7.487   3.428  1.1627 -0.5283 -1.5385
  812MOL0     H 9566   2.732   7.339   3.488 -0.0000  0.2350 -0.0540
  812MOL0     H 9567   3.030   7.360   3.479  0.8561  2.0037  1.2385
  812MOL0     H 9568   2.942   7.233   3.561  1.4285 -0.4291  0.8446
  812MOL0     H 9569   3.042   7.386   3.713  1.7492  1.2531 -1.9268
  812MOL0     H 9570   2.937   7.522   3.653  1.3673 -0.1200 -3.0586
  812MOL0     H 9571   2.676   7.493   3.704 -3.2006 -2.5587  0.5399
  812MOL0     H 9572   2.503   7.235   3.946 -3.2858  1.1385  1.0346
  812MOL0     H 9573   2.494   7.401   3.961  1.8331 -1.6099  1.3122
  812MOL0     H 9574   2.433   7.389   3.692 -0.3590  0.8739  1.6493
  812MOL0     H 9575   2.435   7.211   3.723  0.9802 -0.5113  1.1409
  812MOL0     H 9576   2.221   7.337   3.714 -1.4737  0.5468  0.6428
  812MOL0     H 9577   2.267   7.410   3.876 -0.5995  1.4833 -1.5444
  812MOL0     H 9578   2.116   7.226   3.929  1.3040  1.3870  1.0220
  812MOL0     H 9579   2.279   7.160   3.960  2.5322  0.3095 -1.3422
  812MOL0     H 9580   2.137   6.857   3.749  0.3267  0.3367 -1.3047
  812MOL0     H 9581   1.910   6.741   3.723 -0.6229  0.1494 -1.0663
  812MOL0     H 9582   1.559   6.718   3.497  1.4565  1.9027  2.1648
  812MOL0     H 9583   1.333   6.598   3.438  1.7511  0.6782 -0.9659
  812MOL0     H 9584   1.066   6.624   3.692 -1.5521  0.2780  1.0307
  812MOL0     H 9585   0.949   6.731   3.632 -1.3589 -1.0073 -1.3740
  812MOL0     H 9586   0.902   6.551   3.456 -4.4326 -5.0029  0.7224
  812MOL0     H 9587   1.009   6.440   3.548  2.8978  2.1323  0.8389
  812MOL0     H 9588   0.863   6.464   3.747  0.3476  3.1924  0.8168
  812MOL0     H 9589   0.769   6.591   3.661 -1.5039 -0.6729 -1.2800
  812MOL0     H 9590   0.698   6.426   3.502 -2.6796  0.0470  0.7386
  812MOL0     H 9591   0.629   6.421   3.664 -1.6720 -3.0052  0.9021
  812MOL0     H 9592   0.813   6.237   3.727  2.7967 -2.2601  0.0039
  812MOL0     H 9593   0.822   6.222   3.545  0.6348  1.0388  0.7407
  812MOL0     H 9594   0.596   6.168   3.741 -0.8960 -0.5268 -0.3391
  812MOL0     H 9595   0.570   6.162   3.564  0.0785 -0.9921  0.3791
  812MOL0     H 9596   0.715   5.969   3.743 -4.2111  1.7473  1.1538
  812MOL0     H 9597   0.788   6.005   3.584  3.0500  3.5928  2.1264
  812MOL0     H 9598   0.497   5.896   3.639  0.6281 -1.1214  0.8604
  812MOL0     H 9599   0.558   5.947   3.476 -1.5102  1.2018  1.6440
  812MOL0     H 9600   1.113   6.887   3.660  0.2748  0.3116 -1.3445
  812MOL0     H 9601   1.349   7.001   3.736 -1.6463 -0.5121  1.6135
  812MOL0     H 9602   1.731   7.137   3.732  1.2711  0.3974 -0.0637
  812MOL0     H 9603   1.945   7.239   3.759 -3.1332 -0.8023  3.1571
  812MOL0     H 9604   2.321   7.220   3.455 -1.0499  2.1866  3.1917
  812MOL0     H 9605   2.075   7.181   3.537  2.6391  0.1367  2.8988
  812MOL0     H 9606   1.663   7.427   3.486  1.1008 -1.0197 -4.3034
  812MOL0     H 9607   1.450   7.447   3.579  1.5615 -0.2461  1.7117
  812MOL0     H 9608   1.063   7.265   3.465  1.6611 -3.3220 -1.8125
  812MOL0     H 9609   1.166   7.304   3.340 -0.4356 -1.5728  0.4344
  812MOL0     H 9610   1.212   7.543   3.408 -3.0284  3.2145 -0.5641
  812MOL0     H 9611   1.163   7.500   3.575  2.5606 -1.5379  0.4749
  812MOL0     H 9612   0.937   7.493   3.496  2.6837 -0.3115  2.8652
  812MOL0     H 9613   0.994   7.486   3.322 -0.3204 -0.3651 -0.5206
  812MOL0     H 9614   0.875   7.705   3.408 -0.7602 -2.0152  1.5219
  812MOL0     H 9615   0.990   7.699   3.544  0.1254 -4.2314  1.0130
  812MOL0     H 9616   1.254   7.862   3.261 -0.8492  0.5729  0.1452
  812MOL0     H 9617   1.328   7.090   3.380  1.3341  0.2029 -3.3532
  812MOL0     H 9618   1.477   6.941   3.282  1.8844 -3.0883 -0.8415
  812MOL0     H 9619   1.602   7.019   3.188  3.6733  0.7351  1.6534
  812MOL0     H 9620   1.635   6.938   3.337  0.6888 -0.9399 -0.7481
  813MOL0     O 9621   7.490   7.743   8.319 -0.1808 -0.1488  0.2778
  813MOL0     C 9622   7.561   7.642   8.312  0.8013  0.4759  0.3094
  813MOL0     O 9623   7.544   7.552   8.214 -0.0077  0.9711 -0.0896
  813MOL0     C 9624   7.459   7.547   8.112  0.4369  0.1827 -0.8285
  813MOL0     C 9625   7.502   7.482   7.999 -0.5190 -0.2898  0.3086
  813MOL0     C 9626   7.425   7.460   7.879 -0.7218  0.7748  0.1717
  813MOL0     C 9627   7.301   7.517   7.881  0.4398  0.0669  0.0464
  813MOL0     O 9628   7.209   7.490   7.780  0.0585 -0.1562  0.9449
  813MOL0     C 9629   7.165   7.595   7.688 -0.7133 -0.2303  0.2025
  813MOL0     C 9630   7.094   7.523   7.576 -0.4438 -0.7431 -0.3967
  813MOL0     C 9631   7.189   7.482   7.464 -0.4260  1.1005  0.3775
  813MOL0     C 9632   7.293   7.381   7.524 -0.3853 -0.3724  0.1038
  813MOL0     C 9633   7.356   7.315   7.396 -1.0455 -0.5824 -0.2770
  813MOL0     C 9634   7.465   7.209   7.441 -0.5385  0.1628 -0.2791
  813MOL0     C 9635   7.533   7.134   7.324  0.5066  0.5818 -0.1264
  813MOL0     C 9636   7.614   7.012   7.376 -0.0420 -0.1475  0.5497
  813MOL0     N 9637   7.723   7.002   7.280  0.4001 -0.1232  0.7775
  813MOL0     C 9638   7.847   7.048   7.304 -0.4964 -0.2549 -0.6706
  813MOL0     C 9639   7.919   6.993   7.200  0.0788 -0.8960 -0.2958
  813MOL0     C 9640   8.070   6.995   7.192 -0.0133 -0.5046 -0.0461
  813MOL0     C 9641   8.138   6.871   7.131  0.3306  0.9720 -0.6234
  813MOL0     C 9642   8.081   6.740   7.187 -0.4601 -0.7442  0.4329
  813MOL0     C 9643   8.090   6.726   7.342 -0.0580  0.3661 -0.1126
  813MOL0     O 9644   8.131   6.593   7.374  0.3787  0.3269  0.1234
  813MOL0     C 9645   8.158   6.556   7.502 -0.2052 -0.7362 -0.2122
  813MOL0     C 9646   8.277   6.498   7.530 -0.4520  0.8205 -0.8629
  813MOL0     C 9647   8.318   6.475   7.654 -0.8107 -0.4751 -0.6419
  813MOL0     C 9648   8.239   6.512   7.766 -0.1907 -0.3120  0.8226
  813MOL0     C 9649   8.289   6.499   7.909  1.2027  0.6377 -0.1743
  813MOL0     O 9650   8.232   6.588   7.997 -0.3046  0.4977 -0.3805
  813MOL0     C 9651   8.269   6.586   8.128  0.5389  0.9061  0.2181
  813MOL0     C 9652   8.169   6.573   8.226  0.1199  0.6496  0.7237
  813MOL0     C 9653   8.200   6.607   8.356 -0.4084  0.4237 -0.3756
  813MOL0     C 9654   8.333   6.635   8.394  0.8360  0.5152  0.4412
  813MOL0     O 9655   8.350   6.657   8.528  0.2947 -0.4941 -0.4834
  813MOL0     C 9656   8.485   6.645   8.582  0.1351  0.0551 -0.7327
  813MOL0     C 9657   8.473   6.677   8.736 -0.2972  0.6751 -0.7644
  813MOL0     C 9658   8.361   6.589   8.798 -0.5744 -0.0998 -0.2134
  813MOL0     C 9659   8.380   6.612   8.952  0.5515  0.1395  0.0552
  813MOL0     C 9660   8.243   6.603   9.041 -0.7152  0.5403  0.0747
  813MOL0     C 9661   8.280   6.616   9.186  0.0828 -0.1542 -0.5794
  813MOL0     C 9662   8.170   6.586   9.282  0.2626  0.9075 -0.0918
  813MOL0     C 9663   8.213   6.502   9.406  0.0781 -0.3016 -0.1787
  813MOL0    Cl 9664   8.253   6.605   9.552 -0.1392 -0.0018 -0.4826
  813MOL0     C 9665   8.437   6.632   8.292 -0.5368  0.6524 -0.5636
  813MOL0     C 9666   8.401   6.607   8.161  0.1800 -0.2136 -0.1937
  813MOL0     O 9667   8.363   6.411   7.937 -0.0044  0.0735 -0.5998
  813MOL0     C 9668   8.110   6.564   7.740  0.0259  0.3607  0.0470
  813MOL0     C 9669   8.067   6.578   7.611  0.3141 -1.3539 -0.0276
  813MOL0     N 9670   7.836   6.915   7.127  0.0068 -0.4481 -0.1312
  813MOL0     N 9671   7.724   6.903   7.187  0.4086  0.0605 -0.1446
  813MOL0     C 9672   7.254   7.581   8.000  0.2982  0.0353  0.1118
  813MOL0     C 9673   7.325   7.595   8.119 -0.0032 -1.1532 -0.3839
  813MOL0     C 9674   7.676   7.610   8.404 -1.1859  0.0988  0.4335
  813MOL0     C 9675   7.745   7.485   8.372  0.1253 -0.1383  0.2861
  813MOL0     C 9676   7.840   7.433   8.450 -0.3366 -1.2992 -0.5733
  813MOL0     C 9677   7.880   7.487   8.566  0.5477 -1.5084 -0.6311
  813MOL0     O 9678   7.990   7.431   8.629 -0.1175  1.3232 -0.0136
  813MOL0     C 9679   8.016   7.482   8.761 -0.5579 -0.3042  0.1747
  813MOL0     C 9680   7.942   7.410   8.874  0.3975  0.3880  0.0510
  813MOL0     C 9681   8.018   7.280   8.915 -0.3789 -0.9285  0.6339
  813MOL0     C 9682   7.947   7.199   9.023 -0.3316  0.3179  0.4987
  813MOL0     C 9683   8.043   7.118   9.098 -0.4781 -0.0180 -0.0038
  813MOL0     C 9684   8.109   7.042   9.174  0.7802  0.3348  0.0946
  813MOL0     C 9685   7.810   7.602   8.600  0.7859  0.8507 -0.8233
  813MOL0     C 9686   7.707   7.667   8.530  0.6826 -0.9286  0.0264
  813MOL0     C 9687   7.652   7.799   8.590  0.7822 -0.5899 -0.3305
  813MOL0     H 9688   7.595   7.430   8.015 -1.6802 -1.9526  2.1517
  813MOL0     H 9689   7.477   7.403   7.803 -0.5428  1.2596 -0.0769
  813MOL0     H 9690   7.093   7.655   7.744  1.1722  0.3743  2.1248
  813MOL0     H 9691   7.252   7.654   7.657  1.0880 -0.4616  4.1848
  813MOL0     H 9692   7.026   7.599   7.536 -0.6693 -2.1848 -2.8950
  813MOL0     H 9693   7.036   7.437   7.610 -0.9661 -0.5975 -0.9142
  813MOL0     H 9694   7.231   7.568   7.413  0.5414 -0.1600 -1.0178
  813MOL0     H 9695   7.129   7.430   7.389 -3.3331  3.7181  0.6761
  813MOL0     H 9696   7.372   7.435   7.577  2.2045 -2.5237 -1.2925
  813MOL0     H 9697   7.241   7.303   7.579  1.9695 -0.5593  2.2647
  813MOL0     H 9698   7.279   7.262   7.339  0.3618 -0.5227 -2.3118
  813MOL0     H 9699   7.418   7.377   7.331  1.2638 -2.7531 -0.2774
  813MOL0     H 9700   7.538   7.251   7.511  0.7066  0.0039 -1.4528
  813MOL0     H 9701   7.417   7.134   7.505 -1.4667 -0.8029 -2.0224
  813MOL0     H 9702   7.607   7.204   7.284 -0.3964  1.5155 -0.2001
  813MOL0     H 9703   7.470   7.096   7.243  0.1012 -0.7877  0.8112
  813MOL0     H 9704   7.658   7.045   7.471  1.8721 -0.6508 -0.1144
  813MOL0     H 9705   7.557   6.920   7.388  1.2215 -0.8781  1.0861
  813MOL0     H 9706   7.877   7.112   7.386 -2.3747 -3.6074  2.9967
  813MOL0     H 9707   8.103   7.075   7.125 -0.7566  0.6411  0.9035
  813MOL0     H 9708   8.108   7.020   7.291  1.1792 -0.5500 -0.4764
  813MOL0     H 9709   8.133   6.872   7.022 -0.8664 -1.1310 -0.6274
  813MOL0     H 9710   8.243   6.870   7.162 -0.5547 -0.1329  2.6848
  813MOL0     H 9711   8.149   6.669   7.139 -0.1850 -1.1460  1.3833
  813MOL0     H 9712   7.979   6.718   7.156 -1.7278  1.1896  2.8900
  813MOL0     H 9713   7.990   6.740   7.386 -0.5256  1.1086 -1.3702
  813MOL0     H 9714   8.155   6.808   7.374  2.1474 -0.4218 -2.2719
  813MOL0     H 9715   8.338   6.471   7.445  1.1923 -0.7341  0.7126
  813MOL0     H 9716   8.415   6.427   7.665  0.4950  2.0391 -0.6363
  813MOL0     H 9717   8.078   6.526   8.189  0.7278  0.1440 -0.1634
  813MOL0     H 9718   8.126   6.587   8.433 -0.8496 -0.0998 -0.9135
  813MOL0     H 9719   8.503   6.537   8.577 -2.7268 -0.5926  0.8248
  813MOL0     H 9720   8.567   6.691   8.525  1.7284  0.4328  1.7371
  813MOL0     H 9721   8.566   6.652   8.788 -0.3955 -0.4777 -1.0971
  813MOL0     H 9722   8.440   6.780   8.750  1.0960  1.0293  0.1074
  813MOL0     H 9723   8.261   6.627   8.775 -0.2312 -0.3496 -2.2691
  813MOL0     H 9724   8.358   6.487   8.759 -2.1035  0.2773 -1.1635
  813MOL0     H 9725   8.420   6.711   8.976 -0.9590  1.6134 -2.9082
  813MOL0     H 9726   8.442   6.530   8.987  0.3395  0.2403  0.6921
  813MOL0     H 9727   8.196   6.505   9.026  1.3225 -0.2144 -1.8915
  813MOL0     H 9728   8.179   6.685   9.008  0.8163  2.1027  0.8225
  813MOL0     H 9729   8.365   6.548   9.200  3.0911  2.6463 -3.5963
  813MOL0     H 9730   8.323   6.714   9.207  2.2046 -0.3398 -3.4820
  813MOL0     H 9731   8.102   6.523   9.224  0.6988  0.0185  0.3464
  813MOL0     H 9732   8.125   6.681   9.311  1.4627  1.0247  1.5158
  813MOL0     H 9733   8.134   6.430   9.429 -1.3993  1.7147  1.4877
  813MOL0     H 9734   8.294   6.434   9.378 -2.0062 -2.0306 -2.4388
  813MOL0     H 9735   8.543   6.636   8.313 -0.8359 -0.6304  1.5241
  813MOL0     H 9736   8.474   6.617   8.081 -0.1075 -1.3471 -0.6289
  813MOL0     H 9737   8.046   6.599   7.820 -1.9840 -0.9888 -0.8953
  813MOL0     H 9738   7.977   6.635   7.594  1.8406  0.4845 -2.6898
  813MOL0     H 9739   7.150   7.614   7.998 -0.3410 -1.8115 -2.3961
  813MOL0     H 9740   7.281   7.644   8.206 -1.8910 -4.8784  0.9670
  813MOL0     H 9741   7.720   7.429   8.282  0.9662 -0.6202  0.3428
  813MOL0     H 9742   7.884   7.337   8.424 -0.0733 -0.5961 -2.9371
  813MOL0     H 9743   7.995   7.589   8.775  1.7790  0.1173  0.9327
  813MOL0     H 9744   8.122   7.486   8.787 -0.7544  1.4402  0.8765
  813MOL0     H 9745   7.841   7.396   8.836  0.7705  0.4966 -1.0213
  813MOL0     H 9746   7.950   7.474   8.962  1.2027 -1.0973  1.0961
  813MOL0     H 9747   8.117   7.313   8.946 -1.0474  2.4762 -0.4845
  813MOL0     H 9748   8.037   7.213   8.830 -2.6625 -0.5184 -0.2629
  813MOL0     H 9749   7.899   7.266   9.095 -2.7043 -0.6625 -0.0546
  813MOL0     H 9750   7.860   7.138   8.996  1.7919 -2.1515 -1.2216
  813MOL0     H 9751   8.173   6.968   9.217  1.3365  0.4888 -0.4610
  813MOL0     H 9752   7.831   7.661   8.689  2.5451 -0.6550 -0.1803
  813MOL0     H 9753   7.583   7.777   8.671  1.8867 -1.0982  0.4938
  813MOL0     H 9754   7.730   7.860   8.637 -2.3913  3.3264  0.4434
  813MOL0     H 9755   7.613   7.856   8.505  0.4607  0.8753  0.7730
  814MOL0     O 9756   8.135   7.705   8.947  0.2815 -0.3394  0.1812
  814MOL0     C 9757   8.145   7.760   9.054 -0.6127  0.2625 -0.5127
  814MOL0     O 9758   8.238   7.721   9.147  0.0441 -0.0604  0.3838
  814MOL0     C 9759   8.315   7.613   9.140  1.2959 -0.0405  0.2346
  814MOL0     C 9760   8.450   7.630   9.175  0.5702  0.0626 -0.1226
  814MOL0     C 9761   8.536   7.526   9.216  0.0097 -0.0733 -0.1193
  814MOL0     C 9762   8.491   7.397   9.205  0.4914 -0.0759  0.5847
  814MOL0     O 9763   8.549   7.285   9.265 -0.5750  0.3275 -0.2949
  814MOL0     C 9764   8.690   7.283   9.279 -0.1158  0.2000  0.5111
  814MOL0     C 9765   8.734   7.317   9.422  0.6454 -0.2810  0.6697
  814MOL0     C 9766   8.831   7.223   9.497 -0.1650  0.9224 -0.1368
  814MOL0     C 9767   8.735   7.133   9.577 -0.2851  0.2523  0.8293
  814MOL0     C 9768   8.811   7.011   9.639  0.4401  0.0327 -0.2452
  814MOL0     C 9769   8.730   6.920   9.727 -0.4910 -0.0210 -0.1418
  814MOL0     C 9770   8.816   6.834   9.817  0.1663  0.2408  0.1451
  814MOL0     C 9771   8.749   6.771   9.942  1.2426 -0.9920 -0.1003
  814MOL0     N 9772   8.703   6.880  10.031 -0.5822  1.2285  0.0594
  814MOL0     C 9773   8.776   6.913  10.144  0.0298 -0.0247  0.5687
  814MOL0     C 9774   8.698   7.004  10.213  0.4103  0.6189  0.5912
  814MOL0     C 9775   8.711   7.053  10.354 -0.4857 -0.0566 -0.2771
  814MOL0     C 9776   8.751   7.193  10.369  0.2227 -0.4094 -0.5459
  814MOL0     C 9777   8.639   7.289  10.324  0.3461  0.1827  0.6480
  814MOL0     C 9778   8.648   7.425  10.398 -0.0248  1.1664 -0.4965
  814MOL0     O 9779   8.609   7.393  10.531 -0.4914  0.0453  0.0332
  814MOL0     C 9780   8.658   7.471  10.640  0.1005  0.0376 -0.4267
  814MOL0     C 9781   8.760   7.568  10.641 -0.7297 -0.2080 -0.3712
  814MOL0     C 9782   8.811   7.622  10.759 -0.1248  0.2115 -0.1289
  814MOL0     C 9783   8.753   7.596  10.885 -0.2761  0.5362  0.8286
  814MOL0     C 9784   8.786   7.668  11.005  0.5508  0.1775  0.3647
  814MOL0     O 9785   8.693   7.678  11.113 -0.3661 -0.4830  0.3211
  814MOL0     C 9786   8.737   7.744  11.225 -0.6004 -0.4779 -0.6249
  814MOL0     C 9787   8.711   7.693  11.347 -0.4485 -0.2018 -0.6192
  814MOL0     C 9788   8.752   7.744  11.467 -0.5370 -0.3834 -0.3764
  814MOL0     C 9789   8.838   7.851  11.467 -0.9255 -0.3852  0.0902
  814MOL0     O 9790   8.872   7.910  11.582 -0.4022 -0.7024 -1.0327
  814MOL0     C 9791   9.001   7.909  11.623 -0.4232  0.4833 -0.0250
  814MOL0     C 9792   9.020   8.008  11.737 -1.0853 -0.5610  0.5887
  814MOL0     C 9793   9.160   7.997  11.807  0.1895  0.0634  1.0900
  814MOL0     C 9794   9.179   8.086  11.927 -0.2299 -0.2023 -0.6766
  814MOL0     C 9795   9.321   8.092  11.991 -0.4455 -0.1870  0.8569
  814MOL0     C 9796   9.352   7.971  12.063  0.2674  0.9522 -0.0087
  814MOL0     C 9797   9.304   7.953  12.205 -0.9961  0.9737  0.1355
  814MOL0     C 9798   9.344   7.816  12.255  1.0515 -0.0456 -0.3227
  814MOL0    Cl 9799   9.524   7.798  12.280  0.0642 -0.4710  0.5672
  814MOL0     C 9800   8.865   7.911  11.338  0.2117  0.7138 -0.5077
  814MOL0     C 9801   8.814   7.859  11.216  0.1097 -0.9208 -0.6529
  814MOL0     O 9802   8.904   7.702  11.012  0.5195 -0.4848  0.4210
  814MOL0     C 9803   8.642   7.510  10.890  0.3041 -0.4780  0.4971
  814MOL0     C 9804   8.601   7.447  10.774  0.0195 -0.5118  0.8427
  814MOL0     N 9805   8.585   7.011  10.138  0.3932  0.0501  0.3124
  814MOL0     N 9806   8.588   6.927  10.039  0.0176 -0.3665  0.2026
  814MOL0     C 9807   8.371   7.378   9.152  0.3237 -0.2048 -0.6030
  814MOL0     C 9808   8.282   7.485   9.118  1.0202  0.4301  0.5597
  814MOL0     C 9809   8.074   7.890   9.094 -0.2298 -0.6787 -0.1350
  814MOL0     C 9810   8.139   7.970   9.189  1.1986  0.0238 -0.7145
  814MOL0     C 9811   8.086   8.097   9.231  0.2793  1.1056 -1.0389
  814MOL0     C 9812   7.968   8.140   9.169  0.0005 -0.3928 -0.4264
  814MOL0     O 9813   7.932   8.254   9.224 -0.0913 -0.6458 -0.2922
  814MOL0     C 9814   7.800   8.301   9.217  0.3078 -1.0514  0.2251
  814MOL0     C 9815   7.768   8.386   9.096  0.3725  0.3105  0.3539
  814MOL0     C 9816   7.882   8.486   9.056  0.6289 -0.5565  0.6163
  814MOL0     C 9817   8.021   8.436   9.003  0.2396 -0.0607  0.4936
  814MOL0     C 9818   8.009   8.340   8.894 -0.9587 -0.0384  0.8598
  814MOL0     C 9819   7.989   8.271   8.796 -0.9794 -0.8285 -0.0979
  814MOL0     C 9820   7.905   8.061   9.083  0.8922  0.1284 -0.4237
  814MOL0     C 9821   7.949   7.934   9.049 -0.6242  0.3113 -0.5324
  814MOL0     C 9822   7.852   7.838   8.980 -0.3722 -0.0289  0.0357
  814MOL0     H 9823   8.493   7.727   9.203  3.4081 -1.0375 -0.2848
  814MOL0     H 9824   8.636   7.545   9.255  0.8979  0.2465 -2.3861
  814MOL0     H 9825   8.734   7.185   9.258 -1.1705 -0.4225  1.1318
  814MOL0     H 9826   8.738   7.355   9.211 -1.4228  0.1013 -0.5580
  814MOL0     H 9827   8.655   7.361   9.482  0.0037  1.4522 -1.3096
  814MOL0     H 9828   8.802   7.399   9.395  0.9040 -0.2012  1.5413
  814MOL0     H 9829   8.889   7.278   9.571  0.9640  1.0497 -1.0840
  814MOL0     H 9830   8.896   7.170   9.427  2.9186  2.6459  1.2382
  814MOL0     H 9831   8.684   7.190   9.655  1.1850  0.1290  1.9383
  814MOL0     H 9832   8.666   7.099   9.500 -0.1121  2.1776 -0.2355
  814MOL0     H 9833   8.858   6.950   9.561 -2.4574 -1.7261 -0.7597
  814MOL0     H 9834   8.893   7.040   9.705 -0.2203 -3.4753  2.4108
  814MOL0     H 9835   8.682   6.995   9.790  1.8957  1.8318 -0.3450
  814MOL0     H 9836   8.663   6.857   9.668  4.3888 -2.0841 -4.3330
  814MOL0     H 9837   8.896   6.896   9.856  0.0955 -0.0550  0.7757
  814MOL0     H 9838   8.854   6.750   9.757  0.8044 -0.2361  1.1882
  814MOL0     H 9839   8.654   6.726   9.914  0.5450  0.7172 -0.6214
  814MOL0     H 9840   8.811   6.690   9.981  0.4103 -1.5140  0.1551
  814MOL0     H 9841   8.876   6.881  10.170  0.0293 -1.6040 -1.1377
  814MOL0     H 9842   8.611   7.034  10.394 -0.3140  2.2785  1.3947
  814MOL0     H 9843   8.795   6.998  10.397  0.7910  1.0621 -1.2564
  814MOL0     H 9844   8.780   7.212  10.473  1.0464  1.1200 -1.0233
  814MOL0     H 9845   8.842   7.210  10.311  1.9069 -0.4428  1.9237
  814MOL0     H 9846   8.546   7.240  10.351  0.2226  0.6683  1.1090
  814MOL0     H 9847   8.642   7.302  10.215  1.1445 -0.6778  0.5553
  814MOL0     H 9848   8.574   7.492  10.353  0.7357  0.6386 -2.6363
  814MOL0     H 9849   8.744   7.477  10.391 -0.4166  1.8778 -0.6534
  814MOL0     H 9850   8.815   7.579  10.548  1.9402  0.8221  1.1940
  814MOL0     H 9851   8.901   7.682  10.748  0.7144 -1.0949 -0.6995
  814MOL0     H 9852   8.639   7.613  11.336  0.3971 -1.0792  0.0531
  814MOL0     H 9853   8.711   7.722  11.565 -2.0188  1.6058 -0.4837
  814MOL0     H 9854   9.017   7.807  11.657 -3.6751  0.2189  1.0692
  814MOL0     H 9855   9.070   7.923  11.539 -0.6993  0.1416 -0.3137
  814MOL0     H 9856   9.005   8.104  11.686 -1.7285  0.0330  1.8691
  814MOL0     H 9857   8.938   8.016  11.808 -0.5607  5.5781  1.0212
  814MOL0     H 9858   9.167   7.893  11.841 -0.3778  0.2578  1.8472
  814MOL0     H 9859   9.234   8.013  11.728 -1.4043  2.4837 -0.0362
  814MOL0     H 9860   9.108   8.050  12.003  2.6145 -0.4618  2.0286
  814MOL0     H 9861   9.153   8.187  11.894  0.8284 -0.0359 -1.0136
  814MOL0     H 9862   9.338   8.180  12.054 -3.5726  3.3532 -2.6951
  814MOL0     H 9863   9.400   8.095  11.915 -0.5897 -2.3127  0.5613
  814MOL0     H 9864   9.321   7.883  12.005 -0.2061  0.8813  0.3482
  814MOL0     H 9865   9.461   7.967  12.059  0.3201  2.5837 -1.0838
  814MOL0     H 9866   9.196   7.972  12.206 -0.9432  1.2680  0.8499
  814MOL0     H 9867   9.353   8.024  12.272 -4.5494 -0.2757  4.5118
  814MOL0     H 9868   9.295   7.790  12.350  0.8415  0.3496 -0.3191
  814MOL0     H 9869   9.303   7.753  12.175 -0.7022  1.7541 -0.9228
  814MOL0     H 9870   8.923   8.002  11.334 -0.1738  0.9441 -1.1579
  814MOL0     H 9871   8.813   7.910  11.120 -1.6661  0.8313  0.2220
  814MOL0     H 9872   8.581   7.495  10.978  0.1147  2.1884  0.9001
  814MOL0     H 9873   8.513   7.382  10.774  0.8332 -1.7590 -1.6996
  814MOL0     H 9874   8.336   7.277   9.136 -0.0898 -0.3024  0.8357
  814MOL0     H 9875   8.180   7.456   9.094  1.7366 -1.3741 -0.5270
  814MOL0     H 9876   8.232   7.942   9.239  0.6814 -1.3178 -0.4494
  814MOL0     H 9877   8.151   8.156   9.294  2.6731 -1.4838 -0.8715
  814MOL0     H 9878   7.775   8.349   9.312 -2.1052 -1.0032 -0.3776
  814MOL0     H 9879   7.732   8.216   9.223 -2.8995  1.0648 -2.4592
  814MOL0     H 9880   7.668   8.429   9.110 -0.1133 -0.7396  0.1727
  814MOL0     H 9881   7.760   8.314   9.015 -0.1387 -0.0576  0.7269
  814MOL0     H 9882   7.898   8.542   9.149  0.4384 -0.2525  0.4646
  814MOL0     H 9883   7.838   8.553   8.981 -0.6365 -3.6740 -1.6393
  814MOL0     H 9884   8.082   8.517   8.961  1.5545 -2.1682 -1.9289
  814MOL0     H 9885   8.085   8.395   9.081 -1.4213  1.2225  2.6561
  814MOL0     H 9886   7.982   8.183   8.735  0.6701 -0.2919 -1.1393
  814MOL0     H 9887   7.804   8.084   9.050 -0.4510 -1.5390  2.1955
  814MOL0     H 9888   7.813   7.760   9.046 -2.3551  0.5559 -0.3931
  814MOL0     H 9889   7.764   7.892   8.944  1.0117  1.8709 -0.6781
  814MOL0     H 9890   7.902   7.780   8.902  1.9787  4.4808 -2.1881
  815MOL0     O 9891   4.986   0.857  11.193  0.2487 -0.7260  0.0410
  815MOL0     C 9892   4.987   0.865  11.074 -0.0920  0.0064  0.1372
  815MOL0     O 9893   5.069   0.958  11.000  0.1751 -0.2465 -0.3623
  815MOL0     C 9894   5.155   1.036  11.076 -0.4320  0.2992 -0.0778
  815MOL0     C 9895   5.290   1.025  11.034 -0.3165  0.5604 -0.4908
  815MOL0     C 9896   5.383   1.108  11.100 -0.4575  0.4157 -0.6080
  815MOL0     C 9897   5.345   1.194  11.211  0.7002  0.3991  0.8760
  815MOL0     O 9898   5.427   1.283  11.263 -0.4840 -0.3144  0.0706
  815MOL0     C 9899   5.445   1.286  11.403 -0.0223  0.3572  0.1662
  815MOL0     C 9900   5.570   1.378  11.439 -0.6070  0.7744 -0.7896
  815MOL0     C 9901   5.701   1.360  11.367  0.1722 -0.2478 -0.4370
  815MOL0     C 9902   5.693   1.387  11.215 -0.6905  0.3361  0.2421
  815MOL0     C 9903   5.848   1.406  11.164 -0.8462  0.3594  0.2964
  815MOL0     C 9904   5.937   1.524  11.202 -0.4438 -1.2247 -0.7505
  815MOL0     C 9905   5.866   1.656  11.165 -0.5928  0.1825 -0.1263
  815MOL0     C 9906   5.937   1.776  11.222  0.0055 -0.0254 -0.3905
  815MOL0     N 9907   6.081   1.787  11.177  0.1729 -0.6380  0.2523
  815MOL0     C 9908   6.124   1.819  11.055  0.5968 -0.0294  0.1877
  815MOL0     C 9909   6.257   1.834  11.063 -0.2776  0.1442 -0.4946
  815MOL0     C 9910   6.365   1.880  10.971 -0.2276  0.1190  0.1957
  815MOL0     C 9911   6.317   1.950  10.844  0.1776 -1.0719 -0.3727
  815MOL0     C 9912   6.431   1.992  10.757 -0.4402  0.8310  0.0016
  815MOL0     C 9913   6.519   1.891  10.678  0.5055  0.0151 -0.2815
  815MOL0     O 9914   6.627   1.942  10.602  0.2721 -0.1132  0.4445
  815MOL0     C 9915   6.697   1.866  10.523 -0.1125  0.0147 -0.3722
  815MOL0     C 9916   6.791   1.922  10.438  0.0202 -0.0223  0.4017
  815MOL0     C 9917   6.860   1.856  10.334 -0.3950  1.1417 -0.3116
  815MOL0     C 9918   6.841   1.709  10.326  0.0894 -0.3068 -0.1425
  815MOL0     C 9919   6.916   1.628  10.222  1.2785  0.9047  0.9914
  815MOL0     O 9920   6.882   1.495  10.221  0.3855  0.8276  1.3635
  815MOL0     C 9921   6.955   1.417  10.124 -0.2076 -0.1823 -0.4125
  815MOL0     C 9922   7.083   1.356  10.157 -0.5934 -0.6013  0.7316
  815MOL0     C 9923   7.153   1.275  10.063 -0.1046  0.2304  0.9762
  815MOL0     C 9924   7.101   1.271   9.933  0.2757 -0.5331 -0.5847
  815MOL0     O 9925   7.159   1.214   9.821  0.2676 -0.2503 -0.4554
  815MOL0     C 9926   7.274   1.131   9.830  0.3642 -0.4073 -0.6146
  815MOL0     C 9927   7.298   1.069   9.686  1.2049  0.5982 -0.0462
  815MOL0     C 9928   7.407   0.954   9.686  0.0685 -0.4309 -0.3750
  815MOL0     C 9929   7.546   1.010   9.730  0.4228  0.0505  0.4319
  815MOL0     C 9930   7.659   0.913   9.699  0.0286 -0.3859 -0.2762
  815MOL0     C 9931   7.759   0.986   9.606 -0.1364 -0.2955  0.1716
  815MOL0     C 9932   7.889   0.911   9.594 -0.1798 -1.0002 -0.5747
  815MOL0     C 9933   7.874   0.767   9.537 -0.2996 -0.5636 -0.1409
  815MOL0    Cl 9934   7.793   0.787   9.377  0.0269 -0.4106 -0.0619
  815MOL0     C 9935   6.977   1.327   9.900  0.3445 -0.7019  0.8575
  815MOL0     C 9936   6.902   1.396   9.995 -0.1630 -0.2908  1.1227
  815MOL0     O 9937   6.988   1.689  10.145  0.1054 -0.3641 -0.7815
  815MOL0     C 9938   6.742   1.653  10.416  0.3780  0.5223 -0.5398
  815MOL0     C 9939   6.665   1.736  10.502 -0.8707  0.8281  0.0194
  815MOL0     N 9940   6.295   1.804  11.187  0.4105 -0.4579  0.1444
  815MOL0     N 9941   6.181   1.782  11.257 -1.1350 -0.0998 -0.1314
  815MOL0     C 9942   5.207   1.199  11.248 -0.3012 -0.5855 -0.0431
  815MOL0     C 9943   5.110   1.123  11.185  0.6382 -0.3104  0.0522
  815MOL0     C 9944   4.892   0.780  10.989  0.1232  0.2816  0.1972
  815MOL0     C 9945   4.925   0.752  10.854  0.2225 -0.2821  0.0738
  815MOL0     C 9946   4.847   0.669  10.780  0.4390  0.2481  0.5898
  815MOL0     C 9947   4.741   0.593  10.819  0.6120 -0.4460  0.0121
  815MOL0     O 9948   4.673   0.501  10.739 -0.2449  0.1927 -0.3030
  815MOL0     C 9949   4.528   0.507  10.727  1.0447  0.1936  0.4576
  815MOL0     C 9950   4.482   0.590  10.604 -0.1804  0.0619 -1.0175
  815MOL0     C 9951   4.511   0.742  10.626 -0.8885  0.2062  0.7157
  815MOL0     C 9952   4.451   0.823  10.516  0.3012  0.0068  0.0275
  815MOL0     C 9953   4.437   0.963  10.551 -0.8121 -0.0945 -1.3568
  815MOL0     C 9954   4.406   1.075  10.599 -0.5686  0.5883 -0.0061
  815MOL0     C 9955   4.704   0.621  10.950 -0.7499 -0.5313 -1.0448
  815MOL0     C 9956   4.779   0.710  11.037  0.3485  0.3765 -0.1785
  815MOL0     C 9957   4.726   0.733  11.180  0.0245  0.4520 -0.0688
  815MOL0     H 9958   5.328   0.962  10.954  0.2913 -0.3906  0.5104
  815MOL0     H 9959   5.484   1.111  11.060 -0.3619  0.8245 -0.3427
  815MOL0     H 9960   5.364   1.334  11.458 -0.0955  0.6741 -0.2107
  815MOL0     H 9961   5.466   1.187  11.444 -1.1703 -1.0072 -2.3020
  815MOL0     H 9962   5.582   1.364  11.546 -4.1667  1.4809 -0.1658
  815MOL0     H 9963   5.537   1.483  11.433  1.8980  1.7843  1.3531
  815MOL0     H 9964   5.747   1.264  11.392  1.8510  0.4253 -0.7965
  815MOL0     H 9965   5.772   1.426  11.419 -0.5380  1.8831 -2.0580
  815MOL0     H 9966   5.658   1.297  11.164  1.7391  2.4287 -6.1290
  815MOL0     H 9967   5.634   1.476  11.193  0.4514  1.6117  2.0472
  815MOL0     H 9968   5.891   1.312  11.198 -0.2066  0.2971 -0.6575
  815MOL0     H 9969   5.863   1.396  11.056  0.9808  0.6250  0.5070
  815MOL0     H 9970   5.962   1.539  11.307  0.8911  2.5433 -1.4567
  815MOL0     H 9971   6.036   1.513  11.158 -0.5249 -1.8931 -0.7765
  815MOL0     H 9972   5.773   1.662  11.223  0.6788  0.9521  1.9548
  815MOL0     H 9973   5.842   1.653  11.058 -0.0800 -0.2787 -0.2312
  815MOL0     H 9974   5.883   1.867  11.198  0.5285  0.2858 -0.4006
  815MOL0     H 9975   5.938   1.767  11.331  1.3206 -2.3836 -0.5259
  815MOL0     H 9976   6.062   1.848  10.971  2.4150  2.3607 -0.4703
  815MOL0     H 9977   6.431   1.947  11.026 -2.6691 -0.6169  4.4382
  815MOL0     H 9978   6.410   1.782  10.949 -0.1511  0.1154  0.3664
  815MOL0     H 9979   6.245   1.890  10.787  0.3174 -1.1068 -0.5139
  815MOL0     H 9980   6.263   2.038  10.879 -0.4871 -0.1137 -3.5014
  815MOL0     H 9981   6.482   2.051  10.834 -0.6334  0.0717  0.7253
  815MOL0     H 9982   6.389   2.067  10.690 -2.8841 -0.7522 -0.3342
  815MOL0     H 9983   6.451   1.827  10.620  1.1066  1.0366 -2.2029
  815MOL0     H 9984   6.567   1.832  10.757  0.4380  1.2868  0.7366
  815MOL0     H 9985   6.805   2.029  10.451 -0.3909 -0.1126  1.7625
  815MOL0     H 9986   6.927   1.906  10.264 -0.7725  0.2270 -1.3542
  815MOL0     H 9987   7.138   1.377  10.248 -1.3100  2.1832  0.6051
  815MOL0     H 9988   7.244   1.221  10.085 -0.9885 -0.9250  1.9879
  815MOL0     H 9989   7.361   1.190   9.859 -0.9111  2.4421 -2.1963
  815MOL0     H 9990   7.259   1.048   9.900  2.0795 -2.8204 -2.8886
  815MOL0     H 9991   7.201   1.022   9.666  1.9016 -2.6627  3.1939
  815MOL0     H 9992   7.309   1.148   9.612  1.7769 -0.5559 -1.2139
  815MOL0     H 9993   7.369   0.873   9.749 -2.1088 -1.2823 -2.6285
  815MOL0     H 9994   7.411   0.904   9.589  0.5479 -0.8103 -0.1630
  815MOL0     H 9995   7.542   1.028   9.837  0.1373  0.1868  0.4013
  815MOL0     H 9996   7.563   1.105   9.677  4.2228 -0.0749  1.1662
  815MOL0     H 9997   7.624   0.834   9.631  1.5368 -1.1228 -0.2435
  815MOL0     H 9998   7.696   0.864   9.789 -3.2628 -0.7483  0.9931
  815MOL0     H 9999   7.711   1.016   9.512 -2.4783 -0.5547  1.1937
  815MOL0     H10000   7.796   1.076   9.656 -0.1151  0.4946 -1.2303
  815MOL0     H10001   7.930   0.922   9.695  1.1673  2.3459 -1.3626
  815MOL0     H10002   7.957   0.963   9.526  0.3154  0.5785  1.0570
  815MOL0     H10003   7.968   0.715   9.518  0.0859 -0.8258  2.1981
  815MOL0     H10004   7.811   0.710   9.606  1.3534 -0.8331  1.2056
  815MOL0     H10005   6.942   1.332   9.798 -2.0415 -0.5295  1.6303
  815MOL0     H10006   6.807   1.445   9.976  0.9755  1.4496 -0.5213
  815MOL0     H10007   6.726   1.546  10.418  2.1865  0.0608 -3.9922
  815MOL0     H10008   6.586   1.684  10.556  1.0126  0.0515  2.1795
  815MOL0     H10009   5.188   1.285  11.311 -0.1828  0.8269 -1.8520
  815MOL0     H10010   5.006   1.132  11.214  1.6034 -0.4941  4.1715
  815MOL0     H10011   5.014   0.796  10.808  2.0358 -2.0385  1.6895
  815MOL0     H10012   4.874   0.648  10.677 -1.6960 -2.5352  0.4786
  815MOL0     H10013   4.478   0.556  10.811 -5.1831 -0.1024 -2.5502
  815MOL0     H10014   4.484   0.407  10.724  2.9174 -0.6744 -0.0834
  815MOL0     H10015   4.380   0.566  10.574 -0.5264  0.9674 -0.6125
  815MOL0     H10016   4.548   0.544  10.530 -0.3516 -0.4326 -0.8712
  815MOL0     H10017   4.620   0.753  10.633 -0.2310 -0.7586 -4.2621
  815MOL0     H10018   4.462   0.774  10.718 -0.2998 -0.1546  1.1584
  815MOL0     H10019   4.514   0.815  10.426  1.7411 -2.3617  1.1298
  815MOL0     H10020   4.358   0.769  10.497  0.8631 -1.2337  0.6644
  815MOL0     H10021   4.395   1.176  10.633 -2.8273  0.7578 -1.0431
  815MOL0     H10022   4.616   0.578  10.995 -1.7070  2.2595 -0.0042
  815MOL0     H10023   4.700   0.838  11.195 -1.7291 -0.1256  1.1588
  815MOL0     H10024   4.637   0.671  11.196  0.2889  0.1735  0.3570
  815MOL0     H10025   4.809   0.709  11.248 -1.5025  0.3290  1.8205
  816MOL0     O10026  11.350   2.739   1.747  0.0686  0.0502  0.4173
  816MOL0     C10027  11.305   2.628   1.731  0.7990 -0.0177  1.1411
  816MOL0     O10028  11.180   2.582   1.769  0.5701  0.1225 -0.0669
  816MOL0     C10029  11.091   2.691   1.780  0.1338  0.9125  0.0552
  816MOL0     C10030  11.025   2.712   1.890  0.1146 -0.6031 -0.1307
  816MOL0     C10031  10.938   2.819   1.915  0.3909  0.1950  0.3062
  816MOL0     C10032  10.896   2.906   1.815 -0.0109  0.0185 -0.4314
  816MOL0     O10033  10.800   3.004   1.823  0.0963 -0.6058  0.4058
  816MOL0     C10034  10.734   3.028   1.949 -0.2437 -0.1928  0.3919
  816MOL0     C10035  10.633   3.144   1.942 -0.3958  0.2118  0.9611
  816MOL0     C10036  10.580   3.187   2.073  0.7937  0.2976  0.9377
  816MOL0     C10037  10.480   3.304   2.055 -0.7791 -0.1932  1.5162
  816MOL0     C10038  10.424   3.363   2.180 -0.3619  0.1139 -0.1306
  816MOL0     C10039  10.312   3.464   2.138 -0.1627  0.5091  1.0775
  816MOL0     C10040  10.243   3.543   2.260 -0.7273  0.2730  0.8971
  816MOL0     C10041  10.143   3.451   2.331  0.0364  0.3349 -0.7949
  816MOL0     N10042  10.076   3.534   2.428 -0.3953 -0.1742 -0.0273
  816MOL0     C10043   9.949   3.593   2.407 -0.4934 -0.1311 -0.5015
  816MOL0     C10044   9.925   3.669   2.520 -0.3239  0.4251  0.5026
  816MOL0     C10045   9.813   3.771   2.535 -0.3517  0.0121 -0.3804
  816MOL0     C10046   9.692   3.696   2.588 -0.4559  0.2434  0.2690
  816MOL0     C10047   9.712   3.599   2.702 -0.0491  0.0887 -0.4643
  816MOL0     C10048   9.751   3.668   2.831  0.1284 -0.2503  0.9792
  816MOL0     O10049   9.767   3.562   2.921 -0.2432  0.3889 -0.1064
  816MOL0     C10050   9.658   3.507   2.985  0.1129  0.1400  1.0630
  816MOL0     C10051   9.664   3.371   3.000 -0.7613 -0.1409  0.9073
  816MOL0     C10052   9.560   3.302   3.051  0.1397 -0.0057  0.2728
  816MOL0     C10053   9.435   3.365   3.090 -1.3977 -0.0990  1.4332
  816MOL0     C10054   9.327   3.289   3.148  0.7317  0.2129 -0.5946
  816MOL0     O10055   9.223   3.376   3.199 -0.3678  0.4047  0.3847
  816MOL0     C10056   9.119   3.306   3.251 -1.1618  0.0381 -0.5673
  816MOL0     C10057   9.029   3.253   3.159 -0.6126  1.4166 -0.8885
  816MOL0     C10058   8.917   3.186   3.206  0.8301  0.5548 -0.3125
  816MOL0     C10059   8.886   3.175   3.345 -0.3854 -0.2676  0.0594
  816MOL0     O10060   8.765   3.124   3.392  0.4854  0.2879 -0.0787
  816MOL0     C10061   8.797   3.026   3.497  0.7217 -0.0132 -0.0364
  816MOL0     C10062   8.675   2.934   3.522 -0.4961  0.2697  0.3041
  816MOL0     C10063   8.703   2.805   3.605  0.1391  0.1291 -0.5216
  816MOL0     C10064   8.568   2.721   3.616 -0.5604  0.5778  0.2360
  816MOL0     C10065   8.574   2.608   3.721 -0.9460  0.4489  0.0476
  816MOL0     C10066   8.525   2.654   3.855 -0.1656  0.6393 -0.2450
  816MOL0     C10067   8.518   2.531   3.949  0.4624 -0.2839  0.7734
  816MOL0     C10068   8.382   2.470   3.970  0.2864 -0.5039 -0.4842
  816MOL0    Cl10069   8.262   2.585   4.048 -0.4238 -0.1568  0.7169
  816MOL0     C10070   8.982   3.232   3.433  0.2091 -0.6719  0.7946
  816MOL0     C10071   9.089   3.301   3.387 -0.1127  0.5039  0.6564
  816MOL0     O10072   9.315   3.168   3.128 -0.0921  0.2702  0.1720
  816MOL0     C10073   9.426   3.504   3.062  0.8589  0.1643  0.4126
  816MOL0     C10074   9.542   3.571   3.017 -0.0343 -0.8057 -0.2433
  816MOL0     N10075  10.035   3.660   2.610 -0.3270 -0.7034  0.2391
  816MOL0     N10076  10.126   3.587   2.543 -0.3606 -0.1013 -0.0074
  816MOL0     C10077  10.981   2.894   1.699 -0.1238 -0.2548  0.3877
  816MOL0     C10078  11.070   2.786   1.683 -0.1441  0.4524 -0.1185
  816MOL0     C10079  11.396   2.525   1.670  0.2666  0.6134  0.2230
  816MOL0     C10080  11.430   2.413   1.758 -0.1058  0.1767  0.4575
  816MOL0     C10081  11.524   2.318   1.710 -1.2779  0.1543 -0.1391
  816MOL0     C10082  11.577   2.322   1.575 -0.1630  0.3550  0.8481
  816MOL0     O10083  11.662   2.228   1.509  0.9247 -0.6016 -0.1556
  816MOL0     C10084  11.686   2.097   1.561 -1.0484 -0.4944 -0.1653
  816MOL0     C10085  11.582   2.000   1.517 -0.5897  0.4734 -0.2982
  816MOL0     C10086  11.631   1.901   1.402  1.0930 -0.1023 -0.3145
  816MOL0     C10087  11.538   1.801   1.345 -0.3073  0.2522 -0.2624
  816MOL0     C10088  11.409   1.860   1.310  0.0469  0.0853 -0.3019
  816MOL0     C10089  11.293   1.882   1.280  0.6204 -0.0698  0.0218
  816MOL0     C10090  11.534   2.430   1.497 -0.0315  0.0448 -0.2205
  816MOL0     C10091  11.454   2.533   1.539  0.0110  0.0372 -0.3524
  816MOL0     C10092  11.451   2.656   1.452 -0.3209 -0.6635 -0.0241
  816MOL0     H10093  11.036   2.648   1.977  1.8064  0.0471  0.1794
  816MOL0     H10094  10.897   2.818   2.016  1.2179  4.5511  0.8977
  816MOL0     H10095  10.682   2.938   1.983  0.4610 -1.2247 -1.1655
  816MOL0     H10096  10.803   3.053   2.030 -0.9257  2.1989  0.3154
  816MOL0     H10097  10.556   3.105   1.875  1.8192 -1.3316 -0.8419
  816MOL0     H10098  10.686   3.232   1.904 -0.8266  1.7912  3.7735
  816MOL0     H10099  10.669   3.222   2.124  2.2279  1.4879 -2.1255
  816MOL0     H10100  10.535   3.099   2.120  1.6077 -2.1496 -2.4429
  816MOL0     H10101  10.540   3.377   1.999 -1.0715  1.8686  3.7272
  816MOL0     H10102  10.399   3.260   1.997 -2.4224  3.1607  1.0562
  816MOL0     H10103  10.395   3.290   2.256  4.3305  0.2447  2.1249
  816MOL0     H10104  10.507   3.423   2.218  0.3822  0.2804 -1.9469
  816MOL0     H10105  10.362   3.530   2.067 -0.8831 -0.4008 -0.3142
  816MOL0     H10106  10.229   3.413   2.087 -2.1400  3.7936  0.7577
  816MOL0     H10107  10.202   3.634   2.214  1.2466  0.1804 -1.2355
  816MOL0     H10108  10.326   3.571   2.325  2.4598 -2.7989 -1.4607
  816MOL0     H10109  10.072   3.409   2.259 -4.4908  3.5011  1.4010
  816MOL0     H10110  10.200   3.372   2.383 -1.6801 -0.1346  0.4473
  816MOL0     H10111   9.882   3.581   2.322 -0.7828 -0.3585 -0.2450
  816MOL0     H10112   9.856   3.845   2.604 -0.7777  0.7175 -0.8649
  816MOL0     H10113   9.789   3.818   2.440 -1.6062  1.1315  0.4655
  816MOL0     H10114   9.621   3.775   2.617 -1.7564 -0.6583 -0.3479
  816MOL0     H10115   9.642   3.628   2.518 -3.4469 -0.8208  3.1469
  816MOL0     H10116   9.792   3.530   2.674  0.3985 -0.6116  2.2610
  816MOL0     H10117   9.623   3.539   2.721 -0.3726  0.8491  0.5091
  816MOL0     H10118   9.688   3.751   2.866  3.1817  1.2976  3.2828
  816MOL0     H10119   9.848   3.717   2.821  0.7115 -1.7722 -2.1108
  816MOL0     H10120   9.754   3.318   2.970 -1.9257  0.4770 -4.7161
  816MOL0     H10121   9.570   3.195   3.065 -0.8263  0.0759  1.8103
  816MOL0     H10122   9.059   3.256   3.054 -0.8408  1.0195 -0.9672
  816MOL0     H10123   8.842   3.149   3.137 -1.6468  2.3533  1.1971
  816MOL0     H10124   8.879   2.963   3.462  1.0385  0.0770  0.5135
  816MOL0     H10125   8.831   3.053   3.598  3.3347 -4.6796  0.6037
  816MOL0     H10126   8.593   2.993   3.566 -1.9029 -1.9447  0.8242
  816MOL0     H10127   8.647   2.894   3.424  0.2202 -2.8514  1.2768
  816MOL0     H10128   8.782   2.741   3.565  0.1238  0.1150 -0.5298
  816MOL0     H10129   8.732   2.837   3.706  1.9711 -2.6733 -0.0415
  816MOL0     H10130   8.538   2.672   3.524 -2.8010  1.6867  0.3154
  816MOL0     H10131   8.487   2.793   3.635 -0.8218 -0.1228  1.9784
  816MOL0     H10132   8.676   2.570   3.736 -0.7365  0.8596 -0.3080
  816MOL0     H10133   8.508   2.527   3.688  0.6937 -1.4027  1.0286
  816MOL0     H10134   8.604   2.719   3.894  0.4334 -1.2148  1.7954
  816MOL0     H10135   8.433   2.708   3.833  0.5638  2.3097  0.6571
  816MOL0     H10136   8.561   2.554   4.047  1.2925 -1.0676  0.6067
  816MOL0     H10137   8.588   2.455   3.913 -1.5647 -0.9235 -2.1725
  816MOL0     H10138   8.334   2.447   3.874 -1.6294 -1.2438  0.5826
  816MOL0     H10139   8.388   2.379   4.032 -1.1009  1.8839  3.5914
  816MOL0     H10140   8.953   3.242   3.537  1.0782 -1.6457  1.1588
  816MOL0     H10141   9.157   3.355   3.452  1.1482  2.0200 -1.7669
  816MOL0     H10142   9.338   3.566   3.075 -1.3592 -2.6479 -0.0253
  816MOL0     H10143   9.519   3.677   3.006 -2.7168 -0.7884  3.4953
  816MOL0     H10144  10.973   2.970   1.621  0.3826  2.5436  2.8477
  816MOL0     H10145  11.117   2.781   1.585  0.2793 -0.4389  0.1152
  816MOL0     H10146  11.399   2.423   1.861  3.2853 -1.5973  1.8146
  816MOL0     H10147  11.538   2.235   1.778  0.7740 -1.6145 -2.5457
  816MOL0     H10148  11.694   2.108   1.669  1.3357  1.1656 -0.4145
  816MOL0     H10149  11.780   2.053   1.527 -1.2077 -0.3831 -0.7679
  816MOL0     H10150  11.492   2.053   1.483  1.7262  3.5494 -2.1702
  816MOL0     H10151  11.558   1.940   1.605  0.8083  2.9468  1.9078
  816MOL0     H10152  11.713   1.842   1.443 -2.3666 -4.0775  1.6186
  816MOL0     H10153  11.660   1.971   1.323 -0.1514  1.7030  0.7613
  816MOL0     H10154  11.589   1.757   1.260 -1.0508  0.8549 -1.0427
  816MOL0     H10155  11.525   1.712   1.407 -1.5767  0.5844 -0.0195
  816MOL0     H10156  11.186   1.888   1.279  0.6953  2.1213  0.6427
  816MOL0     H10157  11.567   2.430   1.393  0.7982 -0.8004  0.0329
  816MOL0     H10158  11.350   2.683   1.421  0.3498  0.6099 -1.2560
  816MOL0     H10159  11.497   2.739   1.507 -1.8374 -1.1224  2.0674
  816MOL0     H10160  11.510   2.644   1.360 -1.4983  0.6877 -0.9998
  817MOL0     O10161  10.147   1.224   1.726  0.3172 -0.6978  0.4745
  817MOL0     C10162  10.076   1.216   1.623  0.1304  0.3967 -0.8683
  817MOL0     O10163   9.969   1.133   1.615 -0.2056 -0.8287  0.7372
  817MOL0     C10164   9.924   1.084   1.734  0.0868 -0.3695 -0.4014
  817MOL0     C10165   9.816   1.144   1.809  0.8355  0.1490  0.0561
  817MOL0     C10166   9.766   1.087   1.931 -0.7178 -0.3115  0.0278
  817MOL0     C10167   9.823   0.967   1.973 -0.6901 -0.2188 -0.5015
  817MOL0     O10168   9.780   0.917   2.092  0.2567  0.1188  0.0052
  817MOL0     C10169   9.846   0.812   2.165  0.4952  0.3277 -0.8376
  817MOL0     C10170   9.769   0.800   2.298  0.3631  0.0144  0.9227
  817MOL0     C10171   9.613   0.802   2.298  0.3298  0.5670 -0.1353
  817MOL0     C10172   9.562   0.768   2.439  0.0451 -0.3991 -1.0092
  817MOL0     C10173   9.410   0.772   2.469  0.0159 -0.6441  0.5913
  817MOL0     C10174   9.379   0.722   2.610  0.5349 -0.0445 -0.1320
  817MOL0     C10175   9.231   0.721   2.627  1.6349 -0.5857 -1.0865
  817MOL0     C10176   9.199   0.720   2.783  0.7774 -0.1701 -1.5208
  817MOL0     N10177   9.058   0.721   2.811  0.1135  0.1615  0.2301
  817MOL0     C10178   8.982   0.823   2.859  0.2496 -0.2849  0.4513
  817MOL0     C10179   8.850   0.781   2.858 -1.5366 -0.3596  0.1017
  817MOL0     C10180   8.738   0.871   2.878 -0.1761  0.6524 -0.1786
  817MOL0     C10181   8.709   0.946   2.743 -0.0556 -0.5822  0.3907
  817MOL0     C10182   8.570   1.012   2.734  0.1551 -0.1624 -0.7616
  817MOL0     C10183   8.577   1.154   2.783 -0.6825  0.1237  0.6520
  817MOL0     O10184   8.608   1.161   2.924 -0.3414  0.1168 -1.0498
  817MOL0     C10185   8.519   1.119   3.021  0.4515  0.2626 -0.5546
  817MOL0     C10186   8.557   1.112   3.157 -0.0208 -0.4533  0.6681
  817MOL0     C10187   8.482   1.079   3.269 -0.6219 -0.2284 -0.5681
  817MOL0     C10188   8.342   1.050   3.247 -0.0546  1.0136  0.1505
  817MOL0     C10189   8.260   1.013   3.355  0.1238  0.7498  0.0400
  817MOL0     O10190   8.310   0.994   3.479 -0.3847  0.6354  0.1073
  817MOL0     C10191   8.240   0.974   3.597  0.5519 -0.4750 -0.5541
  817MOL0     C10192   8.100   0.958   3.613 -0.2133 -0.7026 -0.4232
  817MOL0     C10193   8.050   0.936   3.741 -0.4309 -0.6101  0.6211
  817MOL0     C10194   8.133   0.934   3.853 -0.1273  0.3020 -0.0551
  817MOL0     O10195   8.086   0.912   3.985  0.1667 -0.5398  0.3501
  817MOL0     C10196   7.976   0.808   4.002  0.5474 -0.1722  0.3431
  817MOL0     C10197   7.975   0.754   4.145  0.5978  0.0360  0.1280
  817MOL0     C10198   7.838   0.695   4.203 -0.1173  0.4331 -0.1492
  817MOL0     C10199   7.817   0.559   4.126  0.1395 -1.1057  0.7254
  817MOL0     C10200   7.704   0.480   4.179  0.2332  1.1219 -0.5983
  817MOL0     C10201   7.712   0.428   4.327  0.4223 -0.2177 -0.2307
  817MOL0     C10202   7.590   0.335   4.358 -0.6537  0.6213 -0.2824
  817MOL0     C10203   7.562   0.290   4.502 -0.7646 -1.0865  0.8050
  817MOL0    Cl10204   7.420   0.185   4.505 -0.0238 -0.0963  0.5700
  817MOL0     C10205   8.268   0.951   3.835 -1.2740 -0.8448 -1.4351
  817MOL0     C10206   8.317   0.973   3.715 -0.7443 -0.8460  0.1941
  817MOL0     O10207   8.146   1.011   3.319  0.7200  0.0387 -1.0055
  817MOL0     C10208   8.297   1.052   3.115  0.0818 -0.6091 -0.2145
  817MOL0     C10209   8.380   1.088   3.002 -0.5070 -0.5812 -0.4389
  817MOL0     N10210   8.855   0.653   2.814 -0.3842  0.2952 -0.5473
  817MOL0     N10211   8.976   0.616   2.782  0.0442 -0.8282  0.1583
  817MOL0     C10212   9.933   0.916   1.909 -0.7814  0.0739  0.1402
  817MOL0     C10213   9.970   0.965   1.785 -0.2892  0.2385  0.6306
  817MOL0     C10214  10.095   1.304   1.503 -0.0291  0.3343 -0.5889
  817MOL0     C10215  10.017   1.281   1.382 -1.0505  0.6705 -0.3304
  817MOL0     C10216  10.027   1.370   1.274  0.0070 -0.0734  0.8382
  817MOL0     C10217  10.098   1.482   1.277 -0.4460 -0.8829  0.6991
  817MOL0     O10218  10.092   1.574   1.178 -0.4249  0.3603 -0.2695
  817MOL0     C10219   9.995   1.566   1.070  0.1281 -0.4036  0.3196
  817MOL0     C10220   9.996   1.702   0.993  0.5235  0.3649 -0.4783
  817MOL0     C10221   9.902   1.696   0.873 -0.9438 -0.1868 -1.0031
  817MOL0     C10222   9.758   1.728   0.918  0.2900  0.7672 -0.1857
  817MOL0     C10223   9.667   1.704   0.812  0.6647  0.0803 -0.0276
  817MOL0     C10224   9.576   1.698   0.732  0.0787  0.5776 -0.4272
  817MOL0     C10225  10.180   1.501   1.388 -0.0247 -0.4382 -0.2655
  817MOL0     C10226  10.180   1.423   1.503  0.5166 -0.0808  0.4416
  817MOL0     C10227  10.264   1.477   1.617  0.5654  0.7464 -0.6907
  817MOL0     H10228   9.760   1.231   1.777  0.9627 -0.7456 -2.9001
  817MOL0     H10229   9.685   1.138   1.982 -0.0951 -2.8290  4.0231
  817MOL0     H10230   9.845   0.725   2.099 -4.1651  0.2986 -1.0567
  817MOL0     H10231   9.948   0.844   2.189  0.0885  1.9275 -1.1102
  817MOL0     H10232   9.797   0.879   2.367 -1.7387 -0.8802  2.9096
  817MOL0     H10233   9.794   0.697   2.328 -1.8199 -1.0437 -0.6313
  817MOL0     H10234   9.583   0.718   2.235  1.2352 -0.5581  0.8849
  817MOL0     H10235   9.575   0.893   2.250  2.1294  1.0369 -0.7224
  817MOL0     H10236   9.611   0.674   2.466  0.7184  0.2895  0.2967
  817MOL0     H10237   9.599   0.847   2.505 -1.0522  1.0594 -2.0788
  817MOL0     H10238   9.370   0.873   2.457 -2.0080 -0.8497  4.2326
  817MOL0     H10239   9.356   0.704   2.402 -2.1145 -0.5146  2.0794
  817MOL0     H10240   9.431   0.629   2.637 -0.9820 -1.0396 -0.5217
  817MOL0     H10241   9.418   0.797   2.680  0.1189  0.0179  0.0362
  817MOL0     H10242   9.168   0.642   2.585 -2.7927 -0.2062  3.7248
  817MOL0     H10243   9.189   0.812   2.582 -0.2677 -1.2898 -0.8385
  817MOL0     H10244   9.250   0.635   2.830 -3.0792 -0.7236  2.2621
  817MOL0     H10245   9.239   0.811   2.830  0.0569 -0.6067 -0.0155
  817MOL0     H10246   9.021   0.922   2.884 -0.4567 -0.4749  2.4430
  817MOL0     H10247   8.644   0.822   2.905 -2.8294  3.1942 -3.7246
  817MOL0     H10248   8.760   0.946   2.955 -1.1201 -1.2344  2.0421
  817MOL0     H10249   8.786   1.024   2.736  0.6149 -0.9942  2.3858
  817MOL0     H10250   8.728   0.878   2.659  0.9671  1.1327 -0.8355
  817MOL0     H10251   8.497   0.958   2.795 -2.4724  3.5974 -0.2406
  817MOL0     H10252   8.542   1.016   2.629 -0.0365  3.4014 -0.6933
  817MOL0     H10253   8.479   1.200   2.767 -2.6135 -4.1263 -1.6155
  817MOL0     H10254   8.647   1.216   2.726 -2.4509  2.1945  0.5965
  817MOL0     H10255   8.659   1.139   3.181 -0.5535  0.8409  1.5994
  817MOL0     H10256   8.519   1.070   3.371  2.5297 -0.1758 -1.6062
  817MOL0     H10257   8.039   0.954   3.523  0.4092 -0.3994 -0.8645
  817MOL0     H10258   7.947   0.908   3.758 -0.3129 -0.3472  1.8226
  817MOL0     H10259   7.880   0.848   3.968  0.3280  0.4854  1.6580
  817MOL0     H10260   8.001   0.728   3.931 -2.1774  0.8385 -1.9385
  817MOL0     H10261   8.055   0.679   4.146  1.0635  0.4120 -2.0602
  817MOL0     H10262   7.995   0.839   4.210  0.0246 -2.6553  4.1744
  817MOL0     H10263   7.864   0.676   4.308  2.0476 -1.5605 -0.9716
  817MOL0     H10264   7.748   0.757   4.198 -1.3534 -1.2421  0.4712
  817MOL0     H10265   7.911   0.504   4.124  0.1341 -1.1098 -0.5586
  817MOL0     H10266   7.799   0.588   4.022 -0.0204  3.3497  1.8023
  817MOL0     H10267   7.679   0.392   4.119  2.6813 -2.2713  2.8359
  817MOL0     H10268   7.621   0.552   4.184 -1.2535 -0.6259  2.3446
  817MOL0     H10269   7.799   0.363   4.339  0.6838 -0.2765 -2.1904
  817MOL0     H10270   7.705   0.513   4.395 -0.8400 -0.0970 -0.5016
  817MOL0     H10271   7.587   0.248   4.293  0.2615 -1.3804  2.1959
  817MOL0     H10272   7.503   0.390   4.319 -0.1711  2.8296  1.5389
  817MOL0     H10273   7.653   0.241   4.538  2.1073 -1.1191 -5.3069
  817MOL0     H10274   7.549   0.375   4.570  4.1488 -0.6473  1.5840
  817MOL0     H10275   8.329   0.960   3.925  0.3435 -1.2815 -2.4410
  817MOL0     H10276   8.424   0.988   3.709 -1.0094  1.2499 -0.1126
  817MOL0     H10277   8.192   1.030   3.095 -0.5495  2.3618 -0.7615
  817MOL0     H10278   8.335   1.097   2.903 -0.2085 -0.6993 -0.5890
  817MOL0     H10279   9.975   0.824   1.948 -1.2923  1.7496  5.4090
  817MOL0     H10280  10.050   0.915   1.733  0.6468  0.9161  1.3919
  817MOL0     H10281   9.965   1.186   1.369  0.7583 -0.3229 -0.6730
  817MOL0     H10282   9.964   1.351   1.187 -1.4797  1.3974  1.5249
  817MOL0     H10283   9.897   1.527   1.098  0.5137 -1.5221  0.1750
  817MOL0     H10284  10.021   1.490   0.995 -0.3565 -0.0072 -0.2564
  817MOL0     H10285  10.099   1.715   0.958  0.8250  0.0550  0.2852
  817MOL0     H10286   9.967   1.784   1.058  1.2898  2.2363 -2.3811
  817MOL0     H10287   9.921   1.601   0.822  6.7768 -0.5208  1.2530
  817MOL0     H10288   9.938   1.776   0.808 -2.3660  1.5587  0.2348
  817MOL0     H10289   9.730   1.662   1.001  0.9210 -0.0569 -0.5983
  817MOL0     H10290   9.739   1.828   0.957 -0.9705  0.4249  0.0917
  817MOL0     H10291   9.490   1.683   0.670 -0.8594  2.2671  0.3948
  817MOL0     H10292  10.242   1.588   1.406 -0.2564 -0.4346  0.5818
  817MOL0     H10293  10.337   1.552   1.589 -0.4657  1.4601 -1.5599
  817MOL0     H10294  10.192   1.514   1.690  1.3420  2.7555 -0.9024
  817MOL0     H10295  10.306   1.385   1.658 -0.7409  0.3166 -0.2486
  818MOL0     O10296   8.535   5.990   9.935  0.5168 -0.1626 -0.2662
  818MOL0     C10297   8.530   5.866   9.949  0.6438 -0.7073 -0.4318
  818MOL0     O10298   8.597   5.782   9.865  0.2481 -0.0262 -0.1283
  818MOL0     C10299   8.669   5.819   9.756  0.1256 -1.1739 -0.0359
  818MOL0     C10300   8.712   5.951   9.717  0.9756  0.4041  0.8100
  818MOL0     C10301   8.781   5.964   9.593 -0.5675  0.2764  0.1409
  818MOL0     C10302   8.812   5.854   9.514  0.2415  0.2768  0.4281
  818MOL0     O10303   8.865   5.873   9.392 -0.5865  0.4383 -0.1424
  818MOL0     C10304   8.768   5.864   9.291 -0.3518  0.3985  0.8084
  818MOL0     C10305   8.832   5.902   9.156  0.2901 -0.0031 -0.7144
  818MOL0     C10306   8.901   5.785   9.084 -0.6927  0.2132  0.1527
  818MOL0     C10307   8.816   5.715   8.973  0.6427 -0.9874 -0.9972
  818MOL0     C10308   8.887   5.595   8.909  0.4632  0.0513 -0.0680
  818MOL0     C10309   9.015   5.634   8.825  1.4423  0.9140 -1.0127
  818MOL0     C10310   9.083   5.501   8.802  0.7917 -0.7099  0.7540
  818MOL0     C10311   9.191   5.548   8.708  0.0829  0.6075  0.2502
  818MOL0     N10312   9.284   5.436   8.668  0.3689 -0.2939 -0.1498
  818MOL0     C10313   9.282   5.311   8.701 -0.7741 -0.2503  0.0545
  818MOL0     C10314   9.404   5.260   8.645 -0.3002 -0.7272  0.3713
  818MOL0     C10315   9.464   5.121   8.644  0.7426  0.5836  0.1002
  818MOL0     C10316   9.364   5.010   8.697 -0.0203  0.7460 -0.9636
  818MOL0     C10317   9.401   4.859   8.678 -0.0391 -0.1364  0.1327
  818MOL0     C10318   9.315   4.771   8.766 -0.0224  0.2241 -0.1489
  818MOL0     O10319   9.183   4.777   8.718  0.5741  0.1025 -0.6139
  818MOL0     C10320   9.090   4.747   8.813 -0.5766 -0.0856 -0.5094
  818MOL0     C10321   9.049   4.626   8.858 -0.6901  0.1083 -0.6761
  818MOL0     C10322   8.953   4.595   8.955  0.1694  0.7769  0.1439
  818MOL0     C10323   8.895   4.708   9.015  0.8816 -0.9521  0.8369
  818MOL0     C10324   8.800   4.692   9.128  0.2021  0.8527 -0.6789
  818MOL0     O10325   8.702   4.787   9.160  0.2743 -0.7153  0.9277
  818MOL0     C10326   8.632   4.776   9.273  0.0922  0.4952  0.0638
  818MOL0     C10327   8.654   4.873   9.370 -0.2066  0.3173 -0.8248
  818MOL0     C10328   8.581   4.872   9.490  0.0750 -0.1617  0.1500
  818MOL0     C10329   8.493   4.762   9.516 -0.5291 -0.0897 -0.4694
  818MOL0     O10330   8.422   4.767   9.634 -0.2407  0.2451 -0.2766
  818MOL0     C10331   8.290   4.703   9.644 -1.5715 -0.2581  1.1642
  818MOL0     C10332   8.237   4.759   9.773 -0.6203 -0.7007 -0.7270
  818MOL0     C10333   8.241   4.914   9.793  0.1022  0.4131 -0.5995
  818MOL0     C10334   8.118   4.984   9.848  0.1476 -0.1959 -1.3565
  818MOL0     C10335   8.085   4.934   9.998 -0.0852 -0.2366  0.0826
  818MOL0     C10336   7.977   5.017  10.060  0.2924  0.7780 -0.7826
  818MOL0     C10337   7.987   5.171  10.055  0.0582  0.4477  0.1305
  818MOL0     C10338   8.116   5.239  10.089  0.3288  0.4022  0.3152
  818MOL0    Cl10339   8.190   5.200  10.252  0.3154 -0.6055  0.1071
  818MOL0     C10340   8.482   4.661   9.424 -0.1791 -0.3461  0.4572
  818MOL0     C10341   8.551   4.669   9.299  0.9844 -0.0631  0.5759
  818MOL0     O10342   8.815   4.578   9.187  0.0399 -0.0789  0.1681
  818MOL0     C10343   8.929   4.838   8.969 -0.3626 -0.3919  0.2026
  818MOL0     C10344   9.019   4.861   8.866  0.3041  0.4880 -0.6534
  818MOL0     N10345   9.468   5.362   8.582 -0.0891 -0.6726 -0.0859
  818MOL0     N10346   9.389   5.463   8.594 -1.3853 -0.9250 -0.0130
  818MOL0     C10347   8.778   5.721   9.548 -0.0040  0.1748  0.2358
  818MOL0     C10348   8.703   5.711   9.669 -1.1908 -0.0879 -0.5885
  818MOL0     C10349   8.424   5.801  10.039  0.2940  0.4863  0.1455
  818MOL0     C10350   8.370   5.680  10.002 -0.2883  0.1920  0.3304
  818MOL0     C10351   8.289   5.610  10.083 -0.4959 -0.0064  0.2578
  818MOL0     C10352   8.256   5.660  10.211 -0.8580  1.3945 -1.4901
  818MOL0     O10353   8.170   5.578  10.285  0.3578 -0.0549 -0.4351
  818MOL0     C10354   8.090   5.639  10.385 -0.1663 -0.8404 -1.1493
  818MOL0     C10355   8.013   5.539  10.459  0.3907  0.6128 -0.1388
  818MOL0     C10356   8.104   5.477  10.571  0.0352 -0.4744 -0.9672
  818MOL0     C10357   8.038   5.361  10.629  0.3830  0.6324 -0.1103
  818MOL0     C10358   8.125   5.303  10.726  0.1695  0.2948  0.4023
  818MOL0     C10359   8.181   5.244  10.816 -0.1407  0.5728  0.5217
  818MOL0     C10360   8.297   5.794  10.246 -0.3064  0.0693 -1.0697
  818MOL0     C10361   8.376   5.865  10.168  0.0668  0.6122  0.1873
  818MOL0     C10362   8.413   6.000  10.197 -0.0369  0.1591 -0.1384
  818MOL0     H10363   8.687   6.042   9.772 -0.2845  0.5370  0.0525
  818MOL0     H10364   8.829   6.057   9.567  0.1667  0.6729  2.6711
  818MOL0     H10365   8.733   5.761   9.282  0.9414  0.1141 -2.2349
  818MOL0     H10366   8.686   5.931   9.320 -0.0785  0.7477  0.7884
  818MOL0     H10367   8.909   5.978   9.169  1.1179 -1.2454  3.3998
  818MOL0     H10368   8.756   5.950   9.094 -1.7590 -2.0393  0.0657
  818MOL0     H10369   8.934   5.703   9.148 -1.5014 -0.5842 -0.4280
  818MOL0     H10370   8.990   5.824   9.035 -1.3865 -0.5682 -1.8029
  818MOL0     H10371   8.728   5.672   9.022  1.3538 -0.3816  0.9187
  818MOL0     H10372   8.781   5.789   8.900 -1.9785  0.0117  1.0932
  818MOL0     H10373   8.928   5.526   8.984  0.0813  0.6333  0.6787
  818MOL0     H10374   8.813   5.541   8.850  1.2219 -2.1456  0.8648
  818MOL0     H10375   8.990   5.691   8.735  1.1588  0.5335 -1.1763
  818MOL0     H10376   9.084   5.687   8.891 -1.4376  0.3281  2.8976
  818MOL0     H10377   9.009   5.437   8.753  0.1218 -0.7216  1.7580
  818MOL0     H10378   9.108   5.451   8.896 -0.2930  3.3532  3.4392
  818MOL0     H10379   9.145   5.581   8.614 -1.6132  1.9832  1.5126
  818MOL0     H10380   9.243   5.632   8.754 -1.8244  0.1703  3.4830
  818MOL0     H10381   9.207   5.256   8.757 -0.9411  0.0646  0.1396
  818MOL0     H10382   9.498   5.083   8.548  1.4605 -1.1510  1.0067
  818MOL0     H10383   9.550   5.121   8.711 -1.3590  2.7899  3.0783
  818MOL0     H10384   9.370   5.022   8.806  3.6692 -3.7995 -0.3500
  818MOL0     H10385   9.265   5.024   8.653 -0.8449 -0.5786  0.3606
  818MOL0     H10386   9.507   4.846   8.701 -0.5617 -1.8011  1.8415
  818MOL0     H10387   9.388   4.838   8.572  1.4796  0.3110 -0.1725
  818MOL0     H10388   9.320   4.800   8.871 -1.1477  3.2669 -0.8358
  818MOL0     H10389   9.352   4.668   8.771  2.0364  0.9603  3.6803
  818MOL0     H10390   9.103   4.550   8.801 -2.7547  0.5503 -3.4703
  818MOL0     H10391   8.934   4.489   8.964 -1.2880  1.0076 -0.0592
  818MOL0     H10392   8.718   4.959   9.357 -1.7268  1.4575 -0.9933
  818MOL0     H10393   8.597   4.947   9.568 -0.3052  0.8475 -0.7122
  818MOL0     H10394   8.227   4.744   9.564  0.2527  0.6228  0.1250
  818MOL0     H10395   8.304   4.594   9.640  1.3232  0.0677 -1.1527
  818MOL0     H10396   8.136   4.721   9.793  0.9947 -3.9904  1.9825
  818MOL0     H10397   8.299   4.709   9.847  0.8999  0.0126 -1.4636
  818MOL0     H10398   8.327   4.920   9.860 -0.3760 -1.0623  0.1962
  818MOL0     H10399   8.259   4.962   9.696  1.1386  0.6211 -0.3110
  818MOL0     H10400   8.028   4.985   9.786 -0.5604  1.3572 -0.3788
  818MOL0     H10401   8.148   5.088   9.863 -0.6843 -0.3299  2.3469
  818MOL0     H10402   8.182   4.939  10.049  1.4528  0.4793 -2.6842
  818MOL0     H10403   8.056   4.828   9.995  1.0044 -0.5332 -1.0542
  818MOL0     H10404   7.891   4.982  10.002  0.0976  1.7567 -1.0973
  818MOL0     H10405   7.975   4.985  10.165 -1.4193  0.6790 -0.8078
  818MOL0     H10406   7.902   5.208  10.112 -1.4727 -0.4760 -1.4714
  818MOL0     H10407   7.966   5.191   9.949 -3.8588 -2.2181  0.2195
  818MOL0     H10408   8.195   5.219  10.016 -1.3823 -0.6438 -1.3317
  818MOL0     H10409   8.090   5.344  10.070 -0.9784 -0.1795 -1.2342
  818MOL0     H10410   8.418   4.576   9.445  3.1003 -2.7646  1.4200
  818MOL0     H10411   8.544   4.587   9.229 -1.5981 -0.0390  0.7234
  818MOL0     H10412   8.883   4.923   9.018 -1.1954 -0.7699  0.0933
  818MOL0     H10413   9.022   4.962   8.827 -6.8967  1.9900  1.2819
  818MOL0     H10414   8.808   5.639   9.484  1.5276  1.2933 -0.5471
  818MOL0     H10415   8.693   5.607   9.699  1.0380 -0.4030 -0.7875
  818MOL0     H10416   8.403   5.623   9.915 -1.5473  0.8876 -0.6320
  818MOL0     H10417   8.256   5.514  10.046 -0.3833  0.4240 -1.0434
  818MOL0     H10418   8.022   5.714  10.342 -0.2073  0.2944  0.7963
  818MOL0     H10419   8.152   5.690  10.459  0.0784 -0.5755 -1.5277
  818MOL0     H10420   7.989   5.459  10.389  2.7019 -3.7065  3.4338
  818MOL0     H10421   7.918   5.580  10.496 -0.9228 -2.2619 -0.0262
  818MOL0     H10422   8.133   5.557  10.640 -1.1287  0.3889 -1.4475
  818MOL0     H10423   8.191   5.441  10.516 -1.0136 -1.4129 -2.0701
  818MOL0     H10424   7.942   5.382  10.677  0.7444  1.5250  0.2538
  818MOL0     H10425   8.016   5.288  10.551  0.8888 -1.2766  1.4527
  818MOL0     H10426   8.235   5.185  10.887  4.4277  1.3991 -1.8013
  818MOL0     H10427   8.261   5.833  10.341  0.3805 -3.1403  0.6439
  818MOL0     H10428   8.368   6.025  10.293  3.8554 -2.4060  2.6474
  818MOL0     H10429   8.521   6.003  10.207  0.3392 -0.1690 -3.0529
  818MOL0     H10430   8.382   6.078  10.127  2.3101  2.1462  0.9053
  819MOL0     O10431  11.015   2.393  10.159 -0.7856 -0.3415  0.0910
  819MOL0     C10432  11.012   2.501  10.224 -0.9970 -0.6933  0.5915
  819MOL0     O10433  10.924   2.597  10.207  0.2131 -0.7435 -0.2073
  819MOL0     C10434  10.847   2.616  10.099  0.1630 -0.1484 -0.9022
  819MOL0     C10435  10.878   2.557   9.979  0.2755  0.9945  0.5360
  819MOL0     C10436  10.775   2.567   9.877 -0.0628 -0.4059  0.0666
  819MOL0     C10437  10.664   2.646   9.884  0.5664 -0.4383  0.5563
  819MOL0     O10438  10.584   2.650   9.768  0.0945 -0.0364 -0.3500
  819MOL0     C10439  10.446   2.630   9.807  0.8511  0.1657  0.6104
  819MOL0     C10440  10.350   2.630   9.681 -0.1018 -1.1022 -0.0612
  819MOL0     C10441  10.351   2.761   9.619  0.1597 -0.6531 -0.3685
  819MOL0     C10442  10.254   2.777   9.505 -0.1867 -1.0674  0.9142
  819MOL0     C10443  10.284   2.906   9.428 -0.7228  0.0160  0.3264
  819MOL0     C10444  10.193   2.916   9.301 -0.1887 -0.3957 -0.1353
  819MOL0     C10445  10.226   3.050   9.221  0.6422 -0.0528 -0.4283
  819MOL0     C10446  10.160   3.038   9.083  0.0928  0.7079  0.1239
  819MOL0     N10447  10.242   3.118   8.976 -0.6358  0.4141  0.5208
  819MOL0     C10448  10.265   3.250   8.997 -0.1264 -0.9927  0.6082
  819MOL0     C10449  10.338   3.278   8.887 -0.1396  0.9378 -0.1219
  819MOL0     C10450  10.401   3.419   8.857 -0.0786 -0.1629 -0.1744
  819MOL0     C10451  10.545   3.410   8.815 -0.1762  0.4566  0.1990
  819MOL0     C10452  10.565   3.436   8.663 -0.3195  0.1003  0.1093
  819MOL0     C10453  10.497   3.333   8.579 -0.0500  0.2544  0.4761
  819MOL0     O10454  10.510   3.356   8.444  0.5366 -0.2612  0.3310
  819MOL0     C10455  10.559   3.259   8.362  0.1919 -0.5642 -0.0784
  819MOL0     C10456  10.659   3.157   8.388 -0.2420  0.0775 -0.4157
  819MOL0     C10457  10.706   3.069   8.289 -0.2157 -0.4327  0.6198
  819MOL0     C10458  10.654   3.084   8.156 -0.7162  0.1969  0.5912
  819MOL0     C10459  10.715   3.000   8.047 -0.2006  0.4577 -0.5597
  819MOL0     O10460  10.720   3.060   7.925  0.6346 -0.5458 -0.0809
  819MOL0     C10461  10.768   2.998   7.810 -0.8497  0.7955 -0.2027
  819MOL0     C10462  10.755   2.861   7.779 -0.1953  0.4896  0.2901
  819MOL0     C10463  10.799   2.808   7.653  0.4209  0.4207 -0.7787
  819MOL0     C10464  10.856   2.889   7.555  0.5488  0.4151 -0.0279
  819MOL0     O10465  10.902   2.831   7.432  0.1836 -0.2289 -0.0659
  819MOL0     C10466  10.909   2.912   7.316  0.1914 -0.7531  0.9496
  819MOL0     C10467  10.916   2.816   7.202  0.3882  0.7669  0.1048
  819MOL0     C10468  10.902   2.882   7.077 -0.1542 -0.1274  0.1848
  819MOL0     C10469  11.040   2.938   7.013  0.0771  0.6167 -0.2727
  819MOL0     C10470  11.027   3.035   6.896  0.7589  0.3341 -0.6559
  819MOL0     C10471  10.927   2.994   6.790 -0.3553 -0.8165 -0.2860
  819MOL0     C10472  10.938   2.858   6.727 -0.1221  0.4056 -0.0151
  819MOL0     C10473  11.038   2.870   6.615  0.4248  0.0699  0.2129
  819MOL0    Cl10474  11.030   2.720   6.533 -0.1358  0.4793 -0.4105
  819MOL0     C10475  10.867   3.025   7.588 -0.4621  0.6468  0.2646
  819MOL0     C10476  10.829   3.072   7.707 -0.0475  0.8118 -0.0208
  819MOL0     O10477  10.746   2.884   8.080  0.0614 -0.0692 -0.5012
  819MOL0     C10478  10.551   3.173   8.133  0.6115  1.0122  0.0231
  819MOL0     C10479  10.504   3.263   8.227  0.1910 -0.3648  0.3523
  819MOL0     N10480  10.370   3.158   8.819 -0.0598  0.8303 -0.0157
  819MOL0     N10481  10.296   3.062   8.859 -0.2575  0.7859 -0.3553
  819MOL0     C10482  10.638   2.718  10.004  0.3015  0.9887 -0.2773
  819MOL0     C10483  10.732   2.697  10.109  0.9768 -0.2058  0.1554
  819MOL0     C10484  11.076   2.499  10.360 -0.2652  0.3500  0.7403
  819MOL0     C10485  11.022   2.428  10.459  1.2183 -0.3822 -0.7322
  819MOL0     C10486  11.087   2.414  10.578 -0.5392  0.1855 -0.0978
  819MOL0     C10487  11.224   2.463  10.597  0.0432 -0.6531  1.2209
  819MOL0     O10488  11.266   2.430  10.724 -0.4755  0.6394  0.1711
  819MOL0     C10489  11.390   2.475  10.774 -0.0272 -0.0047 -0.3461
  819MOL0     C10490  11.433   2.397  10.893 -0.3258  1.2011 -1.0883
  819MOL0     C10491  11.574   2.333  10.883  0.8060  0.1079 -0.0398
  819MOL0     C10492  11.568   2.224  10.996  0.2969 -0.5064  0.2293
  819MOL0     C10493  11.696   2.174  11.023  0.1080  0.2748 -1.2622
  819MOL0     C10494  11.807   2.131  11.060  0.4112  0.0825 -0.0993
  819MOL0     C10495  11.283   2.534  10.486 -0.2183  0.7588 -1.0478
  819MOL0     C10496  11.203   2.560  10.372 -0.4584  0.6959 -0.2083
  819MOL0     C10497  11.257   2.674  10.284  0.0420 -0.1699  1.1621
  819MOL0     H10498  10.970   2.506   9.954 -2.2075 -2.8083 -1.9685
  819MOL0     H10499  10.798   2.501   9.794  0.8645  0.8075 -0.6633
  819MOL0     H10500  10.434   2.528   9.845 -0.1323  0.2549  0.5681
  819MOL0     H10501  10.408   2.694   9.887 -2.0100 -0.9803  0.3044
  819MOL0     H10502  10.249   2.608   9.716  0.0205 -0.4182  0.7788
  819MOL0     H10503  10.385   2.550   9.616 -1.1011 -2.3892  0.9444
  819MOL0     H10504  10.454   2.765   9.583  0.2450 -0.9817 -0.1628
  819MOL0     H10505  10.342   2.834   9.699 -0.5405 -0.2252 -0.8232
  819MOL0     H10506  10.272   2.696   9.434  4.0768  2.7552 -3.1071
  819MOL0     H10507  10.152   2.793   9.540 -0.3389  1.5838 -0.4115
  819MOL0     H10508  10.272   2.997   9.488  0.7938 -0.4194  1.3562
  819MOL0     H10509  10.382   2.887   9.383 -1.7527 -0.7105 -1.7489
  819MOL0     H10510  10.208   2.832   9.233  0.3581  1.0549 -1.8742
  819MOL0     H10511  10.089   2.896   9.328 -0.1824 -0.5284 -0.2088
  819MOL0     H10512  10.336   3.057   9.216  0.5990  1.0046 -0.1001
  819MOL0     H10513  10.185   3.137   9.272  0.1581 -0.8436  0.5714
  819MOL0     H10514  10.161   2.931   9.060 -0.4774  0.1193  2.5575
  819MOL0     H10515  10.052   3.059   9.078 -0.5127 -2.1474 -1.0579
  819MOL0     H10516  10.243   3.313   9.082  1.4997  0.7450 -0.1784
  819MOL0     H10517  10.351   3.462   8.769  0.4820 -2.6046 -1.7878
  819MOL0     H10518  10.371   3.480   8.943 -3.0800  0.8929 -1.8039
  819MOL0     H10519  10.591   3.491   8.873  0.3986 -0.9054  1.7468
  819MOL0     H10520  10.587   3.319   8.859  1.3318  2.1694  2.5824
  819MOL0     H10521  10.673   3.453   8.658 -0.4606  0.8094 -0.8922
  819MOL0     H10522  10.522   3.535   8.644  0.1042  0.3744  0.5589
  819MOL0     H10523  10.389   3.327   8.597 -0.1298 -4.9924 -0.1776
  819MOL0     H10524  10.537   3.238   8.614 -2.3587  0.1409  3.1774
  819MOL0     H10525  10.719   3.144   8.477  0.2465  1.0063 -0.5947
  819MOL0     H10526  10.788   3.006   8.321  0.3953  0.3864  0.7082
  819MOL0     H10527  10.702   2.789   7.842  0.9409 -1.5411 -0.9622
  819MOL0     H10528  10.794   2.701   7.632  2.5356  0.3399 -1.0539
  819MOL0     H10529  10.817   2.971   7.309  1.4013  1.2602  1.3907
  819MOL0     H10530  10.989   2.986   7.313  1.3826 -2.0359 -0.1969
  819MOL0     H10531  11.011   2.761   7.193 -0.0416  0.3988 -3.0669
  819MOL0     H10532  10.839   2.740   7.214  0.6927  0.3251 -0.6866
  819MOL0     H10533  10.872   2.803   7.007  0.6283  0.1025 -0.4306
  819MOL0     H10534  10.828   2.961   7.090  0.9407  0.7714  1.1303
  819MOL0     H10535  11.104   2.855   6.984 -0.7896 -0.6599  1.2836
  819MOL0     H10536  11.100   2.975   7.097 -1.1694  0.5236  0.6901
  819MOL0     H10537  11.127   3.051   6.856  1.0476 -0.0152 -0.0904
  819MOL0     H10538  11.000   3.134   6.934 -0.9339  0.2642 -1.5724
  819MOL0     H10539  10.826   2.990   6.832 -0.7049 -0.0291 -1.0276
  819MOL0     H10540  10.932   3.074   6.716  0.7928 -0.5839  0.0195
  819MOL0     H10541  10.845   2.821   6.683 -1.3205  3.7976 -0.6512
  819MOL0     H10542  10.968   2.775   6.791  0.5982  1.0269  0.4699
  819MOL0     H10543  11.017   2.956   6.551  2.0117 -0.9306 -1.7665
  819MOL0     H10544  11.140   2.882   6.652  0.2855 -2.4644  1.6411
  819MOL0     H10545  10.911   3.088   7.512  0.6072 -1.4153 -0.9223
  819MOL0     H10546  10.842   3.179   7.718  1.3197  1.2640 -4.2968
  819MOL0     H10547  10.508   3.177   8.033  2.8035 -3.1776 -1.3167
  819MOL0     H10548  10.430   3.335   8.194  0.1906  1.1317  3.2883
  819MOL0     H10549  10.544   2.766  10.031 -1.4066 -2.6663  0.9707
  819MOL0     H10550  10.715   2.745  10.204  1.7233  0.4235 -0.0233
  819MOL0     H10551  10.922   2.390  10.441  0.0374  1.8696  0.5731
  819MOL0     H10552  11.050   2.359  10.664  1.1128 -4.3972 -2.0092
  819MOL0     H10553  11.370   2.579  10.803  0.6315  0.7273 -2.3670
  819MOL0     H10554  11.470   2.469  10.700  0.9791 -0.5657  0.7369
  819MOL0     H10555  11.353   2.331  10.926 -0.2388  1.9908  0.8640
  819MOL0     H10556  11.449   2.465  10.977  2.2142  0.6445 -1.0178
  819MOL0     H10557  11.645   2.411  10.910 -1.4558  3.1972 -2.1868
  819MOL0     H10558  11.583   2.289  10.783  1.7516  0.8121 -0.2723
  819MOL0     H10559  11.520   2.261  11.087  1.1855 -1.3083  1.0509
  819MOL0     H10560  11.506   2.146  10.950  1.0806 -1.0897  0.1479
  819MOL0     H10561  11.884   2.069  11.101  0.7694  1.0750  0.7885
  819MOL0     H10562  11.382   2.576  10.498  0.6319 -0.8901 -2.0214
  819MOL0     H10563  11.198   2.764  10.306  1.0015  1.1002 -1.1774
  819MOL0     H10564  11.362   2.689  10.308 -0.3859  0.1490  2.9798
  819MOL0     H10565  11.239   2.654  10.178 -1.6869  1.1619  1.1404
  820MOL0     O10566   4.516   3.642   8.820 -0.0840  0.1206 -0.2135
  820MOL0     C10567   4.427   3.705   8.776 -0.2453  0.1992 -0.7432
  820MOL0     O10568   4.402   3.729   8.645  0.1683 -0.1461  0.1880
  820MOL0     C10569   4.485   3.671   8.553 -0.2900 -0.1928 -0.3088
  820MOL0     C10570   4.429   3.657   8.428 -0.5624  0.1064 -0.5143
  820MOL0     C10571   4.486   3.593   8.316  0.1545  0.2003 -0.2250
  820MOL0     C10572   4.615   3.540   8.336 -0.7812  0.6540 -0.9260
  820MOL0     O10573   4.687   3.463   8.245 -0.1956 -0.4556  0.5724
  820MOL0     C10574   4.698   3.508   8.108 -0.2240 -0.2535 -0.5174
  820MOL0     C10575   4.793   3.628   8.092 -0.4166 -0.2165 -0.0675
  820MOL0     C10576   4.936   3.591   8.085 -0.4196 -1.0042  0.2672
  820MOL0     C10577   5.028   3.695   8.150  0.3442  0.5958 -0.1102
  820MOL0     C10578   5.163   3.628   8.178 -0.4340 -0.0590 -0.1199
  820MOL0     C10579   5.254   3.726   8.251  0.1444  0.5680 -0.4075
  820MOL0     C10580   5.388   3.657   8.284 -0.1583 -0.5444  1.0745
  820MOL0     C10581   5.381   3.571   8.412 -0.1175 -0.3813 -0.4229
  820MOL0     N10582   5.517   3.514   8.435  0.5774 -0.0374 -0.0052
  820MOL0     C10583   5.592   3.432   8.347  0.9101 -0.5540 -1.1164
  820MOL0     C10584   5.710   3.421   8.404  0.3549  0.1036  0.4033
  820MOL0     C10585   5.835   3.355   8.364 -0.6755 -0.1813  0.1130
  820MOL0     C10586   5.826   3.231   8.283 -0.1136 -0.1634  1.2130
  820MOL0     C10587   5.772   3.104   8.350 -0.0799  0.5137  0.9362
  820MOL0     C10588   5.628   3.115   8.405 -0.6170  0.3356 -0.4957
  820MOL0     O10589   5.568   2.994   8.442  0.1611 -0.9115  0.2467
  820MOL0     C10590   5.603   2.921   8.548 -0.5178 -0.4503  0.4087
  820MOL0     C10591   5.514   2.812   8.579  0.4505  0.7364  0.5939
  820MOL0     C10592   5.547   2.719   8.678 -0.7879  0.4924 -0.4688
  820MOL0     C10593   5.662   2.730   8.759 -0.7586  0.4644 -0.6953
  820MOL0     C10594   5.693   2.628   8.861  0.3776  0.3635  0.0398
  820MOL0     O10595   5.778   2.671   8.961  0.3821 -0.0169  0.4932
  820MOL0     C10596   5.786   2.576   9.057  0.5356 -0.3515  0.4577
  820MOL0     C10597   5.883   2.477   9.048 -0.0259  0.1662  0.0297
  820MOL0     C10598   5.893   2.381   9.151  1.0430 -0.6242 -0.4261
  820MOL0     C10599   5.820   2.393   9.265  0.9475 -0.3515  0.8649
  820MOL0     O10600   5.836   2.307   9.366 -0.1831 -0.1866 -0.7963
  820MOL0     C10601   5.775   2.318   9.506 -0.7971 -0.2717 -0.5873
  820MOL0     C10602   5.893   2.312   9.613  0.6341 -0.6945  0.7701
  820MOL0     C10603   5.945   2.176   9.630  0.3929  0.6776  0.7899
  820MOL0     C10604   6.052   2.159   9.729 -0.9324 -0.6071  0.4946
  820MOL0     C10605   6.027   2.188   9.872  0.4696  0.3077 -1.4033
  820MOL0     C10606   6.144   2.138   9.966  0.2596  0.3081  0.3100
  820MOL0     C10607   6.175   2.233  10.090  0.0677  0.0653  0.1443
  820MOL0     C10608   6.202   2.375  10.039  0.2960 -0.1054  0.2139
  820MOL0    Cl10609   6.222   2.479  10.188  0.6920 -0.1350 -0.0373
  820MOL0     C10610   5.719   2.486   9.270  0.5601 -0.3734 -1.0720
  820MOL0     C10611   5.703   2.581   9.170  0.0099  0.5825  0.2048
  820MOL0     O10612   5.618   2.528   8.866  0.4883  0.6736 -0.1670
  820MOL0     C10613   5.741   2.843   8.741 -0.0295  0.5766 -0.4950
  820MOL0     C10614   5.712   2.930   8.634  0.0868 -0.0431 -0.0907
  820MOL0     N10615   5.712   3.498   8.516  0.2123  0.8147  0.0991
  820MOL0     N10616   5.600   3.558   8.538  0.5500  0.7364  0.1558
  820MOL0     C10617   4.691   3.575   8.446  0.4593  0.5853  0.0854
  820MOL0     C10618   4.625   3.634   8.555  0.2086  0.0702 -0.3322
  820MOL0     C10619   4.347   3.787   8.886  0.2811  0.3963 -0.0714
  820MOL0     C10620   4.344   3.732   9.020 -1.2009  0.2348  0.4409
  820MOL0     C10621   4.286   3.811   9.129  0.2308  0.0452  0.5958
  820MOL0     C10622   4.213   3.925   9.095 -0.0937  0.2999  0.7574
  820MOL0     O10623   4.155   4.014   9.184  0.4601 -0.0923  0.7143
  820MOL0     C10624   4.154   3.993   9.323 -0.4190 -0.5458 -0.5292
  820MOL0     C10625   4.096   4.118   9.392 -0.1804  0.2212 -0.7595
  820MOL0     C10626   3.951   4.148   9.351 -0.6540  1.2976  0.4532
  820MOL0     C10627   3.894   4.281   9.393  0.5739  0.6262 -0.2121
  820MOL0     C10628   3.902   4.304   9.536 -0.0148  0.2582 -0.3266
  820MOL0     C10629   3.888   4.308   9.656  0.3645  0.5995 -0.5090
  820MOL0     C10630   4.211   3.969   8.966  0.3369  0.4075 -1.0344
  820MOL0     C10631   4.279   3.910   8.856 -0.2210 -0.5886 -0.3770
  820MOL0     C10632   4.293   3.991   8.737  0.3173  0.6602  0.6232
  820MOL0     H10633   4.325   3.685   8.412 -1.4808 -2.2001  0.8138
  820MOL0     H10634   4.429   3.564   8.228 -2.9665  1.6643  1.1687
  820MOL0     H10635   4.739   3.427   8.048 -1.9724 -0.6656 -1.2032
  820MOL0     H10636   4.603   3.518   8.056 -0.4501 -0.2397 -0.1053
  820MOL0     H10637   4.777   3.702   8.171  2.2090 -1.5655  1.8919
  820MOL0     H10638   4.771   3.672   7.994 -2.8436 -2.0897 -0.4732
  820MOL0     H10639   4.966   3.580   7.981 -1.1431 -2.3900  0.1811
  820MOL0     H10640   4.952   3.491   8.126  1.4223 -0.4924  0.9032
  820MOL0     H10641   5.034   3.789   8.095 -1.5903 -0.4443 -2.3183
  820MOL0     H10642   4.994   3.714   8.252  0.8585 -1.5383  0.5054
  820MOL0     H10643   5.136   3.544   8.243 -3.0425  0.8426  0.0668
  820MOL0     H10644   5.209   3.599   8.083 -1.1868 -1.0811 -0.1883
  820MOL0     H10645   5.262   3.820   8.197 -0.3211  0.6181 -0.3952
  820MOL0     H10646   5.211   3.755   8.348 -1.9502  1.0007 -1.4152
  820MOL0     H10647   5.466   3.734   8.291 -0.7356  0.2011 -0.2261
  820MOL0     H10648   5.430   3.599   8.201 -2.4386 -1.2025  0.3155
  820MOL0     H10649   5.356   3.641   8.492 -0.4780 -0.3005 -0.6089
  820MOL0     H10650   5.307   3.491   8.413  2.8542 -3.5537  3.1840
  820MOL0     H10651   5.555   3.389   8.254 -2.5520 -1.2984  0.4786
  820MOL0     H10652   5.901   3.428   8.317 -1.8775  2.0458  1.6733
  820MOL0     H10653   5.873   3.325   8.462 -3.6668 -2.8366  0.6308
  820MOL0     H10654   5.781   3.251   8.185  1.3193  0.5307  0.6762
  820MOL0     H10655   5.923   3.199   8.245 -1.2833  0.3351 -2.5984
  820MOL0     H10656   5.842   3.086   8.432  1.8715  2.3681 -0.2286
  820MOL0     H10657   5.796   3.033   8.271  4.5608  2.9194 -0.1541
  820MOL0     H10658   5.565   3.157   8.326 -1.6151 -0.3351 -0.0699
  820MOL0     H10659   5.628   3.187   8.487  0.9704  2.2523 -2.0883
  820MOL0     H10660   5.417   2.800   8.533 -0.1852  4.4725  0.6227
  820MOL0     H10661   5.473   2.640   8.687 -0.7195  0.0544 -3.0262
  820MOL0     H10662   5.934   2.479   8.953 -2.1860 -1.1137 -1.2534
  820MOL0     H10663   5.969   2.305   9.140  1.8530  0.0394  0.3795
  820MOL0     H10664   5.730   2.417   9.515  0.8628  0.3587  1.8369
  820MOL0     H10665   5.698   2.241   9.518 -1.7496  0.5897 -1.0534
  820MOL0     H10666   5.974   2.379   9.582 -1.4201  2.3004  1.3933
  820MOL0     H10667   5.853   2.354   9.706 -0.7591 -0.4373  0.0813
  820MOL0     H10668   5.872   2.095   9.638  0.3803  0.7074  0.9720
  820MOL0     H10669   5.999   2.158   9.537 -2.8064 -0.4570 -0.9997
  820MOL0     H10670   6.134   2.228   9.707  0.7676 -1.8610  2.4689
  820MOL0     H10671   6.103   2.063   9.719  0.1694 -0.3888  3.2296
  820MOL0     H10672   5.936   2.139   9.909  0.2059  1.6057 -0.2168
  820MOL0     H10673   6.007   2.295   9.885  1.1967  0.3594 -0.6072
  820MOL0     H10674   6.151   2.037  10.008 -0.2179 -0.4893 -1.4536
  820MOL0     H10675   6.229   2.150   9.898 -0.2794 -1.0639 -0.6483
  820MOL0     H10676   6.257   2.186  10.144 -0.1505 -0.7589 -0.2220
  820MOL0     H10677   6.090   2.237  10.159  0.1427 -0.8782  0.3122
  820MOL0     H10678   6.295   2.383   9.981  1.1005  3.4627  1.7324
  820MOL0     H10679   6.123   2.419   9.976  3.2746  1.0480 -3.0286
  820MOL0     H10680   5.654   2.504   9.356 -0.3917  0.1936 -1.8903
  820MOL0     H10681   5.627   2.655   9.195  2.9127  3.0517  2.4679
  820MOL0     H10682   5.822   2.872   8.808  1.3811  0.5098 -2.1176
  820MOL0     H10683   5.778   3.016   8.627 -0.3696  0.5694  2.2100
  820MOL0     H10684   4.795   3.548   8.460  0.6629  2.3289  2.9555
  820MOL0     H10685   4.677   3.661   8.646 -0.9028  2.2203 -0.2675
  820MOL0     H10686   4.416   3.651   9.032 -1.2462  0.3650  1.6633
  820MOL0     H10687   4.284   3.788   9.235 -1.6016  1.9141  1.0380
  820MOL0     H10688   4.253   3.988   9.369 -0.6765 -0.2295  0.0765
  820MOL0     H10689   4.095   3.905   9.350  0.0995 -0.5629  0.6265
  820MOL0     H10690   4.160   4.198   9.354 -0.2356 -0.6316 -2.7865
  820MOL0     H10691   4.096   4.093   9.498 -2.1822 -3.5235 -1.4591
  820MOL0     H10692   3.870   4.081   9.383  2.7567 -4.6382 -1.8251
  820MOL0     H10693   3.943   4.139   9.242 -1.0370  1.5601  0.4574
  820MOL0     H10694   3.939   4.368   9.344  0.2335 -0.3136 -2.2908
  820MOL0     H10695   3.787   4.274   9.369  1.0113 -1.6403 -1.7912
  820MOL0     H10696   3.859   4.292   9.758 -1.4251 -3.8611 -1.4906
  820MOL0     H10697   4.155   4.061   8.954 -1.3476 -0.7062 -2.3848
  820MOL0     H10698   4.396   4.011   8.706  0.2668 -0.1422 -0.1089
  820MOL0     H10699   4.247   3.944   8.650 -1.4938  1.3707  1.1586
  820MOL0     H10700   4.235   4.082   8.753 -0.4174  0.2138  0.5562
  821MOL0     O10701   2.534   6.684   5.971  1.0188 -0.5878  0.0041
  821MOL0     C10702   2.432   6.741   6.021  0.0719  0.5726 -0.1570
  821MOL0     O10703   2.421   6.782   6.152 -0.2016 -1.3262 -0.4000
  821MOL0     C10704   2.538   6.762   6.226 -0.0589 -0.7109 -0.5836
  821MOL0     C10705   2.649   6.851   6.224 -1.0715  0.0202 -0.3639
  821MOL0     C10706   2.750   6.830   6.316 -1.9917  0.4381  0.4043
  821MOL0     C10707   2.757   6.726   6.402  0.5992 -0.6729 -0.2033
  821MOL0     O10708   2.867   6.721   6.480  0.0244  0.5304  0.2652
  821MOL0     C10709   2.867   6.648   6.602  0.3444 -0.3606 -0.9871
  821MOL0     C10710   2.969   6.714   6.694  0.6558  0.3330 -1.0266
  821MOL0     C10711   2.941   6.859   6.711  0.0132  0.2502  0.2918
  821MOL0     C10712   3.072   6.930   6.705 -0.3329  0.5629  0.5736
  821MOL0     C10713   3.036   7.079   6.730 -0.8912  0.2517  0.6926
  821MOL0     C10714   3.156   7.166   6.692  0.5071  0.6648 -0.8649
  821MOL0     C10715   3.298   7.120   6.737  0.6586 -0.2441  0.7208
  821MOL0     C10716   3.411   7.217   6.713 -0.1303 -0.6231  0.0176
  821MOL0     N10717   3.492   7.255   6.838  0.2483 -1.5762 -0.1316
  821MOL0     C10718   3.559   7.372   6.859 -1.1680  0.4480  0.4851
  821MOL0     C10719   3.645   7.349   6.958  0.3076 -0.4732  0.7088
  821MOL0     C10720   3.739   7.436   7.032  0.1460  0.1474 -0.2755
  821MOL0     C10721   3.680   7.487   7.165  0.9904  0.6711  0.8041
  821MOL0     C10722   3.774   7.578   7.246  0.2288 -0.2813  0.2786
  821MOL0     C10723   3.913   7.525   7.276  0.0968  0.0309  0.7575
  821MOL0     O10724   3.907   7.391   7.325 -0.9456 -0.0749 -0.4428
  821MOL0     C10725   4.018   7.310   7.296  0.4687  0.5843  0.7172
  821MOL0     C10726   4.155   7.351   7.297 -0.8593  0.0336 -0.0764
  821MOL0     C10727   4.253   7.257   7.247  0.9410 -0.2649 -0.4683
  821MOL0     C10728   4.215   7.127   7.221 -0.1780  0.1367  0.6904
  821MOL0     C10729   4.320   7.027   7.185 -1.8395  0.0269  0.4722
  821MOL0     O10730   4.274   6.913   7.125  0.8329  1.1957  0.1806
  821MOL0     C10731   4.356   6.822   7.059 -1.2064 -0.6443  0.5927
  821MOL0     C10732   4.497   6.858   7.013  0.2117  0.2752 -0.4111
  821MOL0     C10733   4.581   6.764   6.949 -0.9674 -0.3548 -0.1944
  821MOL0     C10734   4.537   6.628   6.954  0.1605  0.7992  0.0918
  821MOL0     O10735   4.619   6.540   6.895 -0.3648  0.0583  0.0811
  821MOL0     C10736   4.657   6.424   6.974  0.6701  0.3236  0.0512
  821MOL0     C10737   4.786   6.363   6.909  0.4189 -0.1407  0.2628
  821MOL0     C10738   4.813   6.224   6.972  0.7969  0.4344 -0.6343
  821MOL0     C10739   4.918   6.152   6.889  0.3530 -0.0158 -0.2591
  821MOL0     C10740   4.869   6.057   6.779  0.0336  0.2182  0.7035
  821MOL0     C10741   4.854   5.908   6.823 -0.0511  0.1772  0.4829
  821MOL0     C10742   4.807   5.823   6.699  0.1440 -0.4182  0.5973
  821MOL0     C10743   4.867   5.677   6.697  0.5118 -0.4199 -0.7396
  821MOL0    Cl10744   5.059   5.674   6.711 -0.2360  0.3305 -0.3142
  821MOL0     C10745   4.410   6.594   7.002  0.2552  0.2052 -0.4199
  821MOL0     C10746   4.321   6.682   7.050  0.0934 -0.7766 -1.5778
  821MOL0     O10747   4.439   7.057   7.217 -1.2338  0.2130 -0.0641
  821MOL0     C10748   4.080   7.090   7.222  0.3556  0.0617  0.3771
  821MOL0     C10749   3.980   7.179   7.249  0.7786 -0.6752 -1.3014
  821MOL0     N10750   3.618   7.221   7.001 -0.3285  0.0543  0.2163
  821MOL0     N10751   3.523   7.172   6.933  1.0903  0.6687 -0.2083
  821MOL0     C10752   2.657   6.627   6.389  1.3899 -0.4137 -0.5224
  821MOL0     C10753   2.545   6.642   6.301  0.6218  0.8492  0.3881
  821MOL0     C10754   2.310   6.747   5.938 -0.5616 -0.6051 -0.1424
  821MOL0     C10755   2.289   6.645   5.841 -0.0047 -1.2381 -0.8196
  821MOL0     C10756   2.180   6.634   5.753  0.3716  0.2498  0.5348
  821MOL0     C10757   2.091   6.745   5.756  0.9778 -0.0538 -0.1823
  821MOL0     O10758   1.985   6.749   5.670 -0.2682 -0.6267  0.0561
  821MOL0     C10759   1.926   6.875   5.628 -0.1115 -0.2078 -0.2841
  821MOL0     C10760   2.016   6.932   5.518  0.0215  0.4712  0.6992
  821MOL0     C10761   2.080   7.074   5.548  0.3932  0.7162 -0.2706
  821MOL0     C10762   2.180   7.141   5.443  0.4573 -0.1793 -0.2779
  821MOL0     C10763   2.123   7.181   5.313  0.2998  0.1113 -0.7840
  821MOL0     C10764   2.078   7.185   5.204 -0.7452  0.0548 -0.1002
  821MOL0     C10765   2.108   6.845   5.850  0.2179  0.5847  0.1334
  821MOL0     C10766   2.208   6.848   5.946  0.4113  0.1085  0.0196
  821MOL0     C10767   2.194   6.977   6.038 -0.0784  0.0441 -0.3399
  821MOL0     H10768   2.660   6.947   6.175  3.6238  0.8893  1.7971
  821MOL0     H10769   2.832   6.901   6.320 -0.0722 -1.4825 -1.9727
  821MOL0     H10770   2.763   6.648   6.635 -0.6915  1.1526 -3.8752
  821MOL0     H10771   2.904   6.546   6.591 -0.6182 -0.7206 -0.9766
  821MOL0     H10772   3.065   6.706   6.641  1.5735 -0.6872  0.6821
  821MOL0     H10773   2.957   6.664   6.790  3.3555 -0.0283 -0.7920
  821MOL0     H10774   2.893   6.874   6.808 -3.2120 -1.0050 -0.9550
  821MOL0     H10775   2.862   6.888   6.641 -0.3340 -2.9760 -0.8254
  821MOL0     H10776   3.144   6.903   6.782  0.0999  2.4417  0.8813
  821MOL0     H10777   3.104   6.930   6.601 -1.4407  2.8803  0.1706
  821MOL0     H10778   2.957   7.108   6.660  1.9828  0.9344 -2.5527
  821MOL0     H10779   3.006   7.098   6.833  1.6302 -1.5024  1.8511
  821MOL0     H10780   3.160   7.167   6.582 -0.2400 -2.0923 -1.0003
  821MOL0     H10781   3.127   7.266   6.724 -0.0860  0.6252 -1.2672
  821MOL0     H10782   3.331   7.034   6.678  1.2553  1.3520 -1.3758
  821MOL0     H10783   3.287   7.092   6.842 -1.1518  0.7512  0.8266
  821MOL0     H10784   3.485   7.171   6.646  0.9101 -1.5006  1.6705
  821MOL0     H10785   3.371   7.311   6.675  1.6535 -0.0673 -0.5835
  821MOL0     H10786   3.565   7.470   6.811  0.8717 -0.5278 -1.4774
  821MOL0     H10787   3.829   7.378   7.054  1.9354  2.8499 -0.0608
  821MOL0     H10788   3.764   7.529   6.981 -2.2371  1.5149  0.8391
  821MOL0     H10789   3.587   7.537   7.138 -0.0505 -2.8168 -3.0156
  821MOL0     H10790   3.644   7.401   7.223 -3.8708  0.7684 -1.6533
  821MOL0     H10791   3.715   7.596   7.337 -1.2072  0.4386 -0.7611
  821MOL0     H10792   3.779   7.671   7.189  1.5729 -1.6820 -2.0336
  821MOL0     H10793   3.968   7.577   7.355  0.6278  1.0749 -0.2712
  821MOL0     H10794   3.964   7.530   7.179 -0.6940 -1.2018  0.2567
  821MOL0     H10795   4.181   7.452   7.328 -2.8858 -0.1121  2.4207
  821MOL0     H10796   4.357   7.286   7.233  0.4025  2.0102 -0.0468
  821MOL0     H10797   4.525   6.963   7.022 -0.7506  0.3520  2.8656
  821MOL0     H10798   4.680   6.786   6.913  0.0304 -1.0325  1.9337
  821MOL0     H10799   4.661   6.458   7.078 -1.5506  2.1393 -0.3695
  821MOL0     H10800   4.576   6.352   6.962  0.9334 -0.1973  1.2945
  821MOL0     H10801   4.773   6.346   6.802  0.4809  0.2499  0.1936
  821MOL0     H10802   4.870   6.430   6.928  0.4325 -0.7162  2.6121
  821MOL0     H10803   4.847   6.232   7.076 -0.6033 -0.2093 -0.1075
  821MOL0     H10804   4.721   6.166   6.981  0.8465  0.4274 -0.1353
  821MOL0     H10805   4.982   6.099   6.960 -4.0266 -0.2175  4.0144
  821MOL0     H10806   4.974   6.230   6.835 -0.7960  1.9083  1.1996
  821MOL0     H10807   4.946   6.058   6.701  0.0924 -1.0632  0.7257
  821MOL0     H10808   4.775   6.094   6.738 -0.3602 -2.1608 -0.7641
  821MOL0     H10809   4.947   5.866   6.864 -1.4459 -0.9348  2.7134
  821MOL0     H10810   4.785   5.899   6.907 -0.5283  0.0524  0.0811
  821MOL0     H10811   4.840   5.864   6.604  0.6611 -1.9703  0.0792
  821MOL0     H10812   4.698   5.821   6.702  0.0929  1.2019  1.0813
  821MOL0     H10813   4.814   5.641   6.786 -2.3510  1.2582 -1.6386
  821MOL0     H10814   4.831   5.609   6.619 -2.1855  0.3206 -0.2528
  821MOL0     H10815   4.371   6.494   6.990 -0.7120  0.7033 -1.7413
  821MOL0     H10816   4.220   6.652   7.076  1.0434 -3.2127 -0.3735
  821MOL0     H10817   4.052   6.996   7.177  2.1649 -1.0043  1.3392
  821MOL0     H10818   3.874   7.156   7.238  0.0778  0.9459  1.1755
  821MOL0     H10819   2.666   6.536   6.448  0.1884  0.7231  1.5665
  821MOL0     H10820   2.463   6.571   6.299  0.0845  1.4550 -2.0801
  821MOL0     H10821   2.371   6.574   5.838  3.9139  2.8506 -0.8099
  821MOL0     H10822   2.161   6.544   5.696 -1.3515  0.5004  0.6595
  821MOL0     H10823   1.896   6.945   5.706 -2.1791  0.5002 -1.6217
  821MOL0     H10824   1.831   6.845   5.582 -0.1694 -4.9261  2.2964
  821MOL0     H10825   1.961   6.959   5.427  0.7383  0.4837  0.2620
  821MOL0     H10826   2.092   6.859   5.491 -0.9995 -0.0258 -0.9888
  821MOL0     H10827   2.134   7.060   5.642  1.7453 -2.2739 -1.3521
  821MOL0     H10828   2.002   7.147   5.568 -0.8579 -0.3788 -0.9965
  821MOL0     H10829   2.213   7.229   5.499  0.3847  0.5452 -1.3369
  821MOL0     H10830   2.262   7.070   5.431  1.8631  1.0100  1.6891
  821MOL0     H10831   2.034   7.206   5.109 -3.3277 -0.1530  0.9775
  821MOL0     H10832   2.037   6.927   5.853 -2.7745 -1.7957  0.9066
  821MOL0     H10833   2.272   6.985   6.114  1.2548 -1.2960 -1.5131
  821MOL0     H10834   2.199   7.049   5.956 -1.0604 -0.2235 -0.6513
  821MOL0     H10835   2.092   6.977   6.078 -0.5049 -1.0270 -1.3712
  822MOL0     O10836   0.179   3.822   4.884 -0.4169  0.2515 -0.2551
  822MOL0     C10837   0.166   3.928   4.820 -0.1901  0.0895  0.0180
  822MOL0     O10838   0.170   3.939   4.684  0.3553  0.0915  0.1047
  822MOL0     C10839   0.195   3.822   4.619 -0.1915  0.0671 -1.0434
  822MOL0     C10840   0.322   3.786   4.577  0.2642  0.0345  0.0644
  822MOL0     C10841   0.336   3.670   4.501 -0.3498  0.4956 -0.8301
  822MOL0     C10842   0.228   3.585   4.466 -0.7761 -0.1053  0.4292
  822MOL0     O10843   0.242   3.466   4.395 -0.2004  1.2183  0.2097
  822MOL0     C10844   0.361   3.394   4.428  0.2548  0.0861 -0.4354
  822MOL0     C10845   0.354   3.254   4.361 -0.7135  0.0809 -2.1266
  822MOL0     C10846   0.357   3.234   4.206  0.4771  0.6598 -1.0597
  822MOL0     C10847   0.342   3.083   4.171 -0.1223  0.0963  0.2938
  822MOL0     C10848   0.431   2.975   4.238 -0.2125  0.3307 -0.0170
  822MOL0     C10849   0.579   2.986   4.226 -0.1765 -0.9096  0.2396
  822MOL0     C10850   0.628   3.001   4.087 -0.2844 -0.7437 -0.0108
  822MOL0     C10851   0.781   2.966   4.076  0.1430  0.0472  0.1231
  822MOL0     N10852   0.842   3.030   3.965 -1.0473 -0.4260  0.4500
  822MOL0     C10853   0.849   2.980   3.836  0.6763 -0.4582  0.0905
  822MOL0     C10854   0.916   3.077   3.765  0.8640 -0.3034  0.0937
  822MOL0     C10855   0.970   3.078   3.638 -0.1133 -0.3280  0.1795
  822MOL0     C10856   1.049   2.958   3.612 -0.2912  0.5053  0.4616
  822MOL0     C10857   1.062   2.928   3.462  0.2811  0.3804 -0.0989
  822MOL0     C10858   1.132   3.029   3.364 -0.8978  0.5507 -0.2522
  822MOL0     O10859   1.272   3.025   3.385  0.0917 -0.7173 -0.3823
  822MOL0     C10860   1.332   3.132   3.319  0.2258  0.1711  0.4891
  822MOL0     C10861   1.449   3.171   3.362 -0.3348  0.2729  0.0803
  822MOL0     C10862   1.518   3.284   3.302  0.7098  0.1612 -0.1158
  822MOL0     C10863   1.461   3.345   3.189 -0.3709  0.1956 -0.1646
  822MOL0     C10864   1.526   3.464   3.119 -0.6363  0.0171 -0.8059
  822MOL0     O10865   1.472   3.481   2.991 -0.0414  0.0133  0.3478
  822MOL0     C10866   1.524   3.581   2.913  0.9182 -0.0275  0.2699
  822MOL0     C10867   1.536   3.567   2.779  0.3759  0.9352 -0.7001
  822MOL0     C10868   1.580   3.668   2.692 -0.3498  0.2502  0.1309
  822MOL0     C10869   1.613   3.797   2.744  1.3992  0.3163  0.3781
  822MOL0     O10870   1.646   3.905   2.655  0.5695  0.4343 -0.5332
  822MOL0     C10871   1.714   4.017   2.716 -0.3743 -0.3101 -0.2027
  822MOL0     C10872   1.718   4.123   2.612 -0.4039 -0.4683 -0.8663
  822MOL0     C10873   1.774   4.081   2.474 -0.0461  0.6196 -0.2147
  822MOL0     C10874   1.763   4.193   2.373  0.0860  0.8012 -0.2400
  822MOL0     C10875   1.636   4.181   2.280 -0.5744 -0.2224 -0.4929
  822MOL0     C10876   1.608   4.315   2.197  0.6638 -0.6882 -0.4771
  822MOL0     C10877   1.702   4.328   2.076  0.1355 -0.1321 -1.7196
  822MOL0     C10878   1.714   4.472   2.029 -0.0479  0.4218  0.1731
  822MOL0    Cl10879   1.834   4.571   2.127  0.7727  0.1139 -0.1317
  822MOL0     C10880   1.615   3.807   2.885 -0.2006  0.1448  0.0934
  822MOL0     C10881   1.572   3.703   2.971  1.0168 -0.0418  0.0344
  822MOL0     O10882   1.608   3.532   3.176  0.3637 -0.4131 -0.7058
  822MOL0     C10883   1.339   3.297   3.143  0.3233 -0.2556  0.5024
  822MOL0     C10884   1.277   3.193   3.204  0.3331 -0.4254 -0.2374
  822MOL0     N10885   0.951   3.184   3.854 -0.2515 -0.2927 -0.3569
  822MOL0     N10886   0.894   3.156   3.971 -0.2430  0.8825  0.2959
  822MOL0     C10887   0.106   3.618   4.527 -0.8677  0.6637 -0.4983
  822MOL0     C10888   0.089   3.739   4.596  0.2132  0.8673  1.2952
  822MOL0     C10889   0.154   4.048   4.890 -0.1869  0.0485 -0.6176
  822MOL0     C10890   0.038   4.122   4.893 -0.3281  0.9578  0.1624
  822MOL0     C10891   0.030   4.250   4.939 -0.3538 -0.5106  0.2399
  822MOL0     C10892   0.144   4.311   4.983  0.1665 -1.2840  0.2833
  822MOL0     O10893   0.130   4.441   5.025 -0.2491  0.1280 -0.4496
  822MOL0     C10894   0.152   4.461   5.162  0.7790 -0.0223 -0.1589
  822MOL0     C10895   0.081   4.589   5.203 -0.1104 -0.4465 -0.4508
  822MOL0     C10896  -0.069   4.561   5.239 -0.3863  0.0174  0.6129
  822MOL0     C10897  -0.144   4.689   5.262  0.0126  0.1570 -0.6644
  822MOL0     C10898  -0.288   4.660   5.294 -0.3978  0.4736 -0.8104
  822MOL0     C10899  -0.394   4.616   5.312  1.0088  0.0492 -0.0489
  822MOL0     C10900   0.266   4.242   4.990  1.1275 -0.1371 -0.4891
  822MOL0     C10901   0.271   4.116   4.932  0.3131 -0.5033 -0.0761
  822MOL0     C10902   0.405   4.051   4.922 -0.0113  0.0694  0.9552
  822MOL0     H10903   0.404   3.856   4.592 -0.5349  0.6897  1.5392
  822MOL0     H10904   0.432   3.637   4.462 -1.1408 -2.1403 -0.7620
  822MOL0     H10905   0.442   3.451   4.382 -2.5295  2.9639 -2.1560
  822MOL0     H10906   0.381   3.381   4.535 -0.2268 -0.4379 -0.4034
  822MOL0     H10907   0.259   3.217   4.401  0.6697  0.1983  1.5932
  822MOL0     H10908   0.427   3.191   4.413 -0.5163  0.6541 -1.7013
  822MOL0     H10909   0.450   3.266   4.160  0.4650 -0.9788 -2.3075
  822MOL0     H10910   0.269   3.283   4.163  1.7132  2.2126 -1.9059
  822MOL0     H10911   0.240   3.047   4.183  0.4483 -1.3766  0.9661
  822MOL0     H10912   0.374   3.083   4.067  0.1311  1.1131  0.3586
  822MOL0     H10913   0.409   2.981   4.345 -0.7057  0.8147 -0.1394
  822MOL0     H10914   0.404   2.876   4.199 -0.5493  1.2643 -2.3296
  822MOL0     H10915   0.628   3.069   4.278 -0.3726  0.4654 -1.6870
  822MOL0     H10916   0.629   2.896   4.262  1.0657 -0.8623 -1.2413
  822MOL0     H10917   0.610   3.103   4.051  0.2681  0.6386  3.2942
  822MOL0     H10918   0.585   2.933   4.012  2.3124 -3.2168  0.5606
  822MOL0     H10919   0.816   3.001   4.174 -3.5773  0.6766  1.4033
  822MOL0     H10920   0.797   2.859   4.065  0.8446  0.3393 -2.2291
  822MOL0     H10921   0.809   2.882   3.811 -2.0782  0.3255  1.0469
  822MOL0     H10922   0.901   3.093   3.554  1.4322 -1.0896 -1.3025
  822MOL0     H10923   1.036   3.165   3.645 -0.2212 -0.2509  0.2412
  822MOL0     H10924   1.148   2.983   3.650 -0.5329  0.9523  0.8046
  822MOL0     H10925   1.011   2.877   3.675  0.2328 -0.3839 -0.3439
  822MOL0     H10926   0.961   2.919   3.421  0.7374  1.6874 -1.6318
  822MOL0     H10927   1.102   2.827   3.449 -0.9314 -0.0435 -0.6287
  822MOL0     H10928   1.095   3.131   3.379 -0.1795  0.9256 -0.9389
  822MOL0     H10929   1.114   2.997   3.260  2.5397  0.6816 -1.0140
  822MOL0     H10930   1.503   3.112   3.435 -3.2590  0.1263  2.3186
  822MOL0     H10931   1.606   3.319   3.355  0.4295  0.6233  0.0486
  822MOL0     H10932   1.510   3.468   2.743 -0.1332 -0.7469  3.6650
  822MOL0     H10933   1.586   3.660   2.584 -4.3794 -0.5295 -0.1784
  822MOL0     H10934   1.674   4.059   2.809  1.7039 -1.2664  1.2041
  822MOL0     H10935   1.819   3.995   2.738 -0.1181  2.8890  2.7150
  822MOL0     H10936   1.615   4.155   2.595 -0.2143  0.9660  0.5431
  822MOL0     H10937   1.787   4.200   2.647  1.3511 -1.5029 -1.8913
  822MOL0     H10938   1.880   4.057   2.480 -0.0659  0.6926  0.5260
  822MOL0     H10939   1.724   3.991   2.438 -1.0462  1.2004 -0.3025
  822MOL0     H10940   1.850   4.186   2.307 -0.3232  2.4054 -0.9761
  822MOL0     H10941   1.770   4.289   2.424  0.9494  1.6109 -1.8265
  822MOL0     H10942   1.551   4.158   2.345 -1.6211  0.4162 -1.5966
  822MOL0     H10943   1.642   4.093   2.215  0.0277 -0.3789 -0.2288
  822MOL0     H10944   1.505   4.306   2.162  0.7630 -0.3113 -0.8733
  822MOL0     H10945   1.601   4.399   2.267 -4.3822 -0.7339 -0.5631
  822MOL0     H10946   1.667   4.270   1.989 -1.6064 -0.0683 -1.1032
  822MOL0     H10947   1.808   4.311   2.099  0.8179  0.9966 -3.7309
  822MOL0     H10948   1.746   4.481   1.924 -4.2049  2.7652 -1.1216
  822MOL0     H10949   1.618   4.522   2.038 -0.5873 -0.5131 -0.2453
  822MOL0     H10950   1.656   3.894   2.936  0.4951  0.9824 -1.7965
  822MOL0     H10951   1.580   3.725   3.077 -1.5243  2.2133 -0.1370
  822MOL0     H10952   1.287   3.348   3.061 -1.2987  0.9819  2.2024
  822MOL0     H10953   1.184   3.160   3.159 -2.6696  0.4828  4.5437
  822MOL0     H10954   0.025   3.547   4.513 -0.5429  0.9288 -5.4217
  822MOL0     H10955  -0.007   3.774   4.633 -0.0590  0.4197  1.0147
  822MOL0     H10956  -0.051   4.079   4.849 -0.5904  0.8497  0.7849
  822MOL0     H10957  -0.062   4.307   4.929 -0.6317 -1.2655 -2.4119
  822MOL0     H10958   0.260   4.470   5.176  0.8599 -2.7933  1.9364
  822MOL0     H10959   0.111   4.372   5.212 -2.4652 -0.1751 -2.6986
  822MOL0     H10960   0.112   4.656   5.123  0.4027  1.4636  1.2827
  822MOL0     H10961   0.128   4.632   5.292 -2.4917 -0.1165  0.7468
  822MOL0     H10962  -0.066   4.498   5.329  0.0942  1.6348  1.7826
  822MOL0     H10963  -0.113   4.504   5.157 -0.2793  2.1752 -1.0256
  822MOL0     H10964  -0.102   4.743   5.347 -2.8604  4.5625 -1.6646
  822MOL0     H10965  -0.133   4.756   5.177 -0.7074 -0.0545 -0.9353
  822MOL0     H10966  -0.495   4.583   5.331  1.0659 -1.8408 -2.5069
  822MOL0     H10967   0.354   4.295   5.025  0.7712  1.2895 -1.6302
  822MOL0     H10968   0.416   3.959   4.981  2.0590  2.3516  4.4912
  822MOL0     H10969   0.425   4.050   4.814 -0.3092  3.3531  0.7734
  822MOL0     H10970   0.475   4.121   4.969 -1.6436  1.0986  1.9205
  823MOL0     O10971   7.284  10.666  10.097  0.2509  0.3772  0.4963
  823MOL0     C10972   7.192  10.582  10.126  0.3829  1.0564  0.1545
  823MOL0     O10973   7.213  10.466  10.200  0.8001 -0.4250 -0.1632
  823MOL0     C10974   7.339  10.444  10.233  1.3554 -0.0558  1.0205
  823MOL0     C10975   7.400  10.526  10.331  0.2590  0.4148  0.3209
  823MOL0     C10976   7.532  10.498  10.377 -0.1725  0.5214  0.5306
  823MOL0     C10977   7.596  10.381  10.322  0.2307 -0.6503 -0.0577
  823MOL0     O10978   7.722  10.371  10.375  0.6485  0.2350 -0.0108
  823MOL0     C10979   7.830  10.339  10.283 -0.2121  0.2743  0.0742
  823MOL0     C10980   7.950  10.318  10.364 -0.1842  0.1177 -0.1917
  823MOL0     C10981   8.061  10.236  10.288 -0.2558  0.1098 -0.4934
  823MOL0     C10982   8.194  10.228  10.372  0.2957 -0.7168 -0.2126
  823MOL0     C10983   8.305  10.158  10.286  0.6319  0.4087  0.5133
  823MOL0     C10984   8.443  10.132  10.346 -0.8140  0.2197  0.0656
  823MOL0     C10985   8.541  10.054  10.256  0.6797  0.1175 -0.0029
  823MOL0     C10986   8.688  10.072  10.307  1.0304 -0.1017 -0.0472
  823MOL0     N10987   8.782  10.037  10.199  0.3951  0.5161 -1.1430
  823MOL0     C10988   8.770  10.073  10.067 -0.1860 -0.3034  0.1153
  823MOL0     C10989   8.883  10.018  10.011 -0.5286  0.4155 -0.9625
  823MOL0     C10990   8.924  10.026   9.872 -0.7941 -0.0808  0.0762
  823MOL0     C10991   9.036  10.126   9.858 -0.2610 -0.2051  0.6940
  823MOL0     C10992   9.081  10.138   9.713 -0.5200 -0.2728  0.2795
  823MOL0     C10993   9.211  10.217   9.691 -0.6021 -0.2740 -0.2672
  823MOL0     O10994   9.319  10.189   9.780  0.0289 -0.3931 -0.3155
  823MOL0     C10995   9.436  10.121   9.736  0.5510  0.8733  0.0442
  823MOL0     C10996   9.514  10.053   9.831  0.0002 -0.1610 -0.8289
  823MOL0     C10997   9.648  10.007   9.797 -1.3320 -0.8115  0.1330
  823MOL0     C10998   9.701  10.024   9.674  0.2713 -0.0417  0.6681
  823MOL0     C10999   9.828   9.957   9.627  0.5894 -0.5488  1.2119
  823MOL0     O11000   9.902   9.886   9.720  0.2704  0.2851 -1.0787
  823MOL0     C11001  10.014   9.809   9.680 -0.1054 -0.1592 -0.1620
  823MOL0     C11002  10.095   9.820   9.560 -0.0620 -0.5238 -1.1949
  823MOL0     C11003  10.201   9.733   9.543 -1.0640  0.5753 -0.3243
  823MOL0     C11004  10.246   9.637   9.640 -0.1797  0.4286 -0.1694
  823MOL0     O11005  10.355   9.548   9.632 -0.1381  0.1538  0.7353
  823MOL0     C11006  10.411   9.516   9.508  0.4864 -0.6112  0.4725
  823MOL0     C11007  10.527   9.418   9.524 -0.6972  0.2291  0.3251
  823MOL0     C11008  10.611   9.467   9.640 -0.1949 -0.0952  0.1556
  823MOL0     C11009  10.735   9.376   9.638 -0.0389 -0.3502  0.0856
  823MOL0     C11010  10.834   9.423   9.750  0.1392 -1.0778 -0.4875
  823MOL0     C11011  10.942   9.317   9.787 -0.1275  0.9339 -0.2211
  823MOL0     C11012  10.996   9.324   9.928 -0.4964 -0.3432  0.0753
  823MOL0     C11013  11.133   9.258   9.948 -0.1877  0.9401 -1.4130
  823MOL0    Cl11014  11.255   9.361   9.862 -0.0510 -0.4196  0.2800
  823MOL0     C11015  10.174   9.633   9.756 -0.2353 -0.4134 -0.2419
  823MOL0     C11016  10.056   9.716   9.777 -0.0655 -0.6029  0.5039
  823MOL0     O11017   9.849   9.970   9.504  0.4994 -0.5275 -0.7389
  823MOL0     C11018   9.626  10.097   9.580 -0.8639 -0.0700 -0.3345
  823MOL0     C11019   9.498  10.140   9.611  0.2016  0.2147 -0.5870
  823MOL0     N11020   8.964   9.960  10.115 -0.1589 -0.2864  0.4270
  823MOL0     N11021   8.902   9.978  10.225  0.6649  0.0820  0.1003
  823MOL0     C11022   7.540  10.310  10.210  0.3041  0.0772 -0.6840
  823MOL0     C11023   7.409  10.344  10.178 -0.4790  0.0796  0.9989
  823MOL0     C11024   7.060  10.600  10.056 -0.2394  0.1111 -0.1932
  823MOL0     C11025   7.050  10.654   9.924 -0.3259  0.0858 -0.8823
  823MOL0     C11026   6.918  10.677   9.868 -0.3520  0.0870 -0.4511
  823MOL0     C11027   6.805  10.621   9.932 -0.2184 -0.4629 -0.3781
  823MOL0     O11028   6.688  10.649   9.872 -0.0669 -0.2350 -1.1145
  823MOL0     C11029   6.566  10.637   9.950  0.1381 -0.0552 -0.2200
  823MOL0     C11030   6.451  10.666   9.851 -0.0269  0.2077 -0.1074
  823MOL0     C11031   6.402  10.556   9.755  0.4255  0.5914 -0.4562
  823MOL0     C11032   6.510  10.536   9.639  0.1423 -0.2374 -0.0367
  823MOL0     C11033   6.501  10.401   9.587 -0.4889 -0.3347 -0.1855
  823MOL0     C11034   6.505  10.300   9.523  0.9801  0.0580  0.4681
  823MOL0     C11035   6.826  10.561  10.052 -0.4986  0.3405 -0.4330
  823MOL0     C11036   6.947  10.550  10.115  1.0479  0.3376  0.1792
  823MOL0     C11037   6.949  10.492  10.254  0.8131  0.3099  0.3825
  823MOL0     H11038   7.355  10.615  10.372  1.0197  1.7151 -1.5387
  823MOL0     H11039   7.572  10.566  10.452  0.9071  1.3208 -0.7271
  823MOL0     H11040   7.815  10.238  10.243  1.9745  0.1958 -0.7070
  823MOL0     H11041   7.845  10.414  10.205 -0.6137 -1.4156 -1.7279
  823MOL0     H11042   7.924  10.271  10.459  1.8540  2.6480  1.7657
  823MOL0     H11043   7.990  10.417  10.387 -3.8569  1.6606  0.2288
  823MOL0     H11044   8.081  10.286  10.192 -1.7241  3.1056  0.6531
  823MOL0     H11045   8.016  10.137  10.281 -1.2769  0.6645 -4.1930
  823MOL0     H11046   8.217  10.330  10.404 -3.1298 -0.3092  1.3940
  823MOL0     H11047   8.169  10.172  10.462 -4.8463 -2.9424 -2.6175
  823MOL0     H11048   8.256  10.064  10.258 -1.5782  1.6501 -0.0754
  823MOL0     H11049   8.303  10.210  10.190 -2.3724  0.7956  0.6785
  823MOL0     H11050   8.491  10.229  10.363  0.0453 -0.1040 -0.5136
  823MOL0     H11051   8.433  10.085  10.444  0.3710 -2.5204 -1.0476
  823MOL0     H11052   8.527  10.101  10.159 -1.3725  0.5681  0.4446
  823MOL0     H11053   8.514   9.948  10.260  1.7345 -0.1973 -0.8024
  823MOL0     H11054   8.705  10.179  10.321 -1.4485  0.3569 -0.0889
  823MOL0     H11055   8.710  10.018  10.400  3.1168  3.2954  1.6194
  823MOL0     H11056   8.695  10.128  10.011  1.6246 -1.8828 -4.3260
  823MOL0     H11057   8.964   9.929   9.841 -1.1210 -0.8153  1.7883
  823MOL0     H11058   8.835  10.056   9.817 -0.9082  1.3184  0.9724
  823MOL0     H11059   9.007  10.222   9.901 -0.9435  0.1614 -0.5328
  823MOL0     H11060   9.119  10.097   9.922 -0.3558  0.8747  1.3249
  823MOL0     H11061   9.007  10.182   9.646 -2.0015 -0.4627  1.7484
  823MOL0     H11062   9.100  10.039   9.669  1.4333  0.9824 -1.9814
  823MOL0     H11063   9.203  10.324   9.711  2.7880 -0.1245  0.8774
  823MOL0     H11064   9.240  10.216   9.585  0.2967 -0.0928 -0.0345
  823MOL0     H11065   9.482  10.023   9.930  3.2659  1.6116  0.9536
  823MOL0     H11066   9.715   9.950   9.861  1.1189  1.6873 -0.0247
  823MOL0     H11067  10.079   9.901   9.491 -2.3000 -1.4465 -1.8302
  823MOL0     H11068  10.275   9.736   9.463  1.7024 -2.5306  1.8306
  823MOL0     H11069  10.335   9.485   9.436  2.0808  1.1082 -2.0907
  823MOL0     H11070  10.444   9.610   9.463 -2.9576  0.9439  0.8876
  823MOL0     H11071  10.499   9.317   9.553  0.4625  1.1033  5.4706
  823MOL0     H11072  10.579   9.407   9.428 -2.8005 -0.2198 -0.8204
  823MOL0     H11073  10.636   9.573   9.627 -1.5160 -0.0439 -2.5896
  823MOL0     H11074  10.566   9.465   9.740 -0.8337  0.2544 -0.1174
  823MOL0     H11075  10.788   9.388   9.543 -1.1092 -0.6862 -0.5687
  823MOL0     H11076  10.713   9.268   9.639  1.8891 -0.9060 -3.2108
  823MOL0     H11077  10.770   9.436   9.838 -0.7599 -0.4550 -1.2165
  823MOL0     H11078  10.874   9.524   9.743  0.6577 -0.9820  2.3736
  823MOL0     H11079  10.895   9.220   9.768 -1.2716  1.2579  0.8370
  823MOL0     H11080  11.025   9.315   9.716 -0.9955 -2.1804 -1.3262
  823MOL0     H11081  10.928   9.276   9.998 -0.7071 -1.7146 -1.0253
  823MOL0     H11082  10.985   9.428   9.961 -0.9261 -1.4396  3.8885
  823MOL0     H11083  11.154   9.256  10.055 -0.6631  0.3158 -1.3229
  823MOL0     H11084  11.128   9.155   9.909 -0.3272 -0.1474  1.2945
  823MOL0     H11085  10.207   9.578   9.844  4.1770  1.1729 -0.6297
  823MOL0     H11086   9.995   9.704   9.866  1.5258  0.7207  1.8117
  823MOL0     H11087   9.672  10.134   9.489 -1.4446 -1.2531 -1.1371
  823MOL0     H11088   9.455  10.194   9.527  0.5181  0.6043 -0.5033
  823MOL0     H11089   7.590  10.223  10.169 -1.1896 -0.9585 -0.4187
  823MOL0     H11090   7.381  10.296  10.085  1.5836 -1.0852  0.9054
  823MOL0     H11091   7.133  10.686   9.862  1.1565  0.4292  1.1720
  823MOL0     H11092   6.906  10.710   9.765 -0.7068 -1.4635 -0.9457
  823MOL0     H11093   6.571  10.700  10.040  2.7700  0.8778 -0.9307
  823MOL0     H11094   6.549  10.538   9.992  0.3596  0.7297  1.8291
  823MOL0     H11095   6.471  10.758   9.795  1.1629 -1.3309 -2.3378
  823MOL0     H11096   6.377  10.691   9.928  0.9274 -0.2170  0.9734
  823MOL0     H11097   6.301  10.572   9.717  0.6510  0.8006 -0.9820
  823MOL0     H11098   6.396  10.469   9.822 -0.2126  0.8681 -0.1484
  823MOL0     H11099   6.492  10.608   9.559 -0.2037 -1.2147 -0.8560
  823MOL0     H11100   6.610  10.549   9.682  0.1593  0.1262 -0.1770
  823MOL0     H11101   6.492  10.207   9.471  0.2755  1.8023 -2.7791
  823MOL0     H11102   6.739  10.521  10.104  1.1828 -4.6390 -0.8782
  823MOL0     H11103   7.004  10.559  10.320  2.0802  0.3174 -0.6529
  823MOL0     H11104   6.844  10.493  10.286  0.2716  2.4523 -1.2166
  823MOL0     H11105   6.977  10.387  10.266 -1.9940 -0.6258 -0.3459
  824MOL0     O11106   3.933   8.721  11.191 -0.0129 -0.3575 -0.0431
  824MOL0     C11107   3.828   8.761  11.145  0.2350 -0.6271  0.2709
  824MOL0     O11108   3.828   8.855  11.043  1.2757  0.4787 -0.3658
  824MOL0     C11109   3.945   8.892  10.982  0.0326  0.3664 -0.8447
  824MOL0     C11110   3.978   8.831  10.854  1.9203  0.2836 -0.5475
  824MOL0     C11111   4.105   8.866  10.796 -0.2939  0.1903  1.2554
  824MOL0     C11112   4.195   8.947  10.864  0.3258 -0.0013  0.7524
  824MOL0     O11113   4.308   8.970  10.808 -0.8190 -0.6523 -0.4887
  824MOL0     C11114   4.416   9.026  10.894  0.0865 -0.3275  0.3450
  824MOL0     C11115   4.548   9.041  10.805  0.2766 -0.6625  0.3969
  824MOL0     C11116   4.667   8.943  10.834  0.6667  0.1512  0.2686
  824MOL0     C11117   4.809   9.002  10.800  0.0699 -0.2392 -0.5803
  824MOL0     C11118   4.912   8.899  10.804  0.4875 -0.0069  0.9255
  824MOL0     C11119   4.892   8.793  10.702  0.5873  0.0741  0.6677
  824MOL0     C11120   5.018   8.691  10.706 -0.4634 -1.1480  0.1011
  824MOL0     C11121   5.036   8.593  10.824 -0.0271 -0.0064 -0.6313
  824MOL0     N11122   4.928   8.495  10.838  0.2940  0.7142 -0.7544
  824MOL0     C11123   4.822   8.507  10.928 -0.5912  0.7598  1.0659
  824MOL0     C11124   4.742   8.399  10.888  0.0889 -1.0105 -0.2315
  824MOL0     C11125   4.610   8.371  10.939  0.5196 -0.4115 -0.1149
  824MOL0     C11126   4.526   8.489  10.983  0.4349 -0.2856  0.3323
  824MOL0     C11127   4.456   8.567  10.864  1.4082 -0.5976  0.0963
  824MOL0     C11128   4.385   8.498  10.742 -0.6512 -0.6300  0.7832
  824MOL0     O11129   4.323   8.596  10.655  0.8439  0.4104  0.2025
  824MOL0     C11130   4.411   8.672  10.579 -0.2270  0.5425  0.2498
  824MOL0     C11131   4.534   8.628  10.530 -0.6607 -0.3376 -0.4866
  824MOL0     C11132   4.615   8.706  10.451  0.0296 -0.4666 -0.5175
  824MOL0     C11133   4.586   8.845  10.433  0.8587  0.3266 -0.4473
  824MOL0     C11134   4.675   8.924  10.357 -0.8880 -0.2066  0.1079
  824MOL0     O11135   4.808   8.892  10.345 -0.1853 -0.1157  0.5568
  824MOL0     C11136   4.868   8.961  10.240  0.0863  0.8578  1.0823
  824MOL0     C11137   4.897   9.096  10.228 -0.3004 -0.2151 -0.8570
  824MOL0     C11138   4.924   9.155  10.106  0.1033  0.4370 -0.2156
  824MOL0     C11139   4.927   9.075   9.991  0.1729 -0.3901  0.4069
  824MOL0     O11140   4.942   9.107   9.854 -0.0933 -1.0262 -0.6854
  824MOL0     C11141   4.940   9.251   9.824 -0.1846 -0.3905  0.0775
  824MOL0     C11142   5.014   9.271   9.685  0.2120 -0.2791 -1.0643
  824MOL0     C11143   4.935   9.209   9.564  0.0311  1.1910  0.0935
  824MOL0     C11144   4.804   9.272   9.529 -0.1302 -0.1359 -0.2414
  824MOL0     C11145   4.732   9.203   9.418 -0.6276  0.3181 -0.7739
  824MOL0     C11146   4.612   9.287   9.382 -0.2169  0.5624 -0.9425
  824MOL0     C11147   4.506   9.200   9.320 -0.4515  0.2943 -0.5274
  824MOL0     C11148   4.372   9.268   9.290 -0.2084  0.5410 -0.2016
  824MOL0    Cl11149   4.313   9.346   9.427  0.4412  0.5960  0.4255
  824MOL0     C11150   4.921   8.937  10.003 -0.0773  0.1120 -0.4095
  824MOL0     C11151   4.882   8.883  10.127  0.9263  0.0017  0.7484
  824MOL0     O11152   4.629   9.010  10.287  0.1637 -0.2646 -0.2061
  824MOL0     C11153   4.447   8.879  10.466 -0.2605 -0.2217 -0.4169
  824MOL0     C11154   4.367   8.800  10.541  0.3315  0.4155  0.4085
  824MOL0     N11155   4.794   8.333  10.783  0.4077 -0.2640 -0.2850
  824MOL0     N11156   4.906   8.392  10.758  0.6107  0.2220  0.6062
  824MOL0     C11157   4.162   8.995  10.988  0.2607  0.6162 -0.3012
  824MOL0     C11158   4.039   8.965  11.044  0.3350 -1.2779 -0.5354
  824MOL0     C11159   3.707   8.681  11.171  0.4547 -0.6667 -0.4950
  824MOL0     C11160   3.629   8.636  11.060 -1.0737  0.7769  0.6063
  824MOL0     C11161   3.514   8.562  11.073  0.1687  0.4902  0.3471
  824MOL0     C11162   3.468   8.524  11.204  1.1938 -0.4089  0.0101
  824MOL0     O11163   3.350   8.448  11.213 -0.1983  0.1890  0.1038
  824MOL0     C11164   3.288   8.423  11.337  0.0874  0.1932  0.5600
  824MOL0     C11165   3.171   8.325  11.306  0.1929  0.2957 -0.1270
  824MOL0     C11166   3.099   8.272  11.429 -0.0762 -0.1697  0.3300
  824MOL0     C11167   3.014   8.154  11.385 -0.3900  0.1163 -0.2910
  824MOL0     C11168   2.920   8.094  11.486  0.1044 -0.6167 -0.9173
  824MOL0     C11169   2.820   8.068  11.557 -0.2195  0.0389 -0.2780
  824MOL0     C11170   3.538   8.579  11.320 -0.1728  0.7477  0.5690
  824MOL0     C11171   3.656   8.652  11.303 -0.4264 -0.9683  0.2793
  824MOL0     C11172   3.750   8.708  11.411 -0.2431 -0.0629 -0.7013
  824MOL0     H11173   3.899   8.776  10.805  1.5472  1.5426 -1.4137
  824MOL0     H11174   4.121   8.830  10.695 -0.1268 -1.3691  1.8054
  824MOL0     H11175   4.394   9.129  10.923  0.7780 -0.6503  2.1403
  824MOL0     H11176   4.432   8.968  10.985 -0.9125  1.5545  1.7721
  824MOL0     H11177   4.585   9.142  10.828 -1.2009  0.1870 -0.7682
  824MOL0     H11178   4.521   9.035  10.699 -0.1792  3.7053  0.0664
  824MOL0     H11179   4.643   8.848  10.784  1.1640 -0.7552  1.6770
  824MOL0     H11180   4.662   8.927  10.942  0.4594 -5.9986 -0.2874
  824MOL0     H11181   4.796   9.045  10.700 -1.4461 -0.0709 -0.3328
  824MOL0     H11182   4.825   9.085  10.870  0.8601  0.1193 -1.1685
  824MOL0     H11183   5.013   8.941  10.809  0.3679  0.1621  2.6799
  824MOL0     H11184   4.912   8.839  10.896  3.4085 -0.6141  0.6540
  824MOL0     H11185   4.794   8.745  10.707  0.1268  1.0052  0.9000
  824MOL0     H11186   4.890   8.833  10.600 -2.7077 -1.6051 -0.0705
  824MOL0     H11187   5.104   8.759  10.701 -1.2363 -0.1966 -0.7358
  824MOL0     H11188   5.020   8.636  10.612  0.7472 -0.9332 -0.0080
  824MOL0     H11189   5.129   8.537  10.817  0.8526  1.2681  0.3278
  824MOL0     H11190   5.041   8.646  10.919 -2.7069 -1.0717  0.2056
  824MOL0     H11191   4.804   8.587  10.998 -0.9121  1.8267 -0.1966
  824MOL0     H11192   4.554   8.317  10.862 -0.4707  0.5033 -0.0687
  824MOL0     H11193   4.617   8.309  11.029 -1.7560 -0.0839  0.3685
  824MOL0     H11194   4.441   8.456  11.044  0.0768  1.2959  0.7469
  824MOL0     H11195   4.586   8.555  11.046 -2.7997 -0.0721  3.5372
  824MOL0     H11196   4.525   8.641  10.821  0.5860  2.1888  3.1578
  824MOL0     H11197   4.374   8.626  10.905 -3.5122 -3.7142 -4.0337
  824MOL0     H11198   4.301   8.438  10.779 -0.1985 -1.4068  0.5723
  824MOL0     H11199   4.460   8.442  10.685 -1.3180 -0.1429 -0.6145
  824MOL0     H11200   4.577   8.528  10.539  6.5803  2.1499 -0.7741
  824MOL0     H11201   4.696   8.657  10.398  0.6327  0.9675 -0.9710
  824MOL0     H11202   4.879   9.150  10.320  0.7529  1.2415 -1.4590
  824MOL0     H11203   4.930   9.264  10.110 -0.8291  0.5414 -1.2003
  824MOL0     H11204   4.837   9.284   9.838  0.3973  3.3093 -2.7091
  824MOL0     H11205   4.997   9.314   9.893 -2.7602  1.4167  0.6667
  824MOL0     H11206   5.022   9.376   9.652  0.5895 -0.2330 -0.8273
  824MOL0     H11207   5.117   9.238   9.701 -0.2932 -2.7721 -2.5741
  824MOL0     H11208   4.989   9.205   9.469 -1.8885  0.0371 -1.0324
  824MOL0     H11209   4.912   9.105   9.589 -1.8721  1.3030 -1.0036
  824MOL0     H11210   4.819   9.377   9.502  1.2139 -1.0215 -3.3597
  824MOL0     H11211   4.751   9.257   9.624 -1.9584  0.4366 -1.1252
  824MOL0     H11212   4.690   9.110   9.456 -0.0714  0.3082 -0.1677
  824MOL0     H11213   4.803   9.183   9.337  1.2490  0.4129  0.7509
  824MOL0     H11214   4.577   9.331   9.476  2.1064 -1.3283  0.9436
  824MOL0     H11215   4.640   9.370   9.316 -0.6332  0.3335 -1.4088
  824MOL0     H11216   4.477   9.117   9.385 -1.9311 -0.8012 -2.4639
  824MOL0     H11217   4.554   9.165   9.228  0.4577 -1.2626  0.4837
  824MOL0     H11218   4.379   9.346   9.213 -1.7590  2.7656  1.7756
  824MOL0     H11219   4.293   9.196   9.266  0.7384  0.2678 -2.8354
  824MOL0     H11220   4.910   8.883   9.910 -2.3439  1.3560 -0.9421
  824MOL0     H11221   4.851   8.779  10.119  3.0481 -0.9893  3.7368
  824MOL0     H11222   4.406   8.970  10.423  0.0012 -0.5679 -1.4348
  824MOL0     H11223   4.261   8.824  10.551 -0.0560 -0.4013 -1.2242
  824MOL0     H11224   4.221   9.070  11.038  0.4157  1.2890 -1.4468
  824MOL0     H11225   4.017   9.000  11.144 -1.8319 -3.1064 -0.2790
  824MOL0     H11226   3.673   8.648  10.961  0.3213  0.0008  1.1047
  824MOL0     H11227   3.475   8.523  10.979  2.1016 -1.9796  0.4643
  824MOL0     H11228   3.251   8.508  11.396  0.7252 -1.0788  2.9539
  824MOL0     H11229   3.360   8.376  11.405 -0.6046  0.5359  1.5493
  824MOL0     H11230   3.207   8.246  11.239 -1.4123  1.9772 -3.1862
  824MOL0     H11231   3.094   8.377  11.249  1.2641  0.5860 -1.3586
  824MOL0     H11232   3.036   8.346  11.479  1.2023  0.7897  0.5515
  824MOL0     H11233   3.176   8.235  11.498 -1.4579  0.6920  2.4437
  824MOL0     H11234   2.966   8.194  11.295 -1.6202 -0.6034  0.0241
  824MOL0     H11235   3.079   8.075  11.346  0.3702 -0.3693  1.8579
  824MOL0     H11236   2.732   8.054  11.618 -1.4792  2.1225 -1.5027
  824MOL0     H11237   3.510   8.559  11.422  0.9372 -1.2064  0.5454
  824MOL0     H11238   3.698   8.688  11.505 -1.7686 -1.8595 -1.8773
  824MOL0     H11239   3.846   8.656  11.408  1.7177  2.9994  2.2511
  824MOL0     H11240   3.762   8.816  11.399 -1.0939  0.0417 -0.6320
  825MOL0     O11241   3.894   6.347   1.355  0.1664  0.6366  0.1369
  825MOL0     C11242   3.931   6.278   1.265  0.8881 -0.7521  0.1910
  825MOL0     O11243   4.059   6.239   1.243 -1.0114  0.1694  1.1218
  825MOL0     C11244   4.167   6.284   1.321  0.5809  0.0885  0.4092
  825MOL0     C11245   4.271   6.198   1.302 -0.8224 -0.5720  1.0204
  825MOL0     C11246   4.392   6.227   1.367 -0.1803 -0.4417  0.7296
  825MOL0     C11247   4.410   6.346   1.438  0.0650 -0.2774  0.5231
  825MOL0     O11248   4.529   6.372   1.497 -0.0695  0.6352 -0.0373
  825MOL0     C11249   4.593   6.493   1.470 -0.1320 -0.4329 -0.3818
  825MOL0     C11250   4.725   6.461   1.402  1.2551  0.4986 -0.0844
  825MOL0     C11251   4.824   6.576   1.370 -0.4846 -0.4790 -0.4751
  825MOL0     C11252   4.846   6.676   1.487  0.5955 -0.2904  0.4513
  825MOL0     C11253   4.933   6.808   1.456 -0.9896  0.7488 -1.0985
  825MOL0     C11254   5.081   6.784   1.406 -0.5585 -0.5173  0.4745
  825MOL0     C11255   5.164   6.910   1.386  0.1960 -0.3753  0.2979
  825MOL0     C11256   5.179   6.984   1.518 -0.5570 -0.2296  0.1279
  825MOL0     N11257   5.279   7.096   1.500 -0.3343 -0.2174 -0.7707
  825MOL0     C11258   5.265   7.215   1.442 -0.2902 -0.8520  0.3935
  825MOL0     C11259   5.379   7.277   1.422  0.3013 -0.8178  0.9330
  825MOL0     C11260   5.418   7.404   1.357  0.1776  0.9692 -0.0962
  825MOL0     C11261   5.501   7.380   1.235  0.2336  0.1411  0.2619
  825MOL0     C11262   5.529   7.506   1.154  0.6680 -0.2004  0.2151
  825MOL0     C11263   5.407   7.607   1.135  0.4766 -0.1878  0.0234
  825MOL0     O11264   5.401   7.685   1.254  0.2247 -0.1675  0.2096
  825MOL0     C11265   5.311   7.789   1.270  0.2906  0.4227  0.3003
  825MOL0     C11266   5.242   7.828   1.157 -0.0165  0.2326 -0.1922
  825MOL0     C11267   5.160   7.939   1.171 -0.3439 -0.4490 -0.0148
  825MOL0     C11268   5.137   7.994   1.299  0.4154 -0.6824  0.4400
  825MOL0     C11269   5.041   8.107   1.313 -0.4891  0.1111  0.3837
  825MOL0     O11270   5.053   8.217   1.230  0.3648  0.6358  0.1788
  825MOL0     C11271   4.970   8.318   1.245  0.3771 -0.3728 -1.0470
  825MOL0     C11272   4.836   8.322   1.288  0.1380  0.3731 -0.4771
  825MOL0     C11273   4.757   8.435   1.289  0.2684 -0.8717 -0.7275
  825MOL0     C11274   4.810   8.560   1.249  0.0191  0.5363  0.4914
  825MOL0     O11275   4.722   8.663   1.237  0.0765 -0.2643  0.7641
  825MOL0     C11276   4.747   8.781   1.157 -0.9094  0.9305  0.0536
  825MOL0     C11277   4.638   8.885   1.174  0.3370 -0.1008  0.5053
  825MOL0     C11278   4.643   8.999   1.078 -0.6318 -0.1109 -0.3986
  825MOL0     C11279   4.523   9.093   1.099  0.9393 -0.1682  0.9428
  825MOL0     C11280   4.529   9.207   0.998  0.3710 -0.7325 -0.5961
  825MOL0     C11281   4.439   9.323   1.039  0.8979 -0.7935  0.1716
  825MOL0     C11282   4.446   9.423   0.930  0.8671 -0.5962  0.1583
  825MOL0     C11283   4.334   9.520   0.961  0.0608  0.4974 -0.0761
  825MOL0    Cl11284   4.166   9.454   0.917 -0.0881  0.3104 -0.7556
  825MOL0     C11285   4.946   8.568   1.213 -0.3530 -0.5298  0.7208
  825MOL0     C11286   5.025   8.443   1.204  0.1804 -0.0183  0.2310
  825MOL0     O11287   4.981   8.102   1.417  0.9619 -0.4001  0.5283
  825MOL0     C11288   5.207   7.949   1.410  0.0882  0.4983  0.1867
  825MOL0     C11289   5.303   7.856   1.388  0.1593 -0.3630 -0.5308
  825MOL0     N11290   5.472   7.186   1.468 -0.0999  0.2828 -0.0960
  825MOL0     N11291   5.417   7.082   1.521 -0.3085 -0.3394 -0.7844
  825MOL0     C11292   4.299   6.427   1.464 -0.9421  0.0829 -0.8027
  825MOL0     C11293   4.178   6.394   1.403 -0.7404 -0.5329  0.2057
  825MOL0     C11294   3.833   6.223   1.166  0.4652 -0.7772 -0.8480
  825MOL0     C11295   3.834   6.092   1.119  0.7330  0.7672 -0.2690
  825MOL0     C11296   3.751   6.051   1.015 -0.2121  0.1674  0.1961
  825MOL0     C11297   3.676   6.144   0.943 -0.2340 -0.6035  1.0049
  825MOL0     O11298   3.603   6.117   0.831  0.2886  0.0807  0.6782
  825MOL0     C11299   3.637   6.007   0.747 -0.2361 -0.3546  0.9560
  825MOL0     C11300   3.774   6.008   0.676  0.1560  0.3383 -0.6442
  825MOL0     C11301   3.812   6.147   0.610 -0.3794 -0.3280 -0.0234
  825MOL0     C11302   3.936   6.133   0.530 -0.3759  0.1592  0.0238
  825MOL0     C11303   3.999   6.259   0.484  0.1617 -0.0515  0.1100
  825MOL0     C11304   4.060   6.358   0.441  0.5258 -0.4237 -0.2411
  825MOL0     C11305   3.654   6.271   1.003  0.4608  1.0384  0.3137
  825MOL0     C11306   3.739   6.313   1.105 -0.7333 -0.2375  0.1530
  825MOL0     C11307   3.715   6.458   1.147 -0.5295  0.2977  0.3121
  825MOL0     H11308   4.268   6.107   1.244  0.7583  0.8296 -1.4781
  825MOL0     H11309   4.477   6.164   1.345  0.9754  0.7434  1.6654
  825MOL0     H11310   4.529   6.555   1.406 -2.6334 -1.7250  0.7178
  825MOL0     H11311   4.626   6.540   1.563  1.4495  2.6662 -2.3031
  825MOL0     H11312   4.704   6.390   1.322 -1.7327  0.8265  0.2873
  825MOL0     H11313   4.778   6.403   1.479 -0.7915 -2.6969 -0.9032
  825MOL0     H11314   4.793   6.623   1.276 -0.0725 -0.8433 -0.7924
  825MOL0     H11315   4.916   6.527   1.337  0.2962  1.4349 -1.3101
  825MOL0     H11316   4.752   6.716   1.524  1.1800  1.6209 -0.0120
  825MOL0     H11317   4.891   6.621   1.571 -1.4216 -0.4313  1.4856
  825MOL0     H11318   4.891   6.880   1.385 -1.7577  2.7546  1.2706
  825MOL0     H11319   4.948   6.851   1.555  0.9964 -0.6752 -0.7195
  825MOL0     H11320   5.119   6.726   1.491 -0.3453 -1.6589 -0.3812
  825MOL0     H11321   5.085   6.720   1.317  1.0900 -0.9099  0.7926
  825MOL0     H11322   5.120   6.979   1.313  0.2368 -0.3207  0.3251
  825MOL0     H11323   5.267   6.889   1.357  0.8071  1.8799  0.6500
  825MOL0     H11324   5.086   7.042   1.528 -0.8953 -0.9563  1.3885
  825MOL0     H11325   5.194   6.922   1.607 -0.7314  0.5185  0.6894
  825MOL0     H11326   5.172   7.257   1.405  0.2281 -0.8086 -0.9113
  825MOL0     H11327   5.320   7.447   1.336 -1.3156 -2.1119  0.0086
  825MOL0     H11328   5.469   7.467   1.430  0.4537 -1.5390  1.9724
  825MOL0     H11329   5.600   7.344   1.264  1.8105  2.4481 -1.8500
  825MOL0     H11330   5.455   7.303   1.173 -1.0185  0.0491  1.2604
  825MOL0     H11331   5.586   7.483   1.064  2.4682  0.1580  1.2184
  825MOL0     H11332   5.598   7.564   1.215  0.8849 -0.5781  0.3332
  825MOL0     H11333   5.313   7.553   1.119  1.1837 -0.8655 -2.0698
  825MOL0     H11334   5.424   7.664   1.044 -2.6056 -3.5378 -2.9749
  825MOL0     H11335   5.254   7.789   1.056  1.1123  3.3648 -1.3875
  825MOL0     H11336   5.100   7.965   1.084 -1.5226 -2.1287  0.2470
  825MOL0     H11337   4.781   8.235   1.323 -1.8347  2.9654  3.5936
  825MOL0     H11338   4.658   8.425   1.333  1.1010  0.6576  1.6939
  825MOL0     H11339   4.850   8.816   1.171 -0.4426 -0.0651 -0.6992
  825MOL0     H11340   4.757   8.739   1.057  3.6720 -3.7453  1.9686
  825MOL0     H11341   4.535   8.847   1.173  0.0831  0.5333 -1.1351
  825MOL0     H11342   4.656   8.923   1.274  0.7603 -3.0559  1.6547
  825MOL0     H11343   4.729   9.064   1.100 -1.6279  0.7442  1.2239
  825MOL0     H11344   4.664   8.951   0.982 -0.3708  0.4504 -0.6263
  825MOL0     H11345   4.512   9.147   1.194  2.4903  2.1550 -0.0895
  825MOL0     H11346   4.428   9.041   1.081  0.9707 -0.2222  0.9307
  825MOL0     H11347   4.502   9.165   0.901 -0.9677  1.3440 -1.1930
  825MOL0     H11348   4.633   9.241   0.999  0.2558 -0.2569  1.4602
  825MOL0     H11349   4.334   9.295   1.053  0.5033  1.2650  1.9356
  825MOL0     H11350   4.465   9.369   1.135  1.1644 -1.9011  0.6459
  825MOL0     H11351   4.424   9.381   0.832  1.5980 -0.0934 -0.2297
  825MOL0     H11352   4.543   9.474   0.928  0.7175 -0.2415  1.1652
  825MOL0     H11353   4.333   9.551   1.066  2.7957  0.8927 -0.1008
  825MOL0     H11354   4.345   9.611   0.901  2.7616  0.6734  0.5574
  825MOL0     H11355   4.994   8.657   1.174 -1.5235 -1.6727 -4.1189
  825MOL0     H11356   5.125   8.452   1.163  1.0565 -0.3295  2.1922
  825MOL0     H11357   5.207   8.006   1.503  0.2154  1.7652 -0.5648
  825MOL0     H11358   5.365   7.819   1.469 -1.3094 -2.5760 -0.3488
  825MOL0     H11359   4.301   6.511   1.534 -0.3721 -0.6090  0.0315
  825MOL0     H11360   4.094   6.462   1.414 -0.9426  0.4124 -4.9330
  825MOL0     H11361   3.897   6.013   1.159 -2.6013 -1.7479  0.4660
  825MOL0     H11362   3.774   5.950   0.983  0.1552 -0.2750  1.8008
  825MOL0     H11363   3.571   5.999   0.660  0.9047  0.3827 -0.0072
  825MOL0     H11364   3.613   5.918   0.805 -0.4515 -0.5620  0.5541
  825MOL0     H11365   3.772   5.932   0.597  1.9247  0.1099 -0.5041
  825MOL0     H11366   3.851   5.990   0.751 -0.1638  0.8056 -0.1969
  825MOL0     H11367   3.825   6.223   0.687 -4.5209 -0.0514  0.6597
  825MOL0     H11368   3.725   6.173   0.548 -0.1364  0.6876  0.0409
  825MOL0     H11369   4.021   6.087   0.581  2.5692  1.4325 -3.3521
  825MOL0     H11370   3.917   6.075   0.439  0.8097  0.0223 -0.1553
  825MOL0     H11371   4.118   6.441   0.406 -0.8397  0.6811  0.0497
  825MOL0     H11372   3.581   6.336   0.957 -2.3407 -0.8295  1.8050
  825MOL0     H11373   3.811   6.510   1.135  2.2352 -4.2394  0.4824
  825MOL0     H11374   3.634   6.500   1.087 -0.4537 -0.0255 -0.0191
  825MOL0     H11375   3.681   6.462   1.251 -1.9930  2.6319 -0.1833
  826MOL0     O11376   2.696   4.018   8.986  0.3086 -0.3320 -0.2280
  826MOL0     C11377   2.766   4.116   8.990  0.3572 -0.5540 -0.3879
  826MOL0     O11378   2.747   4.227   8.907  0.7424 -0.6081  0.3374
  826MOL0     C11379   2.650   4.224   8.808  0.6529 -0.5805  0.5077
  826MOL0     C11380   2.602   4.351   8.771  0.0699 -0.2642 -0.9375
  826MOL0     C11381   2.506   4.362   8.669 -0.1660  0.6627  0.7633
  826MOL0     C11382   2.458   4.247   8.611  0.9518  0.8504 -0.9095
  826MOL0     O11383   2.349   4.263   8.532  0.5123  0.1280  0.6554
  826MOL0     C11384   2.261   4.153   8.514  0.1027 -0.3993  0.0957
  826MOL0     C11385   2.159   4.201   8.407 -0.4084 -0.1132  0.8879
  826MOL0     C11386   2.087   4.338   8.441  0.5600  0.9854  0.4444
  826MOL0     C11387   1.979   4.356   8.329 -0.6982 -0.3206 -0.4666
  826MOL0     C11388   1.971   4.505   8.292  0.0418  0.2221  0.3894
  826MOL0     C11389   1.838   4.513   8.218  0.0414 -0.3220  0.1754
  826MOL0     C11390   1.810   4.651   8.169 -0.7270  0.0464 -0.5661
  826MOL0     C11391   1.675   4.656   8.098 -0.3375  0.6868  0.1874
  826MOL0     N11392   1.654   4.794   8.046  0.2168  0.6065 -0.7069
  826MOL0     C11393   1.613   4.905   8.118  1.0377 -0.2650  0.0147
  826MOL0     C11394   1.629   5.007   8.024  0.5999 -0.4559  0.4223
  826MOL0     C11395   1.622   5.154   8.061 -0.2143 -0.5164 -0.4226
  826MOL0     C11396   1.582   5.244   7.944  0.1109  0.3861 -0.8022
  826MOL0     C11397   1.430   5.231   7.906 -0.4458  1.0225  0.5631
  826MOL0     C11398   1.390   5.317   7.785 -0.4883 -0.3332  0.2434
  826MOL0     O11399   1.329   5.434   7.833 -0.5919  0.2594 -0.0458
  826MOL0     C11400   1.287   5.532   7.742 -0.0391 -1.0583 -0.5015
  826MOL0     C11401   1.278   5.658   7.788 -0.9976 -0.5615 -0.6586
  826MOL0     C11402   1.224   5.762   7.718 -0.8396 -0.0193 -0.3222
  826MOL0     C11403   1.162   5.744   7.598 -0.8408  0.2603  0.2621
  826MOL0     C11404   1.122   5.852   7.525 -1.0385 -0.0431 -0.3740
  826MOL0     O11405   1.042   5.824   7.424  0.6385  0.4529  0.2729
  826MOL0     C11406   1.020   5.935   7.337 -0.0451 -0.6516  0.1187
  826MOL0     C11407   0.886   5.979   7.322  0.3257 -0.4579  0.3987
  826MOL0     C11408   0.857   6.081   7.229  0.8022 -0.5668  0.2039
  826MOL0     C11409   0.959   6.142   7.147 -0.3599  0.9528  0.0533
  826MOL0     O11410   0.949   6.236   7.045  0.6157  0.5908 -0.4307
  826MOL0     C11411   0.839   6.324   7.051 -0.6130  0.3542 -0.0175
  826MOL0     C11412   0.813   6.397   6.915 -0.2156  0.8429  0.1455
  826MOL0     C11413   0.701   6.508   6.927 -0.0902  0.0948 -0.0718
  826MOL0     C11414   0.737   6.605   7.047 -0.5694 -0.2588 -0.3928
  826MOL0     C11415   0.631   6.713   7.061  0.3339 -0.1446  0.2701
  826MOL0     C11416   0.673   6.845   7.127 -1.2286 -0.0977  0.2553
  826MOL0     C11417   0.710   6.827   7.276 -0.3252  0.2312  0.2601
  826MOL0     C11418   0.624   6.911   7.373 -0.4922 -0.3375  0.2662
  826MOL0    Cl11419   0.652   6.871   7.532  0.1398 -0.1496 -0.1299
  826MOL0     C11420   1.087   6.093   7.170  0.0139 -0.0436 -0.2675
  826MOL0     C11421   1.124   5.988   7.251  0.5172 -0.8186 -0.6824
  826MOL0     O11422   1.160   5.970   7.553 -0.5773 -0.0777  0.7563
  826MOL0     C11423   1.190   5.620   7.534  0.2697 -0.5293 -0.1618
  826MOL0     C11424   1.243   5.514   7.605 -0.0426  0.0667 -0.9861
  826MOL0     N11425   1.680   4.961   7.911 -0.0964  0.0612 -0.1734
  826MOL0     N11426   1.698   4.839   7.918 -0.4871  0.1895  0.8113
  826MOL0     C11427   2.513   4.117   8.639  0.3445 -1.4689 -0.4314
  826MOL0     C11428   2.615   4.112   8.736  0.0297 -0.2370 -0.0593
  826MOL0     C11429   2.875   4.128   9.090  0.3816  0.0127 -0.0875
  826MOL0     C11430   2.951   4.245   9.097 -0.8144  0.5747  0.5165
  826MOL0     C11431   3.071   4.265   9.171 -0.4752  0.0459 -0.1588
  826MOL0     C11432   3.109   4.156   9.252 -0.4066 -0.3265 -0.3397
  826MOL0     O11433   3.221   4.140   9.322  0.0953 -0.5193 -1.0483
  826MOL0     C11434   3.319   4.238   9.301 -0.2520  0.0785  1.4929
  826MOL0     C11435   3.451   4.193   9.370  0.2001  0.3379  0.6999
  826MOL0     C11436   3.430   4.176   9.524  0.5959  0.1022  0.5414
  826MOL0     C11437   3.571   4.151   9.583  1.3077  0.3781  0.5108
  826MOL0     C11438   3.617   4.009   9.588  0.0102  0.0484 -0.4255
  826MOL0     C11439   3.654   3.892   9.581  0.8104  0.4820  0.7575
  826MOL0     C11440   3.023   4.043   9.260 -0.1907 -0.2919  0.5969
  826MOL0     C11441   2.908   4.018   9.180  1.3421  0.0828  0.0410
  826MOL0     C11442   2.838   3.882   9.189  0.5657 -0.3186 -0.0620
  826MOL0     H11443   2.628   4.447   8.815  1.8802 -0.7766 -0.8286
  826MOL0     H11444   2.454   4.454   8.644 -0.4946  0.1555 -0.4844
  826MOL0     H11445   2.316   4.071   8.467 -0.0243  0.9440 -2.6208
  826MOL0     H11446   2.207   4.140   8.608  0.7917 -0.5310  0.4782
  826MOL0     H11447   2.083   4.126   8.383  0.2681 -0.8953  1.1652
  826MOL0     H11448   2.227   4.222   8.324  0.1448  0.8084  1.5592
  826MOL0     H11449   2.146   4.430   8.445 -1.4499  2.4229 -0.7631
  826MOL0     H11450   2.038   4.328   8.538 -0.7127  1.1501 -0.1597
  826MOL0     H11451   1.998   4.290   8.244 -0.3924 -2.0333  0.8628
  826MOL0     H11452   1.884   4.320   8.370 -1.5015  3.2453  1.1429
  826MOL0     H11453   1.961   4.559   8.386 -1.8349  0.7192 -0.0591
  826MOL0     H11454   2.061   4.525   8.232  1.9776 -3.6646  1.6891
  826MOL0     H11455   1.831   4.440   8.136 -0.6288  0.4596 -0.4795
  826MOL0     H11456   1.762   4.482   8.291  2.1512  0.1092  2.6690
  826MOL0     H11457   1.890   4.686   8.103 -2.3406  0.3688 -2.4211
  826MOL0     H11458   1.809   4.711   8.260  4.4655  1.1436 -0.9128
  826MOL0     H11459   1.661   4.577   8.024  0.6213  0.7419 -0.0621
  826MOL0     H11460   1.591   4.636   8.166 -2.0733 -2.0988 -2.5068
  826MOL0     H11461   1.578   4.908   8.220 -0.0920 -0.0945 -0.3683
  826MOL0     H11462   1.540   5.170   8.131  0.5731 -1.4067  0.7422
  826MOL0     H11463   1.721   5.180   8.100 -1.0198 -0.0097  1.3407
  826MOL0     H11464   1.594   5.351   7.961  0.0595  0.2869 -0.1174
  826MOL0     H11465   1.645   5.215   7.859  2.8931  0.1253  1.2336
  826MOL0     H11466   1.366   5.270   7.986 -1.7852  2.1939 -1.0322
  826MOL0     H11467   1.411   5.124   7.896  0.4644  1.0504 -2.1603
  826MOL0     H11468   1.323   5.269   7.713  0.5330 -0.0741 -0.9156
  826MOL0     H11469   1.482   5.340   7.729 -0.9741  2.3595  0.4335
  826MOL0     H11470   1.303   5.668   7.894 -2.5938 -1.2007 -0.1965
  826MOL0     H11471   1.223   5.863   7.759 -0.6743 -0.1444 -0.0036
  826MOL0     H11472   0.795   5.942   7.369 -0.8577 -0.0205 -1.4454
  826MOL0     H11473   0.752   6.109   7.228  0.6173 -0.7312  3.6504
  826MOL0     H11474   0.750   6.280   7.097 -1.1482 -0.1836 -1.4836
  826MOL0     H11475   0.877   6.398   7.122 -1.4661  0.4647  0.3360
  826MOL0     H11476   0.908   6.442   6.885 -0.9297  2.1527 -0.2623
  826MOL0     H11477   0.780   6.327   6.839 -1.8133 -0.5269  1.9911
  826MOL0     H11478   0.692   6.563   6.833 -1.6819  1.0662  0.6150
  826MOL0     H11479   0.604   6.462   6.947 -1.6010  1.7634 -2.8671
  826MOL0     H11480   0.835   6.652   7.030 -0.9659  1.0274  0.7331
  826MOL0     H11481   0.718   6.568   7.148 -1.3575  0.2614 -0.3470
  826MOL0     H11482   0.549   6.671   7.120  0.3162 -0.0693  0.2985
  826MOL0     H11483   0.575   6.733   6.969 -0.0105 -1.4539  0.1777
  826MOL0     H11484   0.751   6.901   7.076 -1.4286  1.5665  1.6792
  826MOL0     H11485   0.582   6.906   7.125 -1.5271 -0.5263  0.3668
  826MOL0     H11486   0.811   6.853   7.309 -0.7781  0.6276  1.4026
  826MOL0     H11487   0.693   6.722   7.300  2.6807  0.0544  2.0555
  826MOL0     H11488   0.656   7.014   7.360 -1.4467  0.3345  2.6489
  826MOL0     H11489   0.523   6.887   7.338 -0.8792  3.8056 -2.1272
  826MOL0     H11490   1.172   6.138   7.119 -1.0247  1.6948 -0.5709
  826MOL0     H11491   1.230   5.969   7.264  2.0529  5.4384 -0.8086
  826MOL0     H11492   1.148   5.600   7.436 -1.9854  1.2887  0.3300
  826MOL0     H11493   1.240   5.412   7.567 -3.5738  0.3162 -1.7507
  826MOL0     H11494   2.484   4.024   8.592  1.4803 -3.8283  3.1209
  826MOL0     H11495   2.667   4.017   8.743 -3.7282 -2.3969  4.0770
  826MOL0     H11496   2.921   4.331   9.038  2.5428  0.9168 -0.9357
  826MOL0     H11497   3.118   4.363   9.159 -2.5526  1.1619  0.2788
  826MOL0     H11498   3.287   4.335   9.339  4.6874  2.3801  0.6637
  826MOL0     H11499   3.341   4.245   9.194  3.4881  1.2868  2.1955
  826MOL0     H11500   3.517   4.277   9.346 -1.5660  1.4037 -0.6827
  826MOL0     H11501   3.493   4.099   9.334  3.9403  1.1415  2.5153
  826MOL0     H11502   3.365   4.090   9.538  2.8673 -1.5056  1.9596
  826MOL0     H11503   3.407   4.270   9.575 -0.3918  0.8882 -1.2626
  826MOL0     H11504   3.625   4.226   9.524 -0.2187  2.2294  1.3375
  826MOL0     H11505   3.572   4.189   9.686 -2.2713 -1.1587  1.2755
  826MOL0     H11506   3.694   3.793   9.571 -0.2806  0.2179 -1.6062
  826MOL0     H11507   3.050   3.953   9.313 -0.6717 -1.1579 -0.5885
  826MOL0     H11508   2.878   3.815   9.265  1.3582  1.0918  0.7892
  826MOL0     H11509   2.734   3.900   9.217  1.1066  0.6019  1.4084
  826MOL0     H11510   2.837   3.839   9.088 -1.3142  1.0529 -0.6927
  827MOL0     O11511   7.285   9.047   7.830  0.0353  0.2143  0.5308
  827MOL0     C11512   7.236   9.033   7.941 -1.3059  0.5840  0.0925
  827MOL0     O11513   7.227   8.912   8.001 -0.7130  0.3180 -0.6168
  827MOL0     C11514   7.297   8.811   7.932  0.1424  0.4386 -0.0275
  827MOL0     C11515   7.439   8.818   7.920 -0.7467 -0.3108 -0.1653
  827MOL0     C11516   7.511   8.723   7.852 -0.6439 -0.2250 -0.9638
  827MOL0     C11517   7.443   8.608   7.812 -1.1206 -0.4094 -0.1512
  827MOL0     O11518   7.491   8.504   7.728 -0.4167 -0.7480  0.1067
  827MOL0     C11519   7.638   8.485   7.717  1.0006  0.0220  0.4367
  827MOL0     C11520   7.696   8.442   7.851 -0.1155  0.1262  0.1447
  827MOL0     C11521   7.848   8.407   7.832 -0.0930  0.3135 -0.9128
  827MOL0     C11522   7.909   8.332   7.946  0.4720  0.7746 -0.1089
  827MOL0     C11523   8.033   8.240   7.896 -1.2830  0.5614 -0.3799
  827MOL0     C11524   8.112   8.201   8.010 -0.4639  1.2463 -0.3472
  827MOL0     C11525   8.242   8.130   7.957 -0.1774 -0.1278 -0.9045
  827MOL0     C11526   8.326   8.097   8.091  0.3007 -0.3303  0.1959
  827MOL0     N11527   8.313   7.956   8.137 -0.5521  0.3504 -0.9517
  827MOL0     C11528   8.242   7.925   8.253 -1.7419  0.1151 -0.3283
  827MOL0     C11529   8.279   7.796   8.281 -0.2392  0.4327  0.4985
  827MOL0     C11530   8.242   7.700   8.387 -0.2271 -1.3077  0.7989
  827MOL0     C11531   8.361   7.660   8.476 -0.4214 -0.5240 -0.2209
  827MOL0     C11532   8.317   7.588   8.603 -0.0597  0.8480 -0.2114
  827MOL0     C11533   8.439   7.577   8.699  0.0236  0.0658  0.1756
  827MOL0     O11534   8.562   7.549   8.630 -0.5669 -0.0669 -0.0130
  827MOL0     C11535   8.668   7.506   8.696 -0.7365  0.0933 -0.2771
  827MOL0     C11536   8.763   7.429   8.629 -0.1488 -0.5837  0.1336
  827MOL0     C11537   8.855   7.362   8.709 -0.1362  0.4249 -0.5725
  827MOL0     C11538   8.853   7.372   8.854 -0.5613  0.3476  0.1067
  827MOL0     C11539   8.954   7.290   8.931  0.4405  0.4954  0.4346
  827MOL0     O11540   9.027   7.191   8.857  0.2764  0.2302  0.5672
  827MOL0     C11541   9.108   7.112   8.928 -0.1818 -0.7917  1.3230
  827MOL0     C11542   9.065   6.997   8.994  0.7702 -0.9306  1.1161
  827MOL0     C11543   9.153   6.902   9.058 -1.0692 -0.6056  0.2369
  827MOL0     C11544   9.292   6.927   9.047  0.1368  0.4494  0.1095
  827MOL0     O11545   9.379   6.840   9.110 -0.0749 -0.1186  0.3113
  827MOL0     C11546   9.519   6.870   9.122  0.2590 -0.1769  0.3680
  827MOL0     C11547   9.574   6.761   9.212 -0.4967 -0.3435  0.2827
  827MOL0     C11548   9.585   6.801   9.362 -0.6052 -0.7808 -0.4225
  827MOL0     C11549   9.590   6.679   9.455 -0.2792 -0.2991 -0.9233
  827MOL0     C11550   9.633   6.706   9.605 -0.4364  0.4150  0.1549
  827MOL0     C11551   9.537   6.812   9.674 -0.3912  0.5241 -0.7163
  827MOL0     C11552   9.603   6.839   9.818 -0.3395  0.3330 -0.7667
  827MOL0     C11553   9.508   6.895   9.921  0.7810 -0.2983  1.2925
  827MOL0    Cl11554   9.474   7.066   9.866  0.3941  0.2378 -0.2319
  827MOL0     C11555   9.332   7.034   8.967 -0.0725  0.1886 -0.3032
  827MOL0     C11556   9.245   7.123   8.907 -0.3263  1.1283 -0.5581
  827MOL0     O11557   8.945   7.295   9.049 -0.2123 -0.0927  0.3214
  827MOL0     C11558   8.771   7.469   8.914 -1.0376  0.2334  0.1586
  827MOL0     C11559   8.680   7.531   8.833  0.0760 -1.3688 -0.9525
  827MOL0     N11560   8.373   7.758   8.193  0.0032  0.1714 -0.0852
  827MOL0     N11561   8.393   7.849   8.103 -0.4174  0.3060 -1.0369
  827MOL0     C11562   7.305   8.606   7.822 -0.2995  0.9735 -0.5275
  827MOL0     C11563   7.224   8.702   7.880 -0.6121 -0.4928 -0.2453
  827MOL0     C11564   7.172   9.153   8.008 -0.9681  0.6925  0.4118
  827MOL0     C11565   7.057   9.121   8.090  0.0052 -0.9547  0.3502
  827MOL0     C11566   6.982   9.220   8.140  0.2751  0.6745 -0.3299
  827MOL0     C11567   7.026   9.354   8.137  0.9936 -0.6246  0.0228
  827MOL0     O11568   6.951   9.452   8.194  0.5646 -0.2908 -0.4314
  827MOL0     C11569   6.992   9.489   8.325  1.0156  0.0333  0.1678
  827MOL0     C11570   6.942   9.382   8.422 -1.1928 -0.3756 -0.0759
  827MOL0     C11571   6.803   9.340   8.411  0.7956 -1.8376  0.8016
  827MOL0     C11572   6.705   9.462   8.440  0.3837  0.0662 -0.6361
  827MOL0     C11573   6.571   9.422   8.491 -0.0456  1.2540 -0.1758
  827MOL0     C11574   6.470   9.367   8.529  0.3566 -0.3223  0.1581
  827MOL0     C11575   7.136   9.384   8.057 -0.5721 -0.5272 -0.8629
  827MOL0     C11576   7.203   9.286   7.986  0.1779 -0.6425 -0.0663
  827MOL0     C11577   7.324   9.324   7.898 -0.3901 -0.4308 -0.2305
  827MOL0     H11578   7.495   8.901   7.960  1.4096 -2.5065  1.7286
  827MOL0     H11579   7.619   8.734   7.850 -0.6226  0.9916  1.8633
  827MOL0     H11580   7.657   8.410   7.640  2.4051  0.0484  0.7219
  827MOL0     H11581   7.686   8.578   7.684 -1.0481  1.2782  0.8094
  827MOL0     H11582   7.636   8.353   7.874 -0.8888  0.9949  1.5788
  827MOL0     H11583   7.677   8.512   7.932 -1.0313 -0.1544  0.1796
  827MOL0     H11584   7.892   8.504   7.805 -1.0721  1.0890  0.1722
  827MOL0     H11585   7.851   8.337   7.748  0.6398  1.9796 -2.3331
  827MOL0     H11586   7.936   8.401   8.027  0.6662  1.0707 -0.4216
  827MOL0     H11587   7.838   8.259   7.985  1.9277  0.1658  1.5035
  827MOL0     H11588   8.000   8.154   7.838 -0.6160 -1.0477  1.5176
  827MOL0     H11589   8.102   8.296   7.832  0.3977  0.0095  0.8847
  827MOL0     H11590   8.137   8.290   8.070 -1.7756  0.1327  1.9897
  827MOL0     H11591   8.051   8.139   8.076  3.1099 -1.6160  0.5778
  827MOL0     H11592   8.299   8.203   7.898 -0.8639  2.1405  1.1051
  827MOL0     H11593   8.217   8.037   7.905 -1.9737  0.2513 -0.7833
  827MOL0     H11594   8.430   8.127   8.074 -0.1933  0.7017 -1.2052
  827MOL0     H11595   8.292   8.158   8.175 -2.2982  1.5173 -2.0044
  827MOL0     H11596   8.176   7.993   8.306 -1.3223  1.6767 -1.7114
  827MOL0     H11597   8.160   7.752   8.437 -0.1028 -0.0728 -0.2383
  827MOL0     H11598   8.212   7.607   8.339 -0.0618 -0.5719 -0.7808
  827MOL0     H11599   8.429   7.598   8.417  0.6572 -3.7842  3.9818
  827MOL0     H11600   8.397   7.758   8.509  1.5443 -1.3405  0.2373
  827MOL0     H11601   8.259   7.497   8.587  0.7285  0.3316 -0.1794
  827MOL0     H11602   8.245   7.644   8.663 -0.7525 -1.4694  1.2668
  827MOL0     H11603   8.410   7.521   8.789 -0.5753  0.0663 -0.0158
  827MOL0     H11604   8.441   7.676   8.745  2.1534 -0.3371  1.0769
  827MOL0     H11605   8.771   7.417   8.522  2.8509  0.9981  0.0716
  827MOL0     H11606   8.927   7.293   8.667  2.3830 -0.5940  4.5658
  827MOL0     H11607   8.957   6.994   8.996  0.6572  1.5169  1.8534
  827MOL0     H11608   9.125   6.812   9.111 -1.0186  0.5737  2.3651
  827MOL0     H11609   9.563   6.865   9.022 -0.2600  3.7411 -0.2086
  827MOL0     H11610   9.538   6.967   9.169  1.4639 -0.5189  0.6200
  827MOL0     H11611   9.512   6.671   9.208  1.5828 -1.8219 -0.7855
  827MOL0     H11612   9.668   6.734   9.163 -0.7027 -0.6606  0.0522
  827MOL0     H11613   9.677   6.860   9.370 -0.0338 -1.6340 -0.6216
  827MOL0     H11614   9.504   6.872   9.381  0.2233  0.4849 -1.3902
  827MOL0     H11615   9.656   6.595   9.430  2.4570  0.6592  2.3881
  827MOL0     H11616   9.487   6.642   9.453 -0.9958  1.5355 -0.0423
  827MOL0     H11617   9.730   6.756   9.598 -0.8172  1.2246  0.5727
  827MOL0     H11618   9.635   6.616   9.668  0.2752 -0.3695 -0.9357
  827MOL0     H11619   9.508   6.896   9.610 -4.5246  0.0035  0.1507
  827MOL0     H11620   9.449   6.750   9.693  0.9333 -1.2030  0.0628
  827MOL0     H11621   9.690   6.903   9.799  0.0589 -0.6753 -2.5761
  827MOL0     H11622   9.635   6.739   9.851  0.5331  0.6416 -0.6358
  827MOL0     H11623   9.413   6.843   9.914  0.1305  0.9686  0.0415
  827MOL0     H11624   9.549   6.896  10.023  0.9798  1.5744  1.2409
  827MOL0     H11625   9.437   7.044   8.939  0.3402  1.8586  1.6454
  827MOL0     H11626   9.271   7.213   8.852 -0.6466  0.8613 -1.1570
  827MOL0     H11627   8.773   7.498   9.018 -3.9768  0.0090  0.3776
  827MOL0     H11628   8.614   7.608   8.871  0.7619  0.1359 -2.6621
  827MOL0     H11629   7.252   8.521   7.779 -1.0920  1.3579 -0.3266
  827MOL0     H11630   7.116   8.691   7.891 -0.4295 -0.0627  2.9575
  827MOL0     H11631   7.033   9.016   8.107 -1.6802 -0.7911 -0.7767
  827MOL0     H11632   6.904   9.181   8.204  0.0843  0.1610 -0.8698
  827MOL0     H11633   6.954   9.587   8.353  1.4316 -0.3641  2.2642
  827MOL0     H11634   7.101   9.479   8.330  1.2741  1.6985 -1.3019
  827MOL0     H11635   6.960   9.422   8.522 -0.2256  0.2738 -0.4906
  827MOL0     H11636   7.006   9.294   8.413  1.7829  1.4932  1.1478
  827MOL0     H11637   6.773   9.264   8.485 -1.1662 -0.8969  1.0581
  827MOL0     H11638   6.794   9.298   8.311 -1.5431  1.6283 -0.6573
  827MOL0     H11639   6.746   9.517   8.526 -1.8739 -0.5720  0.9507
  827MOL0     H11640   6.708   9.544   8.368 -3.0610  0.7224 -0.2079
  827MOL0     H11641   6.380   9.323   8.566  0.3704 -1.2325 -0.8201
  827MOL0     H11642   7.173   9.484   8.038 -2.8750  0.5132 -0.1440
  827MOL0     H11643   7.311   9.282   7.797 -1.2790 -2.3540  0.6239
  827MOL0     H11644   7.336   9.431   7.878  3.3944 -0.8113 -0.7895
  827MOL0     H11645   7.418   9.285   7.937  0.2430  0.9681 -0.3003
  828MOL0     O11646   4.212   9.256   8.456  0.0969  0.0510  0.3006
  828MOL0     C11647   4.174   9.240   8.572  0.0082  0.0512 -0.4396
  828MOL0     O11648   4.067   9.304   8.630  0.1363  0.5915  0.7330
  828MOL0     C11649   3.982   9.386   8.542 -0.7969 -0.1425 -0.4074
  828MOL0     C11650   3.854   9.350   8.517  0.3658  0.9810 -0.0363
  828MOL0     C11651   3.782   9.413   8.422 -1.1527  1.0991  0.5661
  828MOL0     C11652   3.839   9.529   8.363 -0.5437 -1.2029 -0.3340
  828MOL0     O11653   3.762   9.587   8.268  0.4281 -0.1628  0.7924
  828MOL0     C11654   3.739   9.727   8.253  0.0954  0.1863 -0.7484
  828MOL0     C11655   3.641   9.755   8.149  0.4709 -0.4727 -1.0285
  828MOL0     C11656   3.506   9.683   8.176  0.8551 -1.2912 -0.4793
  828MOL0     C11657   3.403   9.730   8.071 -1.2314 -0.0171 -0.4275
  828MOL0     C11658   3.268   9.665   8.105  0.3096 -0.0002  0.7609
  828MOL0     C11659   3.158   9.691   7.993 -0.2639 -0.5816 -0.1386
  828MOL0     C11660   3.127   9.843   7.986  0.6082  1.8798  0.7629
  828MOL0     C11661   2.997   9.869   7.909  1.2521  0.1524  0.2843
  828MOL0     N11662   2.879   9.787   7.940  0.8920  0.2542 -0.9002
  828MOL0     C11663   2.779   9.822   8.033 -0.8526 -0.8897  0.8278
  828MOL0     C11664   2.702   9.717   8.043 -0.1464 -0.0051  0.7148
  828MOL0     C11665   2.597   9.696   8.139  0.8226  0.6550 -1.1647
  828MOL0     C11666   2.496   9.583   8.107 -0.8911  0.3720  0.3317
  828MOL0     C11667   2.400   9.553   8.222 -0.1782 -0.0281  0.0375
  828MOL0     C11668   2.338   9.415   8.196  0.7402 -0.2770  0.7098
  828MOL0     O11669   2.264   9.423   8.069 -0.2289  0.0143 -0.6570
  828MOL0     C11670   2.129   9.442   8.081 -0.9495  0.2582 -0.3991
  828MOL0     C11671   2.074   9.571   8.059 -0.1864  0.4701 -0.6901
  828MOL0     C11672   1.941   9.584   8.089 -0.0876 -0.1086 -0.4213
  828MOL0     C11673   1.858   9.469   8.112  0.0175 -0.0353 -0.2116
  828MOL0     C11674   1.706   9.480   8.128 -0.3206  0.9169  0.0667
  828MOL0     O11675   1.653   9.602   8.127  0.0274  0.0993 -0.1288
  828MOL0     C11676   1.524   9.621   8.161 -0.3829  1.1395  1.1875
  828MOL0     C11677   1.494   9.684   8.281  0.0916 -1.4112 -0.4919
  828MOL0     C11678   1.362   9.697   8.321  0.6913 -0.0377 -0.7793
  828MOL0     C11679   1.255   9.663   8.234 -0.5054  0.2076 -1.8958
  828MOL0     O11680   1.120   9.681   8.283 -0.3005 -0.4180  0.2296
  828MOL0     C11681   1.019   9.687   8.185  0.0225  0.6709  0.3918
  828MOL0     C11682   0.905   9.763   8.237  0.7821 -0.3089  0.1969
  828MOL0     C11683   0.930   9.918   8.233  0.0249  0.5810 -0.7154
  828MOL0     C11684   1.022   9.984   8.330  0.4904  0.6253  0.3034
  828MOL0     C11685   0.974   9.961   8.474 -0.4121  0.6843 -0.8345
  828MOL0     C11686   1.096  10.008   8.565 -0.1199  0.0008  0.2932
  828MOL0     C11687   1.057  10.002   8.716 -0.9512  0.2695  0.0158
  828MOL0     C11688   1.161  10.062   8.807 -0.0320  0.6997  1.0917
  828MOL0    Cl11689   1.202  10.229   8.758  0.0475 -0.6669 -0.3213
  828MOL0     C11690   1.287   9.612   8.107  0.4361 -0.0907  0.0841
  828MOL0     C11691   1.420   9.585   8.077 -0.0468  0.2770 -0.1361
  828MOL0     O11692   1.639   9.377   8.148  0.3632 -0.4760 -0.7281
  828MOL0     C11693   1.921   9.345   8.129  0.1144 -0.1245 -0.4907
  828MOL0     C11694   2.058   9.331   8.113  0.4034 -0.0580 -0.9567
  828MOL0     N11695   2.747   9.619   7.949  0.1643 -0.0271 -0.8274
  828MOL0     N11696   2.845   9.666   7.885  0.6126 -0.7568  0.4549
  828MOL0     C11697   3.967   9.576   8.396  0.8608  0.6437 -1.1446
  828MOL0     C11698   4.047   9.494   8.483  0.2674 -0.1389  0.0297
  828MOL0     C11699   4.226   9.129   8.648 -0.3478  0.0354 -0.6593
  828MOL0     C11700   4.137   9.062   8.743  0.1920  0.3081  0.1372
  828MOL0     C11701   4.189   8.957   8.820 -0.2386  0.2982  0.5308
  828MOL0     C11702   4.316   8.905   8.816  0.0213  0.3023  0.4436
  828MOL0     O11703   4.356   8.815   8.904 -0.4397 -0.2438  0.6135
  828MOL0     C11704   4.271   8.703   8.935  0.2150 -0.0617  0.1719
  828MOL0     C11705   4.336   8.566   8.907  0.2002  0.5380 -0.0334
  828MOL0     C11706   4.441   8.531   9.006 -0.7951 -0.7356 -0.3843
  828MOL0     C11707   4.525   8.410   8.969 -0.6838  0.4526 -0.2520
  828MOL0     C11708   4.565   8.400   8.823 -0.2557 -0.0868 -0.0235
  828MOL0     C11709   4.583   8.407   8.707 -0.0294  0.7793 -0.1393
  828MOL0     C11710   4.395   8.971   8.726 -0.8960 -0.4540  0.9708
  828MOL0     C11711   4.349   9.072   8.643  0.1355 -0.8617 -0.6733
  828MOL0     C11712   4.461   9.140   8.565 -0.4304 -0.5705 -0.1399
  828MOL0     H11713   3.811   9.258   8.556  0.2117  0.2698 -1.7883
  828MOL0     H11714   3.684   9.380   8.387 -0.9279  0.9644  0.0542
  828MOL0     H11715   3.698   9.766   8.346 -3.1760  1.4289 -2.5517
  828MOL0     H11716   3.834   9.776   8.228  1.0268 -0.5055  1.2372
  828MOL0     H11717   3.681   9.733   8.050  1.9581  0.3748 -0.6462
  828MOL0     H11718   3.633   9.864   8.154  2.8873 -0.1762 -2.1248
  828MOL0     H11719   3.465   9.703   8.275  2.0462  3.2765 -0.6676
  828MOL0     H11720   3.524   9.575   8.177  0.8342 -1.3205  1.7071
  828MOL0     H11721   3.387   9.838   8.085 -1.3735 -0.2941  2.0984
  828MOL0     H11722   3.437   9.702   7.971 -0.9339 -1.1623 -0.0234
  828MOL0     H11723   3.288   9.558   8.109 -2.1353 -0.6691 -1.7256
  828MOL0     H11724   3.223   9.703   8.198 -2.2289  1.1373 -0.7968
  828MOL0     H11725   3.176   9.651   7.893 -0.3171  0.1478 -0.4455
  828MOL0     H11726   3.071   9.635   8.028  2.1129 -2.3964  3.4567
  828MOL0     H11727   3.213   9.889   7.936  2.0614 -1.3845 -0.0486
  828MOL0     H11728   3.099   9.874   8.087 -0.1911  3.4330  0.0930
  828MOL0     H11729   2.968   9.973   7.929  0.6087 -0.0297  0.3350
  828MOL0     H11730   3.020   9.861   7.802 -0.4508 -1.5901 -0.0095
  828MOL0     H11731   2.767   9.921   8.075 -2.2056 -0.2896 -0.8382
  828MOL0     H11732   2.644   9.692   8.238 -1.1615 -1.3845 -0.2013
  828MOL0     H11733   2.536   9.787   8.138  1.0893  0.9085  0.9126
  828MOL0     H11734   2.439   9.607   8.017 -0.0747  0.3854 -0.1905
  828MOL0     H11735   2.549   9.490   8.085  1.2743  2.0688 -2.0948
  828MOL0     H11736   2.329   9.632   8.250  0.1731 -0.7199  3.3041
  828MOL0     H11737   2.452   9.550   8.318 -1.4627  3.5377  0.9979
  828MOL0     H11738   2.277   9.389   8.283  0.0558  1.5934  0.8396
  828MOL0     H11739   2.417   9.342   8.179  0.8646  0.0908 -0.3466
  828MOL0     H11740   2.143   9.651   8.032 -1.3195  1.5202 -0.6022
  828MOL0     H11741   1.902   9.685   8.087  0.8690  0.2599 -1.6607
  828MOL0     H11742   1.568   9.717   8.353 -0.6284 -0.1420 -0.3004
  828MOL0     H11743   1.337   9.722   8.424 -4.7948 -0.7257 -1.6530
  828MOL0     H11744   1.040   9.734   8.088  0.8644  2.3521  1.3458
  828MOL0     H11745   0.997   9.581   8.168 -4.0091  1.9373 -5.3477
  828MOL0     H11746   0.811   9.751   8.184 -0.5392 -0.1033  2.3784
  828MOL0     H11747   0.875   9.731   8.338 -0.2174 -0.3651 -0.1115
  828MOL0     H11748   0.950   9.952   8.131 -0.1808 -1.4063 -1.4598
  828MOL0     H11749   0.829   9.957   8.253  0.0626 -0.1109  1.0209
  828MOL0     H11750   1.031  10.088   8.298 -1.4191  1.0827  1.1363
  828MOL0     H11751   1.116   9.929   8.334  0.4607  0.6043  0.8386
  828MOL0     H11752   0.967   9.854   8.495  0.9956  0.5418 -1.0123
  828MOL0     H11753   0.881  10.013   8.499  0.2371  0.5381  2.3682
  828MOL0     H11754   1.182   9.942   8.549 -1.6948 -2.2142  0.5965
  828MOL0     H11755   1.135  10.105   8.533  2.1094 -0.5035  1.2960
  828MOL0     H11756   1.033   9.899   8.744  0.3073 -0.3369 -1.0234
  828MOL0     H11757   0.967  10.065   8.725 -0.6746  0.4814  1.7250
  828MOL0     H11758   1.111  10.056   8.904 -1.6914 -2.3617  0.1794
  828MOL0     H11759   1.249   9.997   8.805 -0.7496 -0.2628 -0.2757
  828MOL0     H11760   1.205   9.576   8.046  1.7379 -2.6373 -0.3193
  828MOL0     H11761   1.434   9.533   7.982  0.3054 -0.5428  0.3570
  828MOL0     H11762   1.868   9.252   8.150  0.8133 -0.4666 -0.1819
  828MOL0     H11763   2.108   9.235   8.122  2.5152  1.0610  0.0145
  828MOL0     H11764   4.007   9.669   8.355 -0.1326  1.5784 -0.0839
  828MOL0     H11765   4.152   9.513   8.504  0.8037  1.1695 -3.2808
  828MOL0     H11766   4.034   9.093   8.761 -0.2106 -0.6170 -0.5261
  828MOL0     H11767   4.129   8.919   8.902  1.9348 -0.0049  2.0647
  828MOL0     H11768   4.179   8.708   8.876  0.4697  0.2798 -0.1975
  828MOL0     H11769   4.238   8.702   9.039 -0.1453 -2.1056  0.0704
  828MOL0     H11770   4.362   8.562   8.801 -3.0381  2.2643 -1.0387
  828MOL0     H11771   4.253   8.495   8.899  1.3365 -0.7732 -0.7396
  828MOL0     H11772   4.394   8.508   9.102 -0.4042 -1.2789 -0.3244
  828MOL0     H11773   4.511   8.616   9.008  2.0301 -2.7710 -3.1190
  828MOL0     H11774   4.625   8.418   9.012 -0.4277 -5.1450  0.9468
  828MOL0     H11775   4.482   8.314   9.001  1.2459 -0.3896 -0.0632
  828MOL0     H11776   4.610   8.400   8.604  3.3173 -1.1245  0.7367
  828MOL0     H11777   4.489   8.920   8.708  0.4226  2.3349 -0.7565
  828MOL0     H11778   4.552   9.085   8.589 -0.5124 -2.5068 -3.5937
  828MOL0     H11779   4.458   9.128   8.456 -2.6910  3.3109 -0.7020
  828MOL0     H11780   4.476   9.245   8.591  1.0177 -1.6092  3.9409
  829MOL0     O11781  11.291   5.124   9.274 -0.2101 -0.2067  0.1202
  829MOL0     C11782  11.216   5.173   9.189  0.0187  0.2876 -0.2949
  829MOL0     O11783  11.189   5.306   9.176 -0.4904 -0.3036 -0.0689
  829MOL0     C11784  11.235   5.401   9.267 -0.5215  0.7691  0.0901
  829MOL0     C11785  11.216   5.382   9.407 -0.0510 -0.1877  0.1901
  829MOL0     C11786  11.242   5.485   9.491 -0.3041 -1.0672 -0.0132
  829MOL0     C11787  11.286   5.610   9.452 -0.6990 -0.4436  0.4526
  829MOL0     O11788  11.299   5.723   9.544 -0.3723 -0.6364  0.6911
  829MOL0     C11789  11.236   5.838   9.505 -0.3636  0.1509  0.4323
  829MOL0     C11790  11.245   5.927   9.622 -0.2322 -0.1886  0.0936
  829MOL0     C11791  11.239   6.084   9.602 -0.4882 -0.0276  0.2263
  829MOL0     C11792  11.301   6.159   9.719 -0.2539 -0.0893 -0.6157
  829MOL0     C11793  11.316   6.312   9.691  0.3440 -0.2538  0.7031
  829MOL0     C11794  11.384   6.392   9.806  0.1778  1.0284 -0.0921
  829MOL0     C11795  11.340   6.539   9.805  0.0542  0.0866 -0.4317
  829MOL0     C11796  11.374   6.612   9.675 -0.5034  0.4537 -0.3506
  829MOL0     N11797  11.253   6.626   9.600 -0.2151 -0.6867  0.6780
  829MOL0     C11798  11.152   6.712   9.643  0.7005 -0.6838  0.0519
  829MOL0     C11799  11.044   6.679   9.566  0.4231  0.0401  0.6666
  829MOL0     C11800  10.913   6.750   9.564  0.2255  1.1244  0.0804
  829MOL0     C11801  10.789   6.666   9.594 -0.3370  0.2137  0.0345
  829MOL0     C11802  10.654   6.739   9.627 -0.1928 -0.1367 -1.2106
  829MOL0     C11803  10.665   6.772   9.777  0.0984  0.0925 -0.3230
  829MOL0     O11804  10.555   6.862   9.823  0.1111  1.1614  0.0072
  829MOL0     C11805  10.436   6.801   9.860 -0.5006  0.2334 -0.0875
  829MOL0     C11806  10.377   6.675   9.814  0.3327 -0.8891  0.0824
  829MOL0     C11807  10.261   6.625   9.874  0.0510  0.2069  0.2430
  829MOL0     C11808  10.189   6.700   9.959  0.2762  0.1651  0.8851
  829MOL0     C11809  10.056   6.646  10.009 -0.4410  0.5226  0.0781
  829MOL0     O11810  10.005   6.718  10.112 -0.1051 -0.2540 -0.5279
  829MOL0     C11811   9.881   6.691  10.164 -0.0089 -0.8499  0.3250
  829MOL0     C11812   9.849   6.692  10.297 -0.0454 -0.2887 -0.3244
  829MOL0     C11813   9.723   6.659  10.350 -0.8865 -0.1501 -0.2008
  829MOL0     C11814   9.612   6.636  10.266 -0.3177  1.3229  0.3440
  829MOL0     O11815   9.485   6.608  10.321 -0.6193 -0.0058  0.3819
  829MOL0     C11816   9.373   6.576  10.241 -0.5126 -0.0809  0.9035
  829MOL0     C11817   9.247   6.548  10.332  0.3972 -0.8680  0.4603
  829MOL0     C11818   9.271   6.433  10.430  1.4652  0.0359 -0.1249
  829MOL0     C11819   9.145   6.395  10.506  0.0041  0.9546  0.3626
  829MOL0     C11820   9.171   6.277  10.612  0.6196 -0.0758  0.9931
  829MOL0     C11821   9.044   6.227  10.667 -0.4516  0.4307 -0.6343
  829MOL0     C11822   9.057   6.106  10.766 -0.6166  0.5123 -0.1110
  829MOL0     C11823   9.099   5.980  10.700  0.2052  0.6658  0.5466
  829MOL0    Cl11824   9.137   5.866  10.832  0.1971  0.0565  0.0229
  829MOL0     C11825   9.642   6.617  10.131 -0.0923  0.1217  0.1865
  829MOL0     C11826   9.773   6.651  10.080  0.4833 -0.1096 -0.0538
  829MOL0     O11827  10.001   6.543   9.955  0.1364  0.2596 -0.0638
  829MOL0     C11828  10.239   6.827   9.997 -0.2726  0.0704 -0.0758
  829MOL0     C11829  10.366   6.876   9.955  0.9882 -0.3932 -0.0853
  829MOL0     N11830  11.077   6.576   9.476 -0.6637  1.5764 -0.3481
  829MOL0     N11831  11.213   6.553   9.492  0.4374  0.6591 -0.4463
  829MOL0     C11832  11.315   5.628   9.308  0.6219  0.4254 -0.4979
  829MOL0     C11833  11.284   5.519   9.218  0.1643  0.1870  0.1629
  829MOL0     C11834  11.133   5.081   9.103  0.6756 -0.0042 -0.4408
  829MOL0     C11835  10.991   5.086   9.094  0.5604  0.7020  0.3526
  829MOL0     C11836  10.904   4.999   9.012  0.1024  0.1855 -0.2047
  829MOL0     C11837  10.976   4.900   8.936  0.1216 -0.1119 -0.3155
  829MOL0     O11838  10.912   4.810   8.854  0.1815 -0.3843  0.0888
  829MOL0     C11839  10.771   4.793   8.868  0.5379 -0.2997  0.2767
  829MOL0     C11840  10.733   4.678   8.767 -0.1605 -0.2204 -0.1343
  829MOL0     C11841  10.749   4.724   8.623  1.1019  0.4574 -0.7777
  829MOL0     C11842  10.606   4.740   8.549  0.4115 -0.2754 -0.1674
  829MOL0     C11843  10.534   4.863   8.567  0.7063  0.0489  0.0492
  829MOL0     C11844  10.483   4.967   8.605  0.1968 -0.5999 -0.3308
  829MOL0     C11845  11.110   4.882   8.962 -0.0503 -0.6416 -0.1674
  829MOL0     C11846  11.193   4.974   9.034  0.5696  0.1116  0.3291
  829MOL0     C11847  11.336   4.951   9.039  0.3531 -0.2945 -0.2877
  829MOL0     H11848  11.175   5.287   9.437  2.5526 -1.5872 -0.3469
  829MOL0     H11849  11.230   5.466   9.597  3.0595 -0.6056  0.5626
  829MOL0     H11850  11.292   5.867   9.416  1.3877 -1.9568  0.7780
  829MOL0     H11851  11.135   5.810   9.472 -0.6024 -2.9169  3.2451
  829MOL0     H11852  11.349   5.910   9.650  1.5995  0.6933 -5.1506
  829MOL0     H11853  11.183   5.892   9.705  0.0988  0.4872  0.6375
  829MOL0     H11854  11.132   6.109   9.601 -1.5283 -3.6562  2.0630
  829MOL0     H11855  11.304   6.104   9.517 -1.4017 -2.4081 -1.1577
  829MOL0     H11856  11.248   6.142   9.813 -0.8248  0.6791 -0.7914
  829MOL0     H11857  11.400   6.114   9.737 -1.1369 -1.2774  1.6630
  829MOL0     H11858  11.369   6.333   9.597  0.1453  2.5377  1.1272
  829MOL0     H11859  11.216   6.351   9.672  0.2799 -1.3785 -1.5695
  829MOL0     H11860  11.354   6.356   9.905  1.7194 -0.4442 -0.1321
  829MOL0     H11861  11.492   6.383   9.802  0.1485 -0.6151  1.5512
  829MOL0     H11862  11.387   6.592   9.888 -0.3440  1.0008 -0.7753
  829MOL0     H11863  11.233   6.540   9.829 -0.1626  3.5804 -1.0020
  829MOL0     H11864  11.413   6.704   9.719  1.9853 -0.5306 -0.3011
  829MOL0     H11865  11.460   6.559   9.633  0.1300  0.2259  1.1822
  829MOL0     H11866  11.148   6.784   9.724 -3.0595 -0.8037  0.1820
  829MOL0     H11867  10.920   6.836   9.631 -0.9807  2.8670 -1.9232
  829MOL0     H11868  10.908   6.770   9.457 -0.7822 -2.4162 -0.6524
  829MOL0     H11869  10.766   6.600   9.509  0.2606 -2.1051  1.5853
  829MOL0     H11870  10.803   6.594   9.675  1.3225  1.1447  0.6251
  829MOL0     H11871  10.579   6.665   9.597  0.9459 -0.8657 -2.4089
  829MOL0     H11872  10.650   6.826   9.560  1.2872  1.6266  0.8469
  829MOL0     H11873  10.759   6.824   9.799  1.0687 -1.7320 -0.0048
  829MOL0     H11874  10.673   6.678   9.832  0.6125  0.8631  0.9908
  829MOL0     H11875  10.415   6.615   9.732 -2.5136 -3.9482  0.8281
  829MOL0     H11876  10.221   6.530   9.840 -2.0810  1.8588 -2.1919
  829MOL0     H11877   9.931   6.711  10.366  1.4512 -0.5299 -1.9872
  829MOL0     H11878   9.704   6.644  10.456  0.8837 -0.9195  0.0531
  829MOL0     H11879   9.357   6.656  10.168 -0.4632 -0.3139  0.6392
  829MOL0     H11880   9.401   6.482  10.193 -0.1834 -1.3587  3.4024
  829MOL0     H11881   9.239   6.641  10.391 -0.7776  0.7518 -2.0900
  829MOL0     H11882   9.161   6.538  10.266 -0.8100 -0.6108  1.9386
  829MOL0     H11883   9.314   6.349  10.375  0.4122 -2.0511  2.0814
  829MOL0     H11884   9.343   6.465  10.506  3.2259 -1.6202 -1.0067
  829MOL0     H11885   9.074   6.375  10.425  0.3187  1.9292 -0.1796
  829MOL0     H11886   9.113   6.478  10.570 -0.7099  1.2260 -0.3188
  829MOL0     H11887   9.242   6.323  10.681  1.4945  1.4032 -0.8059
  829MOL0     H11888   9.223   6.197  10.557  0.8640  0.1138  0.9486
  829MOL0     H11889   9.002   6.314  10.719 -1.0469  1.5684 -2.8959
  829MOL0     H11890   8.975   6.201  10.586 -1.6546 -3.2547  1.3435
  829MOL0     H11891   8.955   6.095  10.805 -0.6351 -1.4206 -0.5751
  829MOL0     H11892   9.134   6.129  10.840  1.1507 -0.9194 -1.4393
  829MOL0     H11893   9.019   5.929  10.646 -0.1544  1.1818  0.5836
  829MOL0     H11894   9.184   5.993  10.632  0.7463 -3.4146  0.2013
  829MOL0     H11895   9.561   6.583  10.068  0.9255 -1.0589 -0.5369
  829MOL0     H11896   9.776   6.629   9.974 -0.5111  0.3641 -0.1963
  829MOL0     H11897  10.176   6.892  10.058  1.1802  3.1902 -1.6647
  829MOL0     H11898  10.394   6.975   9.991 -1.4962  0.4323 -0.1963
  829MOL0     H11899  11.360   5.719   9.270 -1.0065  1.0157 -1.0948
  829MOL0     H11900  11.312   5.541   9.116  0.6579 -1.3544 -0.0602
  829MOL0     H11901  10.944   5.164   9.153  1.8000  1.1007  0.8609
  829MOL0     H11902  10.799   5.023   8.998 -0.1084  1.1579  2.4131
  829MOL0     H11903  10.722   4.890   8.858  3.1083  1.0699  0.2016
  829MOL0     H11904  10.742   4.759   8.968  2.5004  1.3066  1.4723
  829MOL0     H11905  10.636   4.640   8.800  1.1266 -0.8499  3.4351
  829MOL0     H11906  10.798   4.592   8.784 -1.8347 -1.6185 -0.5524
  829MOL0     H11907  10.801   4.642   8.574 -1.8164 -0.5656 -2.3977
  829MOL0     H11908  10.813   4.811   8.608  1.0499  0.3512 -1.6216
  829MOL0     H11909  10.624   4.707   8.447  0.5857 -0.7778  0.0220
  829MOL0     H11910  10.537   4.672   8.598 -0.1865 -0.8726 -1.7789
  829MOL0     H11911  10.444   5.067   8.613  1.0684 -0.2821  0.0961
  829MOL0     H11912  11.163   4.799   8.916  0.9887 -1.7822  2.8252
  829MOL0     H11913  11.360   4.932   9.144  0.4985 -1.5185 -0.5154
  829MOL0     H11914  11.363   4.861   8.982  0.7528 -0.8601  0.7656
  829MOL0     H11915  11.390   5.042   9.011 -2.5953  1.4483 -0.7279
  830MOL0     O11916  11.378   7.096   7.292  0.0819  0.8660  0.4418
  830MOL0     C11917  11.458   7.188   7.308 -0.4325  0.1561 -0.1825
  830MOL0     O11918  11.588   7.176   7.291 -0.0660  0.2707  0.2719
  830MOL0     C11919  11.637   7.058   7.241  0.6286  0.1821  1.4709
  830MOL0     C11920  11.699   6.954   7.308 -0.1806  0.2437 -0.3399
  830MOL0     C11921  11.730   6.833   7.236  0.6304  0.2258 -0.1858
  830MOL0     C11922  11.697   6.817   7.104 -0.4516  0.1481  0.0652
  830MOL0     O11923  11.722   6.694   7.046  0.6828  0.0652 -0.0672
  830MOL0     C11924  11.725   6.689   6.895  0.1717 -0.5028 -0.1966
  830MOL0     C11925  11.741   6.541   6.883  0.0395 -0.2729 -0.6712
  830MOL0     C11926  11.606   6.469   6.892  0.7050  0.1558 -0.3929
  830MOL0     C11927  11.613   6.317   6.864 -0.1544 -1.2470  0.4421
  830MOL0     C11928  11.480   6.254   6.826 -0.4361  0.3720  0.9632
  830MOL0     C11929  11.496   6.108   6.796  0.1273 -0.8588 -0.7519
  830MOL0     C11930  11.356   6.044   6.772  0.0181  0.5272 -0.2441
  830MOL0     C11931  11.362   5.898   6.788  0.0865 -0.5416  0.1109
  830MOL0     N11932  11.275   5.807   6.714  0.2900 -0.1451 -0.1806
  830MOL0     C11933  11.181   5.717   6.759  0.0957 -0.1597 -0.0597
  830MOL0     C11934  11.147   5.644   6.647 -0.6905  0.4345 -0.0128
  830MOL0     C11935  11.041   5.537   6.633 -1.2083  0.2006  0.2171
  830MOL0     C11936  10.904   5.616   6.629 -0.3610 -0.4091 -0.1842
  830MOL0     C11937  10.781   5.521   6.620  0.7976 -0.2067 -0.8587
  830MOL0     C11938  10.761   5.442   6.750 -0.3797 -0.9042  0.7176
  830MOL0     O11939  10.768   5.530   6.864 -0.4332 -0.5976  0.2178
  830MOL0     C11940  10.650   5.559   6.915  0.1307  0.9565 -0.9310
  830MOL0     C11941  10.634   5.527   7.060  0.0960  0.8535  0.4587
  830MOL0     C11942  10.526   5.585   7.125 -0.5510  0.6293  0.2129
  830MOL0     C11943  10.429   5.658   7.048  0.5715  0.2130 -0.2785
  830MOL0     C11944  10.308   5.718   7.127  0.6703  0.3517  0.9145
  830MOL0     O11945  10.289   5.680   7.256  0.4938  0.1810 -0.0269
  830MOL0     C11946  10.171   5.710   7.321 -0.4489 -0.2767 -0.8178
  830MOL0     C11947  10.045   5.704   7.268  1.0754 -0.6928 -0.8483
  830MOL0     C11948   9.926   5.724   7.349 -0.4091  0.7531  0.3400
  830MOL0     C11949   9.938   5.734   7.490 -0.7705  0.8012 -0.3896
  830MOL0     O11950   9.842   5.747   7.579  0.0456  0.3601 -0.0074
  830MOL0     C11951   9.815   5.880   7.605 -0.1361  0.9869 -0.0363
  830MOL0     C11952   9.671   5.900   7.650  0.2510 -0.2876 -0.6788
  830MOL0     C11953   9.642   5.854   7.790  0.0312 -0.2422  0.5553
  830MOL0     C11954   9.699   5.940   7.898 -0.3127 -0.4453  0.2799
  830MOL0     C11955   9.641   5.921   8.036 -1.4069 -0.1433  0.5106
  830MOL0     C11956   9.626   5.769   8.090  0.0722 -0.2195 -0.1636
  830MOL0     C11957   9.574   5.745   8.238  0.2179  0.5198  1.2687
  830MOL0     C11958   9.678   5.795   8.345  0.4206  0.1034  0.7394
  830MOL0    Cl11959   9.623   5.774   8.517  0.0130  0.1878  0.3229
  830MOL0     C11960  10.067   5.745   7.537  0.8206 -0.2059 -0.4862
  830MOL0     C11961  10.177   5.720   7.465 -0.3129 -0.0789 -0.5742
  830MOL0     O11962  10.227   5.792   7.061 -0.0799  0.2969 -0.3296
  830MOL0     C11963  10.449   5.679   6.910  0.4985 -0.8926 -0.1796
  830MOL0     C11964  10.559   5.643   6.839 -0.6735  0.0325 -0.4594
  830MOL0     N11965  11.222   5.692   6.540 -0.0181 -0.5033 -0.6629
  830MOL0     N11966  11.303   5.792   6.580 -0.2400 -0.2844 -0.0566
  830MOL0     C11967  11.650   6.929   7.036 -0.2132 -0.3982 -1.2932
  830MOL0     C11968  11.616   7.044   7.102  0.6905  1.0350 -0.4317
  830MOL0     C11969  11.412   7.311   7.367 -0.1083  0.1029  0.6217
  830MOL0     C11970  11.494   7.395   7.442 -0.1544 -0.9795  0.1335
  830MOL0     C11971  11.453   7.520   7.491  0.8259 -0.4088  0.0088
  830MOL0     C11972  11.319   7.559   7.476  0.2179 -0.2429 -0.3645
  830MOL0     O11973  11.267   7.653   7.554  0.9471  0.3758 -0.3616
  830MOL0     C11974  11.134   7.707   7.540 -0.3060  0.2002 -0.1512
  830MOL0     C11975  11.105   7.828   7.612 -0.4181 -1.1214 -0.1957
  830MOL0     C11976  11.209   7.937   7.606  0.0175  0.5040  1.1730
  830MOL0     C11977  11.259   7.965   7.459  0.3742  0.1498  0.4783
  830MOL0     C11978  11.146   8.012   7.378 -1.1170  0.4429  0.5893
  830MOL0     C11979  11.059   8.057   7.309  0.1050  0.0405 -0.6745
  830MOL0     C11980  11.233   7.474   7.404  0.4628  0.2324  0.4288
  830MOL0     C11981  11.279   7.353   7.348  1.3388 -0.7608 -0.2131
  830MOL0     C11982  11.165   7.287   7.274  0.2399 -0.1474  0.3225
  830MOL0     H11983  11.717   6.952   7.415  0.5086  2.3186 -0.3894
  830MOL0     H11984  11.774   6.754   7.297 -0.6498 -2.1579 -2.1367
  830MOL0     H11985  11.632   6.717   6.845 -2.2094 -1.3597  3.3848
  830MOL0     H11986  11.813   6.738   6.853 -2.0362  1.0783 -3.4387
  830MOL0     H11987  11.800   6.500   6.965 -0.0815 -2.9732 -1.8390
  830MOL0     H11988  11.786   6.519   6.786  2.0550 -1.8547  0.5660
  830MOL0     H11989  11.540   6.510   6.815 -1.0995 -1.8776 -0.0340
  830MOL0     H11990  11.561   6.489   6.990 -2.5888  0.0277 -1.7620
  830MOL0     H11991  11.683   6.305   6.780 -0.6182  0.3079 -0.2116
  830MOL0     H11992  11.658   6.267   6.951 -0.9980 -1.9937  0.4618
  830MOL0     H11993  11.400   6.251   6.901 -1.3588 -0.9183 -0.0338
  830MOL0     H11994  11.442   6.307   6.739 -3.0119 -1.0776  1.0809
  830MOL0     H11995  11.557   6.098   6.706  1.0590 -1.5276 -0.0638
  830MOL0     H11996  11.544   6.058   6.881 -1.1812 -0.2369  0.3806
  830MOL0     H11997  11.321   6.075   6.673  0.1701 -0.9975 -0.7998
  830MOL0     H11998  11.278   6.085   6.838  1.2262  0.9616  0.9621
  830MOL0     H11999  11.460   5.860   6.759 -0.5067 -1.4700 -0.7710
  830MOL0     H12000  11.355   5.883   6.896 -1.9640  0.2350  0.1351
  830MOL0     H12001  11.158   5.706   6.865 -0.3645  2.3563  0.1716
  830MOL0     H12002  11.057   5.470   6.547 -2.3807  0.8090 -0.4983
  830MOL0     H12003  11.039   5.472   6.721 -2.0422 -0.8332 -0.5364
  830MOL0     H12004  10.904   5.688   6.711 -0.4652  0.2063 -0.7171
  830MOL0     H12005  10.903   5.680   6.541  0.3725 -2.3222 -1.6492
  830MOL0     H12006  10.788   5.448   6.538  1.1616  0.6614 -1.6148
  830MOL0     H12007  10.697   5.587   6.597 -0.5398 -1.7046 -0.4630
  830MOL0     H12008  10.844   5.371   6.754  0.8909  0.5814  1.5699
  830MOL0     H12009  10.664   5.391   6.747 -1.2339  0.6543 -3.0827
  830MOL0     H12010  10.717   5.475   7.106 -0.0476 -0.0657 -0.2746
  830MOL0     H12011  10.518   5.558   7.230  1.5636 -0.4591  0.1572
  830MOL0     H12012  10.022   5.685   7.163 -0.6854  0.6113 -0.7440
  830MOL0     H12013   9.831   5.714   7.297 -0.3582  0.6749  0.2610
  830MOL0     H12014   9.884   5.930   7.672 -1.2106  4.7446 -1.4764
  830MOL0     H12015   9.821   5.935   7.511  1.1756  0.6168 -0.1892
  830MOL0     H12016   9.654   6.007   7.634  1.0023 -0.1464 -0.5801
  830MOL0     H12017   9.607   5.860   7.571  1.5882 -2.1928 -0.8489
  830MOL0     H12018   9.534   5.839   7.797 -0.1073 -1.3588 -2.2747
  830MOL0     H12019   9.677   5.751   7.801 -2.6729 -1.3899 -0.7005
  830MOL0     H12020   9.701   6.047   7.875  0.1518  0.3102  3.3412
  830MOL0     H12021   9.805   5.911   7.906 -0.5381 -0.9331  2.0728
  830MOL0     H12022   9.546   5.976   8.032 -2.6873 -2.2631 -2.1372
  830MOL0     H12023   9.704   5.978   8.105 -1.5290  0.8437 -0.1700
  830MOL0     H12024   9.560   5.717   8.021 -0.1483  1.2101 -1.0731
  830MOL0     H12025   9.723   5.721   8.074  1.1186  1.2567  1.3633
  830MOL0     H12026   9.555   5.638   8.254  2.6187  0.1264  1.8781
  830MOL0     H12027   9.478   5.795   8.255 -1.9728 -2.8019 -0.2698
  830MOL0     H12028   9.764   5.734   8.316 -0.9801 -1.9194  0.7052
  830MOL0     H12029   9.691   5.901   8.320  1.6357 -0.2028 -0.0097
  830MOL0     H12030  10.086   5.741   7.644  1.9143 -4.5251 -0.6303
  830MOL0     H12031  10.273   5.705   7.514 -0.7094 -1.2297 -0.1136
  830MOL0     H12032  10.385   5.758   6.872 -0.7769 -0.6090  2.3283
  830MOL0     H12033  10.595   5.680   6.744  1.4429 -0.8527 -0.0641
  830MOL0     H12034  11.639   6.915   6.929  2.1360 -1.4206 -1.4626
  830MOL0     H12035  11.569   7.123   7.045 -2.5642 -2.5928 -3.3231
  830MOL0     H12036  11.601   7.380   7.456  0.4284  0.9493 -1.7076
  830MOL0     H12037  11.514   7.586   7.553 -0.7781  2.6189 -1.4152
  830MOL0     H12038  11.064   7.630   7.573 -0.3721 -0.9307 -2.7303
  830MOL0     H12039  11.112   7.734   7.436 -1.3333  0.1474  0.0430
  830MOL0     H12040  11.110   7.794   7.716  2.7019 -1.7424 -0.4326
  830MOL0     H12041  11.011   7.867   7.573  1.1430  1.4438 -1.6883
  830MOL0     H12042  11.294   7.906   7.668 -2.1414 -1.0152  3.6174
  830MOL0     H12043  11.162   8.021   7.657 -3.8587 -0.6150 -0.2021
  830MOL0     H12044  11.335   8.044   7.464  1.4042 -0.8672  1.3788
  830MOL0     H12045  11.306   7.880   7.409  2.5548  0.9733  0.9901
  830MOL0     H12046  10.988   8.098   7.239 -0.2527 -0.6023 -0.6977
  830MOL0     H12047  11.128   7.501   7.406  0.6030  1.1417 -1.6201
  830MOL0     H12048  11.082   7.351   7.245  1.4535  1.2360 -0.2390
  830MOL0     H12049  11.203   7.241   7.182  0.6375 -0.8264  0.8068
  830MOL0     H12050  11.114   7.211   7.333  0.3238 -0.3300  0.1625
  831MOL0     O12051   9.284   8.574   9.628 -0.1364 -0.2182 -0.4142
  831MOL0     C12052   9.306   8.536   9.742 -0.1655 -0.3802  0.4857
  831MOL0     O12053   9.414   8.459   9.775  0.2004  0.0850  0.3962
  831MOL0     C12054   9.503   8.406   9.677  0.1318 -0.6099 -0.0075
  831MOL0     C12055   9.634   8.387   9.716  0.3805 -0.4077  0.1494
  831MOL0     C12056   9.721   8.319   9.630  0.0246  0.9237 -0.8029
  831MOL0     C12057   9.674   8.265   9.512  0.6027  0.2808 -0.0239
  831MOL0     O12058   9.767   8.190   9.438 -0.3853 -0.5624  0.4810
  831MOL0     C12059   9.770   8.198   9.296 -0.6755 -1.1923 -0.4816
  831MOL0     C12060   9.899   8.162   9.230  0.2536 -0.0886 -0.5454
  831MOL0     C12061   9.946   8.017   9.239  0.8659  0.9845  0.4869
  831MOL0     C12062   9.877   7.921   9.131  0.1974  0.6332 -0.3596
  831MOL0     C12063   9.892   7.785   9.190 -0.8665  0.1255  0.2446
  831MOL0     C12064   9.797   7.747   9.314  0.1767  0.3416  1.1749
  831MOL0     C12065   9.664   7.817   9.315  0.6642  1.0771 -0.0506
  831MOL0     C12066   9.547   7.757   9.394 -0.9121 -0.1839  0.2216
  831MOL0     N12067   9.427   7.835   9.377  0.5874  0.3695 -0.4411
  831MOL0     C12068   9.395   7.959   9.438  1.0092 -0.0505  0.4775
  831MOL0     C12069   9.260   7.956   9.420 -0.3628 -0.2982  0.0276
  831MOL0     C12070   9.175   8.068   9.474  1.1876 -0.4505  0.3949
  831MOL0     C12071   9.207   8.111   9.614  0.0707  0.3053 -0.2564
  831MOL0     C12072   9.123   8.225   9.672  0.2109 -0.6230  0.5520
  831MOL0     C12073   8.989   8.192   9.725  0.0565 -0.3150  0.1894
  831MOL0     O12074   8.988   8.080   9.818 -0.3152  0.5930 -0.5008
  831MOL0     C12075   8.869   8.059   9.888 -1.4771  0.1903  0.1839
  831MOL0     C12076   8.745   8.117   9.869 -0.5948 -0.8102  0.8938
  831MOL0     C12077   8.632   8.079   9.923  0.1503  0.7190  0.6957
  831MOL0     C12078   8.631   7.977  10.014 -0.0303  0.3416 -1.1354
  831MOL0     C12079   8.513   7.934  10.087 -0.6150 -0.0779  1.1509
  831MOL0     O12080   8.412   8.026  10.073  0.4206  0.1899 -0.4224
  831MOL0     C12081   8.320   8.048  10.175 -1.3277  1.0830 -0.8872
  831MOL0     C12082   8.339   8.025  10.312  0.1593  0.3913  0.2414
  831MOL0     C12083   8.231   8.030  10.404 -0.8138 -0.5263 -0.3603
  831MOL0     C12084   8.105   8.070  10.355  0.0762  0.0482  0.7567
  831MOL0     O12085   7.995   8.074  10.433 -0.0349 -0.0244 -0.1862
  831MOL0     C12086   7.990   8.035  10.573  0.0105 -0.0384 -0.2279
  831MOL0     C12087   7.844   8.061  10.628 -0.5459 -0.3056 -0.0051
  831MOL0     C12088   7.857   8.058  10.784  0.0997 -0.4448  0.1280
  831MOL0     C12089   7.721   8.121  10.843 -0.2961 -0.2577 -0.4834
  831MOL0     C12090   7.722   8.142  10.996  0.4446  0.2157  0.3919
  831MOL0     C12091   7.723   8.002  11.059  0.3303  0.5857  0.8724
  831MOL0     C12092   7.711   8.011  11.210 -0.2274 -0.6497  0.0829
  831MOL0     C12093   7.694   7.867  11.267  0.0290  0.6478 -0.6061
  831MOL0    Cl12094   7.833   7.767  11.204  0.2045  0.3635 -0.2093
  831MOL0     C12095   8.090   8.097  10.218 -0.1264 -0.3146 -0.3540
  831MOL0     C12096   8.197   8.089  10.132  0.0466 -0.4306 -0.6275
  831MOL0     O12097   8.518   7.843  10.160 -0.9197  0.2076 -0.0575
  831MOL0     C12098   8.753   7.912  10.038 -0.2197 -0.0077  1.1285
  831MOL0     C12099   8.874   7.958   9.977  0.1806 -1.1427  0.7804
  831MOL0     N12100   9.217   7.842   9.356  0.7825 -0.6905 -0.3584
  831MOL0     N12101   9.321   7.771   9.331 -0.7122  0.4843  0.2340
  831MOL0     C12102   9.551   8.287   9.468 -0.2888 -0.6271 -0.6413
  831MOL0     C12103   9.460   8.358   9.549 -0.2051  0.1807  0.3494
  831MOL0     C12104   9.208   8.561   9.854 -0.5929 -1.0720 -0.6839
  831MOL0     C12105   9.257   8.546   9.986 -0.5720  0.1276 -0.3705
  831MOL0     C12106   9.178   8.546  10.100 -0.8603 -0.8385  0.4572
  831MOL0     C12107   9.049   8.581  10.086  0.0968 -0.3406 -0.0658
  831MOL0     O12108   8.971   8.590  10.202 -0.6956  0.2888 -0.2861
  831MOL0     C12109   8.830   8.597  10.201 -0.4007 -0.0753 -0.3574
  831MOL0     C12110   8.770   8.463  10.195 -0.6645  0.6530 -0.6513
  831MOL0     C12111   8.634   8.451  10.270 -0.8741 -0.1548 -0.5846
  831MOL0     C12112   8.570   8.298  10.267  0.0539 -0.4066 -0.2532
  831MOL0     C12113   8.675   8.198  10.301  0.1159  0.0132  0.1228
  831MOL0     C12114   8.772   8.123  10.296 -0.4014 -0.4147  0.6240
  831MOL0     C12115   8.991   8.602   9.957 -0.1006  0.3254  0.0032
  831MOL0     C12116   9.069   8.595   9.839  0.8908  0.1748  0.6798
  831MOL0     C12117   8.992   8.617   9.710 -0.0583 -0.0493  0.6281
  831MOL0     H12118   9.664   8.417   9.816 -0.2501  2.9135 -0.5559
  831MOL0     H12119   9.829   8.313   9.630  0.0804  0.6399 -3.1887
  831MOL0     H12120   9.694   8.137   9.247 -0.4670 -2.6464  0.9090
  831MOL0     H12121   9.750   8.299   9.258 -0.6474 -1.1542 -0.3945
  831MOL0     H12122   9.974   8.225   9.279 -2.5053  4.1231 -1.2298
  831MOL0     H12123   9.906   8.176   9.122  0.8795 -0.9354 -0.6224
  831MOL0     H12124   9.923   7.989   9.342  1.0640  0.6644  0.4458
  831MOL0     H12125  10.053   8.028   9.222  0.3637  2.6977 -2.1054
  831MOL0     H12126   9.773   7.950   9.117  0.2136  2.3530  2.3189
  831MOL0     H12127   9.912   7.919   9.027 -1.7044 -1.6761 -1.0220
  831MOL0     H12128   9.857   7.728   9.103 -4.3732  0.2585  1.4046
  831MOL0     H12129   9.996   7.762   9.215 -1.6963 -1.3783  2.6896
  831MOL0     H12130   9.787   7.638   9.311  1.8061  0.1835  0.1536
  831MOL0     H12131   9.854   7.773   9.404  1.6569  1.4386 -0.0173
  831MOL0     H12132   9.632   7.826   9.211 -1.8294 -2.6741  0.1945
  831MOL0     H12133   9.672   7.920   9.350  0.8120  1.4048 -1.0317
  831MOL0     H12134   9.541   7.652   9.366  1.7709  0.1500 -2.0819
  831MOL0     H12135   9.566   7.758   9.501 -2.6839  2.7674  0.6275
  831MOL0     H12136   9.465   8.037   9.468  0.4128  0.5585  0.3080
  831MOL0     H12137   9.172   8.151   9.403  0.4328  1.6529  2.7656
  831MOL0     H12138   9.074   8.024   9.479  1.2411 -0.8034 -1.0674
  831MOL0     H12139   9.182   8.026   9.679 -1.3430 -0.0946 -1.2707
  831MOL0     H12140   9.314   8.132   9.617  0.1979 -0.4274  1.2586
  831MOL0     H12141   9.105   8.306   9.600 -2.0593 -0.4844  1.2037
  831MOL0     H12142   9.182   8.279   9.747  2.6981  0.6711 -2.1364
  831MOL0     H12143   8.934   8.153   9.638  0.7258  0.4418 -0.5869
  831MOL0     H12144   8.942   8.284   9.760  1.9420  1.0844 -0.7576
  831MOL0     H12145   8.733   8.200   9.800  0.2362  0.4556  2.2244
  831MOL0     H12146   8.540   8.124   9.888  0.7063 -0.0158 -1.9352
  831MOL0     H12147   8.432   7.980  10.346 -1.0941 -3.2560 -0.7531
  831MOL0     H12148   8.245   8.001  10.508  1.0110  0.9769 -0.1404
  831MOL0     H12149   8.009   7.929  10.592  2.6692  0.5528  0.8205
  831MOL0     H12150   8.062   8.087  10.637 -2.4909  0.0865  2.7270
  831MOL0     H12151   7.801   8.153  10.587 -0.7341 -0.1501  0.5276
  831MOL0     H12152   7.774   7.982  10.599 -0.3939 -0.8168  0.9526
  831MOL0     H12153   7.885   7.964  10.833 -3.5892 -1.7395  0.1140
  831MOL0     H12154   7.942   8.122  10.809 -1.3112  1.6082 -0.0806
  831MOL0     H12155   7.642   8.055  10.806  0.3328 -0.8328 -0.8293
  831MOL0     H12156   7.704   8.216  10.793  2.5285 -0.7567 -2.6539
  831MOL0     H12157   7.634   8.199  11.029  0.1904 -0.2346  0.4964
  831MOL0     H12158   7.811   8.197  11.027  0.4455 -0.9731  2.7046
  831MOL0     H12159   7.648   7.944  11.004  1.6274  1.2108 -1.6833
  831MOL0     H12160   7.817   7.959  11.021 -0.4615  2.1331 -3.2835
  831MOL0     H12161   7.634   8.083  11.239  0.4396 -0.0356  0.3748
  831MOL0     H12162   7.802   8.056  11.250 -0.7095 -1.9850  2.9733
  831MOL0     H12163   7.681   7.859  11.376 -2.1987  1.5370 -0.7580
  831MOL0     H12164   7.597   7.834  11.229  0.1144 -1.5610  0.8529
  831MOL0     H12165   7.991   8.128  10.185 -0.7940  2.6812  3.6561
  831MOL0     H12166   8.173   8.115  10.029 -1.5184  1.3179  0.1168
  831MOL0     H12167   8.760   7.836  10.116  1.3237 -0.1118  0.9095
  831MOL0     H12168   8.971   7.919  10.006  0.4592 -0.7792  0.3282
  831MOL0     H12169   9.505   8.268   9.372 -1.5272  1.2284 -0.4675
  831MOL0     H12170   9.356   8.369   9.521 -1.1948 -2.7762  2.4633
  831MOL0     H12171   9.362   8.524  10.005 -0.4768  0.5593 -0.3805
  831MOL0     H12172   9.216   8.524  10.199 -0.5759  0.0082  0.5500
  831MOL0     H12173   8.783   8.662  10.126  0.3353  0.6401 -0.2087
  831MOL0     H12174   8.804   8.631  10.301 -2.9249 -1.7279 -0.3501
  831MOL0     H12175   8.839   8.399  10.251 -1.5925  1.9871  2.1830
  831MOL0     H12176   8.756   8.433  10.091 -4.2996 -0.8676  0.1114
  831MOL0     H12177   8.572   8.531  10.228  0.2959  1.0474 -0.1161
  831MOL0     H12178   8.645   8.488  10.372 -2.1337 -1.3912  0.0235
  831MOL0     H12179   8.492   8.286  10.343  0.2241 -2.4426 -0.3242
  831MOL0     H12180   8.527   8.282  10.168  0.1555  0.2248 -0.3989
  831MOL0     H12181   8.854   8.055  10.288 -0.3453 -0.4527  1.3943
  831MOL0     H12182   8.885   8.619   9.949 -0.5822 -0.4075  3.3674
  831MOL0     H12183   8.888   8.641   9.732 -0.5892 -1.9807  0.4585
  831MOL0     H12184   9.029   8.704   9.656 -0.5350 -0.5498 -0.5477
  831MOL0     H12185   8.998   8.523   9.653 -1.9420 -0.5286  1.1536
  832MOL0     O12186   0.217   6.801   5.243  1.0305 -0.8899 -0.3301
  832MOL0     C12187   0.214   6.722   5.340 -0.6713 -0.2789 -0.1355
  832MOL0     O12188   0.272   6.596   5.346 -0.3135  1.0530  0.4077
  832MOL0     C12189   0.356   6.572   5.236 -0.7059  0.1792 -0.1637
  832MOL0     C12190   0.494   6.565   5.271  1.2287  0.0548  0.6940
  832MOL0     C12191   0.585   6.526   5.174  0.1502  0.3355  0.2187
  832MOL0     C12192   0.543   6.503   5.048 -0.0963 -0.7215  0.1597
  832MOL0     O12193   0.635   6.467   4.958  0.3091 -0.0876 -0.3059
  832MOL0     C12194   0.621   6.334   4.895  0.0610 -0.5233  0.2898
  832MOL0     C12195   0.601   6.337   4.741 -0.6879 -0.3806  0.7257
  832MOL0     C12196   0.699   6.421   4.664 -0.4207 -0.2561  0.3605
  832MOL0     C12197   0.658   6.442   4.513 -0.2151  0.6217  0.0013
  832MOL0     C12198   0.767   6.482   4.415 -0.2152  0.7016 -0.1520
  832MOL0     C12199   0.708   6.491   4.272 -0.3033  0.2521  0.2634
  832MOL0     C12200   0.817   6.512   4.169 -0.7431 -0.2337  0.1726
  832MOL0     C12201   0.867   6.665   4.162 -0.0528  0.1188 -0.8087
  832MOL0     N12202   0.998   6.682   4.094  0.8246  0.1298 -1.0171
  832MOL0     C12203   1.127   6.647   4.133 -0.7000  0.6154  0.2916
  832MOL0     C12204   1.201   6.673   4.019  0.4677 -1.0593 -0.8207
  832MOL0     C12205   1.353   6.665   4.011  0.5349 -0.4751 -0.3440
  832MOL0     C12206   1.400   6.580   3.891  0.5396 -0.1823 -0.2278
  832MOL0     C12207   1.339   6.431   3.887 -0.5220 -0.3346  0.5920
  832MOL0     C12208   1.411   6.338   3.987 -0.2933  0.8073 -0.5238
  832MOL0     O12209   1.398   6.388   4.121  0.3351  0.9632 -0.3842
  832MOL0     C12210   1.429   6.315   4.237  0.2831  0.5653  0.2259
  832MOL0     C12211   1.477   6.183   4.233 -0.1240  0.1483 -0.5538
  832MOL0     C12212   1.486   6.102   4.355  0.8013 -1.7237 -0.8102
  832MOL0     C12213   1.436   6.152   4.481 -0.1557  0.3668  0.2288
  832MOL0     C12214   1.461   6.071   4.607  0.4725  0.5006 -0.3019
  832MOL0     O12215   1.511   5.944   4.605  0.0673  0.6159  0.4870
  832MOL0     C12216   1.578   5.882   4.707 -0.2820  0.1768  0.2325
  832MOL0     C12217   1.568   5.749   4.728  0.9787 -0.5104  0.2753
  832MOL0     C12218   1.634   5.686   4.842  0.4909  0.3432 -0.1820
  832MOL0     C12219   1.717   5.768   4.917  0.3593  0.0877 -0.6743
  832MOL0     O12220   1.770   5.696   5.020 -0.0450  0.0907  0.2756
  832MOL0     C12221   1.738   5.750   5.148 -0.0724  0.2935 -0.3790
  832MOL0     C12222   1.862   5.794   5.219  0.0139  0.2420 -0.7147
  832MOL0     C12223   1.841   5.828   5.365  0.6124  0.8144  0.2978
  832MOL0     C12224   1.970   5.834   5.455  0.0694  0.0861  1.2154
  832MOL0     C12225   2.068   5.947   5.420  1.4704  0.4050 -0.1090
  832MOL0     C12226   2.206   5.911   5.452 -0.7009  0.0536  0.8127
  832MOL0     C12227   2.248   5.967   5.587  0.7027  0.2490  0.1066
  832MOL0     C12228   2.390   5.917   5.625 -0.4063 -0.0281  0.1965
  832MOL0    Cl12229   2.417   5.940   5.804 -0.2559  0.1255 -0.0300
  832MOL0     C12230   1.732   5.905   4.902  0.9792  0.1975 -0.1933
  832MOL0     C12231   1.668   5.960   4.791  0.7812  0.2800 -0.5792
  832MOL0     O12232   1.434   6.137   4.710  0.6987 -0.4730  0.0296
  832MOL0     C12233   1.391   6.285   4.475 -0.6051 -0.2532  0.5703
  832MOL0     C12234   1.388   6.365   4.361  0.0618 -0.4614  0.6396
  832MOL0     N12235   1.116   6.731   3.927 -0.2696  0.2717 -0.0805
  832MOL0     N12236   0.996   6.734   3.973  0.2892 -0.2423 -0.1820
  832MOL0     C12237   0.414   6.520   5.003  0.2910 -0.5018 -0.5110
  832MOL0     C12238   0.319   6.554   5.100 -0.8675 -0.3276  0.6148
  832MOL0     C12239   0.160   6.766   5.479 -1.0294  0.8004 -0.0055
  832MOL0     C12240   0.196   6.677   5.587 -0.5148 -0.5901  0.9878
  832MOL0     C12241   0.120   6.684   5.704 -0.6293 -0.0225  0.0452
  832MOL0     C12242   0.025   6.781   5.717 -0.2567 -0.2749  0.1635
  832MOL0     O12243  -0.033   6.785   5.839  0.5611  0.3295 -0.4217
  832MOL0     C12244  -0.117   6.893   5.875  0.3842  0.6510 -0.9553
  832MOL0     C12245  -0.010   6.978   5.947 -0.1389 -0.5778 -0.6370
  832MOL0     C12246  -0.082   7.101   6.015  0.6124 -0.5714  0.8249
  832MOL0     C12247   0.020   7.193   6.087  0.3932  0.2114 -0.3605
  832MOL0     C12248  -0.057   7.323   6.121 -0.6890  0.4284  1.4173
  832MOL0     C12249  -0.107   7.429   6.153  0.4342  0.2809 -0.5241
  832MOL0     C12250   0.007   6.877   5.607 -0.2460 -0.8065 -0.6888
  832MOL0     C12251   0.071   6.862   5.487  0.4171 -0.3080  0.1257
  832MOL0     C12252   0.067   6.973   5.384  0.9691 -1.4068  1.1575
  832MOL0     H12253   0.520   6.577   5.376 -1.3563 -1.0121  1.5339
  832MOL0     H12254   0.687   6.510   5.204  0.4551  0.5244 -0.6817
  832MOL0     H12255   0.716   6.286   4.919  0.8516  2.0441  2.7810
  832MOL0     H12256   0.533   6.288   4.939 -1.8638  2.7242  0.1956
  832MOL0     H12257   0.501   6.380   4.730 -0.7510  0.1150  2.7476
  832MOL0     H12258   0.601   6.239   4.694  0.2572 -1.0434  2.0579
  832MOL0     H12259   0.795   6.369   4.666  0.6214  1.5884  0.1813
  832MOL0     H12260   0.719   6.516   4.713 -0.7029 -0.0681  0.1135
  832MOL0     H12261   0.605   6.360   4.464 -0.3270  0.2915  0.6659
  832MOL0     H12262   0.586   6.524   4.523  1.3131  2.2452 -1.5763
  832MOL0     H12263   0.810   6.570   4.464 -1.4807  0.2479  1.8646
  832MOL0     H12264   0.842   6.403   4.410 -1.4894 -0.5478 -4.2080
  832MOL0     H12265   0.643   6.406   4.249  3.8256 -2.9378 -0.7531
  832MOL0     H12266   0.641   6.578   4.275 -0.9906 -0.2390 -0.4425
  832MOL0     H12267   0.771   6.489   4.073 -0.9243 -1.2432  0.4883
  832MOL0     H12268   0.901   6.444   4.179 -0.4390  0.4105  2.8941
  832MOL0     H12269   0.787   6.719   4.110 -0.2127 -1.5832 -2.4113
  832MOL0     H12270   0.895   6.703   4.261 -0.2352 -1.1746 -0.2438
  832MOL0     H12271   1.159   6.613   4.231  2.2581  4.0159  0.7335
  832MOL0     H12272   1.383   6.769   3.992 -1.3663 -0.2939 -2.7783
  832MOL0     H12273   1.376   6.626   4.111 -1.0936  0.1739  0.3150
  832MOL0     H12274   1.377   6.635   3.800  1.0408  0.2780 -0.0797
  832MOL0     H12275   1.507   6.566   3.908  0.0181 -0.6248  3.6612
  832MOL0     H12276   1.357   6.383   3.791 -0.8756 -0.9399  0.8225
  832MOL0     H12277   1.230   6.433   3.897 -0.9101 -1.9179 -2.3187
  832MOL0     H12278   1.517   6.322   3.963 -1.1763 -2.5361 -2.8450
  832MOL0     H12279   1.371   6.237   3.983  2.4684 -0.3440 -1.1957
  832MOL0     H12280   1.503   6.138   4.138 -0.3146 -1.4436  0.1264
  832MOL0     H12281   1.521   6.000   4.355  0.0895 -1.9841 -1.5959
  832MOL0     H12282   1.506   5.687   4.664  1.6156 -0.0453 -0.8256
  832MOL0     H12283   1.608   5.585   4.875  0.8147  0.6522  1.0515
  832MOL0     H12284   1.677   5.841   5.148 -0.8189 -0.1172  2.8263
  832MOL0     H12285   1.690   5.681   5.218  1.3543  1.5309  1.9392
  832MOL0     H12286   1.934   5.712   5.220 -0.1428  0.0566  1.5274
  832MOL0     H12287   1.903   5.882   5.169  3.1990 -0.7235 -0.0184
  832MOL0     H12288   1.780   5.917   5.384  0.0171  0.4840 -0.0280
  832MOL0     H12289   1.775   5.747   5.399 -0.6107 -0.6634 -4.7191
  832MOL0     H12290   2.025   5.740   5.456 -0.8079 -0.4314  1.4072
  832MOL0     H12291   1.939   5.843   5.560 -2.6596 -0.4604  0.5324
  832MOL0     H12292   2.042   6.039   5.472  1.6424  0.2252  0.3060
  832MOL0     H12293   2.064   5.952   5.311  0.6901 -0.5888 -0.1433
  832MOL0     H12294   2.218   5.805   5.428  1.7034  0.5019 -0.2549
  832MOL0     H12295   2.274   5.961   5.382  0.0106 -2.1019 -0.1463
  832MOL0     H12296   2.180   5.926   5.663  0.1550 -2.0583 -1.5004
  832MOL0     H12297   2.250   6.076   5.577 -1.4456  0.1953 -1.9167
  832MOL0     H12298   2.394   5.812   5.596  0.8638  0.0206  0.1550
  832MOL0     H12299   2.464   5.979   5.576 -0.1843  0.2018  0.8128
  832MOL0     H12300   1.800   5.960   4.966  2.7005  0.6423 -2.2894
  832MOL0     H12301   1.672   6.068   4.779  1.7337  0.4996  1.3900
  832MOL0     H12302   1.355   6.327   4.568  0.6533  0.0540  0.9330
  832MOL0     H12303   1.340   6.461   4.368 -0.2160 -0.2621 -2.4814
  832MOL0     H12304   0.393   6.499   4.898  1.3920  0.2738 -0.9101
  832MOL0     H12305   0.212   6.569   5.091 -0.9239  1.5681  3.2198
  832MOL0     H12306   0.263   6.592   5.577 -1.0529 -0.9903  0.7161
  832MOL0     H12307   0.137   6.621   5.790 -0.7961  0.6483  0.5754
  832MOL0     H12308  -0.191   6.851   5.943  1.1796 -1.1364 -1.1409
  832MOL0     H12309  -0.171   6.925   5.785  0.4415  1.1239 -0.8236
  832MOL0     H12310   0.067   7.006   5.874  0.0305  1.0984  0.1366
  832MOL0     H12311   0.043   6.925   6.026  1.9801  1.2815 -0.7202
  832MOL0     H12312  -0.169   7.068   6.072  0.6352 -2.1738  0.0153
  832MOL0     H12313  -0.135   7.161   5.941  1.3256  0.0167  0.7852
  832MOL0     H12314   0.049   7.149   6.183  2.1438  2.0231 -0.0030
  832MOL0     H12315   0.105   7.222   6.024 -1.0941 -0.7883 -2.9981
  832MOL0     H12316  -0.154   7.525   6.159  2.1875  1.0864  1.7473
  832MOL0     H12317  -0.056   6.963   5.628  2.3126  1.0906 -0.1512
  832MOL0     H12318   0.043   7.067   5.436  2.2180 -0.9385  0.9270
  832MOL0     H12319   0.168   6.999   5.349  1.9506 -1.8580  3.4665
  832MOL0     H12320  -0.008   6.964   5.305  2.0910  0.8428 -0.2813
  833MOL0     O12321   1.540   1.206   8.181  0.1786 -0.5737  0.0367
  833MOL0     C12322   1.550   1.133   8.285  0.1782  0.5098  0.0785
  833MOL0     O12323   1.453   1.060   8.341  0.6916  0.3735  0.2336
  833MOL0     C12324   1.326   1.067   8.299  1.2156  0.2388  0.6146
  833MOL0     C12325   1.261   1.179   8.236  0.2994  0.0343 -0.1632
  833MOL0     C12326   1.129   1.176   8.210 -0.2962  0.4249  0.7452
  833MOL0     C12327   1.048   1.063   8.246 -0.2134  0.1490  0.8666
  833MOL0     O12328   0.909   1.081   8.246 -0.5756  0.1666  0.5150
  833MOL0     C12329   0.827   0.963   8.256  0.8143 -0.1979 -0.0972
  833MOL0     C12330   0.790   0.930   8.401 -0.0126  0.5370 -1.1539
  833MOL0     C12331   0.640   0.942   8.424  0.2854 -0.2598  0.1027
  833MOL0     C12332   0.597   0.902   8.568 -0.7398  0.0597  0.3183
  833MOL0     C12333   0.609   0.752   8.603 -0.6099  0.4245 -0.3980
  833MOL0     C12334   0.518   0.660   8.501 -0.3646 -0.5765  1.2484
  833MOL0     C12335   0.519   0.520   8.550  0.0327 -0.0275  0.0381
  833MOL0     C12336   0.593   0.435   8.446  1.2392  0.6180  0.0648
  833MOL0     N12337   0.567   0.293   8.477  0.5150  0.1056 -0.7176
  833MOL0     C12338   0.621   0.211   8.578  0.0599  0.1128  0.6329
  833MOL0     C12339   0.571   0.089   8.562  0.4943  0.6136  0.1763
  833MOL0     C12340   0.601  -0.034   8.651 -0.6847  0.5932  0.5145
  833MOL0     C12341   0.624   0.012   8.790 -0.7080  0.4464  0.0675
  833MOL0     C12342   0.497   0.044   8.868 -0.7029  0.5824  0.0620
  833MOL0     C12343   0.537   0.099   9.006  1.1401  1.2374 -0.2896
  833MOL0     O12344   0.589   0.238   9.001 -0.1948  0.0348  0.0410
  833MOL0     C12345   0.726   0.265   9.025  0.0447  0.4330 -0.0924
  833MOL0     C12346   0.762   0.401   9.048 -0.2114  0.1046  0.4361
  833MOL0     C12347   0.891   0.435   9.074 -0.3796 -0.0750  0.2712
  833MOL0     C12348   0.999   0.339   9.080  0.6275  0.6641  0.0628
  833MOL0     C12349   1.146   0.372   9.106 -0.2117  0.8821 -0.7320
  833MOL0     O12350   1.171   0.487   9.169 -0.2565 -0.5955 -0.3247
  833MOL0     C12351   1.295   0.502   9.224  0.4663 -0.8902 -0.5281
  833MOL0     C12352   1.333   0.424   9.330  0.2433  0.9095  0.7438
  833MOL0     C12353   1.453   0.443   9.401 -0.4662  0.6304  0.2285
  833MOL0     C12354   1.545   0.534   9.360  0.2774 -0.0242  0.9973
  833MOL0     O12355   1.658   0.547   9.431 -0.2554 -0.0941  0.2401
  833MOL0     C12356   1.776   0.589   9.362  0.0270 -0.5273  0.4892
  833MOL0     C12357   1.884   0.573   9.471  0.6305  0.3413  0.0514
  833MOL0     C12358   2.029   0.570   9.412  0.1230  0.8118 -1.4775
  833MOL0     C12359   2.130   0.493   9.498  0.2574 -0.3995 -0.2273
  833MOL0     C12360   2.252   0.464   9.418  0.1186 -0.3642 -0.2109
  833MOL0     C12361   2.333   0.588   9.377  0.1115 -0.2401 -0.5224
  833MOL0     C12362   2.420   0.563   9.250  0.4613 -0.9587 -0.1971
  833MOL0     C12363   2.479   0.428   9.230 -0.4669  0.2060  0.1200
  833MOL0    Cl12364   2.596   0.419   9.098 -0.2302  0.3905  0.0174
  833MOL0     C12365   1.508   0.622   9.259  0.3705  0.9633  0.5399
  833MOL0     C12366   1.381   0.612   9.196 -0.0383  0.4065  0.6209
  833MOL0     O12367   1.226   0.278   9.107 -0.3044 -0.1261 -0.5489
  833MOL0     C12368   0.968   0.204   9.052  0.0193  0.9102  0.2701
  833MOL0     C12369   0.832   0.167   9.025  0.6459 -1.1234 -0.6228
  833MOL0     N12370   0.482   0.096   8.456 -0.5902 -0.1229  0.6359
  833MOL0     N12371   0.479   0.217   8.411  0.2521 -0.6908 -0.2467
  833MOL0     C12372   1.113   0.949   8.293 -0.0142  0.9015 -0.8945
  833MOL0     C12373   1.248   0.951   8.326  1.0617  0.2179  1.1453
  833MOL0     C12374   1.689   1.104   8.333 -0.3914  0.4242 -0.3094
  833MOL0     C12375   1.697   0.979   8.398 -0.0300  0.0351  0.1678
  833MOL0     C12376   1.818   0.946   8.457  0.6873 -0.0788 -0.3151
  833MOL0     C12377   1.939   1.018   8.438  0.0467 -0.2409 -0.4773
  833MOL0     O12378   2.051   0.980   8.513 -0.2749  0.1064  0.0261
  833MOL0     C12379   2.035   1.010   8.655 -0.3256 -0.8614  0.8079
  833MOL0     C12380   2.165   0.961   8.719  0.5184 -0.2312 -0.3553
  833MOL0     C12381   2.284   1.039   8.657 -0.7441 -0.5175 -0.5653
  833MOL0     C12382   2.390   1.056   8.764 -0.0904 -0.0340  0.3013
  833MOL0     C12383   2.434   0.925   8.810  1.0105 -0.1605 -0.2195
  833MOL0     C12384   2.437   0.811   8.823 -0.4209 -0.0928 -1.6815
  833MOL0     C12385   1.927   1.140   8.375  0.6654 -0.4758 -0.5274
  833MOL0     C12386   1.801   1.192   8.337 -0.1259  0.0863  0.5643
  833MOL0     C12387   1.810   1.327   8.268  0.4730 -0.4361  0.3374
  833MOL0     H12388   1.305   1.278   8.223 -1.9027  1.3639  1.7596
  833MOL0     H12389   1.087   1.266   8.167  0.8007  0.8179  0.4625
  833MOL0     H12390   0.733   0.985   8.205  0.8536  1.9010  0.6334
  833MOL0     H12391   0.870   0.880   8.198  0.8443  0.8278 -1.5858
  833MOL0     H12392   0.845   0.985   8.478  0.6711 -0.4361 -0.9362
  833MOL0     H12393   0.810   0.826   8.427  0.4489  1.2738  1.7464
  833MOL0     H12394   0.583   0.876   8.359 -1.2218 -1.5179  2.5419
  833MOL0     H12395   0.598   1.041   8.404  1.0173  0.9133  3.5634
  833MOL0     H12396   0.657   0.949   8.646 -0.0593 -1.7745  0.9515
  833MOL0     H12397   0.495   0.939   8.582 -0.8480  0.2042 -0.7242
  833MOL0     H12398   0.713   0.720   8.599 -1.1673 -1.4090 -1.8145
  833MOL0     H12399   0.582   0.748   8.709  2.0872  4.7547  0.7318
  833MOL0     H12400   0.413   0.692   8.506 -0.3126 -0.3563  0.9931
  833MOL0     H12401   0.553   0.667   8.397  2.8408 -1.5792  2.1433
  833MOL0     H12402   0.413   0.493   8.559 -1.4136  4.5244 -0.7887
  833MOL0     H12403   0.569   0.508   8.646  5.5301  0.2098 -2.4137
  833MOL0     H12404   0.560   0.452   8.342 -0.2508  0.8329  0.5439
  833MOL0     H12405   0.699   0.451   8.464  0.8377  3.4911  0.3434
  833MOL0     H12406   0.701   0.230   8.649  0.9000  2.3273 -0.8003
  833MOL0     H12407   0.524  -0.111   8.659 -0.6494  0.4875 -0.0897
  833MOL0     H12408   0.695  -0.076   8.616 -1.5203 -0.5016 -0.5367
  833MOL0     H12409   0.692  -0.057   8.840 -1.1526 -0.4330 -0.5262
  833MOL0     H12410   0.687   0.102   8.786 -0.7599  0.4451 -1.1999
  833MOL0     H12411   0.443  -0.050   8.884  2.6481 -1.5427 -0.0148
  833MOL0     H12412   0.422   0.100   8.812 -4.4803 -3.5482  0.4066
  833MOL0     H12413   0.603   0.029   9.057  1.9442  0.7608 -1.9304
  833MOL0     H12414   0.445   0.100   9.066  0.9836  2.9066 -0.4988
  833MOL0     H12415   0.688   0.479   9.036 -0.4620 -0.0554  0.9106
  833MOL0     H12416   0.916   0.541   9.073  1.2423 -0.3721  2.2945
  833MOL0     H12417   1.258   0.350   9.355 -0.8731  1.3576 -1.1113
  833MOL0     H12418   1.481   0.371   9.477  1.9755  1.6952  0.4450
  833MOL0     H12419   1.792   0.514   9.284  4.1224  0.7819 -0.1445
  833MOL0     H12420   1.778   0.692   9.324 -0.5302 -1.1588 -1.3478
  833MOL0     H12421   1.875   0.644   9.553 -0.4264 -1.8352  1.9249
  833MOL0     H12422   1.859   0.479   9.520 -2.9372  0.8294 -0.5980
  833MOL0     H12423   2.027   0.523   9.313 -1.6044 -2.5923  0.0351
  833MOL0     H12424   2.059   0.675   9.401 -0.1648  1.0169 -0.4208
  833MOL0     H12425   2.080   0.406   9.542  2.4822 -0.4361  2.5238
  833MOL0     H12426   2.150   0.550   9.589  1.7673 -3.9417  1.8616
  833MOL0     H12427   2.218   0.410   9.329  0.1717 -0.1000 -0.3906
  833MOL0     H12428   2.323   0.405   9.477  0.0314 -0.0418  0.2220
  833MOL0     H12429   2.275   0.680   9.377 -1.4266 -1.1591  0.6463
  833MOL0     H12430   2.405   0.603   9.458  0.5695  0.3447 -1.0347
  833MOL0     H12431   2.498   0.640   9.241 -2.1971  2.2668  1.8738
  833MOL0     H12432   2.366   0.592   9.159  1.7578 -0.6658 -0.9104
  833MOL0     H12433   2.525   0.401   9.325 -1.0866 -0.8282  0.1427
  833MOL0     H12434   2.392   0.363   9.212 -0.0051 -0.3359 -0.1687
  833MOL0     H12435   1.568   0.707   9.228  0.7579  0.5289  0.0872
  833MOL0     H12436   1.357   0.676   9.111  1.4301  0.0873 -0.0671
  833MOL0     H12437   1.039   0.122   9.054  0.5539  1.3380 -0.7224
  833MOL0     H12438   0.806   0.064   9.002  0.6635 -2.3645  3.9049
  833MOL0     H12439   1.064   0.855   8.313  2.2995  0.2757  2.6882
  833MOL0     H12440   1.279   0.859   8.375 -0.2747 -1.3993 -0.8772
  833MOL0     H12441   1.615   0.908   8.404 -3.2438  3.1584 -2.2900
  833MOL0     H12442   1.822   0.847   8.501 -1.4654 -1.2525 -2.5010
  833MOL0     H12443   1.952   0.952   8.697  1.3034 -3.3978  0.7561
  833MOL0     H12444   2.018   1.118   8.660  0.4199 -0.6355 -1.0579
  833MOL0     H12445   2.170   0.856   8.687  0.3544 -0.5222  0.5364
  833MOL0     H12446   2.160   0.967   8.829 -1.3208 -0.3479 -0.3985
  833MOL0     H12447   2.259   1.135   8.609 -1.1840  0.8477  2.1884
  833MOL0     H12448   2.335   0.984   8.578  0.3574  0.7520 -0.7766
  833MOL0     H12449   2.470   1.109   8.712 -0.4511 -1.6432 -2.0494
  833MOL0     H12450   2.361   1.110   8.855 -1.0684 -0.1810  0.0846
  833MOL0     H12451   2.458   0.706   8.825  0.2731  0.0505 -0.8767
  833MOL0     H12452   2.014   1.203   8.368  0.7457 -0.7844 -2.8696
  833MOL0     H12453   1.908   1.373   8.280 -1.5116  4.5610 -0.0777
  833MOL0     H12454   1.795   1.319   8.159 -0.5619 -0.0416  0.4363
  833MOL0     H12455   1.734   1.394   8.310  0.3163  1.2379 -2.3900
  834MOL0     O12456   5.357   1.476   2.438  0.7589  1.3469  1.1024
  834MOL0     C12457   5.299   1.517   2.337  1.4806  0.4086 -0.1849
  834MOL0     O12458   5.334   1.490   2.213  1.3261  0.2641 -0.5675
  834MOL0     C12459   5.464   1.439   2.209  0.1105 -0.3732  0.9545
  834MOL0     C12460   5.485   1.306   2.230 -0.4902  0.1430  0.0345
  834MOL0     C12461   5.621   1.260   2.245 -0.1272  0.3668 -1.0641
  834MOL0     C12462   5.723   1.342   2.220  0.6686 -0.4585 -0.5525
  834MOL0     O12463   5.849   1.287   2.230 -0.7570  0.8082 -0.2893
  834MOL0     C12464   5.945   1.364   2.301 -0.1575 -0.6610 -0.9334
  834MOL0     C12465   6.059   1.277   2.361  0.2126  0.0449  0.5496
  834MOL0     C12466   6.015   1.170   2.479 -0.1396  0.0276  0.2486
  834MOL0     C12467   6.141   1.094   2.501 -1.2629  0.5939  0.0118
  834MOL0     C12468   6.145   1.031   2.640 -0.3690 -0.0122 -1.3054
  834MOL0     C12469   6.267   0.937   2.661 -0.2080  0.0400 -0.1852
  834MOL0     C12470   6.250   0.880   2.800  0.3314 -0.0726 -0.7499
  834MOL0     C12471   6.316   0.972   2.906 -0.1269 -0.4207  0.7124
  834MOL0     N12472   6.458   0.937   2.915  0.3121 -0.8886  0.7689
  834MOL0     C12473   6.558   1.013   2.861  0.3212  0.8188 -0.4019
  834MOL0     C12474   6.678   0.951   2.895  0.0447  0.6421 -1.0338
  834MOL0     C12475   6.823   0.985   2.864 -0.0093 -0.1756 -0.4972
  834MOL0     C12476   6.881   1.109   2.922 -0.6826  0.2869 -0.0291
  834MOL0     C12477   7.012   1.148   2.853  0.9809  0.0106  0.6964
  834MOL0     C12478   7.118   1.036   2.852 -0.4193 -0.6340  0.8094
  834MOL0     O12479   7.211   1.084   2.752 -0.1278 -0.4692  0.1227
  834MOL0     C12480   7.318   1.165   2.787  0.1026 -0.1496 -0.2283
  834MOL0     C12481   7.425   1.118   2.868  0.2779  0.3597  0.0611
  834MOL0     C12482   7.526   1.206   2.903  0.9665 -0.5740 -0.1023
  834MOL0     C12483   7.523   1.340   2.869  0.2359  0.1064  1.0027
  834MOL0     C12484   7.644   1.426   2.901  0.1449 -0.3105  0.7646
  834MOL0     O12485   7.732   1.362   2.973 -0.4130 -0.4811  0.0726
  834MOL0     C12486   7.861   1.404   2.991  0.6727 -0.3301  0.2718
  834MOL0     C12487   7.942   1.313   3.067 -0.2903  0.6204 -0.3044
  834MOL0     C12488   8.075   1.338   3.095  0.1315  0.1400  0.3359
  834MOL0     C12489   8.129   1.461   3.050  0.8542  1.2717  0.6235
  834MOL0     O12490   8.245   1.517   3.093 -0.2480  0.5105 -0.3691
  834MOL0     C12491   8.336   1.426   3.152 -0.7596  0.3409 -0.2489
  834MOL0     C12492   8.475   1.487   3.167 -0.6119 -0.3056 -1.0864
  834MOL0     C12493   8.485   1.613   3.246  0.1811 -0.3413  0.7400
  834MOL0     C12494   8.629   1.631   3.290  0.6263  0.2435  1.3286
  834MOL0     C12495   8.648   1.724   3.408  0.2568 -0.2891 -0.4262
  834MOL0     C12496   8.588   1.859   3.384 -0.0942 -0.2626 -0.6291
  834MOL0     C12497   8.638   1.980   3.468  0.0780 -0.5027 -0.2089
  834MOL0     C12498   8.568   1.999   3.596  0.2505  0.5177  0.4605
  834MOL0    Cl12499   8.652   2.145   3.681 -0.2292  0.0372 -0.0328
  834MOL0     C12500   8.049   1.557   2.988  0.6387  0.4782 -0.1002
  834MOL0     C12501   7.917   1.526   2.968  0.3454  0.0028  0.2705
  834MOL0     O12502   7.642   1.552   2.873  0.9235  0.3316 -0.1485
  834MOL0     C12503   7.407   1.393   2.792 -0.1753 -0.4970  0.0538
  834MOL0     C12504   7.317   1.297   2.749  1.2921 -0.8740 -0.0899
  834MOL0     N12505   6.640   0.835   2.964  0.1825  1.3022 -0.1961
  834MOL0     N12506   6.513   0.834   2.982  0.0081 -0.3322  0.5204
  834MOL0     C12507   5.704   1.480   2.188  0.2719 -0.3420 -0.3744
  834MOL0     C12508   5.573   1.527   2.190 -1.1212  0.1157  0.4778
  834MOL0     C12509   5.168   1.581   2.358  0.0639  0.5887 -0.8585
  834MOL0     C12510   5.054   1.509   2.405 -0.2922  0.5838  0.4835
  834MOL0     C12511   4.926   1.565   2.428 -0.0526 -0.1543  0.0978
  834MOL0     C12512   4.917   1.706   2.397 -0.3128  0.4783 -0.0055
  834MOL0     O12513   4.800   1.762   2.435 -0.1902  0.5317  0.0521
  834MOL0     C12514   4.771   1.900   2.416 -0.0193 -0.5629 -0.0949
  834MOL0     C12515   4.713   1.938   2.277 -0.0299  0.1566  0.8168
  834MOL0     C12516   4.658   2.086   2.270  0.4588 -0.0080 -0.2011
  834MOL0     C12517   4.724   2.200   2.356 -0.1048  0.4139  0.6133
  834MOL0     C12518   4.859   2.218   2.300  0.1422  0.4711  0.3009
  834MOL0     C12519   4.950   2.194   2.227 -1.0640 -0.4086  0.0370
  834MOL0     C12520   5.023   1.780   2.355 -0.1197 -0.4725  0.6557
  834MOL0     C12521   5.149   1.722   2.338 -0.3937  0.3088  0.8117
  834MOL0     C12522   5.264   1.801   2.282 -0.0114  0.5410  0.5076
  834MOL0     H12523   5.407   1.232   2.246 -1.0787  0.4578 -1.3156
  834MOL0     H12524   5.637   1.160   2.286 -0.9111 -0.4645 -2.7073
  834MOL0     H12525   5.994   1.435   2.234  0.8036  0.6083  1.0278
  834MOL0     H12526   5.884   1.407   2.380 -1.7794 -1.8797 -1.4636
  834MOL0     H12527   6.134   1.347   2.400  1.3027 -0.1918 -1.0401
  834MOL0     H12528   6.099   1.220   2.277 -2.5682 -1.3625  0.0629
  834MOL0     H12529   5.941   1.107   2.429  1.7356 -0.6298 -1.8504
  834MOL0     H12530   5.979   1.228   2.564 -3.2654 -2.3161  0.6939
  834MOL0     H12531   6.143   1.011   2.429 -1.2342  0.4887  0.1329
  834MOL0     H12532   6.236   1.145   2.482 -0.9577 -0.3230 -1.0670
  834MOL0     H12533   6.141   1.100   2.725 -0.8652 -0.9259 -0.5757
  834MOL0     H12534   6.048   0.981   2.640 -0.6046  0.1763 -4.8102
  834MOL0     H12535   6.253   0.868   2.577 -1.3741  0.6455 -0.5085
  834MOL0     H12536   6.363   0.989   2.648  0.9485 -1.3061  2.3327
  834MOL0     H12537   6.291   0.779   2.806 -1.6410 -0.9412 -0.9161
  834MOL0     H12538   6.146   0.873   2.833  0.6023 -1.7258 -0.1764
  834MOL0     H12539   6.303   1.078   2.881  0.4102 -0.5209 -0.0144
  834MOL0     H12540   6.266   0.946   3.000  0.4962  0.7304  1.3925
  834MOL0     H12541   6.547   1.104   2.802 -2.2283 -1.2821 -3.5248
  834MOL0     H12542   6.876   0.900   2.908 -1.3043 -0.4507  0.6132
  834MOL0     H12543   6.838   0.979   2.756 -2.0503  0.8367 -0.8808
  834MOL0     H12544   6.814   1.194   2.939 -1.8549 -0.9095  1.6811
  834MOL0     H12545   6.913   1.081   3.023 -2.7472 -2.9460 -0.1114
  834MOL0     H12546   7.048   1.246   2.888  1.3011 -0.0095  0.4261
  834MOL0     H12547   6.989   1.174   2.749  1.2444 -0.1132  0.6069
  834MOL0     H12548   7.087   0.937   2.819  0.4187 -0.0237 -2.1092
  834MOL0     H12549   7.165   1.035   2.951 -1.3542  1.4290  1.3181
  834MOL0     H12550   7.404   1.023   2.916 -2.6163  2.2267  2.9542
  834MOL0     H12551   7.613   1.174   2.961  2.1683  1.8888 -0.4120
  834MOL0     H12552   7.904   1.214   3.091 -1.1603 -0.2636 -4.4757
  834MOL0     H12553   8.134   1.258   3.139 -1.1587 -1.1833 -0.2754
  834MOL0     H12554   8.315   1.373   3.246  3.2461 -0.7990  0.1600
  834MOL0     H12555   8.340   1.344   3.080 -1.8197 -1.7428  1.9220
  834MOL0     H12556   8.537   1.413   3.219 -0.9324  1.3583  1.9320
  834MOL0     H12557   8.518   1.495   3.067 -2.8522 -1.0334 -2.1673
  834MOL0     H12558   8.451   1.690   3.176  3.4483  0.6461  0.0865
  834MOL0     H12559   8.404   1.614   3.320 -1.0837  0.2018 -0.6065
  834MOL0     H12560   8.673   1.668   3.197 -3.2903  1.9543 -0.0607
  834MOL0     H12561   8.670   1.533   3.316  0.7472 -0.3194 -0.7917
  834MOL0     H12562   8.753   1.724   3.438  0.7975  0.1364 -2.2086
  834MOL0     H12563   8.605   1.679   3.498  1.8483 -0.9403  0.0439
  834MOL0     H12564   8.619   1.879   3.280  1.9321 -2.4191 -0.5230
  834MOL0     H12565   8.479   1.868   3.383  0.0508  3.9616  0.9329
  834MOL0     H12566   8.627   2.079   3.424  3.3650  0.3058  0.5322
  834MOL0     H12567   8.743   1.961   3.489  1.0577  2.8511 -1.3857
  834MOL0     H12568   8.461   2.015   3.582  0.2721  0.6804  0.4761
  834MOL0     H12569   8.593   1.914   3.660  2.2040  1.6377  1.2554
  834MOL0     H12570   8.096   1.651   2.959  1.7818 -0.1593 -0.3972
  834MOL0     H12571   7.856   1.611   2.938 -1.1590 -0.8217  0.8720
  834MOL0     H12572   7.408   1.496   2.759  3.3204 -0.3352  0.2652
  834MOL0     H12573   7.231   1.335   2.696 -0.6002 -0.0990  3.2237
  834MOL0     H12574   5.784   1.549   2.166  0.4620  0.6088  2.8048
  834MOL0     H12575   5.553   1.632   2.171  0.3626  0.9048  2.9083
  834MOL0     H12576   5.041   1.402   2.418 -0.6576  0.5497 -0.0856
  834MOL0     H12577   4.846   1.494   2.447 -0.6506  0.2358 -0.9004
  834MOL0     H12578   4.852   1.968   2.442  0.9432 -2.7533  3.3147
  834MOL0     H12579   4.688   1.918   2.486 -2.0691 -0.7580 -2.3432
  834MOL0     H12580   4.626   1.874   2.258 -0.8553  2.0843 -2.9516
  834MOL0     H12581   4.781   1.914   2.195 -2.2858  1.2042 -1.5185
  834MOL0     H12582   4.550   2.093   2.284  0.2222  5.9763 -2.2794
  834MOL0     H12583   4.673   2.120   2.167 -1.8333 -0.5587 -0.7775
  834MOL0     H12584   4.673   2.294   2.334  1.5921  1.2465  0.0733
  834MOL0     H12585   4.732   2.178   2.462  0.9561  1.7968  0.8432
  834MOL0     H12586   5.034   2.166   2.167  0.4824 -0.1426  1.9758
  834MOL0     H12587   5.014   1.884   2.326 -2.0983 -0.6880  0.4045
  834MOL0     H12588   5.328   1.749   2.210 -0.6196 -0.2765  0.5352
  834MOL0     H12589   5.226   1.891   2.233 -0.7213  1.6464  2.9648
  834MOL0     H12590   5.338   1.834   2.356 -0.3977  0.9872  0.6969
  835MOL0     O12591   1.364   8.265   5.224  0.4196 -0.4280 -0.0889
  835MOL0     C12592   1.446   8.305   5.147  0.1357  0.0366  0.3527
  835MOL0     O12593   1.437   8.296   5.011  0.0155 -0.5229 -0.5373
  835MOL0     C12594   1.351   8.207   4.954 -0.2419  0.5840 -0.3278
  835MOL0     C12595   1.399   8.151   4.834 -0.1336  0.1159 -0.3659
  835MOL0     C12596   1.314   8.064   4.763 -0.4710  0.6744 -0.4939
  835MOL0     C12597   1.191   8.025   4.797  0.5685  0.6129 -0.2540
  835MOL0     O12598   1.115   7.954   4.707  0.3011 -0.4054  0.2919
  835MOL0     C12599   0.997   7.889   4.755 -0.1779 -0.0170 -0.1105
  835MOL0     C12600   1.001   7.751   4.687  0.4416  0.4619  0.0434
  835MOL0     C12601   0.944   7.643   4.781  0.3634  0.6712 -0.4733
  835MOL0     C12602   0.806   7.673   4.839 -0.7536 -0.7802 -0.5055
  835MOL0     C12603   0.709   7.708   4.720  0.3610 -0.6207 -0.0826
  835MOL0     C12604   0.570   7.727   4.781 -0.4535 -0.5572 -1.1164
  835MOL0     C12605   0.507   7.854   4.721 -0.9601  0.4578  0.8339
  835MOL0     C12606   0.475   7.848   4.563 -0.0418  0.0700 -0.4268
  835MOL0     N12607   0.371   7.751   4.541  0.4853 -0.1871 -0.4739
  835MOL0     C12608   0.243   7.765   4.584 -0.0549  0.8438  0.0751
  835MOL0     C12609   0.197   7.638   4.574 -0.1808  0.3842 -1.4927
  835MOL0     C12610   0.065   7.606   4.621  1.1034 -0.1236  0.7625
  835MOL0     C12611  -0.056   7.667   4.556 -0.3524 -0.2397 -0.1757
  835MOL0     C12612  -0.066   7.652   4.406  0.5506  0.1143 -0.0375
  835MOL0     C12613  -0.157   7.753   4.338 -0.4629 -0.3893 -1.4105
  835MOL0     O12614  -0.299   7.722   4.360  0.3735 -0.5952 -0.5381
  835MOL0     C12615  -0.389   7.764   4.262 -0.4868  0.1327  0.3595
  835MOL0     C12616  -0.356   7.865   4.177  1.0654  0.0024 -0.0274
  835MOL0     C12617  -0.433   7.888   4.056  0.6478  0.5160  0.3589
  835MOL0     C12618  -0.539   7.809   4.032 -0.6234 -0.3467  0.3701
  835MOL0     C12619  -0.624   7.834   3.918 -0.4760  0.3413 -0.3693
  835MOL0     O12620  -0.760   7.814   3.940 -0.4099 -0.1615 -0.1526
  835MOL0     C12621  -0.832   7.806   3.819 -0.6588  1.0348  0.6047
  835MOL0     C12622  -0.873   7.918   3.756 -0.5826  0.1996 -0.3496
  835MOL0     C12623  -0.950   7.915   3.639  0.1218  0.8520 -0.3695
  835MOL0     C12624  -0.991   7.784   3.587 -0.1051  0.2419 -1.1371
  835MOL0     O12625  -1.077   7.756   3.477 -0.0510  0.0960  0.1505
  835MOL0     C12626  -1.189   7.852   3.466  0.4210  1.0588 -0.0517
  835MOL0     C12627  -1.277   7.814   3.347 -0.7520  0.2460  0.1801
  835MOL0     C12628  -1.387   7.922   3.305 -0.5263  0.5600 -0.7104
  835MOL0     C12629  -1.457   7.896   3.176 -0.7345  0.9865 -0.1835
  835MOL0     C12630  -1.561   7.995   3.146  0.3192  0.0088 -0.4320
  835MOL0     C12631  -1.602   7.950   3.007 -0.0592  0.7968 -0.3212
  835MOL0     C12632  -1.734   8.024   2.961 -0.3664  0.2133  0.5561
  835MOL0     C12633  -1.757   7.986   2.815  0.1344  0.2076  0.3551
  835MOL0    Cl12634  -1.789   7.805   2.789  0.0469  0.1949 -0.2309
  835MOL0     C12635  -0.925   7.667   3.641  0.3117  0.5564  0.5359
  835MOL0     C12636  -0.848   7.678   3.754  0.7484 -0.1955 -0.3044
  835MOL0     O12637  -0.574   7.866   3.814 -0.2032  0.6146 -0.2098
  835MOL0     C12638  -0.576   7.708   4.122 -0.0536  0.3007 -1.0527
  835MOL0     C12639  -0.500   7.686   4.234  0.1240 -0.2344  0.8722
  835MOL0     N12640   0.294   7.546   4.531 -0.0157 -0.5217  0.9587
  835MOL0     N12641   0.395   7.623   4.502 -0.4663  0.1023 -0.1360
  835MOL0     C12642   1.134   8.088   4.914 -0.5420 -0.7602 -0.5380
  835MOL0     C12643   1.219   8.173   4.993 -0.0444  0.4828 -0.5010
  835MOL0     C12644   1.561   8.373   5.196 -0.2266 -0.8374 -0.0739
  835MOL0     C12645   1.561   8.427   5.329 -0.9665  0.3427  1.3108
  835MOL0     C12646   1.674   8.495   5.372 -0.0210  0.5472  0.5164
  835MOL0     C12647   1.794   8.505   5.298  0.6499 -0.2198 -0.0630
  835MOL0     O12648   1.896   8.560   5.359 -0.1450  0.4411 -0.5734
  835MOL0     C12649   2.026   8.562   5.310  0.5309  0.4719 -0.4629
  835MOL0     C12650   2.099   8.656   5.411 -0.7092  0.0178 -0.8222
  835MOL0     C12651   2.080   8.803   5.374 -0.5956  0.3847  0.2700
  835MOL0     C12652   1.939   8.848   5.362 -0.1165  0.2987 -0.9043
  835MOL0     C12653   1.945   9.002   5.343 -0.0074  0.4780  0.8220
  835MOL0     C12654   1.942   9.115   5.313 -0.3032 -0.4445  0.5113
  835MOL0     C12655   1.802   8.437   5.176 -0.2983 -0.1890  0.8135
  835MOL0     C12656   1.687   8.375   5.121  1.0797 -0.0526  0.3940
  835MOL0     C12657   1.719   8.290   5.003  0.3227  0.1819  0.4901
  835MOL0     H12658   1.502   8.176   4.810 -1.1665  3.5070 -1.9536
  835MOL0     H12659   1.353   8.019   4.672  3.9632 -1.9378  2.3122
  835MOL0     H12660   1.011   7.866   4.861 -0.3430 -1.6724 -0.4337
  835MOL0     H12661   0.900   7.941   4.747 -1.0509 -1.0831  2.5733
  835MOL0     H12662   1.107   7.726   4.678 -0.1257 -1.2881 -2.7725
  835MOL0     H12663   0.962   7.757   4.585  3.8650  0.5558 -1.3763
  835MOL0     H12664   1.012   7.632   4.866 -1.0886 -0.3096  0.6278
  835MOL0     H12665   0.944   7.549   4.725  2.3314  0.5775 -0.3676
  835MOL0     H12666   0.758   7.599   4.904 -1.9727  1.0800  0.8141
  835MOL0     H12667   0.818   7.756   4.910  1.3558 -1.1640 -0.3453
  835MOL0     H12668   0.736   7.805   4.676 -0.2733  0.2971  1.4690
  835MOL0     H12669   0.701   7.641   4.634 -3.1775  1.3318 -1.4770
  835MOL0     H12670   0.507   7.638   4.770 -1.3428  0.0346 -0.9506
  835MOL0     H12671   0.583   7.757   4.885  3.1931  1.7457 -2.0722
  835MOL0     H12672   0.563   7.947   4.731  0.5212 -0.1692 -0.9814
  835MOL0     H12673   0.408   7.857   4.767 -3.4993 -1.9077 -3.8139
  835MOL0     H12674   0.452   7.951   4.534  0.6733  0.5038  0.5373
  835MOL0     H12675   0.566   7.823   4.508  0.7069 -0.0346  0.8235
  835MOL0     H12676   0.198   7.850   4.634 -0.6120  0.5514  0.0801
  835MOL0     H12677   0.043   7.501   4.603 -2.7801  0.7748 -0.7346
  835MOL0     H12678   0.055   7.609   4.729  0.8705 -2.3779  0.8547
  835MOL0     H12679  -0.144   7.615   4.595 -0.2998 -1.0642 -1.1319
  835MOL0     H12680  -0.050   7.770   4.594  3.1237 -0.1503 -0.6308
  835MOL0     H12681  -0.097   7.550   4.381 -3.8543  1.1991  0.2467
  835MOL0     H12682   0.029   7.668   4.355  0.6670 -0.4143  0.0052
  835MOL0     H12683  -0.145   7.744   4.229  0.2914 -1.4784 -1.2587
  835MOL0     H12684  -0.128   7.854   4.366  4.0628 -1.3370 -1.8619
  835MOL0     H12685  -0.283   7.934   4.217 -1.8259  3.2601  0.1887
  835MOL0     H12686  -0.410   7.964   3.982 -2.6378  0.2708 -1.0634
  835MOL0     H12687  -0.846   8.006   3.814  1.2628  0.1625 -1.0702
  835MOL0     H12688  -0.994   8.006   3.599 -1.7733  0.6792  1.1547
  835MOL0     H12689  -1.247   7.852   3.559 -0.1371  1.4935 -0.3941
  835MOL0     H12690  -1.136   7.947   3.453  1.9162  0.2690  0.1341
  835MOL0     H12691  -1.209   7.815   3.261  1.3411  0.3299  1.7649
  835MOL0     H12692  -1.320   7.713   3.348 -1.4462  0.5182 -0.7862
  835MOL0     H12693  -1.454   7.946   3.388  1.0540  2.9217 -0.0095
  835MOL0     H12694  -1.337   8.019   3.306 -0.4879  0.5419  0.0107
  835MOL0     H12695  -1.496   7.794   3.174  0.3609  0.5508 -2.3591
  835MOL0     H12696  -1.380   7.897   3.099  0.2561  3.2415  0.7260
  835MOL0     H12697  -1.523   8.097   3.145  0.5612 -0.0344  1.3220
  835MOL0     H12698  -1.635   7.993   3.226 -1.1051  0.6956 -1.6915
  835MOL0     H12699  -1.520   7.966   2.937 -0.0330 -2.2704 -1.1375
  835MOL0     H12700  -1.617   7.842   2.999  0.4464  0.7145 -0.1637
  835MOL0     H12701  -1.727   8.132   2.973  0.9692  0.5516 -2.3373
  835MOL0     H12702  -1.819   7.975   3.010 -0.4885 -1.0839 -0.8666
  835MOL0     H12703  -1.847   8.041   2.785  2.2057  3.7764  0.1544
  835MOL0     H12704  -1.677   8.026   2.753  1.8873  1.9406  3.4836
  835MOL0     H12705  -0.945   7.567   3.601 -1.0207  0.0963  2.2535
  835MOL0     H12706  -0.810   7.587   3.799  2.1582  0.7020  0.3883
  835MOL0     H12707  -0.666   7.649   4.111  0.0565 -0.2460  0.6838
  835MOL0     H12708  -0.523   7.603   4.301 -1.7517 -1.4897 -1.1629
  835MOL0     H12709   1.031   8.079   4.947 -0.9170  2.3611 -0.6039
  835MOL0     H12710   1.168   8.237   5.064  1.3811  1.2427 -0.1243
  835MOL0     H12711   1.476   8.438   5.397  0.2470  5.4381  2.4647
  835MOL0     H12712   1.662   8.541   5.469  0.0823 -1.0434  1.3041
  835MOL0     H12713   2.020   8.608   5.211 -0.6481 -0.0565 -0.6515
  835MOL0     H12714   2.066   8.460   5.305 -2.7523 -0.8550 -2.3861
  835MOL0     H12715   2.204   8.629   5.422 -1.4466 -2.1107  2.6558
  835MOL0     H12716   2.063   8.643   5.514  0.9710  3.4925  0.3591
  835MOL0     H12717   2.146   8.828   5.290 -0.6601 -1.1204 -0.2646
  835MOL0     H12718   2.125   8.853   5.460  2.1405 -3.2621  1.2485
  835MOL0     H12719   1.901   8.815   5.265  0.7120 -2.7194 -0.2889
  835MOL0     H12720   1.868   8.822   5.442  1.6058  2.0903  1.3319
  835MOL0     H12721   1.950   9.210   5.263 -1.0325 -2.1777 -3.2228
  835MOL0     H12722   1.901   8.420   5.137  0.4724 -0.5780  2.7908
  835MOL0     H12723   1.828   8.293   4.990  0.1048  1.5060 -1.5276
  835MOL0     H12724   1.679   8.190   5.023  2.3941 -0.8476 -0.1647
  835MOL0     H12725   1.679   8.318   4.905 -2.1659 -1.3390  0.9949
  836MOL0     O12726   0.788   6.259   1.014  1.0964  0.0796  0.2934
  836MOL0     C12727   0.740   6.276   0.899  0.1543 -0.6499  0.5083
  836MOL0     O12728   0.715   6.400   0.841  0.0814  0.6124 -0.3380
  836MOL0     C12729   0.706   6.518   0.905  0.5346 -0.9678 -0.5589
  836MOL0     C12730   0.811   6.592   0.951 -0.0686 -0.4766 -0.4470
  836MOL0     C12731   0.795   6.714   1.018 -0.4479  0.4673 -0.5914
  836MOL0     C12732   0.666   6.759   1.039 -0.6406 -0.0925 -1.0273
  836MOL0     O12733   0.653   6.875   1.112  0.3359  0.1181 -0.5159
  836MOL0     C12734   0.605   6.987   1.027 -0.4844  1.1959  0.2847
  836MOL0     C12735   0.712   7.071   0.965 -0.1064  0.3377  0.0282
  836MOL0     C12736   0.809   7.131   1.073 -0.4654  0.3427  0.8370
  836MOL0     C12737   0.917   7.225   1.018 -0.3395  0.1388  0.3336
  836MOL0     C12738   0.851   7.368   0.988  0.2800  0.1950 -0.6395
  836MOL0     C12739   0.959   7.446   0.905 -0.0302 -0.1914 -0.2120
  836MOL0     C12740   0.937   7.438   0.748  0.2631 -0.1809 -0.7872
  836MOL0     C12741   1.050   7.486   0.667 -0.1988  0.8907  0.7559
  836MOL0     N12742   1.049   7.634   0.662  0.5263 -0.1476  0.1105
  836MOL0     C12743   1.146   7.716   0.721 -0.4895  0.1133  1.0107
  836MOL0     C12744   1.118   7.842   0.676  0.2123 -0.2172 -0.3494
  836MOL0     C12745   1.196   7.975   0.676  0.1385 -0.0079 -0.5327
  836MOL0     C12746   1.175   8.047   0.816  0.3810  0.6818 -0.1809
  836MOL0     C12747   1.250   8.168   0.863 -0.3468 -0.7978 -0.0605
  836MOL0     C12748   1.281   8.277   0.753  0.1391  0.3399 -0.0449
  836MOL0     O12749   1.364   8.381   0.815  0.4551  0.4580 -0.4242
  836MOL0     C12750   1.371   8.490   0.732 -0.1664 -0.5675  0.1041
  836MOL0     C12751   1.426   8.605   0.792 -0.0876 -0.4051 -0.6555
  836MOL0     C12752   1.460   8.718   0.720 -0.5000  0.3696 -0.3035
  836MOL0     C12753   1.451   8.721   0.582  0.2000  1.6523  0.2044
  836MOL0     C12754   1.505   8.835   0.501  0.6482 -0.3911  0.8498
  836MOL0     O12755   1.506   8.817   0.367 -0.4821 -0.3142 -0.2625
  836MOL0     C12756   1.577   8.917   0.303 -0.1804  0.0062  0.1719
  836MOL0     C12757   1.719   8.931   0.312  0.0947  0.3099 -0.2012
  836MOL0     C12758   1.795   9.024   0.243  0.3604 -0.2327  0.7134
  836MOL0     C12759   1.726   9.110   0.162 -0.1091 -0.2240 -0.5256
  836MOL0     O12760   1.792   9.218   0.099  0.1588  0.3010  0.2945
  836MOL0     C12761   1.931   9.252   0.109 -0.3178 -0.3111  0.4479
  836MOL0     C12762   1.948   9.378   0.012  0.4178 -0.1232 -0.4750
  836MOL0     C12763   2.003   9.332  -0.123 -0.6386 -0.0192 -0.2381
  836MOL0     C12764   1.890   9.288  -0.226 -0.6094 -0.3758  0.5927
  836MOL0     C12765   1.949   9.270  -0.364 -1.5802  0.3618 -0.0534
  836MOL0     C12766   1.845   9.252  -0.477 -0.4730  0.1017  0.9387
  836MOL0     C12767   1.776   9.109  -0.471  0.0651 -0.0161 -0.7226
  836MOL0     C12768   1.696   9.082  -0.598  0.0978 -0.0983  0.7414
  836MOL0    Cl12769   1.803   9.082  -0.746  0.1894 -0.3146  0.6193
  836MOL0     C12770   1.593   9.090   0.136 -0.5823 -0.3363 -0.4302
  836MOL0     C12771   1.517   8.998   0.205 -0.5108  1.0873 -0.0697
  836MOL0     O12772   1.552   8.929   0.566  0.5657 -0.3938 -0.3925
  836MOL0     C12773   1.387   8.609   0.516  0.4114  0.4184 -0.0910
  836MOL0     C12774   1.352   8.498   0.596 -0.0363  0.5512 -0.3945
  836MOL0     N12775   0.999   7.827   0.602 -0.0473  0.1546 -0.3343
  836MOL0     N12776   0.965   7.710   0.593  0.1485  0.3983 -0.0136
  836MOL0     C12777   0.555   6.696   0.990 -1.1778 -0.2141  1.0920
  836MOL0     C12778   0.574   6.570   0.928  0.1199 -0.1286 -0.6450
  836MOL0     C12779   0.703   6.162   0.815  0.0378 -0.0833  1.0638
  836MOL0     C12780   0.647   6.189   0.684 -0.0907 -0.0399 -0.7023
  836MOL0     C12781   0.598   6.085   0.603  0.7187 -0.1409 -0.9882
  836MOL0     C12782   0.601   5.951   0.647  0.3317  0.9986  1.2864
  836MOL0     O12783   0.560   5.836   0.577 -0.3941 -0.1431  0.3153
  836MOL0     C12784   0.464   5.859   0.470 -0.5671  0.2543 -0.3227
  836MOL0     C12785   0.320   5.890   0.513  0.0992  0.5728 -0.0733
  836MOL0     C12786   0.223   5.921   0.396 -0.8977  0.2964 -0.1198
  836MOL0     C12787   0.223   5.811   0.292 -0.8240 -0.0873 -0.3273
  836MOL0     C12788   0.158   5.691   0.341  0.1502  1.4494 -0.4790
  836MOL0     C12789   0.112   5.585   0.364 -0.7038  0.1986  0.4221
  836MOL0     C12790   0.672   5.923   0.762 -0.2698 -0.7842 -0.5040
  836MOL0     C12791   0.729   6.026   0.844 -0.9411  0.1210 -0.6425
  836MOL0     C12792   0.808   5.970   0.953 -0.5283 -0.1101 -0.8411
  836MOL0     H12793   0.916   6.569   0.942  0.4487  1.5919 -0.1755
  836MOL0     H12794   0.880   6.767   1.059 -0.3258 -0.8560  0.9840
  836MOL0     H12795   0.537   6.947   0.952 -0.5631  2.9110 -0.6168
  836MOL0     H12796   0.546   7.054   1.090 -0.9094  0.5568  0.5742
  836MOL0     H12797   0.658   7.151   0.914  0.3932  1.2946  0.9670
  836MOL0     H12798   0.768   7.008   0.895  0.1834 -0.7773  1.2343
  836MOL0     H12799   0.850   7.045   1.127  1.8626  0.8434  0.0115
  836MOL0     H12800   0.743   7.185   1.141 -1.1848 -0.9996  1.2326
  836MOL0     H12801   0.999   7.236   1.089 -0.4101  0.0545  0.4293
  836MOL0     H12802   0.953   7.184   0.923 -0.7751  1.7566 -0.5703
  836MOL0     H12803   0.751   7.368   0.944 -1.6728 -0.7911  3.3373
  836MOL0     H12804   0.835   7.409   1.088 -0.7986 -0.0906 -0.6888
  836MOL0     H12805   0.959   7.550   0.938  1.8682 -0.4898  0.9256
  836MOL0     H12806   1.063   7.411   0.912  0.3287  0.1844 -2.6231
  836MOL0     H12807   0.848   7.501   0.737 -0.0679 -0.1643  1.4492
  836MOL0     H12808   0.905   7.343   0.706 -2.9479  0.7212 -0.6540
  836MOL0     H12809   1.141   7.445   0.712  1.2386  1.9688 -1.0301
  836MOL0     H12810   1.053   7.438   0.569 -0.9778 -1.2733  1.7437
  836MOL0     H12811   1.225   7.683   0.788  0.7390 -0.5511 -0.6676
  836MOL0     H12812   1.302   7.951   0.663  0.5208  1.0005  0.4744
  836MOL0     H12813   1.152   8.041   0.601  0.1247  0.7106  0.0863
  836MOL0     H12814   1.070   8.069   0.798 -1.7542 -5.6410  1.8286
  836MOL0     H12815   1.191   7.970   0.892  2.0697  0.8475 -0.3181
  836MOL0     H12816   1.345   8.127   0.899 -0.2475  1.1318  2.1069
  836MOL0     H12817   1.190   8.196   0.950 -0.0928 -4.0441  1.3299
  836MOL0     H12818   1.185   8.328   0.742  0.4590  1.0714  0.4684
  836MOL0     H12819   1.321   8.230   0.663  1.8514 -0.0374  0.8758
  836MOL0     H12820   1.445   8.617   0.899  3.8375  1.4657 -1.3880
  836MOL0     H12821   1.502   8.802   0.774  2.2458 -1.4527  0.5731
  836MOL0     H12822   1.772   8.857   0.371 -1.9668  0.3781  1.8941
  836MOL0     H12823   1.903   9.037   0.247  0.5094 -0.6986 -0.9279
  836MOL0     H12824   1.951   9.285   0.211  1.3705 -1.4660  0.5405
  836MOL0     H12825   1.992   9.165   0.082  0.1889 -0.1585  1.0671
  836MOL0     H12826   1.848   9.420  -0.001  1.4072  3.1272  1.1268
  836MOL0     H12827   1.997   9.465   0.057 -1.0175  0.8906 -0.8025
  836MOL0     H12828   2.048   9.422  -0.166  0.1944 -0.1453  0.3330
  836MOL0     H12829   2.083   9.258  -0.115  0.4067  1.0592 -0.4157
  836MOL0     H12830   1.811   9.363  -0.231 -1.3259 -1.1123  0.8219
  836MOL0     H12831   1.832   9.198  -0.207  1.7760 -1.8456  1.3417
  836MOL0     H12832   2.012   9.182  -0.354  0.9913  2.1558  0.4878
  836MOL0     H12833   2.017   9.354  -0.381  0.7295 -0.8694  2.2940
  836MOL0     H12834   1.776   9.336  -0.473 -0.0331  0.4870  0.5245
  836MOL0     H12835   1.908   9.258  -0.566 -0.2314 -0.6423  1.0489
  836MOL0     H12836   1.713   9.115  -0.381  1.3637 -1.0289  0.3006
  836MOL0     H12837   1.851   9.030  -0.460 -0.5332 -0.6865 -1.3213
  836MOL0     H12838   1.640   8.988  -0.590 -0.4743  0.3177  1.8961
  836MOL0     H12839   1.615   9.155  -0.610  0.0330 -0.4002 -0.8856
  836MOL0     H12840   1.537   9.154   0.068 -2.0608  0.0664  1.0586
  836MOL0     H12841   1.410   8.994   0.189 -0.3384 -2.2731 -1.2848
  836MOL0     H12842   1.385   8.613   0.408  0.6244  0.8257 -0.0810
  836MOL0     H12843   1.325   8.413   0.535 -2.0703  0.2059  0.8820
  836MOL0     H12844   0.454   6.732   1.007 -1.0373 -0.4076  2.3911
  836MOL0     H12845   0.490   6.507   0.901 -1.8123  1.6357  0.8627
  836MOL0     H12846   0.627   6.291   0.654  0.7761  0.5389  0.5900
  836MOL0     H12847   0.569   6.099   0.500  0.8900 -0.3355 -1.0629
  836MOL0     H12848   0.462   5.769   0.408 -0.1803  2.2507 -3.5011
  836MOL0     H12849   0.499   5.935   0.399 -2.2487 -1.4953 -3.2549
  836MOL0     H12850   0.315   5.970   0.588 -0.7226  2.7454 -2.3142
  836MOL0     H12851   0.284   5.801   0.564  1.8538 -0.0796  0.0738
  836MOL0     H12852   0.257   6.014   0.350  0.8346  0.3911  1.2497
  836MOL0     H12853   0.119   5.933   0.427 -1.4242 -0.5763 -1.4250
  836MOL0     H12854   0.172   5.848   0.202  0.5636  1.9464 -0.3478
  836MOL0     H12855   0.324   5.789   0.258 -0.2165 -1.9023  2.3437
  836MOL0     H12856   0.046   5.504   0.386  0.0104 -0.0578  1.7646
  836MOL0     H12857   0.677   5.818   0.788  0.9417 -0.2349  1.8709
  836MOL0     H12858   0.764   6.004   1.047 -0.0613 -3.0178  0.5468
  836MOL0     H12859   0.823   5.862   0.947 -1.0031 -0.3710  1.5968
  836MOL0     H12860   0.904   6.022   0.949 -0.8395  0.7940  1.6887
  837MOL0     O12861   6.131   2.657   2.338 -0.7556  1.0099  0.2337
  837MOL0     C12862   6.211   2.658   2.246  1.4204  0.0802  0.0691
  837MOL0     O12863   6.169   2.658   2.116  0.5192 -0.2292  0.3258
  837MOL0     C12864   6.031   2.669   2.092  0.0286 -0.6305  0.3884
  837MOL0     C12865   5.997   2.595   1.977  0.6996 -0.5215  0.2214
  837MOL0     C12866   5.861   2.594   1.937  0.8295  0.6190  0.2854
  837MOL0     C12867   5.760   2.654   2.013 -0.3277 -0.0418 -0.6151
  837MOL0     O12868   5.627   2.663   1.985 -0.6170 -0.2410  0.3571
  837MOL0     C12869   5.586   2.674   1.853 -0.6424 -0.1699  0.6226
  837MOL0     C12870   5.485   2.788   1.852 -0.2047 -0.7392  0.1260
  837MOL0     C12871   5.343   2.754   1.903 -0.3989  0.4066  0.3900
  837MOL0     C12872   5.232   2.852   1.883 -0.6775  0.4537  0.4390
  837MOL0     C12873   5.258   2.988   1.937  0.1409 -0.3994  0.4909
  837MOL0     C12874   5.137   3.078   1.894 -0.5375  0.5486  0.0387
  837MOL0     C12875   5.150   3.219   1.930  0.3656  0.4921 -0.5846
  837MOL0     C12876   5.267   3.298   1.863 -0.3070  0.4800  0.3883
  837MOL0     N12877   5.255   3.447   1.881  0.8080 -0.2503 -0.1936
  837MOL0     C12878   5.160   3.524   1.819 -0.7716 -0.3948 -0.1961
  837MOL0     C12879   5.176   3.644   1.886 -1.0663 -0.6774  0.1592
  837MOL0     C12880   5.094   3.768   1.858  0.2075  0.0071 -0.5877
  837MOL0     C12881   5.170   3.855   1.748  0.2291  0.2147  0.3323
  837MOL0     C12882   5.077   3.978   1.718  0.3285 -0.2279  0.5878
  837MOL0     C12883   5.135   4.058   1.603 -0.0081  0.4983 -0.0844
  837MOL0     O12884   5.047   4.170   1.580  0.3568 -1.0774 -0.3931
  837MOL0     C12885   4.934   4.150   1.507 -0.2558  0.0109  0.5068
  837MOL0     C12886   4.860   4.269   1.503 -0.0523 -0.4680  0.3225
  837MOL0     C12887   4.736   4.271   1.423  0.0378 -1.0015  0.1496
  837MOL0     C12888   4.686   4.159   1.366 -0.2048  0.3616 -0.7237
  837MOL0     C12889   4.564   4.154   1.286  0.5652 -0.2564  0.0693
  837MOL0     O12890   4.513   4.276   1.257 -0.2701  0.4634  0.2105
  837MOL0     C12891   4.411   4.266   1.159  0.0498 -0.1337 -1.4028
  837MOL0     C12892   4.275   4.267   1.202  0.1636  0.2687  0.1314
  837MOL0     C12893   4.172   4.257   1.104  0.6191  0.4383  0.1465
  837MOL0     C12894   4.191   4.242   0.971  0.0688  0.4308  0.8230
  837MOL0     O12895   4.092   4.230   0.873  0.2206 -0.6187  0.2848
  837MOL0     C12896   3.962   4.288   0.905 -0.4660  0.4286 -0.1054
  837MOL0     C12897   3.959   4.436   0.904  1.0070 -1.0714 -0.1261
  837MOL0     C12898   3.819   4.487   0.949 -0.0225 -0.0863  0.0729
  837MOL0     C12899   3.786   4.633   0.934 -0.3136 -0.8922  0.2284
  837MOL0     C12900   3.661   4.665   1.015  0.4007 -0.5620  0.0013
  837MOL0     C12901   3.679   4.667   1.163 -0.7497  0.7989 -0.2046
  837MOL0     C12902   3.587   4.760   1.236  0.5386  0.2374  0.0056
  837MOL0     C12903   3.609   4.748   1.394 -0.9069  0.0561  1.0961
  837MOL0    Cl12904   3.481   4.836   1.494 -0.1470  0.2373 -0.2175
  837MOL0     C12905   4.325   4.222   0.937 -0.0118 -0.2050 -0.0728
  837MOL0     C12906   4.426   4.246   1.024 -0.3192 -0.6138 -0.9725
  837MOL0     O12907   4.513   4.043   1.262  0.3624 -0.2748  0.1301
  837MOL0     C12908   4.766   4.045   1.370 -0.4057 -0.3561 -0.1907
  837MOL0     C12909   4.883   4.035   1.445 -0.0938 -0.0196 -0.5754
  837MOL0     N12910   5.275   3.635   1.981  1.0855  0.5077  0.4439
  837MOL0     N12911   5.325   3.518   1.971 -0.0784  0.3488 -0.2241
  837MOL0     C12912   5.803   2.713   2.137  0.1077 -0.7695  0.8458
  837MOL0     C12913   5.935   2.724   2.174  0.4571 -0.7025  0.4567
  837MOL0     C12914   6.360   2.655   2.280  0.2259  1.0547  0.2782
  837MOL0     C12915   6.438   2.701   2.170  0.5617  0.1764  0.1591
  837MOL0     C12916   6.572   2.696   2.176  0.1571  0.2792  0.1648
  837MOL0     C12917   6.632   2.655   2.291  0.0456 -0.0794 -0.1601
  837MOL0     O12918   6.771   2.650   2.283 -0.4442 -0.0490  0.7221
  837MOL0     C12919   6.839   2.614   2.406 -0.2046  0.0035  0.7996
  837MOL0     C12920   6.984   2.636   2.373  0.4868 -0.2086  0.8047
  837MOL0     C12921   7.021   2.781   2.382 -0.3607  0.5070 -0.0419
  837MOL0     C12922   7.170   2.797   2.416  0.3806  0.3886  0.5414
  837MOL0     C12923   7.219   2.927   2.361  0.3795 -0.0494  0.2842
  837MOL0     C12924   7.253   3.037   2.315 -0.1879  0.2946  0.2387
  837MOL0     C12925   6.558   2.606   2.395  0.1602 -0.3945 -0.6674
  837MOL0     C12926   6.421   2.610   2.394 -0.4932 -0.3121  0.2957
  837MOL0     C12927   6.347   2.564   2.515 -0.6494  1.1835 -0.6521
  837MOL0     H12928   6.067   2.531   1.924  1.0611  0.1718 -0.1598
  837MOL0     H12929   5.836   2.534   1.850  1.9840 -0.4084  0.6240
  837MOL0     H12930   5.662   2.695   1.777  0.7059  0.0337  1.9655
  837MOL0     H12931   5.540   2.582   1.819  2.3981 -1.4847 -0.2634
  837MOL0     H12932   5.479   2.823   1.749  0.4342 -2.6263 -0.5872
  837MOL0     H12933   5.529   2.863   1.918  0.8271 -2.3358  1.3459
  837MOL0     H12934   5.347   2.718   2.007 -0.2164 -3.0796 -0.7122
  837MOL0     H12935   5.320   2.662   1.848  3.3088 -0.9640  0.8151
  837MOL0     H12936   5.204   2.865   1.778  0.4931 -1.3682 -0.1365
  837MOL0     H12937   5.150   2.808   1.939  1.3167 -2.5853  1.2194
  837MOL0     H12938   5.278   2.983   2.044  0.4991 -0.1945  0.4366
  837MOL0     H12939   5.351   3.031   1.897 -0.7247  0.8269 -0.3039
  837MOL0     H12940   5.125   3.064   1.786  1.1495 -0.4959 -0.0561
  837MOL0     H12941   5.052   3.038   1.950  0.6442  1.8749  2.9812
  837MOL0     H12942   5.175   3.234   2.035  0.2760  3.8915 -0.9448
  837MOL0     H12943   5.050   3.259   1.911  0.2809  1.5232  1.6521
  837MOL0     H12944   5.364   3.279   1.909 -0.9500  0.4743  1.7809
  837MOL0     H12945   5.272   3.272   1.757  1.2147  1.2857  0.2373
  837MOL0     H12946   5.085   3.506   1.742 -0.0475 -1.9211 -0.5934
  837MOL0     H12947   4.991   3.743   1.831  0.4946 -0.3794 -1.3312
  837MOL0     H12948   5.096   3.834   1.946 -0.7570  2.3179 -2.1984
  837MOL0     H12949   5.270   3.878   1.787 -0.2395 -1.4444  2.7560
  837MOL0     H12950   5.171   3.787   1.662 -1.5709 -2.2334  2.1024
  837MOL0     H12951   5.081   4.055   1.796 -0.0543  0.9545 -0.5141
  837MOL0     H12952   4.974   3.958   1.689 -0.3287  1.7971  1.3527
  837MOL0     H12953   5.151   4.001   1.511 -2.5524  1.1939 -1.0536
  837MOL0     H12954   5.227   4.102   1.641 -1.5710  0.6645  4.1128
  837MOL0     H12955   4.888   4.361   1.553  1.4785  2.6106 -5.2199
  837MOL0     H12956   4.683   4.366   1.427 -2.6069 -2.4370  0.9135
  837MOL0     H12957   4.259   4.267   1.309  3.3479 -1.6462  0.7210
  837MOL0     H12958   4.071   4.250   1.144  0.0382 -2.9981 -1.5724
  837MOL0     H12959   3.888   4.263   0.828  1.3629  1.2338 -2.2378
  837MOL0     H12960   3.933   4.255   1.005 -1.6624 -0.7536 -0.8000
  837MOL0     H12961   4.033   4.470   0.976  1.4499 -0.5682 -0.8056
  837MOL0     H12962   3.979   4.478   0.805 -0.5453  1.6871  0.6260
  837MOL0     H12963   3.747   4.436   0.883  1.0895  0.0430 -1.3036
  837MOL0     H12964   3.801   4.464   1.054 -3.3402  2.1330  0.1448
  837MOL0     H12965   3.778   4.663   0.829  0.6315 -0.0282  0.3789
  837MOL0     H12966   3.863   4.700   0.975 -2.6057  1.2478  1.3190
  837MOL0     H12967   3.590   4.588   0.981 -2.4478  2.1491 -0.6589
  837MOL0     H12968   3.629   4.763   0.981  1.8263  0.2406  0.8620
  837MOL0     H12969   3.656   4.569   1.206  2.5243  0.5905  1.3615
  837MOL0     H12970   3.781   4.688   1.196 -0.8915 -0.2160  0.9681
  837MOL0     H12971   3.481   4.742   1.217  0.3956 -0.0861  1.0442
  837MOL0     H12972   3.590   4.867   1.214 -1.8155 -0.1526 -2.9913
  837MOL0     H12973   3.608   4.642   1.417 -1.3773  0.0167  0.9172
  837MOL0     H12974   3.709   4.785   1.419  0.3759 -0.3558 -2.7196
  837MOL0     H12975   4.354   4.194   0.836  1.1989 -4.3431  1.1914
  837MOL0     H12976   4.529   4.232   0.994  0.6900 -1.8032  2.6578
  837MOL0     H12977   4.729   3.952   1.328 -1.2969  0.1046 -0.4434
  837MOL0     H12978   4.924   3.935   1.456 -1.8045 -0.6047  1.1579
  837MOL0     H12979   5.734   2.766   2.202 -2.2360  0.6821 -2.4672
  837MOL0     H12980   5.962   2.778   2.264  2.7842 -0.5843 -0.2640
  837MOL0     H12981   6.395   2.714   2.071  2.5224  0.1590 -0.7312
  837MOL0     H12982   6.637   2.725   2.094 -1.0187  3.7823  0.3035
  837MOL0     H12983   6.820   2.510   2.436 -0.0515  0.6030  3.1589
  837MOL0     H12984   6.819   2.673   2.496 -1.0555 -2.3040  2.2200
  837MOL0     H12985   7.010   2.616   2.268  2.8421  0.8117  1.1378
  837MOL0     H12986   7.040   2.583   2.450  1.4238 -1.2203 -0.5365
  837MOL0     H12987   6.967   2.831   2.464  1.4954 -0.1867  1.7067
  837MOL0     H12988   7.000   2.829   2.286  0.7195 -0.5753 -0.8468
  837MOL0     H12989   7.194   2.795   2.523 -2.2504 -0.5748  1.1839
  837MOL0     H12990   7.233   2.720   2.371  0.5729 -0.2055  1.7893
  837MOL0     H12991   7.304   3.128   2.289  0.2908  0.5312  1.9199
  837MOL0     H12992   6.592   2.560   2.487 -0.0591  1.2174  0.2606
  837MOL0     H12993   6.416   2.535   2.595 -0.8129 -4.0367 -2.1140
  837MOL0     H12994   6.291   2.648   2.559 -1.1015  0.9269 -0.7315
  837MOL0     H12995   6.275   2.486   2.490 -0.4903  1.0388 -0.6560
  838MOL0     O12996   1.833   8.653   4.870 -0.1215  0.2654  0.4297
  838MOL0     C12997   1.871   8.746   4.800 -0.1607 -0.5851 -0.0657
  838MOL0     O12998   1.799   8.808   4.700 -0.6468 -0.1279  0.3040
  838MOL0     C12999   1.676   8.760   4.666  0.1389 -0.6010 -0.5912
  838MOL0     C13000   1.646   8.621   4.642  0.0783 -0.5866 -0.2243
  838MOL0     C13001   1.521   8.561   4.624  0.7455  0.3861  0.4397
  838MOL0     C13002   1.404   8.650   4.638  0.6790 -0.0119 -0.0994
  838MOL0     O13003   1.274   8.605   4.630 -0.1075 -0.5152  0.4452
  838MOL0     C13004   1.244   8.469   4.607 -0.8053  0.2240 -0.0712
  838MOL0     C13005   1.094   8.447   4.594  0.1686  0.0080  0.0804
  838MOL0     C13006   1.030   8.526   4.484  0.4081 -0.2884  0.7667
  838MOL0     C13007   0.887   8.525   4.505 -0.0298  0.2924 -0.5266
  838MOL0     C13008   0.820   8.618   4.409 -0.2418  0.1860  0.8774
  838MOL0     C13009   0.813   8.570   4.257 -0.2784  0.6872  0.3192
  838MOL0     C13010   0.802   8.684   4.152 -0.2264  0.3714  0.5803
  838MOL0     C13011   0.754   8.641   4.015  0.7480 -0.0378  0.3584
  838MOL0     N13012   0.652   8.532   4.020 -0.2633  0.7671  0.6486
  838MOL0     C13013   0.521   8.534   4.067  0.0016  0.7532  0.5725
  838MOL0     C13014   0.478   8.404   4.056 -0.6012 -0.9048 -0.4916
  838MOL0     C13015   0.337   8.364   4.109  0.8710  0.1908 -0.6606
  838MOL0     C13016   0.318   8.392   4.260 -0.3453 -0.0196  0.4104
  838MOL0     C13017   0.439   8.360   4.347  0.1441 -0.3702  0.2877
  838MOL0     C13018   0.472   8.211   4.338  0.5685 -0.4414 -0.3939
  838MOL0     O13019   0.581   8.180   4.435 -0.7829 -0.1424 -0.8516
  838MOL0     C13020   0.712   8.179   4.392  0.3899  0.4506 -0.4142
  838MOL0     C13021   0.754   8.210   4.267  0.2610 -0.0937  0.6223
  838MOL0     C13022   0.886   8.203   4.229 -0.5823  0.1863 -0.5228
  838MOL0     C13023   0.980   8.148   4.312  0.0503 -0.6159 -0.3881
  838MOL0     C13024   1.126   8.123   4.263  0.3104  0.1687 -0.4024
  838MOL0     O13025   1.149   8.124   4.130 -0.4542  0.2713 -0.8263
  838MOL0     C13026   1.276   8.122   4.080 -0.1196 -0.3265 -0.1578
  838MOL0     C13027   1.336   8.240   4.028 -0.0537  0.0200 -0.7531
  838MOL0     C13028   1.476   8.238   4.015  0.2847  0.8256 -0.3760
  838MOL0     C13029   1.552   8.133   4.047 -0.2700 -0.1758  0.5823
  838MOL0     O13030   1.689   8.151   4.046 -0.0066 -1.2482 -0.3040
  838MOL0     C13031   1.774   8.055   4.105 -0.5837 -0.1624  0.9731
  838MOL0     C13032   1.905   8.123   4.117  0.7838 -0.0466  0.0820
  838MOL0     C13033   2.015   8.064   4.208  0.0195 -0.0793  0.7545
  838MOL0     C13034   1.977   7.928   4.266 -0.2745 -0.5560  0.1740
  838MOL0     C13035   2.097   7.862   4.346 -0.2791  0.0029 -0.3068
  838MOL0     C13036   2.146   7.958   4.466 -0.0099  0.6554  0.2360
  838MOL0     C13037   2.229   7.882   4.570  0.4463 -0.0801 -0.1506
  838MOL0     C13038   2.277   7.986   4.670 -0.1905  0.6272  0.4411
  838MOL0    Cl13039   2.360   7.891   4.798 -0.3408  0.1225 -0.4838
  838MOL0     C13040   1.488   8.007   4.062 -0.3190  0.7615  0.3383
  838MOL0     C13041   1.353   8.008   4.074 -0.0898 -0.6569  0.4528
  838MOL0     O13042   1.210   8.115   4.350 -0.1165  0.2829  0.2260
  838MOL0     C13043   0.932   8.099   4.435  0.1572  0.4409  0.8714
  838MOL0     C13044   0.798   8.112   4.476  0.0297  0.5865  1.1461
  838MOL0     N13045   0.577   8.334   3.991 -0.5558  0.1581 -0.8879
  838MOL0     N13046   0.682   8.414   3.963  1.2840  0.5809 -0.0911
  838MOL0     C13047   1.429   8.788   4.659  0.8750  0.4519  0.1856
  838MOL0     C13048   1.563   8.841   4.681 -0.1557  0.0120  0.0645
  838MOL0     C13049   2.009   8.794   4.831 -0.6122 -0.1896 -0.6739
  838MOL0     C13050   2.065   8.756   4.957  0.1841 -0.3260 -0.8764
  838MOL0     C13051   2.187   8.792   4.991 -0.3332  0.5972  0.0452
  838MOL0     C13052   2.264   8.869   4.907  0.3556  0.3199 -0.1188
  838MOL0     O13053   2.379   8.910   4.950  0.1115  0.1721  0.0023
  838MOL0     C13054   2.489   8.953   4.866  0.5958  0.6083 -0.3707
  838MOL0     C13055   2.586   9.021   4.954 -0.0344 -0.1291 -0.9067
  838MOL0     C13056   2.719   9.079   4.890  0.5343  0.4039 -0.2914
  838MOL0     C13057   2.833   9.121   5.000  0.1418  1.3110 -0.4568
  838MOL0     C13058   2.955   9.052   4.963  0.2477  0.8560  0.1727
  838MOL0     C13059   3.058   9.009   4.926  0.3530 -0.1053  0.5793
  838MOL0     C13060   2.214   8.906   4.784 -0.3552  0.4059  0.0458
  838MOL0     C13061   2.087   8.871   4.744  0.9352 -0.1023 -0.2505
  838MOL0     C13062   2.030   8.909   4.607 -0.0387  0.4875  0.2010
  838MOL0     H13063   1.739   8.566   4.632  2.2098  2.9897 -2.1880
  838MOL0     H13064   1.503   8.455   4.610 -0.6836  0.7679 -0.8033
  838MOL0     H13065   1.288   8.438   4.511 -0.9711 -0.1857 -0.0194
  838MOL0     H13066   1.286   8.405   4.685  1.4789  0.6345 -0.8726
  838MOL0     H13067   1.060   8.478   4.693 -0.6108  0.1921 -0.2314
  838MOL0     H13068   1.083   8.341   4.571  1.2663 -0.8551  3.1661
  838MOL0     H13069   1.057   8.484   4.387 -2.4162 -0.3110 -0.0758
  838MOL0     H13070   1.064   8.630   4.483  0.3349 -0.2093 -2.2122
  838MOL0     H13071   0.839   8.427   4.495 -0.7828  0.7045 -1.0081
  838MOL0     H13072   0.862   8.547   4.609  2.2223 -0.9069  0.3218
  838MOL0     H13073   0.720   8.641   4.448  0.4149  1.0279  2.1791
  838MOL0     H13074   0.869   8.716   4.407 -1.6350  0.9335  1.7856
  838MOL0     H13075   0.902   8.520   4.220  0.0228  0.0468  1.8569
  838MOL0     H13076   0.735   8.495   4.244  0.7783 -0.0394 -2.4241
  838MOL0     H13077   0.886   8.752   4.138  1.7714 -2.4650 -2.7050
  838MOL0     H13078   0.718   8.740   4.194  0.2084 -1.0429  3.5473
  838MOL0     H13079   0.710   8.723   3.957  1.3738 -0.0509 -0.1466
  838MOL0     H13080   0.840   8.610   3.955  1.9747 -0.5406  2.3041
  838MOL0     H13081   0.469   8.618   4.112 -0.6247 -0.5200  2.3535
  838MOL0     H13082   0.269   8.433   4.059  1.6927  1.2146 -0.3871
  838MOL0     H13083   0.316   8.258   4.092  1.5431 -0.0513 -0.0319
  838MOL0     H13084   0.297   8.499   4.272 -3.2069 -0.5731  1.1287
  838MOL0     H13085   0.238   8.339   4.312 -0.6707  1.8447  1.9036
  838MOL0     H13086   0.417   8.390   4.449 -0.4575  1.9386 -0.4565
  838MOL0     H13087   0.525   8.419   4.313 -0.2425  1.0503  1.6884
  838MOL0     H13088   0.503   8.185   4.236  3.6493  2.2934 -0.3142
  838MOL0     H13089   0.384   8.149   4.359  0.9598 -0.4128  1.4770
  838MOL0     H13090   0.683   8.245   4.192 -2.1604  0.1512  2.8893
  838MOL0     H13091   0.915   8.228   4.128  2.4382  0.1695  0.2456
  838MOL0     H13092   1.275   8.329   4.016 -2.4134 -0.9680  2.7116
  838MOL0     H13093   1.516   8.335   3.988 -0.7727  2.5737  3.5938
  838MOL0     H13094   1.724   8.033   4.200 -3.8215 -0.1537 -0.6178
  838MOL0     H13095   1.785   7.968   4.040 -0.8683  1.3995 -1.2864
  838MOL0     H13096   1.957   8.157   4.027  0.4913 -2.5472 -1.1113
  838MOL0     H13097   1.881   8.217   4.167 -1.2760 -0.3633 -0.1970
  838MOL0     H13098   2.105   8.042   4.149 -0.3793 -2.0175  0.7798
  838MOL0     H13099   2.049   8.142   4.276  1.0807  0.1962 -0.0593
  838MOL0     H13100   1.945   7.863   4.184 -2.5061  1.6968 -0.8791
  838MOL0     H13101   1.894   7.947   4.334 -0.9785 -1.1105 -0.5066
  838MOL0     H13102   2.176   7.834   4.275 -0.2225  2.6424 -1.4168
  838MOL0     H13103   2.054   7.767   4.379  0.8895 -1.2068 -2.0745
  838MOL0     H13104   2.204   8.039   4.421  2.1545 -1.1829 -0.4408
  838MOL0     H13105   2.054   7.997   4.511  1.3881  3.4490  0.8579
  838MOL0     H13106   2.315   7.837   4.519 -0.2515  0.2021 -1.6339
  838MOL0     H13107   2.172   7.807   4.624  0.4669  0.7679  1.0869
  838MOL0     H13108   2.350   8.051   4.620 -2.7012  1.0006 -3.1520
  838MOL0     H13109   2.199   8.045   4.719 -1.3910 -0.2348 -0.3700
  838MOL0     H13110   1.533   7.908   4.072 -1.8288  0.0820  0.6523
  838MOL0     H13111   1.293   7.919   4.086 -3.1361  1.4019  1.7375
  838MOL0     H13112   1.006   8.047   4.495 -1.0158 -1.2927  0.9016
  838MOL0     H13113   0.765   8.081   4.575  2.3338 -0.1199  1.7705
  838MOL0     H13114   1.344   8.851   4.684  1.4524  1.1296  0.4767
  838MOL0     H13115   1.574   8.945   4.712 -3.9034  0.9205 -1.0868
  838MOL0     H13116   2.010   8.696   5.028  3.1492 -1.2549  0.8468
  838MOL0     H13117   2.235   8.755   5.081  1.7317 -2.9649 -2.2564
  838MOL0     H13118   2.446   9.027   4.798 -1.6282 -0.4226 -0.2053
  838MOL0     H13119   2.521   8.873   4.798 -0.2860 -0.3426  0.2936
  838MOL0     H13120   2.617   8.938   5.018  4.3465  2.6659  1.0594
  838MOL0     H13121   2.536   9.106   5.001 -0.1869  0.6099 -2.3484
  838MOL0     H13122   2.690   9.174   4.845  0.6564  0.5074 -0.1519
  838MOL0     H13123   2.760   9.009   4.816  2.6422 -0.4761  1.5745
  838MOL0     H13124   2.854   9.228   4.996  1.5068  1.1007  0.4815
  838MOL0     H13125   2.806   9.108   5.105  0.8905  1.0272 -0.2970
  838MOL0     H13126   3.150   8.974   4.885  1.4444  2.0658  1.0300
  838MOL0     H13127   2.273   8.974   4.724  1.7766  0.3542  1.9706
  838MOL0     H13128   1.970   8.830   4.560  0.3219  0.1618  0.2917
  838MOL0     H13129   1.960   8.993   4.616  1.2029  1.2806  5.8639
  838MOL0     H13130   2.113   8.936   4.541  0.7852  3.0440  2.1398
  839MOL0     O13131   1.063   5.978   3.612 -0.1410 -0.0210 -0.0715
  839MOL0     C13132   1.124   6.077   3.585 -1.5265  0.0616 -0.0223
  839MOL0     O13133   1.168   6.170   3.675  0.4553  0.2710 -0.5028
  839MOL0     C13134   1.141   6.135   3.818 -0.5705 -0.1163 -0.2579
  839MOL0     C13135   1.197   6.025   3.888 -0.2667  0.3544  0.0709
  839MOL0     C13136   1.165   5.998   4.019 -0.9268  0.5770 -0.1602
  839MOL0     C13137   1.081   6.090   4.079 -0.6446  0.5915  0.2036
  839MOL0     O13138   1.045   6.055   4.208 -0.3682 -0.7844 -0.0540
  839MOL0     C13139   1.085   6.141   4.324  0.1576 -0.7399 -0.7607
  839MOL0     C13140   1.051   6.104   4.468 -0.8759  0.1600  0.4769
  839MOL0     C13141   0.906   6.064   4.475 -0.8421  0.2385 -0.5551
  839MOL0     C13142   0.871   6.014   4.612 -0.0807 -0.1555  0.0055
  839MOL0     C13143   0.714   5.974   4.605 -1.1823  0.4052 -0.2786
  839MOL0     C13144   0.665   5.875   4.710 -0.6370 -0.8079 -0.4105
  839MOL0     C13145   0.677   5.912   4.856 -1.0079 -0.1994  0.2853
  839MOL0     C13146   0.626   5.803   4.941 -0.4145  0.3277  0.5891
  839MOL0     N13147   0.729   5.699   4.959  0.4529 -0.0004 -0.6267
  839MOL0     C13148   0.849   5.718   5.021  0.6785  0.0076  0.1521
  839MOL0     C13149   0.915   5.601   5.008  0.1367 -0.0547  0.3736
  839MOL0     C13150   1.046   5.565   5.071  0.1205 -0.6495  0.1800
  839MOL0     C13151   1.170   5.564   4.988  0.3399 -0.4671 -0.5515
  839MOL0     C13152   1.235   5.703   4.982 -0.0526 -0.6129 -0.4371
  839MOL0     C13153   1.265   5.754   5.122  0.1915 -0.0024 -0.1933
  839MOL0     O13154   1.374   5.849   5.120  0.4209  0.2765 -0.2188
  839MOL0     C13155   1.410   5.910   5.230 -0.3402  0.7482 -0.4789
  839MOL0     C13156   1.392   5.846   5.351  0.2584 -0.1750  0.0383
  839MOL0     C13157   1.438   5.906   5.472 -0.1532 -0.0655 -0.0037
  839MOL0     C13158   1.528   6.014   5.464 -0.0067 -0.4548 -0.0027
  839MOL0     C13159   1.601   6.065   5.573 -0.2541 -0.2332  1.3499
  839MOL0     O13160   1.705   6.148   5.536  0.2326 -0.0249 -0.5465
  839MOL0     C13161   1.815   6.154   5.623  0.0274 -0.1578 -0.3172
  839MOL0     C13162   1.875   6.278   5.629 -1.0277  0.3937  0.2180
  839MOL0     C13163   1.989   6.294   5.713 -0.2505  0.0356 -0.2943
  839MOL0     C13164   2.048   6.192   5.780 -0.2621 -0.9755  0.0712
  839MOL0     O13165   2.169   6.215   5.840 -0.5397 -0.0689  0.4407
  839MOL0     C13166   2.168   6.255   5.973  0.4062 -0.5093 -0.8061
  839MOL0     C13167   2.290   6.318   6.026 -0.1946 -0.0625  0.4378
  839MOL0     C13168   2.414   6.222   6.036  0.2606 -1.3763 -0.7321
  839MOL0     C13169   2.510   6.228   5.919  1.4741  0.3070 -0.2088
  839MOL0     C13170   2.646   6.161   5.933  0.1676 -0.4398  0.6928
  839MOL0     C13171   2.721   6.179   5.806  0.6112 -0.4337  0.3769
  839MOL0     C13172   2.846   6.091   5.826 -0.2746  0.2851  0.3006
  839MOL0     C13173   2.837   5.962   5.738 -0.0425  0.0385  0.1602
  839MOL0    Cl13174   2.846   5.829   5.866  0.3459  0.5143 -0.4048
  839MOL0     C13175   1.989   6.064   5.771 -0.0477 -0.5144  0.0395
  839MOL0     C13176   1.881   6.048   5.693  0.1501  0.4009  0.2923
  839MOL0     O13177   1.577   6.014   5.687  0.0849 -0.1069 -0.0615
  839MOL0     C13178   1.541   6.082   5.340 -0.1221  0.8034 -0.2492
  839MOL0     C13179   1.493   6.018   5.222  0.0959 -0.6461  0.1290
  839MOL0     N13180   0.830   5.513   4.940  0.6139  0.7157  0.4212
  839MOL0     N13181   0.719   5.576   4.922  0.4674 -0.2723 -0.2577
  839MOL0     C13182   1.034   6.208   4.016  0.3462  0.5416  0.3905
  839MOL0     C13183   1.059   6.222   3.880 -0.0798  0.2935 -0.5692
  839MOL0     C13184   1.163   6.122   3.445 -0.0862  0.4155 -0.2983
  839MOL0     C13185   1.177   6.261   3.410  0.1318  0.3324  0.0263
  839MOL0     C13186   1.178   6.298   3.279 -0.6070  0.3053  0.4638
  839MOL0     C13187   1.199   6.211   3.173 -0.4436  0.7481 -0.3241
  839MOL0     O13188   1.200   6.235   3.042  0.2743  1.0505 -0.0857
  839MOL0     C13189   1.228   6.367   3.007  0.6828  0.1941  0.1023
  839MOL0     C13190   1.235   6.370   2.856  1.1486  0.0814 -0.0264
  839MOL0     C13191   1.236   6.517   2.814  0.0596  0.0873  0.9290
  839MOL0     C13192   1.204   6.541   2.668 -0.7651  0.5076  0.5667
  839MOL0     C13193   1.053   6.546   2.646 -0.0334  0.0303 -0.3529
  839MOL0     C13194   0.929   6.544   2.627  0.3721 -1.2560  0.1534
  839MOL0     C13195   1.209   6.074   3.210 -0.1339  0.2894 -0.2553
  839MOL0     C13196   1.191   6.026   3.344  0.3341 -0.0028 -0.4873
  839MOL0     C13197   1.202   5.876   3.357 -0.6326  0.0109  0.2606
  839MOL0     H13198   1.265   5.958   3.836  0.9835  0.2057  1.7981
  839MOL0     H13199   1.194   5.913   4.079  0.1560 -0.1755 -1.7027
  839MOL0     H13200   1.194   6.147   4.318  0.1878 -1.0321 -0.5087
  839MOL0     H13201   1.040   6.240   4.309  1.5491 -0.1204 -1.0563
  839MOL0     H13202   1.082   6.184   4.536  0.7468 -1.0649  1.2356
  839MOL0     H13203   1.118   6.020   4.489 -1.1468 -0.0292  0.5903
  839MOL0     H13204   0.890   5.977   4.411  0.5452 -0.1733 -0.3736
  839MOL0     H13205   0.834   6.143   4.450 -3.4874 -0.8211  2.9449
  839MOL0     H13206   0.920   5.922   4.645  0.6654  0.4956  0.7566
  839MOL0     H13207   0.892   6.092   4.686 -0.9579  1.0221 -0.9422
  839MOL0     H13208   0.641   6.055   4.587 -0.9278  0.1348 -3.0723
  839MOL0     H13209   0.717   5.923   4.508  1.1089  0.5499 -0.3340
  839MOL0     H13210   0.560   5.866   4.680 -0.5880 -2.0895 -0.2662
  839MOL0     H13211   0.728   5.787   4.698  1.3953  0.6414 -0.7801
  839MOL0     H13212   0.618   6.001   4.879  2.5830  2.1045  1.4577
  839MOL0     H13213   0.781   5.934   4.879 -0.5726 -2.0632  0.2720
  839MOL0     H13214   0.594   5.833   5.041 -0.7721 -1.1764  0.9485
  839MOL0     H13215   0.549   5.746   4.888  0.6146 -2.8209  2.2706
  839MOL0     H13216   0.877   5.802   5.083 -1.0343  1.7443 -1.3039
  839MOL0     H13217   1.064   5.614   5.167  1.0885  1.3931 -0.9565
  839MOL0     H13218   1.028   5.468   5.116  2.0603 -1.2962 -0.3570
  839MOL0     H13219   1.244   5.495   5.029  1.3881  1.4285  0.9126
  839MOL0     H13220   1.145   5.535   4.885  0.6805  0.2704 -0.8492
  839MOL0     H13221   1.163   5.770   4.935  1.7075  0.5358 -1.6494
  839MOL0     H13222   1.330   5.708   4.927  1.5593  1.5083  2.3049
  839MOL0     H13223   1.295   5.676   5.192  2.7987 -0.2905 -1.5218
  839MOL0     H13224   1.191   5.814   5.175  1.8700  0.8476  1.2976
  839MOL0     H13225   1.349   5.749   5.373  0.7298  0.2788  3.5569
  839MOL0     H13226   1.412   5.860   5.566 -1.9592 -2.0626 -1.3762
  839MOL0     H13227   1.830   6.357   5.569 -0.5037  1.2299  0.9147
  839MOL0     H13228   2.033   6.393   5.727  1.4534 -0.6380 -0.5490
  839MOL0     H13229   2.083   6.320   5.997  1.6767  0.7502  0.4730
  839MOL0     H13230   2.154   6.167   6.037  1.0862 -0.7594 -0.9960
  839MOL0     H13231   2.310   6.411   5.973 -2.2394 -1.0244 -2.2530
  839MOL0     H13232   2.255   6.345   6.126  0.2253  1.0463  0.2977
  839MOL0     H13233   2.462   6.232   6.134 -3.5929  0.5493  1.1724
  839MOL0     H13234   2.375   6.120   6.039  0.1254 -1.3314  2.5287
  839MOL0     H13235   2.524   6.334   5.894  0.4182  0.6022  0.3894
  839MOL0     H13236   2.456   6.192   5.831  0.2780  0.1487  0.5593
  839MOL0     H13237   2.646   6.057   5.966  0.8140 -0.3931  0.8688
  839MOL0     H13238   2.704   6.205   6.015  2.1097 -1.3588 -0.1189
  839MOL0     H13239   2.657   6.156   5.720  1.1696  2.7868 -1.0358
  839MOL0     H13240   2.732   6.287   5.809  1.1639 -0.4723 -0.0875
  839MOL0     H13241   2.869   6.057   5.927 -0.7242 -4.5801 -0.9776
  839MOL0     H13242   2.942   6.139   5.802 -0.4487  1.6460  2.1125
  839MOL0     H13243   2.738   5.947   5.694 -1.0936 -1.4852  2.7709
  839MOL0     H13244   2.915   5.954   5.662  0.6612  0.9826  0.7559
  839MOL0     H13245   2.027   5.975   5.819  0.1750  0.0951  1.0225
  839MOL0     H13246   1.853   5.944   5.706  3.3218 -0.8594 -1.8475
  839MOL0     H13247   1.595   6.176   5.339 -0.9230  1.2729 -1.2932
  839MOL0     H13248   1.517   6.057   5.124  0.3502  0.7943  0.7408
  839MOL0     H13249   0.962   6.279   4.057  0.9624  0.4750  1.6258
  839MOL0     H13250   1.026   6.305   3.819 -3.2039  1.3394  2.2583
  839MOL0     H13251   1.170   6.344   3.479 -0.2945  0.1061  0.2621
  839MOL0     H13252   1.173   6.406   3.264  2.1020  0.4853  0.4167
  839MOL0     H13253   1.319   6.403   3.056 -0.3041  1.3240  1.1552
  839MOL0     H13254   1.146   6.430   3.041 -1.5492 -1.9225 -1.0677
  839MOL0     H13255   1.154   6.311   2.811  0.4164  0.9330  0.1391
  839MOL0     H13256   1.326   6.320   2.823  1.0553  0.0864 -0.2958
  839MOL0     H13257   1.335   6.561   2.830 -1.0505  2.9093  0.5996
  839MOL0     H13258   1.164   6.580   2.866 -0.4284 -0.5200  1.0061
  839MOL0     H13259   1.260   6.633   2.647  3.7412 -1.6821  1.5598
  839MOL0     H13260   1.252   6.463   2.608 -0.7559  0.7933  0.1984
  839MOL0     H13261   0.823   6.536   2.616  0.4338 -2.4665  0.3606
  839MOL0     H13262   1.232   6.002   3.132 -1.7804  0.3183 -0.8004
  839MOL0     H13263   1.209   5.838   3.459  0.8373 -0.6260 -0.0456
  839MOL0     H13264   1.113   5.825   3.319 -0.0037 -2.7885  2.2812
  839MOL0     H13265   1.287   5.842   3.297 -0.7991  0.7958 -0.4473
  840MOL0     O13266   2.603  10.685   8.902  0.1218  0.1102  0.0952
  840MOL0     C13267   2.605  10.795   8.962  0.7715  0.1668 -0.1079
  840MOL0     O13268   2.702  10.827   9.051  0.4060  0.0264 -0.6438
  840MOL0     C13269   2.824  10.788   9.019  0.2666 -0.1820 -0.4876
  840MOL0     C13270   2.871  10.659   9.058 -0.7024 -0.4952 -1.1136
  840MOL0     C13271   3.006  10.623   9.035  0.3416  0.2845  0.0717
  840MOL0     C13272   3.095  10.701   8.974 -0.3426 -0.1559  0.3926
  840MOL0     O13273   3.219  10.648   8.968 -0.0047 -0.1911  0.1632
  840MOL0     C13274   3.321  10.733   8.909  0.8042 -1.3634 -0.5439
  840MOL0     C13275   3.442  10.647   8.882  0.6765  1.1088 -0.7239
  840MOL0     C13276   3.546  10.739   8.826  0.4432 -0.0916 -0.4846
  840MOL0     C13277   3.684  10.677   8.843 -0.5031 -0.4105 -0.4660
  840MOL0     C13278   3.782  10.797   8.856  0.0016 -0.2207 -0.4602
  840MOL0     C13279   3.933  10.744   8.859  0.0279  0.0526  0.0540
  840MOL0     C13280   3.972  10.656   8.726  0.4886  0.4980  0.0359
  840MOL0     C13281   4.102  10.703   8.658 -0.3411 -0.5331 -0.0925
  840MOL0     N13282   4.091  10.813   8.573  0.5075 -0.0116 -0.1940
  840MOL0     C13283   4.072  10.946   8.603  0.7270  1.1152 -0.8878
  840MOL0     C13284   4.064  11.017   8.490  0.2477 -0.1887 -0.3981
  840MOL0     C13285   4.069  11.171   8.486  0.4827 -0.0224  0.6165
  840MOL0     C13286   4.215  11.218   8.498  0.1374  0.7609 -0.1339
  840MOL0     C13287   4.236  11.359   8.450 -0.4918 -0.0031 -0.7647
  840MOL0     C13288   4.391  11.400   8.446 -0.1393 -0.3322 -0.3687
  840MOL0     O13289   4.403  11.526   8.397  0.2415 -0.5713 -0.2161
  840MOL0     C13290   4.513  11.599   8.423 -1.3661 -0.1362 -0.1739
  840MOL0     C13291   4.499  11.739   8.420 -0.5049 -0.9682  0.4084
  840MOL0     C13292   4.583  11.828   8.475 -0.2043 -0.5015  0.0399
  840MOL0     C13293   4.700  11.777   8.518  0.0652 -0.2385 -0.9862
  840MOL0     C13294   4.809  11.872   8.559 -0.6479  0.1990  2.2096
  840MOL0     O13295   4.775  11.984   8.627 -0.8773 -0.9599  0.3867
  840MOL0     C13296   4.854  12.097   8.609 -0.7108  0.3862  0.5027
  840MOL0     C13297   4.795  12.206   8.536 -0.4224 -0.0688 -0.5459
  840MOL0     C13298   4.861  12.329   8.521  0.4594  0.9985  0.5418
  840MOL0     C13299   4.992  12.335   8.561 -0.6546 -0.8461 -0.4762
  840MOL0     O13300   5.063  12.455   8.546 -0.2726 -0.0093 -0.0611
  840MOL0     C13301   5.011  12.581   8.582  0.1163  1.1235 -0.3542
  840MOL0     C13302   5.131  12.680   8.598 -0.6571  0.4694 -0.8983
  840MOL0     C13303   5.096  12.819   8.660 -0.1010  0.3778 -0.5128
  840MOL0     C13304   5.215  12.881   8.719 -0.7566  0.9884 -0.7653
  840MOL0     C13305   5.329  12.904   8.620  0.0979  1.4727 -0.2713
  840MOL0     C13306   5.460  12.961   8.684 -0.6362  0.2379  0.4724
  840MOL0     C13307   5.570  12.967   8.570  0.0505 -0.4645  0.2821
  840MOL0     C13308   5.692  13.051   8.621 -0.0468 -0.2586 -0.3165
  840MOL0    Cl13309   5.808  12.939   8.686 -0.6042 -0.3992 -0.5128
  840MOL0     C13310   5.050  12.232   8.637 -1.0352 -0.6913 -0.0056
  840MOL0     C13311   4.981  12.114   8.669 -0.2791 -0.2509  0.6488
  840MOL0     O13312   4.927  11.845   8.518  0.0245 -1.2004 -0.3868
  840MOL0     C13313   4.735  11.643   8.499  0.8024 -0.2820 -0.7753
  840MOL0     C13314   4.643  11.549   8.457  0.0423  0.1855  0.0855
  840MOL0     N13315   4.045  10.926   8.391  0.8935 -0.0110 -0.6830
  840MOL0     N13316   4.053  10.804   8.437  0.3002  0.0083 -0.1294
  840MOL0     C13317   3.053  10.838   8.938 -0.1893 -0.1384 -0.7724
  840MOL0     C13318   2.919  10.876   8.958 -0.1034  0.1342  0.4059
  840MOL0     C13319   2.490  10.891   8.932 -0.3564  0.0178  1.0022
  840MOL0     C13320   2.381  10.830   8.875  0.5002  0.4838  0.8101
  840MOL0     C13321   2.263  10.908   8.851  0.3220  0.3973 -0.6289
  840MOL0     C13322   2.253  11.037   8.895 -0.0881 -0.7314  0.1187
  840MOL0     O13323   2.136  11.085   8.877 -0.6657  0.1534  0.2035
  840MOL0     C13324   2.121  11.229   8.882 -0.5221  0.7467  0.0987
  840MOL0     C13325   1.984  11.268   8.831  1.0318  0.6861 -0.7173
  840MOL0     C13326   1.876  11.273   8.925  1.0681  0.6705  0.4621
  840MOL0     C13327   1.811  11.130   8.960 -0.2401 -0.4854 -1.1714
  840MOL0     C13328   1.682  11.105   8.900  0.1249  0.2019 -0.1548
  840MOL0     C13329   1.568  11.088   8.862 -0.5083  0.5131 -0.7784
  840MOL0     C13330   2.358  11.095   8.951 -0.5427 -0.2971 -0.5260
  840MOL0     C13331   2.481  11.026   8.967 -0.4967  0.6351  0.9691
  840MOL0     C13332   2.585  11.103   9.034  0.3346 -0.0082 -0.9202
  840MOL0     H13333   2.801  10.600   9.115  2.5592 -0.1755  3.7689
  840MOL0     H13334   3.039  10.523   9.064  1.0246  1.1064  2.3710
  840MOL0     H13335   3.293  10.781   8.814 -1.8274 -2.2961 -0.3239
  840MOL0     H13336   3.339  10.813   8.982 -0.4996 -1.3721 -0.1843
  840MOL0     H13337   3.415  10.556   8.827  1.9289 -0.0903  0.5507
  840MOL0     H13338   3.475  10.604   8.977  2.9114 -0.0195 -1.9330
  840MOL0     H13339   3.547  10.831   8.884  0.0882 -2.7583  4.2206
  840MOL0     H13340   3.519  10.776   8.727 -1.2245  1.1845  0.4014
  840MOL0     H13341   3.674  10.618   8.934 -3.4678  1.2474  0.4120
  840MOL0     H13342   3.689  10.615   8.753 -0.9946 -2.9172  1.1168
  840MOL0     H13343   3.761  10.867   8.775  0.0610  1.2158  0.7033
  840MOL0     H13344   3.760  10.840   8.955  2.3056  0.6983 -0.2882
  840MOL0     H13345   3.992  10.831   8.888 -2.8955  2.3275 -0.2998
  840MOL0     H13346   3.944  10.672   8.941  1.6728  1.6198  1.2725
  840MOL0     H13347   3.892  10.666   8.653 -0.1052  0.4868  0.6678
  840MOL0     H13348   3.988  10.550   8.750  0.0543  0.8517  2.1343
  840MOL0     H13349   4.174  10.719   8.738 -1.0424 -1.0951  0.6772
  840MOL0     H13350   4.137  10.623   8.592 -1.3799  0.3912 -1.8407
  840MOL0     H13351   4.091  10.970   8.707 -0.2879 -2.3858  0.2547
  840MOL0     H13352   4.037  11.195   8.384 -2.9760 -3.0788  0.7437
  840MOL0     H13353   4.002  11.221   8.557 -0.4570  2.9661 -2.1543
  840MOL0     H13354   4.235  11.205   8.604 -1.9018 -1.1063  0.1077
  840MOL0     H13355   4.269  11.146   8.435 -2.4592 -2.3543  0.9095
  840MOL0     H13356   4.183  11.427   8.518 -0.5414 -0.5917 -0.2085
  840MOL0     H13357   4.188  11.376   8.353 -5.1239  0.4925  1.3514
  840MOL0     H13358   4.448  11.327   8.388  0.1816 -1.4938  1.3253
  840MOL0     H13359   4.423  11.395   8.551 -0.2261  1.6425 -0.2050
  840MOL0     H13360   4.404  11.781   8.390  0.3218 -2.1411 -4.8624
  840MOL0     H13361   4.557  11.932   8.493  0.6949 -0.4956  1.5312
  840MOL0     H13362   4.702  12.194   8.481 -1.7248 -1.6039  1.8010
  840MOL0     H13363   4.822  12.415   8.468 -0.7261 -0.2637 -0.7442
  840MOL0     H13364   4.946  12.624   8.506 -0.9282 -0.0086 -0.1434
  840MOL0     H13365   4.950  12.568   8.672 -2.4145  0.0714 -2.1066
  840MOL0     H13366   5.198  12.633   8.671  0.2784  5.7999  2.2657
  840MOL0     H13367   5.183  12.691   8.503 -0.0805 -1.7444 -0.8852
  840MOL0     H13368   5.053  12.887   8.587  0.5666  1.2295 -0.1192
  840MOL0     H13369   5.032  12.806   8.748  1.4493  1.3069  0.8065
  840MOL0     H13370   5.258  12.816   8.795 -2.6166  0.9786  0.3437
  840MOL0     H13371   5.176  12.975   8.760 -0.6594  0.4548  0.6258
  840MOL0     H13372   5.284  12.974   8.550  0.3069  0.8797 -1.0105
  840MOL0     H13373   5.357  12.812   8.567 -0.8615  1.3779 -0.6250
  840MOL0     H13374   5.445  13.063   8.723  1.6844 -0.5308  3.8233
  840MOL0     H13375   5.498  12.901   8.768 -2.3780 -1.0333  0.4131
  840MOL0     H13376   5.530  13.018   8.482  2.4774  0.8318 -0.1671
  840MOL0     H13377   5.593  12.866   8.536  1.8634 -0.0719  0.2365
  840MOL0     H13378   5.746  13.101   8.540 -1.4731  0.4763 -0.8371
  840MOL0     H13379   5.660  13.134   8.686  0.3977  1.1254 -1.8042
  840MOL0     H13380   5.151  12.251   8.671 -0.2026 -1.0850 -2.1376
  840MOL0     H13381   5.024  12.030   8.723  1.7580  0.5871  0.3801
  840MOL0     H13382   4.831  11.608   8.535  1.0461  0.1528 -0.9956
  840MOL0     H13383   4.666  11.443   8.455  2.0611  0.5543  0.9826
  840MOL0     H13384   3.119  10.916   8.901 -5.1385  3.7099 -2.6609
  840MOL0     H13385   2.880  10.974   8.936  0.5652  0.8486  2.2537
  840MOL0     H13386   2.378  10.725   8.850 -2.0390  0.8352 -0.7028
  840MOL0     H13387   2.175  10.867   8.802  1.1057  0.9111 -2.5679
  840MOL0     H13388   2.206  11.289   8.848 -0.1222  0.8811  1.3028
  840MOL0     H13389   2.125  11.256   8.988  3.5388 -0.3041  0.3989
  840MOL0     H13390   1.950  11.206   8.748 -2.4639  2.7380 -1.0268
  840MOL0     H13391   1.988  11.372   8.796 -3.2669  1.7352  1.2737
  840MOL0     H13392   1.794  11.343   8.906  0.5783 -0.4303 -1.8176
  840MOL0     H13393   1.909  11.321   9.018  0.1649  3.2421 -0.4556
  840MOL0     H13394   1.878  11.044   8.953  0.1503 -0.2319 -0.6776
  840MOL0     H13395   1.782  11.132   9.066  2.1921  0.5644 -0.4482
  840MOL0     H13396   1.479  11.071   8.804 -1.8373 -0.3932  1.4142
  840MOL0     H13397   2.345  11.184   9.011  1.8586  0.3114 -0.8110
  840MOL0     H13398   2.677  11.103   8.975  3.3790  1.0570  3.3152
  840MOL0     H13399   2.558  11.209   9.044  1.4455  0.2776 -0.8279
  840MOL0     H13400   2.592  11.060   9.135 -0.3967  2.7540  0.4129
  841MOL0     O13401   3.416   7.059   8.972  0.0723 -0.3004  0.2280
  841MOL0     C13402   3.295   7.089   8.984 -0.0224 -0.0221  0.3240
  841MOL0     O13403   3.201   7.041   9.058  0.5051  0.2091  0.6133
  841MOL0     C13404   3.222   7.011   9.189 -0.0079  0.2711 -0.4300
  841MOL0     C13405   3.160   6.900   9.255 -0.1635 -1.3135  0.4327
  841MOL0     C13406   3.210   6.866   9.381  0.6743 -0.4320  0.0052
  841MOL0     C13407   3.314   6.939   9.449 -0.6170  0.4891 -0.2440
  841MOL0     O13408   3.365   6.912   9.576  0.4507  0.1615  1.1544
  841MOL0     C13409   3.409   6.774   9.574  0.3348  0.2449 -0.6599
  841MOL0     C13410   3.524   6.793   9.681 -0.7391  0.8621 -0.3112
  841MOL0     C13411   3.615   6.672   9.707  0.8444  0.8385 -0.1768
  841MOL0     C13412   3.737   6.696   9.786 -0.4177  0.8298  0.5005
  841MOL0     C13413   3.816   6.574   9.824 -0.6571  0.0681 -0.5911
  841MOL0     C13414   3.939   6.615   9.895  0.2774  0.6183 -0.2512
  841MOL0     C13415   4.024   6.494   9.918 -0.3366  0.5822  0.0112
  841MOL0     C13416   4.160   6.548   9.963 -0.3684  0.7331 -0.0582
  841MOL0     N13417   4.262   6.451   9.994 -0.0445  1.2090 -0.2711
  841MOL0     C13418   4.396   6.486  10.004  0.2499 -0.2118 -0.2831
  841MOL0     C13419   4.446   6.381  10.074 -0.8394  0.2727  0.2368
  841MOL0     C13420   4.583   6.402  10.123 -0.3354 -0.2217 -0.6447
  841MOL0     C13421   4.590   6.517  10.231  0.7571  0.8988 -0.9904
  841MOL0     C13422   4.515   6.462  10.363 -0.0217 -0.6296  0.2275
  841MOL0     C13423   4.503   6.563  10.472  0.0060  0.2369 -0.3932
  841MOL0     O13424   4.404   6.518  10.570  0.9981  0.2600 -0.0035
  841MOL0     C13425   4.269   6.529  10.541 -0.7766 -0.2555 -0.1901
  841MOL0     C13426   4.223   6.574  10.418 -0.2753  0.5479  0.0931
  841MOL0     C13427   4.093   6.565  10.401  1.2003  0.7935  0.2792
  841MOL0     C13428   3.998   6.533  10.496 -0.3199  0.6218 -0.5636
  841MOL0     C13429   3.850   6.542  10.478 -0.8381  0.3956  0.1056
  841MOL0     O13430   3.815   6.576  10.354  0.0085 -0.7087 -0.1976
  841MOL0     C13431   3.689   6.609  10.301 -0.7888  1.3024  0.6111
  841MOL0     C13432   3.640   6.555  10.178  0.2302 -0.2870 -0.2012
  841MOL0     C13433   3.513   6.590  10.131  0.0835  0.2766 -0.3741
  841MOL0     C13434   3.442   6.688  10.211 -1.0399  0.2135  0.1677
  841MOL0     O13435   3.326   6.747  10.174 -0.1001  0.4199  0.0273
  841MOL0     C13436   3.259   6.702  10.047 -0.6374  0.5026 -0.0711
  841MOL0     C13437   3.115   6.744  10.050  0.7023 -0.1620 -0.1017
  841MOL0     C13438   3.100   6.896  10.036 -0.4712 -0.2609  0.8425
  841MOL0     C13439   2.954   6.935  10.053  0.0426 -0.8314  0.1157
  841MOL0     C13440   2.939   7.085  10.040  0.2119 -0.6827  0.0208
  841MOL0     C13441   2.802   7.141  10.065  0.2879  0.3231 -0.5328
  841MOL0     C13442   2.696   7.091   9.971 -0.6742 -0.0778 -0.7522
  841MOL0     C13443   2.573   7.178   9.968  0.5479  0.5501  0.4890
  841MOL0    Cl13444   2.470   7.144   9.822  0.3049 -0.6825 -0.0186
  841MOL0     C13445   3.490   6.736  10.332  0.6433  0.1451 -0.4604
  841MOL0     C13446   3.607   6.687  10.378 -0.3939 -0.1395 -0.2681
  841MOL0     O13447   3.780   6.506  10.572 -0.0044 -0.7558 -0.0531
  841MOL0     C13448   4.052   6.507  10.626  0.9410  0.0989 -0.3796
  841MOL0     C13449   4.185   6.498  10.647  0.1039 -0.7588 -0.4560
  841MOL0     N13450   4.348   6.282  10.085  0.7920  0.0740 -0.7935
  841MOL0     N13451   4.238   6.327  10.042 -0.1662 -0.2477  0.0725
  841MOL0     C13452   3.363   7.053   9.391 -0.0517  0.1760 -0.8590
  841MOL0     C13453   3.322   7.075   9.258  0.9692  0.3925 -0.2794
  841MOL0     C13454   3.248   7.179   8.864  0.9525 -0.7124  0.0526
  841MOL0     C13455   3.121   7.149   8.810 -0.7110  0.2334 -0.0876
  841MOL0     C13456   3.073   7.220   8.699  0.3065  0.0613 -0.9310
  841MOL0     C13457   3.145   7.330   8.642  0.9878 -0.6821 -0.1123
  841MOL0     O13458   3.096   7.389   8.524 -0.4807 -0.1413 -1.3162
  841MOL0     C13459   3.139   7.524   8.506 -0.9648  0.2716 -0.3969
  841MOL0     C13460   3.034   7.599   8.432  0.1046 -0.5436  0.5204
  841MOL0     C13461   3.003   7.531   8.295 -0.4274 -0.4205  0.2613
  841MOL0     C13462   2.937   7.644   8.203 -0.1920  0.9192 -0.0599
  841MOL0     C13463   2.816   7.704   8.257 -0.0982  0.2006  0.5669
  841MOL0     C13464   2.714   7.761   8.304 -0.7958 -0.8285  0.4981
  841MOL0     C13465   3.275   7.366   8.698  0.7291  0.2203 -0.5378
  841MOL0     C13466   3.326   7.287   8.803  0.5430 -0.0631  0.3420
  841MOL0     C13467   3.467   7.303   8.849 -0.0268 -0.4984 -0.6059
  841MOL0     H13468   3.083   6.854   9.194 -0.9105  2.1480 -1.5114
  841MOL0     H13469   3.161   6.779   9.423  0.5829 -0.9275 -1.1090
  841MOL0     H13470   3.329   6.724   9.629 -0.0002  2.6192  1.1958
  841MOL0     H13471   3.446   6.727   9.483  1.5795 -2.1095  0.9878
  841MOL0     H13472   3.491   6.815   9.783 -1.5731  3.5017 -1.0842
  841MOL0     H13473   3.586   6.879   9.654 -0.4044  0.9482  0.6830
  841MOL0     H13474   3.641   6.615   9.617  1.5196 -0.5600  0.8761
  841MOL0     H13475   3.561   6.609   9.778 -1.5793  0.7448 -1.9600
  841MOL0     H13476   3.792   6.765   9.722 -1.8629  0.2607 -1.4641
  841MOL0     H13477   3.707   6.748   9.877 -0.1295  1.2838  0.3371
  841MOL0     H13478   3.755   6.507   9.886 -1.9837  0.1551 -1.7501
  841MOL0     H13479   3.853   6.516   9.739 -0.9354 -0.6439 -0.2366
  841MOL0     H13480   3.990   6.692   9.835  1.7877  2.2727  2.9061
  841MOL0     H13481   3.925   6.664   9.991 -1.9056  0.3591 -0.4005
  841MOL0     H13482   4.037   6.436   9.827  1.1154 -4.5736  3.0535
  841MOL0     H13483   3.983   6.434  10.000  0.1066  3.0700  2.2126
  841MOL0     H13484   4.204   6.619   9.892  0.8068  2.9158  2.6698
  841MOL0     H13485   4.149   6.610  10.053 -0.5589 -0.4893  0.7876
  841MOL0     H13486   4.437   6.587  10.000 -1.2333  0.5107  1.2355
  841MOL0     H13487   4.595   6.302  10.166  1.7081 -0.1182 -0.8729
  841MOL0     H13488   4.661   6.419  10.048 -1.7151 -0.7417 -2.2700
  841MOL0     H13489   4.691   6.554  10.253  0.9836  0.4131 -1.2004
  841MOL0     H13490   4.538   6.599  10.181 -1.2015  0.3611  0.0725
  841MOL0     H13491   4.572   6.376  10.400  2.4688  0.6221 -0.4854
  841MOL0     H13492   4.412   6.435  10.336 -1.4150  3.0717  1.2537
  841MOL0     H13493   4.472   6.663  10.439 -0.4860  0.8469  1.7767
  841MOL0     H13494   4.602   6.563  10.518  2.0079 -1.7502 -4.2234
  841MOL0     H13495   4.290   6.631  10.354  1.0661 -0.1206  0.8495
  841MOL0     H13496   4.059   6.595  10.302  3.6473  0.0638 -0.8790
  841MOL0     H13497   3.701   6.476  10.135 -2.9237 -2.7819 -0.4481
  841MOL0     H13498   3.471   6.560  10.036 -1.6512 -1.7233  0.9300
  841MOL0     H13499   3.294   6.726   9.946 -3.4169 -1.9798 -1.7945
  841MOL0     H13500   3.262   6.593  10.040  0.6991  0.5666 -0.7017
  841MOL0     H13501   3.058   6.710   9.963  0.0381 -0.4189  0.4265
  841MOL0     H13502   3.072   6.710  10.144  1.6957  0.7113  0.6975
  841MOL0     H13503   3.159   6.952  10.109  1.9359 -0.2971 -0.9594
  841MOL0     H13504   3.143   6.916   9.938 -0.5083  0.9065  1.0516
  841MOL0     H13505   2.911   6.925  10.153 -0.2249  0.2244  0.1250
  841MOL0     H13506   2.884   6.881   9.988 -0.6329 -1.1258  1.0652
  841MOL0     H13507   2.980   7.094   9.939  0.0247 -1.6668 -0.1579
  841MOL0     H13508   3.006   7.141  10.106  1.4055  1.0745 -2.5379
  841MOL0     H13509   2.763   7.122  10.165  1.0692 -1.1531 -0.4897
  841MOL0     H13510   2.811   7.250  10.061  2.9593  0.1332 -3.5432
  841MOL0     H13511   2.693   6.984   9.991  2.5184 -0.8226 -3.3139
  841MOL0     H13512   2.743   7.097   9.872 -1.0853 -1.3986 -1.0482
  841MOL0     H13513   2.505   7.168  10.053 -1.8327  1.6644 -1.1676
  841MOL0     H13514   2.603   7.283   9.955 -1.8056  0.9467 -3.3662
  841MOL0     H13515   3.433   6.809  10.388  1.4183  2.0084 -1.9919
  841MOL0     H13516   3.659   6.719  10.468  2.0432 -0.3462 -1.5204
  841MOL0     H13517   3.988   6.487  10.712  1.0076 -2.1075 -0.7882
  841MOL0     H13518   4.225   6.476  10.746 -0.5714  4.9515  1.4628
  841MOL0     H13519   3.443   7.105   9.442 -3.0159  2.5370  1.7892
  841MOL0     H13520   3.354   7.168   9.211 -1.7460  2.4729  1.6659
  841MOL0     H13521   3.053   7.072   8.846  0.8994 -2.1653 -1.8488
  841MOL0     H13522   2.971   7.201   8.667 -1.0369  1.5347  2.0867
  841MOL0     H13523   3.239   7.524   8.461  0.7417  0.4185  3.0615
  841MOL0     H13524   3.147   7.570   8.605 -2.3161  1.9434 -1.0264
  841MOL0     H13525   3.059   7.704   8.421 -4.5875  0.7017 -0.5039
  841MOL0     H13526   2.941   7.596   8.491 -0.0955 -0.2976  0.2173
  841MOL0     H13527   2.940   7.442   8.303 -1.2837  0.0187 -1.2039
  841MOL0     H13528   3.096   7.494   8.253 -1.1937 -0.7654 -1.2042
  841MOL0     H13529   3.012   7.715   8.168  0.0270  0.5664 -0.3152
  841MOL0     H13530   2.900   7.582   8.121 -0.8868 -0.1545  1.0130
  841MOL0     H13531   2.628   7.809   8.346 -1.1297  0.1695 -1.2449
  841MOL0     H13532   3.339   7.444   8.657  1.1854 -0.3111 -0.8475
  841MOL0     H13533   3.536   7.227   8.810  1.9476 -0.9362  3.2616
  841MOL0     H13534   3.510   7.396   8.809 -2.4499  1.6437  1.4343
  841MOL0     H13535   3.486   7.312   8.956 -0.4924 -0.7110 -0.5009
  842MOL0     O13536   0.868   2.232   8.693  0.2556 -0.0849 -1.0078
  842MOL0     C13537   0.857   2.167   8.801  0.6554  0.5534 -1.3179
  842MOL0     O13538   0.819   2.209   8.921  0.2158  1.2655  0.4049
  842MOL0     C13539   0.848   2.345   8.936 -0.5964  0.9919  0.6064
  842MOL0     C13540   0.981   2.382   8.969  0.3436 -0.1699  0.0464
  842MOL0     C13541   1.008   2.515   8.978 -0.1875 -0.5013  0.2174
  842MOL0     C13542   0.914   2.615   8.965 -0.3955  0.1662  0.4912
  842MOL0     O13543   0.939   2.751   8.969  0.1718 -0.2615  0.2789
  842MOL0     C13544   0.975   2.796   9.095  1.0084 -0.5956 -0.4217
  842MOL0     C13545   1.111   2.870   9.104 -0.3018  0.3803  0.6513
  842MOL0     C13546   1.106   3.007   9.042  0.0525  0.3700  0.6276
  842MOL0     C13547   1.229   3.086   9.079 -0.4042  1.1749  0.6446
  842MOL0     C13548   1.232   3.218   9.004  0.0191 -0.4791  1.1129
  842MOL0     C13549   1.116   3.314   9.048 -0.0992  0.3517  0.5603
  842MOL0     C13550   1.113   3.443   8.977 -0.3491 -0.1365  0.5324
  842MOL0     C13551   1.232   3.534   8.996 -0.0813  0.3763  0.1848
  842MOL0     N13552   1.236   3.577   9.133 -0.2908 -0.0991  0.1459
  842MOL0     C13553   1.141   3.666   9.183 -0.2369  0.3575  0.4099
  842MOL0     C13554   1.163   3.648   9.317  0.6111  0.2210  0.1143
  842MOL0     C13555   1.080   3.706   9.419 -0.4248  0.2646 -0.3544
  842MOL0     C13556   1.067   3.865   9.417  0.1885  0.2215  1.0343
  842MOL0     C13557   1.207   3.943   9.404  0.0626  0.8526  0.7132
  842MOL0     C13558   1.202   4.096   9.424 -0.4415  0.8518  0.3383
  842MOL0     O13559   1.335   4.150   9.421  0.0250  0.8856  0.4975
  842MOL0     C13560   1.344   4.287   9.418 -0.8521  0.2197  0.1113
  842MOL0     C13561   1.471   4.342   9.446 -0.8714 -0.0173  0.1166
  842MOL0     C13562   1.502   4.476   9.447  0.0309 -0.5222 -0.0106
  842MOL0     C13563   1.406   4.569   9.421 -0.3264 -1.0023  0.0375
  842MOL0     C13564   1.424   4.718   9.421  0.2459  0.6807 -0.3203
  842MOL0     O13565   1.313   4.788   9.410  0.7895 -0.3786  0.8515
  842MOL0     C13566   1.321   4.925   9.412 -0.7288 -0.2743  0.4330
  842MOL0     C13567   1.247   5.002   9.498 -0.4535 -0.6072 -0.2529
  842MOL0     C13568   1.250   5.145   9.499  0.1733 -0.2031 -0.7726
  842MOL0     C13569   1.340   5.212   9.417 -0.3471 -0.3304  0.2032
  842MOL0     O13570   1.346   5.356   9.394  0.0280  0.4908 -0.1885
  842MOL0     C13571   1.283   5.440   9.488  0.1513  0.7667  0.4419
  842MOL0     C13572   1.357   5.575   9.477  0.2248 -0.7861  0.3434
  842MOL0     C13573   1.485   5.586   9.559 -0.3706 -1.1499  0.1095
  842MOL0     C13574   1.573   5.707   9.517 -0.6581 -0.5298  0.2054
  842MOL0     C13575   1.714   5.706   9.586 -0.7609 -0.0042 -0.4050
  842MOL0     C13576   1.804   5.597   9.527 -0.6811 -0.1430  0.5400
  842MOL0     C13577   1.866   5.637   9.390 -0.4890 -0.6710 -0.9072
  842MOL0     C13578   1.922   5.515   9.319  1.1111 -0.3915 -0.7035
  842MOL0    Cl13579   2.039   5.432   9.422  0.3084  0.5748  0.5225
  842MOL0     C13580   1.414   5.143   9.319 -0.2191  0.6836 -0.9332
  842MOL0     C13581   1.414   5.001   9.319  0.4142 -0.0394  0.2402
  842MOL0     O13582   1.533   4.764   9.418  0.4296 -0.0694  0.1278
  842MOL0     C13583   1.279   4.521   9.390  0.0757  0.0354 -0.1267
  842MOL0     C13584   1.250   4.377   9.381  0.3273 -0.1286  0.0911
  842MOL0     N13585   1.269   3.568   9.348 -1.0724 -0.1364  0.1090
  842MOL0     N13586   1.312   3.526   9.235 -0.5821 -0.2718 -0.8287
  842MOL0     C13587   0.788   2.584   8.921 -0.3133 -0.1719 -0.0821
  842MOL0     C13588   0.751   2.443   8.915  0.1095 -0.6553  0.2388
  842MOL0     C13589   0.902   2.025   8.812 -0.5370  0.4784  0.6430
  842MOL0     C13590   0.965   1.977   8.926 -0.4189 -0.1472  0.1164
  842MOL0     C13591   1.011   1.846   8.932 -0.5847  0.4431 -0.2059
  842MOL0     C13592   1.016   1.761   8.817  0.0558 -0.2735 -0.8212
  842MOL0     O13593   1.072   1.638   8.803  0.0152  0.0511  0.3570
  842MOL0     C13594   1.195   1.624   8.874 -0.3673 -0.2641  0.5702
  842MOL0     C13595   1.266   1.491   8.857  0.5036 -0.3248 -0.8838
  842MOL0     C13596   1.182   1.381   8.912  0.3575 -0.3073  0.1549
  842MOL0     C13597   1.222   1.261   8.826 -0.5999  0.4780  1.3289
  842MOL0     C13598   1.121   1.230   8.726  0.5404 -0.1603  0.7552
  842MOL0     C13599   1.028   1.191   8.656  0.0035  0.8824  0.3657
  842MOL0     C13600   0.940   1.812   8.704  0.3140 -0.5012 -1.1256
  842MOL0     C13601   0.898   1.941   8.699 -0.3804 -0.1759  1.1937
  842MOL0     C13602   0.839   1.983   8.564  0.6540 -0.1413  0.2039
  842MOL0     H13603   1.069   2.320   8.981  1.8644  1.9006  0.1939
  842MOL0     H13604   1.109   2.551   8.994 -0.5177  3.8842 -4.8407
  842MOL0     H13605   0.894   2.860   9.130  2.1503  0.3999  0.5057
  842MOL0     H13606   0.970   2.709   9.162  0.4270 -0.3463 -0.1413
  842MOL0     H13607   1.192   2.810   9.060 -1.2372  0.0860 -0.7237
  842MOL0     H13608   1.128   2.880   9.211  0.3546 -0.7494  0.6724
  842MOL0     H13609   1.014   3.058   9.072  1.1532  3.8962 -1.4753
  842MOL0     H13610   1.111   2.990   8.934  2.6867 -1.8193  0.9845
  842MOL0     H13611   1.247   3.104   9.186  0.8742  2.8046  0.1951
  842MOL0     H13612   1.314   3.024   9.049 -0.8918  0.6583  0.3108
  842MOL0     H13613   1.320   3.267   9.047  0.3474 -0.8789  0.8990
  842MOL0     H13614   1.250   3.205   8.898  0.5123  2.1774  0.7909
  842MOL0     H13615   1.027   3.269   9.004  0.8506  1.1457 -2.4760
  842MOL0     H13616   1.116   3.330   9.156 -3.2501  0.0863  0.6856
  842MOL0     H13617   1.028   3.499   9.017 -0.1124 -0.5975  1.7024
  842MOL0     H13618   1.095   3.419   8.871 -0.9068 -0.4954  0.6986
  842MOL0     H13619   1.324   3.479   8.972 -0.8350 -0.6351 -0.5118
  842MOL0     H13620   1.220   3.620   8.930  1.8988 -1.1940 -2.4043
  842MOL0     H13621   1.062   3.719   9.130 -1.0860  0.2898  1.5677
  842MOL0     H13622   0.984   3.654   9.414 -0.3391 -0.1638  1.5350
  842MOL0     H13623   1.103   3.663   9.517 -2.8941  0.2948  0.2912
  842MOL0     H13624   1.009   3.900   9.331 -1.4721  3.5988  3.2867
  842MOL0     H13625   1.013   3.896   9.507  1.3552 -2.0292  2.6122
  842MOL0     H13626   1.236   3.940   9.299 -1.4923  1.5035  0.2261
  842MOL0     H13627   1.275   3.896   9.476 -1.2523 -2.0881  0.1539
  842MOL0     H13628   1.147   4.115   9.516  0.7867  0.0791  1.2720
  842MOL0     H13629   1.153   4.124   9.331 -0.0504  1.0775  0.1973
  842MOL0     H13630   1.564   4.288   9.450  0.0314  1.5153  0.4846
  842MOL0     H13631   1.607   4.497   9.469 -0.4477  0.8924  1.0327
  842MOL0     H13632   1.181   4.956   9.571  1.2634 -1.2574  0.9695
  842MOL0     H13633   1.183   5.198   9.566  0.0366 -2.5345  1.0575
  842MOL0     H13634   1.182   5.455   9.448 -0.4658 -2.7140  0.3317
  842MOL0     H13635   1.285   5.403   9.591 -2.6612 -0.4329  0.1879
  842MOL0     H13636   1.390   5.589   9.373  2.2239 -2.3644  0.6963
  842MOL0     H13637   1.282   5.650   9.505  0.9887 -0.2643  1.0214
  842MOL0     H13638   1.463   5.591   9.667 -1.5002  2.2199 -0.1502
  842MOL0     H13639   1.548   5.499   9.541  0.4196  0.1018 -4.1741
  842MOL0     H13640   1.520   5.798   9.548  0.7124  0.2303  0.4159
  842MOL0     H13641   1.582   5.704   9.408  1.1013 -0.1738  0.3112
  842MOL0     H13642   1.705   5.685   9.693 -1.1428  1.3510 -0.1569
  842MOL0     H13643   1.761   5.804   9.572  1.2396 -1.0740 -1.6201
  842MOL0     H13644   1.882   5.588   9.602  1.6911  2.5357 -1.3937
  842MOL0     H13645   1.748   5.503   9.524  0.1396 -0.7185  2.0954
  842MOL0     H13646   1.954   5.701   9.403 -1.8561  1.2169 -0.5770
  842MOL0     H13647   1.786   5.684   9.333  0.1847  1.8921  0.0863
  842MOL0     H13648   1.846   5.438   9.300  1.2474 -1.0669  1.2259
  842MOL0     H13649   1.967   5.533   9.221  1.0313 -1.8045 -1.0296
  842MOL0     H13650   1.479   5.186   9.242  1.1736  2.7238  1.2296
  842MOL0     H13651   1.478   4.952   9.247 -0.5217 -1.7827  0.5210
  842MOL0     H13652   1.193   4.585   9.375 -3.6121 -4.5246 -0.9976
  842MOL0     H13653   1.156   4.340   9.340  0.7191 -2.8617  1.4491
  842MOL0     H13654   0.710   2.659   8.908  0.4323  0.2017 -2.9330
  842MOL0     H13655   0.647   2.418   8.899 -0.8322  1.1105  2.8334
  842MOL0     H13656   0.968   2.047   9.009 -2.6773  0.0363  0.1010
  842MOL0     H13657   1.039   1.813   9.032 -2.5530  1.5548  0.7773
  842MOL0     H13658   1.177   1.645   8.979 -3.5837 -2.1862  0.5594
  842MOL0     H13659   1.263   1.702   8.839 -0.2282  0.1419  1.7344
  842MOL0     H13660   1.360   1.508   8.909 -0.0071  0.3988 -0.1769
  842MOL0     H13661   1.287   1.485   8.749 -3.2728  0.9764 -1.8612
  842MOL0     H13662   1.078   1.411   8.902  0.7796  0.8773 -1.0048
  842MOL0     H13663   1.197   1.354   9.017  1.2740  0.7440  0.3187
  842MOL0     H13664   1.320   1.259   8.778 -2.1644  0.0764 -2.1652
  842MOL0     H13665   1.202   1.174   8.890  0.5959  0.7896  2.1438
  842MOL0     H13666   0.953   1.142   8.598  0.8567 -3.4155  2.5045
  842MOL0     H13667   0.937   1.732   8.630 -1.5472 -2.9719  1.3989
  842MOL0     H13668   0.885   2.054   8.496  2.4446 -0.4816  0.9926
  842MOL0     H13669   0.826   1.889   8.510  0.0946  1.1615 -2.0302
  842MOL0     H13670   0.739   2.020   8.588 -0.6914 -2.0352 -2.0478
  843MOL0     O13671   6.656   3.140   4.536 -0.3673  0.1147 -0.3119
  843MOL0     C13672   6.602   3.048   4.470 -0.1359  0.1501 -0.2690
  843MOL0     O13673   6.475   3.050   4.426  0.3102 -0.5085 -0.4549
  843MOL0     C13674   6.443   2.988   4.309  0.3165 -0.0601 -0.3513
  843MOL0     C13675   6.524   2.998   4.194 -1.1872 -0.6841 -1.0466
  843MOL0     C13676   6.482   2.940   4.079 -0.3589  0.0601 -0.0659
  843MOL0     C13677   6.370   2.852   4.075 -0.0864 -0.2486 -0.4643
  843MOL0     O13678   6.342   2.790   3.957  1.0408  0.2614 -0.0651
  843MOL0     C13679   6.433   2.676   3.935 -0.7747  0.2481  0.2599
  843MOL0     C13680   6.441   2.651   3.786  0.7448 -0.1472  0.6723
  843MOL0     C13681   6.317   2.583   3.719  0.2695  0.1400 -0.3402
  843MOL0     C13682   6.322   2.617   3.569 -0.7938  0.4310 -0.5415
  843MOL0     C13683   6.186   2.623   3.493 -0.5455 -0.0271  0.0426
  843MOL0     C13684   6.085   2.528   3.553  0.2424  0.0663  0.5332
  843MOL0     C13685   5.977   2.466   3.456  0.1537  0.8109  0.5663
  843MOL0     C13686   5.879   2.581   3.413  0.0130 -1.2393  0.6947
  843MOL0     N13687   5.774   2.601   3.516  0.2820 -0.4126  0.0515
  843MOL0     C13688   5.757   2.702   3.619  0.5308  0.2907  0.6219
  843MOL0     C13689   5.639   2.671   3.675  0.1703 -1.2796 -0.2816
  843MOL0     C13690   5.574   2.765   3.785 -0.2675  0.4689  0.3735
  843MOL0     C13691   5.430   2.729   3.815  0.1951 -0.3560 -0.3042
  843MOL0     C13692   5.368   2.829   3.919 -0.2598  0.6805 -0.1320
  843MOL0     C13693   5.441   2.847   4.063 -0.6781 -0.2233  0.1849
  843MOL0     O13694   5.361   2.922   4.149  0.2562 -0.0602 -0.5934
  843MOL0     C13695   5.350   3.062   4.127  0.2634 -0.3832  0.1639
  843MOL0     C13696   5.261   3.139   4.204  0.0271 -0.4716  0.2494
  843MOL0     C13697   5.254   3.281   4.186  0.3904 -0.2028  1.0336
  843MOL0     C13698   5.341   3.359   4.098 -0.0221  0.5879  0.0040
  843MOL0     C13699   5.328   3.510   4.082 -0.5719  0.0493 -0.0103
  843MOL0     O13700   5.435   3.575   4.034 -0.7754 -0.7545 -0.2741
  843MOL0     C13701   5.443   3.705   4.080  0.2390 -0.4983  0.2562
  843MOL0     C13702   5.521   3.736   4.200 -0.4612  0.4358 -0.3367
  843MOL0     C13703   5.530   3.867   4.240  0.5114  0.5101 -0.7214
  843MOL0     C13704   5.475   3.968   4.168  0.7109  0.3554  1.2460
  843MOL0     O13705   5.487   4.104   4.199 -0.0723  0.6399 -1.3165
  843MOL0     C13706   5.572   4.145   4.314 -1.0506  0.0769 -0.4109
  843MOL0     C13707   5.735   4.135   4.296 -0.6338 -0.2015  0.0871
  843MOL0     C13708   5.785   4.250   4.208 -0.0585 -0.3333  0.0377
  843MOL0     C13709   5.938   4.245   4.175  0.0873  0.5616 -0.2455
  843MOL0     C13710   5.975   4.379   4.112 -0.0005 -1.0819 -0.0671
  843MOL0     C13711   6.109   4.365   4.054  0.5063  0.4224 -0.6620
  843MOL0     C13712   6.166   4.505   4.012  0.4034  0.3882 -0.1825
  843MOL0     C13713   6.276   4.479   3.911  1.1057  0.1016 -0.3215
  843MOL0    Cl13714   6.421   4.408   3.971 -0.4246 -0.6388 -0.2935
  843MOL0     C13715   5.398   3.936   4.059  0.2390 -0.3412 -0.1667
  843MOL0     C13716   5.375   3.809   4.019 -0.6378  0.5626  0.3459
  843MOL0     O13717   5.230   3.564   4.130 -0.1817 -0.1170 -0.3549
  843MOL0     C13718   5.433   3.286   4.029  0.3726  1.3974 -0.7684
  843MOL0     C13719   5.434   3.143   4.042  0.4648 -0.2533  0.5343
  843MOL0     N13720   5.602   2.545   3.637  1.1117  0.0861  0.0192
  843MOL0     N13721   5.670   2.517   3.533 -0.0130 -1.5623  0.3541
  843MOL0     C13722   6.287   2.853   4.194 -0.8681  0.7944  1.1687
  843MOL0     C13723   6.318   2.926   4.307 -0.9191  0.4297 -0.6212
  843MOL0     C13724   6.681   2.916   4.458 -0.1035 -0.1547 -0.2064
  843MOL0     C13725   6.625   2.797   4.512  0.1339 -0.4369 -0.3191
  843MOL0     C13726   6.696   2.678   4.509  1.0084 -0.1340 -0.7796
  843MOL0     C13727   6.810   2.665   4.439  0.3041 -0.5428 -0.0056
  843MOL0     O13728   6.869   2.548   4.403 -0.7232  0.6758  0.0133
  843MOL0     C13729   6.818   2.417   4.424 -0.9139  0.0353 -0.0389
  843MOL0     C13730   6.909   2.308   4.364 -0.0580 -0.0017  0.7231
  843MOL0     C13731   7.053   2.310   4.426 -0.4716  0.0572  0.5324
  843MOL0     C13732   7.148   2.196   4.382  0.5377 -0.1226  0.2798
  843MOL0     C13733   7.104   2.067   4.438  0.3510 -0.0670  0.1872
  843MOL0     C13734   7.078   1.958   4.489 -0.1751  0.4347 -0.0108
  843MOL0     C13735   6.870   2.783   4.398  0.1090  1.6850  0.7069
  843MOL0     C13736   6.803   2.911   4.405 -0.9659 -0.0824  0.0016
  843MOL0     C13737   6.876   3.026   4.357  0.0300 -0.6202  0.7620
  843MOL0     H13738   6.616   3.055   4.205 -1.5452 -0.4740  1.3279
  843MOL0     H13739   6.547   2.943   3.992 -0.8416 -3.5038 -0.6802
  843MOL0     H13740   6.537   2.694   3.967  0.5705 -1.9167 -2.4984
  843MOL0     H13741   6.388   2.591   3.988  2.5079  0.3373  3.7052
  843MOL0     H13742   6.533   2.596   3.767  0.6071 -0.2455  0.2837
  843MOL0     H13743   6.455   2.754   3.752  1.6491 -0.7607 -0.8759
  843MOL0     H13744   6.218   2.618   3.752  0.1510 -0.2774 -0.2521
  843MOL0     H13745   6.322   2.474   3.726  1.3326  0.1536 -0.8468
  843MOL0     H13746   6.375   2.713   3.558  0.5487 -0.1252  0.7841
  843MOL0     H13747   6.387   2.549   3.513  0.5710  0.8773  0.4270
  843MOL0     H13748   6.142   2.723   3.500 -1.4446 -0.1850 -2.2624
  843MOL0     H13749   6.196   2.599   3.387 -0.6087  1.7893 -0.4008
  843MOL0     H13750   6.138   2.441   3.595 -0.1351 -0.9688 -1.0413
  843MOL0     H13751   6.031   2.590   3.625 -0.2440  2.7664 -1.9967
  843MOL0     H13752   5.918   2.384   3.498  1.7672 -0.0919  1.1825
  843MOL0     H13753   6.035   2.429   3.371 -0.6467 -1.0512  0.7807
  843MOL0     H13754   5.929   2.679   3.410  1.2872 -1.8583  1.0829
  843MOL0     H13755   5.825   2.569   3.319 -2.0876 -0.2145  1.6928
  843MOL0     H13756   5.817   2.789   3.642  0.1638  2.2236 -4.4455
  843MOL0     H13757   5.631   2.769   3.878 -1.1968  1.4568  0.9263
  843MOL0     H13758   5.570   2.862   3.735  2.1010  0.9080  0.9416
  843MOL0     H13759   5.374   2.756   3.725  0.6551  0.2250 -0.4234
  843MOL0     H13760   5.413   2.623   3.835  0.2432 -0.0585  1.4268
  843MOL0     H13761   5.268   2.793   3.944  0.7092 -0.3422  2.7284
  843MOL0     H13762   5.355   2.929   3.875 -0.2631  1.9479  2.5530
  843MOL0     H13763   5.538   2.896   4.061 -1.3947  1.3914  1.9030
  843MOL0     H13764   5.438   2.745   4.102 -1.8906 -1.4302 -2.7277
  843MOL0     H13765   5.200   3.087   4.276 -0.3153  3.2760  2.9308
  843MOL0     H13766   5.169   3.329   4.233 -0.8809 -0.0151 -1.2817
  843MOL0     H13767   5.569   3.650   4.246  0.9879  0.8738 -1.0053
  843MOL0     H13768   5.595   3.884   4.325 -0.7205  1.0762  0.1504
  843MOL0     H13769   5.548   4.248   4.344  0.4307 -0.2216  2.1820
  843MOL0     H13770   5.555   4.089   4.406 -2.7286  2.1907  0.6609
  843MOL0     H13771   5.780   4.155   4.394  0.4669 -0.2085 -0.4104
  843MOL0     H13772   5.772   4.050   4.238  1.9527  0.2375  0.9715
  843MOL0     H13773   5.727   4.265   4.117  2.2666 -2.1444 -1.8933
  843MOL0     H13774   5.776   4.345   4.262 -0.0724 -0.9776  1.1978
  843MOL0     H13775   5.953   4.163   4.103 -0.0455 -0.4165  0.8066
  843MOL0     H13776   5.996   4.216   4.263  1.6465 -0.8024 -1.6350
  843MOL0     H13777   5.967   4.453   4.192  0.7208 -3.0006  1.9085
  843MOL0     H13778   5.917   4.418   4.029  0.0508  1.7993  1.1467
  843MOL0     H13779   6.181   4.323   4.125  1.4718  2.3776 -0.4031
  843MOL0     H13780   6.104   4.307   3.961  0.8602  0.9612 -1.0269
  843MOL0     H13781   6.219   4.555   4.095  2.0895  2.5121 -2.3924
  843MOL0     H13782   6.083   4.567   3.976 -0.6897 -1.5971 -1.1963
  843MOL0     H13783   6.229   4.403   3.847 -3.0703  1.1704  1.1896
  843MOL0     H13784   6.296   4.569   3.852 -1.8738  0.2758 -1.1989
  843MOL0     H13785   5.341   4.018   4.016 -0.9977 -0.3785  1.3294
  843MOL0     H13786   5.321   3.801   3.926  0.2854 -0.4877 -0.1185
  843MOL0     H13787   5.488   3.340   3.951  0.8401  0.7139 -0.9248
  843MOL0     H13788   5.521   3.103   3.989 -0.0502  0.5172 -0.9758
  843MOL0     H13789   6.206   2.781   4.191  1.1800 -1.6927  1.5282
  843MOL0     H13790   6.251   2.934   4.393 -0.3337  2.9091 -0.3121
  843MOL0     H13791   6.525   2.801   4.553  0.3145  0.7046  0.0327
  843MOL0     H13792   6.639   2.593   4.545  3.0077  0.1279  3.6715
  843MOL0     H13793   6.713   2.415   4.393 -1.3036  0.5066  1.1866
  843MOL0     H13794   6.815   2.396   4.531 -1.2801 -2.4047 -0.4777
  843MOL0     H13795   6.922   2.331   4.258  2.2309 -1.3008  0.6580
  843MOL0     H13796   6.874   2.206   4.380 -1.1112  0.1092 -0.6538
  843MOL0     H13797   7.032   2.316   4.533 -1.9094  0.8860  0.2384
  843MOL0     H13798   7.096   2.400   4.381  0.4432 -1.8443 -2.7906
  843MOL0     H13799   7.150   2.189   4.273 -0.3028 -1.9103  0.3480
  843MOL0     H13800   7.245   2.236   4.412 -0.3467  1.3684  1.2600
  843MOL0     H13801   7.057   1.862   4.531 -0.6776  0.8002  0.6062
  843MOL0     H13802   6.963   2.762   4.346 -1.5926 -1.6669 -1.3134
  843MOL0     H13803   6.886   3.115   4.420  0.9540 -1.0980  1.3015
  843MOL0     H13804   6.977   3.000   4.324 -0.4833 -1.2891 -0.3297
  843MOL0     H13805   6.826   3.057   4.265  1.7834  1.1888  0.3498
  844MOL0     O13806   9.700   2.309   7.079 -0.1234 -0.6110 -0.4331
  844MOL0     C13807   9.649   2.237   6.998  0.7291 -0.2860  0.4219
  844MOL0     O13808   9.546   2.273   6.908 -0.4244  0.5655 -0.4847
  844MOL0     C13809   9.504   2.400   6.919  0.1444 -0.4464 -0.5546
  844MOL0     C13810   9.565   2.508   6.849  0.3515  0.6908  0.0325
  844MOL0     C13811   9.503   2.630   6.838  0.0174  0.8030  0.1621
  844MOL0     C13812   9.387   2.652   6.910  0.2134 -0.7363 -0.3030
  844MOL0     O13813   9.342   2.782   6.936 -0.4460  0.6818  0.5684
  844MOL0     C13814   9.203   2.799   6.910  0.2827 -0.5328  0.7606
  844MOL0     C13815   9.172   2.944   6.866 -0.5844  0.4931  0.0427
  844MOL0     C13816   9.199   3.048   6.979 -0.1035  0.4011 -0.3587
  844MOL0     C13817   9.126   3.185   6.958  0.5051  0.7466 -0.4869
  844MOL0     C13818   9.219   3.296   6.917  0.1981 -0.0053 -0.0720
  844MOL0     C13819   9.269   3.288   6.771 -0.9161  0.3186 -0.0423
  844MOL0     C13820   9.165   3.326   6.666  0.2313 -0.7048 -0.3515
  844MOL0     C13821   9.196   3.270   6.524  0.4072 -0.5182  0.1113
  844MOL0     N13822   9.210   3.124   6.504 -0.2075  0.3646  0.0655
  844MOL0     C13823   9.102   3.035   6.487 -0.3240  0.0681 -0.6658
  844MOL0     C13824   9.158   2.911   6.475  0.1223 -0.3251 -0.6639
  844MOL0     C13825   9.084   2.786   6.447  0.5830  0.1793  0.0184
  844MOL0     C13826   9.131   2.669   6.522  0.1618 -0.4271  0.1035
  844MOL0     C13827   9.234   2.574   6.460  0.6019 -0.3758 -0.1159
  844MOL0     C13828   9.272   2.452   6.547 -0.2787  0.3593  0.6975
  844MOL0     O13829   9.402   2.397   6.517  0.1071 -1.0144  0.2667
  844MOL0     C13830   9.413   2.266   6.491 -0.9525 -0.0895 -0.7259
  844MOL0     C13831   9.552   2.229   6.485  0.4635  0.1250 -0.0178
  844MOL0     C13832   9.581   2.094   6.498 -0.4461 -0.2839  0.1685
  844MOL0     C13833   9.486   1.996   6.477 -0.0311  0.6266  0.1436
  844MOL0     C13834   9.512   1.857   6.459  0.2168 -0.1538  0.7608
  844MOL0     O13835   9.418   1.770   6.412 -0.2120  0.7714  0.2535
  844MOL0     C13836   9.426   1.636   6.450 -1.2274  0.2325 -0.3830
  844MOL0     C13837   9.422   1.539   6.349 -0.5668 -0.7450 -0.6726
  844MOL0     C13838   9.432   1.405   6.378 -0.4032  0.7079 -0.4678
  844MOL0     C13839   9.438   1.357   6.512  0.4018 -0.5111 -0.3517
  844MOL0     O13840   9.432   1.218   6.533 -0.5251 -0.0285  0.2682
  844MOL0     C13841   9.465   1.175   6.670  0.1365 -0.2832 -0.1068
  844MOL0     C13842   9.483   1.019   6.676  0.0008 -0.4787  0.4909
  844MOL0     C13843   9.370   0.924   6.643 -0.6913 -0.8620 -0.5753
  844MOL0     C13844   9.241   0.946   6.707  0.3095 -0.4002 -0.4509
  844MOL0     C13845   9.263   0.916   6.862  0.8049  0.2310  0.4060
  844MOL0     C13846   9.130   0.917   6.940 -0.4200 -0.6236 -0.7634
  844MOL0     C13847   9.085   1.066   6.972  0.7874  0.1935  0.0792
  844MOL0     C13848   9.098   1.116   7.120 -0.4977  0.3246  0.1358
  844MOL0    Cl13849   9.260   1.055   7.170 -0.0912  0.3390 -0.6003
  844MOL0     C13850   9.435   1.455   6.618  0.2196  0.0291  0.3485
  844MOL0     C13851   9.430   1.589   6.587  0.1643 -0.2095 -1.1473
  844MOL0     O13852   9.621   1.828   6.504 -0.2161 -0.0979 -0.2095
  844MOL0     C13853   9.347   2.037   6.473 -0.4333  0.2538 -0.3722
  844MOL0     C13854   9.311   2.172   6.480 -0.2297  0.5041  0.1634
  844MOL0     N13855   9.296   2.932   6.487  0.0520 -0.0558 -0.7780
  844MOL0     N13856   9.333   3.054   6.517 -0.0281  0.0396 -0.3519
  844MOL0     C13857   9.337   2.548   6.986  0.3906  0.1360 -0.0888
  844MOL0     C13858   9.390   2.426   6.987  0.8141 -0.9130 -0.2174
  844MOL0     C13859   9.691   2.092   6.982  1.2355 -1.0481  0.4233
  844MOL0     C13860   9.650   2.020   6.864  0.1643  0.5365 -0.7222
  844MOL0     C13861   9.688   1.890   6.844 -0.5482  0.3006 -0.1860
  844MOL0     C13862   9.767   1.821   6.935  1.3255 -0.1288  0.3052
  844MOL0     O13863   9.797   1.685   6.921 -0.5764 -0.4499 -0.4992
  844MOL0     C13864   9.746   1.598   6.813 -1.0936  0.7618  0.5224
  844MOL0     C13865   9.846   1.488   6.821 -0.3332 -0.7675 -0.5537
  844MOL0     C13866   9.810   1.386   6.715  0.0489 -0.0010 -0.2018
  844MOL0     C13867   9.912   1.277   6.719 -0.8435 -0.4244  0.1247
  844MOL0     C13868   9.890   1.177   6.616 -0.2862  1.0949 -0.8247
  844MOL0     C13869   9.862   1.086   6.539  0.5171  0.8067 -0.1342
  844MOL0     C13870   9.806   1.886   7.051  0.3091  0.4364  0.3960
  844MOL0     C13871   9.769   2.014   7.076  0.0510 -0.4048 -0.0330
  844MOL0     C13872   9.824   2.072   7.199 -0.2792 -0.3126  0.1828
  844MOL0     H13873   9.654   2.491   6.788  0.0890 -1.3754  0.1607
  844MOL0     H13874   9.552   2.712   6.787  1.0124  1.0265  1.4316
  844MOL0     H13875   9.176   2.736   6.824 -0.0479 -0.0269  0.4884
  844MOL0     H13876   9.140   2.775   6.997  1.7900 -1.9438  1.5247
  844MOL0     H13877   9.067   2.963   6.842 -0.9722 -0.4032  0.9749
  844MOL0     H13878   9.234   2.967   6.778  0.3806  0.1089  0.6089
  844MOL0     H13879   9.306   3.068   6.969 -0.4917  2.7243 -0.3959
  844MOL0     H13880   9.180   3.009   7.080  0.9005  1.7232  0.3643
  844MOL0     H13881   9.044   3.188   6.886  2.1619  3.2646 -2.4722
  844MOL0     H13882   9.084   3.214   7.055 -1.2048 -1.0253 -0.6348
  844MOL0     H13883   9.177   3.397   6.924  0.2657 -0.1061  3.3355
  844MOL0     H13884   9.306   3.290   6.984  1.1110 -1.7523 -1.3332
  844MOL0     H13885   9.353   3.356   6.759 -0.3723 -0.7076 -2.7971
  844MOL0     H13886   9.292   3.183   6.752 -1.7495 -0.0909  1.0982
  844MOL0     H13887   9.169   3.435   6.663  1.0356 -0.7189 -0.1020
  844MOL0     H13888   9.066   3.297   6.704 -0.1926 -1.8212 -2.1525
  844MOL0     H13889   9.115   3.310   6.462  1.4542  0.7966 -0.4685
  844MOL0     H13890   9.292   3.315   6.500  0.7508 -1.0490  0.4696
  844MOL0     H13891   9.002   3.075   6.469 -0.0186  2.8238  2.7165
  844MOL0     H13892   8.979   2.798   6.474  0.2293 -0.8303 -0.8424
  844MOL0     H13893   9.075   2.763   6.340  0.1360 -1.1554  0.3308
  844MOL0     H13894   9.188   2.705   6.608  0.4651  1.4694 -0.8567
  844MOL0     H13895   9.042   2.611   6.551 -2.7673  3.2542 -0.7054
  844MOL0     H13896   9.320   2.637   6.436 -2.5584  4.7069  0.5100
  844MOL0     H13897   9.196   2.535   6.365 -1.8126 -1.1614  1.1053
  844MOL0     H13898   9.189   2.382   6.534 -0.2270  0.5061 -0.4629
  844MOL0     H13899   9.267   2.474   6.654 -1.6844  4.7074 -0.0940
  844MOL0     H13900   9.627   2.307   6.484 -0.2888  0.8692 -1.2944
  844MOL0     H13901   9.680   2.062   6.529 -0.0486  0.4814 -0.2860
  844MOL0     H13902   9.408   1.562   6.244  0.9224 -0.0712 -0.7423
  844MOL0     H13903   9.434   1.327   6.303  0.0072 -0.7433  0.9758
  844MOL0     H13904   9.556   1.225   6.703 -0.5292 -0.0975  1.5335
  844MOL0     H13905   9.389   1.213   6.739  1.8846  0.5276  1.4556
  844MOL0     H13906   9.566   1.005   6.606  1.6723  3.3075  1.4843
  844MOL0     H13907   9.526   1.000   6.775 -1.0008 -0.3684  0.9570
  844MOL0     H13908   9.353   0.955   6.540 -1.2350 -1.0515 -0.5480
  844MOL0     H13909   9.401   0.820   6.656  1.0291 -0.2658  0.3147
  844MOL0     H13910   9.164   0.882   6.663  0.5533 -1.8271  1.0624
  844MOL0     H13911   9.200   1.045   6.688  1.4032  0.0040 -0.8174
  844MOL0     H13912   9.332   0.985   6.912  0.3416 -1.0707  3.0562
  844MOL0     H13913   9.302   0.815   6.869  0.8358  0.1346 -0.9431
  844MOL0     H13914   9.051   0.872   6.879 -1.9733  0.7305  0.1888
  844MOL0     H13915   9.134   0.857   7.031 -1.6794  0.9786  0.4035
  844MOL0     H13916   8.979   1.074   6.947  0.6966  0.5395  0.5640
  844MOL0     H13917   9.129   1.144   6.909  0.5822  0.0969 -0.1886
  844MOL0     H13918   9.094   1.224   7.130 -2.9217  0.5346 -1.9529
  844MOL0     H13919   9.019   1.069   7.180  3.1903 -4.3469  2.0104
  844MOL0     H13920   9.450   1.428   6.722 -0.8626  3.9877  1.7257
  844MOL0     H13921   9.441   1.666   6.663 -2.8244  0.2158 -1.0354
  844MOL0     H13922   9.277   1.956   6.455  0.9818 -1.2011  0.3410
  844MOL0     H13923   9.206   2.196   6.489 -0.5788 -0.0104 -2.0316
  844MOL0     H13924   9.252   2.568   7.051 -0.6980 -2.3491 -0.6368
  844MOL0     H13925   9.335   2.344   7.030 -3.2339 -0.4493 -3.8696
  844MOL0     H13926   9.609   2.066   6.774 -1.0376  0.4103 -0.2532
  844MOL0     H13927   9.664   1.840   6.751  2.5061 -0.7920 -0.5025
  844MOL0     H13928   9.741   1.633   6.710  1.2286  0.1239  0.1535
  844MOL0     H13929   9.643   1.565   6.832 -0.8184 -0.4448 -0.0312
  844MOL0     H13930   9.819   1.431   6.910 -0.0465 -0.8195 -0.5022
  844MOL0     H13931   9.947   1.528   6.807 -1.4102  1.1018 -4.4559
  844MOL0     H13932   9.815   1.428   6.614  0.1149  0.3892 -0.0383
  844MOL0     H13933   9.706   1.356   6.734 -0.7223  2.6671  0.3301
  844MOL0     H13934  10.010   1.321   6.698 -0.1252 -0.9825  2.0907
  844MOL0     H13935   9.915   1.234   6.819 -1.4042 -0.7067  0.0243
  844MOL0     H13936   9.854   0.995   6.483 -0.6364  1.3058 -0.8202
  844MOL0     H13937   9.868   1.832   7.123  0.6396 -0.9723 -0.9125
  844MOL0     H13938   9.914   2.019   7.232 -0.3181 -0.8950 -0.6114
  844MOL0     H13939   9.846   2.178   7.184 -2.4586  0.2791  0.7650
  844MOL0     H13940   9.756   2.069   7.285 -0.5247  1.1941  0.0729
  845MOL0     O13941   9.888   1.558   3.374 -0.5856  0.1060  0.4059
  845MOL0     C13942   9.859   1.438   3.380 -0.1182  0.8850 -0.2723
  845MOL0     O13943   9.948   1.335   3.396  0.2860  0.4645  0.7840
  845MOL0     C13944  10.087   1.348   3.382 -0.2291 -0.1110 -0.5483
  845MOL0     C13945  10.154   1.450   3.316 -0.1044  0.4567 -0.2899
  845MOL0     C13946  10.295   1.437   3.298 -0.4060 -0.1707  0.1696
  845MOL0     C13947  10.362   1.314   3.325  0.1654 -0.2288 -0.7083
  845MOL0     O13948  10.494   1.286   3.284  1.3511 -0.5160  0.3766
  845MOL0     C13949  10.561   1.377   3.201 -0.1663 -0.1176 -0.3623
  845MOL0     C13950  10.703   1.331   3.182 -0.6864  0.3439 -0.2788
  845MOL0     C13951  10.777   1.305   3.312 -0.4385  0.1238  0.3676
  845MOL0     C13952  10.923   1.296   3.276  0.7830  0.0450  0.5091
  845MOL0     C13953  11.009   1.298   3.400 -0.0505  0.3373 -0.6305
  845MOL0     C13954  11.150   1.346   3.382  1.2010 -0.1355  0.9720
  845MOL0     C13955  11.222   1.354   3.521 -0.1608 -0.8850 -0.1466
  845MOL0     C13956  11.201   1.492   3.580  0.1301 -0.3989 -0.2623
  845MOL0     N13957  11.241   1.499   3.719 -0.2164 -0.2110 -0.4979
  845MOL0     C13958  11.357   1.470   3.781  0.0681  1.0449 -0.1960
  845MOL0     C13959  11.347   1.516   3.907  0.5182  0.9808 -0.3132
  845MOL0     C13960  11.457   1.512   4.011 -0.4631  0.0391  0.5264
  845MOL0     C13961  11.484   1.652   4.058 -0.0536 -0.0710 -0.4742
  845MOL0     C13962  11.583   1.663   4.173  0.0865  0.6831 -0.6398
  845MOL0     C13963  11.730   1.628   4.133  0.2254  1.2883 -0.2882
  845MOL0     O13964  11.802   1.674   4.244 -0.0565  0.4660  0.2625
  845MOL0     C13965  11.931   1.727   4.229  0.3983 -0.8707  0.3395
  845MOL0     C13966  11.961   1.822   4.132 -0.2912  1.1678 -0.5727
  845MOL0     C13967  12.092   1.858   4.115 -0.5958 -0.0779  0.0546
  845MOL0     C13968  12.200   1.831   4.205  1.1220  0.5466 -0.4951
  845MOL0     C13969  12.332   1.889   4.196 -0.1193 -0.2802 -0.1246
  845MOL0     O13970  12.342   1.995   4.106  0.5591  1.4310 -0.2613
  845MOL0     C13971  12.451   2.071   4.095  0.7152 -0.1237  1.0536
  845MOL0     C13972  12.582   2.017   4.095  0.2289 -0.3639 -0.2896
  845MOL0     C13973  12.693   2.096   4.083 -0.6327 -0.0583  1.0172
  845MOL0     C13974  12.688   2.238   4.076 -0.4863 -0.1145  0.2054
  845MOL0     O13975  12.806   2.315   4.071  0.6706 -0.7499 -0.0520
  845MOL0     C13976  12.794   2.462   4.078  0.3322  0.4619 -0.0060
  845MOL0     C13977  12.928   2.522   4.047  0.0792 -0.6313  0.1677
  845MOL0     C13978  12.939   2.677   4.083 -0.7198 -0.5823  0.6206
  845MOL0     C13979  13.090   2.716   4.068 -0.3413  0.0449 -0.6409
  845MOL0     C13980  13.126   2.858   4.097  0.8843 -0.6120 -0.3517
  845MOL0     C13981  13.222   2.888   4.216 -0.6506 -0.1271  0.2688
  845MOL0     C13982  13.359   2.865   4.160 -1.1213  0.4897 -0.3038
  845MOL0     C13983  13.456   2.979   4.193 -0.2796  1.0168  0.3884
  845MOL0    Cl13984  13.459   2.969   4.369  0.0338 -0.2100 -0.4808
  845MOL0     C13985  12.551   2.292   4.076 -0.0573  0.5493  0.0225
  845MOL0     C13986  12.437   2.206   4.070  0.4944 -0.4098 -0.7313
  845MOL0     O13987  12.423   1.844   4.265  0.5697  0.2428  0.3740
  845MOL0     C13988  12.163   1.745   4.309  0.4730  0.4386 -1.6923
  845MOL0     C13989  12.028   1.694   4.317  0.7405 -0.6692 -0.2663
  845MOL0     N13990  11.229   1.572   3.931  0.3940  1.3075  0.1837
  845MOL0     N13991  11.167   1.571   3.812  0.6872  0.2594 -0.3905
  845MOL0     C13992  10.287   1.217   3.393 -0.5124  0.2736  0.3958
  845MOL0     C13993  10.147   1.232   3.419  0.0729  0.0133  0.4878
  845MOL0     C13994   9.709   1.400   3.370  0.0144 -0.0064 -1.1259
  845MOL0     C13995   9.617   1.487   3.432  0.2479 -0.4058 -0.3065
  845MOL0     C13996   9.476   1.473   3.417 -0.1735 -0.5345  0.1874
  845MOL0     C13997   9.427   1.381   3.331 -0.2424  0.5441  0.5662
  845MOL0     O13998   9.291   1.382   3.302 -0.5584 -0.7982  0.3771
  845MOL0     C13999   9.244   1.477   3.199  0.5275  0.7756 -0.6005
  845MOL0     C14000   9.107   1.424   3.170  0.6775  0.0689 -0.6175
  845MOL0     C14001   9.003   1.433   3.282 -0.0361  0.6163  0.2162
  845MOL0     C14002   8.880   1.334   3.269  0.2547 -0.9317 -0.7646
  845MOL0     C14003   8.828   1.352   3.131 -0.0104  0.3159 -0.6286
  845MOL0     C14004   8.782   1.375   3.026  0.3740 -0.0630 -0.0884
  845MOL0     C14005   9.513   1.297   3.262 -0.4175 -0.3299  0.7357
  845MOL0     C14006   9.653   1.300   3.288 -0.5452 -0.2103  0.4671
  845MOL0     C14007   9.736   1.193   3.226 -0.3731 -0.6779 -0.6264
  845MOL0     H14008  10.101   1.539   3.283 -0.0000  1.8514  2.9533
  845MOL0     H14009  10.345   1.520   3.247 -0.1735 -1.2627 -1.4594
  845MOL0     H14010  10.517   1.374   3.102  1.5653  1.3235 -1.2480
  845MOL0     H14011  10.563   1.476   3.250  1.4940 -1.2903  2.1821
  845MOL0     H14012  10.761   1.392   3.113 -0.1067 -0.5635 -0.5993
  845MOL0     H14013  10.713   1.234   3.133  0.7802  1.1295 -1.6016
  845MOL0     H14014  10.739   1.208   3.346  0.2052 -0.3288 -0.1839
  845MOL0     H14015  10.765   1.388   3.382 -0.0898 -0.0100  0.5861
  845MOL0     H14016  10.944   1.195   3.239  0.8178  0.1204  0.3244
  845MOL0     H14017  10.952   1.369   3.200 -3.4503  0.5441 -0.9340
  845MOL0     H14018  10.962   1.377   3.460  1.1189  1.4235 -1.1192
  845MOL0     H14019  11.003   1.199   3.446  0.3764  0.7546  0.3658
  845MOL0     H14020  11.197   1.258   3.338 -1.4271 -1.3731  0.4516
  845MOL0     H14021  11.162   1.430   3.312  4.1469  0.4177  1.9693
  845MOL0     H14022  11.329   1.343   3.499 -0.3853  0.1405 -1.9720
  845MOL0     H14023  11.200   1.269   3.586 -6.1030  0.9540  0.8518
  845MOL0     H14024  11.264   1.564   3.527 -0.6908  0.7073  0.2168
  845MOL0     H14025  11.097   1.524   3.570  0.4168  0.5798 -0.2451
  845MOL0     H14026  11.432   1.412   3.729  0.0137 -0.2267  1.0822
  845MOL0     H14027  11.430   1.449   4.096  2.5775  1.3047  2.5970
  845MOL0     H14028  11.542   1.463   3.962  0.4725  0.7507  1.3991
  845MOL0     H14029  11.517   1.708   3.970 -1.2096 -1.6220 -1.9586
  845MOL0     H14030  11.388   1.684   4.101  0.0580 -2.9093  2.2409
  845MOL0     H14031  11.546   1.595   4.250 -1.8471 -0.3201 -2.3524
  845MOL0     H14032  11.580   1.762   4.220  1.6178  0.2820  0.3847
  845MOL0     H14033  11.746   1.672   4.033  3.5345  0.0672 -0.4219
  845MOL0     H14034  11.754   1.522   4.120 -0.1033  1.2817 -0.8792
  845MOL0     H14035  11.895   1.855   4.051 -0.4053 -1.4303 -1.6256
  845MOL0     H14036  12.110   1.915   4.024 -0.1720 -0.7496 -0.2921
  845MOL0     H14037  12.596   1.910   4.111 -2.0587 -1.0255 -2.0504
  845MOL0     H14038  12.789   2.051   4.101 -1.4423 -1.3963  2.1802
  845MOL0     H14039  12.723   2.495   4.001 -0.5759 -2.0865 -0.3573
  845MOL0     H14040  12.735   2.488   4.166  0.6047 -0.7039  0.5347
  845MOL0     H14041  13.011   2.463   4.088  1.7923  0.3985 -1.6591
  845MOL0     H14042  12.946   2.509   3.940 -0.4200 -0.1653  0.0247
  845MOL0     H14043  12.865   2.728   4.020  0.2754 -1.3171 -1.2436
  845MOL0     H14044  12.911   2.687   4.188 -2.4596 -0.8858  0.2118
  845MOL0     H14045  13.118   2.709   3.963 -0.9931 -0.2690 -0.7930
  845MOL0     H14046  13.149   2.651   4.134  1.4820 -1.0580 -3.2007
  845MOL0     H14047  13.028   2.898   4.126  2.0001  0.9283  1.5310
  845MOL0     H14048  13.159   2.914   4.010 -0.2232  2.3752  1.0185
  845MOL0     H14049  13.227   2.996   4.233  3.2345 -0.2531  0.8475
  845MOL0     H14050  13.194   2.839   4.310  1.6949 -2.1520  0.0004
  845MOL0     H14051  13.353   2.843   4.054  1.3290  1.2130 -0.6738
  845MOL0     H14052  13.383   2.771   4.211 -4.7432 -1.0221 -1.1108
  845MOL0     H14053  13.557   2.976   4.151 -0.3095  2.1448  0.2092
  845MOL0     H14054  13.412   3.077   4.171 -0.5980  1.5307  2.9253
  845MOL0     H14055  12.534   2.396   4.047 -0.1267 -0.0024 -2.0938
  845MOL0     H14056  12.339   2.252   4.069  1.0364  0.8200 -2.3972
  845MOL0     H14057  12.222   1.734   4.399  0.5652  0.0788 -1.7937
  845MOL0     H14058  11.997   1.623   4.393 -3.6157  2.6799  1.4631
  845MOL0     H14059  10.323   1.115   3.398  1.1591  0.5654 -2.6560
  845MOL0     H14060  10.110   1.136   3.453  1.6318 -0.2873  1.4197
  845MOL0     H14061   9.657   1.568   3.492  0.1695 -1.2931  0.9768
  845MOL0     H14062   9.406   1.547   3.455 -1.3038 -0.9387 -0.9974
  845MOL0     H14063   9.303   1.476   3.107  1.6268  1.2857  0.0743
  845MOL0     H14064   9.241   1.581   3.235  1.4418  0.2094  1.2491
  845MOL0     H14065   9.113   1.325   3.122 -0.3196  0.7514 -2.2274
  845MOL0     H14066   9.066   1.494   3.097  0.0553 -0.1671 -0.4997
  845MOL0     H14067   8.977   1.539   3.274  0.9672  0.7492 -1.7656
  845MOL0     H14068   9.046   1.411   3.381  1.5602 -3.5531 -1.2008
  845MOL0     H14069   8.911   1.233   3.297 -0.3642 -2.0499 -3.6828
  845MOL0     H14070   8.807   1.361   3.345  2.1639 -0.7867  1.0970
  845MOL0     H14071   8.732   1.390   2.933 -4.6234 -0.3394  2.2613
  845MOL0     H14072   9.474   1.214   3.204 -0.2285 -0.7053  1.1399
  845MOL0     H14073   9.685   1.120   3.162  1.3397  0.0265 -2.9362
  845MOL0     H14074   9.811   1.244   3.165 -1.7950  1.6506 -0.5600
  845MOL0     H14075   9.788   1.129   3.297 -0.5525  1.1594  1.2479
  846MOL0     O14076   0.917   9.386   2.563 -0.3841 -0.1793 -0.2417
  846MOL0     C14077   1.043   9.383   2.555  0.1388 -0.1902 -0.7813
  846MOL0     O14078   1.120   9.430   2.664  0.1153  0.1177  0.3864
  846MOL0     C14079   1.056   9.518   2.749 -0.0877  0.2277  0.0782
  846MOL0     C14080   1.005   9.484   2.872 -0.1749 -0.7019  0.3725
  846MOL0     C14081   0.928   9.571   2.947  0.0322  0.1373  0.0983
  846MOL0     C14082   0.903   9.703   2.905  0.2332  0.4323  0.1349
  846MOL0     O14083   0.806   9.780   2.971 -0.4294  0.3300  0.2237
  846MOL0     C14084   0.791   9.915   2.936  0.2521 -0.2028 -0.6176
  846MOL0     C14085   0.693   9.976   3.028 -0.5107 -0.1576  0.6770
  846MOL0     C14086   0.734   9.955   3.171  0.2512 -0.5438 -0.0094
  846MOL0     C14087   0.611   9.960   3.271  0.0805 -0.2729  0.0891
  846MOL0     C14088   0.566  10.103   3.283 -0.1608 -0.3665  0.2428
  846MOL0     C14089   0.490  10.149   3.407  0.1437 -0.3576  1.0971
  846MOL0     C14090   0.365  10.062   3.412 -0.2527  0.3198  0.1270
  846MOL0     C14091   0.247  10.130   3.495 -0.0091 -0.0852  0.0008
  846MOL0     N14092   0.290  10.156   3.630 -0.5357 -0.7273 -1.2329
  846MOL0     C14093   0.366  10.073   3.720  1.0586  0.6849  1.1378
  846MOL0     C14094   0.404  10.142   3.824  0.8325 -0.3608  0.1793
  846MOL0     C14095   0.466  10.101   3.950  0.1998 -0.2669  0.1763
  846MOL0     C14096   0.407   9.993   4.039  0.1898  0.3032 -0.0841
  846MOL0     C14097   0.278  10.035   4.108  0.5961  0.9084 -0.1730
  846MOL0     C14098   0.188   9.921   4.130  0.5945 -0.0901  0.2656
  846MOL0     O14099   0.253   9.841   4.228  0.3895  0.6230  0.0775
  846MOL0     C14100   0.189   9.731   4.273  0.6067 -0.1293  0.1204
  846MOL0     C14101   0.262   9.650   4.361  0.6618 -0.4441  0.1296
  846MOL0     C14102   0.188   9.541   4.412  0.1611  0.0734 -0.2872
  846MOL0     C14103   0.047   9.520   4.394  0.1961  0.2928 -0.4821
  846MOL0     C14104  -0.018   9.405   4.463  0.3662 -0.0203 -0.0556
  846MOL0     O14105   0.067   9.342   4.551  0.6992  0.2280 -0.3866
  846MOL0     C14106   0.025   9.229   4.624 -0.3416  0.6070  0.0400
  846MOL0     C14107  -0.096   9.234   4.694  0.5481  0.5709 -0.1524
  846MOL0     C14108  -0.148   9.114   4.755  0.0783 -0.7670 -0.4711
  846MOL0     C14109  -0.066   8.997   4.761  0.7455  0.7442  0.8313
  846MOL0     O14110  -0.116   8.891   4.840 -0.0310 -0.3268 -0.0064
  846MOL0     C14111  -0.056   8.769   4.834 -1.3829  0.0817  0.5778
  846MOL0     C14112  -0.155   8.653   4.839  0.6423  0.0677  0.0229
  846MOL0     C14113  -0.262   8.682   4.737  0.1092 -0.1291 -0.7405
  846MOL0     C14114  -0.353   8.561   4.706  0.1385  0.1207 -0.0914
  846MOL0     C14115  -0.439   8.576   4.577  0.1551  0.2305  0.7127
  846MOL0     C14116  -0.557   8.668   4.608  0.6837  0.0836  0.3509
  846MOL0     C14117  -0.685   8.621   4.530 -0.1986  0.1583 -0.2427
  846MOL0     C14118  -0.676   8.607   4.376 -0.5491 -0.4088  0.1382
  846MOL0    Cl14119  -0.602   8.760   4.318  0.0682  0.0651 -0.0219
  846MOL0     C14120   0.058   8.996   4.693 -0.9269  0.8969 -0.8394
  846MOL0     C14121   0.106   9.115   4.630 -0.2848  0.2868 -0.1311
  846MOL0     O14122  -0.143   9.386   4.449 -0.5587 -0.6522  0.7491
  846MOL0     C14123  -0.019   9.596   4.297  0.4519  0.6110 -0.0294
  846MOL0     C14124   0.062   9.696   4.225  1.2608  0.2524 -0.4255
  846MOL0     N14125   0.354  10.267   3.790 -0.3338 -0.3472  0.3548
  846MOL0     N14126   0.275  10.273   3.688  0.8141 -0.5076 -1.1643
  846MOL0     C14127   0.963   9.743   2.777  0.9232  1.2031 -0.6190
  846MOL0     C14128   1.036   9.655   2.705 -0.2899 -0.0014 -0.5138
  846MOL0     C14129   1.109   9.347   2.433 -0.4074  0.5809  0.1385
  846MOL0     C14130   1.248   9.398   2.428  0.5819  0.6593  0.0331
  846MOL0     C14131   1.319   9.385   2.318 -0.6880 -0.1531  0.2623
  846MOL0     C14132   1.264   9.323   2.208 -0.1469 -0.1970  0.1212
  846MOL0     O14133   1.350   9.323   2.101  0.9023 -0.1525  0.3184
  846MOL0     C14134   1.318   9.242   1.986  0.1273 -0.1933 -0.6194
  846MOL0     C14135   1.404   9.291   1.868  0.0705 -0.0329 -0.3245
  846MOL0     C14136   1.551   9.259   1.866  0.3270 -0.0434 -0.5639
  846MOL0     C14137   1.617   9.283   1.734  0.0817  0.5639 -0.0551
  846MOL0     C14138   1.556   9.220   1.615  1.1434 -0.2233 -1.3485
  846MOL0     C14139   1.493   9.178   1.520  0.1630  0.6026 -0.3534
  846MOL0     C14140   1.136   9.254   2.212 -0.6872 -0.3193  0.4527
  846MOL0     C14141   1.058   9.266   2.329 -0.6827  0.2397  0.2025
  846MOL0     C14142   0.922   9.202   2.330  0.6666 -0.4059  0.0228
  846MOL0     H14143   1.019   9.382   2.905 -0.2368 -0.6540  0.5470
  846MOL0     H14144   0.886   9.521   3.034 -1.2389  0.5435 -0.2531
  846MOL0     H14145   0.887   9.966   2.949  0.6791 -1.0403 -0.3894
  846MOL0     H14146   0.756   9.920   2.833  1.7178 -0.5730 -1.1655
  846MOL0     H14147   0.602   9.918   3.008 -0.9685  0.7422  0.0507
  846MOL0     H14148   0.684  10.083   3.007 -2.5858  0.1185  2.5961
  846MOL0     H14149   0.820  10.017   3.201 -0.8858  1.8607 -1.4148
  846MOL0     H14150   0.771   9.853   3.181 -0.7840 -1.3895 -3.4188
  846MOL0     H14151   0.525   9.901   3.237  0.1708  0.1913 -0.9776
  846MOL0     H14152   0.646   9.937   3.372  1.4908 -1.4251 -0.6305
  846MOL0     H14153   0.649  10.173   3.272 -1.1756  0.6279 -1.4370
  846MOL0     H14154   0.502  10.118   3.195 -0.0627  1.3599  0.4446
  846MOL0     H14155   0.554  10.137   3.494 -0.4120 -2.8236  1.2299
  846MOL0     H14156   0.468  10.255   3.388  1.8408 -0.0949  0.4371
  846MOL0     H14157   0.393   9.974   3.472  1.9686  0.0176 -1.2534
  846MOL0     H14158   0.329  10.037   3.312  2.4968 -0.5148 -0.7465
  846MOL0     H14159   0.222  10.224   3.444  0.5314  0.0660  0.0026
  846MOL0     H14160   0.157  10.068   3.496  0.1330 -0.3112  1.9909
  846MOL0     H14161   0.366   9.964   3.716 -1.9082  0.6264  0.0304
  846MOL0     H14162   0.565  10.074   3.913 -0.2531 -0.1359 -1.1964
  846MOL0     H14163   0.484  10.196   4.000 -1.3703  1.0032 -1.5197
  846MOL0     H14164   0.397   9.902   3.979  1.5826 -0.1747  0.3568
  846MOL0     H14165   0.482   9.970   4.116  0.9915  3.7616  0.3168
  846MOL0     H14166   0.224  10.102   4.040 -2.5565 -3.5187 -2.5423
  846MOL0     H14167   0.308  10.076   4.205  0.8038 -1.9595  1.0614
  846MOL0     H14168   0.175   9.856   4.043  1.9913 -1.0227  0.7267
  846MOL0     H14169   0.089   9.955   4.164 -0.0122  0.3029 -1.7150
  846MOL0     H14170   0.364   9.673   4.388  0.6159 -0.7752  0.6052
  846MOL0     H14171   0.239   9.496   4.496 -0.8351 -0.8688 -0.1620
  846MOL0     H14172  -0.165   9.318   4.691 -1.0625 -0.6980 -1.0574
  846MOL0     H14173  -0.240   9.110   4.811  0.7797  0.8141  0.8884
  846MOL0     H14174  -0.006   8.756   4.737  0.4841  3.3398  0.9573
  846MOL0     H14175   0.017   8.760   4.916 -1.6654  0.9740  0.9333
  846MOL0     H14176  -0.108   8.559   4.806 -1.1979 -1.2360  0.9694
  846MOL0     H14177  -0.201   8.641   4.937 -0.5041 -1.2619 -0.6430
  846MOL0     H14178  -0.334   8.754   4.778 -0.7576  0.1239 -2.5746
  846MOL0     H14179  -0.212   8.727   4.650  1.0216 -0.3902 -0.3611
  846MOL0     H14180  -0.402   8.520   4.795  1.6456  0.4904  0.9563
  846MOL0     H14181  -0.284   8.477   4.693 -0.1382  0.2828 -3.5027
  846MOL0     H14182  -0.459   8.475   4.542  1.4714  0.9873 -2.6156
  846MOL0     H14183  -0.378   8.610   4.492 -1.7821 -0.5638 -1.0685
  846MOL0     H14184  -0.588   8.662   4.713  0.6698  3.0103  0.5795
  846MOL0     H14185  -0.544   8.775   4.590 -0.8192  0.7594  2.7892
  846MOL0     H14186  -0.762   8.696   4.553  0.1316 -0.2368  2.5568
  846MOL0     H14187  -0.714   8.522   4.566 -0.0664 -1.3093 -3.7529
  846MOL0     H14188  -0.626   8.516   4.340 -3.0889 -2.4597  1.3882
  846MOL0     H14189  -0.780   8.597   4.342 -0.3144  2.8910 -1.9628
  846MOL0     H14190   0.121   8.910   4.672  0.7894  2.1354 -1.0215
  846MOL0     H14191   0.203   9.105   4.582 -0.5144  1.2211 -0.8182
  846MOL0     H14192  -0.117   9.561   4.264  0.7530 -2.1411  1.6834
  846MOL0     H14193   0.019   9.732   4.132 -1.3286 -1.8944 -0.1938
  846MOL0     H14194   0.944   9.841   2.736 -0.7247  0.2386 -2.3168
  846MOL0     H14195   1.063   9.687   2.605 -1.3579 -0.1470 -0.8599
  846MOL0     H14196   1.291   9.439   2.519  3.8198 -3.5868  0.7596
  846MOL0     H14197   1.414   9.436   2.312 -0.8944  0.3037  0.7492
  846MOL0     H14198   1.220   9.275   1.948  0.7487  1.2600 -1.0213
  846MOL0     H14199   1.324   9.133   1.993  2.9442 -0.0399  0.8469
  846MOL0     H14200   1.410   9.401   1.868  0.6437 -0.0527  0.7216
  846MOL0     H14201   1.350   9.251   1.782  0.0235 -0.6252 -0.0250
  846MOL0     H14202   1.557   9.157   1.905 -0.4642  0.3590  0.6569
  846MOL0     H14203   1.611   9.308   1.944  1.3300 -2.7703  0.4926
  846MOL0     H14204   1.621   9.391   1.716  0.1804  0.7075  0.8151
  846MOL0     H14205   1.720   9.246   1.728 -0.2369 -0.1594 -1.5203
  846MOL0     H14206   1.432   9.137   1.443  1.0444  3.6860 -2.9270
  846MOL0     H14207   1.092   9.201   2.127  0.3711 -0.7513  0.1562
  846MOL0     H14208   0.918   9.129   2.411  0.4482 -0.3302  0.0785
  846MOL0     H14209   0.855   9.287   2.345  2.4005  1.0439 -0.0374
  846MOL0     H14210   0.889   9.151   2.238 -0.3912 -0.6942  0.5459
  847MOL0     O14211   1.435   2.875  10.930 -0.6372 -0.1553 -0.1191
  847MOL0     C14212   1.401   2.816  10.826 -0.2208 -1.3983 -0.2341
  847MOL0     O14213   1.372   2.683  10.808 -0.6386  0.9206 -0.7094
  847MOL0     C14214   1.362   2.604  10.916  0.0223  0.4073  0.2657
  847MOL0     C14215   1.248   2.522  10.931  0.3444 -0.1437  0.0464
  847MOL0     C14216   1.252   2.432  11.047 -0.0926 -0.4887 -0.7734
  847MOL0     C14217   1.354   2.434  11.147 -0.2993 -0.2582 -0.7838
  847MOL0     O14218   1.331   2.351  11.253 -1.0945  0.1471 -0.5343
  847MOL0     C14219   1.429   2.348  11.364 -0.5097  0.4079  0.0893
  847MOL0     C14220   1.423   2.459  11.470  0.1604 -1.1836  0.2912
  847MOL0     C14221   1.284   2.488  11.509  0.3309 -0.1270 -0.6860
  847MOL0     C14222   1.249   2.537  11.651 -0.7191 -0.6135  0.1994
  847MOL0     C14223   1.099   2.573  11.686 -0.4268  0.1653 -0.3043
  847MOL0     C14224   0.989   2.473  11.640  0.2142  0.3294 -0.2029
  847MOL0     C14225   0.851   2.528  11.608  0.8170 -0.5776  1.1812
  847MOL0     C14226   0.819   2.651  11.693 -1.2754 -0.3664  0.5788
  847MOL0     N14227   0.682   2.692  11.673 -0.0492  0.5498  0.3096
  847MOL0     C14228   0.572   2.625  11.736  0.3892 -0.0037  0.4256
  847MOL0     C14229   0.460   2.657  11.674 -0.2247  0.6926  0.2512
  847MOL0     C14230   0.320   2.600  11.695 -1.1237  0.3780  0.1442
  847MOL0     C14231   0.237   2.719  11.741 -0.3444 -0.1211 -0.5668
  847MOL0     C14232   0.097   2.679  11.757  0.6248 -0.3570 -0.7976
  847MOL0     C14233   0.017   2.778  11.831  0.9870  0.0597 -0.5832
  847MOL0     O14234  -0.122   2.750  11.803  0.0260  0.9187  0.3210
  847MOL0     C14235  -0.190   2.658  11.890  0.5569 -0.6520  0.2105
  847MOL0     C14236  -0.329   2.642  11.877 -0.2266 -0.3843  0.4231
  847MOL0     C14237  -0.402   2.563  11.963 -0.2395  0.0466 -0.4911
  847MOL0     C14238  -0.337   2.496  12.069 -0.5131  0.3376 -0.8715
  847MOL0     C14239  -0.421   2.410  12.157 -0.6453  0.1624 -0.1960
  847MOL0     O14240  -0.352   2.321  12.240 -0.0831 -0.6844 -0.2402
  847MOL0     C14241  -0.414   2.226  12.305  0.1796 -0.0133 -0.1317
  847MOL0     C14242  -0.348   2.100  12.286  0.5512 -0.4444 -0.1957
  847MOL0     C14243  -0.381   1.988  12.371  0.3005 -0.3262 -0.3646
  847MOL0     C14244  -0.489   1.997  12.457 -0.3326  0.0760  0.3398
  847MOL0     O14245  -0.520   1.894  12.542  0.3448 -0.0439 -0.1971
  847MOL0     C14246  -0.461   1.760  12.539 -0.5146  0.3168  0.2421
  847MOL0     C14247  -0.568   1.662  12.496  0.0581  0.5514  0.6706
  847MOL0     C14248  -0.522   1.512  12.489  0.2257 -0.1457  0.6654
  847MOL0     C14249  -0.428   1.489  12.365  0.3955 -0.4621 -0.3725
  847MOL0     C14250  -0.392   1.347  12.364  0.3604 -0.0294 -0.1759
  847MOL0     C14251  -0.265   1.305  12.291  0.0530  0.0315 -0.1492
  847MOL0     C14252  -0.231   1.164  12.339  0.1943  0.8177  0.9568
  847MOL0     C14253  -0.115   1.119  12.269  0.7828 -0.5445  0.5580
  847MOL0    Cl14254   0.009   1.240  12.255  0.1035 -0.3778  0.1125
  847MOL0     C14255  -0.565   2.122  12.461  0.1603  0.1085 -0.4548
  847MOL0     C14256  -0.532   2.234  12.378 -0.6665 -0.4173  0.1426
  847MOL0     O14257  -0.546   2.407  12.139 -0.0341 -0.8309  0.4031
  847MOL0     C14258  -0.200   2.507  12.080 -0.1975  0.8211 -0.0056
  847MOL0     C14259  -0.130   2.585  11.992  1.0683 -0.7254  0.1230
  847MOL0     N14260   0.501   2.739  11.569  0.2631  0.9097  0.9495
  847MOL0     N14261   0.631   2.750  11.567  0.1086 -0.4325 -0.8126
  847MOL0     C14262   1.458   2.516  11.120  0.6321 -0.3233  0.1186
  847MOL0     C14263   1.477   2.595  11.001  0.4719 -1.0888 -0.3404
  847MOL0     C14264   1.388   2.907  10.707 -0.4000  0.7467 -0.0460
  847MOL0     C14265   1.276   2.893  10.622 -0.5635 -0.0164  0.1519
  847MOL0     C14266   1.259   2.978  10.517  0.5287  0.7626 -0.4345
  847MOL0     C14267   1.348   3.072  10.473  0.4769 -0.3044  0.0742
  847MOL0     O14268   1.330   3.149  10.360 -0.8481 -0.0773 -0.3135
  847MOL0     C14269   1.210   3.125  10.288 -0.4398 -0.0301 -0.2966
  847MOL0     C14270   1.206   3.213  10.157 -1.1563  1.2254  0.3108
  847MOL0     C14271   1.303   3.161  10.050  0.5824 -0.1595 -0.0347
  847MOL0     C14272   1.250   3.031   9.998  0.3463 -0.0054  0.3498
  847MOL0     C14273   1.308   2.986   9.867 -0.3013 -0.3991  0.0765
  847MOL0     C14274   1.367   2.931   9.773  0.4503 -0.0298 -0.0709
  847MOL0     C14275   1.460   3.082  10.552  0.1208 -0.7379  0.4307
  847MOL0     C14276   1.489   3.003  10.673 -0.5458  0.2808  0.3864
  847MOL0     C14277   1.609   3.039  10.758  0.1654 -0.4638  0.7604
  847MOL0     H14278   1.162   2.531  10.865 -1.3735  4.3386  2.4146
  847MOL0     H14279   1.169   2.365  11.061 -1.1689  0.2589 -3.0578
  847MOL0     H14280   1.412   2.250  11.408 -1.0547 -0.6500 -2.3235
  847MOL0     H14281   1.531   2.344  11.324 -0.1518  2.0384  0.7285
  847MOL0     H14282   1.456   2.554  11.426 -0.6043 -0.7268  0.6870
  847MOL0     H14283   1.484   2.432  11.557  2.7846  0.8920 -0.7358
  847MOL0     H14284   1.229   2.395  11.488  1.1430 -1.3030  1.9937
  847MOL0     H14285   1.259   2.574  11.446 -0.3320  2.0777  2.3529
  847MOL0     H14286   1.278   2.459  11.722  0.5027  0.6570  1.1588
  847MOL0     H14287   1.311   2.623  11.681 -1.1042 -0.9358  2.0408
  847MOL0     H14288   1.095   2.575  11.795  1.4359 -1.6284 -0.1440
  847MOL0     H14289   1.088   2.671  11.638  0.4043  0.6001  0.3565
  847MOL0     H14290   1.018   2.420  11.549  0.3029  1.2719 -0.7415
  847MOL0     H14291   0.986   2.398  11.719 -2.2052 -0.5490 -1.0108
  847MOL0     H14292   0.776   2.448  11.615  2.5471 -2.3783  0.3138
  847MOL0     H14293   0.838   2.566  11.506  1.1752 -1.9405  0.6079
  847MOL0     H14294   0.841   2.630  11.797  0.1599  1.3466  0.6737
  847MOL0     H14295   0.894   2.722  11.656 -1.6279  0.2913  1.0941
  847MOL0     H14296   0.578   2.561  11.823 -2.7723 -0.9062  0.1172
  847MOL0     H14297   0.292   2.564  11.596  0.3909  3.4778 -1.5663
  847MOL0     H14298   0.316   2.515  11.764  0.6931  1.1801  1.3276
  847MOL0     H14299   0.285   2.762  11.830  4.1574 -1.5156 -2.0509
  847MOL0     H14300   0.241   2.802  11.670 -0.4265 -0.6938 -1.2490
  847MOL0     H14301   0.083   2.575  11.789 -3.2324  0.8239  2.1581
  847MOL0     H14302   0.062   2.689  11.654  2.3673  1.8471 -1.2445
  847MOL0     H14303   0.041   2.883  11.813 -0.5570  0.4312 -0.5346
  847MOL0     H14304   0.045   2.770  11.937 -2.3267  1.3898  0.4998
  847MOL0     H14305  -0.380   2.704  11.804 -0.1703 -2.1884 -1.2506
  847MOL0     H14306  -0.510   2.564  11.954 -0.6573 -1.2816  2.7378
  847MOL0     H14307  -0.273   2.100  12.208 -0.9939  0.4223 -1.7603
  847MOL0     H14308  -0.312   1.909  12.342  1.8567  0.4101  1.1469
  847MOL0     H14309  -0.369   1.751  12.481  0.5452  0.4404  1.8464
  847MOL0     H14310  -0.439   1.724  12.640 -0.8786 -1.9780 -0.4196
  847MOL0     H14311  -0.649   1.673  12.569 -2.7370  0.1126 -2.1237
  847MOL0     H14312  -0.594   1.700  12.397  3.1869  2.9632  0.6482
  847MOL0     H14313  -0.451   1.489  12.568  2.6108  0.7429 -1.0996
  847MOL0     H14314  -0.604   1.441  12.475 -0.5861  0.8176  0.4373
  847MOL0     H14315  -0.337   1.550  12.367  0.0450  0.1497 -1.6945
  847MOL0     H14316  -0.482   1.518  12.274  1.7488  0.2094 -0.9844
  847MOL0     H14317  -0.474   1.276  12.345  2.1595 -3.0047  2.2531
  847MOL0     H14318  -0.377   1.317  12.469 -3.0558 -1.9009 -0.0730
  847MOL0     H14319  -0.259   1.311  12.182  3.8830 -2.2706 -0.2517
  847MOL0     H14320  -0.185   1.372  12.326 -1.4631  1.6188  0.4287
  847MOL0     H14321  -0.310   1.089  12.327  1.6422 -0.9200  1.6581
  847MOL0     H14322  -0.198   1.173  12.443  0.3750 -0.3314  1.0131
  847MOL0     H14323  -0.077   1.037  12.332  2.0687  0.1740  0.7521
  847MOL0     H14324  -0.156   1.080  12.175 -0.3163  0.5312  0.5716
  847MOL0     H14325  -0.657   2.119  12.519 -0.2831 -2.5070 -1.1302
  847MOL0     H14326  -0.592   2.323  12.387  1.0159  0.5740  3.2239
  847MOL0     H14327  -0.135   2.463  12.155 -0.6503  1.2661  0.6543
  847MOL0     H14328  -0.026   2.604  12.019  0.9344  0.5200 -0.1799
  847MOL0     H14329   1.538   2.510  11.193  0.6895  1.0224  0.1994
  847MOL0     H14330   1.568   2.650  10.981 -0.1530  0.8963  1.8500
  847MOL0     H14331   1.205   2.814  10.645  1.2115 -2.8252 -3.0701
  847MOL0     H14332   1.159   2.957  10.480 -1.5388  1.6879  3.9754
  847MOL0     H14333   1.122   3.143  10.351 -1.2323 -0.9280 -1.0970
  847MOL0     H14334   1.194   3.019  10.264 -2.0342 -0.4777  2.2942
  847MOL0     H14335   1.236   3.315  10.184  2.0165 -0.0702  2.2232
  847MOL0     H14336   1.104   3.221  10.117 -0.7744  1.7859 -0.6077
  847MOL0     H14337   1.405   3.159  10.089  0.5337 -0.3854  0.0813
  847MOL0     H14338   1.296   3.234   9.969 -0.9591  0.6199  0.7599
  847MOL0     H14339   1.272   2.953  10.072 -2.8742 -0.9719  0.4450
  847MOL0     H14340   1.142   3.043   9.986  0.1907  0.1345  1.7369
  847MOL0     H14341   1.407   2.864   9.700 -3.2055 -2.4310 -0.1451
  847MOL0     H14342   1.525   3.162  10.516  1.6134 -2.5891 -1.1654
  847MOL0     H14343   1.583   3.089  10.852 -2.9403 -1.2517  0.4365
  847MOL0     H14344   1.662   2.946  10.784  0.3094 -0.7246 -0.4344
  847MOL0     H14345   1.663   3.105  10.690 -2.0134 -1.2689 -1.8888
  848MOL0     O14346   8.528   2.355   7.817  0.4224 -0.5360  0.3487
  848MOL0     C14347   8.402   2.353   7.825 -0.9140  0.0355 -1.2211
  848MOL0     O14348   8.323   2.424   7.914 -0.3161 -1.0271  0.6138
  848MOL0     C14349   8.389   2.499   8.012 -0.4446  0.7644 -0.5044
  848MOL0     C14350   8.329   2.616   8.057  1.3740  0.0299 -0.1316
  848MOL0     C14351   8.371   2.683   8.167 -0.7260 -0.4766  0.2203
  848MOL0     C14352   8.468   2.619   8.249 -0.4429  0.0090 -0.5843
  848MOL0     O14353   8.514   2.670   8.364 -1.0052  0.0267 -0.7510
  848MOL0     C14354   8.487   2.810   8.390 -0.9048 -0.1108 -0.0968
  848MOL0     C14355   8.552   2.863   8.510  0.2015  0.2595 -0.5722
  848MOL0     C14356   8.702   2.882   8.484 -1.0147 -0.1347 -0.0908
  848MOL0     C14357   8.792   2.755   8.490 -0.3849  0.2548 -0.3667
  848MOL0     C14358   8.926   2.791   8.434  0.2354  0.3166  0.0996
  848MOL0     C14359   9.024   2.666   8.433 -0.5168 -0.4607  0.3303
  848MOL0     C14360   9.160   2.704   8.371 -0.2551  0.2743 -0.8637
  848MOL0     C14361   9.253   2.772   8.478  0.4468 -0.4129  0.9690
  848MOL0     N14362   9.398   2.758   8.442  0.1363 -0.2656  0.2266
  848MOL0     C14363   9.449   2.649   8.379 -0.9874 -0.4808  0.5178
  848MOL0     C14364   9.581   2.647   8.404  0.6269 -0.2193 -0.1654
  848MOL0     C14365   9.674   2.542   8.362  0.2234 -0.1490  0.4119
  848MOL0     C14366   9.681   2.456   8.479 -0.6367 -0.3840  0.3646
  848MOL0     C14367   9.769   2.510   8.599  0.1164  0.3049 -0.3065
  848MOL0     C14368   9.807   2.393   8.694  0.5462  1.2930  0.0478
  848MOL0     O14369   9.694   2.332   8.764 -0.1150 -0.3081 -0.0382
  848MOL0     C14370   9.728   2.232   8.848  0.6838 -0.9954 -0.2759
  848MOL0     C14371   9.859   2.186   8.877  0.5362 -0.3598 -0.1891
  848MOL0     C14372   9.870   2.081   8.965  0.2955 -0.5383  0.2841
  848MOL0     C14373   9.768   2.028   9.044 -0.6516  0.6148 -0.5969
  848MOL0     C14374   9.797   1.927   9.143 -0.3570 -0.3539 -0.5644
  848MOL0     O14375   9.925   1.908   9.175 -0.1418 -0.0868 -0.5200
  848MOL0     C14376   9.982   1.808   9.257 -0.0903  0.1276 -0.3036
  848MOL0     C14377  10.067   1.843   9.357 -0.6995  0.4525 -0.0214
  848MOL0     C14378  10.123   1.749   9.443 -1.1650 -0.8564 -0.2427
  848MOL0     C14379  10.107   1.611   9.414  0.2419 -1.2031 -0.5402
  848MOL0     O14380  10.155   1.520   9.498  0.4597  0.6150  0.3521
  848MOL0     C14381  10.261   1.435   9.454 -0.0390  0.1477 -0.8006
  848MOL0     C14382  10.354   1.404   9.575  0.0929 -0.0320 -0.6425
  848MOL0     C14383  10.484   1.328   9.549 -0.4386  0.0550 -0.6727
  848MOL0     C14384  10.540   1.295   9.692 -0.0776 -0.4345 -0.2183
  848MOL0     C14385  10.683   1.263   9.697 -0.4302  0.4459 -0.0725
  848MOL0     C14386  10.716   1.126   9.621 -0.2583 -0.7241 -0.0944
  848MOL0     C14387  10.852   1.089   9.677 -0.3438  0.6037 -0.2349
  848MOL0     C14388  10.877   0.939   9.660 -0.0558  0.9357 -0.0040
  848MOL0    Cl14389  11.047   0.900   9.707 -0.3736 -0.3510 -0.3125
  848MOL0     C14390  10.025   1.577   9.299 -0.9615 -0.6064 -0.5339
  848MOL0     C14391   9.958   1.679   9.228 -0.2744  0.8434 -0.5484
  848MOL0     O14392   9.702   1.858   9.186 -0.3586 -0.0568  0.2264
  848MOL0     C14393   9.632   2.063   9.019 -0.1239  0.2013  0.2970
  848MOL0     C14394   9.618   2.159   8.912  0.0653 -0.2577 -0.0385
  848MOL0     N14395   9.615   2.753   8.474  0.3804 -0.2936  0.2551
  848MOL0     N14396   9.511   2.823   8.491 -0.1075 -0.1052 -0.3457
  848MOL0     C14397   8.519   2.499   8.211 -0.4095  0.2468 -0.2154
  848MOL0     C14398   8.482   2.435   8.100  0.3117 -0.0878 -0.5383
  848MOL0     C14399   8.323   2.247   7.749  0.5878  0.3220 -0.1659
  848MOL0     C14400   8.185   2.234   7.776 -0.1476 -0.3962  0.6159
  848MOL0     C14401   8.101   2.138   7.720  0.1190  0.2680  0.0788
  848MOL0     C14402   8.151   2.046   7.626  0.5102  0.5523 -0.1069
  848MOL0     O14403   8.063   1.955   7.569 -0.3489 -0.1599  0.2133
  848MOL0     C14404   8.107   1.858   7.474 -0.3969  0.3564  0.8667
  848MOL0     C14405   8.010   1.766   7.409  0.2746  0.2031  0.8254
  848MOL0     C14406   8.083   1.687   7.299  0.0868  0.3058  0.7718
  848MOL0     C14407   8.011   1.563   7.254  0.4323  0.5096 -0.4119
  848MOL0     C14408   7.901   1.599   7.175 -0.5812  0.4370 -0.2568
  848MOL0     C14409   7.802   1.635   7.118 -0.6252 -0.1534  0.1368
  848MOL0     C14410   8.291   2.051   7.601  0.6100 -0.0365  0.5840
  848MOL0     C14411   8.372   2.144   7.670 -0.3862 -0.6942  0.3021
  848MOL0     C14412   8.525   2.127   7.661  0.2173  0.3061 -0.8771
  848MOL0     H14413   8.243   2.657   8.005 -0.4722  0.7293  3.1852
  848MOL0     H14414   8.308   2.765   8.197 -0.1867 -0.2141  0.6612
  848MOL0     H14415   8.503   2.881   8.308  2.5530  0.9376  1.2799
  848MOL0     H14416   8.380   2.807   8.411 -1.5521 -2.4852 -3.1735
  848MOL0     H14417   8.540   2.786   8.587 -0.0282  0.6203 -0.2435
  848MOL0     H14418   8.495   2.950   8.544 -0.8018  0.1656 -1.9390
  848MOL0     H14419   8.749   2.960   8.546  0.8320 -0.0235 -1.5614
  848MOL0     H14420   8.710   2.929   8.386 -1.8470  2.5706  1.0323
  848MOL0     H14421   8.797   2.732   8.597 -1.1131 -0.5816 -0.5020
  848MOL0     H14422   8.747   2.672   8.435  1.0726 -0.1678 -0.9671
  848MOL0     H14423   8.909   2.835   8.335 -2.8030 -0.9458 -0.0269
  848MOL0     H14424   8.971   2.866   8.500 -0.8125  1.3798 -0.3614
  848MOL0     H14425   9.043   2.628   8.534  1.7251 -0.9017 -0.2026
  848MOL0     H14426   8.977   2.589   8.372 -1.0079  1.1291 -1.4047
  848MOL0     H14427   9.163   2.757   8.275 -3.1002  0.7624 -0.7592
  848MOL0     H14428   9.193   2.602   8.349 -1.2834 -0.6584  1.5809
  848MOL0     H14429   9.229   2.879   8.476  1.1590 -0.2116 -1.9536
  848MOL0     H14430   9.250   2.734   8.580  0.7477  0.7335  1.4326
  848MOL0     H14431   9.388   2.584   8.318 -2.9967 -1.5358  3.4396
  848MOL0     H14432   9.641   2.496   8.268 -0.5516 -1.3790  1.2462
  848MOL0     H14433   9.770   2.589   8.339  0.8473 -1.7295 -0.3796
  848MOL0     H14434   9.580   2.432   8.512 -0.1615 -3.8691 -0.3116
  848MOL0     H14435   9.714   2.357   8.443 -5.5006 -2.2046  0.2127
  848MOL0     H14436   9.730   2.598   8.650 -1.4936  0.2369 -1.3621
  848MOL0     H14437   9.870   2.544   8.574  0.3322  2.4482  2.9137
  848MOL0     H14438   9.875   2.418   8.776  0.3546 -0.5417  0.8061
  848MOL0     H14439   9.852   2.314   8.632  0.3213  0.1090  1.3393
  848MOL0     H14440   9.942   2.235   8.828 -1.9208  2.9664 -1.4184
  848MOL0     H14441   9.971   2.047   8.988  0.4966 -0.8376 -0.9663
  848MOL0     H14442  10.101   1.942   9.383  3.0589 -0.3340 -1.3873
  848MOL0     H14443  10.198   1.775   9.517 -2.2139  0.5519  0.3892
  848MOL0     H14444  10.226   1.348   9.397 -0.6274 -0.1572  0.0070
  848MOL0     H14445  10.331   1.492   9.393  0.5018  0.4414  0.0839
  848MOL0     H14446  10.365   1.494   9.636 -0.3027 -0.3159 -0.1412
  848MOL0     H14447  10.298   1.325   9.627 -0.2169  1.0239  0.6579
  848MOL0     H14448  10.463   1.236   9.494 -1.0776 -0.1861 -0.0543
  848MOL0     H14449  10.553   1.383   9.485 -2.7432  1.0195 -2.4711
  848MOL0     H14450  10.505   1.200   9.732  3.8376 -1.8625  0.2184
  848MOL0     H14451  10.516   1.380   9.757  2.1324  0.0806  0.0023
  848MOL0     H14452  10.713   1.251   9.802  4.2910  0.8352 -1.1323
  848MOL0     H14453  10.752   1.337   9.655 -0.0221  0.0287 -0.1442
  848MOL0     H14454  10.645   1.051   9.656  0.2795 -0.5357  1.5048
  848MOL0     H14455  10.711   1.151   9.515 -0.3428  2.6775  0.6048
  848MOL0     H14456  10.873   1.106   9.783 -1.6590  1.2664 -0.0619
  848MOL0     H14457  10.927   1.151   9.626 -0.6842  0.1788 -1.2807
  848MOL0     H14458  10.807   0.877   9.717  1.6775 -0.6367  0.5228
  848MOL0     H14459  10.863   0.916   9.554 -2.9155  0.6031  0.3695
  848MOL0     H14460  10.007   1.470   9.289 -0.4312 -0.7666  0.1568
  848MOL0     H14461   9.903   1.654   9.137  0.1754 -3.4331  0.1361
  848MOL0     H14462   9.548   2.004   9.053 -1.2863 -0.2417 -2.9488
  848MOL0     H14463   9.517   2.177   8.878 -0.5111  1.1406  2.1909
  848MOL0     H14464   8.585   2.444   8.278 -1.8624 -2.5512 -0.9071
  848MOL0     H14465   8.522   2.337   8.077 -1.4984 -1.2102  0.8192
  848MOL0     H14466   8.139   2.311   7.837  1.7162  1.1221  0.1763
  848MOL0     H14467   7.998   2.151   7.753 -0.4669 -2.1981 -0.5460
  848MOL0     H14468   8.185   1.793   7.516  0.3566  1.2192  0.8362
  848MOL0     H14469   8.151   1.907   7.387  0.4028 -2.3754 -0.3783
  848MOL0     H14470   7.914   1.807   7.375  0.4031 -0.7767 -0.8328
  848MOL0     H14471   7.970   1.691   7.478  0.4914  1.5201  2.4301
  848MOL0     H14472   8.179   1.644   7.330  0.5663  0.0810 -0.9149
  848MOL0     H14473   8.111   1.750   7.215 -1.0478 -1.0338 -0.6627
  848MOL0     H14474   8.089   1.502   7.206 -1.3784 -2.2293 -0.1048
  848MOL0     H14475   7.978   1.504   7.340  1.1245 -0.2503 -0.6492
  848MOL0     H14476   7.719   1.675   7.063 -0.4331  2.2988  1.5267
  848MOL0     H14477   8.325   1.975   7.531  1.6950 -1.1460  2.2178
  848MOL0     H14478   8.564   2.216   7.610 -0.3315  0.1627 -1.5652
  848MOL0     H14479   8.572   2.099   7.756 -2.3890 -1.1124  0.0956
  848MOL0     H14480   8.551   2.047   7.591  2.6900  0.6839 -0.4870
  849MOL0     O14481   1.324  10.170   9.187 -0.1124 -0.4102  0.2074
  849MOL0     C14482   1.254  10.262   9.222 -0.0122  0.1597 -0.1158
  849MOL0     O14483   1.283  10.402   9.213 -0.5191  0.1579 -0.0661
  849MOL0     C14484   1.381  10.438   9.133 -0.7348 -1.2518 -0.1743
  849MOL0     C14485   1.351  10.492   9.000 -0.0308 -0.5030  0.6980
  849MOL0     C14486   1.459  10.530   8.916 -0.2063  0.5625  0.0571
  849MOL0     C14487   1.585  10.537   8.960 -0.1762  0.8746  0.2303
  849MOL0     O14488   1.685  10.573   8.874  0.2566  0.2460 -0.3874
  849MOL0     C14489   1.817  10.613   8.910 -0.3965  0.1311 -0.8982
  849MOL0     C14490   1.828  10.720   9.021  0.0007 -0.6312  0.5127
  849MOL0     C14491   1.952  10.690   9.103 -0.5181 -0.9229 -0.3715
  849MOL0     C14492   2.012  10.809   9.175 -0.0179  1.0855 -0.5961
  849MOL0     C14493   2.141  10.772   9.251  0.1675  0.0476  0.6613
  849MOL0     C14494   2.200  10.908   9.287 -0.0713  0.2994  0.4142
  849MOL0     C14495   2.336  10.880   9.357  0.5805 -0.6014 -0.8722
  849MOL0     C14496   2.405  11.017   9.381  0.9317 -0.0469  0.2582
  849MOL0     N14497   2.536  10.987   9.440  0.3992 -0.1964 -0.4932
  849MOL0     C14498   2.640  10.912   9.390 -0.7663 -0.8631  0.6821
  849MOL0     C14499   2.755  10.955   9.443  0.2818 -0.3276  0.0066
  849MOL0     C14500   2.886  10.898   9.395 -0.3787  0.2800  0.0516
  849MOL0     C14501   2.993  11.002   9.385  0.5625 -0.4039  1.0131
  849MOL0     C14502   2.987  11.087   9.256 -0.0775 -0.1384 -0.0765
  849MOL0     C14503   3.083  11.209   9.250 -0.6901 -0.0497 -0.2078
  849MOL0     O14504   3.093  11.242   9.106 -0.3597  0.6821 -0.0045
  849MOL0     C14505   2.987  11.282   9.031 -0.5162  0.0920 -0.0653
  849MOL0     C14506   2.901  11.383   9.069 -0.1023 -0.7972  0.1383
  849MOL0     C14507   2.802  11.422   8.983 -0.2234  0.0449  0.9683
  849MOL0     C14508   2.782  11.356   8.860  0.7702  0.4028  0.4364
  849MOL0     C14509   2.666  11.393   8.773  0.1634  0.2926 -0.2447
  849MOL0     O14510   2.623  11.302   8.688 -0.6600  0.7060  1.1111
  849MOL0     C14511   2.523  11.335   8.599  1.0819  0.3989  0.4515
  849MOL0     C14512   2.415  11.247   8.600  0.2949  0.1852  0.8215
  849MOL0     C14513   2.308  11.251   8.506 -0.8256  1.2729 -0.1495
  849MOL0     C14514   2.303  11.350   8.409  0.5480  0.6453  0.8771
  849MOL0     O14515   2.184  11.375   8.335 -0.4302  0.0362 -0.4820
  849MOL0     C14516   2.187  11.462   8.216 -0.1678  0.1058  0.1174
  849MOL0     C14517   2.140  11.602   8.265  0.0149 -0.1882 -0.2257
  849MOL0     C14518   2.086  11.680   8.145  0.4083  0.2851  0.1108
  849MOL0     C14519   1.941  11.646   8.129 -0.5899 -0.3042  1.1254
  849MOL0     C14520   1.867  11.726   8.012  0.3513 -0.4243  0.6319
  849MOL0     C14521   1.731  11.665   7.968 -0.5751  0.4705 -0.6111
  849MOL0     C14522   1.761  11.542   7.894  0.4946  0.3254  0.5021
  849MOL0     C14523   1.626  11.467   7.880  0.0107 -0.1780  0.5756
  849MOL0    Cl14524   1.523  11.556   7.762  0.1724  0.0855 -0.1949
  849MOL0     C14525   2.415  11.437   8.403  0.3394 -0.2358  0.5756
  849MOL0     C14526   2.521  11.436   8.499  0.0461  0.7873  0.6736
  849MOL0     O14527   2.619  11.500   8.786  0.5563 -0.4530 -1.1643
  849MOL0     C14528   2.870  11.257   8.824 -0.2565 -0.6309 -0.6351
  849MOL0     C14529   2.979  11.224   8.906  0.4328  0.3190  0.3189
  849MOL0     N14530   2.719  11.049   9.539 -0.9425  0.1099  0.5460
  849MOL0     N14531   2.590  11.064   9.538 -0.3234  0.1004 -0.2140
  849MOL0     C14532   1.619  10.489   9.087  0.5058  0.1022 -0.3154
  849MOL0     C14533   1.520  10.443   9.178 -0.8214  0.2206  0.7509
  849MOL0     C14534   1.119  10.220   9.274 -0.3012 -0.1012 -0.5685
  849MOL0     C14535   1.019  10.327   9.281 -0.3447  0.9023  0.1522
  849MOL0     C14536   0.898  10.308   9.349  0.2508 -0.8191  0.1463
  849MOL0     C14537   0.864  10.178   9.404 -0.3806 -0.4078  0.2188
  849MOL0     O14538   0.756  10.160   9.485 -0.7490 -0.9095 -0.0835
  849MOL0     C14539   0.648  10.244   9.439 -0.6040  0.6845 -0.1830
  849MOL0     C14540   0.517  10.208   9.511 -0.3718 -0.7013 -0.3331
  849MOL0     C14541   0.493  10.056   9.502 -0.7823 -0.5436  0.2711
  849MOL0     C14542   0.366  10.030   9.583 -0.3634 -0.3209 -0.4943
  849MOL0     C14543   0.388  10.056   9.727  0.2877  0.2783 -0.5830
  849MOL0     C14544   0.414  10.101   9.840 -0.1276  0.2561 -0.7085
  849MOL0     C14545   0.954  10.082   9.399 -0.5048  0.4495  0.5252
  849MOL0     C14546   1.081  10.093   9.336  0.4063  0.2495  0.2510
  849MOL0     C14547   1.171   9.969   9.345 -0.5793  0.4834  0.4617
  849MOL0     H14548   1.248  10.480   8.967 -0.6843 -2.4196  3.1578
  849MOL0     H14549   1.440  10.550   8.811  1.5907 -2.0085 -0.8564
  849MOL0     H14550   1.864  10.519   8.941  1.1720  0.6966 -1.4695
  849MOL0     H14551   1.865  10.647   8.818  2.4407  2.9005  1.3653
  849MOL0     H14552   1.741  10.716   9.087  0.3176  2.3977  1.2613
  849MOL0     H14553   1.830  10.821   8.980  1.8712  0.6142  3.4119
  849MOL0     H14554   2.032  10.660   9.035 -0.3765 -0.9603 -0.1881
  849MOL0     H14555   1.915  10.616   9.175  0.6276  0.7763  2.1139
  849MOL0     H14556   2.050  10.869   9.091  5.4563 -0.1231  0.6182
  849MOL0     H14557   1.946  10.875   9.231  1.0663  2.4892 -0.9084
  849MOL0     H14558   2.111  10.714   9.339 -2.7261  0.3240 -0.0516
  849MOL0     H14559   2.208  10.713   9.188 -0.9392 -2.3854  1.6308
  849MOL0     H14560   2.232  10.954   9.193  3.9093 -3.0715 -0.1673
  849MOL0     H14561   2.139  10.976   9.348  0.5985  0.5584  0.8041
  849MOL0     H14562   2.402  10.814   9.301  2.0923  0.0978  0.0265
  849MOL0     H14563   2.323  10.820   9.447  3.0941 -1.7082 -1.1579
  849MOL0     H14564   2.402  11.062   9.281 -1.5067 -0.0160  0.2800
  849MOL0     H14565   2.348  11.077   9.452 -0.8319 -2.0539  0.6478
  849MOL0     H14566   2.626  10.831   9.319 -1.5931  1.9185 -2.5619
  849MOL0     H14567   2.912  10.822   9.469 -2.4689  0.3978  0.9752
  849MOL0     H14568   2.874  10.841   9.302 -4.0227 -0.5349  0.8709
  849MOL0     H14569   2.989  11.078   9.463  0.7450  0.5223  0.1379
  849MOL0     H14570   3.089  10.950   9.395  0.6084 -0.6469 -0.4367
  849MOL0     H14571   2.886  11.127   9.246 -0.4270 -0.9344  0.2444
  849MOL0     H14572   3.034  11.028   9.177 -1.6796  1.0758 -2.0233
  849MOL0     H14573   3.184  11.189   9.287 -0.4381 -2.4904 -1.9976
  849MOL0     H14574   3.042  11.295   9.304 -2.0468 -1.4473  1.0778
  849MOL0     H14575   2.922  11.443   9.157  3.5784 -0.3092 -0.9114
  849MOL0     H14576   2.750  11.515   8.998  2.2271  1.8094 -0.6713
  849MOL0     H14577   2.413  11.163   8.669  1.5571 -0.3768  0.2037
  849MOL0     H14578   2.221  11.188   8.522 -1.3609  1.3750 -2.3471
  849MOL0     H14579   2.283  11.463   8.163  1.4940 -1.5540  2.8087
  849MOL0     H14580   2.117  11.425   8.141  0.5284  1.1252 -1.0600
  849MOL0     H14581   2.065  11.589   8.345 -1.3796 -1.7756 -1.6923
  849MOL0     H14582   2.220  11.666   8.301  0.8393 -1.4269  0.2099
  849MOL0     H14583   2.082  11.788   8.159 -2.6679  0.4998 -1.5449
  849MOL0     H14584   2.137  11.649   8.053 -1.1424 -1.4295 -0.2290
  849MOL0     H14585   1.897  11.655   8.229 -1.9744  2.3222  0.3680
  849MOL0     H14586   1.931  11.540   8.104 -1.5116 -0.0332  0.2872
  849MOL0     H14587   1.924  11.733   7.919 -1.4329 -1.0096 -0.5750
  849MOL0     H14588   1.835  11.825   8.047 -3.9754 -1.9622  1.5905
  849MOL0     H14589   1.670  11.639   8.055  0.6569  0.7639  0.3667
  849MOL0     H14590   1.677  11.745   7.917  1.3958  3.2353  1.3000
  849MOL0     H14591   1.823  11.463   7.938 -0.5984 -0.2268  1.0917
  849MOL0     H14592   1.793  11.560   7.791 -1.4381  2.9753  0.2556
  849MOL0     H14593   1.642  11.373   7.826 -0.9078 -0.0261  0.0187
  849MOL0     H14594   1.575  11.458   7.977 -2.1198  2.8367 -0.1284
  849MOL0     H14595   2.427  11.519   8.333  2.4216  1.3051  2.5826
  849MOL0     H14596   2.600  11.509   8.487  0.7120 -0.0585 -0.1727
  849MOL0     H14597   2.872  11.212   8.725  3.8364 -0.1480 -0.9618
  849MOL0     H14598   3.043  11.140   8.884 -2.6467 -2.3437  0.7617
  849MOL0     H14599   1.718  10.495   9.129  0.0739  1.4179  0.5877
  849MOL0     H14600   1.559  10.415   9.276  2.5578  0.6149 -0.3443
  849MOL0     H14601   1.041  10.420   9.229 -1.4825 -0.6660 -3.4278
  849MOL0     H14602   0.843  10.401   9.358  1.7268  0.0685  0.3235
  849MOL0     H14603   0.625  10.232   9.333 -0.7981  1.8575 -0.2972
  849MOL0     H14604   0.669  10.348   9.467  1.2292 -0.1931  1.9590
  849MOL0     H14605   0.446  10.275   9.460  1.7306  1.9945  0.0413
  849MOL0     H14606   0.529  10.250   9.611 -1.0789  0.9213 -0.8990
  849MOL0     H14607   0.570   9.991   9.546 -0.4210 -1.3336 -1.4508
  849MOL0     H14608   0.482  10.029   9.397 -2.1263  1.0265 -0.0203
  849MOL0     H14609   0.287  10.099   9.552 -0.6310 -1.7588 -3.3253
  849MOL0     H14610   0.326   9.929   9.572 -0.2950 -0.4587  0.4617
  849MOL0     H14611   0.424  10.138   9.940  1.3615 -1.3980 -0.1914
  849MOL0     H14612   0.924   9.987   9.444  0.3155 -0.3568 -0.5610
  849MOL0     H14613   1.189   9.932   9.244  1.0330 -3.0983  1.8989
  849MOL0     H14614   1.269   9.988   9.390  1.3927  1.1132 -3.7109
  849MOL0     H14615   1.119   9.897   9.408  0.2736  1.1303  1.9768
  850MOL0     O14616   6.967  10.415   0.617 -0.1555  0.5859  0.0963
  850MOL0     C14617   6.996  10.409   0.496 -0.4253  1.0237  0.9573
  850MOL0     O14618   6.930  10.462   0.399  0.1266  0.1107 -0.0489
  850MOL0     C14619   6.846  10.568   0.421 -0.0738 -0.4522  0.5894
  850MOL0     C14620   6.863  10.673   0.328 -0.4383 -0.3589 -0.5214
  850MOL0     C14621   6.767  10.777   0.314 -0.3560  0.5262 -0.2117
  850MOL0     C14622   6.657  10.787   0.400 -0.0203  0.7586  0.3016
  850MOL0     O14623   6.558  10.875   0.360  0.3163  0.1225  0.2378
  850MOL0     C14624   6.469  10.931   0.447  0.5775  0.1684  0.0680
  850MOL0     C14625   6.328  10.908   0.401 -0.1045  0.5844 -0.2858
  850MOL0     C14626   6.280  10.998   0.277 -0.2382  1.3918  0.0311
  850MOL0     C14627   6.294  11.147   0.312  0.0607 -0.4552 -0.4017
  850MOL0     C14628   6.258  11.232   0.184 -0.6961 -0.1360 -0.1517
  850MOL0     C14629   6.291  11.383   0.209 -0.3403  0.2662  0.8594
  850MOL0     C14630   6.283  11.447   0.064 -0.5044 -0.2340 -0.2639
  850MOL0     C14631   6.407  11.423  -0.029 -0.4333  0.6113 -0.3385
  850MOL0     N14632   6.355  11.425  -0.168 -0.0255 -0.1728  0.9707
  850MOL0     C14633   6.394  11.517  -0.260  0.7921 -0.0326 -0.2176
  850MOL0     C14634   6.346  11.477  -0.372  0.7269 -0.6994 -0.2386
  850MOL0     C14635   6.360  11.560  -0.497  0.1748 -0.6445  0.1760
  850MOL0     C14636   6.228  11.580  -0.554 -0.5335  1.1172  0.2688
  850MOL0     C14637   6.249  11.668  -0.673  0.0767 -0.0133  0.8488
  850MOL0     C14638   6.132  11.666  -0.774  0.0691  0.2806 -0.1159
  850MOL0     O14639   6.018  11.716  -0.709  0.9327  0.0664 -0.3498
  850MOL0     C14640   5.939  11.774  -0.806  0.4771  1.0617  0.3285
  850MOL0     C14641   5.865  11.694  -0.892 -0.0655 -0.3950  0.3758
  850MOL0     C14642   5.777  11.751  -0.985 -0.2033 -1.7748 -0.5589
  850MOL0     C14643   5.767  11.889  -1.010 -0.4179  0.8194 -0.2672
  850MOL0     C14644   5.686  11.935  -1.123 -1.1369  0.6409 -0.2788
  850MOL0     O14645   5.614  11.850  -1.199 -0.0699 -0.6879 -0.3751
  850MOL0     C14646   5.531  11.893  -1.296  0.3409 -0.0411 -0.4744
  850MOL0     C14647   5.427  11.977  -1.260  0.5139 -0.5504  0.0191
  850MOL0     C14648   5.336  12.034  -1.347  0.6466  0.2968  0.3056
  850MOL0     C14649   5.343  12.010  -1.487 -0.1045 -1.6032  0.2557
  850MOL0     O14650   5.250  12.056  -1.582 -0.1838 -0.5339 -0.4356
  850MOL0     C14651   5.238  12.203  -1.572  0.2886  0.1104  0.5230
  850MOL0     C14652   5.216  12.278  -1.703 -0.1650 -0.7029  0.8205
  850MOL0     C14653   5.076  12.244  -1.757  0.2277 -0.9835 -1.1540
  850MOL0     C14654   5.054  12.281  -1.898 -0.3220 -1.0797 -0.0915
  850MOL0     C14655   5.074  12.444  -1.911 -0.6059  0.1300 -1.2581
  850MOL0     C14656   5.167  12.466  -2.030  1.4274 -0.2437 -0.1377
  850MOL0     C14657   5.208  12.617  -2.044  0.0223 -0.1025 -0.1300
  850MOL0     C14658   5.324  12.658  -1.954  0.1071 -0.5910  0.1469
  850MOL0    Cl14659   5.368  12.831  -1.995 -0.3111 -0.3699 -0.3967
  850MOL0     C14660   5.433  11.919  -1.522 -0.2458  0.4332 -0.1600
  850MOL0     C14661   5.532  11.864  -1.435  0.3275  0.1596  0.1409
  850MOL0     O14662   5.686  12.056  -1.127 -0.1415  0.2493  0.0583
  850MOL0     C14663   5.838  11.962  -0.918  0.7229  0.0689  1.3776
  850MOL0     C14664   5.920  11.907  -0.820 -0.5843 -0.0124 -0.0947
  850MOL0     N14665   6.282  11.345  -0.359 -0.0528 -1.0392 -0.2497
  850MOL0     N14666   6.280  11.324  -0.233 -0.4654 -0.5055 -0.4657
  850MOL0     C14667   6.653  10.694   0.502 -0.2313  0.3948 -0.8520
  850MOL0     C14668   6.745  10.581   0.512  0.1278 -1.1465 -0.3504
  850MOL0     C14669   7.118  10.320   0.472  0.3809 -0.4869 -0.4928
  850MOL0     C14670   7.217  10.309   0.578  0.8999  0.6196 -0.3908
  850MOL0     C14671   7.323  10.221   0.561 -0.9888 -0.4193 -0.3083
  850MOL0     C14672   7.349  10.157   0.438  0.3161 -0.9261 -0.0180
  850MOL0     O14673   7.462  10.088   0.434 -0.2594  0.4733  0.6063
  850MOL0     C14674   7.541  10.090   0.311 -0.4078 -0.6091 -0.4414
  850MOL0     C14675   7.698  10.091   0.349 -0.1337  0.1597 -0.1258
  850MOL0     C14676   7.741   9.971   0.432  0.6664 -0.0708 -0.9740
  850MOL0     C14677   7.889   9.971   0.450 -0.3104 -0.7526  0.6817
  850MOL0     C14678   7.951   9.932   0.329  0.6020  0.3546 -0.3348
  850MOL0     C14679   7.981   9.910   0.210  0.0088 -0.3525 -0.3629
  850MOL0     C14680   7.263  10.187   0.327 -0.9315 -0.4506 -1.2505
  850MOL0     C14681   7.146  10.269   0.341 -0.2859 -0.0930  0.7038
  850MOL0     C14682   7.062  10.279   0.224  0.3189  0.1704  0.1298
  850MOL0     H14683   6.940  10.673   0.252 -2.4366  1.5073 -2.7245
  850MOL0     H14684   6.778  10.840   0.226 -2.0781  1.3362  0.0942
  850MOL0     H14685   6.481  10.905   0.553  0.3679 -0.6598 -0.1070
  850MOL0     H14686   6.491  11.037   0.433 -0.9636  0.3184 -1.7022
  850MOL0     H14687   6.259  10.930   0.484  0.7787  2.3182  0.0313
  850MOL0     H14688   6.308  10.802   0.382 -0.7314  0.2313  1.9853
  850MOL0     H14689   6.175  10.973   0.260  0.4990 -3.4482  1.1572
  850MOL0     H14690   6.335  10.979   0.185 -0.1749  3.5678 -0.4387
  850MOL0     H14691   6.227  11.172   0.394 -1.3548  0.7654 -1.8750
  850MOL0     H14692   6.394  11.175   0.348 -1.0180  2.0051  0.9327
  850MOL0     H14693   6.314  11.186   0.101  2.0378  1.0954  0.8682
  850MOL0     H14694   6.150  11.224   0.171 -0.9872  0.4911  1.5950
  850MOL0     H14695   6.222  11.427   0.282 -1.0059 -1.7654  1.5378
  850MOL0     H14696   6.393  11.391   0.248  0.6269 -2.1645 -0.9167
  850MOL0     H14697   6.264  11.555   0.070  0.3571 -0.1189  0.7355
  850MOL0     H14698   6.194  11.406   0.015  0.0977 -0.6333 -1.0358
  850MOL0     H14699   6.482  11.502  -0.013 -0.3274  1.1612 -3.0126
  850MOL0     H14700   6.460  11.330  -0.006  0.8150  0.9433 -1.6435
  850MOL0     H14701   6.455  11.607  -0.250  1.6451 -0.2308 -2.7362
  850MOL0     H14702   6.416  11.652  -0.478  0.2255  0.5241 -4.4074
  850MOL0     H14703   6.421  11.509  -0.572  1.6117  2.7111 -1.1722
  850MOL0     H14704   6.180  11.490  -0.593 -0.5364  2.0439 -2.0097
  850MOL0     H14705   6.158  11.624  -0.481 -0.1486  0.5217  1.0109
  850MOL0     H14706   6.341  11.649  -0.729 -0.7013  1.7193 -1.1110
  850MOL0     H14707   6.255  11.775  -0.652 -0.9973  0.5840 -1.5775
  850MOL0     H14708   6.116  11.563  -0.804  2.6955 -0.3518  0.4090
  850MOL0     H14709   6.164  11.731  -0.856 -0.7692  0.1059 -0.5923
  850MOL0     H14710   5.858  11.588  -0.872  1.2622 -0.1471  2.5711
  850MOL0     H14711   5.735  11.675  -1.050 -2.7195 -2.7983  2.0759
  850MOL0     H14712   5.426  12.005  -1.155  0.1038  1.7555 -0.5640
  850MOL0     H14713   5.264  12.101  -1.302  1.1743 -0.7604  2.9313
  850MOL0     H14714   5.160  12.223  -1.498 -0.2815  0.5808 -0.2000
  850MOL0     H14715   5.332  12.247  -1.538 -0.0945  0.6426  0.9230
  850MOL0     H14716   5.236  12.384  -1.687  1.4627 -1.1406  1.9200
  850MOL0     H14717   5.295  12.245  -1.770  0.1673  0.4273  0.6346
  850MOL0     H14718   5.072  12.135  -1.757  1.6289 -1.2105  2.9041
  850MOL0     H14719   4.990  12.274  -1.696  2.9246  2.1570  1.6162
  850MOL0     H14720   4.952  12.254  -1.929 -0.9663  1.4612 -0.4754
  850MOL0     H14721   5.124  12.228  -1.962 -0.1909  1.5378 -2.2799
  850MOL0     H14722   5.090  12.491  -1.813  1.9076 -0.3559 -1.3790
  850MOL0     H14723   4.980  12.482  -1.953 -1.3079  1.6239  1.3948
  850MOL0     H14724   5.254  12.400  -2.028  0.9397 -0.9279 -0.9090
  850MOL0     H14725   5.108  12.442  -2.119 -0.7602  0.9035  0.8955
  850MOL0     H14726   5.123  12.682  -2.022 -0.2356 -1.0865  2.0139
  850MOL0     H14727   5.238  12.651  -2.143  0.3791  0.2248  0.0893
  850MOL0     H14728   5.292  12.650  -1.850 -4.0942  4.3989 -0.3893
  850MOL0     H14729   5.406  12.586  -1.955 -0.0648 -0.8029  1.0216
  850MOL0     H14730   5.445  11.896  -1.627  0.1333  1.3197 -0.3175
  850MOL0     H14731   5.620  11.812  -1.471  2.0364  1.1530  2.6384
  850MOL0     H14732   5.830  12.070  -0.926  1.7381  0.2816  2.8037
  850MOL0     H14733   5.980  11.978  -0.764 -2.3422  1.7930 -0.3848
  850MOL0     H14734   6.565  10.688   0.565  0.7505  1.1389  0.6480
  850MOL0     H14735   6.727  10.504   0.587  3.0479  1.7383  3.7621
  850MOL0     H14736   7.223  10.367   0.670  1.9457 -0.9883  0.6079
  850MOL0     H14737   7.390  10.225   0.647 -2.8307 -0.5360  1.1961
  850MOL0     H14738   7.528  10.185   0.259 -0.0649  0.2901  1.0395
  850MOL0     H14739   7.521  10.014   0.235 -3.3368  0.9683 -1.3959
  850MOL0     H14740   7.726  10.179   0.408 -1.3264  0.6788 -0.2832
  850MOL0     H14741   7.764  10.102   0.263  0.3706  2.5854  0.4944
  850MOL0     H14742   7.712   9.886   0.369  0.0403 -1.4079  1.0144
  850MOL0     H14743   7.684   9.964   0.525 -0.1220 -2.3155 -1.5558
  850MOL0     H14744   7.915  10.067   0.494 -0.8492 -0.3461  0.1301
  850MOL0     H14745   7.922   9.891   0.517  5.0743 -0.5039 -1.2141
  850MOL0     H14746   8.013   9.900   0.108  0.3769  0.8714 -0.3871
  850MOL0     H14747   7.298  10.150   0.232 -0.6694 -0.0347 -1.3213
  850MOL0     H14748   7.052  10.381   0.187 -1.4196  0.7079  1.9278
  850MOL0     H14749   7.094  10.209   0.146  0.0946 -0.2078  0.3712
  850MOL0     H14750   6.960  10.254   0.256  0.5102  0.2472  0.8094
  851MOL0     O14751   4.320   3.187   4.715 -0.6848  0.1837 -0.0156
  851MOL0     C14752   4.423   3.119   4.708 -0.1805  0.5914 -0.7654
  851MOL0     O14753   4.554   3.166   4.717  0.1748  0.1151  0.5497
  851MOL0     C14754   4.572   3.291   4.769  0.8669 -1.2443  0.1644
  851MOL0     C14755   4.619   3.291   4.902 -0.0401 -0.4362 -0.3219
  851MOL0     C14756   4.615   3.409   4.976 -0.9610 -0.4078 -1.4491
  851MOL0     C14757   4.564   3.531   4.923 -0.1415 -0.2150 -0.0216
  851MOL0     O14758   4.533   3.639   5.002 -0.0951  0.0712  0.2242
  851MOL0     C14759   4.592   3.643   5.136 -0.0561 -0.4949 -0.2013
  851MOL0     C14760   4.572   3.795   5.170 -0.1590  0.8203 -0.6380
  851MOL0     C14761   4.596   3.842   5.318 -0.1995  0.2583 -0.1995
  851MOL0     C14762   4.737   3.866   5.370  0.1437  0.3076  0.6290
  851MOL0     C14763   4.751   3.870   5.527  0.7059  0.7092  0.5964
  851MOL0     C14764   4.899   3.850   5.570 -0.0817  1.0221  1.2578
  851MOL0     C14765   4.920   3.833   5.719 -0.6726 -0.4331 -0.0834
  851MOL0     C14766   4.911   3.953   5.813 -0.5272 -0.0310  0.1443
  851MOL0     N14767   5.035   4.029   5.819  0.5166 -0.0996 -0.3400
  851MOL0     C14768   5.056   4.158   5.770  0.7652 -0.3978 -0.2098
  851MOL0     C14769   5.179   4.191   5.817 -0.2995 -0.2645 -0.5756
  851MOL0     C14770   5.255   4.327   5.796  0.3947  0.0097 -0.1272
  851MOL0     C14771   5.169   4.451   5.839  1.1193  0.4393  0.1264
  851MOL0     C14772   5.103   4.410   5.975  1.6689 -0.9657 -0.8082
  851MOL0     C14773   5.053   4.530   6.067 -1.1717 -0.3921  0.4462
  851MOL0     O14774   5.150   4.633   6.058  0.7774  0.5293  0.4182
  851MOL0     C14775   5.228   4.659   6.175  0.4363  0.1449 -0.3354
  851MOL0     C14776   5.274   4.552   6.267  0.4344  0.1644  0.4867
  851MOL0     C14777   5.364   4.595   6.368 -0.3426  0.6619 -0.1646
  851MOL0     C14778   5.407   4.726   6.387  0.7817 -0.4769 -0.2742
  851MOL0     C14779   5.494   4.769   6.496 -0.1220  0.5739  0.0650
  851MOL0     O14780   5.440   4.740   6.617  0.3447  0.1436 -0.7885
  851MOL0     C14781   5.501   4.786   6.729 -0.3716 -0.7287  1.1068
  851MOL0     C14782   5.626   4.730   6.761 -0.7360 -0.3146  0.1439
  851MOL0     C14783   5.687   4.767   6.876 -0.3911 -1.1930 -0.3789
  851MOL0     C14784   5.645   4.877   6.954 -0.1241  0.3439 -0.2498
  851MOL0     O14785   5.727   4.926   7.048 -0.7639 -0.0933 -0.2562
  851MOL0     C14786   5.676   4.954   7.182  0.2730  0.5070 -0.0568
  851MOL0     C14787   5.677   4.823   7.275  0.2640 -0.2430  0.5544
  851MOL0     C14788   5.808   4.784   7.319 -1.1632  0.5582 -0.7321
  851MOL0     C14789   5.843   4.627   7.305 -0.4748  0.2550 -0.3664
  851MOL0     C14790   5.948   4.598   7.404 -0.0787  0.9042 -0.6852
  851MOL0     C14791   6.003   4.458   7.392  0.2001  0.2585  0.4733
  851MOL0     C14792   6.095   4.432   7.514  0.2652 -0.4930  0.1399
  851MOL0     C14793   6.186   4.313   7.501  0.5839 -0.3568 -1.1381
  851MOL0    Cl14794   6.082   4.165   7.506 -0.3080  0.1131  0.3312
  851MOL0     C14795   5.520   4.929   6.926  0.4999  0.4108 -0.1825
  851MOL0     C14796   5.446   4.883   6.814  0.2984  0.5517 -0.4911
  851MOL0     O14797   5.590   4.831   6.477 -0.4324  0.4140 -0.5370
  851MOL0     C14798   5.357   4.829   6.301  0.1062  0.3015 -0.1168
  851MOL0     C14799   5.279   4.790   6.192 -0.1367  0.2385 -0.7424
  851MOL0     N14800   5.237   4.078   5.872  0.0268  0.0231  0.2517
  851MOL0     N14801   5.149   3.985   5.872  0.3309 -0.4101 -0.3239
  851MOL0     C14802   4.519   3.527   4.789 -0.7635 -0.4426  1.3839
  851MOL0     C14803   4.532   3.413   4.703  0.2124  0.1165 -0.8103
  851MOL0     C14804   4.424   2.973   4.668  0.6549  0.2616  0.3561
  851MOL0     C14805   4.542   2.906   4.631  0.5689 -0.6644  0.8205
  851MOL0     C14806   4.542   2.769   4.580 -0.4315 -0.4588 -0.1524
  851MOL0     C14807   4.421   2.710   4.565 -0.5469  0.8036  0.2022
  851MOL0     O14808   4.429   2.582   4.506 -0.1675 -0.3433 -0.3740
  851MOL0     C14809   4.310   2.504   4.483  0.4043 -1.2041 -0.1349
  851MOL0     C14810   4.336   2.353   4.492  0.6162  0.0799 -0.1375
  851MOL0     C14811   4.387   2.282   4.363  0.2672  0.2334  0.3861
  851MOL0     C14812   4.422   2.131   4.366 -0.5439  0.0367  0.0684
  851MOL0     C14813   4.514   2.077   4.262  0.1670 -0.2497 -0.5788
  851MOL0     C14814   4.563   2.027   4.163  0.2832  0.3280  0.1415
  851MOL0     C14815   4.295   2.782   4.582 -0.5494  1.2468  1.0056
  851MOL0     C14816   4.299   2.904   4.657  0.7923  0.5204 -0.0824
  851MOL0     C14817   4.157   2.957   4.693 -0.4684 -0.9244  1.3318
  851MOL0     H14818   4.664   3.198   4.935 -0.8519 -1.3267 -1.6502
  851MOL0     H14819   4.620   3.400   5.084  0.4032  2.4197 -1.1924
  851MOL0     H14820   4.527   3.583   5.200 -3.1789  1.5188 -1.2123
  851MOL0     H14821   4.697   3.615   5.146 -0.3884 -1.4310  0.7903
  851MOL0     H14822   4.467   3.816   5.145  0.1403  2.1141 -0.8877
  851MOL0     H14823   4.639   3.842   5.098 -1.7612  0.6824 -2.3005
  851MOL0     H14824   4.526   3.780   5.376 -0.4967 -0.2471 -1.0873
  851MOL0     H14825   4.553   3.942   5.326 -0.8208  0.2553 -2.7582
  851MOL0     H14826   4.794   3.784   5.325 -1.8347 -1.2616  0.8276
  851MOL0     H14827   4.768   3.966   5.336 -0.2197 -0.2759 -1.6065
  851MOL0     H14828   4.729   3.973   5.555  1.5600  0.7323  1.2516
  851MOL0     H14829   4.690   3.793   5.575  2.9779 -0.7791  1.2725
  851MOL0     H14830   4.951   3.767   5.522 -1.4705  0.5110  0.5766
  851MOL0     H14831   4.961   3.935   5.541  0.5682  0.6782  1.6129
  851MOL0     H14832   5.024   3.800   5.721 -0.8605 -1.6443 -3.2586
  851MOL0     H14833   4.850   3.756   5.754  0.2214 -0.4457  1.7866
  851MOL0     H14834   4.827   4.020   5.791  1.5975  2.4451 -0.9361
  851MOL0     H14835   4.899   3.910   5.913  1.3099  1.5716  1.1353
  851MOL0     H14836   4.979   4.221   5.726 -1.5062 -2.6021  0.3356
  851MOL0     H14837   5.341   4.323   5.863 -1.0567 -2.2680  1.7543
  851MOL0     H14838   5.294   4.344   5.695  0.4499  0.8223  0.0297
  851MOL0     H14839   5.225   4.545   5.847 -0.1353  1.1724  0.4643
  851MOL0     H14840   5.093   4.473   5.763  0.1224 -0.3019  0.8843
  851MOL0     H14841   5.184   4.364   6.032  2.2275  0.3975 -0.4708
  851MOL0     H14842   5.023   4.338   5.957  0.4111  0.6745 -2.0989
  851MOL0     H14843   5.054   4.503   6.173  0.8046  1.3859  0.9610
  851MOL0     H14844   4.957   4.566   6.028 -0.8191 -1.3629 -1.4428
  851MOL0     H14845   5.254   4.445   6.263 -0.0166  0.1235  2.6432
  851MOL0     H14846   5.404   4.521   6.437  0.4485  1.4334  0.2175
  851MOL0     H14847   5.651   4.651   6.690 -2.5421  0.4039 -1.3998
  851MOL0     H14848   5.789   4.731   6.886  0.2713  0.9912  1.4684
  851MOL0     H14849   5.730   5.032   7.237 -1.1436 -0.5950  3.2051
  851MOL0     H14850   5.571   4.984   7.188 -0.4800 -2.0554  0.8712
  851MOL0     H14851   5.625   4.837   7.370  0.2099 -1.3523  0.7086
  851MOL0     H14852   5.618   4.746   7.225  3.6955 -2.8617  0.1660
  851MOL0     H14853   5.886   4.835   7.261 -1.2698  1.4441 -0.1201
  851MOL0     H14854   5.827   4.823   7.420  2.1920 -0.5955 -0.7869
  851MOL0     H14855   5.859   4.603   7.199 -0.3257 -0.4222 -0.1967
  851MOL0     H14856   5.751   4.573   7.327 -1.6887  1.3953 -2.3501
  851MOL0     H14857   5.914   4.610   7.507  0.9924  0.6902 -0.3062
  851MOL0     H14858   6.023   4.677   7.391  1.2061 -0.5086 -2.2530
  851MOL0     H14859   5.917   4.391   7.403 -1.3868  2.3681  1.7551
  851MOL0     H14860   6.054   4.446   7.296  0.6700 -0.4061  0.7947
  851MOL0     H14861   6.034   4.428   7.604  0.7975  0.9524  0.5962
  851MOL0     H14862   6.165   4.516   7.524  0.7782 -1.1270  2.3486
  851MOL0     H14863   6.234   4.308   7.403 -0.7362 -2.8103 -1.7513
  851MOL0     H14864   6.252   4.315   7.588 -3.1265 -0.5656  1.9025
  851MOL0     H14865   5.472   5.014   6.974  0.9457  1.6443 -1.8429
  851MOL0     H14866   5.349   4.925   6.790  1.2312  1.0508 -3.9354
  851MOL0     H14867   5.377   4.933   6.325 -2.7547  1.1556 -0.9648
  851MOL0     H14868   5.251   4.863   6.117 -5.2404 -1.3243 -0.7306
  851MOL0     H14869   4.467   3.609   4.740 -1.2816 -0.6384  1.6047
  851MOL0     H14870   4.506   3.421   4.598 -2.5476 -1.0162 -0.2830
  851MOL0     H14871   4.643   2.946   4.634 -0.2288  1.9893 -2.1193
  851MOL0     H14872   4.635   2.720   4.553 -0.2481 -0.9011  1.2125
  851MOL0     H14873   4.260   2.538   4.392  1.7890  0.8649 -0.1935
  851MOL0     H14874   4.236   2.523   4.562 -1.5909 -2.8164 -1.4927
  851MOL0     H14875   4.248   2.301   4.530  0.8161 -0.3624 -0.2658
  851MOL0     H14876   4.412   2.347   4.570  0.7159 -1.9700 -0.3285
  851MOL0     H14877   4.479   2.338   4.343 -0.4126  0.8242 -1.2825
  851MOL0     H14878   4.322   2.297   4.277 -2.9905  0.5427  2.7127
  851MOL0     H14879   4.444   2.102   4.469 -2.7634  1.6960  1.1178
  851MOL0     H14880   4.332   2.069   4.354  0.0667 -0.3983 -3.0373
  851MOL0     H14881   4.578   1.968   4.075 -3.9605  1.1393 -1.3942
  851MOL0     H14882   4.201   2.739   4.550  0.5970 -0.1030 -0.8089
  851MOL0     H14883   4.156   3.022   4.781 -1.9120  1.9136 -0.6067
  851MOL0     H14884   4.125   3.020   4.609  1.7120 -1.5088 -0.0178
  851MOL0     H14885   4.081   2.880   4.711 -2.1032  0.4997  0.8419
  852MOL0     O14886  11.249   4.999   0.355  0.1228  1.2497  0.0592
  852MOL0     C14887  11.354   5.059   0.322  0.7506  0.5142 -0.3363
  852MOL0     O14888  11.419   5.031   0.200  0.0213 -0.2580  0.0423
  852MOL0     C14889  11.368   4.929   0.128 -0.8387  0.1195 -0.8545
  852MOL0     C14890  11.307   4.956   0.013 -0.1740  0.3642 -0.0033
  852MOL0     C14891  11.268   4.860  -0.078  0.0894  0.1316  0.6477
  852MOL0     C14892  11.296   4.723  -0.051  0.0878  0.1343 -0.1397
  852MOL0     O14893  11.248   4.627  -0.130 -0.1719 -0.1954 -0.5877
  852MOL0     C14894  11.332   4.528  -0.181 -0.4535 -0.6577  0.0966
  852MOL0     C14895  11.292   4.497  -0.323 -0.0625  0.4050 -0.1107
  852MOL0     C14896  11.180   4.396  -0.323 -0.2362 -0.1990 -0.3389
  852MOL0     C14897  11.165   4.334  -0.461  0.4684  0.1605 -0.6531
  852MOL0     C14898  11.064   4.215  -0.454  0.5787 -0.0857  0.6583
  852MOL0     C14899  11.035   4.158  -0.591 -0.3595 -0.1914 -0.9135
  852MOL0     C14900  10.925   4.047  -0.592  0.3989 -0.0760  1.2275
  852MOL0     C14901  10.986   3.910  -0.530  0.2467 -0.5935  0.2508
  852MOL0     N14902  10.900   3.788  -0.538  0.6798  0.9328  0.4598
  852MOL0     C14903  10.860   3.706  -0.434 -0.0742 -0.1833  0.9766
  852MOL0     C14904  10.793   3.602  -0.490 -0.0454  0.6319  0.0351
  852MOL0     C14905  10.736   3.474  -0.424  0.1397 -0.0356 -0.2104
  852MOL0     C14906  10.584   3.488  -0.391 -0.6380 -0.0593  0.8862
  852MOL0     C14907  10.529   3.365  -0.326  0.2511  0.3609  0.2155
  852MOL0     C14908  10.575   3.230  -0.376 -0.0945 -0.5098  0.1815
  852MOL0     O14909  10.706   3.191  -0.327 -0.9167 -0.0315 -0.4312
  852MOL0     C14910  10.720   3.055  -0.316  0.0862  0.5826  0.1124
  852MOL0     C14911  10.656   2.986  -0.214 -0.5382  0.1517 -0.6580
  852MOL0     C14912  10.645   2.845  -0.215  0.1455 -1.2062  1.0250
  852MOL0     C14913  10.712   2.772  -0.314 -0.6761 -1.5286 -0.4196
  852MOL0     C14914  10.732   2.626  -0.306 -0.1184 -0.9043 -0.5079
  852MOL0     O14915  10.824   2.578  -0.389 -0.0025  0.0851  0.2596
  852MOL0     C14916  10.922   2.482  -0.357 -0.1891 -0.5638  0.4002
  852MOL0     C14917  10.996   2.422  -0.458 -0.1602 -0.8714 -1.6798
  852MOL0     C14918  11.077   2.306  -0.449 -0.3421 -1.0051 -0.6468
  852MOL0     C14919  11.087   2.250  -0.318 -1.3949 -0.4416 -0.4717
  852MOL0     O14920  11.182   2.148  -0.307  0.2368 -0.6733 -0.2341
  852MOL0     C14921  11.256   2.149  -0.177 -0.4120 -0.1541  0.0937
  852MOL0     C14922  11.379   2.053  -0.180  0.4115 -1.0133 -0.0855
  852MOL0     C14923  11.475   2.081  -0.060  0.2811 -0.3727 -0.7195
  852MOL0     C14924  11.567   1.961  -0.014  0.6038 -0.1145  0.9054
  852MOL0     C14925  11.673   1.998   0.104  0.6647 -0.0394  0.6999
  852MOL0     C14926  11.777   2.095   0.046 -0.0244  0.4948  0.7491
  852MOL0     C14927  11.913   2.076   0.124 -0.0646  0.0088  0.7221
  852MOL0     C14928  11.996   2.200   0.127 -0.7660 -0.7692 -0.7624
  852MOL0    Cl14929  12.162   2.185   0.212 -0.1320  0.0647 -0.4820
  852MOL0     C14930  11.022   2.311  -0.214  0.1431 -0.2160 -1.0937
  852MOL0     C14931  10.941   2.428  -0.233 -0.6296  0.7054 -0.6304
  852MOL0     O14932  10.676   2.560  -0.221  0.2618 -0.3196 -0.4528
  852MOL0     C14933  10.768   2.844  -0.426  1.0829  0.1775  0.1062
  852MOL0     C14934  10.764   2.985  -0.424 -0.4676  0.0362  0.8877
  852MOL0     N14935  10.790   3.628  -0.626  0.2788  0.2774  0.1937
  852MOL0     N14936  10.858   3.730  -0.650  0.7089 -0.8259 -0.2787
  852MOL0     C14937  11.350   4.693   0.079 -0.3443 -0.7350 -0.7148
  852MOL0     C14938  11.388   4.794   0.170 -0.3712 -0.3313 -0.3810
  852MOL0     C14939  11.410   5.144   0.426 -0.1663  0.1061  0.6023
  852MOL0     C14940  11.317   5.192   0.525  0.3807  0.0989  0.0629
  852MOL0     C14941  11.365   5.274   0.631 -0.4916 -0.1697 -0.4049
  852MOL0     C14942  11.499   5.310   0.636 -0.0669 -0.2444  0.0856
  852MOL0     O14943  11.531   5.380   0.751 -0.0536 -0.2365  1.1291
  852MOL0     C14944  11.666   5.419   0.789  0.1527  1.3217 -0.2515
  852MOL0     C14945  11.662   5.479   0.935 -0.7898  0.2353  0.0014
  852MOL0     C14946  11.778   5.418   1.023 -0.8277 -0.3375 -0.3837
  852MOL0     C14947  11.797   5.512   1.137  0.1610  0.2811 -0.0331
  852MOL0     C14948  11.836   5.450   1.271 -0.2181  1.1674 -0.1983
  852MOL0     C14949  11.880   5.416   1.381 -0.3472  0.4852  1.1439
  852MOL0     C14950  11.588   5.274   0.533 -0.4896  0.0325  1.1380
  852MOL0     C14951  11.546   5.187   0.432  0.2299  0.1790 -0.2875
  852MOL0     C14952  11.651   5.134   0.337 -0.1023  0.8369  0.4519
  852MOL0     H14953  11.279   5.056  -0.018  2.5067  0.8491 -1.1203
  852MOL0     H14954  11.212   4.884  -0.167  1.5855 -1.3563 -0.7553
  852MOL0     H14955  11.429   4.578  -0.176 -0.5663 -0.5152  1.0344
  852MOL0     H14956  11.337   4.439  -0.118 -0.1560  0.8762  2.3638
  852MOL0     H14957  11.376   4.453  -0.377  0.5479  1.8863 -0.4354
  852MOL0     H14958  11.263   4.592  -0.369 -2.5345 -0.2844 -0.1217
  852MOL0     H14959  11.096   4.457  -0.287  0.7607  1.1870 -0.2508
  852MOL0     H14960  11.192   4.312  -0.254 -0.1184  0.9107  1.0525
  852MOL0     H14961  11.144   4.418  -0.528  0.0647 -0.0535 -0.7954
  852MOL0     H14962  11.262   4.291  -0.490 -0.1648 -2.3683  0.6731
  852MOL0     H14963  11.105   4.144  -0.382  1.0973 -1.8393 -1.2703
  852MOL0     H14964  10.973   4.263  -0.416 -0.4825 -1.3927 -0.1231
  852MOL0     H14965  11.008   4.247  -0.649 -0.0134  1.1777  0.9474
  852MOL0     H14966  11.125   4.110  -0.632 -0.7465 -1.2868 -0.5231
  852MOL0     H14967  10.879   4.034  -0.690 -2.0113  0.0648  2.2632
  852MOL0     H14968  10.835   4.084  -0.543  0.1042  0.5349  0.2416
  852MOL0     H14969  11.089   3.889  -0.557  0.5891  0.9758  0.2516
  852MOL0     H14970  10.980   3.933  -0.423 -2.2587 -2.1708  0.5439
  852MOL0     H14971  10.889   3.719  -0.330 -2.9942 -0.9552  1.9676
  852MOL0     H14972  10.759   3.396  -0.497  3.8859 -2.2650  2.9403
  852MOL0     H14973  10.783   3.434  -0.334 -2.2360 -1.7687  0.3463
  852MOL0     H14974  10.577   3.575  -0.325  0.8277  1.0443 -0.3573
  852MOL0     H14975  10.526   3.497  -0.483 -0.5680  1.5047  0.9734
  852MOL0     H14976  10.421   3.380  -0.337 -0.0414 -1.4287  0.2269
  852MOL0     H14977  10.552   3.340  -0.221  0.4051 -1.8216 -0.2800
  852MOL0     H14978  10.574   3.218  -0.485  2.5496 -2.0664  0.2262
  852MOL0     H14979  10.494   3.168  -0.337  1.3214 -2.0903  0.7405
  852MOL0     H14980  10.606   3.047  -0.140  0.7374  0.4281 -0.0088
  852MOL0     H14981  10.603   2.801  -0.125  1.0066 -0.1409  1.9762
  852MOL0     H14982  11.004   2.466  -0.557 -1.3452  0.1592 -1.3467
  852MOL0     H14983  11.126   2.265  -0.536  1.9385 -0.1563  0.1732
  852MOL0     H14984  11.302   2.244  -0.150  2.1867 -0.8249 -1.6216
  852MOL0     H14985  11.191   2.125  -0.092 -0.2983 -2.0201 -0.3029
  852MOL0     H14986  11.348   1.950  -0.162  0.3356 -0.4129  4.3264
  852MOL0     H14987  11.423   2.072  -0.279 -1.0621  1.4535 -0.3604
  852MOL0     H14988  11.548   2.158  -0.085  0.9150 -1.1576 -1.3554
  852MOL0     H14989  11.408   2.106   0.023  0.8525 -1.5058  0.0965
  852MOL0     H14990  11.625   1.932  -0.102 -1.1444  1.4414 -0.8722
  852MOL0     H14991  11.508   1.871   0.010  0.6292  0.1494  1.9918
  852MOL0     H14992  11.728   1.912   0.141  0.5986 -0.0733  0.7195
  852MOL0     H14993  11.617   2.043   0.187  2.0780 -1.1996  2.3429
  852MOL0     H14994  11.797   2.069  -0.058  1.6336 -0.1931  1.1988
  852MOL0     H14995  11.752   2.201   0.050  0.5584  0.8029 -1.8097
  852MOL0     H14996  11.956   1.989   0.074 -0.1689  0.2607  0.1813
  852MOL0     H14997  11.900   2.046   0.228 -2.7980  2.0648  1.0848
  852MOL0     H14998  12.011   2.231   0.023 -1.2575 -0.7725 -0.8393
  852MOL0     H14999  11.940   2.282   0.173  0.0646  0.3759 -1.7259
  852MOL0     H15000  11.033   2.268  -0.115  1.2476 -3.7530 -2.5773
  852MOL0     H15001  10.893   2.482  -0.152 -2.3420 -0.2188 -0.9768
  852MOL0     H15002  10.805   2.786  -0.510  1.3565 -1.2032  1.1604
  852MOL0     H15003  10.799   3.049  -0.504  0.6757  1.8316  2.7217
  852MOL0     H15004  11.345   4.593   0.120 -0.1514 -1.2998 -2.0141
  852MOL0     H15005  11.431   4.766   0.266  0.5726 -1.0450 -0.9855
  852MOL0     H15006  11.212   5.165   0.527  0.1278  0.9952  2.1029
  852MOL0     H15007  11.299   5.319   0.704 -1.6977 -3.7895  0.9415
  852MOL0     H15008  11.693   5.498   0.717  1.5770  1.5510  0.4966
  852MOL0     H15009  11.732   5.332   0.788 -1.9040 -0.4616 -4.0380
  852MOL0     H15010  11.570   5.472   0.994  0.1603  0.0851  1.5249
  852MOL0     H15011  11.675   5.588   0.940 -2.2336  0.3791  1.7930
  852MOL0     H15012  11.875   5.402   0.974  0.3004  0.6059  1.4313
  852MOL0     H15013  11.734   5.325   1.060 -2.2015 -0.4861 -2.2438
  852MOL0     H15014  11.872   5.583   1.101  2.0289 -0.4006  2.3162
  852MOL0     H15015  11.710   5.579   1.139 -0.8774 -0.5593 -4.5900
  852MOL0     H15016  11.903   5.383   1.480 -0.4936  0.3278  1.1260
  852MOL0     H15017  11.691   5.306   0.549 -0.8454  1.3676  0.8921
  852MOL0     H15018  11.635   5.027   0.319 -0.3690  0.9095  0.2432
  852MOL0     H15019  11.632   5.171   0.236 -2.3655 -2.9577 -0.7470
  852MOL0     H15020  11.749   5.160   0.376  1.2114 -2.7380 -0.0514
  853MOL0     O15021   0.633   8.919  10.981 -0.6014 -0.6410  0.8623
  853MOL0     C15022   0.565   8.985  10.907  0.8062 -0.9360  0.0155
  853MOL0     O15023   0.614   9.071  10.816  0.0555  0.6991 -0.8444
  853MOL0     C15024   0.743   9.114  10.822  0.0866 -0.1437 -1.0077
  853MOL0     C15025   0.840   9.069  10.732  0.0519  0.3801  0.1028
  853MOL0     C15026   0.974   9.119  10.729  0.0251  0.6507  0.2275
  853MOL0     C15027   1.015   9.207  10.827 -0.8629 -0.0207 -0.6827
  853MOL0     O15028   1.149   9.248  10.827  0.2907 -0.1110 -0.3273
  853MOL0     C15029   1.168   9.383  10.798 -0.0562 -0.7760  0.5283
  853MOL0     C15030   1.309   9.397  10.756  0.2088  0.1092 -0.2321
  853MOL0     C15031   1.332   9.313  10.632  0.1472 -0.3508 -0.3234
  853MOL0     C15032   1.454   9.357  10.557 -0.0794 -0.7368 -0.3231
  853MOL0     C15033   1.497   9.245  10.463 -0.3701  0.2480  0.1379
  853MOL0     C15034   1.538   9.315  10.333 -0.3141 -0.7239  0.1687
  853MOL0     C15035   1.653   9.426  10.354 -0.1971  0.0643  0.2927
  853MOL0     C15036   1.724   9.480  10.224  0.1555 -0.0910  0.7325
  853MOL0     N15037   1.792   9.379  10.138 -0.4754  0.0729 -0.2279
  853MOL0     C15038   1.748   9.330  10.014  0.0816  0.0784 -0.2312
  853MOL0     C15039   1.850   9.250   9.966  0.1390 -1.1747 -0.6425
  853MOL0     C15040   1.842   9.185   9.832  0.8656 -0.5875  0.8120
  853MOL0     C15041   1.872   9.037   9.841 -0.4411  0.2403  0.1411
  853MOL0     C15042   1.866   8.960   9.703 -0.6158  0.1239 -0.2663
  853MOL0     C15043   2.003   8.974   9.630  1.2146 -0.3635 -1.3831
  853MOL0     O15044   2.001   8.891   9.517 -0.0964 -0.0774 -0.6834
  853MOL0     C15045   2.098   8.925   9.425  0.7017 -0.4362  0.0661
  853MOL0     C15046   2.165   9.052   9.413 -0.6505  0.4988  0.7118
  853MOL0     C15047   2.243   9.077   9.305  0.2932 -0.0496 -0.0334
  853MOL0     C15048   2.266   8.981   9.203  0.6955 -0.6184 -0.3476
  853MOL0     C15049   2.348   9.009   9.078 -0.5178  0.5315 -0.7997
  853MOL0     O15050   2.392   9.142   9.063  1.0662  0.1516  0.2963
  853MOL0     C15051   2.498   9.185   8.985  0.4450 -0.4253 -0.2496
  853MOL0     C15052   2.496   9.293   8.899  0.2453 -0.5324 -0.0712
  853MOL0     C15053   2.608   9.340   8.834 -0.3072 -0.6201  0.4383
  853MOL0     C15054   2.723   9.257   8.840 -0.1587  0.8497 -0.2088
  853MOL0     O15055   2.833   9.317   8.777 -0.0240  0.3758  1.0892
  853MOL0     C15056   2.951   9.235   8.763 -0.9304  0.1412 -0.1005
  853MOL0     C15057   2.958   9.155   8.628 -0.4292  0.3812 -1.7351
  853MOL0     C15058   3.088   9.072   8.620 -0.0729 -0.7806 -0.3851
  853MOL0     C15059   3.061   8.938   8.541 -0.3312  0.0066  0.4421
  853MOL0     C15060   3.185   8.863   8.513  0.1412  0.1555  0.0968
  853MOL0     C15061   3.161   8.719   8.489 -0.2622 -0.3324  0.1702
  853MOL0     C15062   3.297   8.660   8.429  0.3826  0.6298 -0.0944
  853MOL0     C15063   3.313   8.506   8.454  0.1672 -0.8218 -0.0488
  853MOL0    Cl15064   3.340   8.472   8.624 -0.3406  0.3182 -0.4442
  853MOL0     C15065   2.724   9.130   8.903  0.4176  0.2547 -0.0900
  853MOL0     C15066   2.609   9.108   8.982  0.3516 -0.1147  0.3669
  853MOL0     O15067   2.374   8.913   9.000  0.2293 -0.7565  0.1598
  853MOL0     C15068   2.205   8.858   9.216  0.1262 -0.5746 -0.3383
  853MOL0     C15069   2.114   8.831   9.324 -1.6401 -0.0802  0.4371
  853MOL0     N15070   1.943   9.234  10.076  0.7915 -0.2433  0.1964
  853MOL0     N15071   1.901   9.311  10.174 -0.4111  0.3168  0.3819
  853MOL0     C15072   0.916   9.254  10.918 -0.2850  0.8750 -0.9411
  853MOL0     C15073   0.784   9.208  10.918  0.4098 -0.3080 -0.0424
  853MOL0     C15074   0.416   8.972  10.914 -0.1474  0.7593  0.8524
  853MOL0     C15075   0.364   8.895  11.018  0.2922  0.4679  0.2896
  853MOL0     C15076   0.224   8.862  11.028 -0.3338 -0.4527  0.9303
  853MOL0     C15077   0.133   8.919  10.929  0.1273  1.5102 -0.0696
  853MOL0     O15078  -0.001   8.884  10.911  0.7893  0.7757 -0.0670
  853MOL0     C15079  -0.063   8.786  10.992  0.8861  0.6859  1.0218
  853MOL0     C15080  -0.182   8.719  10.923 -0.0751 -0.3818  0.1465
  853MOL0     C15081  -0.176   8.700  10.771  0.0308  0.3993  0.5310
  853MOL0     C15082  -0.120   8.561  10.735  0.5352  0.8056  0.2062
  853MOL0     C15083  -0.015   8.524  10.829 -0.7515 -1.0058 -0.3562
  853MOL0     C15084   0.054   8.486  10.922 -0.5165 -0.7512  0.4298
  853MOL0     C15085   0.199   8.993  10.824 -0.3207  0.5008 -0.1338
  853MOL0     C15086   0.331   9.022  10.809 -0.1340 -0.3312 -0.0592
  853MOL0     C15087   0.377   9.101  10.689  0.7289  1.1362  0.7452
  853MOL0     H15088   0.804   8.996  10.660  1.2425  0.1111 -0.2445
  853MOL0     H15089   1.044   9.090  10.651 -1.5535  1.0198 -1.3843
  853MOL0     H15090   1.106   9.422  10.717  0.0319  2.0575  1.6844
  853MOL0     H15091   1.130   9.443  10.881  0.0213  0.2427 -0.1543
  853MOL0     H15092   1.364   9.356  10.841  2.0574  2.3126 -0.2754
  853MOL0     H15093   1.341   9.501  10.741 -2.4169  0.8578 -1.1208
  853MOL0     H15094   1.246   9.311  10.565  0.9979 -1.8269 -1.4414
  853MOL0     H15095   1.333   9.210  10.668  1.6633 -0.1437  0.2795
  853MOL0     H15096   1.411   9.447  10.511 -2.3108 -1.9643 -0.7636
  853MOL0     H15097   1.539   9.384  10.621 -1.0361 -2.5299  1.8215
  853MOL0     H15098   1.591   9.196  10.490 -1.6543 -1.5127  1.6125
  853MOL0     H15099   1.421   9.169  10.442 -0.5187 -0.2425  2.2908
  853MOL0     H15100   1.575   9.246  10.257 -1.2578 -0.7292 -0.2976
  853MOL0     H15101   1.451   9.370  10.296  0.6800  2.5187  2.2122
  853MOL0     H15102   1.733   9.398  10.424 -0.1785  0.7805  0.5616
  853MOL0     H15103   1.612   9.520  10.392 -1.3990 -0.3368  0.0300
  853MOL0     H15104   1.648   9.529  10.161  2.7529 -1.3876 -3.8947
  853MOL0     H15105   1.790   9.563  10.253 -2.8099  1.6096  3.2188
  853MOL0     H15106   1.665   9.369   9.956  0.5517  3.3291  1.0950
  853MOL0     H15107   1.750   9.204   9.776  2.4577  0.4919 -1.5900
  853MOL0     H15108   1.908   9.233   9.759  1.9755  0.4776  2.4247
  853MOL0     H15109   1.966   9.013   9.892 -0.4462 -0.8370 -0.3224
  853MOL0     H15110   1.797   8.988   9.904 -0.1876  0.4363  0.5983
  853MOL0     H15111   1.789   9.012   9.646  0.0868  0.3897 -0.9904
  853MOL0     H15112   1.838   8.854   9.714  1.0815 -0.5206 -1.5917
  853MOL0     H15113   2.087   8.961   9.698  1.4805  3.5079 -0.7278
  853MOL0     H15114   1.996   9.080   9.604 -2.2471 -0.2508 -0.4634
  853MOL0     H15115   2.136   9.131   9.481 -4.5616  0.7355 -0.9757
  853MOL0     H15116   2.281   9.178   9.289  1.9813 -0.8128 -1.0987
  853MOL0     H15117   2.397   9.339   8.895 -0.7490 -2.6148 -0.8036
  853MOL0     H15118   2.600   9.435   8.781  1.0013 -0.1130  1.1137
  853MOL0     H15119   3.031   9.310   8.763 -0.1144 -0.6994 -0.8610
  853MOL0     H15120   2.968   9.181   8.857 -3.0298  0.7653  0.6715
  853MOL0     H15121   2.876   9.083   8.621 -1.8618  2.1340 -5.1794
  853MOL0     H15122   2.932   9.213   8.540  1.0475  1.0836 -1.7293
  853MOL0     H15123   3.146   9.143   8.560 -1.8378 -2.2946 -4.2498
  853MOL0     H15124   3.126   9.047   8.719  0.4282 -1.2771 -0.6993
  853MOL0     H15125   3.019   8.955   8.442 -0.2187  3.9764  0.9398
  853MOL0     H15126   2.993   8.877   8.602  0.2306 -1.5577 -0.4427
  853MOL0     H15127   3.249   8.873   8.601  0.9192 -1.2611 -0.2747
  853MOL0     H15128   3.243   8.895   8.426 -0.3194  0.0249 -0.2648
  853MOL0     H15129   3.142   8.676   8.588 -0.6870 -0.4031  0.0568
  853MOL0     H15130   3.072   8.702   8.428 -2.1574  0.2062  2.6324
  853MOL0     H15131   3.389   8.712   8.458  1.0950  1.7432 -3.8773
  853MOL0     H15132   3.300   8.675   8.321  1.3865  2.0507  0.0996
  853MOL0     H15133   3.219   8.465   8.416 -0.8021  0.6023  0.7429
  853MOL0     H15134   3.401   8.480   8.395  0.6863  0.4243  0.1486
  853MOL0     H15135   2.807   9.061   8.902  0.5754  0.3987 -2.6377
  853MOL0     H15136   2.609   9.013   9.035  1.5846 -0.4278 -0.1669
  853MOL0     H15137   2.222   8.780   9.142 -0.9815 -1.4739  0.3281
  853MOL0     H15138   2.063   8.736   9.313  0.7662 -1.5486  1.2335
  853MOL0     H15139   0.944   9.328  10.992 -2.7567  0.8656  0.1404
  853MOL0     H15140   0.703   9.242  10.980 -0.5330  1.3123 -2.0436
  853MOL0     H15141   0.436   8.840  11.078  0.5132 -1.6258 -1.7702
  853MOL0     H15142   0.197   8.802  11.114  0.7446 -0.9386  0.9477
  853MOL0     H15143  -0.105   8.842  11.076  0.1349  0.3503  0.8835
  853MOL0     H15144   0.007   8.712  11.031  1.2341  0.9025  0.8150
  853MOL0     H15145  -0.261   8.793  10.939  0.0099  0.2949 -2.1563
  853MOL0     H15146  -0.219   8.634  10.980 -4.7126 -0.6270 -2.7409
  853MOL0     H15147  -0.118   8.768  10.708  1.0874 -2.0021 -1.2826
  853MOL0     H15148  -0.279   8.707  10.736  0.3099  0.6957 -0.2702
  853MOL0     H15149  -0.199   8.486  10.728  3.5749 -2.5971 -0.5706
  853MOL0     H15150  -0.082   8.569  10.632  0.5838 -2.9303 -0.1978
  853MOL0     H15151   0.124   8.474  11.002 -0.1172  0.5730  0.2982
  853MOL0     H15152   0.136   9.020  10.740  1.0853 -0.2442 -1.4802
  853MOL0     H15153   0.297   9.127  10.619  1.2246 -3.7333 -2.1147
  853MOL0     H15154   0.417   9.195  10.728 -0.4620  2.3447 -0.8395
  853MOL0     H15155   0.457   9.057  10.629 -0.5425  1.6027 -1.3867
  854MOL0     O15156   6.357   0.499   7.755 -0.0714 -0.5247  0.4196
  854MOL0     C15157   6.412   0.604   7.785  0.7379 -0.1322 -0.8090
  854MOL0     O15158   6.350   0.723   7.808 -0.1550 -0.1499 -0.1225
  854MOL0     C15159   6.219   0.733   7.839 -0.0342 -0.4724  0.9185
  854MOL0     C15160   6.137   0.630   7.890 -0.2593  0.2183 -1.5316
  854MOL0     C15161   5.998   0.656   7.907 -0.1177  0.4419  0.0510
  854MOL0     C15162   5.942   0.780   7.871 -0.2473  0.0848  0.3666
  854MOL0     O15163   5.807   0.791   7.885 -0.3111 -0.3728  0.3318
  854MOL0     C15164   5.722   0.845   7.778 -0.0780  0.3636 -0.9858
  854MOL0     C15165   5.580   0.872   7.827  0.6252  0.0591  0.5630
  854MOL0     C15166   5.583   0.981   7.939 -0.5087 -0.0330 -0.0884
  854MOL0     C15167   5.460   1.065   7.974  0.0454 -0.1964 -0.3951
  854MOL0     C15168   5.506   1.156   8.094  1.4782  0.0999  0.1420
  854MOL0     C15169   5.442   1.291   8.075  0.5459  0.1458  0.3283
  854MOL0     C15170   5.491   1.376   8.193  0.1644 -0.1688  0.0887
  854MOL0     C15171   5.475   1.525   8.162 -0.2262  0.4872 -1.0517
  854MOL0     N15172   5.334   1.578   8.166  0.5197  0.2532 -0.4949
  854MOL0     C15173   5.230   1.541   8.090 -0.5830  1.0671  0.0231
  854MOL0     C15174   5.128   1.602   8.155  0.1879 -0.4610 -0.1418
  854MOL0     C15175   4.984   1.595   8.122  0.2024  0.5771 -0.0842
  854MOL0     C15176   4.917   1.735   8.092  0.5445 -0.4439 -0.2246
  854MOL0     C15177   4.760   1.745   8.094  0.2363  0.2564  0.4974
  854MOL0     C15178   4.691   1.746   7.961  0.2709 -1.1157 -0.1222
  854MOL0     O15179   4.732   1.629   7.890 -0.4474  0.9977 -0.5233
  854MOL0     C15180   4.655   1.517   7.880 -0.3548  0.2021  0.3253
  854MOL0     C15181   4.686   1.423   7.781  0.0201  0.0986  0.0513
  854MOL0     C15182   4.609   1.308   7.768 -0.1758 -0.5717 -0.2368
  854MOL0     C15183   4.491   1.290   7.840  0.4534 -0.4946 -0.0786
  854MOL0     C15184   4.409   1.170   7.821  0.5455 -0.3014 -0.9474
  854MOL0     O15185   4.424   1.095   7.712 -0.6717 -0.3903 -0.1091
  854MOL0     C15186   4.357   0.979   7.686 -0.4870 -0.2042  0.1910
  854MOL0     C15187   4.316   0.953   7.555  0.9165 -0.3948  0.8382
  854MOL0     C15188   4.267   0.829   7.516  0.9762 -0.8279 -0.0274
  854MOL0     C15189   4.234   0.725   7.612 -0.1787 -0.0307  0.6175
  854MOL0     O15190   4.182   0.601   7.567  0.5303  0.2605 -0.3040
  854MOL0     C15191   4.112   0.524   7.662  0.2683  0.0065  0.3687
  854MOL0     C15192   4.064   0.400   7.594  0.0353 -1.1147  0.7211
  854MOL0     C15193   4.047   0.286   7.687  0.3014  0.8497 -0.1536
  854MOL0     C15194   3.977   0.322   7.822 -1.3491  0.8185  0.0584
  854MOL0     C15195   3.842   0.372   7.798 -0.4110  0.0204 -1.0232
  854MOL0     C15196   3.757   0.362   7.926  0.0528 -0.4938 -0.3466
  854MOL0     C15197   3.623   0.435   7.925  0.0247 -0.3837 -0.1793
  854MOL0     C15198   3.553   0.423   8.063 -0.4859  0.3486  0.5867
  854MOL0    Cl15199   3.631   0.515   8.198  0.5096  0.2103  0.2260
  854MOL0     C15200   4.272   0.757   7.739  0.3543 -0.7981  0.3389
  854MOL0     C15201   4.349   0.871   7.768  0.7773  0.5614 -0.2417
  854MOL0     O15202   4.327   1.142   7.908 -0.2057 -0.4628  0.0971
  854MOL0     C15203   4.458   1.382   7.938  0.5968 -0.2633 -0.0315
  854MOL0     C15204   4.537   1.501   7.953  1.1265 -0.0636 -0.2091
  854MOL0     N15205   5.175   1.668   8.269  0.0718 -0.7260  1.1233
  854MOL0     N15206   5.302   1.653   8.267 -0.2821  0.5427 -0.2571
  854MOL0     C15207   6.021   0.874   7.811  0.6991  0.1128  0.8116
  854MOL0     C15208   6.160   0.855   7.811 -1.4251 -0.2532  0.8959
  854MOL0     C15209   6.565   0.626   7.788 -0.3394 -0.4240 -0.0452
  854MOL0     C15210   6.621   0.751   7.753  0.1786  0.0283 -0.5728
  854MOL0     C15211   6.757   0.769   7.776 -0.2508  0.0072 -0.0172
  854MOL0     C15212   6.849   0.668   7.806  0.2554 -0.0323 -0.5294
  854MOL0     O15213   6.986   0.670   7.810  0.1818  0.5517  0.1521
  854MOL0     C15214   7.043   0.773   7.889 -0.1699  0.1790  0.3128
  854MOL0     C15215   7.187   0.735   7.916  0.6008  1.2968  0.1574
  854MOL0     C15216   7.224   0.613   8.009  1.0734 -0.6255  0.7824
  854MOL0     C15217   7.188   0.645   8.145 -0.3048  0.8945 -0.3019
  854MOL0     C15218   7.227   0.544   8.235  0.3376  0.9048  0.3636
  854MOL0     C15219   7.259   0.456   8.316 -0.3807 -0.1408  0.7207
  854MOL0     C15220   6.788   0.546   7.838 -0.2256  0.1740 -0.2559
  854MOL0     C15221   6.651   0.522   7.833 -0.2809 -0.5880 -0.6189
  854MOL0     C15222   6.592   0.400   7.895 -0.3313  0.6419  0.3320
  854MOL0     H15223   6.194   0.539   7.909  2.3191  1.9280 -0.5392
  854MOL0     H15224   5.930   0.580   7.944 -2.4120  1.2118 -2.2839
  854MOL0     H15225   5.766   0.941   7.752 -1.0936  0.7105 -1.4659
  854MOL0     H15226   5.728   0.777   7.693  1.4348  0.1205 -0.7134
  854MOL0     H15227   5.532   0.779   7.861 -0.6739 -0.8224 -3.1586
  854MOL0     H15228   5.529   0.917   7.741  0.3166 -0.8005  0.2774
  854MOL0     H15229   5.657   1.060   7.922  0.3589 -1.0810 -1.3301
  854MOL0     H15230   5.617   0.930   8.030  2.4695  0.2454 -0.9480
  854MOL0     H15231   5.443   1.131   7.888 -0.8371 -0.2152 -0.2508
  854MOL0     H15232   5.381   0.992   7.995  1.3692 -1.0534  2.0258
  854MOL0     H15233   5.475   1.125   8.194 -0.1167 -1.9168 -0.9173
  854MOL0     H15234   5.616   1.157   8.100  1.5262  0.4676 -0.6923
  854MOL0     H15235   5.484   1.335   7.984 -3.3328 -0.6849 -2.0907
  854MOL0     H15236   5.333   1.290   8.070  0.5902  0.7965 -2.8044
  854MOL0     H15237   5.597   1.367   8.220 -0.4447 -3.4573  1.9760
  854MOL0     H15238   5.424   1.346   8.274 -0.2547  0.1530 -0.1342
  854MOL0     H15239   5.533   1.577   8.239 -0.4992 -2.0001  0.9673
  854MOL0     H15240   5.517   1.543   8.062  3.5112  1.9326  0.5911
  854MOL0     H15241   5.229   1.471   8.007  1.0195  0.6649  0.3132
  854MOL0     H15242   4.955   1.536   8.034  0.3292  2.1694 -1.2385
  854MOL0     H15243   4.932   1.545   8.204  0.5824  0.0697 -0.1484
  854MOL0     H15244   4.954   1.816   8.155 -0.6164  0.6826 -0.9405
  854MOL0     H15245   4.949   1.770   7.993  0.4918  0.8832  0.2181
  854MOL0     H15246   4.722   1.826   8.157 -2.0701 -1.1433  1.0760
  854MOL0     H15247   4.717   1.665   8.156 -1.9960  1.1830  0.2579
  854MOL0     H15248   4.725   1.835   7.907  2.7527 -0.8325  1.7280
  854MOL0     H15249   4.582   1.748   7.971  0.4214 -0.7865  1.8717
  854MOL0     H15250   4.766   1.454   7.715 -0.0025 -0.5506 -0.2895
  854MOL0     H15251   4.623   1.228   7.696 -2.0645  0.4098 -1.7917
  854MOL0     H15252   4.314   1.041   7.491  0.3900  0.3754  1.8808
  854MOL0     H15253   4.236   0.822   7.412 -1.0799  1.3519  0.3475
  854MOL0     H15254   4.179   0.490   7.742 -1.3496 -0.9567  1.3887
  854MOL0     H15255   4.042   0.584   7.722 -0.4563 -1.8467  1.4764
  854MOL0     H15256   3.971   0.419   7.539  0.8668 -1.9132 -1.0609
  854MOL0     H15257   4.137   0.372   7.517  1.2245  3.4760 -0.1256
  854MOL0     H15258   3.994   0.202   7.640 -0.8294  1.4202  0.0750
  854MOL0     H15259   4.148   0.256   7.716 -0.5019 -2.2575 -0.2103
  854MOL0     H15260   4.029   0.395   7.885  1.9615 -2.2089  1.1867
  854MOL0     H15261   3.983   0.226   7.874  1.2594  0.7083 -0.3112
  854MOL0     H15262   3.788   0.318   7.720 -2.6056  2.6839 -1.4774
  854MOL0     H15263   3.852   0.475   7.761  2.4767  0.3990  0.4902
  854MOL0     H15264   3.722   0.261   7.949 -2.0993  1.0200  4.1881
  854MOL0     H15265   3.804   0.398   8.018 -0.3890  0.5700 -0.5195
  854MOL0     H15266   3.546   0.410   7.851  0.0792  1.2613 -0.8312
  854MOL0     H15267   3.637   0.542   7.905 -2.0354  0.2182  1.2528
  854MOL0     H15268   3.450   0.456   8.049  0.4122  3.1555 -0.0634
  854MOL0     H15269   3.546   0.321   8.101  0.5922 -1.4577 -3.5869
  854MOL0     H15270   4.252   0.687   7.819 -0.9621  0.0856  0.8216
  854MOL0     H15271   4.385   0.872   7.871 -0.5935 -2.0564  0.3687
  854MOL0     H15272   4.365   1.362   7.990 -0.2304 -0.2902 -1.4599
  854MOL0     H15273   4.502   1.575   8.025 -0.6566  2.5674 -3.4772
  854MOL0     H15274   5.989   0.972   7.777  1.1778  0.7464  2.1429
  854MOL0     H15275   6.234   0.927   7.778  0.4070 -1.0681  3.0072
  854MOL0     H15276   6.553   0.830   7.723  1.6072  1.4939 -0.1116
  854MOL0     H15277   6.796   0.870   7.764 -0.6052 -0.0002 -1.3981
  854MOL0     H15278   6.997   0.785   7.987 -1.6807 -0.1189 -0.3414
  854MOL0     H15279   7.043   0.869   7.837  1.1259  1.3555  2.3495
  854MOL0     H15280   7.235   0.821   7.965  2.8284  1.5500 -2.2377
  854MOL0     H15281   7.241   0.741   7.821 -2.1033  0.3465 -1.5578
  854MOL0     H15282   7.333   0.602   8.003  1.0478 -0.1506 -1.3704
  854MOL0     H15283   7.178   0.523   7.968  2.0165  0.4390 -3.0612
  854MOL0     H15284   7.237   0.740   8.169  0.2579  0.5334  0.0272
  854MOL0     H15285   7.082   0.668   8.156 -0.1666  0.7729  1.7718
  854MOL0     H15286   7.263   0.366   8.376 -1.1832 -1.4483 -1.1031
  854MOL0     H15287   6.858   0.476   7.882  2.7352  3.1830  0.1864
  854MOL0     H15288   6.508   0.429   7.958 -0.7219  1.0459 -0.3601
  854MOL0     H15289   6.558   0.329   7.819  0.4551 -1.4450  1.8702
  854MOL0     H15290   6.662   0.345   7.958  0.0136 -1.4758 -1.7481
  855MOL0     O15291   0.644   8.670   6.311 -0.6632  1.5008 -0.4212
  855MOL0     C15292   0.734   8.720   6.250 -0.6946  0.0738 -0.5906
  855MOL0     O15293   0.862   8.687   6.274  0.9652 -0.0900 -0.0867
  855MOL0     C15294   0.892   8.568   6.336  0.0473  0.3426 -0.7240
  855MOL0     C15295   0.829   8.441   6.303  0.1196 -0.4647 -0.5944
  855MOL0     C15296   0.873   8.321   6.361  0.1449  0.2723  0.5257
  855MOL0     C15297   0.977   8.330   6.448  0.5435 -0.6430  0.4854
  855MOL0     O15298   1.020   8.211   6.505  0.2628  0.5711  0.4894
  855MOL0     C15299   1.157   8.173   6.472 -0.3863  0.7739  0.1080
  855MOL0     C15300   1.176   8.028   6.516 -0.6266  0.4012  0.8905
  855MOL0     C15301   1.090   7.928   6.441 -0.0302 -0.4999 -0.8841
  855MOL0     C15302   1.145   7.786   6.449 -0.6253 -0.5306  0.3755
  855MOL0     C15303   1.082   7.693   6.342 -0.5947 -0.0852  0.3403
  855MOL0     C15304   1.088   7.552   6.395 -0.4288 -0.0004 -0.0566
  855MOL0     C15305   1.030   7.459   6.289  1.0236 -0.2011  0.7057
  855MOL0     C15306   1.111   7.329   6.279 -0.4580  0.7832  0.7063
  855MOL0     N15307   1.076   7.231   6.370 -0.1162 -1.0261  0.3436
  855MOL0     C15308   0.971   7.146   6.336 -0.4449 -0.3310 -0.0027
  855MOL0     C15309   0.975   7.051   6.435 -0.2299 -0.4627  0.0774
  855MOL0     C15310   0.886   6.938   6.454  0.1851  1.1785 -0.6109
  855MOL0     C15311   0.791   6.959   6.578  0.2250  0.2507  0.2099
  855MOL0     C15312   0.684   6.841   6.572  0.3630 -0.6429 -0.4641
  855MOL0     C15313   0.612   6.853   6.707  0.2564  0.2484  0.2735
  855MOL0     O15314   0.527   6.964   6.706 -0.3990 -0.7515  0.4649
  855MOL0     C15315   0.396   6.959   6.657  0.6976 -0.4971 -0.8255
  855MOL0     C15316   0.318   7.074   6.692  0.9258 -0.4345 -0.6183
  855MOL0     C15317   0.181   7.074   6.686 -0.4865  0.9387  0.4023
  855MOL0     C15318   0.110   6.973   6.614 -0.8871  0.0413  0.3355
  855MOL0     C15319  -0.027   6.982   6.563  0.4284 -0.4825 -0.2545
  855MOL0     O15320  -0.092   7.100   6.600 -0.3689 -0.2089 -0.6167
  855MOL0     C15321  -0.210   7.130   6.541 -0.1448  0.3784  0.0953
  855MOL0     C15322  -0.234   7.141   6.404 -0.2307  0.7532 -0.0593
  855MOL0     C15323  -0.351   7.186   6.354  0.3150 -0.5318  0.2140
  855MOL0     C15324  -0.460   7.210   6.439  0.1690  1.1893 -0.2124
  855MOL0     O15325  -0.577   7.250   6.378  0.4260  0.2610  0.8515
  855MOL0     C15326  -0.650   7.358   6.455  0.3281  0.0259  0.6324
  855MOL0     C15327  -0.686   7.480   6.361  0.3777  0.1788 -0.4312
  855MOL0     C15328  -0.559   7.559   6.337 -0.4824 -0.5185  0.0893
  855MOL0     C15329  -0.576   7.654   6.218 -0.0466 -0.6084  0.9420
  855MOL0     C15330  -0.435   7.721   6.180 -0.1203 -0.2056  0.2945
  855MOL0     C15331  -0.468   7.871   6.166  0.5263 -0.1239  0.5908
  855MOL0     C15332  -0.346   7.958   6.169 -0.6209 -0.0021 -0.1797
  855MOL0     C15333  -0.288   7.994   6.034 -0.2605 -0.4423 -0.1865
  855MOL0    Cl15334  -0.386   8.121   5.945 -0.1786 -0.2325 -0.2629
  855MOL0     C15335  -0.441   7.191   6.585  0.6874 -0.9021 -0.1788
  855MOL0     C15336  -0.309   7.174   6.621  1.0280  0.5891 -0.2338
  855MOL0     O15337  -0.086   6.879   6.523  0.2690  0.0827 -0.3779
  855MOL0     C15338   0.187   6.859   6.589  0.2988 -0.2681 -0.1898
  855MOL0     C15339   0.326   6.848   6.616 -0.4176  0.1802  1.5616
  855MOL0     N15340   1.079   7.088   6.528  0.6045  0.3735 -0.3068
  855MOL0     N15341   1.139   7.190   6.486  0.3377 -0.1335 -0.2827
  855MOL0     C15342   1.037   8.455   6.474 -0.0496  0.6909  0.3717
  855MOL0     C15343   0.990   8.571   6.420 -0.1426 -0.2708  0.2904
  855MOL0     C15344   0.705   8.822   6.151 -0.3773 -0.0954  0.4743
  855MOL0     C15345   0.810   8.899   6.102  0.3596  0.5647  0.2246
  855MOL0     C15346   0.785   9.004   6.017  0.4633 -0.0404 -0.7202
  855MOL0     C15347   0.662   9.050   5.968 -0.0434  1.0355 -1.1893
  855MOL0     O15348   0.653   9.145   5.877 -0.0986  1.1808 -0.0460
  855MOL0     C15349   0.652   9.282   5.927  0.4059  0.1481  0.8251
  855MOL0     C15350   0.573   9.381   5.864  0.6602  0.2704 -0.5269
  855MOL0     C15351   0.428   9.338   5.870 -0.5775  0.8282 -0.0407
  855MOL0     C15352   0.326   9.451   5.870  0.0742 -1.0213 -1.4844
  855MOL0     C15353   0.191   9.400   5.903  0.7499  0.5610 -0.0923
  855MOL0     C15354   0.076   9.367   5.928  0.0169  0.4759 -0.5239
  855MOL0     C15355   0.551   8.981   6.025 -0.5633 -0.4012 -0.9017
  855MOL0     C15356   0.570   8.869   6.115  0.3755  0.6834 -0.1088
  855MOL0     C15357   0.446   8.799   6.161 -0.3219  0.1645 -0.4896
  855MOL0     H15358   0.746   8.434   6.233 -0.3816 -2.8819  0.1660
  855MOL0     H15359   0.825   8.225   6.349  2.3889 -0.7931 -0.4436
  855MOL0     H15360   1.179   8.187   6.366 -1.5027  0.2648 -0.2110
  855MOL0     H15361   1.235   8.232   6.521  1.8097 -0.2435 -2.0019
  855MOL0     H15362   1.155   8.021   6.623 -4.5295 -0.3623  0.2340
  855MOL0     H15363   1.282   8.010   6.495  0.0825  2.2992  2.5284
  855MOL0     H15364   1.085   7.951   6.334  0.4465 -1.7205 -1.1823
  855MOL0     H15365   0.991   7.930   6.488  1.2772  0.4587  2.0409
  855MOL0     H15366   1.254   7.781   6.440 -0.4234  0.9666  1.6285
  855MOL0     H15367   1.124   7.749   6.550 -1.7283  0.1074  0.3945
  855MOL0     H15368   0.976   7.714   6.329 -1.1127 -1.2451  2.3122
  855MOL0     H15369   1.135   7.712   6.248  0.0038 -0.5548  0.5726
  855MOL0     H15370   1.188   7.517   6.421 -0.2653 -0.7910 -1.6517
  855MOL0     H15371   1.022   7.543   6.482 -0.2548 -3.0258 -0.1416
  855MOL0     H15372   1.043   7.501   6.189 -0.6334 -1.9072 -0.3075
  855MOL0     H15373   0.923   7.439   6.302 -0.1557  4.7227  0.5820
  855MOL0     H15374   1.100   7.283   6.180 -0.4940 -1.6441  1.7773
  855MOL0     H15375   1.216   7.351   6.298 -0.6815  2.1942  0.4360
  855MOL0     H15376   0.905   7.155   6.250  1.2149  2.1920 -1.1234
  855MOL0     H15377   0.830   6.914   6.363 -0.4147 -1.1017  0.2885
  855MOL0     H15378   0.940   6.845   6.474 -1.7566 -0.2394 -1.5770
  855MOL0     H15379   0.841   6.961   6.675  2.0529 -1.9483 -0.6086
  855MOL0     H15380   0.753   7.061   6.565  2.1914  1.1176  0.8943
  855MOL0     H15381   0.726   6.741   6.559 -1.3255 -1.3644 -0.5505
  855MOL0     H15382   0.616   6.843   6.487 -0.1700  3.1640 -0.1574
  855MOL0     H15383   0.683   6.854   6.791  0.4758  1.5689  0.0947
  855MOL0     H15384   0.556   6.761   6.726  0.1199 -0.0048 -1.2250
  855MOL0     H15385   0.366   7.164   6.731  1.6515 -0.1541 -2.0994
  855MOL0     H15386   0.120   7.156   6.719 -0.2002  1.2309  0.2165
  855MOL0     H15387  -0.151   7.122   6.337  1.8681 -1.3660  2.8961
  855MOL0     H15388  -0.364   7.188   6.246 -0.0733 -2.4811  0.1849
  855MOL0     H15389  -0.748   7.321   6.485 -0.5778  1.5206 -0.3716
  855MOL0     H15390  -0.586   7.388   6.538  1.2999 -0.4555  0.0898
  855MOL0     H15391  -0.733   7.444   6.269  0.8358 -1.0186 -0.2178
  855MOL0     H15392  -0.761   7.543   6.410 -1.3747 -0.0445 -2.6612
  855MOL0     H15393  -0.530   7.622   6.421  0.8910 -0.9955  0.0019
  855MOL0     H15394  -0.489   7.476   6.326 -2.5227 -2.1512 -1.5371
  855MOL0     H15395  -0.654   7.727   6.241  1.4472  1.4771 -0.3012
  855MOL0     H15396  -0.625   7.608   6.131 -0.4235  1.0203  0.2613
  855MOL0     H15397  -0.378   7.682   6.095  1.3819  1.1391  0.6187
  855MOL0     H15398  -0.370   7.710   6.267  0.5126  0.2368 -0.1134
  855MOL0     H15399  -0.524   7.877   6.073  0.2118  1.2705  0.8488
  855MOL0     H15400  -0.544   7.905   6.238 -0.0525  2.1839 -1.0100
  855MOL0     H15401  -0.266   7.917   6.231  0.3833 -0.7164 -1.8583
  855MOL0     H15402  -0.372   8.054   6.213 -0.7609  0.0357 -0.3444
  855MOL0     H15403  -0.191   8.039   6.058 -0.3079 -1.6075  2.5099
  855MOL0     H15404  -0.279   7.903   5.973 -1.3816 -1.5076  1.1609
  855MOL0     H15405  -0.526   7.198   6.653  2.1198 -2.4650  1.9161
  855MOL0     H15406  -0.290   7.191   6.726  3.2099 -3.0468  0.1103
  855MOL0     H15407   0.138   6.773   6.545  2.4713 -3.3139  2.8064
  855MOL0     H15408   0.389   6.761   6.597  2.7042  2.5762 -0.1140
  855MOL0     H15409   1.128   8.454   6.533  1.0608  0.3671 -1.3071
  855MOL0     H15410   1.040   8.666   6.442 -1.6579  0.7510 -0.5124
  855MOL0     H15411   0.908   8.870   6.139 -0.4671 -2.0794  0.5865
  855MOL0     H15412   0.873   9.067   6.005  0.5494 -0.1396 -0.6146
  855MOL0     H15413   0.757   9.312   5.923  0.0866  1.3155  0.8456
  855MOL0     H15414   0.626   9.269   6.033  2.1869 -1.1963  1.1418
  855MOL0     H15415   0.609   9.403   5.764  0.9301 -3.1529 -1.3294
  855MOL0     H15416   0.586   9.468   5.929  3.9267 -1.8381  1.9427
  855MOL0     H15417   0.410   9.279   5.960  0.7924  1.3115  0.5766
  855MOL0     H15418   0.407   9.276   5.782 -1.8617  0.3270  0.5849
  855MOL0     H15419   0.352   9.514   5.956  2.7537 -2.9180 -0.7633
  855MOL0     H15420   0.328   9.504   5.775  0.9305 -0.0704 -0.9596
  855MOL0     H15421  -0.029   9.358   5.950 -0.1584  0.4992 -1.3043
  855MOL0     H15422   0.456   9.016   5.984 -0.3411 -0.7683 -1.7277
  855MOL0     H15423   0.450   8.781   6.269  1.4244  0.1770 -0.5174
  855MOL0     H15424   0.362   8.862   6.131  1.2377  1.8728 -1.4523
  855MOL0     H15425   0.430   8.700   6.117 -2.5437 -0.4282  1.4184
  856MOL0     O15426   1.853   4.221   6.335 -0.1899  0.6830 -0.4786
  856MOL0     C15427   1.954   4.283   6.302 -0.1596 -1.1933 -0.0412
  856MOL0     O15428   2.034   4.253   6.205  0.0987 -0.2044 -0.3405
  856MOL0     C15429   2.004   4.160   6.105 -0.5039  0.3177  0.5717
  856MOL0     C15430   2.113   4.108   6.034  0.2170  0.2712  0.0373
  856MOL0     C15431   2.094   4.011   5.938 -0.1288 -0.9220 -0.6799
  856MOL0     C15432   1.967   3.959   5.910 -0.3932  0.3805  0.9253
  856MOL0     O15433   1.937   3.853   5.827 -0.4806  0.1282  0.0016
  856MOL0     C15434   2.044   3.775   5.771 -0.1000 -0.7193  0.2525
  856MOL0     C15435   1.995   3.685   5.655  0.6694 -1.0004 -0.3287
  856MOL0     C15436   1.894   3.580   5.701 -0.4282 -0.5667 -0.2995
  856MOL0     C15437   1.860   3.489   5.582  0.0309  0.4417 -0.4340
  856MOL0     C15438   1.741   3.559   5.505 -0.7240  0.2918  0.3203
  856MOL0     C15439   1.700   3.471   5.391  0.1835 -0.0545  0.5549
  856MOL0     C15440   1.622   3.555   5.292  0.3602 -0.4330 -0.4825
  856MOL0     C15441   1.578   3.465   5.184 -0.4866 -0.2021  0.6504
  856MOL0     N15442   1.529   3.527   5.059 -0.1674  0.1456  0.5471
  856MOL0     C15443   1.501   3.653   5.037 -0.0368 -0.1628  0.3793
  856MOL0     C15444   1.484   3.672   4.904 -0.4647  0.1717  0.6721
  856MOL0     C15445   1.433   3.804   4.845  0.0120 -0.2168 -0.4905
  856MOL0     C15446   1.531   3.856   4.739 -0.3258  0.3029  0.0832
  856MOL0     C15447   1.476   3.805   4.597 -0.0819 -1.4658 -0.6661
  856MOL0     C15448   1.590   3.807   4.488  0.3026 -0.0462  0.9404
  856MOL0     O15449   1.646   3.933   4.466 -0.6115 -0.7643 -0.3074
  856MOL0     C15450   1.774   3.923   4.411 -0.4792 -0.3387 -0.2699
  856MOL0     C15451   1.818   3.822   4.331 -0.1703  0.5571 -0.4537
  856MOL0     C15452   1.953   3.819   4.294  0.2435 -0.3775 -0.3083
  856MOL0     C15453   2.043   3.926   4.327  0.4031  0.3983  0.8973
  856MOL0     C15454   2.176   3.925   4.268  0.0635 -0.3011 -0.0492
  856MOL0     O15455   2.210   3.845   4.164  0.6981  0.3594 -0.0993
  856MOL0     C15456   2.306   3.882   4.078 -0.6718 -0.2080  0.2761
  856MOL0     C15457   2.392   3.782   4.033  0.1995 -0.5288  0.1212
  856MOL0     C15458   2.494   3.813   3.936  0.5319  0.4185 -0.0988
  856MOL0     C15459   2.510   3.933   3.890  0.3126 -0.5564  0.3383
  856MOL0     O15460   2.603   3.947   3.794  0.9662  0.8868 -0.1563
  856MOL0     C15461   2.573   4.018   3.678 -0.4089  1.0557  0.1107
  856MOL0     C15462   2.458   3.969   3.596  1.0926 -0.8188  0.4173
  856MOL0     C15463   2.410   4.078   3.493 -0.5838  0.3904 -0.2922
  856MOL0     C15464   2.286   4.042   3.412  0.9495  0.1407 -0.3008
  856MOL0     C15465   2.194   4.150   3.353 -0.8981  0.2413 -0.5780
  856MOL0     C15466   2.075   4.088   3.278 -0.8274  1.0634 -0.1427
  856MOL0     C15467   1.971   4.198   3.228 -0.0915  0.6071 -0.5501
  856MOL0     C15468   1.827   4.146   3.219 -0.1987 -0.1020 -0.0187
  856MOL0    Cl15469   1.710   4.269   3.161 -0.5313  0.1940  0.3024
  856MOL0     C15470   2.433   4.045   3.947  0.9837 -0.2082 -0.8083
  856MOL0     C15471   2.322   4.019   4.034  0.3078  0.3227  0.8007
  856MOL0     O15472   2.249   4.007   4.323  0.4876 -0.5607  0.2205
  856MOL0     C15473   1.995   4.027   4.403 -0.9658 -0.3812  0.3167
  856MOL0     C15474   1.868   4.019   4.454  0.3558 -0.4687  0.2527
  856MOL0     N15475   1.501   3.546   4.838 -0.3845  0.6330 -0.1252
  856MOL0     N15476   1.522   3.465   4.932  0.5925 -0.0103 -0.0055
  856MOL0     C15477   1.855   4.008   5.983  0.2228  0.5713 -0.0770
  856MOL0     C15478   1.877   4.115   6.066  1.5171 -0.3741  0.6446
  856MOL0     C15479   1.987   4.409   6.385 -0.3162 -0.1406  0.0705
  856MOL0     C15480   2.119   4.464   6.371 -0.2371 -0.0477 -1.3194
  856MOL0     C15481   2.151   4.588   6.423  0.5944  0.6340 -0.2039
  856MOL0     C15482   2.057   4.671   6.461 -0.2584 -1.7365  0.8851
  856MOL0     O15483   2.106   4.798   6.487 -0.5976  0.2952  1.2374
  856MOL0     C15484   2.033   4.916   6.451 -0.4247  1.0754 -0.7008
  856MOL0     C15485   2.094   5.010   6.345 -0.7974  0.2402 -0.1230
  856MOL0     C15486   2.023   5.146   6.345  0.4151 -0.3297 -0.3066
  856MOL0     C15487   1.876   5.125   6.330 -0.6752 -0.6640 -0.0294
  856MOL0     C15488   1.792   5.120   6.454  0.0695 -0.1419 -0.0573
  856MOL0     C15489   1.721   5.107   6.551 -0.0472 -0.1419 -0.0365
  856MOL0     C15490   1.913   4.627   6.466  0.4062 -0.4538 -0.0759
  856MOL0     C15491   1.887   4.495   6.445 -0.1249  0.0674 -0.1949
  856MOL0     C15492   1.744   4.464   6.460 -0.0822  1.2555  0.7531
  856MOL0     H15493   2.211   4.149   6.059 -0.2507  0.9125  0.8728
  856MOL0     H15494   2.186   3.985   5.886  0.7078 -1.7997  1.1563
  856MOL0     H15495   2.120   3.841   5.728  0.0456  0.7796  2.6576
  856MOL0     H15496   2.091   3.716   5.850  0.2573 -1.3197 -0.3949
  856MOL0     H15497   2.084   3.641   5.609 -0.0127 -0.5918 -2.1128
  856MOL0     H15498   1.953   3.756   5.584  1.3968  1.6124  1.7137
  856MOL0     H15499   1.813   3.636   5.748 -1.4665 -1.3437 -1.1255
  856MOL0     H15500   1.943   3.515   5.775 -1.3732 -1.8280 -0.7389
  856MOL0     H15501   1.950   3.488   5.519 -0.0584  2.2067 -0.6408
  856MOL0     H15502   1.836   3.387   5.613  1.7386 -0.0102 -0.4963
  856MOL0     H15503   1.659   3.581   5.573 -0.8089  1.5585 -0.1635
  856MOL0     H15504   1.764   3.656   5.462 -1.5454  0.2727 -0.1951
  856MOL0     H15505   1.790   3.433   5.341 -0.5679 -0.7308 -0.3118
  856MOL0     H15506   1.654   3.385   5.440  3.4461 -1.3064  1.7064
  856MOL0     H15507   1.679   3.644   5.261 -1.7613  1.9886  1.9564
  856MOL0     H15508   1.553   3.616   5.351  1.2132 -0.3431  0.4665
  856MOL0     H15509   1.662   3.400   5.159 -1.8867 -1.3556 -1.3067
  856MOL0     H15510   1.504   3.402   5.234 -0.9756  0.2797  0.5348
  856MOL0     H15511   1.472   3.732   5.104  1.6253  0.3960  0.4724
  856MOL0     H15512   1.330   3.793   4.811  0.0182 -0.2383 -0.5021
  856MOL0     H15513   1.427   3.869   4.933 -0.2711 -3.2461  1.9287
  856MOL0     H15514   1.527   3.965   4.744 -1.1427  0.3051 -0.3455
  856MOL0     H15515   1.635   3.825   4.750 -0.4224 -0.6025 -1.3433
  856MOL0     H15516   1.401   3.877   4.566 -1.3309 -1.3476  2.3367
  856MOL0     H15517   1.438   3.704   4.617  0.6397 -0.9824  4.4922
  856MOL0     H15518   1.542   3.800   4.390 -1.5873  0.8446  1.7551
  856MOL0     H15519   1.663   3.727   4.505  1.4971  1.3587  2.8547
  856MOL0     H15520   1.745   3.744   4.311 -0.9783  0.4982  2.2359
  856MOL0     H15521   1.987   3.742   4.227 -1.2805  0.9982 -2.8080
  856MOL0     H15522   2.390   3.681   4.072  1.0188 -2.0905 -3.4877
  856MOL0     H15523   2.562   3.741   3.892  2.7050  1.5762  1.2258
  856MOL0     H15524   2.553   4.123   3.701 -1.1854  0.9601 -0.1052
  856MOL0     H15525   2.662   4.009   3.615  1.0999 -1.7403  2.4249
  856MOL0     H15526   2.488   3.876   3.549  2.0070 -0.0274 -0.6122
  856MOL0     H15527   2.378   3.949   3.668 -1.0637  2.9855 -0.6351
  856MOL0     H15528   2.362   4.149   3.562 -0.3713  2.1616 -1.8653
  856MOL0     H15529   2.491   4.110   3.427 -2.8263  1.6752 -2.6164
  856MOL0     H15530   2.232   3.980   3.484 -1.1390  2.6197  0.4195
  856MOL0     H15531   2.322   3.980   3.330  2.3579  0.4931  0.0238
  856MOL0     H15532   2.250   4.222   3.293  2.7634 -2.6281 -0.9636
  856MOL0     H15533   2.154   4.206   3.439  0.1733  0.1629 -0.0094
  856MOL0     H15534   2.104   4.015   3.201  1.1472 -3.2131  4.1782
  856MOL0     H15535   2.022   4.026   3.350 -2.0011  2.2253  0.0470
  856MOL0     H15536   2.013   4.238   3.135  0.1971 -0.8054 -1.0373
  856MOL0     H15537   1.982   4.286   3.293 -1.6102 -0.1081  0.7419
  856MOL0     H15538   1.829   4.060   3.151 -2.0827  1.1084 -1.7230
  856MOL0     H15539   1.792   4.110   3.316 -1.2068 -3.5850 -1.5019
  856MOL0     H15540   2.452   4.145   3.911 -0.6492  0.0681 -0.9727
  856MOL0     H15541   2.255   4.103   4.051 -1.4835 -0.9035  0.0637
  856MOL0     H15542   2.055   4.109   4.440 -0.5446 -0.3528 -0.4222
  856MOL0     H15543   1.817   4.094   4.514  1.0828  0.4456 -0.2546
  856MOL0     H15544   1.755   3.969   5.967  0.6816 -1.4151  1.5684
  856MOL0     H15545   1.788   4.156   6.112 -0.0862 -0.3989 -2.1697
  856MOL0     H15546   2.203   4.401   6.347  0.8351 -0.2782  2.4427
  856MOL0     H15547   2.254   4.621   6.410  0.5993 -0.1105 -2.6466
  856MOL0     H15548   1.995   4.964   6.542  0.9781  0.1855  0.4004
  856MOL0     H15549   1.941   4.873   6.410 -0.8626  1.3214  0.0025
  856MOL0     H15550   2.085   4.960   6.248 -1.4354 -1.6284  0.8556
  856MOL0     H15551   2.201   5.026   6.356 -0.7532  1.2977 -1.6989
  856MOL0     H15552   2.058   5.203   6.259 -2.2039  1.3507 -0.3484
  856MOL0     H15553   2.037   5.194   6.443 -1.9069 -3.2536  1.6513
  856MOL0     H15554   1.849   5.224   6.291 -1.5903 -2.0622 -3.2329
  856MOL0     H15555   1.859   5.056   6.247 -1.1056 -0.1992 -0.3333
  856MOL0     H15556   1.656   5.081   6.633 -2.5658  0.0360 -1.8551
  856MOL0     H15557   1.846   4.706   6.498  1.7574  0.5799  0.2674
  856MOL0     H15558   1.695   4.518   6.541 -1.6075  1.4239 -0.2538
  856MOL0     H15559   1.704   4.498   6.364 -1.9511 -0.2877  0.9328
  856MOL0     H15560   1.709   4.361   6.471 -1.6820  1.7981  0.8607
  857MOL0     O15561   1.396   2.838   0.491 -0.6797 -0.3376 -0.0582
  857MOL0     C15562   1.458   2.864   0.382 -0.7319 -0.5018  0.1216
  857MOL0     O15563   1.571   2.797   0.336  0.7649 -0.1672  0.1137
  857MOL0     C15564   1.642   2.715   0.418 -0.2591 -0.5432  0.3256
  857MOL0     C15565   1.720   2.771   0.514 -0.0711  0.0473  0.2219
  857MOL0     C15566   1.812   2.694   0.580  0.5747 -0.3410 -0.2680
  857MOL0     C15567   1.826   2.555   0.551  0.0083  0.2689 -0.0093
  857MOL0     O15568   1.935   2.498   0.615  0.6816 -0.2355 -0.2047
  857MOL0     C15569   1.956   2.356   0.614 -0.0745 -0.4466 -0.1384
  857MOL0     C15570   2.084   2.313   0.694  0.0111  0.0866 -0.3138
  857MOL0     C15571   2.120   2.402   0.820 -0.2134  0.0849  0.3598
  857MOL0     C15572   2.060   2.338   0.947  0.1007 -0.3922 -0.7042
  857MOL0     C15573   1.903   2.327   0.958 -0.7729  0.0375 -0.1088
  857MOL0     C15574   1.816   2.452   0.962  0.0001  0.0155 -0.8728
  857MOL0     C15575   1.867   2.545   1.079 -0.4867  0.2392  1.2460
  857MOL0     C15576   1.789   2.668   1.120  0.0285 -0.7448  0.2061
  857MOL0     N15577   1.774   2.762   1.009  0.2274 -0.8405 -1.1053
  857MOL0     C15578   1.642   2.808   0.989 -0.2199 -0.1674 -0.8911
  857MOL0     C15579   1.660   2.893   0.893  0.6685  1.1723 -0.2517
  857MOL0     C15580   1.544   2.959   0.813 -0.2138 -0.4724 -0.8000
  857MOL0     C15581   1.549   3.107   0.824 -0.2930 -1.1809  0.4816
  857MOL0     C15582   1.533   3.152   0.972 -0.3184 -0.6724 -0.6604
  857MOL0     C15583   1.510   3.303   0.982  0.9325  0.1857 -0.6974
  857MOL0     O15584   1.381   3.346   0.935 -0.0755  0.0071 -0.3071
  857MOL0     C15585   1.357   3.481   0.939 -0.6872 -0.3331  1.0633
  857MOL0     C15586   1.443   3.569   0.998  0.4433 -0.3277  0.5085
  857MOL0     C15587   1.398   3.702   1.024 -0.9652  0.8258 -0.9156
  857MOL0     C15588   1.279   3.752   0.970 -0.3139  0.5187 -0.5863
  857MOL0     C15589   1.243   3.903   0.992 -0.0161  0.3065  0.3077
  857MOL0     O15590   1.328   3.973   1.065 -0.5990  0.0368 -0.2104
  857MOL0     C15591   1.284   4.092   1.129  0.1405  0.5686 -0.1808
  857MOL0     C15592   1.261   4.207   1.058 -1.0065  0.2935 -0.2320
  857MOL0     C15593   1.233   4.320   1.130 -0.2528 -0.3735 -0.8146
  857MOL0     C15594   1.205   4.322   1.269 -0.9310 -0.0632  0.0635
  857MOL0     O15595   1.175   4.429   1.354 -0.3517  0.2520  0.3240
  857MOL0     C15596   1.158   4.558   1.288  0.4114 -0.1167 -0.7828
  857MOL0     C15597   1.093   4.642   1.396 -0.1360 -0.6491  1.1422
  857MOL0     C15598   1.200   4.710   1.485  0.1894 -0.3361  0.2390
  857MOL0     C15599   1.142   4.780   1.608  0.9165  1.1892 -0.0507
  857MOL0     C15600   1.072   4.687   1.709 -0.8094  0.3040 -0.2264
  857MOL0     C15601   1.018   4.775   1.826 -0.8315  0.2873 -0.2265
  857MOL0     C15602   0.953   4.679   1.933  0.1400  0.0554  1.1237
  857MOL0     C15603   0.932   4.760   2.063  1.0692  0.5463 -0.3132
  857MOL0    Cl15604   0.815   4.893   2.039  0.3017  0.2641 -0.0841
  857MOL0     C15605   1.213   4.198   1.332 -0.2312  0.5614  0.5997
  857MOL0     C15606   1.245   4.082   1.262 -0.1981  0.7342  0.8648
  857MOL0     O15607   1.132   3.942   0.954 -0.4419 -0.6588  0.0190
  857MOL0     C15608   1.187   3.666   0.911 -0.3220 -0.5506 -0.0233
  857MOL0     C15609   1.224   3.532   0.898  0.1956  0.9509  0.7691
  857MOL0     N15610   1.792   2.906   0.862  0.3115  0.1073  0.1183
  857MOL0     N15611   1.866   2.826   0.931 -1.1507 -0.6743  0.9108
  857MOL0     C15612   1.740   2.493   0.462 -0.2304  0.6964  0.0560
  857MOL0     C15613   1.657   2.579   0.379  0.2034  0.3320 -0.1806
  857MOL0     C15614   1.426   2.990   0.308 -0.0768 -0.2781 -0.0913
  857MOL0     C15615   1.287   3.028   0.304 -0.1285 -1.3224 -0.5992
  857MOL0     C15616   1.258   3.144   0.228 -0.4886  0.2340  0.1086
  857MOL0     C15617   1.359   3.218   0.174 -0.6611 -0.2039 -0.2442
  857MOL0     O15618   1.315   3.317   0.089  0.0242 -0.7868 -0.8852
  857MOL0     C15619   1.408   3.397   0.016 -0.1713 -0.8402  0.0251
  857MOL0     C15620   1.451   3.331  -0.118  0.1998  0.2145 -0.2300
  857MOL0     C15621   1.342   3.313  -0.222  0.2664 -1.1699  0.8978
  857MOL0     C15622   1.396   3.282  -0.359 -0.5542  0.0394  0.0153
  857MOL0     C15623   1.301   3.225  -0.457 -0.4539 -0.2417 -0.0461
  857MOL0     C15624   1.233   3.156  -0.531 -0.8292  1.5222 -0.0753
  857MOL0     C15625   1.489   3.183   0.184 -0.4776 -0.2888  0.2753
  857MOL0     C15626   1.532   3.071   0.255  1.0391  0.1806 -0.6551
  857MOL0     C15627   1.680   3.051   0.244  0.3281 -0.0847 -0.7707
  857MOL0     H15628   1.714   2.877   0.532 -1.6791 -0.0363  0.4118
  857MOL0     H15629   1.862   2.736   0.666 -1.1250 -0.4902  0.8309
  857MOL0     H15630   1.873   2.295   0.651  0.4180 -1.7196 -1.0452
  857MOL0     H15631   1.968   2.336   0.507  1.1094  1.1826 -0.3488
  857MOL0     H15632   2.170   2.330   0.629 -0.3552  0.9133 -0.5989
  857MOL0     H15633   2.085   2.209   0.726 -1.6395  0.5358  1.4006
  857MOL0     H15634   2.089   2.505   0.803  4.2077  1.8955  1.7029
  857MOL0     H15635   2.229   2.416   0.821 -0.3622  1.5312  2.7477
  857MOL0     H15636   2.116   2.246   0.969  0.4361 -0.8391 -3.2087
  857MOL0     H15637   2.082   2.407   1.029 -1.9935 -1.7916  1.1768
  857MOL0     H15638   1.872   2.264   0.874  2.3943 -1.8776  0.0076
  857MOL0     H15639   1.888   2.270   1.050 -1.2115 -0.3277 -0.4050
  857MOL0     H15640   1.829   2.512   0.872  1.6741  0.6291 -0.2712
  857MOL0     H15641   1.715   2.429   0.998  0.0402  1.9693  0.6733
  857MOL0     H15642   1.966   2.575   1.045  1.3332 -5.6943  0.1036
  857MOL0     H15643   1.883   2.488   1.171  4.1795  2.5907  2.1640
  857MOL0     H15644   1.693   2.628   1.154  0.1503 -0.9883  0.2614
  857MOL0     H15645   1.832   2.719   1.207 -2.5408  2.8972 -0.4084
  857MOL0     H15646   1.551   2.766   1.029  0.3697 -0.5486  0.0974
  857MOL0     H15647   1.546   2.932   0.707 -0.5894 -0.8065 -0.7257
  857MOL0     H15648   1.446   2.925   0.847 -1.2090 -0.4149 -3.3631
  857MOL0     H15649   1.635   3.150   0.772  0.3859 -1.5018  1.3136
  857MOL0     H15650   1.466   3.152   0.769  0.2208  4.3197  3.5532
  857MOL0     H15651   1.622   3.115   1.022 -1.8153 -0.2756  2.5241
  857MOL0     H15652   1.448   3.103   1.021 -0.4006  0.0469 -0.0752
  857MOL0     H15653   1.599   3.353   0.942  0.6950 -0.1639 -1.6828
  857MOL0     H15654   1.525   3.328   1.088  4.0282 -2.2547 -0.3944
  857MOL0     H15655   1.537   3.537   1.042  0.4647  0.3666  0.9791
  857MOL0     H15656   1.461   3.771   1.080 -3.4632  1.6490  1.0616
  857MOL0     H15657   1.276   4.206   0.951 -0.9589 -2.5175 -0.2554
  857MOL0     H15658   1.234   4.409   1.069  3.2218 -1.1933 -2.2223
  857MOL0     H15659   1.251   4.606   1.255  1.2684 -0.4477  1.0759
  857MOL0     H15660   1.081   4.566   1.210 -0.5304  2.0968  0.2967
  857MOL0     H15661   1.040   4.722   1.343 -0.2468 -0.9665  0.7696
  857MOL0     H15662   1.009   4.598   1.451 -1.9004 -0.5412 -1.2792
  857MOL0     H15663   1.280   4.638   1.505  0.4792 -0.0393  0.1541
  857MOL0     H15664   1.248   4.790   1.428  0.8430 -0.4234  0.6557
  857MOL0     H15665   1.071   4.849   1.563 -0.8492 -0.1998  0.5092
  857MOL0     H15666   1.220   4.837   1.660  0.1041  3.2591 -1.0135
  857MOL0     H15667   1.138   4.616   1.759 -1.4530  1.4933  2.4885
  857MOL0     H15668   0.983   4.639   1.666 -3.1926  4.0299  0.1087
  857MOL0     H15669   1.095   4.833   1.877  0.1032 -0.6833 -0.4975
  857MOL0     H15670   0.945   4.845   1.785 -1.4929  0.2700  0.8552
  857MOL0     H15671   1.013   4.592   1.963 -1.4440 -1.4598  0.1247
  857MOL0     H15672   0.858   4.648   1.888 -0.5438  4.0533 -0.6001
  857MOL0     H15673   0.894   4.693   2.141 -0.4021 -0.0149 -1.4627
  857MOL0     H15674   1.021   4.806   2.106  0.7284 -0.2846  1.3631
  857MOL0     H15675   1.200   4.190   1.439  2.2485 -1.7513  0.8292
  857MOL0     H15676   1.248   3.984   1.310  0.0000  1.1131  1.6424
  857MOL0     H15677   1.091   3.691   0.869 -0.5710 -2.3678 -0.6169
  857MOL0     H15678   1.146   3.462   0.869  2.3720 -1.8604  1.2716
  857MOL0     H15679   1.737   2.388   0.432 -0.7899 -0.1168  2.6677
  857MOL0     H15680   1.607   2.531   0.296 -0.6127 -1.7628  1.4434
  857MOL0     H15681   1.205   2.970   0.345 -3.0505  2.5603 -0.3809
  857MOL0     H15682   1.157   3.178   0.210 -0.8470 -0.8148  0.0545
  857MOL0     H15683   1.486   3.439   0.080 -2.1878 -1.7928  3.3607
  857MOL0     H15684   1.353   3.490  -0.002  2.6437  0.8896 -0.2636
  857MOL0     H15685   1.489   3.229  -0.110 -2.0021 -0.7242 -1.0503
  857MOL0     H15686   1.534   3.386  -0.164  0.4940 -0.5354 -0.5984
  857MOL0     H15687   1.299   3.411  -0.241  0.7477 -1.4111 -1.9750
  857MOL0     H15688   1.257   3.249  -0.198 -0.4843 -0.3922  0.3789
  857MOL0     H15689   1.448   3.369  -0.399  1.1068 -0.7021  0.4888
  857MOL0     H15690   1.474   3.206  -0.356 -0.7086 -0.1562 -0.8324
  857MOL0     H15691   1.176   3.101  -0.603 -1.7572 -0.9364  2.3708
  857MOL0     H15692   1.564   3.242   0.133 -0.0096 -2.5282 -1.8099
  857MOL0     H15693   1.699   2.971   0.171  1.1837 -0.9032  0.3329
  857MOL0     H15694   1.738   3.138   0.212 -0.0709 -0.4151 -2.5002
  857MOL0     H15695   1.720   3.029   0.343 -1.0029  0.1001 -0.1688
  858MOL0     O15696   9.342   4.342   6.856  0.0081  0.2596  0.4190
  858MOL0     C15697   9.306   4.235   6.796 -0.8997 -0.1913 -0.2226
  858MOL0     O15698   9.313   4.112   6.845  0.0614  1.2666 -0.4223
  858MOL0     C15699   9.357   4.091   6.979 -0.1255  0.5711 -0.8393
  858MOL0     C15700   9.475   4.023   7.008 -1.0539 -0.4114  0.1273
  858MOL0     C15701   9.512   4.001   7.144 -0.0178  0.5100  0.5190
  858MOL0     C15702   9.439   4.032   7.252  0.2528  0.2364  0.4199
  858MOL0     O15703   9.495   4.002   7.372 -0.4366  0.2139  0.0341
  858MOL0     C15704   9.440   4.035   7.498 -0.2800 -0.5066  0.0857
  858MOL0     C15705   9.314   3.949   7.531  0.1760  0.8700  0.3434
  858MOL0     C15706   9.351   3.813   7.606  0.0356  0.5683 -0.3859
  858MOL0     C15707   9.233   3.750   7.679  0.2720 -0.5490  0.8064
  858MOL0     C15708   9.275   3.615   7.737 -0.8162  0.4533 -0.5988
  858MOL0     C15709   9.159   3.527   7.786  0.4194  0.8418  0.3383
  858MOL0     C15710   9.124   3.414   7.681  0.1399  0.1472  0.5141
  858MOL0     C15711   9.011   3.315   7.720  0.5413 -1.5226  0.1552
  858MOL0     N15712   9.038   3.219   7.834  0.5873 -0.4899  0.4588
  858MOL0     C15713   9.147   3.136   7.833  0.1832 -0.1616  0.6159
  858MOL0     C15714   9.149   3.076   7.957 -0.1896  0.7039  0.7729
  858MOL0     C15715   9.241   2.966   8.004 -0.6479  0.4116 -0.1868
  858MOL0     C15716   9.192   2.832   7.943 -0.1709 -0.0104  0.0481
  858MOL0     C15717   9.222   2.788   7.796  1.0563  0.3558  0.6266
  858MOL0     C15718   9.167   2.662   7.729 -0.6041  0.8143 -0.6496
  858MOL0     O15719   9.028   2.684   7.708 -0.4074  0.7369  0.3959
  858MOL0     C15720   9.000   2.744   7.587 -0.2553  0.8167  0.7910
  858MOL0     C15721   9.034   2.682   7.463  0.3323  0.4215 -0.8358
  858MOL0     C15722   9.013   2.748   7.336 -0.4850 -0.6879  0.8667
  858MOL0     C15723   8.941   2.872   7.343  0.5193 -1.0515  0.6249
  858MOL0     C15724   8.913   2.948   7.219 -0.4107  0.0882  0.0511
  858MOL0     O15725   8.838   3.054   7.225 -0.2635 -0.4449 -0.4785
  858MOL0     C15726   8.797   3.123   7.114 -0.4255  0.0495  0.0594
  858MOL0     C15727   8.723   3.071   7.006 -0.9123  0.6003  0.5306
  858MOL0     C15728   8.678   3.139   6.905 -0.5975 -0.3356  0.9776
  858MOL0     C15729   8.692   3.273   6.906  0.2006 -0.7664  0.2465
  858MOL0     O15730   8.640   3.351   6.802 -0.4866  0.0416  0.0894
  858MOL0     C15731   8.501   3.337   6.776 -0.0092 -0.2748 -0.7378
  858MOL0     C15732   8.480   3.420   6.643  0.5202  0.1506  0.1107
  858MOL0     C15733   8.343   3.392   6.569 -0.2528 -0.4796 -0.8988
  858MOL0     C15734   8.233   3.472   6.645 -0.7336 -0.4234  0.2243
  858MOL0     C15735   8.095   3.450   6.569 -0.8332  0.4552 -0.4080
  858MOL0     C15736   7.982   3.525   6.637  0.3380  0.1532  0.0399
  858MOL0     C15737   7.938   3.469   6.768 -0.8281  1.3979  0.0329
  858MOL0     C15738   7.812   3.528   6.825  0.0734  0.0606 -0.2810
  858MOL0    Cl15739   7.842   3.687   6.895 -0.2669 -0.3060  0.7707
  858MOL0     C15740   8.752   3.339   7.010  0.6220  0.1377 -0.1986
  858MOL0     C15741   8.803   3.264   7.117  0.1027 -0.4660  0.0123
  858MOL0     O15742   8.940   2.880   7.120  0.8389 -0.1921  0.4478
  858MOL0     C15743   8.902   2.930   7.467 -0.7838  0.4691  0.3008
  858MOL0     C15744   8.922   2.861   7.582  0.6591  0.9058  0.0202
  858MOL0     N15745   9.054   3.129   8.030  0.4115 -0.7188 -0.7994
  858MOL0     N15746   8.999   3.228   7.963 -0.7504 -0.0110 -0.2487
  858MOL0     C15747   9.313   4.092   7.224  0.6850  0.0560  0.8968
  858MOL0     C15748   9.277   4.125   7.094  0.6164 -0.3303  0.0088
  858MOL0     C15749   9.217   4.262   6.672 -1.8654 -0.0911 -0.1815
  858MOL0     C15750   9.100   4.190   6.669  0.6311  0.4236  0.0712
  858MOL0     C15751   9.008   4.207   6.566 -0.2491  0.2032  0.2596
  858MOL0     C15752   9.021   4.309   6.475  0.6604  0.0385  0.7294
  858MOL0     O15753   8.917   4.322   6.385 -0.0021 -0.5244 -0.3100
  858MOL0     C15754   8.900   4.457   6.327  0.2376 -0.1501 -0.6018
  858MOL0     C15755   8.965   4.468   6.187  0.1713  0.0686 -1.0238
  858MOL0     C15756   8.920   4.367   6.083  0.3566  0.1360 -0.5506
  858MOL0     C15757   8.775   4.373   6.032 -0.5237  0.7190  0.2820
  858MOL0     C15758   8.666   4.343   6.127 -0.7282 -0.2903  0.2041
  858MOL0     C15759   8.572   4.312   6.198 -0.3411 -0.7500 -0.4255
  858MOL0     C15760   9.141   4.388   6.474  0.4802  0.2943 -0.6488
  858MOL0     C15761   9.235   4.357   6.571 -0.5168 -0.1600  0.6100
  858MOL0     C15762   9.370   4.437   6.560 -0.5169  0.7205  0.4538
  858MOL0     H15763   9.548   4.006   6.930  0.1453 -0.1323  1.1467
  858MOL0     H15764   9.604   3.948   7.169 -0.6061 -1.9226 -1.9066
  858MOL0     H15765   9.516   4.046   7.575 -1.5094  0.0407  1.2688
  858MOL0     H15766   9.400   4.136   7.489 -1.8166 -0.9513  1.3917
  858MOL0     H15767   9.283   3.927   7.428  2.5537  1.4289 -0.5529
  858MOL0     H15768   9.226   3.998   7.574  0.1383  2.3212 -1.2855
  858MOL0     H15769   9.435   3.839   7.671  0.2655 -1.6359  0.2556
  858MOL0     H15770   9.397   3.742   7.537  2.2428  0.6049  0.9715
  858MOL0     H15771   9.216   3.817   7.764  1.4270 -0.0102  0.6354
  858MOL0     H15772   9.151   3.747   7.607  1.4114  2.6237 -0.8321
  858MOL0     H15773   9.349   3.572   7.669 -0.4170  4.8887 -3.3693
  858MOL0     H15774   9.337   3.633   7.825  0.7033 -0.6069 -1.3948
  858MOL0     H15775   9.197   3.488   7.881  1.2753  2.3246  0.6377
  858MOL0     H15776   9.071   3.587   7.809 -0.7496 -0.3287 -0.8876
  858MOL0     H15777   9.209   3.347   7.665  0.6643  0.3052  2.3985
  858MOL0     H15778   9.101   3.467   7.588 -1.7323  0.3384  1.0348
  858MOL0     H15779   8.921   3.375   7.737 -0.8478 -3.5959  0.5830
  858MOL0     H15780   8.990   3.255   7.630 -0.5827  0.5600 -1.0536
  858MOL0     H15781   9.208   3.137   7.743 -3.2631  1.7760 -1.9994
  858MOL0     H15782   9.340   2.991   7.965 -0.9627  0.8446 -0.7301
  858MOL0     H15783   9.230   2.952   8.112  1.9414  1.7523  0.3289
  858MOL0     H15784   9.240   2.755   8.004 -1.3835 -0.0709  0.9613
  858MOL0     H15785   9.085   2.827   7.963  0.2451 -0.3725  2.5826
  858MOL0     H15786   9.329   2.771   7.808  1.5418  2.3371 -0.4580
  858MOL0     H15787   9.196   2.867   7.725  0.8704 -0.1205  0.1538
  858MOL0     H15788   9.187   2.571   7.787 -2.3988  1.0095  0.3750
  858MOL0     H15789   9.217   2.653   7.632  1.3888  3.1045  0.0789
  858MOL0     H15790   9.090   2.590   7.474 -1.0296 -0.3780 -0.5086
  858MOL0     H15791   9.041   2.702   7.241 -0.0636 -1.2645  1.2616
  858MOL0     H15792   8.724   2.963   6.997  3.7392  0.3013  2.0318
  858MOL0     H15793   8.628   3.087   6.824 -0.0422 -0.2341  0.5675
  858MOL0     H15794   8.464   3.235   6.785  1.3070 -0.6279  1.3484
  858MOL0     H15795   8.456   3.393   6.859 -0.5921  1.6764 -2.2872
  858MOL0     H15796   8.502   3.526   6.658  1.3685  0.2502 -1.5768
  858MOL0     H15797   8.550   3.387   6.566  0.6222 -0.4677  0.4634
  858MOL0     H15798   8.347   3.415   6.462 -0.5008  1.8309 -0.4640
  858MOL0     H15799   8.323   3.285   6.578 -2.0992 -0.1667 -0.8500
  858MOL0     H15800   8.254   3.579   6.634 -2.1193 -0.1951 -0.4495
  858MOL0     H15801   8.224   3.450   6.751 -2.7361  0.4934  0.2987
  858MOL0     H15802   8.064   3.345   6.568  0.1410  0.1297  0.7677
  858MOL0     H15803   8.113   3.472   6.463  2.3836  0.5766  0.0589
  858MOL0     H15804   8.010   3.631   6.633  0.0514  0.2252 -0.0686
  858MOL0     H15805   7.902   3.511   6.564  0.0214 -3.2411  0.8824
  858MOL0     H15806   8.023   3.476   6.836 -0.2332 -0.9049 -0.3997
  858MOL0     H15807   7.917   3.363   6.750 -2.5074  1.3084  2.1132
  858MOL0     H15808   7.735   3.544   6.749 -1.6446  1.3842  1.6235
  858MOL0     H15809   7.776   3.456   6.900  1.4542 -0.0282  0.3304
  858MOL0     H15810   8.763   3.447   7.009 -4.3656  0.8683  0.1144
  858MOL0     H15811   8.861   3.311   7.195  1.6919 -2.3566  0.0593
  858MOL0     H15812   8.847   3.024   7.467 -1.1467  0.3690  3.4189
  858MOL0     H15813   8.880   2.897   7.676 -1.0930 -2.2581  0.5700
  858MOL0     H15814   9.234   4.112   7.297 -1.6432  1.0805 -1.7253
  858MOL0     H15815   9.182   4.173   7.073  1.3404  1.0113 -0.3081
  858MOL0     H15816   9.089   4.125   6.754  1.6187  0.6118  0.3563
  858MOL0     H15817   8.922   4.141   6.567 -2.0303  2.3823  1.6962
  858MOL0     H15818   8.936   4.533   6.397 -3.5218  2.3515 -1.1494
  858MOL0     H15819   8.795   4.483   6.311  0.4313  1.9902  1.1970
  858MOL0     H15820   9.072   4.462   6.206  0.6681  4.4884 -1.3969
  858MOL0     H15821   8.949   4.569   6.149  0.8266 -0.4974 -2.8911
  858MOL0     H15822   8.930   4.267   6.125 -0.9292  0.3902  0.4232
  858MOL0     H15823   8.997   4.370   6.005  1.4064 -0.8977  0.4075
  858MOL0     H15824   8.753   4.473   5.994 -0.2935  0.8133  0.3981
  858MOL0     H15825   8.768   4.300   5.951 -2.8647  1.6360 -0.4490
  858MOL0     H15826   8.497   4.284   6.269 -2.8579 -0.4221 -2.7857
  858MOL0     H15827   9.156   4.479   6.416 -1.0341  2.9039  2.7466
  858MOL0     H15828   9.388   4.472   6.662 -2.2258  0.0524  1.0163
  858MOL0     H15829   9.455   4.377   6.525  0.0448  2.3407 -1.1166
  858MOL0     H15830   9.370   4.525   6.494 -1.3753  1.3180  1.2356
  859MOL0     O15831   7.149   7.577   0.366 -0.0591  0.0073 -0.0575
  859MOL0     C15832   7.062   7.571   0.459  0.4592  0.8754  0.2624
  859MOL0     O15833   7.095   7.561   0.587  0.0631  0.2425 -0.4324
  859MOL0     C15834   7.225   7.588   0.628  0.7116  0.0614  0.4780
  859MOL0     C15835   7.269   7.519   0.738  0.9863 -1.1544  0.5147
  859MOL0     C15836   7.396   7.548   0.792 -0.9148 -0.0853  1.0289
  859MOL0     C15837   7.487   7.638   0.726  0.1991  0.0186  0.0853
  859MOL0     O15838   7.616   7.660   0.753  0.5664 -0.0965 -0.0033
  859MOL0     C15839   7.638   7.741   0.872 -0.7921 -0.2419  0.4068
  859MOL0     C15840   7.781   7.801   0.849 -0.7018  0.5316 -0.6615
  859MOL0     C15841   7.837   7.883   0.955 -0.3795  0.3073 -0.7061
  859MOL0     C15842   7.975   7.940   0.931 -0.0682 -0.3335  0.1851
  859MOL0     C15843   8.009   8.066   1.025 -0.5804  0.2682 -0.2694
  859MOL0     C15844   8.041   8.014   1.165 -0.2227  0.5843  0.0183
  859MOL0     C15845   8.093   8.128   1.251 -0.4060  0.2363 -0.0856
  859MOL0     C15846   7.985   8.236   1.292 -0.5506 -1.1697 -0.6083
  859MOL0     N15847   8.025   8.299   1.421 -0.4181  0.6739 -0.8141
  859MOL0     C15848   8.153   8.348   1.428  0.1681 -1.3958 -0.4497
  859MOL0     C15849   8.152   8.434   1.530  0.2723  0.4719 -0.5942
  859MOL0     C15850   8.280   8.507   1.573 -0.1929  0.3013  0.1948
  859MOL0     C15851   8.334   8.416   1.685  0.1889  0.0001 -0.7258
  859MOL0     C15852   8.393   8.280   1.651  1.0340  1.0742  0.3775
  859MOL0     C15853   8.530   8.278   1.584  0.6362 -0.0644 -0.6059
  859MOL0     O15854   8.530   8.319   1.443  0.4609  0.0199  0.4220
  859MOL0     C15855   8.484   8.226   1.358 -0.5203  0.5846 -0.1568
  859MOL0     C15856   8.491   8.265   1.227  0.5988 -0.6191  0.1207
  859MOL0     C15857   8.440   8.189   1.121  0.3724 -0.4878  0.5859
  859MOL0     C15858   8.408   8.051   1.148  0.6564  0.3766  0.0728
  859MOL0     C15859   8.359   7.961   1.041 -0.9867 -0.6610  0.3439
  859MOL0     O15860   8.340   8.028   0.927 -0.7022  0.2086  0.2569
  859MOL0     C15861   8.303   7.967   0.821  0.3110 -0.2953  0.1422
  859MOL0     C15862   8.219   8.033   0.735 -0.4960 -0.4366  0.0024
  859MOL0     C15863   8.174   7.976   0.615 -0.2475 -0.2388 -1.4663
  859MOL0     C15864   8.219   7.851   0.584 -0.5187  0.0651  1.5482
  859MOL0     O15865   8.168   7.789   0.469  0.1214  0.0969  0.0213
  859MOL0     C15866   8.265   7.725   0.387 -0.2497  0.4464 -0.5794
  859MOL0     C15867   8.353   7.829   0.316  0.2004  0.2501  1.2276
  859MOL0     C15868   8.409   7.781   0.186 -0.6137 -0.3587  0.0196
  859MOL0     C15869   8.307   7.791   0.076  0.8029 -0.4937 -0.2767
  859MOL0     C15870   8.345   7.754  -0.066  0.1672 -0.0186  0.6045
  859MOL0     C15871   8.235   7.753  -0.173 -0.8017 -0.6409  0.6107
  859MOL0     C15872   8.293   7.717  -0.308  0.6876 -0.7750  0.6335
  859MOL0     C15873   8.386   7.822  -0.388 -0.3332 -0.2491  0.3619
  859MOL0    Cl15874   8.289   7.956  -0.457 -0.2244  0.2854  0.2325
  859MOL0     C15875   8.319   7.795   0.658 -0.3974 -0.0363  0.0114
  859MOL0     C15876   8.358   7.846   0.779  0.0844  0.3102  0.0704
  859MOL0     O15877   8.331   7.843   1.063 -0.3514  0.1088 -0.8292
  859MOL0     C15878   8.415   7.999   1.280  0.3894 -0.3894  0.4683
  859MOL0     C15879   8.448   8.091   1.381  0.8306 -1.4218  0.5348
  859MOL0     N15880   8.019   8.430   1.593  0.2646  0.4058 -0.1848
  859MOL0     N15881   7.948   8.345   1.527 -0.3720  0.7317 -0.1566
  859MOL0     C15882   7.442   7.696   0.605  0.8745  0.4188 -0.0493
  859MOL0     C15883   7.310   7.680   0.562  0.7646 -0.2608  0.7481
  859MOL0     C15884   6.922   7.547   0.421 -0.2085 -0.2318  0.1778
  859MOL0     C15885   6.847   7.484   0.518  0.6215 -0.5026  0.5363
  859MOL0     C15886   6.715   7.447   0.488  0.7268 -0.1952 -0.9560
  859MOL0     C15887   6.658   7.470   0.363  0.5010 -0.9933 -0.4757
  859MOL0     O15888   6.529   7.448   0.330 -0.4919 -0.0518  0.6676
  859MOL0     C15889   6.456   7.356   0.408 -0.2144  0.1511 -0.5398
  859MOL0     C15890   6.316   7.329   0.354 -0.2878 -1.0251 -0.5890
  859MOL0     C15891   6.323   7.324   0.201 -0.3804  1.0024  0.1568
  859MOL0     C15892   6.409   7.213   0.136 -0.0953  0.6234 -0.3063
  859MOL0     C15893   6.386   7.079   0.193  0.5128 -1.6907  0.3059
  859MOL0     C15894   6.346   6.981   0.254 -0.9377  0.5279  0.6891
  859MOL0     C15895   6.728   7.544   0.275 -0.5430  0.0914  0.6313
  859MOL0     C15896   6.856   7.586   0.302 -0.2498 -0.7071  1.1155
  859MOL0     C15897   6.916   7.690   0.211  0.6017 -0.5493  0.3577
  859MOL0     H15898   7.213   7.444   0.792  2.5198  0.0037  3.9615
  859MOL0     H15899   7.431   7.500   0.883 -0.0128  0.5725  1.0429
  859MOL0     H15900   7.567   7.824   0.875  0.7686  1.2516 -1.4107
  859MOL0     H15901   7.639   7.675   0.960  0.1496  0.5337  1.0052
  859MOL0     H15902   7.774   7.863   0.759  0.0213  2.7830  0.7493
  859MOL0     H15903   7.847   7.715   0.832 -2.6313 -1.1610  0.0754
  859MOL0     H15904   7.839   7.829   1.050 -0.5182  2.9223  0.8908
  859MOL0     H15905   7.781   7.977   0.967  3.4491  2.7558 -0.3561
  859MOL0     H15906   8.047   7.859   0.946 -0.7122 -0.8535  0.5125
  859MOL0     H15907   7.957   7.973   0.828  0.0918 -2.3696 -0.5536
  859MOL0     H15908   8.101   8.118   0.997 -0.4198  1.4790  2.2306
  859MOL0     H15909   7.932   8.142   1.012  1.0399  1.7349 -1.8578
  859MOL0     H15910   7.949   7.976   1.212  1.0725 -1.4940  1.0184
  859MOL0     H15911   8.117   7.935   1.161  0.2182  1.0550 -2.7107
  859MOL0     H15912   8.175   8.164   1.187 -3.0602 -0.0810 -3.9912
  859MOL0     H15913   8.137   8.076   1.336  4.7767 -0.7831 -2.9480
  859MOL0     H15914   7.962   8.307   1.212 -2.6003 -3.5530 -2.2723
  859MOL0     H15915   7.885   8.194   1.305 -1.1089  0.8030  2.2626
  859MOL0     H15916   8.246   8.330   1.374  0.2314  2.1112 -1.8074
  859MOL0     H15917   8.347   8.516   1.487 -0.8926 -0.0809 -0.4071
  859MOL0     H15918   8.244   8.601   1.615  0.0987  0.4366  0.1387
  859MOL0     H15919   8.405   8.465   1.752 -0.0227  1.0321 -1.2310
  859MOL0     H15920   8.251   8.398   1.754  1.4582 -1.1266  0.5680
  859MOL0     H15921   8.323   8.216   1.596  1.5893 -1.5366  2.5188
  859MOL0     H15922   8.408   8.232   1.748 -1.5687  0.6511  0.6464
  859MOL0     H15923   8.573   8.180   1.604 -1.6390 -1.7276 -3.1800
  859MOL0     H15924   8.589   8.350   1.641  2.5959 -1.2693 -1.0460
  859MOL0     H15925   8.535   8.360   1.201  0.0554 -0.5902 -0.7524
  859MOL0     H15926   8.447   8.230   1.021  3.1652 -0.5340  0.6636
  859MOL0     H15927   8.183   8.134   0.753 -1.8812 -0.6431 -1.3653
  859MOL0     H15928   8.113   8.046   0.558  0.4201  0.8429 -0.8901
  859MOL0     H15929   8.316   7.648   0.446 -0.8674  2.3943  2.7184
  859MOL0     H15930   8.220   7.666   0.306 -0.0994  2.6788 -2.3795
  859MOL0     H15931   8.291   7.918   0.301  0.3743 -0.0466 -1.9115
  859MOL0     H15932   8.443   7.849   0.375  1.0763 -1.5695  0.5671
  859MOL0     H15933   8.493   7.843   0.153  2.3146 -3.9723 -0.0255
  859MOL0     H15934   8.443   7.677   0.195 -1.0340 -0.4038  1.2463
  859MOL0     H15935   8.275   7.895   0.087 -1.9901 -1.3938  1.2338
  859MOL0     H15936   8.219   7.736   0.111 -1.0833  1.0946 -2.2442
  859MOL0     H15937   8.386   7.655  -0.046 -0.5580 -0.3169  0.6409
  859MOL0     H15938   8.429   7.813  -0.105  0.4160 -1.8806 -1.9044
  859MOL0     H15939   8.151   7.691  -0.141 -0.9496 -0.0587  1.4041
  859MOL0     H15940   8.196   7.855  -0.173 -0.5561 -0.5436  0.4024
  859MOL0     H15941   8.218   7.694  -0.385  2.3681  0.7363 -1.5761
  859MOL0     H15942   8.345   7.621  -0.295  0.0475 -1.5576 -2.0129
  859MOL0     H15943   8.453   7.872  -0.317 -0.0084  1.2625 -0.9559
  859MOL0     H15944   8.434   7.771  -0.472 -0.5035  2.5004 -1.5361
  859MOL0     H15945   8.368   7.701   0.633 -0.0036 -0.0509  0.7945
  859MOL0     H15946   8.420   7.782   0.841 -1.0375  0.1986  1.1227
  859MOL0     H15947   8.396   7.894   1.303 -3.2186 -0.5121 -2.1842
  859MOL0     H15948   8.457   8.048   1.481  4.9304 -0.3147  0.8227
  859MOL0     H15949   7.502   7.768   0.550  1.2070  0.4534  0.3554
  859MOL0     H15950   7.270   7.744   0.484  3.3079 -0.4090 -0.7723
  859MOL0     H15951   6.882   7.441   0.611 -0.1776 -1.8163  0.2508
  859MOL0     H15952   6.662   7.397   0.568 -0.4396 -0.1557 -1.6813
  859MOL0     H15953   6.449   7.400   0.507 -0.0781 -0.4540 -0.2568
  859MOL0     H15954   6.518   7.266   0.406 -2.2945 -1.3525 -0.9846
  859MOL0     H15955   6.259   7.419   0.378  2.0282 -0.0137  1.5802
  859MOL0     H15956   6.282   7.236   0.399  2.5003 -1.9848 -0.2812
  859MOL0     H15957   6.353   7.422   0.164 -1.5813  1.7156  0.9671
  859MOL0     H15958   6.223   7.306   0.160  0.0629  1.6188 -1.2390
  859MOL0     H15959   6.390   7.197   0.029  2.7993  1.3208 -1.0057
  859MOL0     H15960   6.514   7.237   0.156  1.9215 -3.7044 -4.0239
  859MOL0     H15961   6.316   6.894   0.308  2.5084 -0.3766  1.3521
  859MOL0     H15962   6.679   7.584   0.187  0.5667  1.6226  0.6666
  859MOL0     H15963   7.004   7.739   0.254  0.2485  0.6649 -0.2411
  859MOL0     H15964   6.956   7.649   0.118  1.6841 -1.1396  1.0640
  859MOL0     H15965   6.842   7.765   0.182  2.2674  0.7000 -0.8811
  860MOL0     O15966   8.554  10.318   9.895 -0.3164  0.0178  0.0781
  860MOL0     C15967   8.567  10.263   9.789  0.0300 -0.3551  1.0613
  860MOL0     O15968   8.484  10.171   9.749  0.1813  0.7156  0.0560
  860MOL0     C15969   8.374  10.142   9.828 -0.0683 -0.9732 -0.4379
  860MOL0     C15970   8.250  10.209   9.821 -0.1509  0.5646  1.3703
  860MOL0     C15971   8.138  10.176   9.905 -0.7898 -0.3114 -0.1470
  860MOL0     C15972   8.144  10.072   9.987  0.4807  0.1990 -0.4763
  860MOL0     O15973   8.033  10.033  10.055  0.0097  0.1089  0.0212
  860MOL0     C15974   7.916  10.012   9.983 -0.2752  0.0249 -0.5064
  860MOL0     C15975   7.842   9.895  10.048 -0.4980 -0.1111  0.7613
  860MOL0     C15976   7.809   9.924  10.191  0.1044  0.8322 -0.4629
  860MOL0     C15977   7.737   9.805  10.253 -0.0194  0.1429 -0.6355
  860MOL0     C15978   7.667   9.854  10.373  0.2279  0.6749 -0.8538
  860MOL0     C15979   7.612   9.735  10.454  0.6433  0.0919  0.9455
  860MOL0     C15980   7.497   9.655  10.378  0.5196  0.1612  0.2550
  860MOL0     C15981   7.454   9.525  10.455 -0.0664 -0.0548  0.3866
  860MOL0     N15982   7.419   9.526  10.600  0.4046  0.2344 -0.3932
  860MOL0     C15983   7.339   9.621  10.658 -0.1225  0.0939 -0.5074
  860MOL0     C15984   7.349   9.590  10.792  0.0405  0.1789 -0.2882
  860MOL0     C15985   7.284   9.688  10.894  0.1080 -0.0288  0.4725
  860MOL0     C15986   7.272   9.615  11.033  0.7373 -0.4542  0.0878
  860MOL0     C15987   7.164   9.509  11.010 -0.2491  0.3301  0.0256
  860MOL0     C15988   7.131   9.439  11.141 -0.1008  0.5187 -1.3149
  860MOL0     O15989   7.080   9.526  11.241 -0.0239  0.4808  0.3292
  860MOL0     C15990   7.033   9.466  11.354  0.1270 -1.0573 -0.9836
  860MOL0     C15991   6.903   9.458  11.369 -0.9427  1.0605  0.6948
  860MOL0     C15992   6.846   9.428  11.492 -1.4127  0.2638 -0.2781
  860MOL0     C15993   6.921   9.405  11.610  0.3524 -0.1195  0.8615
  860MOL0     C15994   6.869   9.376  11.740 -0.1072  0.7553  0.2024
  860MOL0     O15995   6.939   9.420  11.858  0.1400  0.8034 -0.4647
  860MOL0     C15996   6.857   9.445  11.964  0.2748 -0.8936  0.3633
  860MOL0     C15997   6.859   9.374  12.083 -0.1400 -0.7150 -0.8364
  860MOL0     C15998   6.787   9.419  12.195  0.0466  0.0591 -0.0133
  860MOL0     C15999   6.703   9.532  12.181  0.1263  1.1628 -0.4774
  860MOL0     O16000   6.632   9.553  12.295  0.2093 -0.2483 -0.6370
  860MOL0     C16001   6.504   9.596  12.253  0.1291  0.6249 -0.7227
  860MOL0     C16002   6.405   9.607  12.366  0.2267 -0.0444 -0.9356
  860MOL0     C16003   6.400   9.496  12.472  1.2094  0.3391 -0.2955
  860MOL0     C16004   6.268   9.509  12.551  0.0355  0.6749  0.0805
  860MOL0     C16005   6.298   9.443  12.687  0.3155  0.4143 -0.3478
  860MOL0     C16006   6.190   9.464  12.785  0.4938  0.7033 -1.2528
  860MOL0     C16007   6.233   9.408  12.928  0.0450 -0.3325  0.0791
  860MOL0     C16008   6.114   9.354  13.011 -0.5643 -0.6523  0.1578
  860MOL0    Cl16009   6.080   9.196  12.971 -0.3527 -0.2367  0.0668
  860MOL0     C16010   6.709   9.605  12.065 -0.6783 -0.2890  0.1445
  860MOL0     C16011   6.790   9.565  11.956  0.0581  0.4150  0.2642
  860MOL0     O16012   6.751   9.332  11.741  0.1444  0.1302  0.9209
  860MOL0     C16013   7.057   9.399  11.584 -0.4171  0.4852 -0.8803
  860MOL0     C16014   7.116   9.435  11.460 -0.0551  0.4002  0.2242
  860MOL0     N16015   7.434   9.481  10.808  0.3158 -0.0420  0.0407
  860MOL0     N16016   7.470   9.439  10.695  0.5955 -0.2451  0.2119
  860MOL0     C16017   8.262   9.991   9.984  0.4456  0.6203 -0.4005
  860MOL0     C16018   8.372  10.026   9.912 -0.3660 -0.5224 -0.2910
  860MOL0     C16019   8.674  10.306   9.700  0.8900 -0.0001 -0.3861
  860MOL0     C16020   8.786  10.368   9.758  0.7478 -0.5200 -0.5840
  860MOL0     C16021   8.888  10.430   9.689  0.2104 -1.1031  0.7795
  860MOL0     C16022   8.898  10.403   9.550  0.1363 -0.0179  0.0066
  860MOL0     O16023   9.014  10.456   9.494  0.7915  0.6624 -0.7344
  860MOL0     C16024   9.052  10.414   9.362  0.3392  0.5080  0.6852
  860MOL0     C16025   9.182  10.492   9.322  0.7914 -0.4594  0.7622
  860MOL0     C16026   9.307  10.427   9.389  0.0711 -0.1638  0.0526
  860MOL0     C16027   9.430  10.496   9.328  0.0695  0.1848 -0.5049
  860MOL0     C16028   9.560  10.420   9.344 -0.1149  0.3199 -0.0406
  860MOL0     C16029   9.657  10.351   9.340 -0.0405  0.3568  0.4223
  860MOL0     C16030   8.794  10.326   9.492  0.5285  0.0212 -0.2651
  860MOL0     C16031   8.679  10.280   9.565  0.2911  0.3978  0.8538
  860MOL0     C16032   8.579  10.204   9.492  0.6311  0.4274 -0.0825
  860MOL0     H16033   8.258  10.300   9.763  0.7695 -0.7897 -0.7505
  860MOL0     H16034   8.048  10.237   9.907 -0.8876 -0.3128 -2.3661
  860MOL0     H16035   7.852  10.100   9.986  0.5651  0.6724 -0.9555
  860MOL0     H16036   7.928   9.977   9.879  1.0231  0.5616 -0.5601
  860MOL0     H16037   7.899   9.806  10.024  3.4832  2.7648 -1.6505
  860MOL0     H16038   7.747   9.904   9.994 -0.3182  0.7526  0.5625
  860MOL0     H16039   7.745  10.012  10.195  0.3481  1.0021 -0.2660
  860MOL0     H16040   7.902   9.949  10.242  0.4813 -2.3567  0.6570
  860MOL0     H16041   7.669   9.760  10.180 -2.3375  1.2896  0.7054
  860MOL0     H16042   7.813   9.735  10.290 -0.5992 -1.2187 -1.8880
  860MOL0     H16043   7.730   9.915  10.439 -1.4426  0.4554  1.0345
  860MOL0     H16044   7.577   9.910  10.347 -0.2979  0.0837 -0.3540
  860MOL0     H16045   7.694   9.669  10.483 -0.4755 -1.1992  1.2425
  860MOL0     H16046   7.562   9.778  10.541  0.6362  0.2930  0.8436
  860MOL0     H16047   7.527   9.623  10.278 -0.3122  1.8024 -0.5563
  860MOL0     H16048   7.415   9.723  10.352  1.3739  1.5449  1.0179
  860MOL0     H16049   7.367   9.490  10.399  0.7324 -1.2185 -0.1694
  860MOL0     H16050   7.533   9.450  10.452  0.7466  0.8310 -1.6747
  860MOL0     H16051   7.283   9.702  10.613 -1.1776 -0.3989 -0.1123
  860MOL0     H16052   7.355   9.771  10.900 -1.4214  1.6226 -2.0783
  860MOL0     H16053   7.193   9.738  10.858  0.5929  0.4995 -0.0428
  860MOL0     H16054   7.371   9.581  11.063  0.5279 -2.1298 -1.0332
  860MOL0     H16055   7.233   9.685  11.108 -0.0585 -1.2166  0.4098
  860MOL0     H16056   7.198   9.424  10.949  0.7672 -1.7766  3.2885
  860MOL0     H16057   7.069   9.544  10.969 -0.1820 -0.3563 -0.7526
  860MOL0     H16058   7.216   9.380  11.178 -1.3351 -3.0800 -3.6561
  860MOL0     H16059   7.048   9.367  11.134  1.9096 -2.1083  0.1217
  860MOL0     H16060   6.845   9.487  11.282  0.3865 -2.8232 -1.7493
  860MOL0     H16061   6.738   9.415  11.501 -1.0434 -2.4433  1.2484
  860MOL0     H16062   6.915   9.281  12.092 -0.1988 -0.5181  4.5409
  860MOL0     H16063   6.793   9.361  12.287 -2.6069  1.3171  1.0573
  860MOL0     H16064   6.496   9.692  12.202  1.6801  0.7574 -0.7813
  860MOL0     H16065   6.463   9.518  12.189 -2.7945  0.5845  1.0376
  860MOL0     H16066   6.417   9.708  12.407 -0.6515  0.6709 -2.3505
  860MOL0     H16067   6.305   9.616  12.323  0.4707  3.0139 -1.1075
  860MOL0     H16068   6.424   9.393  12.443  1.9061  0.5403 -0.4353
  860MOL0     H16069   6.482   9.525  12.537  0.7720 -0.7845  0.7909
  860MOL0     H16070   6.190   9.458  12.494 -1.0082  0.7943  1.3621
  860MOL0     H16071   6.232   9.608  12.581  0.3411  0.2417  2.0191
  860MOL0     H16072   6.389   9.482  12.733  0.7530 -2.1351  1.1553
  860MOL0     H16073   6.311   9.335  12.674  0.7168  0.5264 -0.9233
  860MOL0     H16074   6.147   9.564  12.779  2.4684  1.6862  0.1361
  860MOL0     H16075   6.110   9.394  12.757  1.0773 -0.2777 -0.5400
  860MOL0     H16076   6.283   9.496  12.970  0.3154  1.7808 -4.1247
  860MOL0     H16077   6.308   9.329  12.917 -1.3693 -1.6226 -0.7336
  860MOL0     H16078   6.163   9.347  13.109 -2.1012 -0.1148  0.9962
  860MOL0     H16079   6.031   9.424  12.997  1.1240  1.0821 -1.9123
  860MOL0     H16080   6.655   9.698  12.057  0.8228  0.6403  0.3450
  860MOL0     H16081   6.813   9.640  11.881  1.2367  0.3853  0.5831
  860MOL0     H16082   7.118   9.372  11.670 -2.6512  1.0903  1.0025
  860MOL0     H16083   7.223   9.443  11.445 -0.2750  0.6938 -1.3442
  860MOL0     H16084   8.248   9.902  10.044 -0.9290  1.7277  1.0448
  860MOL0     H16085   8.454   9.957   9.922  1.6081  1.7462 -0.0054
  860MOL0     H16086   8.795  10.379   9.865  2.5150  1.1729 -0.8643
  860MOL0     H16087   8.965  10.491   9.736 -0.7682  0.0923  0.8752
  860MOL0     H16088   8.980  10.443   9.285  2.6902  1.7502 -1.2059
  860MOL0     H16089   9.074  10.307   9.361  0.0652  0.4357  1.7715
  860MOL0     H16090   9.175  10.596   9.355 -0.4948 -1.1313  2.7477
  860MOL0     H16091   9.189  10.468   9.216  1.5636 -2.2732  1.1826
  860MOL0     H16092   9.304  10.321   9.360 -2.7904 -1.3768  3.9646
  860MOL0     H16093   9.301  10.434   9.497 -1.7947 -1.3267  0.0579
  860MOL0     H16094   9.417  10.495   9.219 -1.2675 -2.1378 -0.3796
  860MOL0     H16095   9.446  10.596   9.370 -2.8501  0.2462  0.6955
  860MOL0     H16096   9.755  10.308   9.328  0.7883  2.1323  0.5553
  860MOL0     H16097   8.800  10.312   9.384  1.9093  1.9233 -0.4918
  860MOL0     H16098   8.476  10.241   9.491 -0.2110 -1.7407  1.0821
  860MOL0     H16099   8.609  10.195   9.387 -0.1989  1.2236 -0.3992
  860MOL0     H16100   8.581  10.101   9.527 -1.7324  0.5801  0.6732
  861MOL0     O16101   5.264   7.655   4.978  0.5962 -0.0197 -0.2151
  861MOL0     C16102   5.287   7.776   4.953  0.8028  0.5336 -0.0710
  861MOL0     O16103   5.407   7.838   4.977 -0.3301  0.1123 -0.3645
  861MOL0     C16104   5.520   7.764   4.988 -0.2804 -0.0395 -0.1897
  861MOL0     C16105   5.527   7.644   5.069 -0.0754  0.6405  0.8848
  861MOL0     C16106   5.651   7.587   5.088  0.5640 -0.3062 -0.2346
  861MOL0     C16107   5.771   7.634   5.038  0.3987  0.5729  0.7954
  861MOL0     O16108   5.895   7.590   5.081 -0.0110  0.2164  0.2031
  861MOL0     C16109   5.921   7.448   5.069  0.1940 -0.0400  0.1241
  861MOL0     C16110   6.073   7.436   5.035 -0.2588 -0.6785 -0.0917
  861MOL0     C16111   6.159   7.487   5.154 -0.5822  1.0299  0.7919
  861MOL0     C16112   6.185   7.641   5.158  0.4856  0.2582 -0.0759
  861MOL0     C16113   6.327   7.670   5.210 -0.5126 -0.7890 -0.1136
  861MOL0     C16114   6.362   7.589   5.338  0.4001  0.3859  0.1785
  861MOL0     C16115   6.511   7.578   5.349 -0.8777 -1.1383 -0.6191
  861MOL0     C16116   6.563   7.458   5.455  0.2989 -0.5145  0.5935
  861MOL0     N16117   6.503   7.331   5.422 -0.0008 -0.5342 -0.8723
  861MOL0     C16118   6.495   7.261   5.300  0.2488 -0.6869 -1.3076
  861MOL0     C16119   6.400   7.165   5.327 -0.3460  0.0837  0.3771
  861MOL0     C16120   6.345   7.067   5.230 -0.2576 -0.2037 -0.1209
  861MOL0     C16121   6.422   7.064   5.100 -0.1158  0.5593 -0.5794
  861MOL0     C16122   6.569   6.999   5.116  0.5166 -0.2649 -0.3459
  861MOL0     C16123   6.655   6.992   4.990  1.3147 -0.5486 -0.1682
  861MOL0     O16124   6.697   7.121   4.943 -0.4217 -0.0763 -0.1982
  861MOL0     C16125   6.820   7.120   4.876  0.2400  0.2296  0.6439
  861MOL0     C16126   6.891   7.244   4.864  0.8787 -0.3357 -0.0292
  861MOL0     C16127   7.027   7.260   4.832  0.2333  0.3988 -0.6298
  861MOL0     C16128   7.095   7.145   4.809  0.2486  0.4800  0.1463
  861MOL0     C16129   7.239   7.145   4.782 -1.1640  0.0423 -1.7813
  861MOL0     O16130   7.303   7.270   4.747  0.0313  0.5613 -0.8774
  861MOL0     C16131   7.434   7.280   4.738 -0.2039  0.7234  0.9333
  861MOL0     C16132   7.511   7.252   4.622  1.2430  0.1274  0.4426
  861MOL0     C16133   7.651   7.275   4.621 -0.3844  0.1289 -0.2090
  861MOL0     C16134   7.719   7.301   4.740  0.4592 -0.7673  0.2480
  861MOL0     O16135   7.857   7.323   4.739  0.8063 -0.0121 -0.8501
  861MOL0     C16136   7.908   7.465   4.716  0.3155  0.1247  0.1918
  861MOL0     C16137   8.000   7.511   4.833  0.1415  0.8693  0.2185
  861MOL0     C16138   8.140   7.459   4.821 -0.1688  0.5147  0.6582
  861MOL0     C16139   8.230   7.522   4.711 -0.3930  0.2396 -0.1979
  861MOL0     C16140   8.361   7.579   4.771 -1.4362 -0.4541 -0.6164
  861MOL0     C16141   8.467   7.477   4.832  0.6886 -0.7378 -0.4926
  861MOL0     C16142   8.608   7.529   4.851 -0.7314 -0.5405 -0.4519
  861MOL0     C16143   8.689   7.450   4.954  0.2102 -0.0592  0.1852
  861MOL0    Cl16144   8.860   7.468   4.926 -0.1823  0.0912 -0.0073
  861MOL0     C16145   7.642   7.329   4.855 -0.1067 -0.1275 -0.7044
  861MOL0     C16146   7.502   7.323   4.857  0.0374 -0.5032  0.1085
  861MOL0     O16147   7.303   7.039   4.802  0.2610  0.2576  0.1868
  861MOL0     C16148   7.029   7.021   4.818 -0.0518  0.5161  0.0503
  861MOL0     C16149   6.892   7.007   4.848 -0.1491  0.5290  0.2855
  861MOL0     N16150   6.366   7.172   5.456 -0.0980 -0.2609  0.8101
  861MOL0     N16151   6.411   7.278   5.507 -0.4206  0.2677 -0.3579
  861MOL0     C16152   5.763   7.754   4.959 -0.4307  0.1715 -0.3084
  861MOL0     C16153   5.636   7.804   4.926  0.0626 -0.1450  0.1635
  861MOL0     C16154   5.176   7.864   4.898  0.0538  0.2716  1.0436
  861MOL0     C16155   5.044   7.797   4.882 -0.2774 -0.1331  0.2807
  861MOL0     C16156   4.933   7.861   4.825 -0.4549  0.4739  0.0412
  861MOL0     C16157   4.941   7.996   4.805  0.6186  0.8943  0.3675
  861MOL0     O16158   4.839   8.072   4.744 -1.0199 -0.3825 -0.4053
  861MOL0     C16159   4.708   8.021   4.743  0.0453  0.1607 -0.2869
  861MOL0     C16160   4.603   8.122   4.696  0.6903  0.3856 -0.6140
  861MOL0     C16161   4.621   8.267   4.763 -0.1308  0.2852  0.2651
  861MOL0     C16162   4.499   8.359   4.751 -0.7273 -0.7078  0.8774
  861MOL0     C16163   4.553   8.491   4.781  0.6226 -0.3248  0.0297
  861MOL0     C16164   4.598   8.598   4.817 -0.6801 -0.4593 -0.1823
  861MOL0     C16165   5.059   8.062   4.826 -0.6494 -0.6769 -0.0877
  861MOL0     C16166   5.176   7.997   4.870  0.3803 -0.0544 -0.4791
  861MOL0     C16167   5.297   8.090   4.891 -0.2392 -0.4864  0.7326
  861MOL0     H16168   5.437   7.607   5.117 -0.4208  1.7205  1.1075
  861MOL0     H16169   5.667   7.505   5.157 -0.8119 -0.9104 -0.6044
  861MOL0     H16170   5.890   7.388   5.155 -1.0472  1.5713  0.8584
  861MOL0     H16171   5.873   7.406   4.979  2.3327 -3.4073  0.3633
  861MOL0     H16172   6.095   7.483   4.938 -0.1563 -2.3676 -0.9168
  861MOL0     H16173   6.095   7.330   5.024 -2.7743 -1.2987  0.2176
  861MOL0     H16174   6.254   7.433   5.146 -2.7075 -2.7352 -3.3089
  861MOL0     H16175   6.112   7.462   5.249  0.0487  0.7513  1.0361
  861MOL0     H16176   6.186   7.681   5.056  0.2418  1.8331  0.5082
  861MOL0     H16177   6.107   7.687   5.220 -0.9539  1.2260 -2.4952
  861MOL0     H16178   6.398   7.642   5.132 -0.1288 -0.0491 -0.0455
  861MOL0     H16179   6.329   7.774   5.245  1.3278 -1.8927  3.5623
  861MOL0     H16180   6.311   7.647   5.416  0.5752  2.3072 -1.0943
  861MOL0     H16181   6.327   7.485   5.340  0.5851  0.3294  0.7379
  861MOL0     H16182   6.543   7.677   5.382 -1.9321 -0.7268 -0.7889
  861MOL0     H16183   6.558   7.572   5.250 -1.3030  2.3996 -1.1687
  861MOL0     H16184   6.672   7.447   5.447  0.1118 -1.9856 -0.2176
  861MOL0     H16185   6.546   7.489   5.558  2.6995 -1.8093  1.4688
  861MOL0     H16186   6.530   7.293   5.202 -0.9977 -1.4695 -2.0450
  861MOL0     H16187   6.346   6.968   5.276 -3.8931 -1.0335 -1.4663
  861MOL0     H16188   6.242   7.089   5.198 -1.1701 -1.2377  1.9258
  861MOL0     H16189   6.365   7.006   5.026 -1.8774  2.2467 -0.6367
  861MOL0     H16190   6.432   7.161   5.051 -1.5160 -0.5145 -3.2344
  861MOL0     H16191   6.554   6.894   5.143 -0.1100  0.2590  1.4032
  861MOL0     H16192   6.632   7.047   5.191 -1.2657  1.5193  0.0897
  861MOL0     H16193   6.592   6.942   4.916 -2.5780  3.5649 -0.1160
  861MOL0     H16194   6.739   6.927   5.016  0.9241 -0.9903  0.0038
  861MOL0     H16195   6.830   7.328   4.894 -1.5546 -0.5076 -3.7926
  861MOL0     H16196   7.070   7.357   4.810 -2.4217  1.3131 -2.2620
  861MOL0     H16197   7.457   7.223   4.532 -0.6453 -3.6502  2.5357
  861MOL0     H16198   7.704   7.256   4.528  0.4178 -0.5078  0.3639
  861MOL0     H16199   7.962   7.460   4.621 -0.4546  1.3409 -0.3267
  861MOL0     H16200   7.818   7.526   4.717 -0.0751 -0.4034  2.2063
  861MOL0     H16201   8.000   7.620   4.838  1.9976  1.0125 -1.4638
  861MOL0     H16202   7.955   7.480   4.928 -0.6279  0.6754 -0.2025
  861MOL0     H16203   8.185   7.478   4.919  1.8400  1.0475 -0.3226
  861MOL0     H16204   8.129   7.352   4.802  0.8815  0.8642 -2.4905
  861MOL0     H16205   8.179   7.603   4.658 -1.4892 -1.3658 -1.7238
  861MOL0     H16206   8.246   7.437   4.645 -0.2766 -1.6264  2.1094
  861MOL0     H16207   8.334   7.658   4.841  0.6807  1.9980 -2.3786
  861MOL0     H16208   8.417   7.629   4.692 -0.1713  0.2148  0.6552
  861MOL0     H16209   8.418   7.436   4.921  2.9882 -0.1838  1.1016
  861MOL0     H16210   8.481   7.394   4.763  2.0779 -1.1394  0.2445
  861MOL0     H16211   8.606   7.637   4.869  0.6632 -0.1140 -2.4882
  861MOL0     H16212   8.664   7.531   4.757  1.0104  0.3720  0.5563
  861MOL0     H16213   8.664   7.473   5.058  2.0917 -0.3226  0.7253
  861MOL0     H16214   8.662   7.344   4.941 -0.2133  0.1269 -0.4840
  861MOL0     H16215   7.695   7.375   4.937 -1.4415 -3.5075  2.2952
  861MOL0     H16216   7.443   7.344   4.946 -1.4429  0.1976 -0.9988
  861MOL0     H16217   7.089   6.933   4.799  1.7393  1.8805 -0.8598
  861MOL0     H16218   6.837   6.913   4.848  1.8242 -0.8311 -3.0901
  861MOL0     H16219   5.848   7.811   4.922  0.9909 -2.6916 -1.6938
  861MOL0     H16220   5.629   7.884   4.853 -0.4701  1.1867  1.6213
  861MOL0     H16221   5.033   7.694   4.913 -2.7822 -0.0501 -0.0916
  861MOL0     H16222   4.852   7.800   4.787  0.0178  0.9374 -1.7945
  861MOL0     H16223   4.689   7.992   4.847 -0.5481 -2.4297 -1.0702
  861MOL0     H16224   4.700   7.941   4.670  0.5890  1.1303 -1.4448
  861MOL0     H16225   4.504   8.076   4.699  0.0885  1.4430 -2.7064
  861MOL0     H16226   4.622   8.141   4.590 -3.0489 -1.4084 -1.7985
  861MOL0     H16227   4.714   8.306   4.722 -0.3784  3.2004  2.1937
  861MOL0     H16228   4.638   8.240   4.867 -0.3296 -0.7714  0.0352
  861MOL0     H16229   4.468   8.371   4.647 -0.4770  2.1986  1.0529
  861MOL0     H16230   4.416   8.327   4.815 -0.7085  1.3267  1.9877
  861MOL0     H16231   4.643   8.692   4.844  0.3696 -1.0612  0.2002
  861MOL0     H16232   5.071   8.169   4.811  0.8003 -0.6435  1.0652
  861MOL0     H16233   5.312   8.105   4.998  1.1411 -0.2409  0.5240
  861MOL0     H16234   5.388   8.052   4.845  2.3782  2.5225  3.0019
  861MOL0     H16235   5.281   8.189   4.847 -0.5030 -0.8111  0.0723
  862MOL0     O16236   3.187   8.591   6.546  0.4419 -0.4735 -1.0102
  862MOL0     C16237   3.279   8.670   6.529  0.0959 -0.1640 -0.5162
  862MOL0     O16238   3.276   8.808   6.565 -0.5363 -0.2406  0.3811
  862MOL0     C16239   3.163   8.875   6.599  0.1119 -0.2694  0.0309
  862MOL0     C16240   3.190   8.983   6.684 -0.5848  0.9790  0.0743
  862MOL0     C16241   3.091   9.075   6.707  0.6041 -0.5825 -0.0718
  862MOL0     C16242   2.969   9.064   6.649  0.4024 -0.3442 -0.3653
  862MOL0     O16243   2.882   9.169   6.674 -0.4921  0.1671 -0.0144
  862MOL0     C16244   2.775   9.191   6.583 -0.1297  0.4946  0.4937
  862MOL0     C16245   2.663   9.287   6.635 -0.2238  0.5808  0.1672
  862MOL0     C16246   2.595   9.266   6.770  0.1920 -0.9821 -0.0542
  862MOL0     C16247   2.472   9.358   6.781  0.0939  0.8972  0.4927
  862MOL0     C16248   2.434   9.370   6.928  0.2377  1.3024 -0.3348
  862MOL0     C16249   2.300   9.425   6.948  1.1538  0.0332 -0.5397
  862MOL0     C16250   2.270   9.448   7.093  0.8453  0.6000  0.8239
  862MOL0     C16251   2.232   9.321   7.172 -0.2600  0.6301 -0.6105
  862MOL0     N16252   2.090   9.277   7.149 -0.1487  0.0898 -0.0569
  862MOL0     C16253   2.037   9.160   7.188 -0.5617  0.5601 -0.2451
  862MOL0     C16254   1.926   9.134   7.120  0.5378  0.3808 -0.2190
  862MOL0     C16255   1.842   9.013   7.114 -0.3197  0.1598  0.2434
  862MOL0     C16256   1.696   9.056   7.165 -0.2916  0.1418  0.6360
  862MOL0     C16257   1.601   8.935   7.141 -0.3420  0.7333  0.1591
  862MOL0     C16258   1.556   8.917   6.997  0.0233  0.3125  0.1007
  862MOL0     O16259   1.648   8.817   6.951 -0.8361  0.5701  0.7812
  862MOL0     C16260   1.613   8.768   6.824 -0.4273 -0.1369  0.4825
  862MOL0     C16261   1.689   8.665   6.768  0.4874  0.2476  0.2795
  862MOL0     C16262   1.640   8.581   6.668 -1.0301 -0.4399  0.7370
  862MOL0     C16263   1.521   8.616   6.603 -0.2227 -0.4872 -0.1904
  862MOL0     C16264   1.489   8.518   6.495  0.2476 -0.1287  0.0585
  862MOL0     O16265   1.559   8.402   6.465  0.2004  0.1983  0.7754
  862MOL0     C16266   1.528   8.340   6.353  0.0356  0.3052 -0.7746
  862MOL0     C16267   1.502   8.205   6.368  0.3265 -0.0290 -0.1260
  862MOL0     C16268   1.445   8.123   6.272 -0.3457 -1.3214  0.0420
  862MOL0     C16269   1.437   8.180   6.145 -0.0770 -0.5201  0.1324
  862MOL0     O16270   1.388   8.090   6.058  1.0442 -0.0593  0.2436
  862MOL0     C16271   1.457   8.089   5.936 -0.8083 -0.4852 -0.2981
  862MOL0     C16272   1.479   7.953   5.879  0.1441  0.1885  0.4395
  862MOL0     C16273   1.345   7.899   5.814  0.0284  0.6441 -0.3994
  862MOL0     C16274   1.338   7.749   5.806 -0.3396 -0.9145 -0.0999
  862MOL0     C16275   1.197   7.706   5.770 -0.0753 -0.7876  0.5530
  862MOL0     C16276   1.088   7.753   5.858 -0.0255 -0.0633  0.2420
  862MOL0     C16277   0.959   7.667   5.844  0.2431 -0.1240  0.1374
  862MOL0     C16278   0.858   7.698   5.960  0.4381  0.0234  0.5030
  862MOL0    Cl16279   0.703   7.625   5.937 -0.0825 -0.4778  0.4671
  862MOL0     C16280   1.473   8.317   6.126 -0.3873 -0.2032  1.1281
  862MOL0     C16281   1.524   8.396   6.230  0.3190  0.2991 -0.5316
  862MOL0     O16282   1.385   8.550   6.436  0.1561  0.4580 -0.7021
  862MOL0     C16283   1.453   8.735   6.636 -0.6194 -0.4704 -0.1979
  862MOL0     C16284   1.495   8.810   6.753 -0.2895 -0.0986  0.6093
  862MOL0     N16285   1.897   9.252   7.045  0.9704 -0.5387 -0.5091
  862MOL0     N16286   1.993   9.327   7.064 -0.6545 -0.4259 -0.0414
  862MOL0     C16287   2.940   8.949   6.572  0.5397 -0.2104  0.2124
  862MOL0     C16288   3.039   8.855   6.540 -0.2646  1.2340  0.8426
  862MOL0     C16289   3.403   8.608   6.468 -1.4176 -0.3820  0.3210
  862MOL0     C16290   3.389   8.497   6.390  0.0041  0.8484  0.3014
  862MOL0     C16291   3.497   8.421   6.350  0.6118 -0.0599 -0.6797
  862MOL0     C16292   3.624   8.463   6.364  0.8030 -0.3040 -0.4911
  862MOL0     O16293   3.729   8.396   6.307 -0.7782 -0.3864  0.3220
  862MOL0     C16294   3.836   8.357   6.391  0.2594 -0.4180  0.2984
  862MOL0     C16295   3.918   8.251   6.324  0.0416  0.0933  0.6231
  862MOL0     C16296   3.971   8.298   6.186  0.3874 -0.3212 -0.4449
  862MOL0     C16297   4.123   8.282   6.186 -0.2283 -0.0716  0.7009
  862MOL0     C16298   4.182   8.357   6.297  0.0370 -0.6826 -0.5514
  862MOL0     C16299   4.231   8.412   6.392  0.2883 -0.1695 -0.4196
  862MOL0     C16300   3.646   8.569   6.455  0.3529 -0.4412  0.1877
  862MOL0     C16301   3.539   8.649   6.506 -0.3388  1.0718  0.0339
  862MOL0     C16302   3.576   8.756   6.601 -0.2505 -0.0107  1.0420
  862MOL0     H16303   3.286   8.991   6.735  0.6977  2.2157 -2.3813
  862MOL0     H16304   3.114   9.159   6.771 -0.8194 -0.7322  0.6781
  862MOL0     H16305   2.823   9.223   6.490  0.9545  0.6287  1.0814
  862MOL0     H16306   2.723   9.095   6.576 -0.0536  0.5628 -1.5094
  862MOL0     H16307   2.586   9.279   6.557 -0.4094  0.0878  0.3966
  862MOL0     H16308   2.708   9.387   6.633  1.5981 -0.2079 -1.5490
  862MOL0     H16309   2.671   9.291   6.845  0.9517  1.2217 -1.4676
  862MOL0     H16310   2.562   9.162   6.783  3.8144 -2.0572  2.2244
  862MOL0     H16311   2.502   9.454   6.737  1.2672  0.3220 -0.0236
  862MOL0     H16312   2.395   9.303   6.726  0.0269 -3.0338  3.9843
  862MOL0     H16313   2.451   9.274   6.980  2.1889  0.8225 -1.7348
  862MOL0     H16314   2.505   9.432   6.984 -0.2339 -1.8131  4.3394
  862MOL0     H16315   2.303   9.526   6.906  1.4689  1.0961  1.8846
  862MOL0     H16316   2.234   9.359   6.892  3.6383 -0.6246 -2.9579
  862MOL0     H16317   2.185   9.516   7.092  1.1649  0.9992 -0.6040
  862MOL0     H16318   2.361   9.490   7.137  1.3516  1.0348 -0.5995
  862MOL0     H16319   2.294   9.234   7.149  0.4463  0.5936  1.2616
  862MOL0     H16320   2.239   9.341   7.279 -0.0794 -2.9099  0.1564
  862MOL0     H16321   2.084   9.091   7.256  2.1075  0.6250 -1.8986
  862MOL0     H16322   1.826   8.990   7.009 -3.0915 -0.0415  0.6313
  862MOL0     H16323   1.890   8.927   7.161 -1.0412 -1.3243 -1.6012
  862MOL0     H16324   1.706   9.076   7.272 -0.4083 -1.5904  1.0020
  862MOL0     H16325   1.653   9.145   7.118  1.3198 -0.3452 -1.9815
  862MOL0     H16326   1.513   8.961   7.201 -1.0267 -0.6048 -0.2315
  862MOL0     H16327   1.646   8.847   7.188  0.9232  0.2962 -1.7724
  862MOL0     H16328   1.550   9.011   6.940  0.8420  0.2237 -0.1560
  862MOL0     H16329   1.458   8.870   6.992 -0.5419  1.5463 -1.1125
  862MOL0     H16330   1.778   8.635   6.824  0.1482 -0.4044  0.4811
  862MOL0     H16331   1.696   8.492   6.641  2.2381  0.8117  2.8002
  862MOL0     H16332   1.516   8.163   6.467 -1.7158  1.4893  0.8940
  862MOL0     H16333   1.429   8.016   6.285  1.1740 -1.9338 -2.3586
  862MOL0     H16334   1.404   8.147   5.860 -0.4321  0.2758  0.0012
  862MOL0     H16335   1.558   8.127   5.955 -0.9853 -0.8034  1.4994
  862MOL0     H16336   1.547   7.990   5.802 -2.1559  2.1786 -0.7391
  862MOL0     H16337   1.526   7.890   5.956  2.7022 -0.6036 -1.6113
  862MOL0     H16338   1.265   7.926   5.884  1.4634  0.3543  1.4232
  862MOL0     H16339   1.324   7.947   5.718 -1.9352  0.1940 -0.2416
  862MOL0     H16340   1.377   7.703   5.897  1.9201  0.2051 -0.4381
  862MOL0     H16341   1.413   7.714   5.735  3.4855  1.8153  2.2671
  862MOL0     H16342   1.192   7.598   5.789  1.7943 -1.0841 -0.3834
  862MOL0     H16343   1.182   7.727   5.664 -0.5114 -0.1850  0.7286
  862MOL0     H16344   1.122   7.754   5.962  2.1814  1.1346 -0.4375
  862MOL0     H16345   1.058   7.857   5.838  2.1497  0.7203  0.8063
  862MOL0     H16346   0.975   7.559   5.854 -1.5020 -0.2391  2.7088
  862MOL0     H16347   0.919   7.682   5.744 -2.7046 -0.8680  1.0921
  862MOL0     H16348   0.897   7.668   6.057 -0.4078  0.0051  0.8469
  862MOL0     H16349   0.858   7.807   5.963  2.1277  0.0262  2.0156
  862MOL0     H16350   1.471   8.353   6.024 -0.7339 -2.2862  0.3318
  862MOL0     H16351   1.546   8.499   6.202  2.6806 -0.0336 -0.1458
  862MOL0     H16352   1.362   8.757   6.580 -0.1769 -1.3558 -1.3247
  862MOL0     H16353   1.420   8.882   6.783 -1.7480 -1.9214  1.5734
  862MOL0     H16354   2.846   8.928   6.522  1.7111  0.1208 -2.2890
  862MOL0     H16355   3.024   8.765   6.482  3.3011  0.5352  0.8051
  862MOL0     H16356   3.290   8.470   6.356 -0.6102  1.5293  1.4946
  862MOL0     H16357   3.477   8.337   6.284  0.8831 -0.5961 -0.0907
  862MOL0     H16358   3.814   8.316   6.490 -0.9588 -0.6458 -0.0565
  862MOL0     H16359   3.895   8.444   6.423  0.9955 -0.5905 -0.5279
  862MOL0     H16360   3.847   8.168   6.312 -1.6089  1.7176 -1.6128
  862MOL0     H16361   4.000   8.233   6.394 -0.9055 -0.6564  1.5848
  862MOL0     H16362   3.959   8.403   6.160  3.7946 -0.0183 -1.1500
  862MOL0     H16363   3.932   8.235   6.104  0.2372  0.5322 -1.0417
  862MOL0     H16364   4.158   8.179   6.197  1.2268  0.2101 -0.9740
  862MOL0     H16365   4.165   8.327   6.096  1.9962 -0.9502  1.2393
  862MOL0     H16366   4.279   8.457   6.476  0.6298 -0.3044 -0.5400
  862MOL0     H16367   3.744   8.598   6.490  0.9817  0.9956 -2.4724
  862MOL0     H16368   3.485   8.810   6.627  0.5452  2.2114 -0.5164
  862MOL0     H16369   3.627   8.718   6.690  2.0448 -2.3758 -1.0798
  862MOL0     H16370   3.650   8.814   6.546 -2.4536  1.0901 -0.9186
  863MOL0     O16371   2.974  11.197   2.978 -0.0422 -0.4082 -0.6713
  863MOL0     C16372   3.090  11.225   3.000  0.0267  1.2446  0.1915
  863MOL0     O16373   3.155  11.334   2.950 -0.0210 -0.3122  0.6742
  863MOL0     C16374   3.081  11.401   2.856 -0.1046 -0.8935 -0.3023
  863MOL0     C16375   2.969  11.484   2.888 -0.7951 -0.0305 -0.1088
  863MOL0     C16376   2.897  11.559   2.792 -0.7426 -0.1593  0.0711
  863MOL0     C16377   2.942  11.544   2.659 -0.9018  0.0594  0.0406
  863MOL0     O16378   2.859  11.605   2.572  0.2902 -0.0257  1.2006
  863MOL0     C16379   2.877  11.588   2.425  0.8309  0.2105 -0.2182
  863MOL0     C16380   2.957  11.709   2.360  0.6062  0.2062  0.3491
  863MOL0     C16381   2.914  11.741   2.218  0.7066  0.6251 -0.7503
  863MOL0     C16382   2.949  11.879   2.164  0.0263 -0.0694  0.0657
  863MOL0     C16383   2.913  11.898   2.014 -0.5327  0.0682 -0.7199
  863MOL0     C16384   2.956  12.037   1.985 -0.2461  0.4763  0.4571
  863MOL0     C16385   2.938  12.089   1.839 -0.2410  0.1021 -0.2253
  863MOL0     C16386   2.793  12.102   1.800 -0.0997  0.0661  0.0275
  863MOL0     N16387   2.730  11.991   1.718 -0.1941  0.5741  0.6564
  863MOL0     C16388   2.662  11.879   1.768 -0.0243  0.2027  0.2813
  863MOL0     C16389   2.609  11.822   1.656  0.1280 -0.0754 -0.4751
  863MOL0     C16390   2.515  11.710   1.631 -0.1703  0.3478  0.7180
  863MOL0     C16391   2.594  11.584   1.579  0.5462  0.9007  0.3450
  863MOL0     C16392   2.511  11.465   1.514 -0.7501 -0.4307  0.9554
  863MOL0     C16393   2.592  11.359   1.451  0.0550 -0.7096 -0.2162
  863MOL0     O16394   2.522  11.256   1.382  0.6816  0.6204 -0.4532
  863MOL0     C16395   2.435  11.180   1.448  0.2764  0.9542  0.7052
  863MOL0     C16396   2.425  11.164   1.580  0.5097 -0.3623 -0.6542
  863MOL0     C16397   2.333  11.084   1.644 -0.1812 -0.9170 -0.2630
  863MOL0     C16398   2.242  11.019   1.565  0.5167 -0.5132 -0.7762
  863MOL0     C16399   2.140  10.933   1.640  0.7054  0.2922 -0.0178
  863MOL0     O16400   2.173  10.878   1.761 -0.4913 -0.3144  0.3712
  863MOL0     C16401   2.072  10.820   1.840 -0.2976 -0.4749  0.6216
  863MOL0     C16402   1.941  10.878   1.873 -0.1636  0.7368  0.6450
  863MOL0     C16403   1.859  10.802   1.958  0.3314  0.2181  0.0416
  863MOL0     C16404   1.906  10.692   2.033 -0.2278  0.1105 -0.1963
  863MOL0     O16405   1.825  10.618   2.113 -0.0928 -0.1975 -0.3568
  863MOL0     C16406   1.787  10.667   2.243 -0.2057  0.3676  0.7179
  863MOL0     C16407   1.659  10.584   2.294 -0.3982  1.4012  0.6153
  863MOL0     C16408   1.622  10.645   2.437 -0.6932  0.0705  0.1522
  863MOL0     C16409   1.473  10.667   2.475  0.0263  0.0779  1.0865
  863MOL0     C16410   1.470  10.713   2.612 -0.7445  0.0575 -0.0987
  863MOL0     C16411   1.323  10.747   2.656  0.2387 -0.2825 -0.3657
  863MOL0     C16412   1.283  10.697   2.797  0.8109  0.0311  0.8353
  863MOL0     C16413   1.133  10.714   2.826  0.4351 -0.7782  0.5291
  863MOL0    Cl16414   1.112  10.674   3.002  0.2766 -0.0160  0.1639
  863MOL0     C16415   2.041  10.647   2.018  0.5604 -0.8968 -0.0755
  863MOL0     C16416   2.127  10.718   1.924  0.2799 -0.3066 -0.5573
  863MOL0     O16417   2.041  10.904   1.576 -0.0149 -0.2287  0.3302
  863MOL0     C16418   2.242  11.042   1.424  0.4038  0.3025 -0.0319
  863MOL0     C16419   2.341  11.112   1.362 -0.6852 -0.3145  0.1195
  863MOL0     N16420   2.642  11.894   1.549  1.2065 -0.0830  1.8162
  863MOL0     N16421   2.723  11.985   1.582 -0.4016 -0.2367 -0.1182
  863MOL0     C16422   3.054  11.468   2.632  0.0404 -0.6257  0.5167
  863MOL0     C16423   3.129  11.405   2.727  0.7858 -0.0326  0.8520
  863MOL0     C16424   3.178  11.142   3.096  0.1433  0.7003 -0.3688
  863MOL0     C16425   3.115  11.033   3.157 -0.2757  0.1720  0.4829
  863MOL0     C16426   3.175  10.970   3.260 -0.4279 -0.1895 -0.1546
  863MOL0     C16427   3.305  10.996   3.304  0.0343 -0.6951 -0.0421
  863MOL0     O16428   3.377  10.936   3.407 -0.3312 -0.3687  0.1495
  863MOL0     C16429   3.332  10.801   3.454 -1.1133 -0.2102 -0.4634
  863MOL0     C16430   3.234  10.831   3.570  0.5960 -0.4997 -0.7638
  863MOL0     C16431   3.160  10.696   3.613 -0.5930 -0.5975  0.1164
  863MOL0     C16432   3.024  10.723   3.687 -0.1168 -0.3180 -0.2790
  863MOL0     C16433   2.969  10.604   3.745  0.0517 -0.0570  1.1507
  863MOL0     C16434   2.920  10.506   3.787 -0.6549 -0.2570  0.0743
  863MOL0     C16435   3.371  11.099   3.237  0.2739 -0.0910  0.7256
  863MOL0     C16436   3.311  11.166   3.130  0.0909 -0.3030 -0.9138
  863MOL0     C16437   3.397  11.278   3.070  1.0482 -0.5629  0.5400
  863MOL0     H16438   2.936  11.478   2.992 -0.2942 -2.4287 -0.0248
  863MOL0     H16439   2.809  11.616   2.818  0.1027  2.1445 -1.8091
  863MOL0     H16440   2.926  11.492   2.406 -0.7038 -0.2154 -2.4919
  863MOL0     H16441   2.782  11.574   2.372  0.9751  0.4452 -0.5481
  863MOL0     H16442   3.064  11.687   2.367  0.2136 -2.9956 -1.4458
  863MOL0     H16443   2.947  11.800   2.420 -0.8846 -0.5263  1.2721
  863MOL0     H16444   2.805  11.727   2.219  0.5647  1.5386 -1.5434
  863MOL0     H16445   2.968  11.679   2.146 -0.2510  1.4804 -2.2652
  863MOL0     H16446   2.896  11.962   2.213 -4.6848 -0.5672 -3.4919
  863MOL0     H16447   3.058  11.887   2.168 -0.0405  4.6382 -1.5067
  863MOL0     H16448   2.969  11.833   1.946 -1.7690 -2.3347  0.4162
  863MOL0     H16449   2.808  11.876   1.995 -0.7548 -1.1006  1.5278
  863MOL0     H16450   2.911  12.113   2.049 -0.2158 -0.3020  1.4262
  863MOL0     H16451   3.062  12.054   2.004 -0.2725 -0.8488  2.0129
  863MOL0     H16452   2.993  12.016   1.778  0.1353 -0.5677  0.8887
  863MOL0     H16453   2.994  12.182   1.839  1.5463 -0.9210  0.1813
  863MOL0     H16454   2.731  12.136   1.884  1.0644  0.9159  0.5698
  863MOL0     H16455   2.790  12.190   1.736  2.1070 -0.4191 -0.8053
  863MOL0     H16456   2.655  11.830   1.864  1.7054 -0.3980  0.1423
  863MOL0     H16457   2.473  11.672   1.725 -1.6874  1.2897  0.4468
  863MOL0     H16458   2.425  11.722   1.570  0.8496 -0.8485 -1.1334
  863MOL0     H16459   2.660  11.618   1.499  0.0790  4.3098  1.2662
  863MOL0     H16460   2.660  11.547   1.658 -0.2519 -0.4591  0.4041
  863MOL0     H16461   2.444  11.508   1.439 -1.0460  1.8968  2.4358
  863MOL0     H16462   2.458  11.415   1.596 -0.3320 -1.9762  0.3093
  863MOL0     H16463   2.668  11.332   1.525 -0.4399  0.7784  0.8910
  863MOL0     H16464   2.640  11.409   1.366  0.8722 -2.3952 -0.7813
  863MOL0     H16465   2.485  11.214   1.656 -0.3010  0.8889 -0.8109
  863MOL0     H16466   2.343  11.056   1.748 -0.0430  1.7915  0.5175
  863MOL0     H16467   1.884  10.954   1.821 -2.6401 -1.2768  0.2526
  863MOL0     H16468   1.757  10.834   1.976 -0.1626 -0.8830 -0.6851
  863MOL0     H16469   1.878  10.653   2.303 -0.2920 -4.1239  0.1222
  863MOL0     H16470   1.747  10.769   2.244  0.0153  0.4611  1.6965
  863MOL0     H16471   1.573  10.607   2.231 -2.4409 -1.2252  2.2467
  863MOL0     H16472   1.681  10.477   2.292  2.0281  1.8517 -0.0737
  863MOL0     H16473   1.672  10.588   2.516  1.6109  3.8490  1.7146
  863MOL0     H16474   1.659  10.748   2.442  0.0070 -0.1326 -0.5981
  863MOL0     H16475   1.427  10.568   2.470 -2.0204  1.0305 -1.1268
  863MOL0     H16476   1.426  10.735   2.403  0.8965  0.7657  1.1515
  863MOL0     H16477   1.521  10.809   2.622 -1.4458  0.7170 -2.2929
  863MOL0     H16478   1.519  10.636   2.672  0.9851  0.8676 -0.4163
  863MOL0     H16479   1.307  10.855   2.648 -1.3464 -0.5140 -0.6013
  863MOL0     H16480   1.261  10.703   2.577  0.3804  0.9431 -1.1949
  863MOL0     H16481   1.344  10.741   2.877  0.1610  0.9966  0.8091
  863MOL0     H16482   1.289  10.588   2.793 -0.5702 -0.0491  0.6403
  863MOL0     H16483   1.100  10.814   2.796  3.7529 -0.0141 -0.9942
  863MOL0     H16484   1.082  10.641   2.762 -0.2051 -0.2803  0.4555
  863MOL0     H16485   2.078  10.561   2.074 -1.3943 -1.8830 -0.2009
  863MOL0     H16486   2.234  10.701   1.919  0.6379  1.8497 -1.4730
  863MOL0     H16487   2.177  10.997   1.349 -2.3766  1.3600  1.5839
  863MOL0     H16488   2.334  11.138   1.257  1.4383  0.5481  0.1328
  863MOL0     H16489   3.086  11.458   2.529 -1.4064 -0.7139  0.0453
  863MOL0     H16490   3.218  11.354   2.692  2.5154  2.4139  1.4565
  863MOL0     H16491   3.024  10.988   3.116 -0.6345  0.8704  0.5019
  863MOL0     H16492   3.134  10.877   3.298 -0.4297 -1.1581 -2.3857
  863MOL0     H16493   3.420  10.751   3.495 -0.8780  0.9365  0.5224
  863MOL0     H16494   3.290  10.737   3.376 -3.1093  0.9354 -0.3867
  863MOL0     H16495   3.168  10.911   3.535 -2.0557 -0.7232  3.0982
  863MOL0     H16496   3.281  10.879   3.656 -1.7922 -0.5372  0.6681
  863MOL0     H16497   3.222  10.636   3.680  1.3581  1.0827 -0.0639
  863MOL0     H16498   3.145  10.638   3.522  0.7010 -2.7344  1.1973
  863MOL0     H16499   3.028  10.788   3.774 -3.3621  0.0682 -0.3096
  863MOL0     H16500   2.957  10.764   3.611 -0.0068 -2.3935 -1.5773
  863MOL0     H16501   2.870  10.412   3.794 -2.9189  0.4928 -3.5462
  863MOL0     H16502   3.477  11.110   3.257  0.8139  0.6662 -2.0413
  863MOL0     H16503   3.502  11.274   3.099  1.4124 -1.5735 -0.7646
  863MOL0     H16504   3.400  11.284   2.960 -0.9319 -2.2570  0.3431
  863MOL0     H16505   3.344  11.366   3.108 -0.3890 -0.6980 -1.0250
  864MOL0     O16506   0.840   7.454   7.314  0.1723 -0.0198  0.1230
  864MOL0     C16507   0.792   7.442   7.429  0.0879  0.0419  0.1906
  864MOL0     O16508   0.822   7.516   7.535 -0.1667 -0.2124 -0.2998
  864MOL0     C16509   0.938   7.572   7.533 -0.1113  0.6063 -0.4059
  864MOL0     C16510   0.963   7.688   7.465  0.6167  0.1286 -0.1638
  864MOL0     C16511   1.078   7.760   7.479 -1.4852 -0.0866 -0.0890
  864MOL0     C16512   1.171   7.732   7.580 -0.0368 -0.1191  0.9713
  864MOL0     O16513   1.279   7.819   7.593 -0.7346 -0.4348 -0.2249
  864MOL0     C16514   1.383   7.788   7.684  0.7585 -0.2387 -0.6869
  864MOL0     C16515   1.515   7.770   7.618 -0.4339 -0.0215 -0.2191
  864MOL0     C16516   1.561   7.629   7.582 -0.7231  0.8846 -0.0299
  864MOL0     C16517   1.481   7.553   7.487  0.5732  0.2663  0.5776
  864MOL0     C16518   1.551   7.443   7.418 -0.9558  0.1499 -0.2681
  864MOL0     C16519   1.626   7.480   7.293  0.8428  0.5304  0.1553
  864MOL0     C16520   1.717   7.368   7.264  0.3426  1.2756 -1.1309
  864MOL0     C16521   1.768   7.400   7.129 -0.0046 -0.5354 -0.6983
  864MOL0     N16522   1.833   7.287   7.067  1.2931 -0.1784  0.4957
  864MOL0     C16523   1.774   7.161   7.075 -0.3360 -0.7112 -0.7416
  864MOL0     C16524   1.837   7.098   6.977  0.9304 -0.0822  0.5454
  864MOL0     C16525   1.818   6.949   6.963  0.5438  0.0622 -0.4744
  864MOL0     C16526   1.947   6.859   6.933 -0.3701  0.5415  0.5012
  864MOL0     C16527   1.914   6.707   6.941 -0.2321  0.8516  0.0383
  864MOL0     C16528   1.998   6.613   6.846 -0.6438  0.6076 -0.3720
  864MOL0     O16529   2.136   6.642   6.852 -0.5025  0.0751  0.6373
  864MOL0     C16530   2.204   6.602   6.957 -0.5667 -0.3316  1.1872
  864MOL0     C16531   2.253   6.703   7.034 -0.5403 -0.3549 -0.6191
  864MOL0     C16532   2.337   6.680   7.147  0.5317  0.3984  0.5145
  864MOL0     C16533   2.360   6.544   7.183  0.3671  0.5536  0.1142
  864MOL0     C16534   2.434   6.503   7.297 -0.1165 -0.7687  0.1550
  864MOL0     O16535   2.535   6.582   7.346  0.2061 -0.1378  0.3742
  864MOL0     C16536   2.615   6.552   7.454 -0.0181 -0.9258  0.3560
  864MOL0     C16537   2.582   6.493   7.577  0.8847 -0.0282 -0.5095
  864MOL0     C16538   2.673   6.466   7.684 -0.5816  0.7319  0.2349
  864MOL0     C16539   2.807   6.499   7.662  0.0905  0.1160  0.1233
  864MOL0     O16540   2.885   6.461   7.761 -0.3690  0.7201 -0.2970
  864MOL0     C16541   3.027   6.486   7.760 -0.2708 -0.5915 -0.6272
  864MOL0     C16542   3.109   6.406   7.873 -0.2749  0.2903 -0.2757
  864MOL0     C16543   3.059   6.262   7.888 -0.2966  0.0097 -0.3453
  864MOL0     C16544   3.138   6.186   7.997 -0.6499 -0.4998 -0.3464
  864MOL0     C16545   3.068   6.051   8.013  0.0141 -0.2625  0.1913
  864MOL0     C16546   3.145   5.954   8.100 -0.2545 -0.2762  0.2237
  864MOL0     C16547   3.258   5.879   8.025  0.2371  0.1287 -0.4735
  864MOL0     C16548   3.343   5.794   8.105 -0.7602 -0.8082 -0.4161
  864MOL0    Cl16549   3.439   5.882   8.229 -0.2767 -0.4272  0.6557
  864MOL0     C16550   2.834   6.579   7.549 -0.3797 -0.0009 -0.1392
  864MOL0     C16551   2.747   6.601   7.447 -1.2937 -0.3688 -1.1529
  864MOL0     O16552   2.393   6.404   7.355  0.2213  0.6678  0.8599
  864MOL0     C16553   2.307   6.441   7.099 -0.7140  0.3562  0.1585
  864MOL0     C16554   2.223   6.471   6.988 -0.1391 -0.0802 -0.7665
  864MOL0     N16555   1.929   7.171   6.915 -0.3591  0.3854  0.6116
  864MOL0     N16556   1.938   7.284   6.974 -0.4206 -0.6153  0.8252
  864MOL0     C16557   1.148   7.611   7.656  0.6463  0.5830 -0.1112
  864MOL0     C16558   1.035   7.531   7.630  0.2937 -0.7927 -0.2110
  864MOL0     C16559   0.674   7.356   7.444 -0.1655 -0.3986  0.1918
  864MOL0     C16560   0.556   7.368   7.363 -0.5425 -0.4886 -0.4023
  864MOL0     C16561   0.441   7.297   7.405 -0.1447  1.0770 -0.2723
  864MOL0     C16562   0.425   7.223   7.521 -0.3841 -0.4999 -0.5115
  864MOL0     O16563   0.300   7.176   7.548 -0.0411  0.3008 -0.0528
  864MOL0     C16564   0.274   7.109   7.675  0.4008 -0.5169  0.9197
  864MOL0     C16565   0.121   7.094   7.669 -0.0839 -0.6554  0.4451
  864MOL0     C16566   0.069   7.045   7.801 -0.7118  0.0161 -0.8968
  864MOL0     C16567   0.104   6.900   7.845  0.5252 -0.5592  0.2773
  864MOL0     C16568   0.048   6.797   7.764  0.3995 -0.3183  0.8969
  864MOL0     C16569   0.015   6.714   7.680 -0.9544 -0.8030 -0.4612
  864MOL0     C16570   0.540   7.202   7.593 -0.1666  0.7248  0.5050
  864MOL0     C16571   0.670   7.260   7.553  0.5204 -0.1571 -0.2669
  864MOL0     C16572   0.794   7.238   7.640 -0.4273  0.2916 -1.0129
  864MOL0     H16573   0.892   7.734   7.398 -0.2854  0.1456  0.7752
  864MOL0     H16574   1.099   7.852   7.426  1.8754 -0.6723  0.0016
  864MOL0     H16575   1.385   7.875   7.750 -0.0101 -0.6269 -0.1329
  864MOL0     H16576   1.354   7.693   7.730 -3.1132 -0.4755 -3.0939
  864MOL0     H16577   1.588   7.793   7.696  1.7720  2.7372 -2.8254
  864MOL0     H16578   1.521   7.841   7.535 -0.2918  0.7256  0.4235
  864MOL0     H16579   1.568   7.576   7.677 -0.1423  0.3220 -0.3774
  864MOL0     H16580   1.667   7.626   7.557 -0.0815  2.2002  2.2706
  864MOL0     H16581   1.391   7.521   7.540  0.0564  1.6208  0.5466
  864MOL0     H16582   1.443   7.622   7.412 -0.7675  0.3704  1.3256
  864MOL0     H16583   1.618   7.397   7.492 -1.8734 -2.3518 -0.8964
  864MOL0     H16584   1.482   7.364   7.387 -1.3267  1.1514 -2.1281
  864MOL0     H16585   1.548   7.504   7.220  2.9585  3.2585 -1.3683
  864MOL0     H16586   1.682   7.573   7.306 -0.6484  1.6298 -1.0059
  864MOL0     H16587   1.659   7.275   7.261  1.1141  0.8146 -2.8387
  864MOL0     H16588   1.795   7.367   7.340 -1.8851 -3.8278  1.5715
  864MOL0     H16589   1.681   7.429   7.069 -1.5800 -0.0617  1.7168
  864MOL0     H16590   1.845   7.478   7.138 -1.1325  0.6574 -1.0746
  864MOL0     H16591   1.698   7.118   7.139 -0.3119  0.7025  0.2973
  864MOL0     H16592   1.779   6.924   7.062  0.4423 -0.5204 -0.6548
  864MOL0     H16593   1.740   6.924   6.891 -0.9990 -0.3334  1.2681
  864MOL0     H16594   1.978   6.878   6.830  0.6776 -0.6466  0.5720
  864MOL0     H16595   2.027   6.885   7.002 -0.2704  0.8196  0.2833
  864MOL0     H16596   1.806   6.694   6.937 -0.3819  2.1144 -0.2136
  864MOL0     H16597   1.932   6.687   7.047  2.0215  2.4874  0.0418
  864MOL0     H16598   1.970   6.629   6.741 -1.6035  3.0315  0.2011
  864MOL0     H16599   1.985   6.507   6.870 -1.7483  0.8238  0.0038
  864MOL0     H16600   2.231   6.802   6.996  0.9135 -0.3344 -1.5011
  864MOL0     H16601   2.358   6.768   7.208  2.7463  0.6890 -0.5531
  864MOL0     H16602   2.481   6.454   7.590  0.5303  1.2982  1.1440
  864MOL0     H16603   2.644   6.421   7.779  0.6046 -0.2012  0.1769
  864MOL0     H16604   3.065   6.467   7.659 -0.5554  1.6107 -1.2127
  864MOL0     H16605   3.049   6.592   7.773  0.4798 -0.6280 -1.5204
  864MOL0     H16606   3.216   6.416   7.854 -0.0969  3.1201  1.6758
  864MOL0     H16607   3.091   6.447   7.973 -0.0330 -1.1122  0.3603
  864MOL0     H16608   2.955   6.278   7.917 -0.3945  1.9049 -1.5453
  864MOL0     H16609   3.053   6.208   7.792  0.5707 -0.6436 -0.0478
  864MOL0     H16610   3.127   6.250   8.084 -1.7987 -0.2780 -0.6380
  864MOL0     H16611   3.240   6.176   7.958 -0.1401 -0.9145  1.0279
  864MOL0     H16612   3.058   6.002   7.915 -1.3421  0.6403 -0.1594
  864MOL0     H16613   2.971   6.056   8.064  0.0079 -1.6538  0.3510
  864MOL0     H16614   3.181   6.019   8.180  0.9041 -0.2774 -0.2682
  864MOL0     H16615   3.078   5.876   8.137  0.8572 -2.0445 -1.3360
  864MOL0     H16616   3.309   5.952   7.962  0.7644 -0.0875 -0.2988
  864MOL0     H16617   3.226   5.802   7.955  5.2437 -1.3558 -1.4491
  864MOL0     H16618   3.282   5.719   8.155  0.3802 -0.7145  1.2208
  864MOL0     H16619   3.406   5.735   8.038 -1.1611 -0.4835 -1.0885
  864MOL0     H16620   2.931   6.625   7.539  0.8876 -1.5776  3.3673
  864MOL0     H16621   2.768   6.665   7.362 -4.2930  2.9756  0.3554
  864MOL0     H16622   2.339   6.339   7.117  0.1403  0.8049  1.3427
  864MOL0     H16623   2.196   6.394   6.917  2.2607 -0.1157 -1.7171
  864MOL0     H16624   1.204   7.565   7.737 -0.5658 -0.2964  0.2570
  864MOL0     H16625   1.028   7.451   7.702  1.0250  0.7749  1.7112
  864MOL0     H16626   0.551   7.413   7.264 -1.2140  2.3010  0.8195
  864MOL0     H16627   0.359   7.315   7.335  1.0321  1.8907 -1.5155
  864MOL0     H16628   0.299   7.176   7.758  2.0642  1.1302 -0.8063
  864MOL0     H16629   0.342   7.023   7.677  1.0743 -0.0028  0.5043
  864MOL0     H16630   0.094   7.034   7.582 -1.4662 -1.5004  1.4123
  864MOL0     H16631   0.070   7.188   7.644 -0.3643 -1.4224 -2.1871
  864MOL0     H16632  -0.039   7.058   7.810 -0.4481  3.5706 -1.2948
  864MOL0     H16633   0.102   7.126   7.865  0.2515  0.8494 -2.3786
  864MOL0     H16634   0.213   6.898   7.854  0.7821 -0.5619 -2.3237
  864MOL0     H16635   0.055   6.884   7.942 -0.3551 -0.5349 -0.1528
  864MOL0     H16636  -0.002   6.649   7.597  0.2916  1.1653 -2.3880
  864MOL0     H16637   0.537   7.154   7.691 -1.7157  0.2642  0.2652
  864MOL0     H16638   0.790   7.143   7.694  0.4467  2.1998  2.7529
  864MOL0     H16639   0.885   7.242   7.579 -1.2913 -2.3835 -2.6502
  864MOL0     H16640   0.816   7.319   7.711  2.4343 -0.7183 -0.5879
  865MOL0     O16641   6.417   7.108   4.370 -0.0460  1.1253  0.2640
  865MOL0     C16642   6.384   7.080   4.484 -0.3950  0.0077 -0.5229
  865MOL0     O16643   6.456   7.005   4.581  0.1568  0.1139  0.0353
  865MOL0     C16644   6.587   6.978   4.564 -0.8969 -0.2594  0.0233
  865MOL0     C16645   6.678   7.053   4.494 -0.2297 -0.0263 -0.5823
  865MOL0     C16646   6.813   7.022   4.500 -0.2680 -1.2630 -0.1501
  865MOL0     C16647   6.865   6.906   4.551  0.3424  0.8293 -0.8645
  865MOL0     O16648   6.997   6.860   4.548 -0.0386  0.1810 -0.1537
  865MOL0     C16649   7.076   6.928   4.457 -0.2204  0.0023 -1.0555
  865MOL0     C16650   7.211   6.866   4.483  0.3657  1.5256  0.2821
  865MOL0     C16651   7.306   6.859   4.357  0.4650  0.4156  0.2818
  865MOL0     C16652   7.303   6.989   4.279 -1.1733  0.2021  0.3288
  865MOL0     C16653   7.433   7.035   4.211  0.6620 -0.5673  0.1841
  865MOL0     C16654   7.455   6.942   4.101  0.1989  0.8973 -0.2632
  865MOL0     C16655   7.585   6.951   4.021 -1.0242  0.1637 -0.2489
  865MOL0     C16656   7.597   7.087   3.946 -0.1772  0.0924 -1.1473
  865MOL0     N16657   7.745   7.123   3.919  0.1098 -0.7693  0.3412
  865MOL0     C16658   7.811   7.205   4.002  0.3678 -0.2832 -0.4808
  865MOL0     C16659   7.930   7.229   3.945 -0.0871  1.2712 -0.0305
  865MOL0     C16660   8.027   7.322   4.009 -1.5863 -0.4836 -0.3631
  865MOL0     C16661   8.178   7.271   3.988  0.0371  0.4814 -0.4699
  865MOL0     C16662   8.284   7.357   4.063 -0.7187  0.5828 -0.2563
  865MOL0     C16663   8.413   7.278   4.044 -0.8336  0.4997  0.2863
  865MOL0     O16664   8.516   7.361   4.108  0.5373 -0.1787 -0.5123
  865MOL0     C16665   8.650   7.328   4.100  0.5493 -0.0123  0.1878
  865MOL0     C16666   8.691   7.210   4.044  0.3720 -0.3665  0.1771
  865MOL0     C16667   8.833   7.179   4.061  0.7616  0.7544  0.3547
  865MOL0     C16668   8.917   7.252   4.146  0.7296 -0.1699 -0.0678
  865MOL0     C16669   9.054   7.204   4.176  0.2065 -0.2271  0.5423
  865MOL0     O16670   9.110   7.116   4.095 -0.7329  0.2717 -0.0089
  865MOL0     C16671   9.233   7.060   4.120 -0.2155 -0.0110  0.4366
  865MOL0     C16672   9.258   6.922   4.128 -0.0314 -0.1925 -0.2041
  865MOL0     C16673   9.391   6.885   4.155 -0.4659  0.2490  0.0772
  865MOL0     C16674   9.502   6.976   4.161 -0.2193  0.6338 -0.3049
  865MOL0     O16675   9.635   6.941   4.184  0.5483 -0.7680 -0.4153
  865MOL0     C16676   9.692   6.857   4.083  0.4017  0.1519  1.0679
  865MOL0     C16677   9.766   6.750   4.146  0.2606  0.5914  0.4931
  865MOL0     C16678   9.893   6.803   4.211 -0.5984  0.0564 -0.1257
  865MOL0     C16679   9.903   6.767   4.362 -0.1336 -0.0787  0.6882
  865MOL0     C16680  10.051   6.754   4.404 -0.5300  0.2833  0.0705
  865MOL0     C16681  10.079   6.740   4.556  0.4986 -0.2476  0.7664
  865MOL0     C16682  10.227   6.694   4.560  0.0515  0.7148  0.4441
  865MOL0     C16683  10.295   6.745   4.687  0.7506 -0.1849 -0.4205
  865MOL0    Cl16684  10.199   6.675   4.812 -0.1009  0.0193 -0.0476
  865MOL0     C16685   9.470   7.112   4.161 -0.4318 -0.8007  1.0247
  865MOL0     C16686   9.342   7.145   4.135 -0.7418  0.4558 -0.3679
  865MOL0     O16687   9.104   7.246   4.283  0.0661 -0.4720 -0.3315
  865MOL0     C16688   8.861   7.374   4.196 -0.4638 -0.6119 -0.6352
  865MOL0     C16689   8.732   7.409   4.176 -0.1762 -0.2995 -0.1553
  865MOL0     N16690   7.937   7.162   3.825  0.3597 -0.2924 -0.7809
  865MOL0     N16691   7.819   7.107   3.802  0.4415  0.4311 -0.8385
  865MOL0     C16692   6.769   6.822   4.615 -0.5224 -0.0338  0.3922
  865MOL0     C16693   6.633   6.861   4.620 -0.5374 -0.4439  0.3109
  865MOL0     C16694   6.252   7.130   4.526 -0.4629  0.2085 -0.1917
  865MOL0     C16695   6.154   7.134   4.430  0.0788  0.7059 -0.1260
  865MOL0     C16696   6.025   7.167   4.468  0.3455  0.1811  0.0595
  865MOL0     C16697   5.995   7.202   4.600 -0.2934 -0.0857 -0.6346
  865MOL0     O16698   5.870   7.241   4.638 -0.1970 -0.2800 -0.5405
  865MOL0     C16699   5.812   7.343   4.561 -0.5664 -0.1067  0.6267
  865MOL0     C16700   5.730   7.442   4.648 -0.7006  0.3327 -0.5787
  865MOL0     C16701   5.584   7.388   4.649  0.1888 -0.6432 -0.2261
  865MOL0     C16702   5.505   7.493   4.729 -0.3011 -0.1521  0.3283
  865MOL0     C16703   5.510   7.621   4.653  0.9519 -0.9369  0.5467
  865MOL0     C16704   5.524   7.717   4.577  0.1980  0.7363 -0.5509
  865MOL0     C16705   6.096   7.199   4.695 -0.0744 -1.1207  0.2021
  865MOL0     C16706   6.230   7.167   4.662  1.3340 -0.8392 -1.0432
  865MOL0     C16707   6.331   7.181   4.779  0.4392 -0.4839  0.6258
  865MOL0     H16708   6.649   7.148   4.450 -1.4181 -1.3377 -2.8153
  865MOL0     H16709   6.879   7.094   4.453 -0.7558 -1.7395 -1.6049
  865MOL0     H16710   7.043   6.900   4.357  0.1013  0.8524 -1.4064
  865MOL0     H16711   7.076   7.034   4.485 -2.3403 -0.0386 -0.6743
  865MOL0     H16712   7.198   6.763   4.517  1.0408  0.2731 -2.8353
  865MOL0     H16713   7.262   6.916   4.565  2.3302  2.8573 -1.6583
  865MOL0     H16714   7.284   6.776   4.288 -1.1348  1.6814 -0.8029
  865MOL0     H16715   7.407   6.842   4.395  1.1613  1.9078 -0.8425
  865MOL0     H16716   7.223   6.983   4.204 -0.6333  0.6272 -0.2814
  865MOL0     H16717   7.277   7.066   4.352 -1.8513  0.6658 -0.3874
  865MOL0     H16718   7.415   7.137   4.173  1.5975 -0.5428 -0.2198
  865MOL0     H16719   7.520   7.040   4.277 -1.1504  1.3836  2.6372
  865MOL0     H16720   7.452   6.835   4.126 -0.4469  1.0814  0.5001
  865MOL0     H16721   7.375   6.959   4.028  0.3759 -1.5414 -1.1194
  865MOL0     H16722   7.596   6.866   3.952 -1.0654 -0.0742  0.0353
  865MOL0     H16723   7.664   6.950   4.097 -0.3238  0.4575 -0.9497
  865MOL0     H16724   7.544   7.090   3.850  0.2016  1.0893 -1.3312
  865MOL0     H16725   7.552   7.166   4.007  0.3645  0.1494 -0.8144
  865MOL0     H16726   7.777   7.232   4.102  0.0123 -2.0627 -0.0887
  865MOL0     H16727   8.006   7.422   3.971 -0.6298  0.6602  1.9658
  865MOL0     H16728   8.002   7.315   4.115  1.1317  1.8701  0.5480
  865MOL0     H16729   8.196   7.165   4.007  4.1807  1.4663  2.5556
  865MOL0     H16730   8.205   7.289   3.883  1.2367  1.2691 -0.0556
  865MOL0     H16731   8.269   7.373   4.170  3.0139  1.4545  0.2536
  865MOL0     H16732   8.287   7.457   4.018  0.3370 -0.0278 -1.6340
  865MOL0     H16733   8.431   7.268   3.937 -3.0492 -2.4288  0.0579
  865MOL0     H16734   8.415   7.175   4.082 -4.1271 -0.3956 -1.5346
  865MOL0     H16735   8.617   7.145   3.998 -2.8022  0.5595  3.5237
  865MOL0     H16736   8.876   7.088   4.021  2.3533  1.3036  0.7393
  865MOL0     H16737   9.183   6.844   4.116 -0.4795  0.3620 -1.0797
  865MOL0     H16738   9.407   6.778   4.163  1.0253  0.4587  0.1348
  865MOL0     H16739   9.613   6.814   4.020  1.3555 -2.6767  1.6775
  865MOL0     H16740   9.760   6.906   4.012  0.2249  1.1360  1.5565
  865MOL0     H16741   9.691   6.696   4.206  2.1940 -2.1963  0.5731
  865MOL0     H16742   9.799   6.681   4.068  2.1617 -1.3384  2.8495
  865MOL0     H16743   9.979   6.756   4.162 -1.7351 -2.3571  0.0283
  865MOL0     H16744   9.899   6.912   4.214 -0.0854  0.0228  0.1909
  865MOL0     H16745   9.855   6.669   4.362 -2.0398  0.7994 -0.2811
  865MOL0     H16746   9.846   6.830   4.431 -0.6367  0.5188 -0.2499
  865MOL0     H16747  10.112   6.834   4.360  2.4348 -2.2122 -0.6782
  865MOL0     H16748  10.089   6.669   4.347  2.6619  1.3862  0.3890
  865MOL0     H16749  10.051   6.832   4.608 -1.2586 -0.1622 -0.2463
  865MOL0     H16750  10.015   6.660   4.594 -1.7287  2.8702  4.2018
  865MOL0     H16751  10.290   6.722   4.475  0.8304  0.3731  0.9036
  865MOL0     H16752  10.220   6.585   4.559 -1.2295  0.7650  1.4934
  865MOL0     H16753  10.397   6.707   4.687  0.1250 -1.9797 -1.1023
  865MOL0     H16754  10.298   6.855   4.685 -1.9950  0.0264  1.0473
  865MOL0     H16755   9.549   7.187   4.153 -0.9671 -0.0595  2.3400
  865MOL0     H16756   9.320   7.251   4.134  2.1055  1.1477 -1.0921
  865MOL0     H16757   8.924   7.437   4.257  0.6899  1.7574 -3.9632
  865MOL0     H16758   8.693   7.494   4.231 -1.2093 -0.8037 -0.0801
  865MOL0     H16759   6.798   6.731   4.667 -3.1553  0.0345  2.1436
  865MOL0     H16760   6.568   6.805   4.687 -0.8572 -0.9093 -0.3825
  865MOL0     H16761   6.167   7.106   4.326  0.2878 -2.1091  0.5537
  865MOL0     H16762   5.943   7.173   4.398 -1.1219  2.5347  1.8383
  865MOL0     H16763   5.757   7.313   4.472  1.5116  1.5654 -1.3244
  865MOL0     H16764   5.893   7.405   4.522 -0.9518 -0.3646 -0.6132
  865MOL0     H16765   5.749   7.537   4.596 -0.2410  1.6547  1.8424
  865MOL0     H16766   5.764   7.448   4.752 -5.3887  0.5254  1.1698
  865MOL0     H16767   5.575   7.298   4.710 -1.2410 -1.2002 -1.2127
  865MOL0     H16768   5.537   7.378   4.551  0.4955  0.9122 -0.5643
  865MOL0     H16769   5.399   7.465   4.737  0.2912 -3.5008 -1.7226
  865MOL0     H16770   5.548   7.512   4.828  2.6024  4.2718 -1.4801
  865MOL0     H16771   5.534   7.792   4.502  1.7392 -1.7831 -3.0590
  865MOL0     H16772   6.052   7.234   4.788 -1.9178  2.2525 -1.7412
  865MOL0     H16773   6.431   7.213   4.748 -0.3002  0.3688 -1.0541
  865MOL0     H16774   6.292   7.262   4.841 -0.9254 -0.4046 -0.2862
  865MOL0     H16775   6.335   7.084   4.829 -1.4265 -0.6142  0.5987
  866MOL0     O16776  10.488  10.347   0.062  0.0068  0.6462 -0.4954
  866MOL0     C16777  10.487  10.293   0.172  0.0506 -0.6511 -0.5893
  866MOL0     O16778  10.566  10.196   0.211 -0.5219  0.0314  0.2750
  866MOL0     C16779  10.671  10.167   0.124 -0.3473  0.6292  0.1571
  866MOL0     C16780  10.649  10.116  -0.004 -0.3392  0.3318  0.5690
  866MOL0     C16781  10.764  10.084  -0.086  0.1231  0.2604  0.3916
  866MOL0     C16782  10.893  10.104  -0.048 -0.1054 -0.5469  0.4648
  866MOL0     O16783  11.005  10.097  -0.112  0.3362 -1.0014  0.3038
  866MOL0     C16784  11.016  10.099  -0.256 -0.3073 -0.4815  0.2992
  866MOL0     C16785  11.012  10.240  -0.321  0.4756  0.7104 -0.2867
  866MOL0     C16786  11.035  10.374  -0.239  0.3666  0.5197  0.5200
  866MOL0     C16787  11.051  10.497  -0.333 -0.7766 -0.3597 -0.3439
  866MOL0     C16788  11.051  10.636  -0.260 -0.5095 -0.1922  0.6911
  866MOL0     C16789  10.972  10.659  -0.137  0.1765  0.9195 -0.1265
  866MOL0     C16790  10.999  10.786  -0.075 -0.4417 -0.0924 -0.7347
  866MOL0     C16791  10.952  10.904  -0.169 -0.6501 -0.0725  0.9559
  866MOL0     N16792  10.919  11.020  -0.092  0.1538 -0.0707  0.7944
  866MOL0     C16793  10.794  11.040  -0.038 -1.1056  0.0166  0.3073
  866MOL0     C16794  10.803  11.160   0.026  0.0022  0.7067 -0.2301
  866MOL0     C16795  10.694  11.233   0.097  0.5344 -0.4652  0.4259
  866MOL0     C16796  10.712  11.251   0.245 -0.8133  0.5831 -0.0223
  866MOL0     C16797  10.578  11.268   0.321  0.3752  0.7532 -1.1688
  866MOL0     C16798  10.624  11.264   0.466  1.3545  0.4125  0.7615
  866MOL0     O16799  10.517  11.274   0.564 -0.2973 -1.1492 -0.2785
  866MOL0     C16800  10.543  11.243   0.699 -0.0377  0.5885  0.1866
  866MOL0     C16801  10.675  11.221   0.734 -0.0753 -0.3708 -0.4433
  866MOL0     C16802  10.706  11.176   0.861  0.2854  0.5465  0.1716
  866MOL0     C16803  10.603  11.168   0.957 -0.3945 -0.8181 -1.3394
  866MOL0     C16804  10.634  11.154   1.104  1.0730 -0.0460  0.2974
  866MOL0     O16805  10.773  11.141   1.129  0.1897  0.5354  0.0591
  866MOL0     C16806  10.799  11.091   1.252 -1.4389  0.1821  0.2782
  866MOL0     C16807  10.764  10.954   1.276 -0.5760 -0.0236  0.1259
  866MOL0     C16808  10.790  10.896   1.396 -0.3414  0.1810 -0.1608
  866MOL0     C16809  10.850  10.962   1.499  0.1743 -0.3803 -0.2755
  866MOL0     O16810  10.843  10.904   1.623 -0.5897 -0.8951 -0.6285
  866MOL0     C16811  10.971  10.899   1.690 -0.4015  0.5318  0.2977
  866MOL0     C16812  11.047  10.767   1.658 -0.1951  0.4784  0.0975
  866MOL0     C16813  10.970  10.638   1.667  0.0996  0.5758 -0.4510
  866MOL0     C16814  10.927  10.603   1.809  0.2319 -0.9890  0.0786
  866MOL0     C16815  10.847  10.469   1.828 -0.2431  0.2443  1.5862
  866MOL0     C16816  10.709  10.466   1.760 -0.1534 -0.5442  1.2906
  866MOL0     C16817  10.610  10.583   1.797 -0.8986  0.2726 -0.1010
  866MOL0     C16818  10.469  10.559   1.754 -0.0650  0.3224 -0.1907
  866MOL0    Cl16819  10.417  10.391   1.830 -0.2868  0.1696 -0.2887
  866MOL0     C16820  10.896  11.100   1.474  0.0677  0.2297 -0.5737
  866MOL0     C16821  10.872  11.158   1.353 -0.4267 -0.5664 -0.6709
  866MOL0     O16822  10.547  11.143   1.190 -0.2226  0.2284  0.9296
  866MOL0     C16823  10.470  11.191   0.918  0.4218  0.0833  0.2853
  866MOL0     C16824  10.443  11.231   0.791 -0.6554 -0.2932  0.8512
  866MOL0     N16825  10.932  11.213   0.012  0.2016  0.4259  0.3841
  866MOL0     N16826  10.996  11.127  -0.065  0.7826  0.4161  0.2941
  866MOL0     C16827  10.908  10.163   0.077  0.6247  0.4634 -0.1624
  866MOL0     C16828  10.803  10.194   0.167  0.3766  0.1544 -0.6220
  866MOL0     C16829  10.397  10.346   0.268  0.4449  0.2755  0.1472
  866MOL0     C16830  10.265  10.379   0.228  0.1397 -0.1682 -0.4788
  866MOL0     C16831  10.161  10.407   0.326  0.7293 -0.3726 -0.5079
  866MOL0     C16832  10.197  10.408   0.458 -0.6265  0.3958 -0.3466
  866MOL0     O16833  10.114  10.434   0.569  0.4845  0.2257 -0.0392
  866MOL0     C16834  10.103  10.570   0.626 -0.1121  0.3839  0.1366
  866MOL0     C16835   9.993  10.636   0.546  0.1480  0.6590  0.0721
  866MOL0     C16836   9.972  10.780   0.602 -0.4171 -0.3294  0.1343
  866MOL0     C16837  10.068  10.881   0.542 -0.6702 -0.6469  1.0445
  866MOL0     C16838  10.115  10.954   0.660  1.1851 -0.1790  0.3980
  866MOL0     C16839  10.128  11.030   0.753  0.1498 -0.0913 -0.0449
  866MOL0     C16840  10.327  10.368   0.501 -0.8964  0.1733  0.3576
  866MOL0     C16841  10.427  10.351   0.410  0.8165  0.0184  0.7393
  866MOL0     C16842  10.572  10.362   0.462  1.6161 -0.2142 -0.1610
  866MOL0     H16843  10.546  10.110  -0.039  0.4532  0.0519 -1.9512
  866MOL0     H16844  10.746  10.050  -0.188  1.6852 -3.5466  1.2326
  866MOL0     H16845  11.111  10.058  -0.291  2.3917  3.8803  1.6653
  866MOL0     H16846  10.950  10.028  -0.305 -0.6121 -0.5973  0.8640
  866MOL0     H16847  10.910  10.246  -0.361 -0.4391  1.6356  2.0092
  866MOL0     H16848  11.084  10.245  -0.403 -0.2611 -0.1295 -1.0139
  866MOL0     H16849  11.129  10.370  -0.183 -0.3534 -0.2047  1.7292
  866MOL0     H16850  10.952  10.388  -0.169  1.2876  2.2215  1.3394
  866MOL0     H16851  11.143  10.476  -0.389  0.4907  0.6926  1.2413
  866MOL0     H16852  10.975  10.474  -0.409  1.2166 -4.4007 -1.4163
  866MOL0     H16853  11.151  10.657  -0.222  0.0502  0.9701 -1.3057
  866MOL0     H16854  11.028  10.709  -0.338 -3.2765  0.1647  1.7291
  866MOL0     H16855  10.865  10.655  -0.163  0.0913 -0.3819  0.3744
  866MOL0     H16856  10.999  10.581  -0.065  0.8782 -0.7908 -2.1614
  866MOL0     H16857  11.104  10.796  -0.044 -1.0732  2.1084  0.8909
  866MOL0     H16858  10.938  10.783   0.016 -4.2363  0.7337 -3.0474
  866MOL0     H16859  11.036  10.925  -0.236 -3.4549  0.2781 -2.7936
  866MOL0     H16860  10.877  10.886  -0.247  0.2968 -0.6699  0.1511
  866MOL0     H16861  10.701  10.986  -0.051 -0.7759  0.1940 -4.3300
  866MOL0     H16862  10.687  11.338   0.064  2.4248 -0.1694  0.8436
  866MOL0     H16863  10.595  11.192   0.076  0.2378  1.1646 -1.7448
  866MOL0     H16864  10.763  11.160   0.279 -0.5601  1.0502  0.8679
  866MOL0     H16865  10.771  11.341   0.264 -0.5847  0.1987  1.1717
  866MOL0     H16866  10.501  11.195   0.293  0.5655  0.4050 -0.7765
  866MOL0     H16867  10.529  11.362   0.293  3.5296  2.9635  0.1691
  866MOL0     H16868  10.695  11.348   0.470  0.2665  1.4911 -1.1122
  866MOL0     H16869  10.674  11.167   0.471  1.5987  0.4354 -0.7974
  866MOL0     H16870  10.757  11.225   0.662 -1.9703 -4.5936 -3.2707
  866MOL0     H16871  10.809  11.169   0.894 -0.3499  1.7262  2.5981
  866MOL0     H16872  10.707  10.891   1.209 -2.4767  0.2075  1.4400
  866MOL0     H16873  10.756  10.798   1.428  2.6826 -0.8896  0.0802
  866MOL0     H16874  11.037  10.982   1.663 -1.9127  1.4784 -0.5927
  866MOL0     H16875  10.956  10.884   1.797 -2.6557 -2.8912 -0.3384
  866MOL0     H16876  11.078  10.764   1.553 -1.6490 -2.5888 -0.3677
  866MOL0     H16877  11.132  10.759   1.726  0.8059 -0.2540 -1.1939
  866MOL0     H16878  10.883  10.637   1.601  1.7043 -1.1796 -2.7108
  866MOL0     H16879  11.021  10.546   1.636 -1.6320 -0.4554 -0.3572
  866MOL0     H16880  10.854  10.679   1.839  1.3175 -0.0527  0.4193
  866MOL0     H16881  11.014  10.618   1.874  0.1414  3.4315 -0.5151
  866MOL0     H16882  10.841  10.453   1.936  1.6234  1.4117  1.9182
  866MOL0     H16883  10.895  10.383   1.780 -2.8849 -0.9676  0.9248
  866MOL0     H16884  10.714  10.459   1.651  2.2322  2.1576  1.1194
  866MOL0     H16885  10.674  10.369   1.797  0.3744 -1.6757 -1.0309
  866MOL0     H16886  10.662  10.664   1.745  1.8442  0.0284  1.9900
  866MOL0     H16887  10.603  10.596   1.906 -2.0445  1.4832 -0.3026
  866MOL0     H16888  10.417  10.646   1.796  0.6498  0.4397  0.4666
  866MOL0     H16889  10.451  10.551   1.646  0.9057  1.9861 -0.5149
  866MOL0     H16890  10.938  11.162   1.553  0.1560 -1.9007  1.1508
  866MOL0     H16891  10.910  11.258   1.336 -1.0681 -0.1070  0.4868
  866MOL0     H16892  10.400  11.188   1.001  1.3619 -1.6323  1.0534
  866MOL0     H16893  10.341  11.260   0.767 -0.0887  2.0385  1.0107
  866MOL0     H16894  11.010  10.189   0.101  0.8891 -0.0863 -0.6620
  866MOL0     H16895  10.819  10.243   0.262  1.6677 -0.3949 -0.5422
  866MOL0     H16896  10.240  10.364   0.124  1.3757 -1.6417 -0.5889
  866MOL0     H16897  10.059  10.436   0.305  0.8889  1.4171  0.9056
  866MOL0     H16898  10.192  10.632   0.621 -1.2742  2.0381 -2.4354
  866MOL0     H16899  10.069  10.564   0.730 -0.7786  0.1906 -0.0860
  866MOL0     H16900   9.906  10.569   0.548  2.2209 -2.3902 -2.2721
  866MOL0     H16901  10.014  10.634   0.438 -3.0461 -2.7537 -0.7203
  866MOL0     H16902   9.971  10.778   0.712  1.9771 -1.4483  0.2074
  866MOL0     H16903   9.872  10.811   0.572  0.4641  3.8025  0.8379
  866MOL0     H16904  10.154  10.832   0.496  1.9532  2.4740  2.2551
  866MOL0     H16905  10.028  10.961   0.479  1.0977 -0.1612  0.4840
  866MOL0     H16906  10.130  11.091   0.841 -3.0605  0.6996 -0.3912
  866MOL0     H16907  10.347  10.370   0.608  0.7840  0.5033  0.0526
  866MOL0     H16908  10.654  10.383   0.393  3.1513 -0.3123  1.5420
  866MOL0     H16909  10.585  10.443   0.535  2.8972 -0.4730 -0.0768
  866MOL0     H16910  10.597  10.268   0.511  0.0217  1.2667  3.9444
  867MOL0     O16911   2.553   3.737   1.670  0.0997  0.1287 -0.4854
  867MOL0     C16912   2.654   3.805   1.689  0.8186 -0.0317  0.5014
  867MOL0     O16913   2.757   3.814   1.611  0.5891 -0.3062  0.2926
  867MOL0     C16914   2.776   3.716   1.513 -0.3243 -0.8119 -0.1984
  867MOL0     C16915   2.785   3.578   1.539 -0.1758  0.3645  0.1733
  867MOL0     C16916   2.796   3.480   1.438  0.2347  0.5246  0.4656
  867MOL0     C16917   2.826   3.518   1.306  0.5077 -0.1510 -0.6985
  867MOL0     O16918   2.865   3.433   1.202  0.4446 -0.3657 -0.2543
  867MOL0     C16919   2.963   3.330   1.230  0.2965 -0.3072 -0.0762
  867MOL0     C16920   3.000   3.255   1.096 -0.8114  0.0734  0.1090
  867MOL0     C16921   3.130   3.312   1.028  0.6444 -0.2634 -0.0912
  867MOL0     C16922   3.187   3.215   0.915 -0.3274  0.0457 -0.1792
  867MOL0     C16923   3.327   3.244   0.869  1.0390  0.3589  0.2254
  867MOL0     C16924   3.382   3.125   0.807 -0.2145  0.1641  0.8803
  867MOL0     C16925   3.531   3.142   0.757  0.0935  0.1183 -0.0367
  867MOL0     C16926   3.581   3.225   0.637 -0.0335 -0.5763 -0.2970
  867MOL0     N16927   3.523   3.363   0.644 -0.1097 -0.3151  0.1653
  867MOL0     C16928   3.447   3.414   0.545  0.0390 -0.0599  1.2792
  867MOL0     C16929   3.467   3.547   0.538 -0.0083  0.0228  0.0598
  867MOL0     C16930   3.411   3.638   0.435  0.8666 -0.4226 -0.3056
  867MOL0     C16931   3.508   3.677   0.327 -0.8427 -0.1955 -0.0945
  867MOL0     C16932   3.509   3.557   0.226  0.4549 -0.5381 -0.2073
  867MOL0     C16933   3.658   3.535   0.191 -0.6492  0.8715 -0.7276
  867MOL0     O16934   3.722   3.501   0.310  0.2878  0.8650 -0.1510
  867MOL0     C16935   3.859   3.487   0.312  0.0041 -0.6013  0.3315
  867MOL0     C16936   3.911   3.480   0.444  0.5566  0.2653  0.2114
  867MOL0     C16937   4.051   3.450   0.462  0.1940  0.2515 -0.9973
  867MOL0     C16938   4.138   3.438   0.351 -0.0102  0.6160 -0.0607
  867MOL0     C16939   4.276   3.391   0.380 -1.1605 -0.3299 -0.4205
  867MOL0     O16940   4.314   3.382   0.511 -0.2587 -0.2616  0.1120
  867MOL0     C16941   4.433   3.324   0.553 -0.3907 -0.6726 -0.2545
  867MOL0     C16942   4.513   3.393   0.638 -0.0769 -0.5770  0.4767
  867MOL0     C16943   4.616   3.332   0.713  0.4005 -0.5872  0.8081
  867MOL0     C16944   4.638   3.195   0.706 -0.6892 -0.1701  0.1321
  867MOL0     O16945   4.742   3.124   0.767  0.3677  0.7672 -0.3992
  867MOL0     C16946   4.860   3.197   0.802 -0.4875 -0.4211  0.0468
  867MOL0     C16947   4.865   3.248   0.942 -0.0148 -0.4875  0.8095
  867MOL0     C16948   4.996   3.331   0.963 -0.3263 -0.6071  0.2312
  867MOL0     C16949   5.045   3.330   1.114 -0.5634  0.0652  0.1853
  867MOL0     C16950   4.925   3.359   1.210 -0.0603 -0.4303 -0.1245
  867MOL0     C16951   4.970   3.400   1.354 -0.0210  0.1191 -0.3796
  867MOL0     C16952   4.852   3.423   1.447 -0.5885  0.7841  0.1677
  867MOL0     C16953   4.803   3.565   1.433  0.2224  0.2266 -0.4990
  867MOL0    Cl16954   4.924   3.683   1.495  0.1492 -0.6445  0.4159
  867MOL0     C16955   4.557   3.121   0.614 -0.3925 -1.0207  0.7753
  867MOL0     C16956   4.454   3.189   0.545  0.5966 -0.6622 -0.9617
  867MOL0     O16957   4.345   3.350   0.291 -0.3711 -0.3773  0.0249
  867MOL0     C16958   4.084   3.450   0.220  0.5443  0.5829 -0.1705
  867MOL0     C16959   3.950   3.482   0.200 -0.3790  0.1444  0.3933
  867MOL0     N16960   3.545   3.578   0.651  0.1150  0.3447  0.3642
  867MOL0     N16961   3.589   3.471   0.708  0.7542 -1.1746  0.3815
  867MOL0     C16962   2.834   3.660   1.281 -0.2331 -0.5928  0.4776
  867MOL0     C16963   2.814   3.757   1.387 -0.7662  0.5235  0.9982
  867MOL0     C16964   2.649   3.892   1.802  0.7294 -0.5933 -0.5266
  867MOL0     C16965   2.753   3.983   1.824 -0.6252  0.3288 -0.3383
  867MOL0     C16966   2.750   4.077   1.925  0.0788  0.3205  0.9468
  867MOL0     C16967   2.639   4.096   2.000 -0.7314  0.2647 -0.0755
  867MOL0     O16968   2.634   4.208   2.084 -0.7231 -0.5049  0.7027
  867MOL0     C16969   2.555   4.206   2.208  0.6147  0.2215  0.1921
  867MOL0     C16970   2.581   4.328   2.300 -0.0993  0.3495 -0.1092
  867MOL0     C16971   2.592   4.455   2.220 -0.2004  0.2716 -0.2708
  867MOL0     C16972   2.471   4.487   2.131  0.2495 -0.0426 -0.7828
  867MOL0     C16973   2.351   4.542   2.205 -0.0747  0.7568 -0.5413
  867MOL0     C16974   2.249   4.562   2.274 -0.6298  0.0771  1.1602
  867MOL0     C16975   2.537   4.002   1.992 -0.5241  0.1845 -0.2055
  867MOL0     C16976   2.540   3.902   1.899 -0.6700  0.9414 -0.4916
  867MOL0     C16977   2.423   3.803   1.919  0.2446 -0.1861  0.0889
  867MOL0     H16978   2.774   3.549   1.643  1.0261  3.2330  1.2120
  867MOL0     H16979   2.792   3.372   1.448 -3.4742  0.3984 -0.8595
  867MOL0     H16980   3.042   3.364   1.297  0.1574  1.1404 -0.6149
  867MOL0     H16981   2.909   3.253   1.287 -1.7186  0.1185 -1.2730
  867MOL0     H16982   2.916   3.262   1.026  0.7463  0.8455 -1.7701
  867MOL0     H16983   3.004   3.147   1.116 -1.3748  0.0130 -0.0770
  867MOL0     H16984   3.208   3.320   1.104 -0.5040  0.0655  1.0853
  867MOL0     H16985   3.110   3.413   0.990  2.0172 -0.4620 -1.4745
  867MOL0     H16986   3.167   3.112   0.945 -3.8444 -0.0894 -2.4610
  867MOL0     H16987   3.122   3.225   0.828 -0.7809  0.6966  0.2258
  867MOL0     H16988   3.321   3.323   0.793 -1.1119  0.0787  0.0453
  867MOL0     H16989   3.391   3.272   0.953  0.9377  1.4323 -0.0384
  867MOL0     H16990   3.377   3.042   0.878 -1.4396  0.3507  1.0255
  867MOL0     H16991   3.323   3.079   0.727  1.2058 -2.1561  1.0812
  867MOL0     H16992   3.569   3.042   0.738  0.5882  0.0958  0.9938
  867MOL0     H16993   3.581   3.191   0.841  1.4009  4.3351 -2.9258
  867MOL0     H16994   3.690   3.212   0.640  0.1479  0.6749 -0.7908
  867MOL0     H16995   3.548   3.182   0.542 -1.9144  0.3402 -0.1061
  867MOL0     H16996   3.385   3.356   0.477  1.6269  1.1300 -1.3637
  867MOL0     H16997   3.325   3.592   0.387 -1.1076 -0.2954  2.8045
  867MOL0     H16998   3.376   3.731   0.481  5.2178  1.7303 -0.8161
  867MOL0     H16999   3.465   3.764   0.276  0.2353 -2.1674 -4.9910
  867MOL0     H17000   3.606   3.698   0.371 -1.7453  4.0573  0.3779
  867MOL0     H17001   3.466   3.587   0.129 -1.8100 -2.0948  0.2297
  867MOL0     H17002   3.454   3.471   0.264 -1.5258  1.1144  0.9363
  867MOL0     H17003   3.695   3.626   0.144  1.9518  0.7176  0.8339
  867MOL0     H17004   3.662   3.446   0.127 -0.6353  1.4933 -1.6166
  867MOL0     H17005   3.841   3.496   0.525  1.1863 -0.0436  0.8305
  867MOL0     H17006   4.071   3.428   0.567 -0.8617  1.7300 -0.4604
  867MOL0     H17007   4.520   3.501   0.647  3.3467 -0.6720  0.3713
  867MOL0     H17008   4.672   3.393   0.783  0.9217 -1.7625  1.4393
  867MOL0     H17009   4.944   3.128   0.786  1.1504  1.2114  1.1906
  867MOL0     H17010   4.878   3.283   0.737 -1.8252  0.1698  0.4235
  867MOL0     H17011   4.778   3.310   0.965  1.0234  2.0516 -1.5952
  867MOL0     H17012   4.855   3.158   1.003 -0.4958 -0.5274  0.6757
  867MOL0     H17013   5.070   3.284   0.897 -1.8608 -1.4619 -0.9576
  867MOL0     H17014   4.989   3.431   0.921  4.5782 -0.2833 -0.4683
  867MOL0     H17015   5.106   3.418   1.139 -2.4143  0.9121  2.0507
  867MOL0     H17016   5.092   3.235   1.140 -3.6035 -1.7491 -0.4809
  867MOL0     H17017   4.856   3.274   1.215  1.5937 -1.8698 -0.4201
  867MOL0     H17018   4.880   3.453   1.177 -3.4970 -1.1308  2.0034
  867MOL0     H17019   5.031   3.323   1.402 -2.1985 -0.6436  1.2903
  867MOL0     H17020   5.021   3.497   1.364  0.1949 -0.1671  1.5776
  867MOL0     H17021   4.892   3.410   1.549 -0.0796 -1.3454 -0.2397
  867MOL0     H17022   4.772   3.352   1.423  1.9083 -3.3583  2.6654
  867MOL0     H17023   4.784   3.586   1.327  0.9706  1.3913 -0.4215
  867MOL0     H17024   4.710   3.577   1.490 -1.4632 -1.3786 -2.7154
  867MOL0     H17025   4.564   3.014   0.598 -1.9290 -1.8107  4.3198
  867MOL0     H17026   4.376   3.126   0.504 -0.0142 -0.4813 -0.1047
  867MOL0     H17027   4.147   3.423   0.136 -0.0417 -0.2761 -0.3416
  867MOL0     H17028   3.920   3.485   0.096  2.2442 -0.4998 -0.4521
  867MOL0     H17029   2.862   3.692   1.181 -1.0427  2.0683  1.0108
  867MOL0     H17030   2.833   3.862   1.368  0.1044  0.1511 -0.2714
  867MOL0     H17031   2.832   4.001   1.752 -0.9394 -0.3328 -0.8632
  867MOL0     H17032   2.840   4.134   1.945  2.0267 -3.2427  3.2111
  867MOL0     H17033   2.568   4.113   2.264  0.3392  0.5061  0.7425
  867MOL0     H17034   2.450   4.221   2.181  0.6094  2.1203  1.0676
  867MOL0     H17035   2.672   4.306   2.357  0.7607  3.5530 -0.0858
  867MOL0     H17036   2.500   4.330   2.373 -1.2756 -0.7255 -1.3072
  867MOL0     H17037   2.681   4.455   2.156 -0.9478 -3.8377 -1.6340
  867MOL0     H17038   2.619   4.530   2.295  1.4944 -1.3765  0.8711
  867MOL0     H17039   2.506   4.559   2.056  1.9543 -1.8502 -1.8360
  867MOL0     H17040   2.439   4.398   2.075  0.2445 -2.3429  2.5774
  867MOL0     H17041   2.150   4.565   2.315 -1.6096  0.8011 -1.1378
  867MOL0     H17042   2.448   4.006   2.053 -0.9306 -3.9233 -0.2619
  867MOL0     H17043   2.348   3.817   1.841 -0.6946 -2.5439  0.4748
  867MOL0     H17044   2.460   3.701   1.903  2.4552  0.1128  2.4855
  867MOL0     H17045   2.369   3.803   2.014 -3.1768  1.0390 -1.7072
  868MOL0     O17046   4.517   0.174   7.005  0.3188  0.5875 -1.4906
  868MOL0     C17047   4.480   0.211   7.122 -0.0516 -0.8768  0.1453
  868MOL0     O17048   4.538   0.181   7.239  0.8083  0.5588  1.0693
  868MOL0     C17049   4.647   0.088   7.233  0.4129  0.4703 -0.1578
  868MOL0     C17050   4.625  -0.052   7.220 -0.2138  1.0117 -0.9976
  868MOL0     C17051   4.728  -0.143   7.214  0.4386  0.0223  0.4235
  868MOL0     C17052   4.863  -0.097   7.197  0.9622  0.3881  0.8197
  868MOL0     O17053   4.959  -0.197   7.181 -0.0194 -0.2205  0.1964
  868MOL0     C17054   5.084  -0.183   7.115 -0.1835 -0.0096 -0.0602
  868MOL0     C17055   5.179  -0.302   7.138  0.4266 -0.5041  0.5990
  868MOL0     C17056   5.221  -0.324   7.282 -0.0380  0.6080  0.7085
  868MOL0     C17057   5.273  -0.464   7.319 -0.1751 -0.6432  0.0880
  868MOL0     C17058   5.414  -0.497   7.260  0.3096 -0.3806  0.4092
  868MOL0     C17059   5.444  -0.478   7.108 -0.6881  0.4372  0.6035
  868MOL0     C17060   5.570  -0.552   7.070  0.8285 -0.2171 -0.7850
  868MOL0     C17061   5.596  -0.544   6.913 -0.5475  0.2734 -0.4163
  868MOL0     N17062   5.721  -0.616   6.879  0.9338  0.8817  0.0001
  868MOL0     C17063   5.843  -0.553   6.865 -0.1227 -0.1610  0.6512
  868MOL0     C17064   5.929  -0.654   6.846  0.2083 -0.4087  0.1467
  868MOL0     C17065   6.083  -0.639   6.823  0.8916  0.2648 -0.2764
  868MOL0     C17066   6.105  -0.575   6.682  0.1268  0.0055 -0.4391
  868MOL0     C17067   6.255  -0.548   6.650  0.2565 -0.0913  0.4711
  868MOL0     C17068   6.337  -0.476   6.760  0.4172 -0.6165 -0.7914
  868MOL0     O17069   6.452  -0.421   6.703 -0.2538  0.1954 -0.7332
  868MOL0     C17070   6.559  -0.499   6.661  0.1998  0.2174 -0.1395
  868MOL0     C17071   6.566  -0.636   6.685  0.5142  0.0454  0.1933
  868MOL0     C17072   6.674  -0.705   6.633  0.2507  0.6286  0.7516
  868MOL0     C17073   6.787  -0.633   6.586  0.2824 -0.9379  0.1474
  868MOL0     C17074   6.915  -0.698   6.578  0.3143  0.6354  0.4537
  868MOL0     O17075   6.917  -0.825   6.627 -0.4741 -0.0121 -0.0563
  868MOL0     C17076   7.037  -0.881   6.625 -0.1395 -0.8817 -0.5078
  868MOL0     C17077   7.068  -0.979   6.531  0.2554  0.1609  0.0600
  868MOL0     C17078   7.189  -1.043   6.534  0.8809  0.5019  0.2423
  868MOL0     C17079   7.279  -1.010   6.643 -0.6740  0.6221  0.2877
  868MOL0     O17080   7.394  -1.098   6.665 -0.3704  0.3073  0.9859
  868MOL0     C17081   7.403  -1.148   6.798 -0.7238  0.5871  0.4719
  868MOL0     C17082   7.445  -1.296   6.794 -0.2410 -0.4958  0.0850
  868MOL0     C17083   7.586  -1.300   6.753 -0.3226  0.3540 -0.5059
  868MOL0     C17084   7.638  -1.439   6.721 -0.1043  0.7402  0.0959
  868MOL0     C17085   7.787  -1.468   6.746  0.0588  0.1508  0.6082
  868MOL0     C17086   7.824  -1.493   6.897 -0.6220 -0.6185 -0.0004
  868MOL0     C17087   7.751  -1.611   6.957 -0.3896 -0.1709  0.2277
  868MOL0     C17088   7.761  -1.740   6.886 -1.1143 -0.0657  0.3163
  868MOL0    Cl17089   7.950  -1.784   6.858 -0.5258 -0.2425 -0.0359
  868MOL0     C17090   7.254  -0.910   6.734  0.0833  0.8610 -0.5760
  868MOL0     C17091   7.132  -0.843   6.729 -1.2480  0.4760 -0.0007
  868MOL0     O17092   7.011  -0.626   6.553 -0.2101  0.9355 -0.7591
  868MOL0     C17093   6.784  -0.487   6.566 -0.3260 -0.4617 -0.4473
  868MOL0     C17094   6.662  -0.429   6.598  0.5384 -0.4168 -0.3422
  868MOL0     N17095   5.863  -0.776   6.863  0.6775  0.5620 -0.5327
  868MOL0     N17096   5.735  -0.750   6.884 -0.2752 -0.2087  0.0105
  868MOL0     C17097   4.891   0.040   7.203 -1.2685  0.0557  0.4388
  868MOL0     C17098   4.784   0.128   7.220  0.0167  0.1223  0.2461
  868MOL0     C17099   4.363   0.304   7.124  0.4749  0.0070 -0.0721
  868MOL0     C17100   4.270   0.301   7.020 -0.3382 -0.4149 -0.0944
  868MOL0     C17101   4.157   0.377   7.019  0.5843  0.0199 -0.2116
  868MOL0     C17102   4.127   0.458   7.125  0.6347 -0.6396 -0.2149
  868MOL0     O17103   4.015   0.540   7.108  1.5629 -0.8257 -0.6728
  868MOL0     C17104   3.935   0.543   7.228  0.9973  0.7301 -0.3235
  868MOL0     C17105   3.784   0.510   7.201 -0.1720  1.0677  0.3788
  868MOL0     C17106   3.737   0.586   7.081 -0.0360  0.0724  0.2189
  868MOL0     C17107   3.596   0.551   7.050  0.0984  0.0920 -0.1142
  868MOL0     C17108   3.509   0.624   7.144  0.4019 -1.0654 -0.4968
  868MOL0     C17109   3.442   0.702   7.214  0.2731  0.1554  0.4441
  868MOL0     C17110   4.221   0.473   7.235  1.0527  0.1278  0.0514
  868MOL0     C17111   4.338   0.394   7.231 -0.3025  0.4944  0.1805
  868MOL0     C17112   4.442   0.424   7.338  0.1427  0.1999  0.7075
  868MOL0     H17113   4.530  -0.101   7.238 -0.4337  1.6665 -0.2991
  868MOL0     H17114   4.704  -0.248   7.229  0.9621 -0.1114  0.3590
  868MOL0     H17115   5.064  -0.196   7.008  0.9797 -1.6408 -0.1195
  868MOL0     H17116   5.126  -0.084   7.137  1.0296 -0.7945  1.3998
  868MOL0     H17117   5.268  -0.290   7.075 -1.0834  1.1003 -1.3539
  868MOL0     H17118   5.136  -0.396   7.101  0.5044  0.0232 -0.9102
  868MOL0     H17119   5.135  -0.318   7.348 -1.1959 -3.1958 -0.2332
  868MOL0     H17120   5.297  -0.249   7.308  0.8416  0.2135 -0.6058
  868MOL0     H17121   5.282  -0.467   7.428  4.7754  2.9236  0.1020
  868MOL0     H17122   5.196  -0.537   7.293 -0.3938 -1.0172  1.7256
  868MOL0     H17123   5.491  -0.438   7.309  0.1411  0.5011 -0.3700
  868MOL0     H17124   5.439  -0.603   7.272 -0.0745 -0.7830 -1.8500
  868MOL0     H17125   5.362  -0.512   7.045  2.0444 -2.3318 -1.8287
  868MOL0     H17126   5.463  -0.370   7.100  3.4542 -0.0681  1.3644
  868MOL0     H17127   5.579  -0.657   7.100  1.4467  0.3137  0.9577
  868MOL0     H17128   5.658  -0.508   7.118  0.5741 -1.6075  1.0599
  868MOL0     H17129   5.515  -0.592   6.859  1.9203 -1.9015 -2.4589
  868MOL0     H17130   5.599  -0.440   6.876 -1.2261  0.5819  0.3795
  868MOL0     H17131   5.866  -0.447   6.876  0.1799  0.0949 -1.8836
  868MOL0     H17132   6.112  -0.563   6.897 -2.9471  1.7997 -0.1041
  868MOL0     H17133   6.124  -0.736   6.851  1.7984  1.4977  3.1880
  868MOL0     H17134   6.063  -0.645   6.608 -1.3490 -0.3120  0.6573
  868MOL0     H17135   6.044  -0.484   6.676 -0.1659  0.3147  4.0512
  868MOL0     H17136   6.261  -0.486   6.560 -0.8011 -0.3434  0.2051
  868MOL0     H17137   6.304  -0.642   6.625 -1.4084 -0.8176 -0.2964
  868MOL0     H17138   6.371  -0.538   6.844 -0.5225  1.2635  1.0596
  868MOL0     H17139   6.280  -0.392   6.801  0.7715 -0.8956  0.3113
  868MOL0     H17140   6.482  -0.688   6.731 -1.1176 -0.8614 -3.4385
  868MOL0     H17141   6.669  -0.813   6.626  1.4588  0.6268 -0.6161
  868MOL0     H17142   7.002  -0.990   6.445 -0.8474  4.1759  0.2125
  868MOL0     H17143   7.209  -1.123   6.463 -2.6233  0.0098 -0.3598
  868MOL0     H17144   7.463  -1.078   6.857  0.3167 -0.0228  0.1408
  868MOL0     H17145   7.300  -1.148   6.837 -0.4936 -0.7111  1.1395
  868MOL0     H17146   7.424  -1.341   6.892 -1.5482 -4.0739 -1.6683
  868MOL0     H17147   7.390  -1.353   6.719  0.2790 -0.7709 -0.0941
  868MOL0     H17148   7.599  -1.244   6.660  4.3037 -0.0530 -0.3073
  868MOL0     H17149   7.643  -1.251   6.832 -0.3905 -1.1574  0.5212
  868MOL0     H17150   7.624  -1.458   6.614 -1.2780  2.3143 -0.0553
  868MOL0     H17151   7.582  -1.514   6.776  0.5960 -0.7597 -1.1372
  868MOL0     H17152   7.850  -1.385   6.714 -1.0090  2.0059  2.9623
  868MOL0     H17153   7.816  -1.561   6.697  0.4007  0.0325  1.0322
  868MOL0     H17154   7.930  -1.518   6.908 -0.9477 -1.1213  2.5985
  868MOL0     H17155   7.805  -1.408   6.963  3.3748  0.8277 -0.4098
  868MOL0     H17156   7.644  -1.589   6.961 -0.0651  1.6483 -0.0611
  868MOL0     H17157   7.805  -1.615   7.052 -1.9170  0.2189  1.1361
  868MOL0     H17158   7.718  -1.819   6.949  0.2152 -0.8551  0.2858
  868MOL0     H17159   7.695  -1.739   6.799 -2.1646  0.9788  1.1094
  868MOL0     H17160   7.322  -0.882   6.813 -1.2849  4.3575 -0.4504
  868MOL0     H17161   7.118  -0.754   6.790 -2.9233  2.6748 -3.3312
  868MOL0     H17162   6.855  -0.421   6.518 -2.9106  0.6155 -3.0768
  868MOL0     H17163   6.643  -0.323   6.582 -0.4757 -0.3323  1.2064
  868MOL0     H17164   4.995   0.070   7.202 -1.1175 -0.2889 -2.2080
  868MOL0     H17165   4.806   0.234   7.215 -1.0560  0.2915 -2.1551
  868MOL0     H17166   4.284   0.236   6.934 -4.1131 -0.1504 -1.0894
  868MOL0     H17167   4.092   0.389   6.933  0.5526  0.9475 -0.0704
  868MOL0     H17168   3.914   0.638   7.278 -1.8854 -0.3869  0.8258
  868MOL0     H17169   3.963   0.467   7.302 -2.2420  1.2070  1.5878
  868MOL0     H17170   3.724   0.533   7.289  0.8090  1.4956  0.9543
  868MOL0     H17171   3.770   0.402   7.187 -0.8866  1.1821  0.1974
  868MOL0     H17172   3.793   0.537   7.000 -1.5529  0.8983 -1.3988
  868MOL0     H17173   3.760   0.693   7.080  1.1259 -0.1500 -1.3659
  868MOL0     H17174   3.571   0.582   6.948 -0.8362  1.7484  0.5791
  868MOL0     H17175   3.567   0.445   7.049  0.8363 -0.1272  0.5777
  868MOL0     H17176   3.396   0.774   7.278  0.6459  1.1710 -0.4089
  868MOL0     H17177   4.212   0.554   7.307  1.9557  1.5066 -1.3201
  868MOL0     H17178   4.445   0.337   7.403 -0.4527 -1.1412 -0.9873
  868MOL0     H17179   4.542   0.436   7.297 -0.1812  0.6867  0.0332
  868MOL0     H17180   4.414   0.519   7.386  3.1510  1.6143 -0.0727
  869MOL0     O17181   5.834  10.892   4.676 -0.2493 -0.3341 -0.2606
  869MOL0     C17182   5.816  10.800   4.598 -0.3166 -0.5987 -0.0655
  869MOL0     O17183   5.883  10.769   4.486  1.1150  0.1502  1.1177
  869MOL0     C17184   5.979  10.849   4.439 -0.3719 -0.4490 -0.7722
  869MOL0     C17185   6.000  10.984   4.457 -0.6403  0.6419 -0.2357
  869MOL0     C17186   6.123  11.041   4.413 -0.1557  0.1496 -0.4766
  869MOL0     C17187   6.213  10.972   4.333 -0.7327  0.0444 -0.1002
  869MOL0     O17188   6.319  11.043   4.284 -0.1666  0.5052  0.0870
  869MOL0     C17189   6.401  10.958   4.201  0.2906 -0.7690 -0.0744
  869MOL0     C17190   6.510  11.050   4.134  0.2942  0.7524 -0.2735
  869MOL0     C17191   6.466  11.089   3.990  0.2984  0.9685  0.7896
  869MOL0     C17192   6.576  11.152   3.899 -0.5247  0.8761 -1.5942
  869MOL0     C17193   6.535  11.166   3.752  0.6407  0.1747 -0.3849
  869MOL0     C17194   6.439  11.287   3.742  0.5274 -0.3541  1.1719
  869MOL0     C17195   6.421  11.333   3.597 -0.6809  0.2982 -0.2205
  869MOL0     C17196   6.325  11.447   3.588  0.2399 -0.2703  0.9640
  869MOL0     N17197   6.388  11.567   3.652  0.5962 -0.1623  0.5569
  869MOL0     C17198   6.350  11.611   3.775  0.5535  0.4532  0.2485
  869MOL0     C17199   6.404  11.733   3.772 -0.2063 -0.8612 -0.2443
  869MOL0     C17200   6.395  11.832   3.894  0.2272 -0.0474  0.6163
  869MOL0     C17201   6.348  11.973   3.860 -0.7790  0.0342 -0.5060
  869MOL0     C17202   6.200  11.996   3.828  0.4899 -0.5455  0.0669
  869MOL0     C17203   6.158  11.948   3.697  0.1005 -0.4193 -0.2764
  869MOL0     O17204   6.038  12.011   3.648  0.0125  0.3188 -0.0374
  869MOL0     C17205   5.974  11.934   3.552 -0.6610  0.5641  0.1383
  869MOL0     C17206   6.029  11.842   3.456 -0.9931 -0.6732  0.5836
  869MOL0     C17207   5.951  11.785   3.358  0.5926  0.8484  0.1679
  869MOL0     C17208   5.817  11.822   3.344 -0.2747  0.4024 -0.4127
  869MOL0     C17209   5.717  11.773   3.234 -0.1332 -0.4685  0.4636
  869MOL0     O17210   5.594  11.836   3.218 -0.1159  0.7294 -0.3046
  869MOL0     C17211   5.488  11.782   3.144 -0.6588  0.8304 -1.3430
  869MOL0     C17212   5.365  11.756   3.208 -0.5318 -0.4650  0.6656
  869MOL0     C17213   5.267  11.691   3.142  0.8500 -0.1206 -0.5083
  869MOL0     C17214   5.284  11.658   3.002  0.1166 -0.0021 -0.6437
  869MOL0     O17215   5.174  11.603   2.946 -0.3633  0.3912 -0.7859
  869MOL0     C17216   5.199  11.540   2.825 -0.5829  0.3872 -0.3222
  869MOL0     C17217   5.092  11.462   2.763  0.7948  0.0339 -0.1254
  869MOL0     C17218   5.112  11.441   2.620 -0.7891  0.7688  0.0449
  869MOL0     C17219   4.992  11.363   2.555  0.2353  0.0174  0.6485
  869MOL0     C17220   5.019  11.298   2.420  0.5932 -0.0192  0.4058
  869MOL0     C17221   5.083  11.385   2.320 -0.0706  0.6124 -0.4285
  869MOL0     C17222   5.067  11.338   2.180  0.2138 -0.8576 -0.1749
  869MOL0     C17223   5.140  11.428   2.079  0.4204  0.3041 -0.1467
  869MOL0    Cl17224   5.096  11.373   1.907  0.1127 -0.1603 -0.6697
  869MOL0     C17225   5.401  11.691   2.943  1.1224  0.3059  0.3545
  869MOL0     C17226   5.502  11.755   3.010 -0.0839  0.3774  0.1808
  869MOL0     O17227   5.758  11.671   3.174 -0.1502 -0.7208  0.0235
  869MOL0     C17228   5.762  11.917   3.436 -0.1551 -0.5293  0.3118
  869MOL0     C17229   5.841  11.969   3.535 -0.3510  0.8978 -0.5711
  869MOL0     N17230   6.485  11.756   3.661 -0.6869  0.4321 -0.3492
  869MOL0     N17231   6.470  11.650   3.585 -0.3257 -0.4429 -0.1012
  869MOL0     C17232   6.181  10.836   4.302  0.2886  1.2301 -1.2082
  869MOL0     C17233   6.072  10.777   4.366  0.9963  0.1468 -0.1554
  869MOL0     C17234   5.697  10.706   4.615  0.2989 -0.1533  0.2378
  869MOL0     C17235   5.679  10.603   4.525  0.2724  0.1040  0.4076
  869MOL0     C17236   5.569  10.517   4.539  0.8798  0.8811 -0.2350
  869MOL0     C17237   5.490  10.518   4.649  0.1189 -0.2330 -0.4080
  869MOL0     O17238   5.397  10.416   4.643 -0.2344  1.1472  0.0531
  869MOL0     C17239   5.294  10.398   4.742  0.1435 -0.0016 -0.6992
  869MOL0     C17240   5.175  10.498   4.731 -0.4003 -0.8354  0.0509
  869MOL0     C17241   5.089  10.508   4.599  0.0672  0.7913  0.8332
  869MOL0     C17242   4.989  10.387   4.573  0.0446  0.6983 -0.0853
  869MOL0     C17243   4.856  10.426   4.544  0.7025 -0.3797  0.1667
  869MOL0     C17244   4.738  10.444   4.524  1.2157 -0.0620 -0.0733
  869MOL0     C17245   5.507  10.624   4.743  0.0896 -0.2838  0.2009
  869MOL0     C17246   5.593  10.721   4.710 -0.8247  1.3205 -0.3891
  869MOL0     C17247   5.592  10.831   4.816 -0.1259  0.1538 -0.1073
  869MOL0     H17248   5.925  11.040   4.511 -2.1296  1.4221 -2.9536
  869MOL0     H17249   6.145  11.145   4.433  1.7413 -0.4608  0.9289
  869MOL0     H17250   6.442  10.873   4.256  0.4081 -2.2635 -2.3236
  869MOL0     H17251   6.343  10.908   4.123 -2.0622  0.1196  1.0255
  869MOL0     H17252   6.601  10.990   4.127 -0.9692 -1.2287 -0.6770
  869MOL0     H17253   6.538  11.139   4.190  1.3514  0.5470 -0.4535
  869MOL0     H17254   6.379  11.153   4.006  0.4188  0.5755  3.3979
  869MOL0     H17255   6.433  10.997   3.941  0.8620 -1.6445  4.7813
  869MOL0     H17256   6.606  11.251   3.934  0.5737  0.2074 -0.5814
  869MOL0     H17257   6.661  11.083   3.901 -1.9049 -0.9129 -0.0768
  869MOL0     H17258   6.628  11.184   3.697  2.4492  1.5886  2.8457
  869MOL0     H17259   6.502  11.076   3.698  1.7805  0.7746 -2.1794
  869MOL0     H17260   6.341  11.266   3.786 -0.7825 -1.8435 -2.1711
  869MOL0     H17261   6.480  11.375   3.793  0.2361  0.3328  0.2403
  869MOL0     H17262   6.379  11.251   3.539  0.9980 -0.3050 -0.6240
  869MOL0     H17263   6.517  11.346   3.546 -0.2849  1.7272  0.8112
  869MOL0     H17264   6.304  11.492   3.490 -0.5534 -0.7860  0.8934
  869MOL0     H17265   6.234  11.424   3.642 -0.8106  2.6435  0.6037
  869MOL0     H17266   6.289  11.547   3.837  0.1589 -2.3469 -2.7651
  869MOL0     H17267   6.326  11.794   3.970 -0.9282  0.9062  0.0735
  869MOL0     H17268   6.492  11.840   3.944 -0.4169 -3.6940  2.8172
  869MOL0     H17269   6.368  12.037   3.947 -1.1431  1.3701 -1.3711
  869MOL0     H17270   6.417  12.005   3.781 -2.4569 -2.4397 -3.1771
  869MOL0     H17271   6.165  12.100   3.828 -1.1701 -1.0447 -1.5567
  869MOL0     H17272   6.146  11.942   3.906  3.4550 -2.6559  0.8377
  869MOL0     H17273   6.155  11.840   3.711  0.0422 -0.0973  2.9988
  869MOL0     H17274   6.239  11.964   3.624 -0.7854  1.1743 -0.9590
  869MOL0     H17275   6.133  11.813   3.451 -0.5334  0.6999  1.6108
  869MOL0     H17276   5.996  11.708   3.296  3.2683  0.6201  2.1921
  869MOL0     H17277   5.366  11.764   3.316  2.0587 -1.8084  0.8154
  869MOL0     H17278   5.172  11.668   3.190  0.5271  0.2442 -0.9612
  869MOL0     H17279   5.227  11.622   2.759 -0.4094 -0.3394 -1.1820
  869MOL0     H17280   5.290  11.479   2.830 -1.5837 -1.1436  0.0565
  869MOL0     H17281   5.095  11.366   2.816  0.5052 -0.3377 -0.7717
  869MOL0     H17282   4.992  11.502   2.784  1.0480 -0.5541  2.6349
  869MOL0     H17283   5.131  11.540   2.578  2.2474  0.0454 -0.5914
  869MOL0     H17284   5.201  11.385   2.590 -1.5482 -0.4037 -0.0799
  869MOL0     H17285   4.905  11.429   2.554  0.1317  0.0149 -2.5203
  869MOL0     H17286   4.966  11.288   2.629  0.3273 -1.2254 -0.5377
  869MOL0     H17287   4.918  11.266   2.391  0.0009  0.8241  1.4813
  869MOL0     H17288   5.070  11.204   2.444  1.1523  0.5958  1.7139
  869MOL0     H17289   5.033  11.482   2.323 -1.7041 -0.1901 -0.6831
  869MOL0     H17290   5.184  11.405   2.358 -0.4415  1.1400  0.3060
  869MOL0     H17291   4.961  11.346   2.154  0.3747 -1.2963 -0.9816
  869MOL0     H17292   5.097  11.233   2.179 -2.1809 -1.5898 -1.1598
  869MOL0     H17293   5.099  11.529   2.092 -2.7621 -0.4339 -2.8508
  869MOL0     H17294   5.246  11.422   2.103 -0.1080 -1.7909  2.0755
  869MOL0     H17295   5.429  11.683   2.839  1.3750 -1.5185  0.5261
  869MOL0     H17296   5.602  11.760   2.967  0.8124 -3.1016  1.5150
  869MOL0     H17297   5.658  11.950   3.440  0.5651  2.2715 -1.5030
  869MOL0     H17298   5.803  12.046   3.601  2.2302  2.3800 -0.6902
  869MOL0     H17299   6.247  10.764   4.254 -3.7684 -2.0060 -2.5837
  869MOL0     H17300   6.050  10.671   4.361 -1.4926  0.6444 -1.3899
  869MOL0     H17301   5.746  10.591   4.441  0.8014  1.4366  0.6121
  869MOL0     H17302   5.553  10.439   4.464 -0.6988 -1.1198  2.0122
  869MOL0     H17303   5.342  10.402   4.841  3.5245  0.7324 -2.2213
  869MOL0     H17304   5.265  10.293   4.734  0.1040 -0.0944  0.4273
  869MOL0     H17305   5.220  10.597   4.746 -3.4677  0.9417 -1.5684
  869MOL0     H17306   5.113  10.484   4.820 -0.3920 -0.1037  0.1798
  869MOL0     H17307   5.152  10.520   4.511 -2.1675 -1.2107 -1.1964
  869MOL0     H17308   5.043  10.607   4.606  2.6897  2.0217  1.6097
  869MOL0     H17309   5.025  10.320   4.495  2.5563 -0.4096  1.8782
  869MOL0     H17310   4.972  10.332   4.666  2.4837 -1.9988 -1.0671
  869MOL0     H17311   4.638  10.476   4.505  1.0419  0.2568  1.2345
  869MOL0     H17312   5.438  10.629   4.826  2.3585 -2.5293  2.3972
  869MOL0     H17313   5.604  10.930   4.772 -0.3483  0.1909 -0.0888
  869MOL0     H17314   5.507  10.832   4.885 -0.0763  0.0218 -0.0429
  869MOL0     H17315   5.680  10.817   4.879  2.7405  0.0182 -3.8435
  870MOL0     O17316  10.930   0.940  10.604 -0.4310 -0.3622 -0.9542
  870MOL0     C17317  10.857   0.843  10.633  0.9877 -0.2274 -0.5058
  870MOL0     O17318  10.893   0.735  10.691  0.0050 -0.8005  0.1066
  870MOL0     C17319  11.029   0.702  10.685  0.1645  0.6055 -0.2091
  870MOL0     C17320  11.114   0.717  10.800  0.4876 -0.5402  0.1185
  870MOL0     C17321  11.248   0.689  10.788  0.1664  0.2988  0.0215
  870MOL0     C17322  11.307   0.645  10.670 -0.3114  0.2983 -0.2981
  870MOL0     O17323  11.430   0.599  10.637  0.7963  0.9400  0.1908
  870MOL0     C17324  11.540   0.602  10.728 -0.3521 -0.0529 -0.0811
  870MOL0     C17325  11.529   0.470  10.798  0.2137 -0.0849  0.5257
  870MOL0     C17326  11.646   0.447  10.895 -0.2733 -0.3685  0.4355
  870MOL0     C17327  11.599   0.362  11.013  0.2882 -0.2702 -0.1025
  870MOL0     C17328  11.555   0.450  11.132 -0.6812 -0.2469 -0.4150
  870MOL0     C17329  11.445   0.365  11.210 -0.2040 -0.9810 -0.5822
  870MOL0     C17330  11.496   0.225  11.268 -0.5928 -0.4671 -0.4571
  870MOL0     C17331  11.407   0.154  11.372  0.0872  0.2877 -0.5894
  870MOL0     N17332  11.481   0.053  11.446  0.3826 -0.2809 -0.0834
  870MOL0     C17333  11.485  -0.077  11.416 -0.0121  0.1085 -0.0823
  870MOL0     C17334  11.546  -0.128  11.529 -0.0039  0.6250  0.6711
  870MOL0     C17335  11.600  -0.264  11.537 -0.3712 -0.2137 -0.1171
  870MOL0     C17336  11.470  -0.353  11.551 -0.1310 -0.1624 -0.3358
  870MOL0     C17337  11.504  -0.490  11.513 -0.2319 -0.1534 -0.8607
  870MOL0     C17338  11.393  -0.587  11.550 -0.0987 -0.3063 -1.4104
  870MOL0     O17339  11.373  -0.593  11.693 -0.0200  0.0705 -0.0187
  870MOL0     C17340  11.274  -0.671  11.750 -0.1018 -0.3598 -0.2391
  870MOL0     C17341  11.198  -0.755  11.674 -0.5468 -1.0697  0.4856
  870MOL0     C17342  11.101  -0.839  11.736  0.4679  0.4937  0.4524
  870MOL0     C17343  11.094  -0.850  11.878  0.7924  0.3508  1.1081
  870MOL0     C17344  11.009  -0.948  11.933 -0.5124  0.5748  0.7857
  870MOL0     O17345  11.049  -0.993  12.048  0.3752  0.3751 -0.3905
  870MOL0     C17346  10.971  -1.086  12.102 -0.0096  0.2464 -1.0869
  870MOL0     C17347  10.969  -1.230  12.066 -1.4428 -0.0820  0.4953
  870MOL0     C17348  10.899  -1.325  12.141 -0.0913 -0.4825 -0.4207
  870MOL0     C17349  10.822  -1.293  12.248 -1.0342 -0.3041  0.1313
  870MOL0     O17350  10.759  -1.393  12.317 -0.9527  0.1482  0.1115
  870MOL0     C17351  10.683  -1.367  12.439 -0.5363  0.1120  0.1545
  870MOL0     C17352  10.756  -1.434  12.559 -0.2018  0.1705 -0.8408
  870MOL0     C17353  10.747  -1.585  12.551 -0.8910  0.6485 -0.6662
  870MOL0     C17354  10.743  -1.663  12.693  0.4887 -0.0457  0.2667
  870MOL0     C17355  10.768  -1.811  12.672 -0.2886  0.9729 -0.2171
  870MOL0     C17356  10.679  -1.896  12.760 -0.1094  0.4835  0.1868
  870MOL0     C17357  10.692  -2.046  12.743 -1.2958 -0.3473 -0.4557
  870MOL0     C17358  10.591  -2.119  12.841 -0.8666 -0.3515  0.0064
  870MOL0    Cl17359  10.643  -2.287  12.872  0.1235 -0.6422 -0.1116
  870MOL0     C17360  10.820  -1.149  12.286  0.5793  0.1144 -0.0653
  870MOL0     C17361  10.898  -1.058  12.217 -0.7436  0.8709 -0.6159
  870MOL0     O17362  10.912  -0.990  11.862  0.0884  0.7138 -0.1700
  870MOL0     C17363  11.161  -0.754  11.949  0.6695 -0.0880  0.4273
  870MOL0     C17364  11.250  -0.661  11.884  0.2521 -0.1789 -0.3932
  870MOL0     N17365  11.563  -0.033  11.620  0.2445 -0.6912  0.1144
  870MOL0     N17366  11.514   0.081  11.576  0.7280 -0.4024  0.4554
  870MOL0     C17367  11.217   0.621  10.565  0.6046  0.6955  0.4536
  870MOL0     C17368  11.086   0.659  10.571 -0.9373 -0.3721  0.7147
  870MOL0     C17369  10.712   0.849  10.593 -0.2916 -0.0078  0.2716
  870MOL0     C17370  10.631   0.754  10.655 -0.5746 -0.6779 -0.5493
  870MOL0     C17371  10.492   0.750  10.629  0.0829  0.5714 -0.2555
  870MOL0     C17372  10.429   0.843  10.553 -0.3288  0.2573  0.3227
  870MOL0     O17373  10.299   0.827  10.555 -0.5505 -0.1970 -0.1982
  870MOL0     C17374  10.220   0.938  10.499  0.6088 -0.6784  0.0883
  870MOL0     C17375  10.089   0.951  10.584 -0.0384 -0.6921  0.3630
  870MOL0     C17376   9.999   0.832  10.562 -0.4284  0.4056  0.1851
  870MOL0     C17377   9.901   0.856  10.454  0.4949  0.1954  0.9229
  870MOL0     C17378   9.826   0.732  10.435  0.1543 -0.3166  0.1142
  870MOL0     C17379   9.762   0.636  10.397  0.9374  0.3484  0.5779
  870MOL0     C17380  10.510   0.934  10.483  0.0361  0.3636  0.9019
  870MOL0     C17381  10.649   0.931  10.497 -0.1194  0.6548 -0.5648
  870MOL0     C17382  10.732   1.034  10.411  0.1907 -0.7197  0.0898
  870MOL0     H17383  11.074   0.754  10.894 -1.1586  2.0372 -1.4629
  870MOL0     H17384  11.317   0.705  10.869  0.9865  2.1312 -0.9865
  870MOL0     H17385  11.640   0.590  10.685 -1.5685  0.9860 -3.5933
  870MOL0     H17386  11.536   0.679  10.805 -1.2350 -1.1860  1.0374
  870MOL0     H17387  11.522   0.385  10.730 -4.1458  1.4373 -1.2346
  870MOL0     H17388  11.434   0.478  10.851 -1.0387 -0.5816 -1.5403
  870MOL0     H17389  11.684   0.540  10.938 -2.2765 -0.3957  2.4163
  870MOL0     H17390  11.726   0.409  10.831 -1.0398 -1.3596  0.0476
  870MOL0     H17391  11.511   0.301  10.989  0.5740 -0.2926 -1.1726
  870MOL0     H17392  11.671   0.292  11.057 -1.2759 -1.3984  0.7635
  870MOL0     H17393  11.644   0.471  11.191 -1.6518  0.2154  0.9527
  870MOL0     H17394  11.524   0.545  11.088  2.5718 -0.0915 -2.7119
  870MOL0     H17395  11.416   0.424  11.297  0.1433 -0.4750 -0.8051
  870MOL0     H17396  11.362   0.344  11.142 -0.0408 -2.6786 -0.3108
  870MOL0     H17397  11.597   0.243  11.305 -0.0861 -0.3837 -1.8263
  870MOL0     H17398  11.514   0.148  11.193 -1.1513  0.7736 -1.9233
  870MOL0     H17399  11.374   0.232  11.441  2.4156  0.1364  0.7918
  870MOL0     H17400  11.320   0.107  11.325 -0.0214  1.1826 -1.3315
  870MOL0     H17401  11.464  -0.116  11.317  2.4980  1.2449 -1.1440
  870MOL0     H17402  11.654  -0.293  11.447  1.4427 -2.0773  1.4642
  870MOL0     H17403  11.666  -0.273  11.624 -0.9565 -3.4601  0.1438
  870MOL0     H17404  11.451  -0.356  11.659  1.0032 -2.5590 -0.1276
  870MOL0     H17405  11.385  -0.319  11.492 -0.4062 -2.6947 -1.5518
  870MOL0     H17406  11.595  -0.523  11.565 -0.7071 -1.7468 -0.9918
  870MOL0     H17407  11.529  -0.489  11.407  3.9633  1.7460 -0.0750
  870MOL0     H17408  11.431  -0.687  11.530  0.9423  0.0504 -1.3007
  870MOL0     H17409  11.303  -0.565  11.493 -2.3330 -0.4726  1.8009
  870MOL0     H17410  11.210  -0.771  11.567 -0.9900 -1.6325  0.5148
  870MOL0     H17411  11.053  -0.914  11.674 -2.9784  0.9426  2.3316
  870MOL0     H17412  11.026  -1.260  11.978  0.3068 -2.0384  2.1750
  870MOL0     H17413  10.914  -1.429  12.112  1.1681 -1.0299  1.9683
  870MOL0     H17414  10.656  -1.262  12.458 -0.9206  0.3218 -1.4403
  870MOL0     H17415  10.587  -1.419  12.432  0.5125 -2.0782  1.1256
  870MOL0     H17416  10.859  -1.401  12.570  0.1615 -0.9886 -0.5753
  870MOL0     H17417  10.701  -1.399  12.647  0.1963 -2.3488  0.5004
  870MOL0     H17418  10.664  -1.630  12.497 -1.0362 -3.3344  2.4423
  870MOL0     H17419  10.832  -1.618  12.491 -0.1045  0.9932  0.2309
  870MOL0     H17420  10.645  -1.632  12.731  0.3574 -0.5397  0.3366
  870MOL0     H17421  10.818  -1.615  12.756 -1.0003  2.3678  0.3207
  870MOL0     H17422  10.874  -1.824  12.695  0.2640  0.6143 -2.7407
  870MOL0     H17423  10.751  -1.852  12.573  2.5390 -2.6167  0.5730
  870MOL0     H17424  10.684  -1.875  12.867  0.0858 -1.3269  0.5688
  870MOL0     H17425  10.580  -1.871  12.723  1.5098  1.7320 -3.9083
  870MOL0     H17426  10.796  -2.058  12.775 -0.8341 -2.2905 -2.4941
  870MOL0     H17427  10.689  -2.068  12.636 -0.6173  2.7743 -1.2379
  870MOL0     H17428  10.601  -2.066  12.936  4.9605 -0.6554 -0.0558
  870MOL0     H17429  10.491  -2.107  12.798 -0.3995  5.3510 -0.1897
  870MOL0     H17430  10.775  -1.103  12.373  1.5096  3.3649 -1.1799
  870MOL0     H17431  10.902  -0.966  12.275  0.0189 -0.9319  2.4501
  870MOL0     H17432  11.167  -0.732  12.055  2.7183  0.9989  0.1403
  870MOL0     H17433  11.280  -0.573  11.939  1.3197 -0.3739 -0.6353
  870MOL0     H17434  11.254   0.588  10.469  1.0580 -1.1767  1.2266
  870MOL0     H17435  11.033   0.627  10.482 -0.7183 -1.5640  0.9933
  870MOL0     H17436  10.668   0.682  10.727 -1.9578 -1.0052 -0.1274
  870MOL0     H17437  10.430   0.685  10.691 -1.3360 -0.4248 -2.5964
  870MOL0     H17438  10.195   0.930  10.393 -1.2877  0.3484  0.4078
  870MOL0     H17439  10.283   1.027  10.511  4.2886 -2.9721 -0.7591
  870MOL0     H17440  10.029   1.041  10.568 -1.2874 -1.0778  2.4764
  870MOL0     H17441  10.122   0.954  10.688 -1.1361 -0.4689  0.7180
  870MOL0     H17442   9.957   0.803  10.658 -2.2182 -2.0583 -1.2089
  870MOL0     H17443  10.057   0.740  10.546 -0.8579  0.1350  0.1676
  870MOL0     H17444   9.822   0.928  10.477 -2.4568 -1.9053 -1.6746
  870MOL0     H17445   9.962   0.890  10.370  2.6505  0.0304  2.3341
  870MOL0     H17446   9.707   0.552  10.360  0.0568  0.5063  1.4649
  870MOL0     H17447  10.448   0.999  10.423 -2.7285 -1.6356  1.4121
  870MOL0     H17448  10.732   1.128  10.466 -0.3866  0.2341 -1.4883
  870MOL0     H17449  10.836   1.006  10.392  0.6206  1.3837 -0.8379
  870MOL0     H17450  10.673   1.046  10.320 -1.5401  2.2433  1.4602
  871MOL0     O17451   7.171   2.143   2.158 -0.9096  0.5170  0.1027
  871MOL0     C17452   7.151   2.230   2.086 -0.1862  1.8014  0.2994
  871MOL0     O17453   7.024   2.266   2.054  0.3366  0.1057  0.6676
  871MOL0     C17454   6.907   2.214   2.115  0.3995 -0.0595  0.3314
  871MOL0     C17455   6.889   2.089   2.176 -0.4266 -0.5581  0.0398
  871MOL0     C17456   6.767   2.053   2.239  0.2264 -0.2009  0.0865
  871MOL0     C17457   6.664   2.149   2.248  0.6846  1.0136  0.1113
  871MOL0     O17458   6.543   2.103   2.297 -0.1818  0.7135  0.1132
  871MOL0     C17459   6.436   2.199   2.329 -0.0498 -0.0291 -0.5451
  871MOL0     C17460   6.334   2.189   2.225  0.0329 -0.3674 -0.6832
  871MOL0     C17461   6.206   2.266   2.274 -0.7339 -0.0463  0.4286
  871MOL0     C17462   6.080   2.202   2.216  0.4063  0.1217 -0.2339
  871MOL0     C17463   5.965   2.298   2.242  0.6787 -1.3353  0.3390
  871MOL0     C17464   5.929   2.335   2.391  0.4714  0.4313 -0.3209
  871MOL0     C17465   5.889   2.205   2.467  0.0826 -0.1411 -0.4782
  871MOL0     C17466   5.839   2.248   2.612  0.9702  0.1653  0.0340
  871MOL0     N17467   5.943   2.311   2.692  0.0701 -0.9447 -0.3776
  871MOL0     C17468   5.982   2.447   2.691 -0.1741  0.1216 -0.3172
  871MOL0     C17469   6.071   2.446   2.793  0.5542  0.1554  0.1404
  871MOL0     C17470   6.153   2.568   2.841 -0.7340  0.8406  0.5095
  871MOL0     C17471   6.296   2.542   2.883  0.1502 -0.6511 -1.2351
  871MOL0     C17472   6.340   2.653   2.993  0.0320  0.3916  0.5943
  871MOL0     C17473   6.486   2.636   3.028  0.2544  0.6984  0.1339
  871MOL0     O17474   6.558   2.622   2.901 -0.5133 -0.1671  0.2563
  871MOL0     C17475   6.639   2.725   2.882  0.0270 -0.6501  0.1599
  871MOL0     C17476   6.754   2.695   2.810  0.0018 -0.3062  1.8760
  871MOL0     C17477   6.850   2.797   2.784  0.2559  1.6180  0.4679
  871MOL0     C17478   6.836   2.922   2.846 -0.2155  0.3565  0.2170
  871MOL0     C17479   6.933   3.021   2.814  0.3327 -0.2853 -0.4059
  871MOL0     O17480   7.065   2.996   2.803 -0.3056  0.2042 -0.2231
  871MOL0     C17481   7.163   3.095   2.790  1.0628 -0.5647  0.5460
  871MOL0     C17482   7.151   3.218   2.859 -0.3159 -0.4019 -0.2141
  871MOL0     C17483   7.246   3.320   2.845  0.6286  0.8689  0.1222
  871MOL0     C17484   7.359   3.294   2.761 -0.0170 -0.5664 -0.5020
  871MOL0     O17485   7.460   3.383   2.731  0.3572 -0.0367 -0.0543
  871MOL0     C17486   7.449   3.507   2.807 -0.1253  0.5883  0.1918
  871MOL0     C17487   7.553   3.605   2.755 -0.0060 -0.1127 -0.2313
  871MOL0     C17488   7.704   3.571   2.784 -0.0339 -0.2262 -1.0531
  871MOL0     C17489   7.804   3.674   2.748 -0.0661  0.1091 -0.9279
  871MOL0     C17490   7.823   3.792   2.846 -0.3220 -0.5706  0.1718
  871MOL0     C17491   7.920   3.760   2.957  0.2640  0.5855  0.8474
  871MOL0     C17492   8.063   3.749   2.920  0.0128  0.1309  0.4709
  871MOL0     C17493   8.162   3.774   3.029  0.1640 -0.4846 -1.0049
  871MOL0    Cl17494   8.340   3.831   2.982  0.2931  0.5840 -0.0047
  871MOL0     C17495   7.370   3.171   2.697 -1.1158  0.2627 -0.3238
  871MOL0     C17496   7.278   3.074   2.711 -0.5452  0.1681 -0.5697
  871MOL0     O17497   6.882   3.134   2.808 -0.4781  0.4252  0.5920
  871MOL0     C17498   6.725   2.952   2.929 -0.0638  0.8965 -1.0068
  871MOL0     C17499   6.632   2.857   2.933  0.9044  0.1646 -1.1720
  871MOL0     N17500   6.095   2.318   2.840  0.2944  0.0272  0.5381
  871MOL0     N17501   6.015   2.237   2.785  0.5760  0.3723 -0.6876
  871MOL0     C17502   6.681   2.276   2.189  0.6446  0.0602 -0.4202
  871MOL0     C17503   6.801   2.311   2.120 -0.2379 -0.2477  0.1956
  871MOL0     C17504   7.258   2.293   2.005  0.1086  0.6495 -0.3783
  871MOL0     C17505   7.213   2.383   1.909 -0.3263  0.6886 -0.3361
  871MOL0     C17506   7.300   2.458   1.834 -0.6685  0.0683  0.7472
  871MOL0     C17507   7.439   2.441   1.857  0.6864 -0.0954 -1.2874
  871MOL0     O17508   7.528   2.520   1.787  0.4963  1.0800 -0.1193
  871MOL0     C17509   7.670   2.513   1.801  1.2254  0.9362 -0.1466
  871MOL0     C17510   7.721   2.585   1.688 -0.4580 -0.6294 -0.4449
  871MOL0     C17511   7.872   2.580   1.688  0.9144 -0.1637  0.3268
  871MOL0     C17512   7.932   2.636   1.556 -0.4348  0.3119 -0.4530
  871MOL0     C17513   8.073   2.639   1.553  0.1322  0.4738  0.4326
  871MOL0     C17514   8.188   2.618   1.545 -0.4223  0.1837  0.2988
  871MOL0     C17515   7.490   2.345   1.951 -0.3756  0.7045  0.7276
  871MOL0     C17516   7.395   2.275   2.026  0.5773  0.1995  0.2606
  871MOL0     C17517   7.444   2.183   2.134 -0.4588  0.1228 -0.1648
  871MOL0     H17518   6.973   2.022   2.160  0.1509 -0.7443  3.1609
  871MOL0     H17519   6.762   1.953   2.280 -1.4544  0.1664  0.8735
  871MOL0     H17520   6.391   2.166   2.423 -3.5632 -0.1929 -2.1275
  871MOL0     H17521   6.483   2.296   2.345  3.2811 -1.7786  1.2859
  871MOL0     H17522   6.307   2.086   2.202 -3.2789  0.7763 -2.6767
  871MOL0     H17523   6.363   2.247   2.137 -2.6339  4.6380  1.3139
  871MOL0     H17524   6.219   2.369   2.242  3.6550 -0.2466  0.8505
  871MOL0     H17525   6.194   2.264   2.383 -1.6378 -0.3178  0.3308
  871MOL0     H17526   6.103   2.194   2.109  2.1488 -0.2749  0.1369
  871MOL0     H17527   6.064   2.103   2.260  2.8734 -0.8833 -1.4194
  871MOL0     H17528   5.987   2.394   2.194 -1.5019 -0.1567  1.5670
  871MOL0     H17529   5.866   2.276   2.201 -1.3008  2.4484  2.4598
  871MOL0     H17530   6.011   2.377   2.450  0.0094 -1.3730  1.7503
  871MOL0     H17531   5.846   2.405   2.399  2.3080  2.7022 -0.0883
  871MOL0     H17532   5.973   2.136   2.480  0.6361 -0.3395 -4.1209
  871MOL0     H17533   5.806   2.149   2.424  1.0824 -2.1867  0.1166
  871MOL0     H17534   5.747   2.308   2.607  0.4070 -0.6766  0.1603
  871MOL0     H17535   5.812   2.155   2.663  2.2383 -1.2859 -1.7874
  871MOL0     H17536   5.952   2.536   2.637 -1.2108  0.2083  0.3544
  871MOL0     H17537   6.161   2.629   2.750  2.9409  0.2673  0.2674
  871MOL0     H17538   6.098   2.613   2.924 -1.4992 -1.1500  1.1370
  871MOL0     H17539   6.297   2.446   2.935  3.5403 -1.0762 -1.8277
  871MOL0     H17540   6.364   2.531   2.798  1.2909 -0.7523 -0.3429
  871MOL0     H17541   6.275   2.652   3.081  0.2887  2.4511  0.8463
  871MOL0     H17542   6.335   2.755   2.956  2.3082  0.0536 -0.8429
  871MOL0     H17543   6.492   2.538   3.076  0.2955 -0.0659 -1.3705
  871MOL0     H17544   6.517   2.716   3.095 -0.7585  2.0645 -0.9663
  871MOL0     H17545   6.761   2.598   2.762 -0.7113  0.3471  0.3720
  871MOL0     H17546   6.926   2.774   2.709 -1.4448  2.6987 -1.7322
  871MOL0     H17547   7.074   3.236   2.933  0.8537  0.6469  0.7914
  871MOL0     H17548   7.245   3.411   2.905 -0.1502 -0.6532  2.5629
  871MOL0     H17549   7.352   3.553   2.783 -1.6764 -2.2517  0.5086
  871MOL0     H17550   7.462   3.484   2.913 -0.3489  3.2484  0.8634
  871MOL0     H17551   7.534   3.625   2.649 -2.2885  1.5676  0.4256
  871MOL0     H17552   7.529   3.700   2.803 -1.1161  0.5011 -1.9029
  871MOL0     H17553   7.719   3.562   2.892  2.1140 -1.5118 -1.4027
  871MOL0     H17554   7.732   3.478   2.733 -1.2106 -0.4111 -1.3865
  871MOL0     H17555   7.774   3.708   2.648 -1.4235  0.3951 -0.4516
  871MOL0     H17556   7.901   3.625   2.735 -1.2660 -2.9246  0.6336
  871MOL0     H17557   7.723   3.816   2.884  0.2387  0.0772  1.2880
  871MOL0     H17558   7.855   3.883   2.794 -2.1087 -0.9523 -1.7837
  871MOL0     H17559   7.922   3.841   3.031  0.4346  0.5190  0.9164
  871MOL0     H17560   7.893   3.667   3.008 -1.4302 -0.7098 -2.1758
  871MOL0     H17561   8.094   3.811   2.835  0.8535 -0.6892  0.1620
  871MOL0     H17562   8.093   3.651   2.883 -0.7062 -0.5537  1.6403
  871MOL0     H17563   8.124   3.859   3.087  1.2475 -1.5751  1.4540
  871MOL0     H17564   8.160   3.696   3.106 -5.0780  2.5914  2.6495
  871MOL0     H17565   7.462   3.143   2.646 -1.8805 -1.3737 -0.8621
  871MOL0     H17566   7.286   2.981   2.655  0.6817  0.0008 -0.1539
  871MOL0     H17567   6.706   3.040   2.990 -1.6638 -1.2175  1.7909
  871MOL0     H17568   6.547   2.886   2.994  0.6196  3.1503 -2.7876
  871MOL0     H17569   6.604   2.352   2.203  0.4406 -0.1665 -0.3011
  871MOL0     H17570   6.802   2.410   2.076 -1.8390 -0.0915  0.4290
  871MOL0     H17571   7.108   2.394   1.885 -0.9808 -1.2659  1.2850
  871MOL0     H17572   7.266   2.525   1.755 -0.9162 -0.1021  0.7088
  871MOL0     H17573   7.696   2.408   1.791 -0.7551  0.5346 -1.8282
  871MOL0     H17574   7.696   2.552   1.900 -3.6968  2.0175  0.9965
  871MOL0     H17575   7.695   2.691   1.689  1.9441  0.1329  3.6121
  871MOL0     H17576   7.677   2.543   1.597 -3.0714 -0.2115  0.5472
  871MOL0     H17577   7.905   2.476   1.701  0.4975 -0.3904 -0.3542
  871MOL0     H17578   7.907   2.632   1.777  2.8591 -0.9651  0.0707
  871MOL0     H17579   7.910   2.579   1.465  0.9867  2.0559 -1.9815
  871MOL0     H17580   7.887   2.735   1.543 -0.7367  0.4282  1.2515
  871MOL0     H17581   8.292   2.603   1.520 -0.4816 -0.8599  0.6675
  871MOL0     H17582   7.590   2.304   1.952  0.0074  1.3471 -1.8725
  871MOL0     H17583   7.397   2.087   2.113 -0.8057  0.6675 -2.1108
  871MOL0     H17584   7.553   2.172   2.128 -0.3074  0.5959  1.4058
  871MOL0     H17585   7.430   2.214   2.238  2.7473  2.8121 -0.3653
  872MOL0     O17586   2.315   0.429   9.780 -0.4479  0.5844 -1.0335
  872MOL0     C17587   2.335   0.391   9.898  0.1829 -0.0709  0.1385
  872MOL0     O17588   2.238   0.352   9.982  0.1856  0.4618 -0.2954
  872MOL0     C17589   2.099   0.370   9.967 -0.0666  0.4140 -0.2782
  872MOL0     C17590   2.032   0.446   9.867 -1.0850  0.3030 -0.0433
  872MOL0     C17591   1.895   0.470   9.864 -0.4155  0.3283 -0.1861
  872MOL0     C17592   1.817   0.434   9.972 -0.1324  0.4806  0.4558
  872MOL0     O17593   1.685   0.478   9.962  0.6234  0.5831  0.5972
  872MOL0     C17594   1.583   0.437  10.055 -0.4871  0.5637 -0.1457
  872MOL0     C17595   1.564   0.556  10.157 -0.5355 -0.8512  0.3714
  872MOL0     C17596   1.526   0.687  10.092  0.2873  0.2628 -0.4516
  872MOL0     C17597   1.398   0.679  10.006 -0.2122  0.3172  0.4792
  872MOL0     C17598   1.350   0.807   9.943 -0.6818 -0.0685 -0.1265
  872MOL0     C17599   1.451   0.900   9.870  0.4983 -0.3876 -0.9842
  872MOL0     C17600   1.525   0.820   9.759 -0.0090  0.4871  0.0307
  872MOL0     C17601   1.598   0.899   9.653  0.5074 -0.6074 -0.1189
  872MOL0     N17602   1.506   0.985   9.569 -0.6959 -0.3652  0.1521
  872MOL0     C17603   1.450   0.945   9.456 -0.1629  1.0455  0.0836
  872MOL0     C17604   1.420   1.054   9.388 -0.2918  0.7357  0.0990
  872MOL0     C17605   1.355   1.073   9.255 -0.8870  0.4119 -0.6340
  872MOL0     C17606   1.201   1.084   9.257  0.2215  0.2909 -0.1579
  872MOL0     C17607   1.134   0.946   9.261  0.5909  0.5325 -0.7839
  872MOL0     C17608   1.038   0.929   9.143 -0.1767 -0.6029 -0.0448
  872MOL0     O17609   1.110   0.935   9.016 -0.3413  0.2404  0.7084
  872MOL0     C17610   1.067   0.823   8.945 -0.3176  0.1053  0.2256
  872MOL0     C17611   1.162   0.733   8.902  0.2053  0.1750  0.3625
  872MOL0     C17612   1.121   0.619   8.833  0.0101 -0.2438 -1.1420
  872MOL0     C17613   0.979   0.599   8.809 -0.1280  0.2518 -0.0349
  872MOL0     C17614   0.936   0.478   8.733 -0.5998  0.4040 -0.3395
  872MOL0     O17615   1.028   0.377   8.719  0.3005 -0.8294  0.2261
  872MOL0     C17616   0.999   0.298   8.612  0.1032  0.3733  0.5229
  872MOL0     C17617   0.950   0.162   8.629 -0.4424 -0.1138 -0.0456
  872MOL0     C17618   0.947   0.075   8.514  0.5606 -0.4560  0.1863
  872MOL0     C17619   0.971   0.142   8.388  0.9990 -0.0403 -0.9190
  872MOL0     O17620   0.977   0.082   8.260  0.3903  0.4111 -0.3548
  872MOL0     C17621   0.866  -0.001   8.228 -0.7702  1.8889 -0.2721
  872MOL0     C17622   0.747   0.085   8.195 -0.0749 -0.4424  0.2482
  872MOL0     C17623   0.628  -0.004   8.183 -0.2076 -0.6833  0.7853
  872MOL0     C17624   0.614  -0.052   8.038 -1.0319  0.3087 -0.5823
  872MOL0     C17625   0.494  -0.145   8.031 -0.8091  0.6891  0.5010
  872MOL0     C17626   0.510  -0.292   8.074  0.7232  0.5189 -0.9671
  872MOL0     C17627   0.400  -0.385   8.013  0.3303 -0.4166  0.1019
  872MOL0     C17628   0.433  -0.526   8.047 -0.2948  0.0676  0.6908
  872MOL0    Cl17629   0.597  -0.575   8.017  0.1525 -0.0161 -0.1308
  872MOL0     C17630   1.026   0.265   8.375  0.7431 -1.1458  1.4173
  872MOL0     C17631   1.039   0.336   8.487  0.6036  0.1029  0.1709
  872MOL0     O17632   0.827   0.477   8.685  0.3970 -0.2252 -0.2130
  872MOL0     C17633   0.884   0.694   8.856  1.1546 -0.3918 -0.5322
  872MOL0     C17634   0.926   0.807   8.919 -0.4284  0.8476 -0.1838
  872MOL0     N17635   1.451   1.165   9.461 -0.2700 -0.0630 -0.4610
  872MOL0     N17636   1.498   1.126   9.571 -0.5678  0.2395 -0.5711
  872MOL0     C17637   1.878   0.362  10.078  0.7642 -0.6054  0.4991
  872MOL0     C17638   2.017   0.331  10.077 -0.3147  0.0133  0.4130
  872MOL0     C17639   2.474   0.411   9.962  0.7460 -0.8020  0.7840
  872MOL0     C17640   2.483   0.375  10.096 -0.1750 -0.3044  0.1774
  872MOL0     C17641   2.598   0.400  10.175 -0.2309 -0.5340 -0.5798
  872MOL0     C17642   2.704   0.462  10.109  0.0089 -0.2052 -0.1790
  872MOL0     O17643   2.815   0.493  10.178  0.4397  0.5882  0.2219
  872MOL0     C17644   2.943   0.513  10.104  0.3404  0.5925  0.7407
  872MOL0     C17645   3.036   0.521  10.232 -0.1889 -0.7239 -0.3584
  872MOL0     C17646   3.179   0.552  10.182  0.5282  0.2725  0.1642
  872MOL0     C17647   3.292   0.536  10.299  0.3004  0.3063  0.9203
  872MOL0     C17648   3.261   0.625  10.414  0.0866  0.5378  0.9262
  872MOL0     C17649   3.227   0.699  10.502 -0.3309 -0.4482 -0.7535
  872MOL0     C17650   2.703   0.475   9.972 -0.2496 -0.2080  0.2748
  872MOL0     C17651   2.584   0.462   9.894 -0.8459 -0.2911 -0.0961
  872MOL0     C17652   2.595   0.484   9.744  0.7742  0.6687 -0.6486
  872MOL0     H17653   2.094   0.478   9.784  0.2659  1.5714  1.3933
  872MOL0     H17654   1.867   0.515   9.769  2.1924 -0.7035 -1.5467
  872MOL0     H17655   1.488   0.410  10.007 -0.0219 -0.0359 -0.7345
  872MOL0     H17656   1.612   0.343  10.102 -0.6949  0.5373 -0.0641
  872MOL0     H17657   1.659   0.564  10.210 -0.5302 -1.7051  0.5123
  872MOL0     H17658   1.484   0.528  10.226  1.5515  0.1439  3.3994
  872MOL0     H17659   1.609   0.723  10.031  0.3620  3.7094  1.4252
  872MOL0     H17660   1.509   0.752  10.179 -1.6330 -4.2946  3.0143
  872MOL0     H17661   1.417   0.606   9.926  0.6827  2.7116 -1.6570
  872MOL0     H17662   1.333   0.623  10.073  1.6031 -0.6012  1.5409
  872MOL0     H17663   1.263   0.781   9.881  0.6519 -0.5526 -1.8866
  872MOL0     H17664   1.328   0.876  10.025  1.8019  0.5771  0.0860
  872MOL0     H17665   1.388   0.978   9.826 -1.8356 -1.6499 -0.0489
  872MOL0     H17666   1.513   0.947   9.947 -0.2324 -1.7441  0.4745
  872MOL0     H17667   1.457   0.754   9.704 -0.0164  0.8250 -0.3664
  872MOL0     H17668   1.596   0.746   9.797  2.6634  1.9485 -1.7843
  872MOL0     H17669   1.670   0.967   9.699 -0.6423  1.7737 -1.6408
  872MOL0     H17670   1.649   0.837   9.579 -0.5565 -0.7592 -0.7515
  872MOL0     H17671   1.448   0.842   9.421  1.6485  0.5658  1.2561
  872MOL0     H17672   1.403   1.160   9.208  3.0185 -0.6009  1.0217
  872MOL0     H17673   1.390   0.989   9.193  1.2960  2.7846 -2.8884
  872MOL0     H17674   1.171   1.139   9.347 -0.5771  0.4548 -0.5164
  872MOL0     H17675   1.160   1.134   9.169 -1.1460  0.7882  0.7323
  872MOL0     H17676   1.079   0.945   9.356  0.7829 -0.4843 -0.6691
  872MOL0     H17677   1.209   0.867   9.246  0.3812  0.5223 -1.7901
  872MOL0     H17678   0.956   1.002   9.153 -1.3790 -1.5025 -2.4762
  872MOL0     H17679   0.998   0.833   9.175  2.7653 -1.2999  1.9094
  872MOL0     H17680   1.267   0.761   8.907  0.4995 -1.0090  1.3807
  872MOL0     H17681   1.198   0.550   8.800 -0.2077  0.6232 -3.6012
  872MOL0     H17682   0.944   0.135   8.734  1.0848  1.9567  0.6371
  872MOL0     H17683   0.920  -0.030   8.516 -1.5073  0.0425  0.0477
  872MOL0     H17684   0.887  -0.071   8.147  1.3767 -0.5257  2.1471
  872MOL0     H17685   0.856  -0.074   8.310  1.4531  2.8549  0.9459
  872MOL0     H17686   0.734   0.156   8.277  3.0397  2.5121 -1.5105
  872MOL0     H17687   0.765   0.135   8.099  2.5581 -0.1489  0.8067
  872MOL0     H17688   0.638  -0.092   8.247 -0.1473 -0.4431  1.1123
  872MOL0     H17689   0.535   0.050   8.208  0.7098  1.3985 -0.0581
  872MOL0     H17690   0.693  -0.122   8.011  0.9464  2.0729  0.3851
  872MOL0     H17691   0.585   0.030   7.972 -2.8539  1.0420  1.0207
  872MOL0     H17692   0.462  -0.150   7.927 -3.7681 -0.9176  1.3714
  872MOL0     H17693   0.405  -0.113   8.087 -1.1090 -1.7432  1.5689
  872MOL0     H17694   0.606  -0.329   8.038  0.9710 -0.0532  0.2490
  872MOL0     H17695   0.511  -0.314   8.181 -0.5404  0.4859 -0.9447
  872MOL0     H17696   0.395  -0.373   7.904  0.9125  1.4123  0.2377
  872MOL0     H17697   0.298  -0.360   8.047  1.0522  0.6669  1.5841
  872MOL0     H17698   0.410  -0.542   8.153 -2.8636  1.1597  0.3806
  872MOL0     H17699   0.382  -0.596   7.981 -1.3562  0.3530  1.1914
  872MOL0     H17700   1.055   0.302   8.278 -0.7325 -1.8276  0.6805
  872MOL0     H17701   1.086   0.434   8.490 -3.9194  2.5039  1.5496
  872MOL0     H17702   0.776   0.686   8.849  0.9821  0.2579  1.0081
  872MOL0     H17703   0.861   0.889   8.947 -1.6592  1.3939 -4.1430
  872MOL0     H17704   1.832   0.341  10.174  0.1137 -0.0744  0.3085
  872MOL0     H17705   2.066   0.287  10.163 -0.4933  2.9485  2.1354
  872MOL0     H17706   2.411   0.314  10.150  0.8905 -0.6071  1.3069
  872MOL0     H17707   2.619   0.367  10.276 -1.6125  0.5646  0.1024
  872MOL0     H17708   2.940   0.605  10.044  0.2298 -1.9053 -3.4376
  872MOL0     H17709   2.975   0.428  10.044 -0.7184  2.0012 -2.0214
  872MOL0     H17710   3.018   0.443  10.306  0.0735 -1.5476 -1.1485
  872MOL0     H17711   3.008   0.619  10.273  0.0562 -0.1792 -1.4543
  872MOL0     H17712   3.194   0.655  10.148 -1.4803  0.3389 -0.6331
  872MOL0     H17713   3.207   0.482  10.102  1.2122  2.6895 -1.8381
  872MOL0     H17714   3.291   0.435  10.341 -1.5564  0.0122  0.2382
  872MOL0     H17715   3.388   0.560  10.252 -0.5103 -0.8461 -1.4828
  872MOL0     H17716   3.197   0.778  10.567  2.0232  1.9786 -2.3829
  872MOL0     H17717   2.795   0.507   9.924  1.3176 -3.7424  0.6203
  872MOL0     H17718   2.509   0.547   9.720 -0.5622 -1.1232 -0.7093
  872MOL0     H17719   2.684   0.539   9.711  0.8011  0.8475 -0.2838
  872MOL0     H17720   2.585   0.388   9.694 -0.0877 -0.8006  2.1072
  873MOL0     O17721   4.660   9.310  11.114  0.4500  0.1986  0.0634
  873MOL0     C17722   4.565   9.375  11.121  1.1813  0.1632  0.1318
  873MOL0     O17723   4.538   9.489  11.044 -0.0326 -0.1660 -0.1727
  873MOL0     C17724   4.650   9.546  10.977 -0.1549  0.8682  0.2857
  873MOL0     C17725   4.628   9.626  10.864  0.4971 -0.7865 -0.0019
  873MOL0     C17726   4.726   9.695  10.793 -0.4124  0.2825 -0.8888
  873MOL0     C17727   4.860   9.674  10.831  0.1385  0.1630 -0.4624
  873MOL0     O17728   4.953   9.744  10.758 -0.4729 -0.7182  0.3653
  873MOL0     C17729   5.076   9.674  10.716  0.6223 -0.0272  0.4423
  873MOL0     C17730   5.053   9.558  10.618 -0.9053 -0.7414 -0.0431
  873MOL0     C17731   4.986   9.439  10.665 -0.3148  0.6066 -0.2149
  873MOL0     C17732   4.997   9.316  10.580  0.0688 -0.2612  0.8506
  873MOL0     C17733   5.130   9.252  10.609 -0.2852 -0.2261  0.0943
  873MOL0     C17734   5.172   9.149  10.496 -0.5398 -0.2001 -0.6129
  873MOL0     C17735   5.179   8.996  10.538 -0.6499 -0.2019  0.3632
  873MOL0     C17736   5.267   8.932  10.433 -0.3233 -0.2335 -0.5031
  873MOL0     N17737   5.303   8.805  10.486  0.3399  0.8288 -0.2454
  873MOL0     C17738   5.402   8.769  10.580  0.7962 -1.4555 -0.5631
  873MOL0     C17739   5.389   8.643  10.597  0.8334 -0.2232 -0.0871
  873MOL0     C17740   5.469   8.565  10.689 -0.6046  0.7047 -0.1397
  873MOL0     C17741   5.616   8.564  10.638  0.5820  0.6653  0.4012
  873MOL0     C17742   5.681   8.425  10.683  0.6718 -0.4229 -0.4037
  873MOL0     C17743   5.820   8.418  10.628  0.4598  0.2991  0.3079
  873MOL0     O17744   5.896   8.540  10.656  0.4439 -0.7306  0.0768
  873MOL0     C17745   6.027   8.552  10.612 -1.4103 -0.0253 -0.3588
  873MOL0     C17746   6.095   8.455  10.529 -0.4666  0.0610 -0.6719
  873MOL0     C17747   6.232   8.479  10.500 -0.4578 -0.5396 -0.3976
  873MOL0     C17748   6.292   8.604  10.531  0.1763  0.2189 -0.2438
  873MOL0     C17749   6.418   8.638  10.465  0.2342 -0.8472 -0.0563
  873MOL0     O17750   6.495   8.559  10.389 -0.7418  0.0710  0.0399
  873MOL0     C17751   6.612   8.596  10.334  0.0519 -0.0057  0.2752
  873MOL0     C17752   6.732   8.572  10.404 -0.3406 -0.2321  0.0224
  873MOL0     C17753   6.849   8.638  10.359 -0.3262 -0.3672  0.4110
  873MOL0     C17754   6.859   8.712  10.239  0.7258  0.1277 -0.4674
  873MOL0     O17755   6.981   8.772  10.207 -0.0777 -0.4848  0.6985
  873MOL0     C17756   6.991   8.844  10.088  0.2756 -0.2924  1.1671
  873MOL0     C17757   7.136   8.895  10.058 -0.9505  0.3532 -0.1666
  873MOL0     C17758   7.164   9.032  10.127  0.6805 -0.6405  0.2169
  873MOL0     C17759   7.127   9.034  10.273  0.2228 -0.0976  0.2240
  873MOL0     C17760   7.166   9.171  10.336 -0.7206  0.0978 -0.3652
  873MOL0     C17761   7.099   9.194  10.468 -1.0638  0.4391  0.1705
  873MOL0     C17762   7.141   9.323  10.535  0.0365 -1.0583 -0.1163
  873MOL0     C17763   7.034   9.362  10.640 -1.1297  0.0778 -0.0483
  873MOL0    Cl17764   7.023   9.232  10.761  0.0802 -0.1151  0.1746
  873MOL0     C17765   6.741   8.707  10.157 -0.1276 -0.3011  0.6937
  873MOL0     C17766   6.624   8.659  10.204 -0.2511  0.7938  0.1431
  873MOL0     O17767   6.447   8.761  10.484 -0.1771 -0.5789 -0.4367
  873MOL0     C17768   6.221   8.686  10.618 -0.3931 -0.4845  0.1909
  873MOL0     C17769   6.093   8.663  10.663  1.2545 -0.2855  0.7606
  873MOL0     N17770   5.275   8.597  10.526 -0.4137  0.0521 -0.4419
  873MOL0     N17771   5.231   8.695  10.458  0.1223 -0.1898 -0.4328
  873MOL0     C17772   4.887   9.596  10.937 -0.7448 -0.3702 -0.6085
  873MOL0     C17773   4.791   9.543  11.008 -0.3061  0.0936 -0.5121
  873MOL0     C17774   4.434   9.320  11.172 -0.3551  0.8150  0.0583
  873MOL0     C17775   4.309   9.360  11.110 -0.1830 -0.5479  0.1096
  873MOL0     C17776   4.183   9.320  11.150 -0.6838  0.7619  0.2905
  873MOL0     C17777   4.178   9.237  11.268  0.3449  0.2251  0.0072
  873MOL0     O17778   4.067   9.179  11.321  0.5385 -0.2259  0.2288
  873MOL0     C17779   3.939   9.245  11.308  0.0510  0.4499  0.0289
  873MOL0     C17780   3.856   9.209  11.173 -0.9921  0.1089  0.5790
  873MOL0     C17781   3.750   9.311  11.137  0.1271 -0.2039  0.0270
  873MOL0     C17782   3.694   9.300  10.999 -0.2045  0.5823 -0.1641
  873MOL0     C17783   3.612   9.185  10.976  0.2834  0.8200  0.0063
  873MOL0     C17784   3.562   9.078  10.948  0.0272 -0.1712 -0.7092
  873MOL0     C17785   4.301   9.197  11.333  0.4299 -1.3070 -0.1543
  873MOL0     C17786   4.429   9.234  11.281  0.4685  0.1119 -0.0482
  873MOL0     C17787   4.544   9.171  11.355 -0.0148  0.5086 -0.2014
  873MOL0     H17788   4.531   9.649  10.820  1.4088  0.0967 -1.6475
  873MOL0     H17789   4.717   9.763  10.709  2.8743  1.3568 -0.5436
  873MOL0     H17790   5.155   9.739  10.676  2.2051 -1.8555  0.4078
  873MOL0     H17791   5.128   9.625  10.800  1.0313 -1.8616 -0.8237
  873MOL0     H17792   5.144   9.526  10.567 -0.4289 -0.6798  0.7412
  873MOL0     H17793   5.001   9.593  10.528  0.6527 -1.9252 -1.4588
  873MOL0     H17794   4.878   9.452  10.671 -0.2134  1.0678  0.7782
  873MOL0     H17795   5.022   9.415  10.765 -1.9436 -1.5986 -0.0818
  873MOL0     H17796   4.925   9.241  10.615  0.2713  0.5263  3.1489
  873MOL0     H17797   4.961   9.334  10.478  2.7946  1.6091  0.1038
  873MOL0     H17798   5.209   9.326  10.625  0.9269 -1.1302 -1.3639
  873MOL0     H17799   5.121   9.190  10.699  0.9419 -2.8204 -1.4290
  873MOL0     H17800   5.109   9.162  10.407  0.7865 -0.1654 -1.5845
  873MOL0     H17801   5.271   9.187  10.467 -0.5747  0.8525  0.5821
  873MOL0     H17802   5.084   8.942  10.539  0.5077 -2.7327 -3.1271
  873MOL0     H17803   5.229   8.988  10.635 -0.3187 -0.6637  0.1589
  873MOL0     H17804   5.216   8.918  10.337 -6.0335 -4.9172  2.6209
  873MOL0     H17805   5.361   8.986  10.416  0.0156 -0.4382  0.6214
  873MOL0     H17806   5.479   8.837  10.616 -1.0625  0.0042  0.9196
  873MOL0     H17807   5.478   8.625  10.779  2.4532  2.7842 -1.6419
  873MOL0     H17808   5.424   8.469  10.715  1.3084 -1.0372 -2.6204
  873MOL0     H17809   5.602   8.576  10.530 -1.0826  0.7865  0.6012
  873MOL0     H17810   5.675   8.650  10.673  1.2819  0.2643  0.2346
  873MOL0     H17811   5.623   8.336  10.657  0.3925 -0.6940  1.0677
  873MOL0     H17812   5.684   8.432  10.792 -0.5057 -1.2714 -0.2997
  873MOL0     H17813   5.826   8.390  10.522  3.5186 -2.5367  1.0515
  873MOL0     H17814   5.874   8.344  10.689  1.5801  1.8743  1.3065
  873MOL0     H17815   6.059   8.362  10.486  1.6046 -0.7237 -0.8266
  873MOL0     H17816   6.288   8.424  10.424  1.4989 -0.0190  0.5932
  873MOL0     H17817   6.719   8.536  10.506 -0.5052  2.4670  1.0426
  873MOL0     H17818   6.935   8.627  10.424  0.6006 -0.8415 -0.8441
  873MOL0     H17819   6.965   8.774  10.008  0.5237  4.1023 -3.2355
  873MOL0     H17820   6.927   8.933  10.080  1.2229  0.2251 -2.2737
  873MOL0     H17821   7.199   8.822  10.109 -1.7614  0.4399  0.9864
  873MOL0     H17822   7.160   8.897   9.951  1.1230 -2.3057  0.1381
  873MOL0     H17823   7.269   9.063  10.119  0.7981 -1.3179 -1.2177
  873MOL0     H17824   7.099   9.105  10.077  0.0255 -0.2977  1.5161
  873MOL0     H17825   7.179   8.951  10.323  2.9646  1.4973  0.2055
  873MOL0     H17826   7.018   9.026  10.282  0.3808 -1.4749  1.3007
  873MOL0     H17827   7.135   9.253  10.271  1.0700  0.7917 -0.4079
  873MOL0     H17828   7.274   9.175  10.355 -1.0694 -1.3429  2.4291
  873MOL0     H17829   6.990   9.183  10.459 -0.9528 -0.9063  0.2503
  873MOL0     H17830   7.130   9.101  10.517 -2.6191 -0.2714 -0.1169
  873MOL0     H17831   7.149   9.403  10.461  1.0549  0.3866  1.4654
  873MOL0     H17832   7.239   9.318  10.584  1.7151 -1.3862 -3.2773
  873MOL0     H17833   7.058   9.456  10.691 -1.3519 -0.2435  0.6537
  873MOL0     H17834   6.938   9.384  10.593  0.0952  3.1801 -1.4578
  873MOL0     H17835   6.749   8.749  10.057 -0.1606 -3.0669 -0.5532
  873MOL0     H17836   6.536   8.674  10.143 -3.0387 -1.6625  3.1788
  873MOL0     H17837   6.272   8.777  10.651  1.3207 -1.1005 -0.6303
  873MOL0     H17838   6.042   8.736  10.726 -0.2080 -0.5030 -0.1139
  873MOL0     H17839   4.994   9.584  10.955 -0.7783 -0.6840 -0.6245
  873MOL0     H17840   4.823   9.489  11.097  0.8582 -0.3099 -1.1531
  873MOL0     H17841   4.312   9.416  11.017  3.9295  0.9458  0.9278
  873MOL0     H17842   4.095   9.341  11.090 -1.7094  1.1313  1.8740
  873MOL0     H17843   3.952   9.353  11.317  1.0016  0.1957  2.3212
  873MOL0     H17844   3.869   9.211  11.385  0.5108 -1.7655 -0.4664
  873MOL0     H17845   3.811   9.109  11.182  1.0554 -0.8821  0.2521
  873MOL0     H17846   3.918   9.201  11.084 -0.2570 -2.1293  1.2086
  873MOL0     H17847   3.797   9.408  11.154  0.4402 -0.5611  1.3110
  873MOL0     H17848   3.670   9.302  11.211  0.7720 -0.6688  0.6820
  873MOL0     H17849   3.641   9.393  10.979  1.3158  1.1154 -1.9504
  873MOL0     H17850   3.777   9.289  10.929  1.5528  2.1185  1.5590
  873MOL0     H17851   3.518   8.985  10.919  1.0266 -0.2521 -2.0752
  873MOL0     H17852   4.305   9.132  11.420 -0.9631  0.2512  1.1612
  873MOL0     H17853   4.515   9.069  11.382  1.0947  0.3959  0.6281
  873MOL0     H17854   4.636   9.158  11.297 -0.8286  1.4406 -1.7746
  873MOL0     H17855   4.567   9.224  11.447 -2.3754 -1.2341  1.5368
  874MOL0     O17856   3.529   9.043   1.750 -0.4381  0.1686  0.8577
  874MOL0     C17857   3.534   8.995   1.632 -0.3257  0.0461  0.0700
  874MOL0     O17858   3.621   9.040   1.537  0.8652 -0.9599 -0.5988
  874MOL0     C17859   3.694   9.158   1.559  0.0688 -0.2957  0.3352
  874MOL0     C17860   3.651   9.285   1.508 -0.0243  0.1473  0.7503
  874MOL0     C17861   3.736   9.390   1.526 -0.9567 -0.4994 -0.4714
  874MOL0     C17862   3.855   9.379   1.595  0.3855  0.2960 -0.1375
  874MOL0     O17863   3.947   9.481   1.624  0.5826  0.4050 -0.4450
  874MOL0     C17864   3.889   9.612   1.614 -0.8594  0.0459  0.2464
  874MOL0     C17865   3.895   9.680   1.752 -0.3724  0.1603 -0.6013
  874MOL0     C17866   4.015   9.632   1.838 -0.3976  0.1823 -0.1096
  874MOL0     C17867   4.004   9.700   1.972 -0.2093 -0.0087 -0.7272
  874MOL0     C17868   4.094   9.635   2.081 -1.3436 -0.3692 -0.1657
  874MOL0     C17869   4.139   9.729   2.187  0.0430 -0.3116  0.1159
  874MOL0     C17870   4.041   9.785   2.282  0.2144 -0.2267  0.2289
  874MOL0     C17871   4.107   9.859   2.387 -0.7683  0.4366 -0.8657
  874MOL0     N17872   4.193   9.980   2.350 -0.0598  0.2639 -0.6170
  874MOL0     C17873   4.160  10.118   2.365 -0.4127  0.0386  0.1795
  874MOL0     C17874   4.261  10.176   2.298  0.2012 -0.5918 -0.0497
  874MOL0     C17875   4.269  10.324   2.280 -0.2041 -0.3932 -0.1316
  874MOL0     C17876   4.417  10.374   2.328  0.4641 -0.3114 -0.3381
  874MOL0     C17877   4.445  10.518   2.286  0.4032  0.2378 -0.0948
  874MOL0     C17878   4.481  10.520   2.130  0.0040 -0.4234  1.1557
  874MOL0     O17879   4.554  10.630   2.087  0.5623 -0.2178 -0.8427
  874MOL0     C17880   4.623  10.620   1.965  0.7161  1.0298 -0.9937
  874MOL0     C17881   4.551  10.586   1.851 -0.2776 -0.1571  0.8288
  874MOL0     C17882   4.614  10.569   1.725 -0.7204 -0.8924  0.1967
  874MOL0     C17883   4.749  10.599   1.720  0.2409 -0.3399  0.1756
  874MOL0     C17884   4.814  10.606   1.589 -0.5762  0.6136 -0.7479
  874MOL0     O17885   4.947  10.640   1.594 -0.4466  0.5375  0.3866
  874MOL0     C17886   5.027  10.608   1.487 -0.1825  0.0176 -0.6094
  874MOL0     C17887   5.016  10.668   1.364 -0.5206  0.3250 -0.1487
  874MOL0     C17888   5.113  10.651   1.267 -0.1157 -0.0555  0.3425
  874MOL0     C17889   5.231  10.571   1.292  0.5500  0.3150  0.1701
  874MOL0     O17890   5.315  10.536   1.186 -0.5660  1.1666 -0.0108
  874MOL0     C17891   5.446  10.476   1.210  0.4560  0.3036 -0.3983
  874MOL0     C17892   5.524  10.465   1.089 -0.0346  0.1845  0.5451
  874MOL0     C17893   5.664  10.411   1.119  0.8460 -0.3265  0.2736
  874MOL0     C17894   5.773  10.458   1.038 -0.7568  0.6197 -0.6278
  874MOL0     C17895   5.894  10.372   1.033 -0.2126 -0.4073  0.1411
  874MOL0     C17896   5.934  10.331   1.177  0.4614 -0.3369 -0.3934
  874MOL0     C17897   6.063  10.241   1.174  0.6666 -0.4169 -0.1088
  874MOL0     C17898   6.056  10.097   1.123  0.2819  0.4619  0.0539
  874MOL0    Cl17899   6.232  10.047   1.120  0.1333  0.3814 -0.0027
  874MOL0     C17900   5.241  10.505   1.420  0.6944  0.5126 -0.2537
  874MOL0     C17901   5.137  10.529   1.510  0.0942  0.6329 -0.4582
  874MOL0     O17902   4.753  10.578   1.486  0.0957  0.9381  0.1799
  874MOL0     C17903   4.818  10.643   1.834 -0.0198 -0.1889 -0.3292
  874MOL0     C17904   4.755  10.655   1.952 -0.1080  0.0107 -0.9057
  874MOL0     N17905   4.352  10.083   2.255  0.6514  0.4120  0.5460
  874MOL0     N17906   4.307   9.962   2.281 -0.3444 -0.6921 -0.0033
  874MOL0     C17907   3.898   9.250   1.643 -0.3554 -0.0394  0.6840
  874MOL0     C17908   3.815   9.141   1.624  0.1235 -0.7110  0.3345
  874MOL0     C17909   3.433   8.899   1.597  0.2911 -0.2277 -0.5540
  874MOL0     C17910   3.399   8.882   1.462  0.1697  0.5019 -0.7068
  874MOL0     C17911   3.294   8.801   1.421 -0.4645 -0.1115  0.4786
  874MOL0     C17912   3.238   8.708   1.509 -0.5305 -0.4360  0.0790
  874MOL0     O17913   3.153   8.603   1.481  0.4923  0.0581 -0.3779
  874MOL0     C17914   3.070   8.608   1.362 -0.5372 -0.0903  0.3338
  874MOL0     C17915   3.150   8.568   1.236 -0.1850 -0.5151  0.0941
  874MOL0     C17916   3.118   8.650   1.113  0.7297 -0.5578  0.8086
  874MOL0     C17917   3.203   8.602   1.000  0.5816  0.1710 -0.6943
  874MOL0     C17918   3.147   8.652   0.874  0.3057 -0.2264  1.6019
  874MOL0     C17919   3.113   8.704   0.772 -0.3584  0.8531  0.1878
  874MOL0     C17920   3.282   8.710   1.634  0.4081 -0.2646 -0.0084
  874MOL0     C17921   3.363   8.810   1.682 -0.9960  0.8675 -0.0401
  874MOL0     C17922   3.372   8.816   1.833 -0.0222  0.2471  0.1850
  874MOL0     H17923   3.562   9.297   1.448  1.0983  1.1235 -0.7987
  874MOL0     H17924   3.692   9.477   1.479  0.4456 -0.3927 -1.6445
  874MOL0     H17925   3.951   9.678   1.553 -0.9452 -0.9466 -0.9361
  874MOL0     H17926   3.786   9.618   1.578 -0.4122  1.2180 -0.8987
  874MOL0     H17927   3.795   9.675   1.795  0.3910  0.4949  1.3324
  874MOL0     H17928   3.904   9.787   1.731  0.0459  0.3316  0.3602
  874MOL0     H17929   4.112   9.658   1.795  0.9782  0.7293  3.0463
  874MOL0     H17930   3.997   9.526   1.859  2.5468 -0.0007  2.1101
  874MOL0     H17931   4.044   9.802   1.966  1.8194 -0.7680 -0.8384
  874MOL0     H17932   3.898   9.700   1.999 -0.2100 -0.7765 -0.7124
  874MOL0     H17933   4.046   9.549   2.127  0.8221 -2.6747 -1.9321
  874MOL0     H17934   4.172   9.575   2.035 -0.4070  0.0505  0.8322
  874MOL0     H17935   4.214   9.668   2.239  0.2600  0.0084  0.1825
  874MOL0     H17936   4.186   9.816   2.140 -0.5566 -0.2949 -0.4667
  874MOL0     H17937   3.974   9.707   2.320  0.3497  0.8149  2.8370
  874MOL0     H17938   3.974   9.846   2.220  0.3952 -3.0660 -3.0481
  874MOL0     H17939   4.036   9.890   2.464  1.6594  0.3820  1.5380
  874MOL0     H17940   4.182   9.792   2.431 -1.5111 -0.7940 -1.3939
  874MOL0     H17941   4.083  10.173   2.419 -0.3120  1.5617 -1.1634
  874MOL0     H17942   4.260  10.341   2.173 -0.5716  0.8867  0.0905
  874MOL0     H17943   4.201  10.390   2.334 -1.2523  0.1966 -2.1053
  874MOL0     H17944   4.419  10.369   2.437 -0.2658 -3.1613 -0.3997
  874MOL0     H17945   4.494  10.310   2.284 -2.5741 -2.6122 -2.7542
  874MOL0     H17946   4.522  10.565   2.348  2.0293 -1.0277 -1.0611
  874MOL0     H17947   4.355  10.580   2.296  1.5594  1.9257  0.2613
  874MOL0     H17948   4.385  10.520   2.077  1.4461  2.3741 -1.7836
  874MOL0     H17949   4.538  10.430   2.103  2.3652  0.9208  1.4326
  874MOL0     H17950   4.443  10.584   1.853 -0.4426  0.5465 -2.4113
  874MOL0     H17951   4.558  10.539   1.638 -3.0728  2.0841  0.4972
  874MOL0     H17952   4.925  10.723   1.343  0.3820  2.0107  0.1592
  874MOL0     H17953   5.105  10.687   1.165  3.0757  0.8282  0.3267
  874MOL0     H17954   5.485  10.543   1.287 -1.1666  0.5856  0.2166
  874MOL0     H17955   5.424  10.376   1.248 -1.2043  0.2096 -1.5199
  874MOL0     H17956   5.472  10.397   1.020  2.4370 -1.5115  0.2345
  874MOL0     H17957   5.519  10.560   1.035  0.7695 -0.0297  0.0714
  874MOL0     H17958   5.677  10.423   1.227 -1.0111  0.1263  0.4905
  874MOL0     H17959   5.646  10.306   1.094 -0.9774  0.1978 -0.8152
  874MOL0     H17960   5.799  10.557   1.079  3.5631 -1.0829  1.3084
  874MOL0     H17961   5.745  10.475   0.934  1.9395 -1.3109 -1.7865
  874MOL0     H17962   5.974  10.407   0.967 -1.4043 -1.7902 -2.1566
  874MOL0     H17963   5.865  10.282   0.978 -0.0813  0.0425 -0.6767
  874MOL0     H17964   5.953  10.423   1.232  0.3796  0.7426 -2.0804
  874MOL0     H17965   5.855  10.265   1.215 -2.1047  2.5602 -0.3566
  874MOL0     H17966   6.093  10.224   1.278 -1.4625 -5.2109 -0.0221
  874MOL0     H17967   6.158  10.283   1.141  0.2558 -0.0675 -0.8935
  874MOL0     H17968   5.996  10.026   1.181  0.8531  1.8280  2.4812
  874MOL0     H17969   6.012  10.098   1.023 -1.8575  0.5430  0.9322
  874MOL0     H17970   5.315  10.428   1.439  0.9404 -0.0112 -2.9148
  874MOL0     H17971   5.139  10.472   1.602  0.3467 -0.8908 -1.3883
  874MOL0     H17972   4.921  10.677   1.838 -0.2033  0.2274  3.0308
  874MOL0     H17973   4.816  10.700   2.030  0.0731  2.4118 -2.3089
  874MOL0     H17974   3.999   9.249   1.683 -0.1331  2.5407  0.4036
  874MOL0     H17975   3.848   9.048   1.668 -2.4904 -2.6753 -1.5311
  874MOL0     H17976   3.447   8.951   1.393  2.4096  0.4155  0.6572
  874MOL0     H17977   3.269   8.811   1.316  0.8392 -1.0573  0.0553
  874MOL0     H17978   3.028   8.708   1.368 -1.1339 -0.4345  3.0049
  874MOL0     H17979   2.986   8.544   1.388  0.1996 -0.1478  2.8215
  874MOL0     H17980   3.122   8.465   1.214 -1.3529  0.2580 -2.3656
  874MOL0     H17981   3.255   8.576   1.265 -0.1549  0.3488 -0.2336
  874MOL0     H17982   3.135   8.757   1.125 -0.9227 -0.1121 -0.5203
  874MOL0     H17983   3.013   8.630   1.090  1.2756 -4.6164  0.9519
  874MOL0     H17984   3.308   8.627   1.010  0.5729  0.5997 -1.5506
  874MOL0     H17985   3.199   8.493   0.991  0.7833 -0.0503  1.5422
  874MOL0     H17986   3.087   8.752   0.680 -1.1197 -2.6819 -1.5942
  874MOL0     H17987   3.241   8.638   1.704 -3.1160  0.5298 -1.0196
  874MOL0     H17988   3.299   8.745   1.872 -0.7758  0.2838 -1.0883
  874MOL0     H17989   3.474   8.795   1.866 -0.0032 -0.6072 -0.3804
  874MOL0     H17990   3.349   8.912   1.879  0.3967  0.9576 -1.0359
  875MOL0     O17991   6.921  10.555  11.067 -0.3496  0.0363  0.5748
  875MOL0     C17992   6.887  10.582  10.950 -0.6740  0.4806 -0.8016
  875MOL0     O17993   6.957  10.550  10.845  0.0974  0.0152 -0.2314
  875MOL0     C17994   7.097  10.524  10.868  0.8811 -0.5938 -0.8377
  875MOL0     C17995   7.187  10.595  10.798 -0.3127 -0.4923 -0.2171
  875MOL0     C17996   7.325  10.589  10.831 -0.6175 -0.1815  0.1596
  875MOL0     C17997   7.372  10.494  10.924  0.4434 -0.6163  0.7789
  875MOL0     O17998   7.492  10.508  10.977 -0.1033  0.3497 -0.9164
  875MOL0     C17999   7.564  10.635  10.990  0.5186  0.0759  0.6508
  875MOL0     C18000   7.663  10.618  11.099  0.2698 -0.3273 -0.9036
  875MOL0     C18001   7.779  10.507  11.089  1.4182  0.0040  0.1007
  875MOL0     C18002   7.886  10.566  10.999 -0.3208 -0.0167 -0.7124
  875MOL0     C18003   8.017  10.486  11.008 -0.0182 -0.1908  0.3075
  875MOL0     C18004   8.036  10.351  10.940 -0.0330  0.6788 -0.3961
  875MOL0     C18005   8.029  10.353  10.789  0.1977  0.1239 -1.1632
  875MOL0     C18006   8.049  10.215  10.734 -0.6430  0.0964  0.1892
  875MOL0     N18007   8.179  10.154  10.777 -0.1727 -0.1608 -0.0820
  875MOL0     C18008   8.306  10.174  10.718 -1.0347  0.8094 -0.1154
  875MOL0     C18009   8.395  10.086  10.781  0.4004  0.4920  0.0321
  875MOL0     C18010   8.533  10.050  10.737  0.4667  0.5944 -0.3102
  875MOL0     C18011   8.625  10.171  10.711 -0.5734  0.1617  1.3686
  875MOL0     C18012   8.774  10.142  10.729 -0.5664  0.2705 -0.0346
  875MOL0     C18013   8.810  10.186  10.869  0.5195  0.6071 -0.3334
  875MOL0     O18014   8.955  10.197  10.890  0.0144  0.1703  0.0643
  875MOL0     C18015   9.020  10.079  10.879 -0.2348  0.1175 -0.0143
  875MOL0     C18016   9.100  10.065  10.763  0.7313 -0.0455 -0.0341
  875MOL0     C18017   9.169   9.951  10.734 -0.1432 -0.2472 -0.2230
  875MOL0     C18018   9.172   9.853  10.838 -0.3214 -0.2932  0.6783
  875MOL0     C18019   9.267   9.740  10.822 -0.3044  0.7916  0.2950
  875MOL0     O18020   9.374   9.765  10.737  0.1327  0.0768  0.4656
  875MOL0     C18021   9.465   9.671  10.691  0.3514 -0.5301 -0.3630
  875MOL0     C18022   9.498   9.671  10.553 -1.0834 -0.5489 -0.7460
  875MOL0     C18023   9.592   9.582  10.496 -0.6020 -0.3476 -0.3746
  875MOL0     C18024   9.650   9.479  10.565  0.1562 -0.7363 -0.9729
  875MOL0     O18025   9.742   9.395  10.506  0.3319 -0.2263 -0.2358
  875MOL0     C18026   9.822   9.308  10.584 -0.2787  0.3161 -0.3913
  875MOL0     C18027   9.899   9.208  10.491 -0.4223 -0.3583 -0.5611
  875MOL0     C18028   9.971   9.285  10.369 -0.2231 -0.1671 -0.3635
  875MOL0     C18029  10.093   9.206  10.313 -0.4537  0.6422 -0.4738
  875MOL0     C18030  10.174   9.309  10.225 -0.5153 -0.1253  0.1040
  875MOL0     C18031  10.295   9.235  10.174 -0.5149  0.2364  0.0498
  875MOL0     C18032  10.397   9.327  10.101 -0.0855 -0.2638 -0.2335
  875MOL0     C18033  10.330   9.382   9.979 -0.8712 -0.0522  0.1667
  875MOL0    Cl18034  10.264   9.274   9.854  0.0288  0.1489  0.1582
  875MOL0     C18035   9.603   9.465  10.700 -0.5931 -0.0734 -0.0140
  875MOL0     C18036   9.521   9.565  10.767 -0.0880  0.1540  0.8467
  875MOL0     O18037   9.242   9.630  10.879  0.5803  0.8280  0.6930
  875MOL0     C18038   9.088   9.864  10.946 -0.0232 -0.7002 -1.0652
  875MOL0     C18039   9.022   9.987  10.973  0.3253  0.0766 -0.4874
  875MOL0     N18040   8.323  10.014  10.872 -0.2495  0.1754  0.6626
  875MOL0     N18041   8.193  10.049  10.866 -0.3099 -0.5869 -0.4596
  875MOL0     C18042   7.282  10.406  10.969 -0.4842 -0.1908  0.0909
  875MOL0     C18043   7.145  10.423  10.954 -0.0113 -0.7998 -0.3179
  875MOL0     C18044   6.752  10.648  10.924  0.4413  0.4419  0.4679
  875MOL0     C18045   6.728  10.710  10.799 -0.5246  0.3220 -0.1709
  875MOL0     C18046   6.608  10.766  10.775  0.8764 -0.4988 -0.4568
  875MOL0     C18047   6.497  10.749  10.852 -0.1668 -0.6902  0.3848
  875MOL0     O18048   6.377  10.801  10.821 -0.7604 -0.2920  0.5673
  875MOL0     C18049   6.309  10.882  10.918 -0.3138  0.5073  0.2240
  875MOL0     C18050   6.370  11.014  10.931  0.6149  0.2086  0.8097
  875MOL0     C18051   6.343  11.102  10.809 -0.3687 -0.7197  0.2163
  875MOL0     C18052   6.452  11.200  10.785 -0.0879 -0.6648 -0.9449
  875MOL0     C18053   6.575  11.140  10.750  0.3885 -0.1102 -0.5568
  875MOL0     C18054   6.679  11.094  10.718  0.1188  0.1484 -0.0614
  875MOL0     C18055   6.521  10.668  10.957 -0.1835 -0.2213  0.7070
  875MOL0     C18056   6.642  10.624  11.008  0.4336 -0.2817 -0.3714
  875MOL0     C18057   6.645  10.546  11.137  0.1013  0.3453  0.2847
  875MOL0     H18058   7.136  10.673  10.743 -1.8868 -1.3587 -0.0401
  875MOL0     H18059   7.395  10.665  10.797 -1.3031  0.2678 -0.2795
  875MOL0     H18060   7.623  10.657  10.901 -0.3151 -1.0840 -0.2260
  875MOL0     H18061   7.498  10.719  11.012  1.2220  0.6226  0.6779
  875MOL0     H18062   7.611  10.597  11.193  0.6303 -2.0270 -1.0423
  875MOL0     H18063   7.714  10.714  11.110  1.5584 -1.2062  1.7409
  875MOL0     H18064   7.749  10.408  11.055 -0.7037  0.8704 -0.7470
  875MOL0     H18065   7.819  10.488  11.189 -1.3385 -0.2023  1.2472
  875MOL0     H18066   7.849  10.584  10.898 -0.3263  1.1851 -0.5199
  875MOL0     H18067   7.903  10.662  11.051  0.5608 -0.2521 -0.5348
  875MOL0     H18068   8.078  10.570  10.972  2.0744 -0.3865  3.0569
  875MOL0     H18069   8.042  10.472  11.114  1.4333 -0.8274 -0.0941
  875MOL0     H18070   8.133  10.315  10.974 -0.8902 -1.2151  0.1874
  875MOL0     H18071   7.966  10.276  10.977  2.1642 -2.5328 -2.3051
  875MOL0     H18072   8.115  10.401  10.741  0.1768  0.0461 -1.2780
  875MOL0     H18073   7.931  10.394  10.764 -1.3360 -2.4648  0.1701
  875MOL0     H18074   7.964  10.158  10.773 -2.3618  1.3416 -1.5497
  875MOL0     H18075   8.051  10.202  10.625  1.5076  0.3772  0.1625
  875MOL0     H18076   8.329  10.234  10.630 -0.4084  0.5454 -0.1386
  875MOL0     H18077   8.575   9.986  10.815 -2.9278 -1.6445 -0.1117
  875MOL0     H18078   8.518   9.987  10.649 -0.2359  0.0089  0.2121
  875MOL0     H18079   8.616  10.195  10.605 -0.4853 -2.1548  0.8058
  875MOL0     H18080   8.595  10.250  10.782 -2.2129 -0.2553  1.1853
  875MOL0     H18081   8.825  10.201  10.652 -0.6364 -1.1501 -1.2135
  875MOL0     H18082   8.801  10.039  10.707 -0.7913  0.2960 -0.4380
  875MOL0     H18083   8.758  10.113  10.933  2.1466  1.0893  1.6669
  875MOL0     H18084   8.772  10.286  10.890  0.2948  0.1635  1.6572
  875MOL0     H18085   9.105  10.152  10.698  0.0201 -0.9550 -1.3474
  875MOL0     H18086   9.229   9.935  10.646 -1.8477 -2.0442 -1.1122
  875MOL0     H18087   9.460   9.753  10.492 -1.5210  1.2971  1.8718
  875MOL0     H18088   9.613   9.591  10.390  1.4733  0.7433  0.0746
  875MOL0     H18089   9.894   9.357  10.651 -0.2558  0.1407 -0.2872
  875MOL0     H18090   9.759   9.249  10.652  5.3592 -0.4854  5.0372
  875MOL0     H18091   9.971   9.150  10.549 -0.4544 -0.9221 -1.0773
  875MOL0     H18092   9.829   9.138  10.445 -2.1257 -0.6231  2.2046
  875MOL0     H18093   9.894   9.297  10.291 -0.3487  0.8086 -0.1029
  875MOL0     H18094   9.994   9.390  10.385 -1.5828  0.1765 -0.4919
  875MOL0     H18095  10.066   9.118  10.254  0.9078 -0.2390  0.1669
  875MOL0     H18096  10.160   9.177  10.395 -1.5010  2.7265  1.2181
  875MOL0     H18097  10.202   9.391  10.291 -0.6180  1.6637 -1.9467
  875MOL0     H18098  10.114   9.355  10.146  1.5105  1.1091 -0.8233
  875MOL0     H18099  10.351   9.176  10.247 -1.8248 -2.1552 -0.7459
  875MOL0     H18100  10.258   9.161  10.102  1.6700  0.9649 -1.9694
  875MOL0     H18101  10.483   9.261  10.084  0.5662  0.6999 -0.7520
  875MOL0     H18102  10.432   9.404  10.170 -0.6401 -2.6493  2.9279
  875MOL0     H18103  10.241   9.432  10.020 -0.8170 -0.4140  0.7305
  875MOL0     H18104  10.399   9.445   9.921  0.4921 -2.4457 -0.9736
  875MOL0     H18105   9.639   9.384  10.763  2.1547 -0.1748 -1.5979
  875MOL0     H18106   9.493   9.570  10.871 -3.0684  0.1530  0.1480
  875MOL0     H18107   9.077   9.776  11.009  0.5544 -0.7023 -0.9644
  875MOL0     H18108   8.973  10.002  11.069  1.1301  2.7131 -0.4164
  875MOL0     H18109   7.313  10.326  11.036  1.1306 -1.0863 -1.6185
  875MOL0     H18110   7.072  10.358  11.000 -0.9431  0.6487  0.3016
  875MOL0     H18111   6.810  10.708  10.728 -0.0044  1.6859  0.3567
  875MOL0     H18112   6.603  10.829  10.687  0.7911  1.0824  0.6323
  875MOL0     H18113   6.312  10.844  11.021 -1.2528 -0.1289  0.0272
  875MOL0     H18114   6.206  10.896  10.886 -0.6906 -0.1224  1.1298
  875MOL0     H18115   6.476  10.989  10.939  0.4186 -0.5083  1.3430
  875MOL0     H18116   6.336  11.063  11.023  0.3990 -1.0642  1.4422
  875MOL0     H18117   6.247  11.155  10.818  1.1970  3.4595 -3.7770
  875MOL0     H18118   6.339  11.035  10.723 -0.8477  0.9441 -1.1109
  875MOL0     H18119   6.421  11.271  10.708  0.4623 -1.4089 -1.8777
  875MOL0     H18120   6.467  11.264  10.872  5.2466 -0.0300 -2.0337
  875MOL0     H18121   6.758  11.044  10.667 -0.9444 -0.3372 -1.3058
  875MOL0     H18122   6.436  10.635  11.017 -0.1598 -2.9350 -0.6241
  875MOL0     H18123   6.705  10.603  11.208  0.3171 -0.6781  0.9356
  875MOL0     H18124   6.543  10.536  11.176  0.3221  0.1912  0.8233
  875MOL0     H18125   6.683  10.444  11.123 -0.3546  0.1797  0.2332
  876MOL0     O18126   5.757   8.454   0.409  0.6502  0.7683 -0.4133
  876MOL0     C18127   5.696   8.339   0.404 -0.7396 -0.8359 -1.3525
  876MOL0     O18128   5.759   8.219   0.390 -0.3417 -0.6289 -0.2722
  876MOL0     C18129   5.901   8.216   0.399  1.0233  0.4996 -0.4493
  876MOL0     C18130   5.967   8.229   0.521  0.0373  0.6405 -0.1675
  876MOL0     C18131   6.106   8.218   0.521  0.5143 -0.2051  0.2917
  876MOL0     C18132   6.179   8.193   0.404 -0.3900 -0.5816  0.4245
  876MOL0     O18133   6.314   8.205   0.417  0.7698 -0.3338 -0.2026
  876MOL0     C18134   6.404   8.193   0.307  0.8010  0.1698  0.2114
  876MOL0     C18135   6.540   8.204   0.351  0.1367  0.3866  0.1863
  876MOL0     C18136   6.591   8.337   0.404 -0.2763 -0.4673  0.2836
  876MOL0     C18137   6.728   8.324   0.478 -0.1966  0.6111  0.3644
  876MOL0     C18138   6.788   8.448   0.542  0.5626 -0.1402  0.1095
  876MOL0     C18139   6.906   8.405   0.628 -0.6416 -0.1719 -0.5720
  876MOL0     C18140   6.992   8.519   0.687  0.1597  0.6801 -1.5286
  876MOL0     C18141   7.048   8.621   0.591 -0.2697  0.6078 -0.8531
  876MOL0     N18142   7.147   8.699   0.664 -1.7933  0.5479 -0.0699
  876MOL0     C18143   7.272   8.666   0.716 -0.0171 -0.5794 -0.7850
  876MOL0     C18144   7.312   8.778   0.786  0.1714  0.2506  0.6947
  876MOL0     C18145   7.450   8.819   0.847 -0.0470  0.2395 -0.1224
  876MOL0     C18146   7.473   8.787   0.998  0.1407 -0.2016  0.5027
  876MOL0     C18147   7.613   8.841   1.044  0.6728  0.3361  0.0367
  876MOL0     C18148   7.740   8.779   0.981 -0.3727 -0.1987 -0.2664
  876MOL0     O18149   7.761   8.816   0.842  0.7686  0.2137 -0.5346
  876MOL0     C18150   7.837   8.729   0.772  0.3841 -0.1546  0.6042
  876MOL0     C18151   7.774   8.630   0.703 -0.4081  0.2362  0.1926
  876MOL0     C18152   7.853   8.545   0.619  1.1499 -0.5888  0.6786
  876MOL0     C18153   7.990   8.565   0.605  0.6855 -0.3423 -1.0477
  876MOL0     C18154   8.074   8.480   0.510  0.7149  0.6519  0.2742
  876MOL0     O18155   8.202   8.504   0.500  0.0188 -0.0092 -0.2592
  876MOL0     C18156   8.273   8.433   0.408 -0.3353  0.0451  1.1434
  876MOL0     C18157   8.321   8.497   0.287 -0.2494 -0.5361 -1.0652
  876MOL0     C18158   8.398   8.424   0.191 -0.3397 -0.4869  0.7099
  876MOL0     C18159   8.418   8.284   0.197  1.5072  0.3326 -1.0462
  876MOL0     O18160   8.480   8.226   0.097 -0.4107  0.6424 -0.1367
  876MOL0     C18161   8.598   8.152   0.120  0.5129 -0.7799  0.2612
  876MOL0     C18162   8.700   8.263   0.148  0.4362 -0.0895  0.3792
  876MOL0     C18163   8.712   8.369   0.040 -0.0106 -0.7310 -0.0303
  876MOL0     C18164   8.824   8.355  -0.064  0.2024  0.2489 -0.6496
  876MOL0     C18165   8.822   8.465  -0.181  0.2819  0.7112 -0.6175
  876MOL0     C18166   8.926   8.429  -0.291 -0.1433 -0.1054 -0.4864
  876MOL0     C18167   9.074   8.433  -0.237  0.4047  0.1548 -0.1574
  876MOL0     C18168   9.168   8.382  -0.353  0.2809 -0.8421  0.6808
  876MOL0    Cl18169   9.331   8.400  -0.289 -0.1550 -0.3427  0.1136
  876MOL0     C18170   8.375   8.226   0.310 -0.5708  0.4091 -0.0180
  876MOL0     C18171   8.302   8.294   0.417  0.7399 -0.1565 -0.3610
  876MOL0     O18172   8.009   8.385   0.460  0.0945  0.7643  0.0110
  876MOL0     C18173   8.052   8.672   0.677 -0.3678 -0.3867 -0.3477
  876MOL0     C18174   7.972   8.753   0.753  0.0649 -0.3732 -0.7311
  876MOL0     N18175   7.207   8.872   0.783 -0.2870  0.9358 -0.3956
  876MOL0     N18176   7.110   8.820   0.720 -0.1840  0.2713  0.1871
  876MOL0     C18177   6.111   8.169   0.281  0.3549  0.4832 -0.1380
  876MOL0     C18178   5.972   8.188   0.280  0.2336 -0.2024 -0.0683
  876MOL0     C18179   5.555   8.320   0.424 -0.1231  1.1266  0.2218
  876MOL0     C18180   5.469   8.409   0.357 -0.0678  0.0526  0.4119
  876MOL0     C18181   5.329   8.407   0.371 -0.0666 -0.3310  1.1435
  876MOL0     C18182   5.275   8.297   0.440  0.6397 -0.7260 -0.0157
  876MOL0     O18183   5.143   8.261   0.451 -0.0684  0.3347  0.4612
  876MOL0     C18184   5.047   8.348   0.396  0.1354 -0.8786 -0.2141
  876MOL0     C18185   4.903   8.291   0.394  1.3030 -0.1074  0.0613
  876MOL0     C18186   4.899   8.146   0.341 -0.5616 -0.6218  0.4309
  876MOL0     C18187   4.978   8.121   0.212 -0.3962 -0.0802 -0.0802
  876MOL0     C18188   4.895   8.034   0.126 -0.9573 -0.2467  0.0495
  876MOL0     C18189   4.831   7.961   0.054 -0.3619 -0.3925 -0.1470
  876MOL0     C18190   5.364   8.202   0.499 -0.3796 -0.1536 -0.0378
  876MOL0     C18191   5.504   8.216   0.501 -0.1083  0.1492 -1.6533
  876MOL0     C18192   5.591   8.127   0.593  0.2154  0.4847  0.3957
  876MOL0     H18193   5.917   8.234   0.617  2.2219 -0.0521  1.0541
  876MOL0     H18194   6.149   8.221   0.621  0.7391  1.9377  0.1737
  876MOL0     H18195   6.409   8.090   0.269  0.0993  0.4506 -0.6600
  876MOL0     H18196   6.383   8.260   0.224 -1.0574 -2.1732 -1.3468
  876MOL0     H18197   6.619   8.182   0.278  1.2063  0.1721  1.3669
  876MOL0     H18198   6.552   8.126   0.427  0.3669 -1.6753 -1.8452
  876MOL0     H18199   6.513   8.375   0.471 -1.5167 -0.4837 -1.0908
  876MOL0     H18200   6.612   8.407   0.323 -0.6958 -1.8071 -1.0139
  876MOL0     H18201   6.722   8.247   0.555  1.7022  2.5990  2.6886
  876MOL0     H18202   6.805   8.291   0.406 -1.4660 -0.7055 -0.4527
  876MOL0     H18203   6.835   8.516   0.470  1.2499 -1.5330 -0.8112
  876MOL0     H18204   6.719   8.503   0.606  1.3257 -1.2774  1.9953
  876MOL0     H18205   6.868   8.335   0.703 -0.7974 -1.3113 -1.6730
  876MOL0     H18206   6.976   8.338   0.577  1.3113  2.1420 -1.1518
  876MOL0     H18207   7.076   8.474   0.742 -0.0174  0.6563 -1.2788
  876MOL0     H18208   6.930   8.563   0.764  1.0975 -0.3426 -0.1346
  876MOL0     H18209   7.096   8.575   0.504 -0.1057  0.9016 -0.9202
  876MOL0     H18210   6.968   8.686   0.554  1.4364  2.4695 -1.5086
  876MOL0     H18211   7.328   8.578   0.686 -1.3395 -0.4968 -3.8834
  876MOL0     H18212   7.524   8.774   0.780 -1.0912 -0.7387 -0.6755
  876MOL0     H18213   7.459   8.927   0.834 -2.8540  0.3994 -1.6631
  876MOL0     H18214   7.392   8.838   1.051  0.1760 -0.0338  0.3950
  876MOL0     H18215   7.466   8.678   1.008  1.7654 -0.3696  0.0146
  876MOL0     H18216   7.621   8.829   1.153 -2.5381 -1.1299  0.2329
  876MOL0     H18217   7.616   8.948   1.021 -3.0519  0.4753 -0.4886
  876MOL0     H18218   7.753   8.672   1.004 -2.7961 -1.0855 -2.4691
  876MOL0     H18219   7.821   8.831   1.032 -1.0449 -0.4908  1.1546
  876MOL0     H18220   7.667   8.610   0.713 -0.2877 -1.1955 -0.9756
  876MOL0     H18221   7.803   8.469   0.559 -0.8131 -0.5247  2.1260
  876MOL0     H18222   8.295   8.601   0.270  0.0439 -0.5757 -1.8227
  876MOL0     H18223   8.444   8.488   0.116  0.9635  0.6566  2.3952
  876MOL0     H18224   8.583   8.084   0.204  1.2473 -2.3856 -0.8472
  876MOL0     H18225   8.636   8.089   0.039 -2.6558 -1.4959 -0.8136
  876MOL0     H18226   8.672   8.316   0.240  0.8876  0.5097  0.1778
  876MOL0     H18227   8.801   8.229   0.169  0.7593  0.1331 -0.7418
  876MOL0     H18228   8.619   8.367  -0.017 -1.5832  0.5509  2.3432
  876MOL0     H18229   8.728   8.469   0.081 -2.4150  0.9500 -2.8711
  876MOL0     H18230   8.829   8.250  -0.095  1.0431  0.2868 -0.6403
  876MOL0     H18231   8.918   8.368  -0.011  0.6771  3.4167 -2.0044
  876MOL0     H18232   8.840   8.563  -0.136  0.6205  0.3982 -0.0573
  876MOL0     H18233   8.720   8.463  -0.221 -1.1477  2.1592  2.5813
  876MOL0     H18234   8.915   8.329  -0.334  1.4014 -0.1480 -0.8662
  876MOL0     H18235   8.908   8.504  -0.368 -0.4406 -1.1601 -1.4725
  876MOL0     H18236   9.090   8.366  -0.152 -0.8649 -0.6134 -0.5071
  876MOL0     H18237   9.094   8.536  -0.206 -0.3992  0.2372  0.0973
  876MOL0     H18238   9.158   8.276  -0.378  1.1922 -0.2973 -2.3832
  876MOL0     H18239   9.164   8.444  -0.443 -0.9432 -1.6103  0.1798
  876MOL0     H18240   8.401   8.121   0.326  1.5823  1.2322  2.6861
  876MOL0     H18241   8.284   8.230   0.503 -0.9762  0.5475 -0.1574
  876MOL0     H18242   8.160   8.685   0.675 -0.6980  3.9403 -2.8814
  876MOL0     H18243   8.005   8.835   0.816 -6.1886  3.0055 -1.0368
  876MOL0     H18244   6.161   8.159   0.185  0.2063  3.6201 -0.6426
  876MOL0     H18245   5.913   8.174   0.190  0.4124  1.1163 -0.4084
  876MOL0     H18246   5.515   8.486   0.297  0.0652  0.7603  1.3924
  876MOL0     H18247   5.273   8.477   0.310 -0.4612 -0.5337  1.2685
  876MOL0     H18248   5.081   8.376   0.295 -0.1408 -1.6336 -0.5258
  876MOL0     H18249   5.050   8.430   0.468 -1.4654  0.9139 -2.0457
  876MOL0     H18250   4.836   8.355   0.335 -0.1711 -1.7706 -0.1524
  876MOL0     H18251   4.853   8.291   0.492 -0.8380  3.2274 -0.8446
  876MOL0     H18252   4.793   8.119   0.328 -0.8655 -0.5078  2.4088
  876MOL0     H18253   4.935   8.090   0.428  0.6814  0.6986  0.8052
  876MOL0     H18254   4.978   8.221   0.167 -4.7504  1.3111  2.4009
  876MOL0     H18255   5.077   8.074   0.221 -1.0180 -1.0313  3.1246
  876MOL0     H18256   4.766   7.902  -0.006 -0.5681  0.0920 -0.4098
  876MOL0     H18257   5.326   8.126   0.568  3.6363 -0.6030  2.0116
  876MOL0     H18258   5.641   8.055   0.528  0.0553 -0.8210  1.6641
  876MOL0     H18259   5.672   8.182   0.643  0.1276 -0.8108  2.0441
  876MOL0     H18260   5.535   8.074   0.670  2.3331  1.4756  2.7313
  877MOL0     O18261   4.159   7.945   6.130 -0.7849 -0.3693 -0.1026
  877MOL0     C18262   4.173   7.866   6.037 -0.3103 -0.7592  0.8185
  877MOL0     O18263   4.071   7.828   5.954  0.1648 -0.6176 -0.2935
  877MOL0     C18264   3.941   7.830   6.005 -0.0596  0.2364 -0.6775
  877MOL0     C18265   3.870   7.713   6.005  0.0438  0.0966  0.4132
  877MOL0     C18266   3.733   7.704   6.040  0.1923 -0.6726 -1.0681
  877MOL0     C18267   3.662   7.824   6.080 -0.1329  1.3309  0.8191
  877MOL0     O18268   3.538   7.805   6.151 -0.0933  0.4744  0.6723
  877MOL0     C18269   3.443   7.913   6.134 -0.7668  0.0734  0.0403
  877MOL0     C18270   3.308   7.868   6.189  0.0471 -0.3658  0.6742
  877MOL0     C18271   3.219   7.986   6.189 -0.2862 -0.2524 -0.1774
  877MOL0     C18272   3.094   7.953   6.268  0.6416 -0.2040  0.0971
  877MOL0     C18273   2.974   8.050   6.243 -0.0713 -0.1879  0.6357
  877MOL0     C18274   3.005   8.183   6.308  0.4997  0.1986 -0.2023
  877MOL0     C18275   2.877   8.260   6.343 -0.6118 -1.0716  0.1763
  877MOL0     C18276   2.891   8.412   6.358  0.1469  0.4792 -0.7469
  877MOL0     N18277   2.932   8.480   6.237 -0.2689  0.6985  0.2052
  877MOL0     C18278   2.844   8.514   6.136 -0.2544  0.4553 -0.1470
  877MOL0     C18279   2.914   8.586   6.043 -0.4839 -0.6729 -0.7066
  877MOL0     C18280   2.875   8.638   5.912  0.7681 -0.5463  0.4709
  877MOL0     C18281   2.724   8.649   5.882 -0.4026  0.6049 -0.4715
  877MOL0     C18282   2.660   8.774   5.950 -0.8105  0.1842  0.1893
  877MOL0     C18283   2.508   8.801   5.911 -0.4831  0.3870 -0.5184
  877MOL0     O18284   2.425   8.687   5.942  0.2871  0.6423  0.9122
  877MOL0     C18285   2.289   8.677   5.903  0.5407 -0.1071 -0.4844
  877MOL0     C18286   2.220   8.773   5.828 -0.1706  0.0241  0.3190
  877MOL0     C18287   2.090   8.749   5.771  0.3409 -0.5552 -1.0751
  877MOL0     C18288   2.022   8.632   5.812  0.0429 -0.3449  0.4622
  877MOL0     C18289   1.880   8.613   5.768  0.5538 -0.0002  1.7381
  877MOL0     O18290   1.828   8.494   5.801  0.2524 -1.0265  0.0843
  877MOL0     C18291   1.695   8.469   5.766  0.7420 -0.1521  0.0235
  877MOL0     C18292   1.661   8.337   5.723 -0.3472  0.0214  0.8563
  877MOL0     C18293   1.532   8.310   5.690  0.2296 -0.5857  0.5647
  877MOL0     C18294   1.427   8.404   5.714 -0.0558  1.3866  0.9322
  877MOL0     O18295   1.301   8.371   5.677 -1.3607 -0.4810 -0.1778
  877MOL0     C18296   1.256   8.241   5.627 -1.2848  0.1250  0.8610
  877MOL0     C18297   1.104   8.252   5.593  0.2751  1.2272 -0.2615
  877MOL0     C18298   1.029   8.112   5.600 -1.1090 -0.2118  0.4904
  877MOL0     C18299   0.877   8.130   5.575 -0.0258  0.1982  0.4543
  877MOL0     C18300   0.825   7.983   5.549 -0.2619 -1.3867 -0.5534
  877MOL0     C18301   0.752   7.917   5.667 -0.3668  0.2024  0.0694
  877MOL0     C18302   0.650   8.000   5.729  0.0869 -0.4303 -0.5672
  877MOL0     C18303   0.539   7.915   5.791 -0.8257 -0.2935  0.5425
  877MOL0    Cl18304   0.434   8.024   5.870  0.2497 -0.1124  0.0198
  877MOL0     C18305   1.455   8.528   5.768 -0.4138 -0.7073  0.2546
  877MOL0     C18306   1.591   8.563   5.798 -1.5096 -0.4585 -0.0958
  877MOL0     O18307   1.829   8.709   5.708 -0.0672 -0.1261 -0.4666
  877MOL0     C18308   2.093   8.528   5.883  0.8027 -0.7577  0.5323
  877MOL0     C18309   2.225   8.556   5.930 -0.1049  0.6354 -0.0852
  877MOL0     N18310   3.041   8.602   6.099 -0.0860 -0.4250 -0.9724
  877MOL0     N18311   3.052   8.546   6.214  0.2497 -0.5850 -0.2986
  877MOL0     C18312   3.736   7.944   6.076  0.2153  0.1336 -0.1911
  877MOL0     C18313   3.868   7.952   6.040  0.2275  0.2810  0.6622
  877MOL0     C18314   4.308   7.820   6.010  0.1007 -0.6219  0.3541
  877MOL0     C18315   4.315   7.698   5.938  0.1112  0.7507 -0.4440
  877MOL0     C18316   4.436   7.639   5.921  0.0762 -0.4045  0.6175
  877MOL0     C18317   4.556   7.689   5.955  0.0473 -0.0632 -0.1853
  877MOL0     O18318   4.666   7.614   5.924 -0.4035  0.1005  0.4171
  877MOL0     C18319   4.793   7.666   5.981 -0.8744  0.2310 -0.0494
  877MOL0     C18320   4.902   7.557   5.952  0.1118 -0.7835 -0.3831
  877MOL0     C18321   5.037   7.624   6.009  0.3920 -0.4678 -0.0567
  877MOL0     C18322   5.145   7.522   5.973 -0.8508 -0.5963 -0.0867
  877MOL0     C18323   5.267   7.548   6.050 -0.8959 -0.1143  0.5624
  877MOL0     C18324   5.360   7.565   6.123 -0.0634 -0.1751 -0.3451
  877MOL0     C18325   4.558   7.816   6.019  1.0219  0.3878 -0.0707
  877MOL0     C18326   4.434   7.883   6.054  0.2064  0.1174 -0.8563
  877MOL0     C18327   4.444   8.017   6.131 -0.3889  0.1468  0.3221
  877MOL0     H18328   3.913   7.617   5.975 -0.3864 -0.4276  1.4136
  877MOL0     H18329   3.682   7.608   6.044  2.2536 -1.7841  1.4775
  877MOL0     H18330   3.475   8.005   6.183 -0.0026 -1.0722  1.7585
  877MOL0     H18331   3.438   7.930   6.026 -1.8790  3.7912  0.5324
  877MOL0     H18332   3.313   7.833   6.292 -1.7960 -1.8462  0.3131
  877MOL0     H18333   3.265   7.785   6.131 -1.2236 -0.6127  1.9197
  877MOL0     H18334   3.180   8.025   6.094  0.6445  2.6582  0.5182
  877MOL0     H18335   3.251   8.082   6.232  0.6442 -0.0072 -1.3423
  877MOL0     H18336   3.060   7.853   6.238 -3.8418  0.4473  2.2811
  877MOL0     H18337   3.112   7.945   6.375  0.0501  3.1878  0.5655
  877MOL0     H18338   2.954   8.053   6.136  1.2913  1.3298  0.4043
  877MOL0     H18339   2.890   8.000   6.293  0.9148 -2.5727  0.0539
  877MOL0     H18340   3.053   8.167   6.405 -2.4130  0.8919  1.4810
  877MOL0     H18341   3.073   8.250   6.254  0.4544 -0.1032 -0.6389
  877MOL0     H18342   2.818   8.227   6.429 -5.0484  0.3128 -2.0379
  877MOL0     H18343   2.801   8.241   6.266 -2.0304 -0.1137  1.2829
  877MOL0     H18344   2.800   8.459   6.397  0.9289 -0.3968  2.4980
  877MOL0     H18345   2.970   8.427   6.432 -1.3568  2.8529  0.5186
  877MOL0     H18346   2.741   8.484   6.122 -0.2242 -0.0142  0.5897
  877MOL0     H18347   2.914   8.740   5.903 -1.9504  0.5128 -0.4833
  877MOL0     H18348   2.916   8.584   5.826 -0.5498  1.1624 -1.3291
  877MOL0     H18349   2.710   8.658   5.774 -0.1785  0.4648 -0.5147
  877MOL0     H18350   2.677   8.556   5.913  0.4916  0.1574 -0.4300
  877MOL0     H18351   2.718   8.861   5.918 -2.0543  1.6065  1.5944
  877MOL0     H18352   2.653   8.763   6.059 -2.4098 -6.1267 -0.1552
  877MOL0     H18353   2.507   8.830   5.805  2.6188  1.9180 -0.2489
  877MOL0     H18354   2.478   8.889   5.968  0.0346 -0.1816  0.6566
  877MOL0     H18355   2.270   8.868   5.809  2.1447 -1.5343 -1.9506
  877MOL0     H18356   2.044   8.836   5.726  1.4574  1.4128  1.3157
  877MOL0     H18357   1.736   8.258   5.722  1.8425  2.0239  0.1660
  877MOL0     H18358   1.503   8.215   5.645 -2.8617 -1.2519  3.5116
  877MOL0     H18359   1.301   8.209   5.532  0.3662 -0.4734  1.8171
  877MOL0     H18360   1.259   8.157   5.697  0.6632 -1.1377 -0.6415
  877MOL0     H18361   1.044   8.332   5.637 -0.1142  2.1660 -2.3688
  877MOL0     H18362   1.111   8.289   5.490  0.2697 -0.5053 -0.9232
  877MOL0     H18363   1.069   8.043   5.525 -0.4545 -0.3574  0.9570
  877MOL0     H18364   1.038   8.071   5.701 -0.9161  1.5505  1.2185
  877MOL0     H18365   0.859   8.190   5.485 -2.7006 -2.2725 -0.7811
  877MOL0     H18366   0.829   8.192   5.652 -0.1767 -0.2028  0.6807
  877MOL0     H18367   0.901   7.911   5.519 -2.6089 -3.9410 -0.7821
  877MOL0     H18368   0.749   7.985   5.470 -3.3585 -0.4470  2.1958
  877MOL0     H18369   0.716   7.817   5.639  0.6585 -0.5116  1.1543
  877MOL0     H18370   0.829   7.899   5.744 -0.2315  1.8087  0.3343
  877MOL0     H18371   0.605   8.071   5.659 -1.6121 -1.4224 -0.5316
  877MOL0     H18372   0.693   8.072   5.798 -2.9470  1.6929 -0.7390
  877MOL0     H18373   0.491   7.849   5.717  0.3749 -1.6511  0.9270
  877MOL0     H18374   0.577   7.861   5.878 -1.8616  2.6003  2.9598
  877MOL0     H18375   1.373   8.596   5.784 -0.3752 -0.1224 -1.8218
  877MOL0     H18376   1.608   8.663   5.838 -0.4320 -0.1226 -1.3391
  877MOL0     H18377   2.040   8.433   5.892 -0.5424 -0.0847  0.0266
  877MOL0     H18378   2.263   8.489   6.006 -2.0206 -1.4807 -0.8646
  877MOL0     H18379   3.699   8.034   6.124  0.8425 -1.2446  3.2076
  877MOL0     H18380   3.925   8.044   6.030  0.6699 -0.0513  0.0789
  877MOL0     H18381   4.218   7.655   5.915  1.0997 -1.6733 -0.3494
  877MOL0     H18382   4.428   7.545   5.867 -1.1750 -1.6402  2.7833
  877MOL0     H18383   4.782   7.679   6.089  2.3806  2.1043  0.1856
  877MOL0     H18384   4.839   7.751   5.929  2.3620  0.6976  3.1318
  877MOL0     H18385   4.931   7.553   5.847  1.0029  3.1615 -0.4762
  877MOL0     H18386   4.870   7.465   6.001 -1.8818 -0.0916 -0.3182
  877MOL0     H18387   5.036   7.640   6.117  3.4916  2.2412 -0.2775
  877MOL0     H18388   5.057   7.722   5.965  1.4654  1.0688  3.5013
  877MOL0     H18389   5.105   7.423   5.998 -2.5874 -0.1067 -0.8521
  877MOL0     H18390   5.175   7.524   5.868  3.4019 -2.1618  0.8852
  877MOL0     H18391   5.433   7.581   6.199 -0.7875 -1.1417  0.5853
  877MOL0     H18392   4.650   7.873   6.029  1.6817 -0.5910 -0.5157
  877MOL0     H18393   4.435   8.103   6.064 -2.6717 -0.3223 -0.0565
  877MOL0     H18394   4.361   8.036   6.200 -0.6255  5.8633 -1.0333
  877MOL0     H18395   4.531   8.011   6.197 -1.2616  1.4226  1.6565
  878MOL0     O18396   8.845   1.061   6.357 -0.3649  0.5544  0.2984
  878MOL0     C18397   8.898   0.957   6.330 -0.1821 -0.2592  0.2357
  878MOL0     O18398   8.868   0.841   6.384  0.5138  0.0576 -0.6010
  878MOL0     C18399   8.775   0.826   6.483  0.1636 -0.9176 -0.7402
  878MOL0     C18400   8.666   0.742   6.455 -0.3374  0.4986  0.0389
  878MOL0     C18401   8.565   0.721   6.549  0.1594  0.1978  0.9770
  878MOL0     C18402   8.560   0.785   6.674  0.0888 -0.1046 -0.0405
  878MOL0     O18403   8.466   0.783   6.773 -0.1217  0.1507  0.4865
  878MOL0     C18404   8.324   0.756   6.739 -1.0173  0.0381  0.5850
  878MOL0     C18405   8.279   0.617   6.687 -0.4384 -0.0297  0.2002
  878MOL0     C18406   8.339   0.489   6.755 -0.0871 -0.1043 -0.3283
  878MOL0     C18407   8.234   0.396   6.808  0.7708  0.6163 -0.5039
  878MOL0     C18408   8.285   0.259   6.864 -0.7003 -0.3377 -0.1437
  878MOL0     C18409   8.258   0.263   7.012  0.3805 -0.3390 -0.1838
  878MOL0     C18410   8.109   0.235   7.047  0.7808  0.6896 -0.0773
  878MOL0     C18411   8.072   0.236   7.194 -0.8530  0.6317  0.4259
  878MOL0     N18412   8.108   0.359   7.261  0.7415  0.1119  0.0357
  878MOL0     C18413   8.025   0.473   7.275  0.5957 -0.7679  0.0924
  878MOL0     C18414   8.084   0.539   7.384 -0.3848 -0.3068 -0.5720
  878MOL0     C18415   8.031   0.673   7.445 -0.6042 -0.2495  0.4837
  878MOL0     C18416   8.047   0.668   7.593  0.7901 -0.4789 -0.9992
  878MOL0     C18417   8.026   0.816   7.662 -0.0597  0.0760  0.7612
  878MOL0     C18418   8.014   0.821   7.814 -1.0468  0.2457 -0.4836
  878MOL0     O18419   8.140   0.804   7.879  0.2740 -0.2713  0.4153
  878MOL0     C18420   8.130   0.716   7.988 -0.0473  0.0949  0.4956
  878MOL0     C18421   8.081   0.756   8.106  0.5329 -0.6495 -0.7951
  878MOL0     C18422   8.063   0.670   8.212 -0.3640  0.3268 -0.1630
  878MOL0     C18423   8.088   0.526   8.198 -0.1101 -0.1223 -0.4809
  878MOL0     C18424   8.094   0.437   8.312  0.3596 -0.1460  0.5169
  878MOL0     O18425   8.034   0.495   8.413  0.9454 -0.6654  0.0950
  878MOL0     C18426   8.048   0.459   8.534 -0.8896  0.7256 -0.8170
  878MOL0     C18427   7.943   0.396   8.607 -0.3429  0.4840  0.5536
  878MOL0     C18428   7.955   0.382   8.749 -0.5614  0.7998  0.5455
  878MOL0     C18429   8.062   0.434   8.818  0.2148 -0.2166  0.8779
  878MOL0     O18430   8.082   0.414   8.955  0.1449 -0.0600  0.8621
  878MOL0     C18431   8.102   0.279   8.990  0.2355 -1.1235  0.3851
  878MOL0     C18432   8.141   0.272   9.134 -0.6427 -0.4204  0.1639
  878MOL0     C18433   8.038   0.334   9.224 -0.4354 -0.2786  0.4919
  878MOL0     C18434   8.065   0.324   9.375 -0.4234 -0.5427  0.1034
  878MOL0     C18435   7.945   0.367   9.456  0.7882  0.1464 -0.3015
  878MOL0     C18436   7.972   0.354   9.607  0.2513  0.0520  0.9874
  878MOL0     C18437   7.850   0.372   9.699 -0.5463 -0.4872 -0.3138
  878MOL0     C18438   7.837   0.282   9.825 -0.7066  0.2817 -0.0655
  878MOL0    Cl18439   7.693   0.203   9.818 -0.3116  0.2523  0.1208
  878MOL0     C18440   8.172   0.491   8.743 -0.0585  1.1172  0.6196
  878MOL0     C18441   8.160   0.503   8.601 -0.0422 -0.7935  0.0617
  878MOL0     O18442   8.129   0.321   8.303  0.5369  0.0891 -0.2889
  878MOL0     C18443   8.134   0.487   8.073  0.0702  0.3102  0.0178
  878MOL0     C18444   8.137   0.582   7.966 -0.2478  0.4505  0.1542
  878MOL0     N18445   8.198   0.470   7.427 -1.0986 -0.7007 -0.2932
  878MOL0     N18446   8.213   0.371   7.349 -0.0621 -0.7992  0.3901
  878MOL0     C18447   8.670   0.876   6.701  0.4172  0.2297  0.7503
  878MOL0     C18448   8.774   0.903   6.608 -0.0918  1.0048  0.8667
  878MOL0     C18449   9.006   0.954   6.221 -0.6609 -0.7917 -0.1024
  878MOL0     C18450   8.994   0.839   6.140  0.2062 -0.4980  0.3589
  878MOL0     C18451   9.078   0.841   6.024  0.2678 -0.6634  0.0971
  878MOL0     C18452   9.188   0.938   6.010 -0.0639  0.7689  0.5901
  878MOL0     O18453   9.288   0.932   5.915 -0.5887  0.2287 -0.1000
  878MOL0     C18454   9.300   0.812   5.829  0.8107  0.3853  0.3112
  878MOL0     C18455   9.420   0.818   5.740 -0.2204  0.1550  0.6701
  878MOL0     C18456   9.561   0.857   5.804 -0.3905 -0.5308 -0.0474
  878MOL0     C18457   9.667   0.880   5.693  0.7518  0.3322 -0.9887
  878MOL0     C18458   9.665   1.025   5.666 -0.8028  0.2578 -0.3831
  878MOL0     C18459   9.673   1.144   5.670 -0.7174  1.0573  0.3703
  878MOL0     C18460   9.198   1.044   6.094  0.0083  0.3773  0.2227
  878MOL0     C18461   9.098   1.057   6.201  0.0487 -0.5736  0.7994
  878MOL0     C18462   9.110   1.176   6.293 -0.1963  0.3017 -0.2197
  878MOL0     H18463   8.651   0.700   6.356 -1.4128  0.9549 -0.0094
  878MOL0     H18464   8.480   0.658   6.525  2.1179 -2.2830  0.0881
  878MOL0     H18465   8.273   0.772   6.834  0.3296 -2.8265  1.9164
  878MOL0     H18466   8.299   0.839   6.672 -0.5727  1.6026  2.2736
  878MOL0     H18467   8.283   0.603   6.578 -5.1972  0.2172 -0.2145
  878MOL0     H18468   8.172   0.629   6.709 -0.9274 -2.5791 -0.5006
  878MOL0     H18469   8.415   0.518   6.828 -2.0518  1.7948  1.1129
  878MOL0     H18470   8.408   0.444   6.684  0.1562  2.1797 -1.6564
  878MOL0     H18471   8.183   0.457   6.883 -1.3495 -2.6117  0.9228
  878MOL0     H18472   8.162   0.379   6.727  0.9036  4.4023 -1.6145
  878MOL0     H18473   8.230   0.173   6.824 -3.8635  1.1883  0.6190
  878MOL0     H18474   8.391   0.251   6.837 -0.6871  0.6872 -0.4447
  878MOL0     H18475   8.309   0.176   7.053  1.5498 -0.2524 -1.3689
  878MOL0     H18476   8.291   0.352   7.067  0.4840 -1.4230  1.5582
  878MOL0     H18477   8.081   0.137   7.008  2.2921  0.4388 -0.5887
  878MOL0     H18478   8.041   0.305   6.997 -0.2128  0.7881  1.3552
  878MOL0     H18479   7.969   0.212   7.224  0.1692 -0.7999  3.0729
  878MOL0     H18480   8.130   0.153   7.235 -1.5670  0.8168  1.8601
  878MOL0     H18481   7.932   0.491   7.222  0.7153 -2.1657 -0.6617
  878MOL0     H18482   8.093   0.758   7.414  2.5450 -2.1282  1.1560
  878MOL0     H18483   7.927   0.685   7.414 -0.6801  0.0117  0.8230
  878MOL0     H18484   7.976   0.602   7.643  1.6398  0.5276  1.7140
  878MOL0     H18485   8.149   0.630   7.601  0.0883 -2.3318 -0.4018
  878MOL0     H18486   7.940   0.857   7.609  1.0870  2.3545  0.5609
  878MOL0     H18487   8.106   0.887   7.640 -1.2582  1.8473  1.9102
  878MOL0     H18488   7.942   0.747   7.852 -0.2079  0.6833  2.1555
  878MOL0     H18489   7.977   0.921   7.838 -1.8020 -0.5099  1.8087
  878MOL0     H18490   8.066   0.862   8.124  0.2829 -0.0277 -4.1063
  878MOL0     H18491   8.049   0.706   8.314  0.1878 -1.0182  0.4086
  878MOL0     H18492   7.855   0.358   8.555  0.4677  2.3646 -2.4960
  878MOL0     H18493   7.883   0.323   8.805 -0.6019 -1.7214 -1.9090
  878MOL0     H18494   8.006   0.227   8.975  0.9007 -1.9559 -1.2675
  878MOL0     H18495   8.170   0.225   8.924 -0.4295 -2.1816  0.5344
  878MOL0     H18496   8.163   0.169   9.162 -0.2558  0.4084  3.1972
  878MOL0     H18497   8.236   0.325   9.145 -0.0137 -1.2524 -0.9184
  878MOL0     H18498   8.037   0.438   9.190  3.3561  0.3997  2.0202
  878MOL0     H18499   7.946   0.283   9.193 -3.2106  3.3317  1.9761
  878MOL0     H18500   8.156   0.380   9.399 -0.4087 -0.8994  0.9214
  878MOL0     H18501   8.082   0.219   9.404 -1.0066 -0.1191  2.1462
  878MOL0     H18502   7.868   0.292   9.437  1.0762 -0.3368  0.3921
  878MOL0     H18503   7.901   0.465   9.435  0.9605  0.3878  0.4163
  878MOL0     H18504   8.005   0.252   9.627 -0.0933 -0.1917  0.3385
  878MOL0     H18505   8.061   0.413   9.629  1.3621 -1.3217  0.3552
  878MOL0     H18506   7.763   0.366   9.633 -0.3761 -0.5458 -0.5303
  878MOL0     H18507   7.842   0.478   9.724  1.6783 -0.6483  1.3931
  878MOL0     H18508   7.919   0.211   9.830 -1.3588 -0.4933 -0.1452
  878MOL0     H18509   7.840   0.339   9.919 -0.4066 -0.8892  0.6464
  878MOL0     H18510   8.258   0.513   8.806  1.2819 -0.2816 -0.6396
  878MOL0     H18511   8.244   0.535   8.539 -0.6016  1.6101  0.4189
  878MOL0     H18512   8.164   0.385   8.051 -0.5276 -0.6705  3.1691
  878MOL0     H18513   8.165   0.550   7.866 -2.5299  4.3913 -2.0110
  878MOL0     H18514   8.674   0.938   6.790 -1.0413  1.3868  0.0522
  878MOL0     H18515   8.855   0.974   6.622 -0.4875  2.6954 -3.8568
  878MOL0     H18516   8.921   0.760   6.157 -0.0009 -0.2337  0.7261
  878MOL0     H18517   9.070   0.760   5.953  1.9155 -1.5480  0.8545
  878MOL0     H18518   9.210   0.802   5.768  2.2254  4.2376 -2.7719
  878MOL0     H18519   9.300   0.716   5.882 -1.6773  1.5561  2.6902
  878MOL0     H18520   9.409   0.901   5.670 -0.9587  0.4734  1.1501
  878MOL0     H18521   9.416   0.730   5.676  2.0946  0.0935  0.5241
  878MOL0     H18522   9.591   0.774   5.870  0.1044  0.3610  0.8786
  878MOL0     H18523   9.556   0.949   5.864  0.0051 -0.2874 -0.3852
  878MOL0     H18524   9.762   0.843   5.732  0.4387  0.8096  0.2762
  878MOL0     H18525   9.641   0.826   5.602 -0.0662 -1.2408  0.1215
  878MOL0     H18526   9.682   1.251   5.670  2.8911  0.9199 -1.3880
  878MOL0     H18527   9.281   1.115   6.086 -1.0526  1.8413  1.5397
  878MOL0     H18528   9.028   1.247   6.285  0.2090  0.6239 -1.9310
  878MOL0     H18529   9.116   1.145   6.398 -0.8279 -1.4419 -0.6476
  878MOL0     H18530   9.200   1.233   6.270 -1.5305  2.4826 -0.2498
  879MOL0     O18531   4.252   1.396   0.515 -1.1348 -0.0262 -0.3670
  879MOL0     C18532   4.333   1.379   0.423 -0.6491  0.4604 -0.3423
  879MOL0     O18533   4.295   1.359   0.285 -0.4414 -0.1084  0.6771
  879MOL0     C18534   4.167   1.367   0.234  0.3604  0.3137  0.1550
  879MOL0     C18535   4.141   1.439   0.118  0.1604  0.0630 -0.3360
  879MOL0     C18536   4.007   1.459   0.084 -0.4334 -0.4321  0.6028
  879MOL0     C18537   3.903   1.404   0.155  1.0979  0.1906  0.4869
  879MOL0     O18538   3.780   1.405   0.102  0.3914 -0.3378  0.4488
  879MOL0     C18539   3.700   1.529   0.122 -0.2236 -0.1272 -0.4022
  879MOL0     C18540   3.571   1.546   0.049  0.0467  1.3055  0.6689
  879MOL0     C18541   3.474   1.443   0.103  0.3419 -0.1444 -0.7338
  879MOL0     C18542   3.337   1.470   0.044 -0.3751  0.0792  0.2251
  879MOL0     C18543   3.228   1.371   0.093  0.0530 -0.4230  0.6168
  879MOL0     C18544   3.240   1.239   0.016 -0.2797 -1.0425  0.5625
  879MOL0     C18545   3.122   1.139   0.037  0.0641 -0.1830  0.2295
  879MOL0     C18546   3.152   0.998  -0.011 -0.1082  0.7741  0.0958
  879MOL0     N18547   3.053   0.898   0.026 -0.5905  0.0823 -0.7210
  879MOL0     C18548   3.075   0.785   0.109 -0.6782  0.8062  0.0312
  879MOL0     C18549   2.957   0.749   0.154  1.3544  0.1734  0.1202
  879MOL0     C18550   2.917   0.638   0.251 -0.6836  0.1039 -0.3636
  879MOL0     C18551   3.020   0.622   0.367 -0.2369 -0.4763 -0.1430
  879MOL0     C18552   3.005   0.477   0.412  0.1986 -1.0664 -0.9558
  879MOL0     C18553   2.882   0.462   0.490  0.6438 -0.5928  0.2878
  879MOL0     O18554   2.883   0.331   0.528  0.4213  0.6747  0.5878
  879MOL0     C18555   2.773   0.294   0.615 -1.0033 -0.3136  0.6942
  879MOL0     C18556   2.675   0.381   0.667 -0.1614  0.7829  0.1017
  879MOL0     C18557   2.569   0.326   0.745 -0.5894 -0.1414  0.1957
  879MOL0     C18558   2.575   0.185   0.787 -0.5717 -0.0738 -0.4491
  879MOL0     C18559   2.462   0.130   0.866 -0.6026  0.8086 -0.2127
  879MOL0     O18560   2.451  -0.004   0.877  0.4019  0.7321 -0.5136
  879MOL0     C18561   2.342  -0.067   0.922  1.2737 -0.3279 -0.6748
  879MOL0     C18562   2.286  -0.039   1.041  0.9104  0.3910  0.0636
  879MOL0     C18563   2.169  -0.119   1.071  0.3719  0.2259  0.1153
  879MOL0     C18564   2.108  -0.202   0.979  0.2430  0.8505 -0.2433
  879MOL0     O18565   1.985  -0.259   1.007  0.4688  0.4749 -0.0813
  879MOL0     C18566   1.903  -0.206   1.120 -0.0695  0.1010  0.7426
  879MOL0     C18567   1.761  -0.272   1.134  0.2248  0.4278  0.1978
  879MOL0     C18568   1.746  -0.430   1.155  0.3809  0.0987  0.1778
  879MOL0     C18569   1.605  -0.469   1.215 -0.6076 -1.2473  0.2217
  879MOL0     C18570   1.605  -0.611   1.272  0.2394  0.4517  0.1877
  879MOL0     C18571   1.672  -0.621   1.409  0.8227  0.0314  0.2366
  879MOL0     C18572   1.688  -0.770   1.461  0.1002  0.0462  0.2344
  879MOL0     C18573   1.752  -0.777   1.605 -0.0427 -0.8829  0.1587
  879MOL0    Cl18574   1.631  -0.701   1.729 -0.1528  0.4095  0.0327
  879MOL0     C18575   2.167  -0.229   0.862  0.1994 -0.9282 -0.5044
  879MOL0     C18576   2.291  -0.165   0.836  0.1770 -0.7885 -0.5936
  879MOL0     O18577   2.377   0.206   0.900  0.0143 -0.5899 -0.8222
  879MOL0     C18578   2.679   0.112   0.736 -0.8904 -0.0031 -0.5807
  879MOL0     C18579   2.777   0.158   0.656 -0.5968 -0.1179  0.2192
  879MOL0     N18580   2.865   0.851   0.115 -0.7898  0.1560  0.0472
  879MOL0     N18581   2.921   0.939   0.034  0.5621 -0.1692 -0.3694
  879MOL0     C18582   3.932   1.305   0.252 -0.0658 -0.2610  0.3175
  879MOL0     C18583   4.063   1.295   0.297  0.0550  0.7478 -0.2985
  879MOL0     C18584   4.481   1.376   0.454  0.4879  0.2455 -0.0593
  879MOL0     C18585   4.575   1.379   0.345  0.3850  0.1164  0.4876
  879MOL0     C18586   4.716   1.383   0.373 -0.3895 -0.1385 -0.5711
  879MOL0     C18587   4.756   1.386   0.511  0.2274 -0.4450  0.7535
  879MOL0     O18588   4.892   1.384   0.535 -0.1211  0.3128 -0.4694
  879MOL0     C18589   4.931   1.459   0.655  1.0898 -0.3091  0.6591
  879MOL0     C18590   5.071   1.501   0.636 -0.3432 -0.0263  0.2156
  879MOL0     C18591   5.128   1.553   0.769 -0.4466  0.1585 -0.2128
  879MOL0     C18592   5.067   1.687   0.810  1.1808 -0.3579  0.0693
  879MOL0     C18593   5.071   1.714   0.960 -0.6771 -0.7387  0.5230
  879MOL0     C18594   5.082   1.748   1.074  0.2930 -0.1521  0.3852
  879MOL0     C18595   4.661   1.365   0.615  0.1059 -0.2247 -0.1475
  879MOL0     C18596   4.526   1.353   0.587  0.0414 -0.6843  0.5224
  879MOL0     C18597   4.446   1.313   0.710  0.2772 -0.0425  0.3066
  879MOL0     H18598   4.211   1.495   0.058  0.0188 -1.8883 -2.4835
  879MOL0     H18599   3.982   1.526   0.002 -0.1111  1.3422  1.8958
  879MOL0     H18600   3.682   1.539   0.229  2.6612 -0.5902  0.2250
  879MOL0     H18601   3.764   1.611   0.087  1.4941 -1.6123 -0.9133
  879MOL0     H18602   3.594   1.532  -0.057 -0.9549  2.0173  0.3409
  879MOL0     H18603   3.529   1.646   0.063 -2.4818  0.1370  2.2768
  879MOL0     H18604   3.471   1.451   0.212  2.9586  0.4505 -0.6303
  879MOL0     H18605   3.511   1.343   0.076 -0.2843 -0.7262  0.4758
  879MOL0     H18606   3.309   1.575   0.060  1.0361  0.2981  1.4785
  879MOL0     H18607   3.344   1.456  -0.064 -1.3505 -2.5517  0.4295
  879MOL0     H18608   3.238   1.355   0.201 -1.0332  1.9852  1.1439
  879MOL0     H18609   3.137   1.429   0.075 -0.0295  0.1785  2.7412
  879MOL0     H18610   3.245   1.251  -0.093  1.9134 -1.6699  0.5455
  879MOL0     H18611   3.329   1.183   0.047  0.2153 -2.4538 -2.9241
  879MOL0     H18612   3.030   1.174  -0.012  0.5408  1.4044  0.4119
  879MOL0     H18613   3.105   1.146   0.145 -3.3901 -0.1014 -0.1807
  879MOL0     H18614   3.169   0.989  -0.119  0.9056 -2.5966  0.4045
  879MOL0     H18615   3.247   0.972   0.036  1.0213  1.4051 -1.7734
  879MOL0     H18616   3.169   0.731   0.104 -0.4910  1.2293 -2.9256
  879MOL0     H18617   2.817   0.654   0.292 -0.4179  1.7452 -0.2609
  879MOL0     H18618   2.912   0.551   0.186  1.5447 -0.0503 -0.3953
  879MOL0     H18619   3.116   0.662   0.335 -0.6904  1.9694  1.3115
  879MOL0     H18620   3.000   0.694   0.447  4.0870  1.1857 -0.2992
  879MOL0     H18621   3.094   0.444   0.466 -1.7826 -0.7745  2.8210
  879MOL0     H18622   2.998   0.403   0.331 -0.1486 -1.8068 -0.2652
  879MOL0     H18623   2.792   0.493   0.436  0.8265  2.6750  1.6506
  879MOL0     H18624   2.898   0.517   0.583 -2.4263  1.2065 -0.1042
  879MOL0     H18625   2.686   0.487   0.647 -1.2902  1.4746  2.7081
  879MOL0     H18626   2.482   0.382   0.779 -0.5605 -1.4637  2.7013
  879MOL0     H18627   2.341   0.034   1.099  2.4933  1.8840 -3.0274
  879MOL0     H18628   2.124  -0.103   1.169  3.5583 -1.4258  2.0244
  879MOL0     H18629   1.959  -0.235   1.209  2.2459  0.5464 -0.5029
  879MOL0     H18630   1.904  -0.097   1.123  0.0794  0.3864 -3.6248
  879MOL0     H18631   1.715  -0.229   1.223 -1.2578 -0.3436 -0.1597
  879MOL0     H18632   1.705  -0.228   1.050  2.7333  2.6809 -0.4449
  879MOL0     H18633   1.749  -0.488   1.062  0.3025 -0.1248  0.3143
  879MOL0     H18634   1.826  -0.461   1.223 -0.2855 -3.5503 -0.4836
  879MOL0     H18635   1.542  -0.459   1.126  2.2139 -1.9586 -1.9969
  879MOL0     H18636   1.569  -0.396   1.287  1.2266  0.4431 -0.4719
  879MOL0     H18637   1.678  -0.669   1.214  0.9837  1.2897  0.2607
  879MOL0     H18638   1.511  -0.666   1.264 -0.6850  1.6306  2.3245
  879MOL0     H18639   1.768  -0.569   1.415  1.8373 -1.8652  1.3560
  879MOL0     H18640   1.598  -0.568   1.470  0.6075 -0.9412  0.8526
  879MOL0     H18641   1.749  -0.831   1.393  0.4758  0.4450  0.2070
  879MOL0     H18642   1.599  -0.833   1.460  0.4222 -0.4228  0.6318
  879MOL0     H18643   1.775  -0.882   1.622 -1.9753 -1.6893 -1.6940
  879MOL0     H18644   1.841  -0.714   1.609 -1.9531  2.2209 -1.3860
  879MOL0     H18645   2.132  -0.309   0.798  0.0063 -0.9973 -0.3131
  879MOL0     H18646   2.353  -0.198   0.753  1.9803  2.1367 -0.5511
  879MOL0     H18647   2.682   0.012   0.778 -1.4609  0.8655  1.6633
  879MOL0     H18648   2.858   0.094   0.621 -1.6615 -2.3763  1.6734
  879MOL0     H18649   3.852   1.255   0.306  1.6510 -0.1059  3.2004
  879MOL0     H18650   4.076   1.219   0.373  1.0476  1.9789  0.8130
  879MOL0     H18651   4.547   1.377   0.240 -0.7872 -0.6439  0.8012
  879MOL0     H18652   4.778   1.376   0.284 -1.0565  0.7531 -1.1217
  879MOL0     H18653   4.937   1.385   0.735 -1.6862 -1.2013  0.1529
  879MOL0     H18654   4.871   1.550   0.668  3.9742  2.0366 -1.1011
  879MOL0     H18655   5.067   1.575   0.556 -1.9632  0.6298  0.8665
  879MOL0     H18656   5.142   1.423   0.603  0.7075  1.4584 -1.1906
  879MOL0     H18657   5.234   1.577   0.759 -0.9638  2.8892 -0.0175
  879MOL0     H18658   5.122   1.478   0.848  1.6916  0.6472  0.4737
  879MOL0     H18659   5.122   1.771   0.765  2.6642  0.5946  3.3076
  879MOL0     H18660   4.964   1.695   0.773  1.7681 -0.7668 -1.7357
  879MOL0     H18661   5.086   1.779   1.176  1.5515 -1.4108  0.7434
  879MOL0     H18662   4.698   1.343   0.715  3.9712  0.4179 -1.2732
  879MOL0     H18663   4.413   1.404   0.759 -1.4207  0.9339 -2.4158
  879MOL0     H18664   4.350   1.263   0.692 -0.4626  0.8151  1.6944
  879MOL0     H18665   4.491   1.245   0.783  0.4058  2.1342  2.3538
  880MOL0     O18666   4.434   0.228   6.576  0.0436  0.5097  0.0488
  880MOL0     C18667   4.347   0.139   6.583  0.6254 -1.1285 -0.1933
  880MOL0     O18668   4.373   0.004   6.596  0.1115 -0.3839  0.1142
  880MOL0     C18669   4.498  -0.041   6.584  1.2054 -0.0554  0.1554
  880MOL0     C18670   4.583  -0.038   6.697 -0.7007 -0.0932  0.3796
  880MOL0     C18671   4.715  -0.085   6.692  0.0902  0.5276  0.7192
  880MOL0     C18672   4.758  -0.146   6.567  0.1485 -0.5119 -0.4057
  880MOL0     O18673   4.884  -0.198   6.548 -0.5602  0.3404 -0.2655
  880MOL0     C18674   4.981  -0.175   6.652 -0.6587 -0.5830 -1.6514
  880MOL0     C18675   5.110  -0.238   6.626  0.2786 -0.2967 -1.1560
  880MOL0     C18676   5.206  -0.214   6.741  0.8348 -0.1724  0.1474
  880MOL0     C18677   5.349  -0.214   6.691  0.2332 -0.7798  0.8158
  880MOL0     C18678   5.442  -0.174   6.800  0.5165  0.3172  0.0683
  880MOL0     C18679   5.591  -0.178   6.732  0.4433  0.8113  0.2764
  880MOL0     C18680   5.695  -0.155   6.837  0.3920  0.1505  0.0429
  880MOL0     C18681   5.833  -0.126   6.788  0.3701 -0.0109 -0.4556
  880MOL0     N18682   5.940  -0.141   6.888  0.7308 -0.1143 -0.6555
  880MOL0     C18683   6.027  -0.042   6.929  0.8382  0.0531  0.3913
  880MOL0     C18684   6.098  -0.098   7.032  0.1343 -0.6952 -0.2553
  880MOL0     C18685   6.190  -0.031   7.139 -0.3734 -0.2189  0.1321
  880MOL0     C18686   6.112  -0.025   7.263  0.7355 -0.1215  0.2620
  880MOL0     C18687   6.210   0.023   7.374 -0.0442 -0.8948 -0.8103
  880MOL0     C18688   6.128   0.038   7.511  0.2423  0.5565  0.3842
  880MOL0     O18689   6.218   0.083   7.617  0.3400  0.4424 -0.0526
  880MOL0     C18690   6.166   0.076   7.747 -0.2276  0.0590  0.2664
  880MOL0     C18691   6.241   0.141   7.844 -0.5603 -0.0255 -0.5046
  880MOL0     C18692   6.214   0.119   7.981 -0.2978 -0.1231 -0.6483
  880MOL0     C18693   6.101   0.047   8.023 -0.0494  0.5175  0.4068
  880MOL0     C18694   6.071   0.041   8.166 -0.7523 -0.4418 -0.1819
  880MOL0     O18695   6.177   0.063   8.251  0.6956  0.0396  0.3050
  880MOL0     C18696   6.167   0.066   8.388  0.0977 -0.1888  0.1731
  880MOL0     C18697   6.060   0.090   8.478  0.3586 -0.4963  0.3096
  880MOL0     C18698   6.078   0.083   8.619  0.6097 -0.8728 -0.7744
  880MOL0     C18699   6.201   0.056   8.678 -0.5590  0.0234  0.4086
  880MOL0     O18700   6.229   0.030   8.808 -0.0096 -0.2483  0.0834
  880MOL0     C18701   6.115   0.015   8.898 -0.9585 -0.0712  0.3738
  880MOL0     C18702   6.173  -0.014   9.041 -0.4409  0.2376  0.6938
  880MOL0     C18703   6.285  -0.129   9.037  0.1032  0.3412 -0.3535
  880MOL0     C18704   6.274  -0.222   9.157  1.1976 -0.3612 -0.7516
  880MOL0     C18705   6.378  -0.339   9.151  1.1596 -0.0379  0.3887
  880MOL0     C18706   6.314  -0.469   9.200 -0.2821 -0.7578 -0.1494
  880MOL0     C18707   6.421  -0.583   9.197  0.9753 -0.0354  0.1402
  880MOL0     C18708   6.348  -0.698   9.258  0.5638  0.3338  0.2754
  880MOL0    Cl18709   6.470  -0.828   9.274 -0.2647 -0.3852  0.0550
  880MOL0     C18710   6.306   0.049   8.585  0.2057 -0.3619 -0.5457
  880MOL0     C18711   6.291   0.044   8.452  0.8393  0.6793  0.0044
  880MOL0     O18712   5.958   0.005   8.203 -0.5311  0.0231  0.2736
  880MOL0     C18713   6.017  -0.012   7.923 -0.7455  0.6413  0.1293
  880MOL0     C18714   6.059  -0.003   7.786 -0.0532 -0.2844  0.6104
  880MOL0     N18715   6.059  -0.227   7.046  0.2046 -0.0219 -0.2183
  880MOL0     N18716   5.957  -0.252   6.961 -0.6780  0.2682 -0.6253
  880MOL0     C18717   4.678  -0.143   6.460  0.8168  0.3343 -0.6709
  880MOL0     C18718   4.547  -0.098   6.471  0.0192 -0.5363  0.6541
  880MOL0     C18719   4.204   0.187   6.616 -0.0884 -0.6345 -0.3478
  880MOL0     C18720   4.122   0.097   6.693  0.6432 -0.2790 -0.3051
  880MOL0     C18721   3.987   0.133   6.712  0.2095  0.6580 -0.0439
  880MOL0     C18722   3.934   0.259   6.672  0.0372  0.3764 -0.0546
  880MOL0     O18723   3.802   0.287   6.689 -0.3686  0.2875 -0.2023
  880MOL0     C18724   3.727   0.229   6.794 -0.9632  0.1519  0.7096
  880MOL0     C18725   3.589   0.273   6.783  0.6408  0.3304  0.9250
  880MOL0     C18726   3.496   0.201   6.894  0.1701  0.1020  1.2518
  880MOL0     C18727   3.350   0.271   6.884 -1.1386  0.4269  1.0065
  880MOL0     C18728   3.292   0.309   7.012  0.1424  0.5864  0.9613
  880MOL0     C18729   3.248   0.344   7.113  0.1792  0.5519  0.4662
  880MOL0     C18730   4.020   0.346   6.611  0.3851 -0.8174 -0.0206
  880MOL0     C18731   4.152   0.318   6.583 -0.2168 -0.4343  0.0298
  880MOL0     C18732   4.221   0.424   6.509  0.1692  0.8302  0.2630
  880MOL0     H18733   4.553   0.005   6.792  2.9391 -0.5504  1.9149
  880MOL0     H18734   4.782  -0.057   6.773  0.8564  0.0689  0.2570
  880MOL0     H18735   4.994  -0.067   6.666  0.1306 -0.6620 -1.7184
  880MOL0     H18736   4.938  -0.221   6.741 -3.2785  0.9252 -2.0227
  880MOL0     H18737   5.147  -0.200   6.531 -3.3624  1.0949 -2.2018
  880MOL0     H18738   5.088  -0.345   6.629 -0.0345 -0.2644  2.4519
  880MOL0     H18739   5.209  -0.292   6.818  0.5197 -0.1332  0.1996
  880MOL0     H18740   5.194  -0.116   6.787 -2.3035 -0.5412  0.3468
  880MOL0     H18741   5.383  -0.309   6.648 -0.8188 -0.4994 -0.6906
  880MOL0     H18742   5.348  -0.136   6.615 -0.8898 -2.3709 -0.9079
  880MOL0     H18743   5.422  -0.074   6.841  0.3765  0.7975 -1.1348
  880MOL0     H18744   5.435  -0.241   6.887 -0.5833  0.4822  0.1171
  880MOL0     H18745   5.618  -0.272   6.684 -0.8535  1.8046 -2.6523
  880MOL0     H18746   5.587  -0.094   6.662  0.3047  1.9373  1.5891
  880MOL0     H18747   5.703  -0.242   6.903 -0.9718 -1.2069 -1.4951
  880MOL0     H18748   5.658  -0.068   6.892  0.4358  1.7582 -2.3189
  880MOL0     H18749   5.850  -0.194   6.704  2.2952  1.6551 -1.5000
  880MOL0     H18750   5.815  -0.020   6.767 -1.9432  0.6228  3.5901
  880MOL0     H18751   6.043   0.060   6.897  3.8931 -0.0732  1.1545
  880MOL0     H18752   6.278  -0.095   7.150  1.2597  0.9343 -4.2683
  880MOL0     H18753   6.225   0.067   7.105  5.7554 -1.4289  1.7988
  880MOL0     H18754   6.033   0.050   7.260 -2.6340 -3.3853  0.3283
  880MOL0     H18755   6.059  -0.118   7.283  0.5282 -0.1021 -0.1871
  880MOL0     H18756   6.264   0.112   7.340 -0.1484 -1.4173 -2.4550
  880MOL0     H18757   6.277  -0.063   7.385 -0.4726 -1.2084 -0.6347
  880MOL0     H18758   6.090  -0.061   7.537  0.0588  0.7496  0.8602
  880MOL0     H18759   6.046   0.110   7.507 -0.6959 -0.4449  1.0171
  880MOL0     H18760   6.318   0.206   7.805 -1.6450  1.7983  0.2630
  880MOL0     H18761   6.272   0.178   8.052  0.4187 -3.1503  1.4658
  880MOL0     H18762   5.967   0.106   8.424 -0.5625 -2.5546  1.1686
  880MOL0     H18763   6.000   0.117   8.686 -1.5467  1.2102 -4.1015
  880MOL0     H18764   6.059   0.108   8.892 -0.2352  0.3161 -0.8662
  880MOL0     H18765   6.062  -0.078   8.875 -0.0435 -0.7257  0.8517
  880MOL0     H18766   6.231   0.077   9.059  0.4475  0.0141 -0.8071
  880MOL0     H18767   6.086  -0.031   9.104 -3.5109  0.0913 -3.1770
  880MOL0     H18768   6.286  -0.184   8.942 -2.6676 -0.8987  0.2339
  880MOL0     H18769   6.376  -0.072   9.057 -0.5190  1.1424  0.2683
  880MOL0     H18770   6.173  -0.264   9.160  1.2728 -0.6804  3.2400
  880MOL0     H18771   6.279  -0.158   9.246 -0.4972 -1.8396  0.5006
  880MOL0     H18772   6.469  -0.317   9.207  2.3697 -0.0657 -1.5028
  880MOL0     H18773   6.412  -0.367   9.051 -0.4202 -0.8387  0.0441
  880MOL0     H18774   6.269  -0.455   9.299 -3.3108  0.5257 -1.5619
  880MOL0     H18775   6.229  -0.496   9.136  1.1210 -0.2792 -2.3048
  880MOL0     H18776   6.516  -0.577   9.250  1.2940  0.3347 -0.4643
  880MOL0     H18777   6.441  -0.602   9.091 -1.1542 -1.1320 -0.1369
  880MOL0     H18778   6.319  -0.685   9.363 -2.5498  0.0473 -0.4531
  880MOL0     H18779   6.255  -0.721   9.205 -1.6067  2.9260  2.6068
  880MOL0     H18780   6.407   0.051   8.626 -0.0395 -1.4818  0.1302
  880MOL0     H18781   6.385   0.023   8.402 -1.1856 -1.2619 -3.2886
  880MOL0     H18782   5.927  -0.060   7.957 -0.1821  1.9464  3.9628
  880MOL0     H18783   5.999  -0.056   7.713  1.2158 -0.3103 -0.4524
  880MOL0     H18784   4.721  -0.175   6.366  0.6242  0.1948 -0.7099
  880MOL0     H18785   4.501  -0.102   6.373  3.7805  1.0784 -1.3983
  880MOL0     H18786   4.147  -0.001   6.730  0.6314  0.0589  0.6213
  880MOL0     H18787   3.920   0.057   6.752 -0.5702  0.1051 -2.2329
  880MOL0     H18788   3.769   0.261   6.890 -1.3225 -0.1963  0.9836
  880MOL0     H18789   3.719   0.121   6.800 -3.5310  0.3215  1.3408
  880MOL0     H18790   3.547   0.263   6.682  0.0032 -1.5893  1.3405
  880MOL0     H18791   3.593   0.380   6.802  1.1772  1.0310 -2.5415
  880MOL0     H18792   3.540   0.208   6.994  0.5627  2.3090  0.9767
  880MOL0     H18793   3.487   0.094   6.872  3.1263 -0.1699  1.0276
  880MOL0     H18794   3.351   0.365   6.829 -0.8324 -1.2099 -2.0358
  880MOL0     H18795   3.281   0.204   6.831  0.2928 -0.5379  0.2700
  880MOL0     H18796   3.202   0.368   7.207  2.3879  1.7498  1.2978
  880MOL0     H18797   3.986   0.446   6.586 -3.2571 -1.2838  2.3398
  880MOL0     H18798   4.310   0.470   6.553  3.2302 -3.2937 -0.9390
  880MOL0     H18799   4.266   0.389   6.415  0.3266  3.3681 -0.7101
  880MOL0     H18800   4.156   0.503   6.471  2.3209  1.8355 -1.6047
  881MOL0     O18801   6.063   2.952   6.710  0.4305 -0.3064  0.3435
  881MOL0     C18802   6.126   3.046   6.652  0.0373 -0.1156 -0.1165
  881MOL0     O18803   6.157   3.169   6.705  0.3809 -0.5295 -0.2151
  881MOL0     C18804   6.088   3.203   6.820 -0.2253 -0.8107 -0.6674
  881MOL0     C18805   6.159   3.166   6.943  0.0115  0.1595  0.3863
  881MOL0     C18806   6.092   3.181   7.062  0.2764 -0.4260 -0.0588
  881MOL0     C18807   5.975   3.249   7.072 -0.1378 -0.2492  0.4408
  881MOL0     O18808   5.920   3.264   7.191  0.4675  0.5849 -0.0652
  881MOL0     C18809   5.791   3.323   7.197 -0.4442 -0.6644 -0.0810
  881MOL0     C18810   5.750   3.347   7.346 -0.0577  0.3453  0.1283
  881MOL0     C18811   5.826   3.438   7.440 -0.9794  0.0303 -0.4547
  881MOL0     C18812   5.852   3.584   7.412  0.0959  0.3566 -0.1652
  881MOL0     C18813   5.740   3.670   7.461 -0.1130  0.0906  0.4230
  881MOL0     C18814   5.765   3.821   7.451 -0.0209 -0.3432 -0.3344
  881MOL0     C18815   5.817   3.855   7.314  0.2478 -0.6739 -0.2988
  881MOL0     C18816   5.779   3.996   7.267 -0.3171 -0.8924 -0.1024
  881MOL0     N18817   5.835   4.040   7.145  0.8899 -0.0952  0.1787
  881MOL0     C18818   5.965   4.091   7.126 -0.2953  0.6292 -0.0735
  881MOL0     C18819   5.974   4.136   7.001  0.6445 -0.3398  0.3157
  881MOL0     C18820   6.102   4.198   6.940 -0.2282  0.0540 -0.0795
  881MOL0     C18821   6.142   4.327   7.008  0.1553 -1.1196  0.2945
  881MOL0     C18822   6.029   4.437   7.003 -0.4597  0.4591 -0.2866
  881MOL0     C18823   5.990   4.499   6.869  0.6862 -0.0489 -0.3417
  881MOL0     O18824   6.095   4.494   6.778 -0.2522 -0.5868  0.0839
  881MOL0     C18825   6.064   4.509   6.650  0.2222 -0.1180 -0.3072
  881MOL0     C18826   5.943   4.566   6.602  0.7798  0.6524  0.5628
  881MOL0     C18827   5.909   4.580   6.470 -0.1852  0.6158  0.0186
  881MOL0     C18828   6.005   4.529   6.371  0.6889 -0.7866 -0.0514
  881MOL0     C18829   5.964   4.539   6.226 -1.0709 -0.8124 -0.2721
  881MOL0     O18830   5.841   4.592   6.206 -0.7739 -0.2475  0.5142
  881MOL0     C18831   5.787   4.607   6.078  0.9030 -0.4277 -0.3964
  881MOL0     C18832   5.648   4.593   6.078 -0.6847 -0.3767  0.3565
  881MOL0     C18833   5.577   4.606   5.962  0.5752 -0.3259  0.1778
  881MOL0     C18834   5.637   4.640   5.841 -0.5588 -0.2673  0.0363
  881MOL0     O18835   5.556   4.649   5.732  0.2566 -0.5553 -0.4019
  881MOL0     C18836   5.624   4.639   5.604  1.1700 -0.5047 -0.3618
  881MOL0     C18837   5.511   4.588   5.508 -0.3465  1.5515 -0.3071
  881MOL0     C18838   5.546   4.549   5.371 -0.1400  0.4716  0.9278
  881MOL0     C18839   5.617   4.659   5.283 -0.0590 -0.0629  0.3836
  881MOL0     C18840   5.528   4.779   5.288  0.2418 -0.1190  1.0227
  881MOL0     C18841   5.518   4.863   5.163  0.9055 -0.3512 -0.4574
  881MOL0     C18842   5.430   4.984   5.197  0.3920 -0.3512  0.5353
  881MOL0     C18843   5.417   5.078   5.082  0.7839  0.4680 -0.4799
  881MOL0    Cl18844   5.325   5.003   4.957  0.4203  0.2633  0.0962
  881MOL0     C18845   5.775   4.650   5.837 -0.3844  0.1727  0.2041
  881MOL0     C18846   5.845   4.630   5.949 -0.3159 -1.1596  0.8233
  881MOL0     O18847   6.036   4.498   6.134 -0.2158 -0.2249 -0.8498
  881MOL0     C18848   6.126   4.471   6.418 -0.0957  0.9414 -0.1428
  881MOL0     C18849   6.153   4.458   6.554  0.0666 -0.0597  0.2251
  881MOL0     N18850   5.850   4.105   6.944 -1.0306 -0.2464  1.2916
  881MOL0     N18851   5.776   4.056   7.031  0.6335 -0.0823  0.3404
  881MOL0     C18852   5.906   3.299   6.951  0.1648 -0.1980 -1.1031
  881MOL0     C18853   5.963   3.270   6.828 -0.3842  1.0472 -1.1231
  881MOL0     C18854   6.161   3.020   6.506 -0.4342 -1.1911 -0.3165
  881MOL0     C18855   6.182   3.140   6.422  0.0742 -0.4085 -1.0632
  881MOL0     C18856   6.217   3.134   6.294 -0.5358 -0.4566  1.0654
  881MOL0     C18857   6.250   3.009   6.235  0.5046  0.3640 -1.1161
  881MOL0     O18858   6.292   3.019   6.100  0.1692 -0.4120  0.6626
  881MOL0     C18859   6.332   2.896   6.040  0.1367  0.7837  0.1836
  881MOL0     C18860   6.221   2.830   5.959  1.3303  0.0658 -0.6689
  881MOL0     C18861   6.276   2.726   5.863  0.0141 -0.2657  0.1390
  881MOL0     C18862   6.210   2.583   5.877  0.1494  0.4137  1.2492
  881MOL0     C18863   6.288   2.509   5.978  0.4268 -0.2789 -0.1481
  881MOL0     C18864   6.366   2.455   6.057  0.1324 -0.3735 -0.0004
  881MOL0     C18865   6.238   2.895   6.318  0.4062 -0.1749  0.6539
  881MOL0     C18866   6.197   2.897   6.448 -0.1698  0.0778 -0.3218
  881MOL0     C18867   6.203   2.769   6.532 -0.5139 -0.0482 -0.0972
  881MOL0     H18868   6.252   3.112   6.934 -0.0407  0.2106 -0.5870
  881MOL0     H18869   6.151   3.149   7.147  3.5983  0.7485 -1.7589
  881MOL0     H18870   5.803   3.420   7.148 -1.6919 -0.2084  0.4726
  881MOL0     H18871   5.720   3.257   7.148 -2.9281  0.1896  2.1143
  881MOL0     H18872   5.737   3.248   7.390 -1.3582  0.9679  1.2625
  881MOL0     H18873   5.651   3.394   7.337  1.4264  4.2673  1.8854
  881MOL0     H18874   5.927   3.399   7.430 -0.2901  2.0770 -2.4997
  881MOL0     H18875   5.792   3.433   7.544 -2.3780 -3.1725 -0.9611
  881MOL0     H18876   5.947   3.611   7.460  1.3726  0.6620 -2.6836
  881MOL0     H18877   5.858   3.592   7.303  0.1300  0.3812 -0.1616
  881MOL0     H18878   5.651   3.652   7.400  1.1404  0.3211 -1.5788
  881MOL0     H18879   5.721   3.652   7.567 -0.8990 -0.9361  0.1252
  881MOL0     H18880   5.672   3.878   7.455 -0.0380 -0.0848 -2.9018
  881MOL0     H18881   5.831   3.857   7.530  1.0951  0.8278 -1.7306
  881MOL0     H18882   5.768   3.795   7.238 -2.4957 -1.5117  1.9456
  881MOL0     H18883   5.925   3.839   7.305  0.0308 -1.4769 -1.8474
  881MOL0     H18884   5.672   4.006   7.249 -0.0773  0.8978 -0.7569
  881MOL0     H18885   5.801   4.067   7.348 -0.4382 -0.8595 -0.0983
  881MOL0     H18886   6.038   4.095   7.206 -0.9903  2.1362  0.5285
  881MOL0     H18887   6.181   4.126   6.963 -2.3721 -1.8158  1.9857
  881MOL0     H18888   6.092   4.211   6.832  3.0505  0.3121 -0.4695
  881MOL0     H18889   6.162   4.316   7.115 -0.9508  3.3147  1.1686
  881MOL0     H18890   6.228   4.372   6.958 -2.0757  2.7809 -0.3894
  881MOL0     H18891   6.068   4.523   7.056  0.3240  0.6152 -1.0902
  881MOL0     H18892   5.938   4.399   7.051 -0.4737  0.9853  0.1024
  881MOL0     H18893   5.957   4.601   6.889  0.2069 -0.6350  2.1961
  881MOL0     H18894   5.899   4.451   6.831 -0.4666  0.5278  1.5560
  881MOL0     H18895   5.875   4.607   6.676  1.5161 -0.7850  2.1174
  881MOL0     H18896   5.811   4.619   6.445 -1.1526 -0.1836  2.3894
  881MOL0     H18897   5.606   4.561   6.173  0.0527 -3.3748 -0.2451
  881MOL0     H18898   5.469   4.592   5.964  0.4913  0.2369 -0.1263
  881MOL0     H18899   5.668   4.732   5.568  1.2115 -0.3044  0.1938
  881MOL0     H18900   5.704   4.564   5.605  0.8804 -0.8256  1.2490
  881MOL0     H18901   5.480   4.493   5.553  1.6934  2.3019  2.9880
  881MOL0     H18902   5.423   4.653   5.518 -1.1345  0.7452 -1.7340
  881MOL0     H18903   5.605   4.456   5.375 -2.0535 -0.7530  2.7625
  881MOL0     H18904   5.448   4.523   5.330 -0.2739  0.4534  1.2642
  881MOL0     H18905   5.635   4.633   5.178  1.8756 -0.6681  0.8288
  881MOL0     H18906   5.716   4.688   5.318  0.7220  0.1079 -1.8059
  881MOL0     H18907   5.566   4.832   5.375  1.4308 -0.4128  0.7073
  881MOL0     H18908   5.425   4.746   5.305  0.0218 -0.3688 -0.5913
  881MOL0     H18909   5.619   4.895   5.134  0.2838  1.3427 -0.8180
  881MOL0     H18910   5.478   4.812   5.075 -0.8788 -0.3383  0.3034
  881MOL0     H18911   5.471   5.039   5.283  0.0248  1.4965 -0.4360
  881MOL0     H18912   5.329   4.952   5.223  0.6894 -0.8675  1.0911
  881MOL0     H18913   5.364   5.170   5.110 -0.8097 -0.1312 -1.3994
  881MOL0     H18914   5.512   5.117   5.046 -0.6459  1.5086 -3.4014
  881MOL0     H18915   5.833   4.659   5.746  0.0447 -3.2448  0.0055
  881MOL0     H18916   5.954   4.639   5.946  0.0522 -4.1891 -2.9049
  881MOL0     H18917   6.195   4.424   6.350 -0.5297  1.7307 -1.1487
  881MOL0     H18918   6.247   4.413   6.584  0.5026 -0.0501 -1.0543
  881MOL0     H18919   5.810   3.348   6.963 -1.5248 -3.5735  0.6507
  881MOL0     H18920   5.907   3.308   6.743  0.1133 -1.6807 -2.7997
  881MOL0     H18921   6.169   3.241   6.461  1.5199 -0.8335  0.6793
  881MOL0     H18922   6.228   3.224   6.234 -3.2650  0.2358  1.4580
  881MOL0     H18923   6.377   2.821   6.105  3.2463 -0.3916 -2.9881
  881MOL0     H18924   6.411   2.935   5.976 -0.5316 -0.1128 -1.2334
  881MOL0     H18925   6.158   2.906   5.911  0.5741  0.6347  1.1450
  881MOL0     H18926   6.155   2.771   6.023 -0.5274 -0.4157 -2.9143
  881MOL0     H18927   6.385   2.722   5.863  0.0652  0.7056  0.6462
  881MOL0     H18928   6.248   2.763   5.764 -0.3340 -1.7567 -0.3459
  881MOL0     H18929   6.106   2.584   5.910 -0.1709 -1.7747  0.4313
  881MOL0     H18930   6.227   2.535   5.780  1.5473  1.0008  1.1791
  881MOL0     H18931   6.435   2.395   6.113  1.7466  0.3526 -1.1383
  881MOL0     H18932   6.234   2.801   6.265 -3.9034  1.0170 -1.6524
  881MOL0     H18933   6.249   2.800   6.626  0.8266  2.0196 -1.3627
  881MOL0     H18934   6.101   2.729   6.542 -0.8556  0.7299 -0.4444
  881MOL0     H18935   6.264   2.687   6.492  1.0442  0.1572  1.7232
  882MOL0     O18936  11.211   5.432   1.135  0.0041  0.2919 -0.1480
  882MOL0     C18937  11.121   5.440   1.209  0.1299 -0.2450  0.4322
  882MOL0     O18938  11.131   5.471   1.341 -0.1729 -0.1806  0.1576
  882MOL0     C18939  11.245   5.498   1.404  0.9972  0.6079  0.1154
  882MOL0     C18940  11.229   5.575   1.525  0.5153 -0.3317 -0.2205
  882MOL0     C18941  11.338   5.605   1.606  0.2876 -0.1015 -0.0716
  882MOL0     C18942  11.462   5.552   1.578 -0.4400 -1.0380  0.5564
  882MOL0     O18943  11.576   5.571   1.652 -0.1465 -0.6020 -0.7668
  882MOL0     C18944  11.562   5.658   1.770  0.1288  0.4917 -0.1658
  882MOL0     C18945  11.700   5.666   1.839  0.1240  0.1611  0.5744
  882MOL0     C18946  11.685   5.742   1.963 -0.4929  0.5881  0.2684
  882MOL0     C18947  11.643   5.886   1.943  0.1323 -0.5444  0.2107
  882MOL0     C18948  11.743   5.969   2.033  0.8574  0.1547  0.5419
  882MOL0     C18949  11.727   5.937   2.181 -0.0355  0.1651  1.2391
  882MOL0     C18950  11.792   6.032   2.281  1.0780 -0.4629  0.5353
  882MOL0     C18951  11.706   6.148   2.317  0.2256  0.2921  0.0272
  882MOL0     N18952  11.584   6.105   2.383 -0.4669  0.8590 -0.1725
  882MOL0     C18953  11.459   6.086   2.333  0.7416  0.3312  0.3487
  882MOL0     C18954  11.381   6.049   2.441  0.0206 -0.6428  0.1198
  882MOL0     C18955  11.241   6.017   2.421 -0.0966  0.0508 -0.3194
  882MOL0     C18956  11.214   5.880   2.361  0.7508 -0.2834 -0.0902
  882MOL0     C18957  11.240   5.769   2.462  0.5310 -0.7634 -0.1234
  882MOL0     C18958  11.386   5.727   2.457  0.0061  0.2490  0.6114
  882MOL0     O18959  11.393   5.633   2.349 -0.3318  0.5254 -0.5952
  882MOL0     C18960  11.507   5.574   2.302  0.0666 -0.4634  1.3612
  882MOL0     C18961  11.641   5.617   2.309  0.4434 -0.0541  0.1705
  882MOL0     C18962  11.745   5.548   2.261 -0.4791  0.0213  0.3330
  882MOL0     C18963  11.736   5.425   2.193  0.3394  0.1674  0.1228
  882MOL0     C18964  11.849   5.348   2.147 -0.5317  0.0770 -0.0244
  882MOL0     O18965  11.963   5.418   2.121 -0.3426 -0.5290  0.0835
  882MOL0     C18966  12.061   5.379   2.033 -0.1000  0.3590 -0.1382
  882MOL0     C18967  12.196   5.415   2.065 -1.2978 -0.4238 -0.4790
  882MOL0     C18968  12.296   5.401   1.975 -0.5886  0.0655  0.0242
  882MOL0     C18969  12.265   5.342   1.850 -0.3088  0.1261  0.3033
  882MOL0     O18970  12.354   5.291   1.760  0.0628 -0.1561  0.4923
  882MOL0     C18971  12.499   5.307   1.786 -1.5077  0.0451  0.1342
  882MOL0     C18972  12.596   5.235   1.692 -0.1322 -0.1257 -0.4780
  882MOL0     C18973  12.567   5.284   1.547  0.1218  0.1522  0.1526
  882MOL0     C18974  12.603   5.179   1.443 -0.3793  0.3192  0.2984
  882MOL0     C18975  12.530   5.185   1.308 -0.0102 -0.0198 -0.2761
  882MOL0     C18976  12.540   5.050   1.236  0.8621 -0.7559  0.3537
  882MOL0     C18977  12.687   5.001   1.218 -0.6334 -0.6003 -0.6139
  882MOL0     C18978  12.686   4.896   1.114  1.0192  0.2993  0.0691
  882MOL0    Cl18979  12.851   4.821   1.141 -0.5585  0.3133 -0.1747
  882MOL0     C18980  12.130   5.316   1.814 -0.5441  0.2255  0.4468
  882MOL0     C18981  12.028   5.340   1.906  0.2642 -0.1089  0.8274
  882MOL0     O18982  11.835   5.232   2.125 -0.1910 -0.7783  0.0720
  882MOL0     C18983  11.606   5.382   2.177 -0.4034 -0.5408 -0.7432
  882MOL0     C18984  11.494   5.460   2.220  0.1920  0.2919  0.8523
  882MOL0     N18985  11.459   6.042   2.549  0.1229  1.1392  0.3507
  882MOL0     N18986  11.578   6.078   2.515  0.7036 -1.0049  0.5694
  882MOL0     C18987  11.479   5.475   1.465 -0.1189  0.3353 -0.4530
  882MOL0     C18988  11.372   5.454   1.374  0.5939  0.7215 -0.5911
  882MOL0     C18989  10.992   5.363   1.170 -0.2703 -0.1926 -0.7834
  882MOL0     C18990  10.923   5.299   1.271  0.3472  0.5985 -0.2872
  882MOL0     C18991  10.817   5.210   1.235  0.2340 -0.0799 -0.0410
  882MOL0     C18992  10.769   5.199   1.108 -0.1121  1.3713  0.4546
  882MOL0     O18993  10.645   5.143   1.064 -0.0407 -0.0242  0.5324
  882MOL0     C18994  10.557   5.079   1.151 -1.1841  0.6290  0.3124
  882MOL0     C18995  10.436   5.053   1.063  1.2240 -0.1211 -0.8680
  882MOL0     C18996  10.313   5.057   1.158  0.3637  0.3846 -0.2581
  882MOL0     C18997  10.177   5.051   1.087  0.1625  0.9213 -0.0270
  882MOL0     C18998  10.076   5.042   1.195  0.2347 -0.4751 -0.5002
  882MOL0     C18999   9.991   5.059   1.283  0.5305  0.4418  0.5696
  882MOL0     C19000  10.831   5.277   1.011 -0.4302 -0.5282  0.4087
  882MOL0     C19001  10.933   5.375   1.045 -0.4229  0.2116  0.0014
  882MOL0     C19002  11.005   5.453   0.940  0.3227  0.7037 -0.0454
  882MOL0     H19003  11.126   5.604   1.544  0.3704  1.0348 -2.6602
  882MOL0     H19004  11.336   5.669   1.693  1.5335  0.8368 -0.6959
  882MOL0     H19005  11.520   5.755   1.742  1.3405  0.3550 -2.7701
  882MOL0     H19006  11.497   5.604   1.840  1.1405 -1.2341 -0.4856
  882MOL0     H19007  11.768   5.724   1.775 -2.0451  1.3101 -0.7912
  882MOL0     H19008  11.744   5.567   1.854  0.1509 -0.1957 -1.4589
  882MOL0     H19009  11.781   5.736   2.015 -1.0805  0.7215  1.4171
  882MOL0     H19010  11.610   5.688   2.022 -1.4865  3.2536  1.6080
  882MOL0     H19011  11.654   5.923   1.841  0.2497  2.3261  1.1958
  882MOL0     H19012  11.540   5.904   1.973  1.2293  1.1509  3.5302
  882MOL0     H19013  11.847   5.957   2.001  0.9385 -0.6823  1.0777
  882MOL0     H19014  11.718   6.075   2.019 -3.7338 -0.8104 -0.2940
  882MOL0     H19015  11.619   5.928   2.196 -0.2839  0.9030 -0.0162
  882MOL0     H19016  11.769   5.839   2.207 -0.8624  0.3577  3.5157
  882MOL0     H19017  11.889   6.066   2.242  0.4562 -0.2870 -0.9313
  882MOL0     H19018  11.805   5.975   2.374  0.6369 -3.7116 -1.2242
  882MOL0     H19019  11.759   6.209   2.391  0.4290 -0.8607  0.8630
  882MOL0     H19020  11.671   6.205   2.230 -2.4348  0.8230  1.3428
  882MOL0     H19021  11.419   6.093   2.233 -0.3767 -1.2014  0.6461
  882MOL0     H19022  11.203   6.020   2.523  2.5538  1.1755  0.7123
  882MOL0     H19023  11.188   6.096   2.367  2.1923  2.4341  0.7188
  882MOL0     H19024  11.105   5.873   2.355  0.6289 -1.2414  2.1967
  882MOL0     H19025  11.248   5.860   2.259 -0.4152 -0.6178 -0.4346
  882MOL0     H19026  11.175   5.683   2.443 -2.4659  0.4191  3.5890
  882MOL0     H19027  11.224   5.803   2.564  1.1572 -2.8811  0.7380
  882MOL0     H19028  11.426   5.684   2.549  0.0386  1.8315  1.3760
  882MOL0     H19029  11.451   5.810   2.430  1.6379 -0.5661  1.9012
  882MOL0     H19030  11.657   5.716   2.350 -0.2283  0.4627 -0.7807
  882MOL0     H19031  11.842   5.597   2.267 -0.0292 -0.9483  1.3890
  882MOL0     H19032  12.215   5.452   2.165 -1.4880 -0.8437 -0.2822
  882MOL0     H19033  12.400   5.409   2.005 -0.4392 -3.2571  0.7047
  882MOL0     H19034  12.520   5.415   1.791 -0.1703 -0.2400  3.2053
  882MOL0     H19035  12.521   5.265   1.884 -1.9459 -2.2911 -0.7173
  882MOL0     H19036  12.703   5.237   1.718 -0.5645 -1.8600  1.6897
  882MOL0     H19037  12.578   5.128   1.700 -0.2342  0.0457  2.7794
  882MOL0     H19038  12.460   5.307   1.544  0.2379  0.8272  0.7746
  882MOL0     H19039  12.615   5.380   1.522 -2.1023  1.0951 -0.7868
  882MOL0     H19040  12.572   5.081   1.482 -1.5554  0.2371 -0.7711
  882MOL0     H19041  12.710   5.176   1.419 -0.1428 -0.2021  1.3361
  882MOL0     H19042  12.581   5.262   1.249 -3.0855  1.9242 -0.6090
  882MOL0     H19043  12.426   5.215   1.316 -0.1458 -0.4973 -0.2312
  882MOL0     H19044  12.480   4.983   1.298 -4.9381  0.3196 -3.2279
  882MOL0     H19045  12.479   5.055   1.144 -0.9540 -1.0302  1.4882
  882MOL0     H19046  12.720   4.964   1.316 -0.9185  2.8890  0.9359
  882MOL0     H19047  12.747   5.088   1.194 -0.8008 -0.8301 -1.9302
  882MOL0     H19048  12.607   4.822   1.129  0.0223  0.7331 -2.5320
  882MOL0     H19049  12.675   4.943   1.016 -0.8055  1.6590  0.8734
  882MOL0     H19050  12.112   5.279   1.713  1.9062  1.7244 -0.6281
  882MOL0     H19051  11.922   5.332   1.883 -0.0284  0.7007  1.8226
  882MOL0     H19052  11.571   5.295   2.122 -1.1433 -1.4182  1.0423
  882MOL0     H19053  11.398   5.421   2.189  1.9922 -2.7080 -1.5077
  882MOL0     H19054  11.574   5.426   1.447  0.2714  0.9188  0.0001
  882MOL0     H19055  11.390   5.387   1.291  1.1301 -2.5691  1.9684
  882MOL0     H19056  10.970   5.286   1.369 -1.1802 -1.2483  0.2548
  882MOL0     H19057  10.761   5.157   1.312  0.9365 -1.2843 -0.3292
  882MOL0     H19058  10.534   5.130   1.244  3.7531 -3.0307  4.1342
  882MOL0     H19059  10.596   4.982   1.184  0.9978  1.8858  1.6414
  882MOL0     H19060  10.443   4.952   1.022 -0.4290 -0.6429  0.0201
  882MOL0     H19061  10.425   5.125   0.982  2.2453 -1.4393 -2.2286
  882MOL0     H19062  10.313   5.151   1.215 -2.2135 -1.4800  3.2098
  882MOL0     H19063  10.312   4.975   1.230 -5.5036  2.1710  2.3290
  882MOL0     H19064  10.168   5.135   1.018 -0.9836  0.1657 -0.8163
  882MOL0     H19065  10.180   4.964   1.021  0.7575 -0.1287  1.3365
  882MOL0     H19066   9.908   5.069   1.350 -2.5014 -0.8840 -2.6966
  882MOL0     H19067  10.797   5.278   0.908 -0.6169  1.8788  0.4295
  882MOL0     H19068  11.056   5.544   0.974  2.7079 -0.7627  0.5229
  882MOL0     H19069  11.080   5.384   0.902 -0.0623 -2.4059  4.2244
  882MOL0     H19070  10.934   5.467   0.857 -0.2083 -1.8293 -0.0852
  883MOL0     O19071   6.265   0.505   7.214 -0.8637 -0.0116  0.2378
  883MOL0     C19072   6.251   0.472   7.334  0.4492  0.3537  0.3659
  883MOL0     O19073   6.350   0.478   7.434 -0.1901 -0.1718  0.5638
  883MOL0     C19074   6.477   0.524   7.419 -0.5681 -0.7466  0.5639
  883MOL0     C19075   6.574   0.437   7.399  0.2857  0.3540  0.1416
  883MOL0     C19076   6.704   0.479   7.390  0.5110  0.7325 -0.2958
  883MOL0     C19077   6.744   0.609   7.388 -0.8267 -0.1033  0.5611
  883MOL0     O19078   6.884   0.642   7.366  0.2739 -0.0262  0.0407
  883MOL0     C19079   6.924   0.778   7.393 -0.1175 -1.2976  1.1203
  883MOL0     C19080   7.073   0.797   7.351 -0.1495  0.1611 -0.1742
  883MOL0     C19081   7.105   0.788   7.208 -0.5413  0.7205 -0.0677
  883MOL0     C19082   7.249   0.831   7.190  0.1971  0.0586  0.2119
  883MOL0     C19083   7.297   0.818   7.039  0.3365  0.1745  0.2788
  883MOL0     C19084   7.453   0.832   7.052  0.1573  0.8543 -0.1216
  883MOL0     C19085   7.522   0.797   6.913 -0.0573 -0.0064 -0.1803
  883MOL0     C19086   7.510   0.650   6.871  0.4282 -0.5600  0.0327
  883MOL0     N19087   7.576   0.555   6.949 -0.9122  0.4906  0.3952
  883MOL0     C19088   7.519   0.467   7.037 -0.4001  0.3010 -0.2366
  883MOL0     C19089   7.619   0.390   7.079 -0.2634  0.4899 -0.0366
  883MOL0     C19090   7.597   0.283   7.186  0.5543  0.2535  0.9194
  883MOL0     C19091   7.541   0.160   7.105 -0.3598  0.7099  0.7378
  883MOL0     C19092   7.517   0.037   7.192 -0.9328  0.8069 -0.3806
  883MOL0     C19093   7.464  -0.086   7.117 -0.8120 -0.1677 -0.3559
  883MOL0     O19094   7.322  -0.093   7.125  0.3101 -0.5494  0.5436
  883MOL0     C19095   7.256  -0.137   7.241 -0.7906  1.4403 -0.2577
  883MOL0     C19096   7.120  -0.164   7.238  0.4713  0.3689  0.1712
  883MOL0     C19097   7.050  -0.196   7.348  0.3117  0.4013  0.1468
  883MOL0     C19098   7.111  -0.188   7.475  0.2109  0.4349 -0.8096
  883MOL0     C19099   7.021  -0.207   7.597 -1.1633 -0.5771 -0.4045
  883MOL0     O19100   6.888  -0.224   7.572  0.7552  0.6446  0.0491
  883MOL0     C19101   6.807  -0.234   7.683 -0.6042 -1.0416 -0.0286
  883MOL0     C19102   6.738  -0.348   7.712 -0.1669 -0.0394  0.6681
  883MOL0     C19103   6.654  -0.362   7.826 -0.8665  0.4939 -0.6092
  883MOL0     C19104   6.631  -0.253   7.904  0.0172  0.2318 -0.6567
  883MOL0     O19105   6.542  -0.258   8.007  0.4367 -0.3641 -0.2921
  883MOL0     C19106   6.419  -0.184   7.991 -0.5094 -0.0823 -0.2793
  883MOL0     C19107   6.328  -0.246   8.102  0.2156 -0.0157  1.0593
  883MOL0     C19108   6.288  -0.387   8.076 -0.0751  1.5724 -0.7194
  883MOL0     C19109   6.245  -0.425   7.933  0.3054 -0.3329  0.2495
  883MOL0     C19110   6.210  -0.576   7.932  0.7009  0.0545  0.2228
  883MOL0     C19111   6.136  -0.590   7.805 -0.7614  0.8919  0.0915
  883MOL0     C19112   6.067  -0.718   7.772  0.2714  0.6828 -1.3913
  883MOL0     C19113   6.037  -0.724   7.621  0.4241  0.1798  0.3947
  883MOL0    Cl19114   6.210  -0.738   7.541 -0.0917 -0.0309 -0.3657
  883MOL0     C19115   6.703  -0.136   7.881 -0.1129 -0.2086 -0.5407
  883MOL0     C19116   6.794  -0.126   7.772  0.9967 -0.4451  1.2981
  883MOL0     O19117   7.075  -0.192   7.707 -0.4194 -0.2622  0.4385
  883MOL0     C19118   7.249  -0.168   7.484  0.0087  0.8313  0.2932
  883MOL0     C19119   7.318  -0.145   7.368 -0.9273 -0.1164  0.6378
  883MOL0     N19120   7.742   0.425   7.018  0.4119 -0.0527 -0.0716
  883MOL0     N19121   7.711   0.526   6.946  0.3373 -0.8592 -0.2553
  883MOL0     C19122   6.647   0.708   7.404  0.4356 -0.6245  0.5656
  883MOL0     C19123   6.512   0.661   7.416  0.2682 -0.1233 -0.4558
  883MOL0     C19124   6.116   0.425   7.375 -0.6808 -0.2484 -0.5266
  883MOL0     C19125   6.074   0.452   7.512 -0.6308 -0.1654 -0.4897
  883MOL0     C19126   5.947   0.418   7.558 -0.3446 -0.2392  0.7045
  883MOL0     C19127   5.853   0.359   7.466 -0.2147 -0.0038  0.2025
  883MOL0     O19128   5.726   0.322   7.484  0.1546  0.4855 -0.8154
  883MOL0     C19129   5.683   0.319   7.624  0.3635 -0.5662 -0.2876
  883MOL0     C19130   5.527   0.311   7.656 -0.3896  0.2337  0.1956
  883MOL0     C19131   5.444   0.432   7.603 -0.3361  0.1080 -0.2049
  883MOL0     C19132   5.456   0.567   7.680  0.1782  0.4434 -0.3704
  883MOL0     C19133   5.401   0.537   7.814 -0.7332  0.3631 -0.5527
  883MOL0     C19134   5.354   0.514   7.919 -0.0746 -0.5063 -0.1585
  883MOL0     C19135   5.900   0.339   7.340  0.3016 -0.2526 -0.0671
  883MOL0     C19136   6.026   0.365   7.285  0.2436 -0.0001 -0.0823
  883MOL0     C19137   6.051   0.348   7.133  1.0750 -0.3448  0.0432
  883MOL0     H19138   6.556   0.330   7.401 -0.6179  0.5019  1.1948
  883MOL0     H19139   6.765   0.389   7.382 -1.5700 -0.7039 -1.0723
  883MOL0     H19140   6.863   0.850   7.337  0.6273  1.3793  3.5662
  883MOL0     H19141   6.915   0.799   7.500  2.0448 -0.3607  1.1512
  883MOL0     H19142   7.117   0.712   7.403  1.2133 -0.9789 -2.9645
  883MOL0     H19143   7.108   0.893   7.388  1.5043 -0.5953  0.2847
  883MOL0     H19144   7.034   0.848   7.151 -2.9724  0.2469  2.2523
  883MOL0     H19145   7.088   0.683   7.181 -2.6237  0.0352  3.2570
  883MOL0     H19146   7.246   0.936   7.221 -2.2070 -0.7008  2.8224
  883MOL0     H19147   7.313   0.773   7.257  0.1748 -0.4539 -0.2040
  883MOL0     H19148   7.262   0.718   7.012  0.1515 -0.1203  1.5626
  883MOL0     H19149   7.249   0.885   6.967 -2.0505  0.4920  2.0430
  883MOL0     H19150   7.484   0.927   7.096 -2.3828  0.7632  2.1417
  883MOL0     H19151   7.497   0.760   7.122  1.3497 -0.1658 -1.8464
  883MOL0     H19152   7.628   0.826   6.918 -0.2321  0.9796 -1.5439
  883MOL0     H19153   7.486   0.854   6.827  3.0259  0.1875 -1.5153
  883MOL0     H19154   7.404   0.623   6.867  1.1389 -3.8958  0.4563
  883MOL0     H19155   7.554   0.644   6.771  1.7281 -0.0159  0.5542
  883MOL0     H19156   7.420   0.465   7.082  0.3629  4.8517  2.2839
  883MOL0     H19157   7.694   0.256   7.228  1.1884  2.0233  0.6539
  883MOL0     H19158   7.541   0.320   7.272  0.1242  3.5854 -0.6279
  883MOL0     H19159   7.449   0.173   7.047  0.8361 -1.3330 -1.8069
  883MOL0     H19160   7.614   0.140   7.027 -1.2617  3.0373 -0.8145
  883MOL0     H19161   7.444   0.062   7.271  2.0582  0.1515  2.8382
  883MOL0     H19162   7.611   0.016   7.244 -0.4619 -2.0415 -2.2116
  883MOL0     H19163   7.505  -0.178   7.161 -1.8769 -0.1854  0.6309
  883MOL0     H19164   7.499  -0.084   7.013 -0.7457  2.3733 -0.3475
  883MOL0     H19165   7.072  -0.151   7.142  1.3383  0.1950 -0.2983
  883MOL0     H19166   6.943  -0.194   7.333  0.2255  2.4793  0.7930
  883MOL0     H19167   6.743  -0.431   7.642 -1.0357  2.1127 -2.0769
  883MOL0     H19168   6.612  -0.460   7.846 -2.0147  1.4323  2.0153
  883MOL0     H19169   6.434  -0.079   8.020  0.8876 -0.8224  1.9297
  883MOL0     H19170   6.380  -0.198   7.890  1.4898 -2.7911 -0.7716
  883MOL0     H19171   6.382  -0.240   8.197 -0.4620 -1.8066  1.5933
  883MOL0     H19172   6.237  -0.186   8.115  0.5354  1.0357 -1.1907
  883MOL0     H19173   6.361  -0.456   8.118 -0.7866 -1.2316 -3.7025
  883MOL0     H19174   6.197  -0.409   8.132 -1.1485  2.4762 -2.0305
  883MOL0     H19175   6.326  -0.411   7.860  0.2650 -1.5864 -0.0720
  883MOL0     H19176   6.164  -0.355   7.912  1.8483  1.1561 -1.0178
  883MOL0     H19177   6.135  -0.596   8.009  1.9545 -0.2040  1.4187
  883MOL0     H19178   6.294  -0.647   7.928 -1.8040 -3.3008  2.0310
  883MOL0     H19179   6.052  -0.520   7.794 -1.3559  0.0521 -0.9903
  883MOL0     H19180   6.212  -0.559   7.733 -1.2602  2.6222  0.2600
  883MOL0     H19181   5.975  -0.727   7.831  1.5230 -3.5727  0.2868
  883MOL0     H19182   6.130  -0.803   7.799  0.1044  1.4955  2.0705
  883MOL0     H19183   5.976  -0.805   7.580  1.0513  0.5215 -1.2987
  883MOL0     H19184   5.987  -0.632   7.589 -0.2140  0.1743  1.3255
  883MOL0     H19185   6.690  -0.046   7.941  1.5856 -2.0338  2.9018
  883MOL0     H19186   6.858  -0.040   7.755 -1.8004  1.0754 -3.6578
  883MOL0     H19187   7.299  -0.154   7.579 -1.3276  2.2230  0.8412
  883MOL0     H19188   7.427  -0.149   7.369 -0.8797 -1.5074 -2.1997
  883MOL0     H19189   6.681   0.811   7.406 -0.3516 -0.3526  0.2679
  883MOL0     H19190   6.435   0.737   7.429  1.7289  0.8619  4.5823
  883MOL0     H19191   6.138   0.508   7.578  1.1342 -1.6798 -0.8409
  883MOL0     H19192   5.918   0.430   7.662 -1.4154 -0.7207  0.4702
  883MOL0     H19193   5.722   0.408   7.674  3.4978 -0.7783 -2.0666
  883MOL0     H19194   5.724   0.225   7.661  0.0218 -0.1578  1.2091
  883MOL0     H19195   5.512   0.308   7.764 -0.2589 -3.0672  0.2060
  883MOL0     H19196   5.480   0.221   7.616  1.0031  0.1830 -1.4408
  883MOL0     H19197   5.337   0.408   7.602 -0.7861  1.8288  0.9958
  883MOL0     H19198   5.475   0.451   7.500 -0.0484 -1.2687 -0.3831
  883MOL0     H19199   5.552   0.616   7.698 -0.7011  1.8282  0.8468
  883MOL0     H19200   5.397   0.642   7.626  0.5816  1.7854  0.9814
  883MOL0     H19201   5.302   0.505   8.013  2.0517  1.4356  1.3370
  883MOL0     H19202   5.836   0.289   7.268  2.1737 -3.4629  0.2916
  883MOL0     H19203   5.976   0.282   7.088  0.5495  1.0566 -1.1800
  883MOL0     H19204   6.052   0.448   7.089  0.1829  1.0282  2.8503
  883MOL0     H19205   6.151   0.305   7.115  1.9189  0.8570  1.5797
  884MOL0     O19206   6.684   8.552   7.614 -0.1391 -0.4028  0.6346
  884MOL0     C19207   6.800   8.548   7.634 -0.5145 -0.5870  0.3832
  884MOL0     O19208   6.870   8.644   7.710  0.3958 -0.1194 -0.5954
  884MOL0     C19209   6.807   8.740   7.794  0.1485  0.7942 -0.2076
  884MOL0     C19210   6.691   8.715   7.872  0.2776 -0.0255  0.0354
  884MOL0     C19211   6.627   8.818   7.937  0.6047  0.2599  0.2107
  884MOL0     C19212   6.692   8.938   7.957 -0.2433  0.5965  0.5089
  884MOL0     O19213   6.644   9.035   8.035 -0.2607 -0.9438 -0.0501
  884MOL0     C19214   6.507   9.083   8.028  1.2349  0.3062 -0.5798
  884MOL0     C19215   6.473   9.173   8.154  0.9544  0.5117 -0.4768
  884MOL0     C19216   6.322   9.237   8.161 -0.1828 -0.2103  0.8302
  884MOL0     C19217   6.200   9.140   8.139 -0.6276  0.2581 -0.3867
  884MOL0     C19218   6.188   9.021   8.231  0.2751 -0.9018  0.0838
  884MOL0     C19219   6.098   9.026   8.355 -0.1904  0.5261  0.2940
  884MOL0     C19220   5.953   8.998   8.329  0.2878 -0.1101 -0.1707
  884MOL0     C19221   5.876   8.956   8.458  0.2777  0.1949 -0.2290
  884MOL0     N19222   5.734   8.985   8.444  0.4171  0.2652  0.0610
  884MOL0     C19223   5.647   8.894   8.392 -0.4989  0.0065 -0.0897
  884MOL0     C19224   5.527   8.962   8.384 -0.2468  0.3118  0.4146
  884MOL0     C19225   5.396   8.914   8.322 -0.5186  0.4940  0.0847
  884MOL0     C19226   5.280   8.913   8.436 -0.7780 -0.5247 -0.5553
  884MOL0     C19227   5.334   8.860   8.570  0.4713  0.4946 -0.4561
  884MOL0     C19228   5.218   8.861   8.671  0.1793 -0.2526 -0.2424
  884MOL0     O19229   5.241   8.788   8.797  0.6168 -0.1067  0.7501
  884MOL0     C19230   5.139   8.796   8.891 -0.0571  1.0689 -0.3870
  884MOL0     C19231   5.006   8.830   8.869 -0.4989 -0.4139 -0.0148
  884MOL0     C19232   4.921   8.834   8.977 -0.2398  0.0396 -0.9829
  884MOL0     C19233   4.960   8.810   9.109 -0.8983  0.5185  0.3038
  884MOL0     C19234   4.868   8.824   9.218 -0.7416  0.9262  0.1393
  884MOL0     O19235   4.734   8.824   9.172 -0.3018 -0.3578  0.8346
  884MOL0     C19236   4.620   8.825   9.255  0.3135  0.0971 -0.1926
  884MOL0     C19237   4.502   8.878   9.197 -0.3840  0.1981  0.2126
  884MOL0     C19238   4.379   8.881   9.273 -0.6176 -0.8547 -0.5001
  884MOL0     C19239   4.380   8.839   9.403  0.3425  0.5156  0.0679
  884MOL0     O19240   4.259   8.872   9.465 -0.4601  0.3267 -1.2046
  884MOL0     C19241   4.240   8.823   9.606  0.9799  0.3797 -0.0144
  884MOL0     C19242   4.096   8.821   9.630  0.1670 -0.5862  0.3620
  884MOL0     C19243   4.061   8.758   9.763 -0.3167  0.3288  0.5507
  884MOL0     C19244   3.931   8.824   9.831  0.0192  0.2628  0.3253
  884MOL0     C19245   3.967   8.949   9.916  0.5089  0.2040  0.0347
  884MOL0     C19246   3.992   8.916  10.066 -0.3241  0.0382 -0.1462
  884MOL0     C19247   4.135   8.861  10.096 -0.2709  0.3849  0.0487
  884MOL0     C19248   4.159   8.868  10.239 -0.1694 -0.1004  0.0061
  884MOL0    Cl19249   4.200   9.039  10.281 -0.0758 -0.2256  0.1109
  884MOL0     C19250   4.492   8.772   9.458 -0.2585 -0.2907  0.5317
  884MOL0     C19251   4.613   8.777   9.386 -0.5613  0.5111 -0.4268
  884MOL0     O19252   4.902   8.814   9.336  0.3407 -0.5223 -0.4812
  884MOL0     C19253   5.090   8.768   9.133  0.7564 -0.5718 -0.4119
  884MOL0     C19254   5.182   8.770   9.019  0.5288 -0.5947 -0.2720
  884MOL0     N19255   5.543   9.078   8.454 -0.2484 -0.3557  0.3894
  884MOL0     N19256   5.669   9.097   8.480 -0.1909  0.2427  0.6872
  884MOL0     C19257   6.815   8.967   7.889  0.2285 -0.6768 -0.7220
  884MOL0     C19258   6.874   8.865   7.804  0.2590 -0.7582  0.4528
  884MOL0     C19259   6.882   8.443   7.564  0.1447 -0.1924  0.4899
  884MOL0     C19260   7.016   8.458   7.564 -0.7904  0.4611  0.2666
  884MOL0     C19261   7.106   8.361   7.513 -0.1418 -0.0891 -0.1956
  884MOL0     C19262   7.059   8.244   7.452 -0.1811  1.0790 -0.5549
  884MOL0     O19263   7.128   8.141   7.389  0.9356 -0.1688 -1.1049
  884MOL0     C19264   7.265   8.164   7.374  0.0329 -1.2349  0.1423
  884MOL0     C19265   7.331   8.038   7.338  0.5315  0.2007  0.1819
  884MOL0     C19266   7.353   7.949   7.467  0.3246  0.5181  0.3405
  884MOL0     C19267   7.443   7.822   7.463  0.1023  1.3086  0.4596
  884MOL0     C19268   7.579   7.862   7.456 -0.9198 -0.6388  0.3706
  884MOL0     C19269   7.698   7.888   7.456  1.0217 -1.4698 -0.8245
  884MOL0     C19270   6.919   8.232   7.448  0.8663 -0.9411  0.2115
  884MOL0     C19271   6.830   8.322   7.503  1.0726  0.7989  0.3631
  884MOL0     C19272   6.684   8.280   7.512 -0.6087 -0.4023 -0.5037
  884MOL0     H19273   6.649   8.616   7.883  1.4034 -0.6712 -1.1262
  884MOL0     H19274   6.530   8.803   7.984  1.3557 -0.3932  1.6000
  884MOL0     H19275   6.485   9.132   7.933 -0.1127  2.9683  1.0021
  884MOL0     H19276   6.449   8.991   8.039  0.6479  0.6915 -0.4039
  884MOL0     H19277   6.532   9.265   8.154 -0.0930  1.2931  2.3026
  884MOL0     H19278   6.492   9.120   8.248 -0.5781  2.9387  1.3269
  884MOL0     H19279   6.299   9.319   8.091  2.8702  0.9835  1.0965
  884MOL0     H19280   6.322   9.288   8.258  2.5871  1.8749 -0.1318
  884MOL0     H19281   6.105   9.193   8.155  0.2251  1.6911  0.1714
  884MOL0     H19282   6.198   9.106   8.035 -4.5760  2.6218 -1.2824
  884MOL0     H19283   6.162   8.926   8.184 -0.9613 -0.2825 -0.5407
  884MOL0     H19284   6.284   9.017   8.282 -0.4572 -0.0856  1.6096
  884MOL0     H19285   6.129   8.938   8.413  2.3091  1.6764  0.8584
  884MOL0     H19286   6.118   9.115   8.416  0.6735 -0.0589  0.9046
  884MOL0     H19287   5.934   8.922   8.253  0.1404 -2.3224  1.9577
  884MOL0     H19288   5.896   9.090   8.318  0.6499  0.5412  2.5759
  884MOL0     H19289   5.894   8.852   8.484  2.3389 -0.5107 -3.7950
  884MOL0     H19290   5.917   9.023   8.535 -1.2846 -0.0408  0.8609
  884MOL0     H19291   5.676   8.793   8.363  2.1752  0.3971  0.8926
  884MOL0     H19292   5.371   8.973   8.233 -3.1324  0.1630  0.5201
  884MOL0     H19293   5.400   8.811   8.287 -0.2220  0.1490  1.0936
  884MOL0     H19294   5.244   9.014   8.452  0.0785 -0.4474  1.2029
  884MOL0     H19295   5.198   8.846   8.409  0.5824 -3.0007  0.9287
  884MOL0     H19296   5.420   8.918   8.605  0.2339  0.2729  0.5386
  884MOL0     H19297   5.361   8.754   8.557  4.2997  1.4972 -1.8088
  884MOL0     H19298   5.134   8.814   8.619 -2.0109  3.6172 -0.6117
  884MOL0     H19299   5.197   8.964   8.702 -0.4729 -0.6166  0.5699
  884MOL0     H19300   4.973   8.846   8.767 -0.5631  0.8582  0.1870
  884MOL0     H19301   4.821   8.862   8.947  0.1010  1.0455 -1.2451
  884MOL0     H19302   4.485   8.925   9.101 -1.8560  1.5451  1.0814
  884MOL0     H19303   4.289   8.927   9.233 -0.0428  1.8376  1.0926
  884MOL0     H19304   4.269   8.719   9.624  0.1341  0.4241  1.9663
  884MOL0     H19305   4.289   8.897   9.670  1.6018  2.7208 -2.9684
  884MOL0     H19306   4.063   8.924   9.639  3.9239  0.7101  1.4019
  884MOL0     H19307   4.038   8.769   9.553 -1.5661 -1.1469  1.9620
  884MOL0     H19308   4.036   8.659   9.725 -0.6394  0.7099 -0.2605
  884MOL0     H19309   4.147   8.751   9.830  0.6621 -1.7105 -0.8203
  884MOL0     H19310   3.864   8.761   9.890 -4.0459  2.5264 -1.4390
  884MOL0     H19311   3.872   8.863   9.748  0.0865  1.4649  0.8129
  884MOL0     H19312   3.879   9.013   9.915 -2.3153 -3.2535  1.8158
  884MOL0     H19313   4.047   9.007   9.870 -1.0238  2.8293  0.5318
  884MOL0     H19314   3.973   9.006  10.125  1.3029  1.4958 -1.7508
  884MOL0     H19315   3.916   8.843  10.094 -1.5576  0.8018 -1.4040
  884MOL0     H19316   4.216   8.913  10.045  0.2846 -0.7776 -0.2930
  884MOL0     H19317   4.137   8.755  10.065  2.5075  0.9262 -1.9897
  884MOL0     H19318   4.068   8.841  10.293  1.0832  0.9853  2.8382
  884MOL0     H19319   4.244   8.806  10.268 -0.1667  1.2193  3.2092
  884MOL0     H19320   4.490   8.735   9.560 -2.1517  1.8554  1.3747
  884MOL0     H19321   4.696   8.726   9.434  0.0441  1.3052 -0.6115
  884MOL0     H19322   5.099   8.754   9.240 -0.5145  0.1609 -0.1986
  884MOL0     H19323   5.287   8.741   9.018  1.3725  2.1397 -0.5267
  884MOL0     H19324   6.850   9.067   7.913 -1.6537 -0.4920  1.7373
  884MOL0     H19325   6.966   8.887   7.750 -0.8826  2.8528 -0.2784
  884MOL0     H19326   7.065   8.549   7.598  1.3492 -0.7917  0.6852
  884MOL0     H19327   7.211   8.385   7.527  1.0516 -3.8276 -1.5125
  884MOL0     H19328   7.316   8.203   7.463  1.3462 -2.0004 -0.2519
  884MOL0     H19329   7.273   8.239   7.294  1.5374 -2.3392 -0.7891
  884MOL0     H19330   7.430   8.067   7.302  1.0752 -0.2185  1.2869
  884MOL0     H19331   7.280   7.996   7.251  3.2161  0.3689 -1.5667
  884MOL0     H19332   7.250   7.938   7.501 -0.1711 -0.3483 -1.3179
  884MOL0     H19333   7.398   8.022   7.535  1.4782  0.4517 -0.3280
  884MOL0     H19334   7.422   7.773   7.559 -0.0630  3.4174  1.5686
  884MOL0     H19335   7.402   7.764   7.380  1.9242 -0.5587  0.7714
  884MOL0     H19336   7.802   7.915   7.451  1.5930 -2.8061  1.8876
  884MOL0     H19337   6.869   8.142   7.416  1.3097 -1.5283  1.1273
  884MOL0     H19338   6.664   8.291   7.619 -2.5537  0.0351 -0.8745
  884MOL0     H19339   6.620   8.343   7.450 -0.4426 -1.0960 -1.4121
  884MOL0     H19340   6.666   8.177   7.478  2.8009 -1.5828  0.8351
  885MOL0     O19341   8.967   7.628   3.449 -0.8635 -0.4045 -0.4004
  885MOL0     C19342   9.008   7.578   3.352  0.3420  0.2938  0.7027
  885MOL0     O19343   8.931   7.536   3.251  0.1123  0.1187  0.6502
  885MOL0     C19344   8.795   7.545   3.247  0.2872  0.2905  0.1364
  885MOL0     C19345   8.721   7.649   3.304 -0.4792 -0.6434 -0.2084
  885MOL0     C19346   8.583   7.664   3.294  0.8616  0.4679 -1.3068
  885MOL0     C19347   8.507   7.573   3.224  0.3738 -0.8489  0.0280
  885MOL0     O19348   8.366   7.587   3.199 -0.0434 -0.0041  0.2484
  885MOL0     C19349   8.298   7.707   3.238  0.1315  0.5018 -0.3173
  885MOL0     C19350   8.145   7.681   3.237  0.6341 -0.4093  0.2896
  885MOL0     C19351   8.080   7.672   3.099  0.6233  0.0251 -0.4031
  885MOL0     C19352   7.935   7.720   3.109  0.1258  0.2457  0.3868
  885MOL0     C19353   7.847   7.703   2.984 -0.3792  0.0277  0.0843
  885MOL0     C19354   7.695   7.709   3.007  0.6892  0.9938  0.6925
  885MOL0     C19355   7.622   7.647   2.877  0.4099 -0.0480 -0.3844
  885MOL0     C19356   7.461   7.669   2.891 -0.2472 -0.3079 -0.8344
  885MOL0     N19357   7.409   7.643   3.026  1.0644 -0.3762  0.4643
  885MOL0     C19358   7.381   7.724   3.137  0.6331  0.1725 -0.8078
  885MOL0     C19359   7.288   7.659   3.213  0.3933  0.2465 -0.1562
  885MOL0     C19360   7.215   7.715   3.335 -0.0164 -0.4030 -0.6887
  885MOL0     C19361   7.311   7.690   3.450  0.1750  0.1857  0.6060
  885MOL0     C19362   7.260   7.754   3.590 -0.7089  0.7237  0.1945
  885MOL0     C19363   7.363   7.758   3.697 -0.7935  0.3792  0.5485
  885MOL0     O19364   7.463   7.860   3.658  0.7483  0.1403 -0.0794
  885MOL0     C19365   7.545   7.899   3.760 -1.3399 -0.7072 -0.3689
  885MOL0     C19366   7.583   7.816   3.865 -0.3791  0.1764 -0.2463
  885MOL0     C19367   7.684   7.852   3.963  0.0432 -0.0120 -0.5564
  885MOL0     C19368   7.752   7.980   3.942 -0.6944  0.0258  0.2894
  885MOL0     C19369   7.861   8.033   4.030  0.1061 -0.3730  0.1833
  885MOL0     O19370   7.950   8.127   3.988  0.0644  0.3426 -0.5566
  885MOL0     C19371   8.016   8.203   4.085  0.6548  0.6841  0.6731
  885MOL0     C19372   8.139   8.173   4.139 -0.6738 -0.8482 -0.6852
  885MOL0     C19373   8.199   8.270   4.218  0.4010  0.1423 -0.9706
  885MOL0     C19374   8.138   8.386   4.249  0.9417  0.0814  1.2482
  885MOL0     O19375   8.214   8.482   4.307 -0.3367 -1.0975 -0.7247
  885MOL0     C19376   8.182   8.617   4.279 -0.3857 -1.1640 -0.5962
  885MOL0     C19377   8.315   8.695   4.304  0.7624 -0.0600 -0.5798
  885MOL0     C19378   8.286   8.854   4.295  0.2392 -0.1534  0.2715
  885MOL0     C19379   8.191   8.906   4.400  0.9469  0.2823  0.0462
  885MOL0     C19380   8.210   9.055   4.423 -0.7921 -0.4176 -0.8985
  885MOL0     C19381   8.082   9.137   4.460  0.2967 -0.1339 -0.6735
  885MOL0     C19382   8.114   9.285   4.473 -0.0472  0.0091  0.2833
  885MOL0     C19383   7.993   9.366   4.491 -0.1681 -0.7216 -0.7657
  885MOL0    Cl19384   8.044   9.539   4.444  0.0518  0.1022  0.1280
  885MOL0     C19385   8.002   8.413   4.198 -0.3085 -0.6583  0.3447
  885MOL0     C19386   7.947   8.314   4.114  0.5159  0.1283 -0.3963
  885MOL0     O19387   7.863   7.978   4.133 -0.3205 -0.6800 -0.2543
  885MOL0     C19388   7.717   8.063   3.825  0.6945  0.0888  0.0801
  885MOL0     C19389   7.622   8.011   3.732 -0.2380 -0.2143 -0.5148
  885MOL0     N19390   7.266   7.543   3.153 -0.5751 -0.1594 -0.0562
  885MOL0     N19391   7.334   7.528   3.046  0.6658 -0.1148 -0.1619
  885MOL0     C19392   8.573   7.459   3.170  0.4342  0.5729 -0.0151
  885MOL0     C19393   8.719   7.440   3.181 -0.0292 -0.6936  0.3037
  885MOL0     C19394   9.158   7.554   3.336  0.4238  0.1496 -0.1191
  885MOL0     C19395   9.246   7.597   3.444 -0.2147 -0.5919  0.0149
  885MOL0     C19396   9.383   7.575   3.441  0.0134 -0.1704  0.3722
  885MOL0     C19397   9.441   7.525   3.317  1.2759 -1.0736 -0.4236
  885MOL0     O19398   9.572   7.527   3.306 -0.2438 -0.8217 -0.9747
  885MOL0     C19399   9.622   7.590   3.187  0.7313 -0.6713 -1.2040
  885MOL0     C19400   9.779   7.604   3.212  0.6474 -0.4995 -0.0484
  885MOL0     C19401   9.857   7.477   3.215 -0.8506 -0.0637 -0.0995
  885MOL0     C19402   9.823   7.384   3.096 -0.2042 -0.4972 -0.8980
  885MOL0     C19403   9.829   7.447   2.966 -0.4932 -0.7338  1.2250
  885MOL0     C19404   9.831   7.519   2.866  1.1054  1.0137 -0.4673
  885MOL0     C19405   9.356   7.473   3.217 -1.3262  0.9981  0.4705
  885MOL0     C19406   9.219   7.481   3.225  0.3268 -0.9008  0.0222
  885MOL0     C19407   9.141   7.430   3.111  0.8951 -0.0945  0.5786
  885MOL0     H19408   8.769   7.724   3.366 -1.8853 -1.4241  1.9050
  885MOL0     H19409   8.537   7.743   3.353  0.4057 -0.9337  0.2887
  885MOL0     H19410   8.326   7.724   3.343 -3.1250 -0.1289  0.7928
  885MOL0     H19411   8.316   7.793   3.173  2.0782  0.5782  0.2445
  885MOL0     H19412   8.133   7.772   3.297  2.5627 -0.4389  0.7644
  885MOL0     H19413   8.117   7.595   3.299 -1.0215 -0.2137 -0.1160
  885MOL0     H19414   8.081   7.566   3.072 -2.3645 -0.2883  0.3734
  885MOL0     H19415   8.140   7.733   3.031  0.8214 -0.6698 -0.8677
  885MOL0     H19416   7.882   7.665   3.187 -3.6607  1.9836 -0.6944
  885MOL0     H19417   7.938   7.827   3.134  0.4271  0.1702  0.6706
  885MOL0     H19418   7.862   7.782   2.910 -0.3564 -0.6245 -0.6114
  885MOL0     H19419   7.887   7.610   2.944  2.4974  0.3058  2.0073
  885MOL0     H19420   7.662   7.649   3.092 -1.0612  2.0847  0.8346
  885MOL0     H19421   7.659   7.811   3.027 -2.4488  0.0873  0.1809
  885MOL0     H19422   7.648   7.543   2.860 -1.7786 -0.8084  0.6214
  885MOL0     H19423   7.660   7.705   2.792  2.1477  0.2512  0.5359
  885MOL0     H19424   7.441   7.775   2.877  0.2335 -0.0589  0.3101
  885MOL0     H19425   7.402   7.615   2.816 -0.5811 -2.3509  0.7937
  885MOL0     H19426   7.419   7.825   3.148  0.2489  0.0639  2.3543
  885MOL0     H19427   7.185   7.820   3.334  0.3463 -0.2844  0.2834
  885MOL0     H19428   7.122   7.657   3.342  0.8012 -2.0694 -2.5960
  885MOL0     H19429   7.317   7.581   3.456  0.5814  0.2449  1.3832
  885MOL0     H19430   7.409   7.732   3.425  1.7306 -2.7315  1.2855
  885MOL0     H19431   7.172   7.694   3.613 -0.9208  1.4518  1.3267
  885MOL0     H19432   7.219   7.854   3.573  1.1053  1.6736  1.0435
  885MOL0     H19433   7.408   7.660   3.712  0.4393  1.1127  1.8265
  885MOL0     H19434   7.319   7.789   3.792  0.5112  3.7773  0.1606
  885MOL0     H19435   7.546   7.715   3.871  1.2111 -0.5329 -1.6076
  885MOL0     H19436   7.703   7.798   4.055  1.3508  0.4420 -0.5505
  885MOL0     H19437   8.196   8.084   4.111 -3.1616 -2.3065 -1.3606
  885MOL0     H19438   8.303   8.263   4.248  0.5606 -0.8431 -1.6786
  885MOL0     H19439   8.155   8.624   4.173  1.5900 -3.3090 -1.3390
  885MOL0     H19440   8.108   8.653   4.351 -1.0266  0.3816 -1.9688
  885MOL0     H19441   8.359   8.664   4.400  1.6751 -2.5433 -1.7115
  885MOL0     H19442   8.382   8.653   4.229 -3.1809 -1.5269 -3.6860
  885MOL0     H19443   8.382   8.904   4.309 -0.1746  1.4546 -1.9797
  885MOL0     H19444   8.248   8.878   4.195  1.6449 -0.9345 -0.4830
  885MOL0     H19445   8.198   8.845   4.491  4.1602  1.5077  0.7426
  885MOL0     H19446   8.085   8.892   4.376  0.1283 -1.9126  4.0192
  885MOL0     H19447   8.256   9.101   4.336  2.4048 -1.0937  0.2994
  885MOL0     H19448   8.276   9.063   4.510  1.3341 -2.2250 -2.2541
  885MOL0     H19449   8.017   9.118   4.374 -1.3858 -2.6526  1.0109
  885MOL0     H19450   8.020   9.095   4.540  0.3068  0.4713 -0.3437
  885MOL0     H19451   8.156   9.308   4.375 -0.7803 -0.7425 -0.2213
  885MOL0     H19452   8.191   9.303   4.549 -1.3491 -1.3629  2.0257
  885MOL0     H19453   7.913   9.336   4.423 -1.7617  3.1384 -0.8047
  885MOL0     H19454   7.960   9.358   4.595 -0.5806 -3.9906 -1.0415
  885MOL0     H19455   7.961   8.512   4.210 -0.7851 -0.9163  0.9202
  885MOL0     H19456   7.850   8.340   4.072  0.1971  1.1007  0.8731
  885MOL0     H19457   7.761   8.160   3.804  1.3482 -0.5047 -1.3517
  885MOL0     H19458   7.592   8.074   3.649 -1.0746  2.6879  1.8157
  885MOL0     H19459   8.506   7.392   3.118 -2.3916  3.5610 -0.5226
  885MOL0     H19460   8.765   7.353   3.135  0.9968  0.0723 -0.1874
  885MOL0     H19461   9.197   7.645   3.529 -0.2515 -3.7014  1.9201
  885MOL0     H19462   9.444   7.598   3.528 -0.1148 -1.7685  0.9129
  885MOL0     H19463   9.572   7.686   3.169 -1.8045 -1.3931  1.2447
  885MOL0     H19464   9.596   7.522   3.105  1.2258 -2.3054 -0.0629
  885MOL0     H19465   9.789   7.670   3.299 -1.3671  1.8612 -1.4681
  885MOL0     H19466   9.811   7.666   3.129 -1.7588  0.6506 -0.2117
  885MOL0     H19467   9.845   7.424   3.309 -3.2824  1.0867  0.3281
  885MOL0     H19468   9.960   7.514   3.210 -1.7968  3.2850  1.7975
  885MOL0     H19469   9.888   7.296   3.088  0.4387 -0.1363  0.2701
  885MOL0     H19470   9.723   7.343   3.112 -0.1843 -0.2387 -0.0670
  885MOL0     H19471   9.859   7.583   2.784  1.9608 -0.7087 -1.5876
  885MOL0     H19472   9.407   7.445   3.126 -0.3931  0.5298  1.1247
  885MOL0     H19473   9.197   7.385   3.028  0.7869 -0.1043  0.5103
  885MOL0     H19474   9.062   7.359   3.138  1.5522 -0.7208  0.8841
  885MOL0     H19475   9.099   7.516   3.058  3.7505  2.0964  1.6293
  886MOL0     O19476   1.127   6.302   2.274 -0.0977  0.2636 -0.8200
  886MOL0     C19477   1.248   6.300   2.296  0.0529 -0.0641 -0.3257
  886MOL0     O19478   1.306   6.211   2.374 -0.3873 -0.1632  0.0671
  886MOL0     C19479   1.254   6.127   2.471  0.1926 -0.3963 -0.0219
  886MOL0     C19480   1.123   6.137   2.522  0.3249  0.2949 -0.4247
  886MOL0     C19481   1.088   6.066   2.635  1.0850  1.0209  0.5649
  886MOL0     C19482   1.180   5.979   2.697  0.5570 -0.4744  0.5123
  886MOL0     O19483   1.150   5.910   2.814  0.1840 -0.2199 -0.6700
  886MOL0     C19484   1.103   5.771   2.784 -0.2825  0.2458  0.1052
  886MOL0     C19485   1.084   5.689   2.911  0.4804 -0.2245 -0.5123
  886MOL0     C19486   1.001   5.760   3.006  0.3917  0.5783  0.5097
  886MOL0     C19487   0.968   5.674   3.133  0.2660 -0.9570 -1.0002
  886MOL0     C19488   0.884   5.550   3.104  0.2203  0.3840 -1.7331
  886MOL0     C19489   0.851   5.472   3.237  0.0618  0.5096 -0.7118
  886MOL0     C19490   0.971   5.426   3.319  0.7264  1.7848  0.3406
  886MOL0     C19491   1.016   5.282   3.275  0.0758 -0.6653  0.3609
  886MOL0     N19492   1.071   5.263   3.144 -0.7069  0.4555 -0.3411
  886MOL0     C19493   1.168   5.335   3.083  0.3755  0.3647 -0.2442
  886MOL0     C19494   1.199   5.274   2.968  0.0487  0.8150  1.2833
  886MOL0     C19495   1.318   5.299   2.874 -0.5485  0.0184  0.0730
  886MOL0     C19496   1.449   5.312   2.956  0.5001 -0.1059 -0.6050
  886MOL0     C19497   1.567   5.359   2.878 -0.7536 -0.0674  0.8580
  886MOL0     C19498   1.571   5.512   2.840 -0.1125 -0.5639 -0.9331
  886MOL0     O19499   1.509   5.604   2.934  0.2209 -0.2038  0.4834
  886MOL0     C19500   1.527   5.740   2.909 -0.1243  0.2575 -0.2784
  886MOL0     C19501   1.634   5.789   2.835  0.2885 -0.0992  0.5026
  886MOL0     C19502   1.654   5.928   2.822 -0.3707 -0.1385  0.5061
  886MOL0     C19503   1.565   6.014   2.881 -0.3698  0.2903  0.4462
  886MOL0     C19504   1.569   6.160   2.852 -0.2165 -0.4745 -0.2363
  886MOL0     O19505   1.623   6.193   2.732 -0.4326  0.1925 -0.4111
  886MOL0     C19506   1.624   6.327   2.698 -0.3952  0.9561 -0.0324
  886MOL0     C19507   1.666   6.438   2.776 -0.0933  0.8150  0.5196
  886MOL0     C19508   1.640   6.569   2.732  0.7989 -0.4665  0.6584
  886MOL0     C19509   1.583   6.599   2.606 -0.0658  0.4254 -0.5497
  886MOL0     O19510   1.575   6.727   2.574 -0.4007 -0.3760  0.4683
  886MOL0     C19511   1.484   6.773   2.469  0.5058  0.6880  0.6458
  886MOL0     C19512   1.427   6.918   2.492 -0.3977  0.5305 -0.0479
  886MOL0     C19513   1.325   6.959   2.385  0.1134  0.1982 -0.2699
  886MOL0     C19514   1.184   6.914   2.418  0.6580  0.4484  0.2293
  886MOL0     C19515   1.073   6.980   2.322  0.7429 -0.2631 -0.8514
  886MOL0     C19516   1.091   6.939   2.176  0.1703  0.2926 -0.4134
  886MOL0     C19517   1.016   7.022   2.068 -0.7474  0.1506  0.2479
  886MOL0     C19518   0.873   7.054   2.105 -0.0754  0.0015 -0.3932
  886MOL0    Cl19519   0.770   6.915   2.099  0.3640  0.3974 -0.1317
  886MOL0     C19520   1.556   6.484   2.522  0.6898  0.2948  0.1092
  886MOL0     C19521   1.571   6.354   2.576  0.2214 -0.0719  0.6319
  886MOL0     O19522   1.525   6.238   2.940 -0.3321  0.1152  0.4594
  886MOL0     C19523   1.454   5.965   2.958 -0.2951 -0.1128  0.7579
  886MOL0     C19524   1.439   5.826   2.968 -0.7251  0.0068  0.7015
  886MOL0     N19525   1.134   5.156   2.968  0.6341  0.1041  1.6004
  886MOL0     N19526   1.051   5.151   3.070  0.0208  0.3774  0.0097
  886MOL0     C19527   1.310   5.971   2.652  0.1055 -0.0782  0.2131
  886MOL0     C19528   1.347   6.048   2.539 -1.5436  0.0736  0.8970
  886MOL0     C19529   1.331   6.398   2.219  0.1093  0.3922  0.8574
  886MOL0     C19530   1.271   6.523   2.192 -1.0642 -0.3482  1.0154
  886MOL0     C19531   1.331   6.608   2.092  0.3332  0.0196  0.2669
  886MOL0     C19532   1.454   6.591   2.043 -0.8759  0.6360 -0.2020
  886MOL0     O19533   1.504   6.688   1.958 -0.5432 -1.1716 -0.8399
  886MOL0     C19534   1.638   6.687   1.912  0.5204  0.4796 -0.0597
  886MOL0     C19535   1.637   6.589   1.793 -0.8819  0.3128  0.5314
  886MOL0     C19536   1.765   6.601   1.711  0.2765  0.1092  0.1404
  886MOL0     C19537   1.902   6.577   1.789  0.4479 -0.1976  0.0903
  886MOL0     C19538   1.893   6.446   1.849  0.1227 -0.3703  0.1656
  886MOL0     C19539   1.875   6.343   1.909 -0.7215  0.3162 -0.1523
  886MOL0     C19540   1.513   6.466   2.081  0.4350  0.5395  1.1052
  886MOL0     C19541   1.457   6.379   2.165 -0.2791 -0.0190 -0.4874
  886MOL0     C19542   1.539   6.245   2.192 -0.1784 -0.4701 -0.3243
  886MOL0     H19543   1.050   6.204   2.479 -0.8926  1.4403  3.1146
  886MOL0     H19544   0.984   6.075   2.666  0.4780  2.1065 -1.6060
  886MOL0     H19545   1.006   5.778   2.733  0.1358  4.0289 -0.4532
  886MOL0     H19546   1.181   5.720   2.726  1.3412  1.1126  1.4349
  886MOL0     H19547   1.178   5.664   2.961  0.2811 -1.9639 -0.9345
  886MOL0     H19548   1.053   5.588   2.882  1.3952 -1.1863  1.6063
  886MOL0     H19549   0.910   5.791   2.955  1.0002 -0.0121 -1.0049
  886MOL0     H19550   1.055   5.853   3.027  1.4164  0.3678 -1.0340
  886MOL0     H19551   1.065   5.651   3.177  0.0801  2.8903  2.0396
  886MOL0     H19552   0.929   5.739   3.213  4.9338  2.7316 -1.2963
  886MOL0     H19553   0.796   5.585   3.050 -0.3619 -2.1784 -2.6120
  886MOL0     H19554   0.935   5.486   3.030  1.1124 -2.4889  1.1414
  886MOL0     H19555   0.796   5.543   3.300  1.1526 -0.4215  1.4166
  886MOL0     H19556   0.783   5.390   3.211 -0.3157 -0.4706  2.8324
  886MOL0     H19557   0.944   5.407   3.423  0.8486  1.0155  0.2386
  886MOL0     H19558   1.061   5.488   3.312  2.1652 -0.1123  1.0135
  886MOL0     H19559   1.093   5.250   3.346  0.2179 -0.2993  0.3758
  886MOL0     H19560   0.930   5.221   3.302 -0.4112  0.6199  1.8720
  886MOL0     H19561   1.224   5.418   3.126  0.6294  0.4029 -0.6419
  886MOL0     H19562   1.338   5.218   2.803 -0.1340 -0.0782  0.2996
  886MOL0     H19563   1.291   5.387   2.816 -1.7604 -1.1187 -1.1519
  886MOL0     H19564   1.425   5.381   3.037  0.5350  1.8807 -2.2182
  886MOL0     H19565   1.476   5.214   2.996  3.2300  0.8949  0.2628
  886MOL0     H19566   1.569   5.295   2.790 -0.9717 -0.1710  0.9293
  886MOL0     H19567   1.646   5.334   2.950  1.0728  2.2269 -0.1983
  886MOL0     H19568   1.544   5.530   2.736  0.9760 -0.5658 -1.2225
  886MOL0     H19569   1.678   5.531   2.846 -0.0383 -0.1527 -2.8343
  886MOL0     H19570   1.695   5.740   2.760 -1.7348  2.3509 -3.0711
  886MOL0     H19571   1.729   5.973   2.758  0.0285  1.1469  1.8034
  886MOL0     H19572   1.717   6.436   2.872 -0.9149  1.5611  0.9887
  886MOL0     H19573   1.662   6.653   2.798  0.3924 -0.9037  1.3612
  886MOL0     H19574   1.529   6.757   2.370  2.7849  0.0862  1.7173
  886MOL0     H19575   1.396   6.708   2.479  0.0607  0.8943 -1.4552
  886MOL0     H19576   1.387   6.920   2.594  0.9350 -3.9011  0.7648
  886MOL0     H19577   1.501   6.997   2.508 -0.8637  0.5090  2.6528
  886MOL0     H19578   1.331   7.068   2.374  0.3870  0.2131  0.0044
  886MOL0     H19579   1.358   6.921   2.288  0.1974  0.7667 -0.4700
  886MOL0     H19580   1.164   6.950   2.519  1.2037 -0.8792  0.8237
  886MOL0     H19581   1.173   6.806   2.414 -1.2095  0.6239 -3.1040
  886MOL0     H19582   1.085   7.088   2.328  2.5971 -0.5227  2.3956
  886MOL0     H19583   0.974   6.959   2.365  1.0022 -1.2762 -0.7269
  886MOL0     H19584   1.195   6.945   2.142 -0.4255  1.5886 -2.1761
  886MOL0     H19585   1.051   6.837   2.172 -3.2856  1.5378 -0.6016
  886MOL0     H19586   1.012   6.958   1.980 -3.4245  0.8888 -0.2592
  886MOL0     H19587   1.072   7.116   2.066  1.0919 -0.8521  1.4476
  886MOL0     H19588   0.872   7.099   2.204  1.4680  2.2982 -1.3323
  886MOL0     H19589   0.840   7.126   2.029  2.9044  3.6844  1.4903
  886MOL0     H19590   1.502   6.508   2.431 -2.1728 -1.9989  1.0895
  886MOL0     H19591   1.532   6.268   2.522 -1.3731  1.2603 -0.4553
  886MOL0     H19592   1.379   6.040   2.981 -1.4101  0.1418 -3.0881
  886MOL0     H19593   1.367   5.787   3.040 -2.9824  2.8240  0.1643
  886MOL0     H19594   1.393   5.915   2.694 -0.7252 -0.2133  1.7798
  886MOL0     H19595   1.441   6.056   2.486 -1.3939 -2.8613  0.5677
  886MOL0     H19596   1.175   6.559   2.228 -0.6961  0.9348  0.7738
  886MOL0     H19597   1.275   6.695   2.059  0.8305 -0.2359 -1.3311
  886MOL0     H19598   1.709   6.646   1.984  0.5285 -0.7464 -0.7363
  886MOL0     H19599   1.667   6.784   1.872 -0.1584  0.7849  0.1691
  886MOL0     H19600   1.546   6.612   1.737  0.2075  4.5389  0.1644
  886MOL0     H19601   1.628   6.485   1.824  1.1585 -0.7377 -2.0844
  886MOL0     H19602   1.767   6.699   1.662 -0.5657 -0.1464 -0.4147
  886MOL0     H19603   1.753   6.526   1.633 -2.5492 -2.7656  3.0490
  886MOL0     H19604   1.981   6.569   1.713 -1.3929  0.8735 -2.0243
  886MOL0     H19605   1.926   6.652   1.864 -0.1433  0.6545 -0.5599
  886MOL0     H19606   1.858   6.260   1.974 -1.4116  1.2147  0.8562
  886MOL0     H19607   1.616   6.451   2.049 -0.3160  0.8166 -1.6302
  886MOL0     H19608   1.630   6.248   2.132  0.2045  1.6309  0.2766
  886MOL0     H19609   1.563   6.245   2.299 -0.8238 -1.3060 -0.1661
  886MOL0     H19610   1.479   6.155   2.175  1.1676 -1.3467 -0.5425
  887MOL0     O19611   4.903   0.601   0.491  0.6754  0.6663 -0.0352
  887MOL0     C19612   4.847   0.691   0.423 -0.4658  0.4367  0.1906
  887MOL0     O19613   4.861   0.832   0.444  0.6022  0.8549 -0.4216
  887MOL0     C19614   4.943   0.883   0.548  0.1814  0.5772 -0.4828
  887MOL0     C19615   4.976   1.020   0.529 -0.0201  0.3208  0.5449
  887MOL0     C19616   5.066   1.089   0.598  0.5432 -0.1392  0.6154
  887MOL0     C19617   5.120   1.029   0.715 -0.1127  0.5990  1.7476
  887MOL0     O19618   5.205   1.101   0.794 -0.6880  0.2087  0.3039
  887MOL0     C19619   5.291   1.031   0.882 -0.2436  0.8631 -0.8163
  887MOL0     C19620   5.402   1.126   0.925 -0.1082  0.3625 -1.4136
  887MOL0     C19621   5.487   1.062   1.040  0.2933  0.4639  0.3177
  887MOL0     C19622   5.586   1.164   1.097 -0.3173 -0.3491  0.0454
  887MOL0     C19623   5.727   1.108   1.145  0.6234  0.5694  0.6179
  887MOL0     C19624   5.827   1.051   1.033 -0.8337  0.0243 -0.3642
  887MOL0     C19625   5.969   1.012   1.106  1.1518 -0.2759 -0.2220
  887MOL0     C19626   6.051   0.940   1.010 -1.5545 -0.0489  0.6241
  887MOL0     N19627   6.177   0.926   1.075 -0.4073  0.1399  0.3191
  887MOL0     C19628   6.217   0.834   1.168  0.2497  0.4400  0.0119
  887MOL0     C19629   6.342   0.862   1.203  0.6363 -0.3305 -0.4726
  887MOL0     C19630   6.423   0.766   1.277 -0.9141  0.3492 -1.0697
  887MOL0     C19631   6.574   0.803   1.278  0.0781  0.0569  0.4727
  887MOL0     C19632   6.663   0.697   1.346 -1.0830  0.1097  0.7893
  887MOL0     C19633   6.814   0.712   1.299  0.5920  0.8321 -0.2991
  887MOL0     O19634   6.832   0.847   1.258 -0.3251  0.3839 -0.1604
  887MOL0     C19635   6.948   0.904   1.199 -0.3256 -0.3197 -0.2873
  887MOL0     C19636   7.073   0.849   1.216  0.5644 -0.0130 -0.4449
  887MOL0     C19637   7.191   0.923   1.179 -0.1696  0.8597  0.6037
  887MOL0     C19638   7.178   1.054   1.129  0.8687  0.7173  0.6635
  887MOL0     C19639   7.296   1.137   1.074  0.2143  0.2735 -0.6306
  887MOL0     O19640   7.273   1.266   1.040 -0.6374 -0.1008 -0.1588
  887MOL0     C19641   7.373   1.359   1.008 -0.1476  0.4134 -0.3874
  887MOL0     C19642   7.343   1.450   0.914 -0.5312  0.1616  0.2755
  887MOL0     C19643   7.431   1.553   0.882  0.0247 -0.6468  0.0512
  887MOL0     C19644   7.558   1.563   0.952 -0.7179  0.5122  0.3106
  887MOL0     O19645   7.629   1.675   0.911 -0.3601  0.6320 -0.4257
  887MOL0     C19646   7.759   1.703   0.955  0.1237 -0.1812 -0.1356
  887MOL0     C19647   7.869   1.599   0.898 -0.1656  0.0644 -0.3208
  887MOL0     C19648   7.996   1.591   0.991 -0.0837 -0.4437 -0.5612
  887MOL0     C19649   8.074   1.718   1.009 -0.3102 -0.0655 -0.1059
  887MOL0     C19650   8.163   1.745   0.888 -0.0521 -0.4727  0.5310
  887MOL0     C19651   8.251   1.872   0.889 -0.9118 -0.3233 -0.7860
  887MOL0     C19652   8.181   2.000   0.909  0.5529  0.0707  0.7454
  887MOL0     C19653   8.064   2.034   0.815  0.0189  0.0658 -0.1171
  887MOL0    Cl19654   8.026   2.209   0.801 -0.0112  0.0142  0.1588
  887MOL0     C19655   7.583   1.475   1.052 -0.6616  0.6995 -0.9799
  887MOL0     C19656   7.486   1.377   1.084  0.2973  0.4985 -1.1294
  887MOL0     O19657   7.398   1.070   1.047 -0.5783  0.0983 -0.5889
  887MOL0     C19658   7.054   1.104   1.107  0.1563  0.2500 -0.1705
  887MOL0     C19659   6.941   1.038   1.152  0.2470 -0.1483 -0.3303
  887MOL0     N19660   6.371   0.975   1.140  0.2184 -0.4569  0.4044
  887MOL0     N19661   6.276   1.022   1.065  0.3934  1.0540 -0.1148
  887MOL0     C19662   5.082   0.892   0.736 -0.1476 -0.2578  0.6598
  887MOL0     C19663   5.004   0.819   0.652  1.0349 -0.3047  0.3719
  887MOL0     C19664   4.734   0.659   0.327  0.1891 -0.8591 -0.4049
  887MOL0     C19665   4.664   0.539   0.356  0.2245 -0.5977 -0.8051
  887MOL0     C19666   4.546   0.516   0.288 -0.7865  0.9737  0.3616
  887MOL0     C19667   4.501   0.595   0.183 -0.8005  0.2050  0.3486
  887MOL0     O19668   4.387   0.561   0.125  0.5473  0.3539  0.4753
  887MOL0     C19669   4.328   0.638   0.019  0.2562  0.8910  0.5112
  887MOL0     C19670   4.397   0.592  -0.112 -0.4706 -0.0991 -0.1655
  887MOL0     C19671   4.380   0.445  -0.141 -0.5531  0.3946  0.0380
  887MOL0     C19672   4.240   0.388  -0.145 -0.2335  0.0636 -0.8536
  887MOL0     C19673   4.250   0.249  -0.178  0.2274 -1.1554 -1.1614
  887MOL0     C19674   4.266   0.134  -0.213  0.0158 -0.3190  1.3408
  887MOL0     C19675   4.577   0.714   0.153 -0.2158  0.0256  0.7527
  887MOL0     C19676   4.695   0.746   0.223  0.4768 -0.1982  0.5124
  887MOL0     C19677   4.778   0.855   0.158 -0.6615 -0.4115  0.5831
  887MOL0     H19678   4.925   1.073   0.449  1.1430 -2.9477 -2.6684
  887MOL0     H19679   5.089   1.184   0.550  2.5752 -0.8571  0.0300
  887MOL0     H19680   5.231   0.999   0.968  1.9660 -5.4380 -1.1610
  887MOL0     H19681   5.331   0.939   0.839 -3.8178 -0.8573 -0.7975
  887MOL0     H19682   5.348   1.214   0.960 -1.2176  0.3698 -3.0614
  887MOL0     H19683   5.466   1.136   0.837  1.8269 -2.0421 -0.4129
  887MOL0     H19684   5.548   0.983   0.995 -0.7629 -0.5704  0.6475
  887MOL0     H19685   5.425   1.013   1.116 -2.9757  1.3484 -1.6284
  887MOL0     H19686   5.595   1.254   1.035  1.1363 -0.5554 -0.0657
  887MOL0     H19687   5.539   1.205   1.187 -0.8558 -2.3078  0.7200
  887MOL0     H19688   5.779   1.191   1.196  1.4630 -0.2043  1.0627
  887MOL0     H19689   5.720   1.028   1.219  1.0245  1.5869  1.7955
  887MOL0     H19690   5.779   0.965   0.985  0.0561 -0.9640  0.4557
  887MOL0     H19691   5.829   1.137   0.966  1.9996  0.3098 -0.0367
  887MOL0     H19692   5.953   0.955   1.199 -1.2610 -0.0206 -0.4146
  887MOL0     H19693   6.011   1.108   1.136 -3.3889  2.4626 -1.7529
  887MOL0     H19694   6.013   0.838   1.002  1.1052 -1.0446 -0.2936
  887MOL0     H19695   6.057   0.984   0.910 -0.7034 -0.8078  0.3280
  887MOL0     H19696   6.155   0.747   1.188  0.7707  0.0991  0.1838
  887MOL0     H19697   6.397   0.760   1.383 -1.6664  1.1012 -1.2063
  887MOL0     H19698   6.405   0.666   1.236  0.0832  0.5331 -1.9858
  887MOL0     H19699   6.601   0.798   1.172 -4.3603 -2.2832 -0.7909
  887MOL0     H19700   6.592   0.905   1.313  2.4320  0.2455 -1.0594
  887MOL0     H19701   6.633   0.593   1.325 -1.2110 -0.4116  3.1760
  887MOL0     H19702   6.671   0.717   1.454  2.2522 -0.1255  0.6818
  887MOL0     H19703   6.832   0.651   1.210  1.4038  2.3933 -1.2643
  887MOL0     H19704   6.867   0.692   1.392 -1.0972  1.5682  0.8814
  887MOL0     H19705   7.076   0.746   1.251  0.5256 -0.2208 -1.0322
  887MOL0     H19706   7.288   0.876   1.189 -1.3924 -2.4576 -1.4118
  887MOL0     H19707   7.245   1.456   0.867 -0.2495 -2.0456 -0.7400
  887MOL0     H19708   7.399   1.626   0.808  0.4521  0.3028  0.7895
  887MOL0     H19709   7.777   1.806   0.923  0.6961 -0.6543 -1.3948
  887MOL0     H19710   7.765   1.701   1.064  2.5378  1.1245 -0.1680
  887MOL0     H19711   7.814   1.505   0.889 -0.2874  0.3551 -3.3765
  887MOL0     H19712   7.904   1.619   0.796 -2.7878  2.9934 -0.8000
  887MOL0     H19713   7.953   1.559   1.087 -0.4913  2.1189  0.1933
  887MOL0     H19714   8.070   1.524   0.947  0.2863  1.2067 -2.6026
  887MOL0     H19715   8.146   1.701   1.089  0.9454 -0.3952 -1.2707
  887MOL0     H19716   8.013   1.802   1.043  0.5498  1.2563 -1.6770
  887MOL0     H19717   8.100   1.756   0.799  0.6012 -0.8451  0.0204
  887MOL0     H19718   8.222   1.654   0.877 -0.3436 -1.0817  3.2322
  887MOL0     H19719   8.327   1.864   0.968  0.2053  3.0974 -1.3609
  887MOL0     H19720   8.309   1.880   0.797  1.4381  1.5985  0.7339
  887MOL0     H19721   8.243   2.090   0.914  0.5730  0.0358  1.1542
  887MOL0     H19722   8.142   2.022   1.009 -2.2926  2.2243 -0.6394
  887MOL0     H19723   8.101   2.000   0.717 -3.1812 -1.5050 -0.9215
  887MOL0     H19724   7.983   1.977   0.860  1.0957 -0.2094  1.5373
  887MOL0     H19725   7.673   1.494   1.110 -1.0654  0.2059 -0.1703
  887MOL0     H19726   7.509   1.295   1.150 -0.1393  0.5514 -0.9071
  887MOL0     H19727   7.039   1.200   1.058 -1.0375 -0.8820 -2.1324
  887MOL0     H19728   6.846   1.089   1.144  1.2885  1.8104 -0.9598
  887MOL0     H19729   5.118   0.829   0.818 -3.3449 -2.1004  0.8006
  887MOL0     H19730   4.987   0.712   0.660 -1.2653 -0.2671 -2.5012
  887MOL0     H19731   4.698   0.481   0.442 -1.4205  1.6199  1.4966
  887MOL0     H19732   4.509   0.417   0.310  1.7911  0.2624  1.9860
  887MOL0     H19733   4.332   0.746   0.039 -1.8435  0.4846  4.0481
  887MOL0     H19734   4.221   0.616   0.012  0.4949  0.0139 -0.6340
  887MOL0     H19735   4.502   0.623  -0.114  0.4740 -2.9669 -1.6482
  887MOL0     H19736   4.346   0.644  -0.194 -1.7355  0.9318  1.2219
  887MOL0     H19737   4.427   0.376  -0.070  0.8756  0.0852 -1.1676
  887MOL0     H19738   4.422   0.423  -0.240 -1.3366 -0.8660 -0.0386
  887MOL0     H19739   4.206   0.411  -0.044  1.7114 -1.1071  0.1453
  887MOL0     H19740   4.182   0.442  -0.220  0.9783 -0.1977 -2.0139
  887MOL0     H19741   4.288   0.035  -0.247 -0.9315 -0.5765  1.4554
  887MOL0     H19742   4.548   0.775   0.067 -1.1510 -2.3479 -0.7460
  887MOL0     H19743   4.778   0.851   0.049  0.6396  1.1616  0.4851
  887MOL0     H19744   4.742   0.955   0.182 -2.5756 -0.7245 -0.8044
  887MOL0     H19745   4.881   0.839   0.194 -0.3899  1.7481  0.8907
  888MOL0     O19746   6.751   6.121   5.629  0.1424 -0.7220  0.1579
  888MOL0     C19747   6.632   6.090   5.640 -0.2237  0.2930 -0.6761
  888MOL0     O19748   6.586   6.000   5.742 -0.0753 -0.3071 -0.6524
  888MOL0     C19749   6.685   5.963   5.834  0.8414 -1.2795  0.6959
  888MOL0     C19750   6.747   5.833   5.824  0.3312 -0.1878 -0.1741
  888MOL0     C19751   6.842   5.793   5.918  0.3285  0.2265  0.2385
  888MOL0     C19752   6.884   5.887   6.014 -0.4397 -0.1897  0.2076
  888MOL0     O19753   6.995   5.872   6.092 -0.2738  0.1327  0.6016
  888MOL0     C19754   7.088   5.762   6.092 -0.1458  0.3205 -0.4643
  888MOL0     C19755   7.213   5.800   6.151  0.2807  0.0635  0.4776
  888MOL0     C19756   7.308   5.673   6.156 -0.3220 -0.4439  0.7117
  888MOL0     C19757   7.428   5.679   6.057  0.3199  0.4057 -0.8972
  888MOL0     C19758   7.517   5.553   6.075  0.2618 -0.1669 -1.2077
  888MOL0     C19759   7.630   5.536   5.970 -0.0293  0.1921 -0.9722
  888MOL0     C19760   7.756   5.622   5.995 -0.5071 -0.6842  0.5278
  888MOL0     C19761   7.876   5.557   5.924 -0.5926  0.3891  0.7636
  888MOL0     N19762   7.894   5.581   5.784 -0.7318 -0.5653  0.0436
  888MOL0     C19763   7.830   5.536   5.674  0.0936  0.4113  0.0029
  888MOL0     C19764   7.891   5.601   5.564  0.0215  1.0231  0.4930
  888MOL0     C19765   7.838   5.588   5.424 -0.2601 -0.0748  0.1927
  888MOL0     C19766   7.923   5.676   5.323  0.5250  0.3677  0.0170
  888MOL0     C19767   8.058   5.614   5.277  0.2543 -0.4353 -0.2839
  888MOL0     C19768   8.037   5.547   5.139 -0.0380 -0.5160  0.6564
  888MOL0     O19769   8.014   5.652   5.038  0.3023  0.8068 -0.3575
  888MOL0     C19770   7.898   5.656   4.964 -0.3283 -0.2469 -0.0055
  888MOL0     C19771   7.795   5.554   4.961 -0.0831 -0.0543 -0.5667
  888MOL0     C19772   7.678   5.581   4.888  0.0956 -0.6587  0.2615
  888MOL0     C19773   7.663   5.696   4.812  0.5277  0.1750  0.1139
  888MOL0     C19774   7.541   5.743   4.743 -1.0765  0.0238 -0.1621
  888MOL0     O19775   7.553   5.866   4.690 -0.2673  0.0170 -0.0943
  888MOL0     C19776   7.451   5.922   4.636  0.1485 -0.7942  0.5915
  888MOL0     C19777   7.389   5.864   4.527  0.1543  0.6525  0.1403
  888MOL0     C19778   7.273   5.917   4.470 -0.1230 -0.5197  0.1668
  888MOL0     C19779   7.217   6.044   4.505  0.3129  0.5695 -0.3181
  888MOL0     O19780   7.107   6.097   4.437 -0.0237  0.0319 -0.2303
  888MOL0     C19781   7.030   6.199   4.506 -0.7126  0.4031  0.3651
  888MOL0     C19782   6.913   6.222   4.416  0.1807  0.0755  0.7221
  888MOL0     C19783   6.843   6.352   4.459  0.3026  0.0064 -0.0013
  888MOL0     C19784   6.743   6.417   4.364  0.2553  0.8420 -0.5823
  888MOL0     C19785   6.786   6.440   4.219 -0.1561 -0.0027 -0.2923
  888MOL0     C19786   6.898   6.549   4.214 -0.4294 -0.1323 -1.1296
  888MOL0     C19787   6.940   6.579   4.073  0.0644  0.5335 -1.2776
  888MOL0     C19788   7.056   6.687   4.071  0.3908 -1.1695  0.1128
  888MOL0    Cl19789   7.220   6.604   4.041 -0.6238 -0.9218 -0.0460
  888MOL0     C19790   7.282   6.098   4.622  0.2335 -0.9601  0.3798
  888MOL0     C19791   7.397   6.043   4.679  0.0242  0.5380 -0.0354
  888MOL0     O19792   7.440   5.667   4.738  0.3994 -0.9111  0.4737
  888MOL0     C19793   7.766   5.792   4.829  0.0963 -0.3665 -0.2520
  888MOL0     C19794   7.881   5.778   4.901  0.3481 -0.4244 -0.3849
  888MOL0     N19795   7.996   5.671   5.614 -0.6476  0.2739  0.7072
  888MOL0     N19796   7.999   5.659   5.744 -0.6932  0.9876  0.6585
  888MOL0     C19797   6.814   6.002   6.017 -0.5410  0.5945 -0.1954
  888MOL0     C19798   6.714   6.045   5.934  0.5227  0.0548 -1.3965
  888MOL0     C19799   6.541   6.132   5.535  1.0536 -0.6553 -0.3185
  888MOL0     C19800   6.410   6.067   5.531  0.5537  0.3814 -0.2357
  888MOL0     C19801   6.314   6.101   5.440 -0.6499  0.3420  0.1613
  888MOL0     C19802   6.338   6.205   5.349  0.0203 -0.7192 -0.9209
  888MOL0     O19803   6.243   6.240   5.257 -0.8592 -0.9656  0.1993
  888MOL0     C19804   6.147   6.327   5.316  0.2425  0.0897 -1.3683
  888MOL0     C19805   6.162   6.476   5.287  0.2903  0.3342  0.3478
  888MOL0     C19806   6.229   6.511   5.146  1.1235  0.1843 -0.4237
  888MOL0     C19807   6.199   6.660   5.112  0.0734  0.1773 -0.3039
  888MOL0     C19808   6.240   6.697   4.975 -0.1902 -0.1145 -0.4148
  888MOL0     C19809   6.279   6.744   4.864 -0.3784 -0.4997  0.1854
  888MOL0     C19810   6.467   6.277   5.350 -0.0106  0.2876 -0.3109
  888MOL0     C19811   6.569   6.240   5.440  0.3271  0.6777 -0.9911
  888MOL0     C19812   6.695   6.327   5.425  0.2160  0.2673 -0.1207
  888MOL0     H19813   6.717   5.757   5.752  0.5332 -1.0267  0.6009
  888MOL0     H19814   6.883   5.694   5.902 -1.5893 -0.7795  1.2071
  888MOL0     H19815   7.044   5.692   6.163 -0.4954  0.8730 -0.1321
  888MOL0     H19816   7.108   5.732   5.988 -1.2541 -0.3278 -0.5106
  888MOL0     H19817   7.199   5.849   6.248 -0.3388  1.6928 -0.3889
  888MOL0     H19818   7.261   5.871   6.083  1.6344 -1.7468 -0.5291
  888MOL0     H19819   7.249   5.582   6.143 -1.3707 -0.0516  2.3755
  888MOL0     H19820   7.345   5.662   6.258  0.5978 -1.3769  0.2939
  888MOL0     H19821   7.380   5.693   5.959  2.5103 -1.1674 -2.2780
  888MOL0     H19822   7.486   5.770   6.067  2.9769 -0.7846 -3.7536
  888MOL0     H19823   7.563   5.554   6.174 -0.1785 -2.9932 -0.9001
  888MOL0     H19824   7.450   5.467   6.083  1.2299 -0.8513 -0.1374
  888MOL0     H19825   7.652   5.429   5.967  0.6501  0.0998  2.6984
  888MOL0     H19826   7.594   5.567   5.871  0.9846  4.3311 -0.2452
  888MOL0     H19827   7.775   5.614   6.102  1.1786  1.1854  0.4203
  888MOL0     H19828   7.748   5.725   5.959 -2.4990 -1.7692 -2.5500
  888MOL0     H19829   7.969   5.587   5.973  0.5687  0.1920 -1.2119
  888MOL0     H19830   7.879   5.449   5.938  0.0875  0.4152  0.8829
  888MOL0     H19831   7.741   5.474   5.671  0.7216 -0.4734 -1.1811
  888MOL0     H19832   7.823   5.484   5.393 -0.4642  0.4307 -1.5146
  888MOL0     H19833   7.735   5.626   5.428 -0.6851 -1.3157  2.1129
  888MOL0     H19834   7.867   5.712   5.236  2.1772  0.1972 -1.1501
  888MOL0     H19835   7.952   5.774   5.362  0.2399  1.5203 -2.4966
  888MOL0     H19836   8.095   5.538   5.346  2.4885  1.9962  1.4094
  888MOL0     H19837   8.139   5.688   5.270 -0.5494  0.7533  1.8575
  888MOL0     H19838   7.955   5.476   5.130 -1.5097  1.2724 -1.0559
  888MOL0     H19839   8.125   5.493   5.102 -1.3644 -0.7757 -2.4819
  888MOL0     H19840   7.794   5.461   5.018 -1.9347  0.7250  0.7942
  888MOL0     H19841   7.593   5.516   4.872  0.6595 -2.2206  3.0430
  888MOL0     H19842   7.430   5.771   4.488 -1.0570 -0.3419  1.1682
  888MOL0     H19843   7.241   5.869   4.378 -1.6231  2.2549 -0.8999
  888MOL0     H19844   6.992   6.164   4.602 -1.8850 -1.9060 -0.8430
  888MOL0     H19845   7.099   6.283   4.515  0.5871 -0.5088 -0.5180
  888MOL0     H19846   6.947   6.242   4.314  0.2950  0.4372  0.8276
  888MOL0     H19847   6.838   6.143   4.415  2.1215 -1.9168 -2.0399
  888MOL0     H19848   6.780   6.343   4.549  0.5126  1.2213  0.2909
  888MOL0     H19849   6.920   6.428   4.473  0.2112  0.6875 -2.6605
  888MOL0     H19850   6.708   6.508   4.415 -0.2811 -0.3856  1.3369
  888MOL0     H19851   6.653   6.356   4.361 -0.8126  2.3645 -2.4626
  888MOL0     H19852   6.694   6.472   4.169 -0.4508  0.5882  0.6044
  888MOL0     H19853   6.820   6.346   4.173  2.1097  0.2542  0.7526
  888MOL0     H19854   6.871   6.644   4.262 -0.3970 -1.1995  1.0893
  888MOL0     H19855   6.991   6.512   4.257 -1.1579  1.6986  2.4541
  888MOL0     H19856   6.843   6.619   4.044 -1.9578 -1.9765  1.5007
  888MOL0     H19857   6.953   6.499   4.000  0.3065 -1.7883  1.1741
  888MOL0     H19858   7.043   6.764   3.995 -1.2476  1.9929  3.3178
  888MOL0     H19859   7.055   6.743   4.165  1.8665  1.5768 -1.3998
  888MOL0     H19860   7.253   6.191   4.672  2.8299 -0.0521  0.3426
  888MOL0     H19861   7.437   6.098   4.763  0.7723 -2.5330  1.7411
  888MOL0     H19862   7.749   5.895   4.800 -2.0713  0.2639  2.7269
  888MOL0     H19863   7.954   5.853   4.929 -1.7007  1.4740  0.2162
  888MOL0     H19864   6.834   6.076   6.094 -1.6006 -0.8531  1.5613
  888MOL0     H19865   6.658   6.135   5.956  0.6395 -0.4401  1.1488
  888MOL0     H19866   6.395   5.976   5.588  1.5777 -0.5002 -1.3448
  888MOL0     H19867   6.221   6.045   5.442 -0.3285 -0.2348  2.9557
  888MOL0     H19868   6.149   6.323   5.425  2.6722  2.3533 -1.2332
  888MOL0     H19869   6.046   6.294   5.290  0.5761 -1.9308 -0.2844
  888MOL0     H19870   6.232   6.526   5.355  1.6341 -0.3103 -0.5230
  888MOL0     H19871   6.061   6.514   5.304  2.1768  5.4667  2.1531
  888MOL0     H19872   6.167   6.453   5.077  0.0697  2.2098 -1.2367
  888MOL0     H19873   6.333   6.476   5.143  0.2601 -2.7356  0.3872
  888MOL0     H19874   6.093   6.686   5.120  0.0645  2.2285 -4.2673
  888MOL0     H19875   6.251   6.727   5.180  0.3203  2.7968 -2.8738
  888MOL0     H19876   6.314   6.782   4.770  1.3099 -4.4133 -0.9756
  888MOL0     H19877   6.491   6.344   5.267  1.8652 -0.0675 -0.1120
  888MOL0     H19878   6.680   6.385   5.333 -0.9335 -1.8152 -1.3284
  888MOL0     H19879   6.700   6.391   5.513 -0.8517 -0.6721  0.6450
  888MOL0     H19880   6.780   6.259   5.429 -2.1677 -2.8896  1.4392
  889MOL0     O19881   2.988  10.069   8.302  0.3859 -0.8825  0.4331
  889MOL0     C19882   3.099  10.098   8.257  0.8134 -0.4760 -0.2781
  889MOL0     O19883   3.129  10.195   8.167 -0.5901 -0.5914  0.3629
  889MOL0     C19884   3.026  10.250   8.085 -0.4791  0.6015 -0.0003
  889MOL0     C19885   2.899  10.297   8.124  0.8356 -0.0920 -0.2844
  889MOL0     C19886   2.805  10.345   8.030 -0.8284 -0.3857 -0.6554
  889MOL0     C19887   2.829  10.332   7.894 -1.2176 -0.1396 -0.1702
  889MOL0     O19888   2.725  10.380   7.816 -0.1925 -0.2306 -0.1968
  889MOL0     C19889   2.754  10.411   7.678 -0.1758 -0.4594 -0.3466
  889MOL0     C19890   2.635  10.505   7.633  0.0593  0.8921 -0.3593
  889MOL0     C19891   2.636  10.541   7.487  0.2999 -0.9664  0.2628
  889MOL0     C19892   2.537  10.656   7.468 -0.9766 -0.4985  0.0213
  889MOL0     C19893   2.539  10.712   7.327 -0.0961 -0.4986  0.8487
  889MOL0     C19894   2.442  10.841   7.302 -0.3713  1.0784  0.2748
  889MOL0     C19895   2.454  10.949   7.412  0.4124 -0.6734  0.4608
  889MOL0     C19896   2.596  11.006   7.420  0.6272 -0.1975 -0.1164
  889MOL0     N19897   2.636  11.109   7.319  0.8035  0.1049 -0.4126
  889MOL0     C19898   2.599  11.244   7.332 -0.1064 -0.1064 -0.3567
  889MOL0     C19899   2.680  11.309   7.250 -0.3177  1.1923 -0.0724
  889MOL0     C19900   2.684  11.460   7.231  0.4174  1.0795  0.4714
  889MOL0     C19901   2.585  11.509   7.126 -0.1503  1.5606 -0.0254
  889MOL0     C19902   2.625  11.489   6.984  0.1669 -0.6310 -0.4863
  889MOL0     C19903   2.528  11.575   6.895 -0.5450  0.1127  0.1187
  889MOL0     O19904   2.571  11.563   6.757  1.1734  0.1910  0.4155
  889MOL0     C19905   2.597  11.671   6.679  0.0748  0.0785 -0.7746
  889MOL0     C19906   2.617  11.807   6.723  0.4636  0.1725  0.6503
  889MOL0     C19907   2.651  11.909   6.631  0.4872 -1.0764 -0.3221
  889MOL0     C19908   2.665  11.876   6.492  0.9084  0.3306 -0.3043
  889MOL0     C19909   2.688  11.986   6.400  0.0266  0.9250 -0.1291
  889MOL0     O19910   2.725  11.957   6.274  0.2167 -0.5675 -0.5071
  889MOL0     C19911   2.748  12.061   6.192 -0.0035 -0.2292  0.5675
  889MOL0     C19912   2.854  12.153   6.223 -0.2443  0.4485  0.5182
  889MOL0     C19913   2.907  12.246   6.131 -0.0253 -1.1208 -0.5208
  889MOL0     C19914   2.839  12.265   6.011 -0.1698  0.8258  0.7803
  889MOL0     O19915   2.879  12.366   5.929 -0.1622 -0.7047  0.1497
  889MOL0     C19916   3.013  12.369   5.877  0.2503  0.0438  0.3089
  889MOL0     C19917   3.028  12.271   5.763  0.1008  0.1201 -0.1629
  889MOL0     C19918   3.171  12.284   5.712 -0.3517  0.2260 -0.1088
  889MOL0     C19919   3.272  12.199   5.787  0.3595 -0.9300 -0.0503
  889MOL0     C19920   3.412  12.210   5.722  0.3456 -0.0587  0.1090
  889MOL0     C19921   3.516  12.161   5.811  0.0724  0.6696 -0.0027
  889MOL0     C19922   3.639  12.108   5.718  0.1419 -0.2107  1.2648
  889MOL0     C19923   3.759  12.084   5.799 -0.3580  0.4937 -0.3388
  889MOL0    Cl19924   3.898  12.074   5.679  0.0127 -0.0240 -0.3236
  889MOL0     C19925   2.731  12.186   5.985 -0.5288 -0.7393  0.4976
  889MOL0     C19926   2.691  12.085   6.066 -1.1798 -0.7870 -0.7472
  889MOL0     O19927   2.663  12.100   6.443  0.1486 -0.5556  0.2300
  889MOL0     C19928   2.658  11.743   6.453 -0.5573  0.1003 -0.5240
  889MOL0     C19929   2.624  11.645   6.542 -1.2747  0.3409  0.2105
  889MOL0     N19930   2.768  11.217   7.194  0.9461 -0.5587 -0.3126
  889MOL0     N19931   2.737  11.101   7.228 -0.1968 -0.3254  0.0428
  889MOL0     C19932   2.952  10.285   7.843 -1.1570 -0.6641  0.2450
  889MOL0     C19933   3.048  10.246   7.948 -0.5050 -0.4460 -0.4636
  889MOL0     C19934   3.205  10.041   8.327  0.2981 -0.0622  1.0212
  889MOL0     C19935   3.326  10.104   8.323 -0.0437  0.0372  0.6979
  889MOL0     C19936   3.441  10.046   8.369  0.4492  0.5554  0.0224
  889MOL0     C19937   3.436   9.927   8.440 -0.0723  0.4231  0.4859
  889MOL0     O19938   3.556   9.889   8.516  0.6323 -0.6282  0.6520
  889MOL0     C19939   3.562   9.763   8.582  1.2246 -0.7378 -0.6062
  889MOL0     C19940   3.693   9.750   8.651 -0.5579 -0.3506 -0.7975
  889MOL0     C19941   3.709   9.609   8.718  0.0175 -1.3055 -0.7718
  889MOL0     C19942   3.763   9.624   8.870  0.0919 -0.9175  0.4405
  889MOL0     C19943   3.841   9.509   8.919 -0.5894  1.5854  1.0712
  889MOL0     C19944   3.915   9.423   8.964  0.0556  0.2217  0.8681
  889MOL0     C19945   3.316   9.867   8.457 -0.8624 -0.6098  0.0848
  889MOL0     C19946   3.196   9.914   8.402  0.4383 -1.1493 -0.1045
  889MOL0     C19947   3.070   9.837   8.433 -1.2960  0.0924  0.0075
  889MOL0     H19948   2.889  10.318   8.230  1.0859  1.5117 -0.5414
  889MOL0     H19949   2.715  10.384   8.077  1.2378  0.2157  3.2239
  889MOL0     H19950   2.843  10.473   7.664  0.4958 -1.0434  1.0383
  889MOL0     H19951   2.754  10.320   7.617  1.0504 -2.8770  2.9026
  889MOL0     H19952   2.638  10.595   7.695 -0.0305 -0.0007  0.9633
  889MOL0     H19953   2.539  10.454   7.645  1.3226 -1.3320  0.8898
  889MOL0     H19954   2.610  10.451   7.430  3.2680 -1.9524  0.2623
  889MOL0     H19955   2.735  10.569   7.449  1.2299 -0.7623  2.7035
  889MOL0     H19956   2.441  10.612   7.495 -0.5680 -2.7701 -1.8726
  889MOL0     H19957   2.554  10.737   7.539 -1.2958  1.8074 -2.3855
  889MOL0     H19958   2.642  10.741   7.303 -0.4012  1.0341  1.2795
  889MOL0     H19959   2.501  10.640   7.254 -1.4308  0.7077  0.3112
  889MOL0     H19960   2.458  10.887   7.205 -0.9560 -0.8926 -0.8082
  889MOL0     H19961   2.340  10.803   7.298  0.4155 -1.7626  2.5707
  889MOL0     H19962   2.426  10.918   7.513  1.2202  0.8736  1.1998
  889MOL0     H19963   2.380  11.025   7.386  1.3081  1.9143  4.5177
  889MOL0     H19964   2.597  11.061   7.515 -2.7153 -1.2806  0.6644
  889MOL0     H19965   2.677  10.932   7.433 -1.7736 -3.6107 -2.7692
  889MOL0     H19966   2.515  11.288   7.385  0.9415  3.8673 -1.6850
  889MOL0     H19967   2.662  11.510   7.326  0.4799 -0.4453  1.3353
  889MOL0     H19968   2.783  11.495   7.198  1.2406  0.8183  2.5013
  889MOL0     H19969   2.493  11.451   7.134 -0.5893  2.5025  3.0126
  889MOL0     H19970   2.563  11.613   7.153 -1.6093  0.7021  2.3773
  889MOL0     H19971   2.617  11.384   6.953 -4.3843 -0.8760  0.7668
  889MOL0     H19972   2.723  11.535   6.971  1.2342 -2.3093  1.0728
  889MOL0     H19973   2.529  11.681   6.921  1.0897 -0.1318  1.1981
  889MOL0     H19974   2.423  11.548   6.909 -1.3114  0.9514 -3.1530
  889MOL0     H19975   2.594  11.840   6.824  0.3924  0.8767  0.4117
  889MOL0     H19976   2.649  12.014   6.661  1.7673 -1.0664 -0.1923
  889MOL0     H19977   2.901  12.136   6.320  1.0441 -1.0503 -0.3231
  889MOL0     H19978   2.995  12.306   6.152  0.1500 -1.6047  0.1560
  889MOL0     H19979   3.028  12.468   5.832  3.5931  0.3800  1.8897
  889MOL0     H19980   3.093  12.348   5.948  1.4019 -3.5102 -1.7755
  889MOL0     H19981   3.015  12.170   5.803  2.1920  0.5122  1.6543
  889MOL0     H19982   2.955  12.287   5.683 -0.7672  2.3671  1.0058
  889MOL0     H19983   3.169  12.252   5.607  0.9099 -0.1350 -0.0457
  889MOL0     H19984   3.201  12.389   5.714 -0.5238  0.3453  3.8542
  889MOL0     H19985   3.241  12.094   5.786  0.5628 -1.0030  0.6862
  889MOL0     H19986   3.287  12.232   5.890 -2.2917  0.2951  0.0189
  889MOL0     H19987   3.419  12.317   5.700  1.5149 -0.2761 -0.6533
  889MOL0     H19988   3.413  12.150   5.631  0.4676  1.0193 -0.6238
  889MOL0     H19989   3.553  12.242   5.875  0.2750 -0.7714  1.7925
  889MOL0     H19990   3.480  12.087   5.883  0.9822  0.3781  0.1645
  889MOL0     H19991   3.665  12.196   5.658 -1.7884 -0.0767  0.5383
  889MOL0     H19992   3.621  12.018   5.658  2.0012  1.2772 -1.7928
  889MOL0     H19993   3.782  12.172   5.859 -0.7420  0.2117  0.2351
  889MOL0     H19994   3.743  11.992   5.856  1.0616  0.9706  0.8769
  889MOL0     H19995   2.672  12.190   5.893  2.0661  1.7743 -1.2361
  889MOL0     H19996   2.619  12.009   6.037 -0.5588 -1.3130 -0.9655
  889MOL0     H19997   2.684  11.727   6.349 -0.1681  1.2613 -0.6152
  889MOL0     H19998   2.616  11.540   6.515 -1.8116  0.9412 -2.1780
  889MOL0     H19999   2.984  10.281   7.739 -1.2221 -0.4315  0.2173
  889MOL0     H20000   3.141  10.206   7.908 -1.2617 -2.6223 -0.1888
  889MOL0     H20001   3.330  10.198   8.270 -0.9082 -0.4866 -0.3395
  889MOL0     H20002   3.542  10.082   8.347  1.3116 -1.9381 -0.3792
  889MOL0     H20003   3.556   9.680   8.510 -0.4655 -0.0945 -1.2487
  889MOL0     H20004   3.486   9.762   8.661  2.3307 -2.7042  0.5029
  889MOL0     H20005   3.699   9.830   8.725 -0.3366  0.1249 -1.3261
  889MOL0     H20006   3.768   9.761   8.572  1.0569  1.7678  0.8991
  889MOL0     H20007   3.782   9.556   8.656  1.7836  0.6579 -0.4610
  889MOL0     H20008   3.616   9.551   8.716 -0.3082 -0.8361  0.1306
  889MOL0     H20009   3.812   9.719   8.890 -2.3045  0.0320  2.2455
  889MOL0     H20010   3.668   9.612   8.924  0.1018  1.4978  1.0954
  889MOL0     H20011   3.962   9.336   9.004  1.2358 -0.2185 -1.3073
  889MOL0     H20012   3.310   9.782   8.525 -2.0180  0.5237  1.4837
  889MOL0     H20013   2.987   9.895   8.475 -2.6412 -0.2407 -2.0464
  889MOL0     H20014   3.029   9.780   8.348  0.6666 -1.3973 -0.0041
  889MOL0     H20015   3.096   9.763   8.509 -2.5876 -1.5713 -1.0924
  890MOL0     O20016   6.291   2.321   4.373  0.2196 -1.0439  0.3004
  890MOL0     C20017   6.334   2.423   4.319  0.0314 -0.9223  0.3144
  890MOL0     O20018   6.272   2.554   4.338  0.0324  0.3717 -0.6987
  890MOL0     C20019   6.151   2.567   4.398 -0.6339  0.8890  0.6368
  890MOL0     C20020   6.039   2.574   4.310  0.0801  0.3867 -0.0082
  890MOL0     C20021   5.909   2.577   4.363 -0.3620  0.0958  0.7124
  890MOL0     C20022   5.888   2.581   4.504  0.2861 -0.6674  0.9687
  890MOL0     O20023   5.768   2.581   4.566  0.2498 -0.1987 -0.1358
  890MOL0     C20024   5.659   2.640   4.497  0.0860  0.3615  0.1352
  890MOL0     C20025   5.544   2.646   4.592 -0.8225  0.7878  0.2601
  890MOL0     C20026   5.423   2.694   4.509  0.8904  0.0777  0.3227
  890MOL0     C20027   5.330   2.785   4.589  0.3978  0.0363  0.4017
  890MOL0     C20028   5.252   2.875   4.490  0.3509  0.4024 -0.4247
  890MOL0     C20029   5.143   2.961   4.558  0.5767  0.0056  0.4549
  890MOL0     C20030   5.101   2.921   4.698  0.7533  0.8002 -0.0458
  890MOL0     C20031   4.988   3.010   4.754 -0.0729  0.9678  0.5892
  890MOL0     N20032   4.920   2.957   4.875  0.3637  0.2059 -0.5429
  890MOL0     C20033   4.991   2.916   4.990  0.4487 -0.2349 -0.0305
  890MOL0     C20034   4.900   2.912   5.091  0.0653 -0.3408 -0.6346
  890MOL0     C20035   4.935   2.898   5.239 -0.2223 -0.3319  0.1719
  890MOL0     C20036   4.861   3.003   5.324 -0.0187  0.3318  0.5921
  890MOL0     C20037   4.935   3.009   5.456 -0.2558 -0.5412 -0.6919
  890MOL0     C20038   4.878   3.078   5.577 -0.1200  1.6616 -0.4626
  890MOL0     O20039   4.743   3.029   5.586  0.2484  0.3330 -0.6711
  890MOL0     C20040   4.718   2.906   5.646  0.0485 -0.2636  0.1715
  890MOL0     C20041   4.595   2.854   5.646 -0.1268  0.2869  0.3629
  890MOL0     C20042   4.543   2.741   5.721  0.6106  0.6949  0.2513
  890MOL0     C20043   4.629   2.663   5.803 -0.2956  0.1803  0.4194
  890MOL0     C20044   4.594   2.536   5.864  0.3218 -0.1238 -0.5642
  890MOL0     O20045   4.684   2.435   5.885 -0.0363  0.0569 -0.4633
  890MOL0     C20046   4.665   2.347   5.988  0.9085 -0.7206  0.2217
  890MOL0     C20047   4.639   2.218   5.962  0.8441  0.4715 -0.4338
  890MOL0     C20048   4.605   2.124   6.056  0.3942 -0.1886 -0.2992
  890MOL0     C20049   4.617   2.157   6.190 -0.2679  0.0009  0.3810
  890MOL0     O20050   4.606   2.064   6.296 -0.5107  0.7835 -0.0457
  890MOL0     C20051   4.697   1.951   6.284 -0.2051  0.0007 -0.5143
  890MOL0     C20052   4.823   1.974   6.391  0.0566  1.0717  0.6455
  890MOL0     C20053   4.883   2.115   6.377 -0.3167  0.2553 -0.1330
  890MOL0     C20054   5.021   2.136   6.442 -0.0126 -0.7197  0.4900
  890MOL0     C20055   5.119   2.040   6.395 -0.1901 -0.5367 -0.5668
  890MOL0     C20056   5.148   2.033   6.239  0.5294  0.3826 -0.0284
  890MOL0     C20057   5.257   1.934   6.192  0.0501 -0.2913  0.5017
  890MOL0     C20058   5.284   1.952   6.043  0.4799  1.1141 -0.5124
  890MOL0    Cl20059   5.164   1.862   5.949  0.1057 -0.7150  0.3410
  890MOL0     C20060   4.657   2.288   6.217 -0.3680  0.3078 -0.9976
  890MOL0     C20061   4.678   2.386   6.113  0.1195 -0.3887 -0.7196
  890MOL0     O20062   4.484   2.539   5.911  0.3613 -0.4284 -0.5160
  890MOL0     C20063   4.760   2.703   5.798  0.2578  0.8485 -0.7526
  890MOL0     C20064   4.797   2.827   5.735 -0.7161  0.0971  0.5624
  890MOL0     N20065   4.777   2.934   5.032  0.5928 -0.3185  0.4388
  890MOL0     N20066   4.791   2.965   4.907  0.4522 -0.0140  0.0113
  890MOL0     C20067   5.993   2.579   4.587 -0.4659  0.3270  0.1837
  890MOL0     C20068   6.129   2.570   4.535  1.3427 -0.6818 -0.2719
  890MOL0     C20069   6.451   2.424   4.235  0.1453  0.1648  0.1227
  890MOL0     C20070   6.528   2.550   4.223 -0.5692  0.4187  0.0014
  890MOL0     C20071   6.647   2.553   4.140 -0.3399 -0.7439 -0.4784
  890MOL0     C20072   6.701   2.437   4.081  0.2231 -0.9749  0.4507
  890MOL0     O20073   6.822   2.426   4.031 -0.0299 -0.4109  0.9886
  890MOL0     C20074   6.910   2.540   4.017 -1.1193 -0.2125  0.2533
  890MOL0     C20075   7.061   2.514   3.977  0.2282  0.1190  0.4199
  890MOL0     C20076   7.143   2.440   4.079 -0.4509 -0.2046  0.3726
  890MOL0     C20077   7.273   2.404   4.023 -0.4600 -0.1641 -0.5678
  890MOL0     C20078   7.375   2.508   4.059 -0.1924  0.3857  1.0601
  890MOL0     C20079   7.446   2.594   4.104  0.1912  0.4605 -0.6142
  890MOL0     C20080   6.619   2.323   4.089  0.4287 -0.1505  0.2924
  890MOL0     C20081   6.498   2.315   4.157 -0.7403  0.2464 -0.2072
  890MOL0     C20082   6.417   2.187   4.156  0.2437  0.5102  0.4001
  890MOL0     H20083   6.063   2.564   4.205  2.2272  2.0670  0.2564
  890MOL0     H20084   5.827   2.557   4.295  0.1799 -2.2980  0.6767
  890MOL0     H20085   5.696   2.737   4.462 -0.0459 -0.0934 -1.3657
  890MOL0     H20086   5.627   2.585   4.407 -0.7426 -1.3822  1.4339
  890MOL0     H20087   5.561   2.702   4.684  0.5182  0.0742  0.4754
  890MOL0     H20088   5.524   2.545   4.628  2.1037 -0.6907 -1.8222
  890MOL0     H20089   5.366   2.614   4.460  0.3833  0.2186  0.6686
  890MOL0     H20090   5.467   2.751   4.426 -2.4749 -0.7363 -2.2921
  890MOL0     H20091   5.270   2.727   4.660  0.9749 -2.3180 -0.9373
  890MOL0     H20092   5.389   2.858   4.646 -1.1361  0.6818  1.2638
  890MOL0     H20093   5.314   2.940   4.428  1.1822 -0.5530 -0.6259
  890MOL0     H20094   5.202   2.809   4.419 -1.0292  0.8993  0.0513
  890MOL0     H20095   5.180   3.064   4.560  0.1505  0.2327 -1.2815
  890MOL0     H20096   5.058   2.960   4.488  0.0423 -2.9021  1.0066
  890MOL0     H20097   5.183   2.927   4.770 -1.0568 -1.1700  2.3644
  890MOL0     H20098   5.071   2.816   4.701 -1.8281  1.4582  2.0985
  890MOL0     H20099   5.022   3.109   4.785  2.4527 -0.0169  1.2584
  890MOL0     H20100   4.913   3.022   4.675  0.4990 -3.8046 -1.0103
  890MOL0     H20101   5.100   2.919   4.992  0.5281  4.2719  1.6300
  890MOL0     H20102   4.909   2.797   5.271  1.2837 -0.0237  2.6097
  890MOL0     H20103   5.044   2.906   5.250 -0.1380 -2.7513  1.6035
  890MOL0     H20104   4.881   3.094   5.266  1.2934 -0.5461 -0.4273
  890MOL0     H20105   4.754   2.983   5.329  0.0693  0.1303  2.0904
  890MOL0     H20106   5.033   3.052   5.433  2.3488 -5.5499 -0.3466
  890MOL0     H20107   4.955   2.907   5.488  0.4388 -0.1855  0.0415
  890MOL0     H20108   4.873   3.187   5.567  0.3883  1.6405 -1.0593
  890MOL0     H20109   4.951   3.068   5.658  0.5550  2.1244 -0.9913
  890MOL0     H20110   4.525   2.904   5.579 -0.5728 -1.4068 -0.5100
  890MOL0     H20111   4.438   2.718   5.713  0.5080 -0.0209  2.7744
  890MOL0     H20112   4.635   2.188   5.858  3.9715 -1.2854 -0.1813
  890MOL0     H20113   4.569   2.023   6.046 -2.2546  0.2363  3.1121
  890MOL0     H20114   4.643   1.856   6.292  0.5664 -0.4119 -0.1366
  890MOL0     H20115   4.732   1.938   6.181  0.6307 -0.9931 -0.1110
  890MOL0     H20116   4.781   1.967   6.492  0.1405 -1.2799  0.5701
  890MOL0     H20117   4.890   1.891   6.366  1.4358  1.7247  2.0336
  890MOL0     H20118   4.894   2.139   6.271  1.5196  0.1462  0.0055
  890MOL0     H20119   4.809   2.182   6.423 -0.2618 -1.0109  1.9002
  890MOL0     H20120   5.007   2.110   6.547  1.2244  0.4615  0.9670
  890MOL0     H20121   5.051   2.239   6.419  1.0060 -1.3610 -1.2615
  890MOL0     H20122   5.092   1.936   6.418  4.9481 -1.9746  0.4207
  890MOL0     H20123   5.215   2.059   6.445  1.6743 -2.4301 -3.1346
  890MOL0     H20124   5.051   2.011   6.194 -0.1156  2.3377  0.3127
  890MOL0     H20125   5.182   2.133   6.209  3.0344 -0.7741 -1.2763
  890MOL0     H20126   5.225   1.833   6.217 -1.6774  0.5802  2.1683
  890MOL0     H20127   5.350   1.958   6.245 -0.5139  3.6366  0.0523
  890MOL0     H20128   5.291   2.056   6.009  1.8149  0.5768 -2.0124
  890MOL0     H20129   5.378   1.907   6.012 -0.5453 -1.4471 -0.1450
  890MOL0     H20130   4.652   2.308   6.324  4.0632 -1.6557 -0.1639
  890MOL0     H20131   4.703   2.486   6.148  2.0695 -1.2964  0.7296
  890MOL0     H20132   4.831   2.661   5.869  0.5856  0.6657 -1.1855
  890MOL0     H20133   4.903   2.853   5.736  0.1015 -2.9128  0.3749
  890MOL0     H20134   5.981   2.566   4.694 -0.9716 -1.9996 -0.1162
  890MOL0     H20135   6.211   2.564   4.606 -0.0571  1.3851  1.6893
  890MOL0     H20136   6.498   2.635   4.283 -0.2182  1.0135 -0.6593
  890MOL0     H20137   6.699   2.647   4.124 -3.5808  0.9656 -2.0090
  890MOL0     H20138   6.916   2.592   4.113 -3.1430 -0.8045  0.7535
  890MOL0     H20139   6.876   2.614   3.944  1.3419  0.1377 -0.6279
  890MOL0     H20140   7.108   2.612   3.962 -2.4193  1.0267 -3.6249
  890MOL0     H20141   7.060   2.461   3.881  5.4809  0.9669 -0.4277
  890MOL0     H20142   7.081   2.355   4.110 -1.4899 -0.4527 -2.1243
  890MOL0     H20143   7.162   2.506   4.164  0.1034 -1.1914  1.0265
  890MOL0     H20144   7.301   2.318   4.084  0.6566  0.2287 -0.5000
  890MOL0     H20145   7.268   2.377   3.917  0.4364 -2.8342  0.0070
  890MOL0     H20146   7.503   2.676   4.144 -0.5776 -0.7099  3.2330
  890MOL0     H20147   6.661   2.241   4.031 -2.4222 -0.0094 -2.2114
  890MOL0     H20148   6.434   2.142   4.058  0.1369  0.4560  0.4071
  890MOL0     H20149   6.439   2.116   4.237 -0.0543 -1.8629 -1.4714
  890MOL0     H20150   6.314   2.222   4.157  0.2125  0.4284  1.6709
  891MOL0     O20151   1.509   1.750   2.014  0.5026  0.0254  0.3446
  891MOL0     C20152   1.528   1.844   2.084 -0.0456 -0.9465 -0.5547
  891MOL0     O20153   1.433   1.921   2.136  0.7906 -0.1030  0.7100
  891MOL0     C20154   1.302   1.886   2.102 -1.0124 -0.4681  0.5590
  891MOL0     C20155   1.249   1.914   1.974 -0.5144  0.5506 -0.6709
  891MOL0     C20156   1.113   1.909   1.964  0.5027 -0.2377  0.8182
  891MOL0     C20157   1.027   1.881   2.076 -0.8509  0.3237  0.1871
  891MOL0     O20158   0.895   1.901   2.065  0.3606  0.0624 -0.2204
  891MOL0     C20159   0.811   1.827   2.156 -0.7249 -0.0344  0.1971
  891MOL0     C20160   0.661   1.812   2.122  0.2242  0.3342  0.8044
  891MOL0     C20161   0.633   1.709   2.009 -0.9051 -0.4462 -0.5686
  891MOL0     C20162   0.494   1.724   1.940  0.0291  0.4461 -0.2148
  891MOL0     C20163   0.476   1.853   1.865  0.0617  0.5269 -0.3082
  891MOL0     C20164   0.524   1.844   1.714 -1.1491 -0.6111 -0.1038
  891MOL0     C20165   0.676   1.815   1.699  0.1467 -0.3076 -0.6981
  891MOL0     C20166   0.730   1.814   1.563  0.1207  0.0696  0.3377
  891MOL0     N20167   0.665   1.717   1.478 -0.0794  1.0024  0.3458
  891MOL0     C20168   0.684   1.582   1.477  0.0544  0.5243  1.8665
  891MOL0     C20169   0.576   1.543   1.392 -0.1508  0.0605 -0.4456
  891MOL0     C20170   0.533   1.395   1.366 -0.1132  0.3396  0.3417
  891MOL0     C20171   0.629   1.319   1.269  0.5442 -0.3830 -0.1721
  891MOL0     C20172   0.556   1.195   1.213 -0.6231  0.7094  0.1455
  891MOL0     C20173   0.626   1.080   1.157  0.0671 -1.4436 -0.4624
  891MOL0     O20174   0.567   0.955   1.213 -0.5522  0.7975  0.2411
  891MOL0     C20175   0.599   0.835   1.155 -0.3910  0.0466 -0.0904
  891MOL0     C20176   0.725   0.815   1.081  0.3979  0.9844 -0.1323
  891MOL0     C20177   0.759   0.691   1.017  0.1151  0.2601 -0.5467
  891MOL0     C20178   0.666   0.595   1.035  0.1751 -0.2570 -0.1336
  891MOL0     C20179   0.698   0.465   0.978 -1.2737  0.0696  0.7919
  891MOL0     O20180   0.596   0.364   0.982 -1.0673 -0.2387 -0.7917
  891MOL0     C20181   0.624   0.245   0.923 -0.5030 -0.5476  0.3650
  891MOL0     C20182   0.520   0.189   0.842  0.1412  0.1143  0.3103
  891MOL0     C20183   0.554   0.069   0.776  0.4254 -0.2927  0.0941
  891MOL0     C20184   0.679   0.009   0.783  0.0285 -0.1043 -1.1903
  891MOL0     O20185   0.672  -0.119   0.728 -0.4262 -0.4780  0.5354
  891MOL0     C20186   0.788  -0.198   0.748 -0.0074  0.4209 -0.1691
  891MOL0     C20187   0.762  -0.333   0.691  0.6362  0.3321 -0.2880
  891MOL0     C20188   0.890  -0.421   0.672  1.0577  0.5966  0.1084
  891MOL0     C20189   0.844  -0.564   0.633 -0.2631  0.4355 -0.0514
  891MOL0     C20190   0.956  -0.668   0.627  0.4510  0.6055  0.5643
  891MOL0     C20191   1.086  -0.645   0.540  0.1785  0.4732 -0.3392
  891MOL0     C20192   1.175  -0.773   0.526 -0.0758 -0.2751 -0.0177
  891MOL0     C20193   1.302  -0.756   0.441  0.5621  0.3429 -0.6353
  891MOL0    Cl20194   1.278  -0.701   0.273 -0.0500 -0.6729  0.1713
  891MOL0     C20195   0.769   0.058   0.881 -0.0481  0.0599  0.0631
  891MOL0     C20196   0.743   0.176   0.947 -0.5419  0.1252  0.2854
  891MOL0     O20197   0.813   0.448   0.928  0.0898 -0.9637  0.1162
  891MOL0     C20198   0.543   0.616   1.099  0.0215 -0.4978  0.2016
  891MOL0     C20199   0.513   0.731   1.167  0.4570 -1.2337 -0.8312
  891MOL0     N20200   0.506   1.654   1.347 -0.8166  0.9543 -0.3594
  891MOL0     N20201   0.553   1.754   1.398 -0.8535  0.4132 -0.1222
  891MOL0     C20202   1.075   1.845   2.196 -0.3721  0.5974  1.2681
  891MOL0     C20203   1.220   1.841   2.207  0.1619 -0.4674  0.7480
  891MOL0     C20204   1.668   1.871   2.129 -0.7505 -1.2507 -0.4211
  891MOL0     C20205   1.731   1.765   2.186 -0.4143  0.1056 -0.2628
  891MOL0     C20206   1.869   1.766   2.217  0.5260 -0.4279  0.3417
  891MOL0     C20207   1.941   1.890   2.199  0.5039 -0.2378  0.3195
  891MOL0     O20208   2.077   1.873   2.213  0.0123 -0.9706  0.3623
  891MOL0     C20209   2.161   1.944   2.119  1.0648  0.5697  0.1455
  891MOL0     C20210   2.303   1.879   2.117 -0.2231  0.1785 -0.5638
  891MOL0     C20211   2.293   1.726   2.068 -0.3237 -1.0703  0.3858
  891MOL0     C20212   2.290   1.638   2.196 -0.6590  0.3156  0.4238
  891MOL0     C20213   2.248   1.499   2.158 -0.4575 -0.7290 -0.4998
  891MOL0     C20214   2.215   1.386   2.135 -0.6960 -0.4216  0.2511
  891MOL0     C20215   1.867   2.008   2.159  0.5346 -0.3236  0.2180
  891MOL0     C20216   1.731   2.004   2.122 -0.6496  0.0326  0.2619
  891MOL0     C20217   1.664   2.130   2.077 -0.2884 -0.0699  0.8274
  891MOL0     H20218   1.318   1.949   1.899  2.6457 -0.3065  1.6020
  891MOL0     H20219   1.078   1.930   1.863  0.0488 -0.1548  0.9887
  891MOL0     H20220   0.850   1.726   2.175 -0.3847 -0.4451 -2.3652
  891MOL0     H20221   0.824   1.875   2.253  0.5450 -1.0891  0.5847
  891MOL0     H20222   0.613   1.909   2.104 -4.5601 -1.3660  2.6369
  891MOL0     H20223   0.618   1.780   2.217  2.4299  0.4683  1.8989
  891MOL0     H20224   0.635   1.610   2.056 -3.2922  0.4100  1.5323
  891MOL0     H20225   0.716   1.704   1.938  1.2418 -2.4344  1.8360
  891MOL0     H20226   0.472   1.639   1.876  1.6362  0.1744 -0.4659
  891MOL0     H20227   0.436   1.730   2.032 -1.2313  4.8346 -1.0726
  891MOL0     H20228   0.369   1.875   1.859  0.5407  2.9693 -0.7941
  891MOL0     H20229   0.522   1.937   1.918 -0.6092  0.1109  0.9878
  891MOL0     H20230   0.476   1.771   1.649  1.2136 -1.9782 -0.4113
  891MOL0     H20231   0.517   1.950   1.685  6.0934  0.8782  1.5840
  891MOL0     H20232   0.686   1.714   1.739 -0.3965  0.1360  0.6395
  891MOL0     H20233   0.729   1.886   1.764  1.0966 -1.3101 -0.3412
  891MOL0     H20234   0.709   1.909   1.514 -2.0868 -0.6741 -0.2921
  891MOL0     H20235   0.838   1.798   1.565  0.2219  0.2680  3.7422
  891MOL0     H20236   0.752   1.516   1.530  1.3112  0.1324 -0.1279
  891MOL0     H20237   0.544   1.350   1.465 -0.9181 -0.7475 -0.0405
  891MOL0     H20238   0.431   1.385   1.328  0.2776 -2.7981 -0.1838
  891MOL0     H20239   0.653   1.391   1.190 -2.2408  0.4710 -0.3643
  891MOL0     H20240   0.717   1.282   1.322  0.5589 -2.1092 -1.3236
  891MOL0     H20241   0.476   1.212   1.141 -1.2943 -0.5529  0.5626
  891MOL0     H20242   0.515   1.148   1.302 -2.3212 -1.0745 -1.4913
  891MOL0     H20243   0.732   1.092   1.181  1.4196  1.7904 -6.1026
  891MOL0     H20244   0.625   1.088   1.048  2.2865  1.8636 -0.3967
  891MOL0     H20245   0.791   0.898   1.059 -1.3191  1.7830 -2.6658
  891MOL0     H20246   0.862   0.684   0.983  1.8845  1.9586  3.6974
  891MOL0     H20247   0.422   0.229   0.819  0.2812 -0.4396 -1.3825
  891MOL0     H20248   0.483   0.011   0.718  0.7141 -0.9572  0.3962
  891MOL0     H20249   0.871  -0.157   0.689  2.2905 -0.5022  2.2075
  891MOL0     H20250   0.813  -0.200   0.855 -0.7934 -0.4032  0.0077
  891MOL0     H20251   0.691  -0.386   0.756 -3.2437  2.3763 -2.4935
  891MOL0     H20252   0.706  -0.319   0.598  1.5999  0.1483 -0.9028
  891MOL0     H20253   0.953  -0.380   0.593  0.0757  1.3573 -0.3012
  891MOL0     H20254   0.952  -0.423   0.762  1.1145 -2.2284  0.1175
  891MOL0     H20255   0.792  -0.558   0.537  0.8408  3.9388 -0.5932
  891MOL0     H20256   0.776  -0.601   0.710 -2.5085  0.2388 -2.0321
  891MOL0     H20257   0.897  -0.751   0.588  0.5868 -0.5580  2.6629
  891MOL0     H20258   0.974  -0.686   0.734  0.7051 -1.8670  0.1712
  891MOL0     H20259   1.047  -0.619   0.441  0.9821  2.0584 -0.2757
  891MOL0     H20260   1.138  -0.567   0.597  0.4596  1.5109 -1.9464
  891MOL0     H20261   1.116  -0.861   0.497  1.3048 -1.3085  0.2048
  891MOL0     H20262   1.211  -0.795   0.627  0.2787 -0.2897 -0.1468
  891MOL0     H20263   1.366  -0.680   0.487 -2.7723  0.6546  4.2509
  891MOL0     H20264   1.350  -0.854   0.436 -0.0112  0.1061 -1.7837
  891MOL0     H20265   0.860  -0.000   0.891  1.1890  1.8459 -0.3275
  891MOL0     H20266   0.809   0.215   1.023 -2.0814 -1.4128  2.5166
  891MOL0     H20267   0.462   0.546   1.120 -0.5482  0.1913  0.3337
  891MOL0     H20268   0.429   0.755   1.232  2.0740 -0.7673  1.2037
  891MOL0     H20269   1.019   1.820   2.286  2.5569 -1.0215  2.7939
  891MOL0     H20270   1.264   1.810   2.301  2.3024 -1.3396 -0.4670
  891MOL0     H20271   1.690   1.665   2.197  2.0985 -1.1361 -1.3531
  891MOL0     H20272   1.921   1.681   2.260 -2.6284 -1.9826  1.4098
  891MOL0     H20273   2.157   2.050   2.148 -0.6653  0.7880 -0.7468
  891MOL0     H20274   2.108   1.936   2.024 -0.5061  0.7261  0.9793
  891MOL0     H20275   2.348   1.892   2.215  1.6398 -3.9072 -0.6561
  891MOL0     H20276   2.360   1.945   2.051 -0.8105  2.4015  1.0574
  891MOL0     H20277   2.381   1.718   2.002 -0.9647  1.9515 -1.0209
  891MOL0     H20278   2.200   1.717   2.011 -0.2179 -2.1239  0.3714
  891MOL0     H20279   2.391   1.639   2.238 -0.7744  2.4560  0.7691
  891MOL0     H20280   2.219   1.679   2.268 -1.4718  1.3912 -0.9363
  891MOL0     H20281   2.209   1.279   2.135  2.2359 -0.7176 -2.2557
  891MOL0     H20282   1.903   2.111   2.155 -2.9209  0.9760 -2.0999
  891MOL0     H20283   1.703   2.220   2.125 -0.7988 -0.8561  2.7903
  891MOL0     H20284   1.657   2.138   1.968 -1.1720  1.6779  0.9874
  891MOL0     H20285   1.564   2.131   2.122 -0.1514  0.3429  1.1260
  892MOL0     O20286   9.531   4.886   2.356  0.2911 -0.1402  0.2375
  892MOL0     C20287   9.628   4.964   2.384  1.2730 -0.3744 -0.0881
  892MOL0     O20288   9.759   4.926   2.378  0.4743  0.3493 -0.1465
  892MOL0     C20289   9.806   4.815   2.315  0.0990  0.0590  0.7144
  892MOL0     C20290   9.741   4.701   2.257 -0.3798 -0.3100  0.0303
  892MOL0     C20291   9.815   4.616   2.186  0.0327 -0.1708  0.0902
  892MOL0     C20292   9.953   4.618   2.178  0.3520 -0.9294 -0.4575
  892MOL0     O20293   9.997   4.515   2.099  0.1576 -0.0941  0.1862
  892MOL0     C20294  10.139   4.488   2.081 -0.3125 -1.0674  0.3770
  892MOL0     C20295  10.152   4.365   1.988 -0.8229 -0.1780  0.5524
  892MOL0     C20296  10.170   4.401   1.844 -0.0329 -0.1549 -0.3758
  892MOL0     C20297  10.307   4.440   1.800  0.8698  0.9087  0.8121
  892MOL0     C20298  10.303   4.441   1.643 -0.1700 -0.6171 -0.6978
  892MOL0     C20299  10.430   4.505   1.578 -0.2975 -0.1717  0.4834
  892MOL0     C20300  10.406   4.506   1.426 -0.1444 -1.1797 -0.0787
  892MOL0     C20301  10.300   4.612   1.382  0.2321 -0.1675 -0.4445
  892MOL0     N20302  10.264   4.592   1.246  0.3905 -0.0693  0.1664
  892MOL0     C20303  10.360   4.600   1.146  0.4971 -0.2413 -0.0653
  892MOL0     C20304  10.298   4.562   1.027 -0.2989 -0.4020  1.2699
  892MOL0     C20305  10.357   4.548   0.889  0.4632  0.0609 -0.5135
  892MOL0     C20306  10.281   4.445   0.808  0.3643  0.8507 -0.5772
  892MOL0     C20307  10.352   4.437   0.670  0.2737  1.1914  0.8850
  892MOL0     C20308  10.246   4.410   0.554  0.5007  0.2834  0.2392
  892MOL0     O20309  10.168   4.292   0.570 -0.2681  0.1974 -0.2765
  892MOL0     C20310  10.135   4.222   0.463 -1.0699 -0.0463 -0.7281
  892MOL0     C20311  10.232   4.178   0.373  0.7874  0.4528  0.4464
  892MOL0     C20312  10.186   4.088   0.272  0.1473 -0.8676  0.6741
  892MOL0     C20313  10.048   4.049   0.267  0.5674  0.3710  1.1374
  892MOL0     C20314   9.991   3.974   0.151 -0.9363 -0.9501 -0.2588
  892MOL0     O20315  10.094   3.892   0.103  0.1500 -0.5163  0.1774
  892MOL0     C20316  10.068   3.810  -0.008  0.3027  0.3435 -0.6904
  892MOL0     C20317  10.102   3.676  -0.008  0.1589  0.7176  0.0822
  892MOL0     C20318  10.071   3.582  -0.105 -0.4511 -1.3472 -0.7608
  892MOL0     C20319  10.002   3.632  -0.214 -0.2377  0.2599  1.1868
  892MOL0     O20320   9.980   3.550  -0.328  0.5378 -0.2363  0.4938
  892MOL0     C20321   9.900   3.427  -0.306 -0.1919 -0.3582 -0.2815
  892MOL0     C20322   9.801   3.424  -0.423  0.6697  0.0412  0.7608
  892MOL0     C20323   9.664   3.350  -0.387  0.1124 -0.9721 -0.2686
  892MOL0     C20324   9.560   3.445  -0.342  0.8248  0.0349  0.1302
  892MOL0     C20325   9.594   3.523  -0.213  0.1779  0.2229 -0.6875
  892MOL0     C20326   9.578   3.424  -0.091 -0.2222 -0.3781  0.7881
  892MOL0     C20327   9.437   3.411  -0.045  0.8587 -0.4808 -0.5879
  892MOL0     C20328   9.409   3.469   0.095 -0.0039 -0.6873  0.1630
  892MOL0    Cl20329   9.517   3.407   0.233  0.0525 -0.3100 -0.2586
  892MOL0     C20330   9.978   3.767  -0.232  0.1249  0.2274 -0.4038
  892MOL0     C20331  10.017   3.859  -0.127 -0.1585  0.1524 -0.2495
  892MOL0     O20332   9.882   3.988   0.103  0.4119  0.2206  0.5040
  892MOL0     C20333   9.958   4.098   0.364  0.1424 -0.4800  0.4254
  892MOL0     C20334  10.001   4.181   0.462  0.9705 -0.4556  0.0704
  892MOL0     N20335  10.178   4.512   1.066  0.3536 -1.0493 -0.1457
  892MOL0     N20336  10.162   4.521   1.193  0.8662 -0.1752  0.3511
  892MOL0     C20337  10.022   4.710   2.260 -0.0377 -0.4704  1.0977
  892MOL0     C20338   9.946   4.806   2.320  0.4496 -0.2787  0.1218
  892MOL0     C20339   9.586   5.095   2.440  0.8395 -0.8149  0.5240
  892MOL0     C20340   9.682   5.175   2.496 -0.2004 -0.5388 -0.1749
  892MOL0     C20341   9.656   5.289   2.566 -0.5541 -0.9372 -0.3825
  892MOL0     C20342   9.520   5.326   2.591 -1.0034 -0.1373 -0.8952
  892MOL0     O20343   9.488   5.442   2.652  0.2017  0.4105 -0.3864
  892MOL0     C20344   9.564   5.492   2.760  0.8014 -0.0566 -0.1878
  892MOL0     C20345   9.481   5.595   2.836 -0.4408  0.5841 -0.5006
  892MOL0     C20346   9.543   5.646   2.968  0.3593 -0.5061 -0.3230
  892MOL0     C20347   9.655   5.750   2.945 -0.0826  0.2053 -0.5531
  892MOL0     C20348   9.619   5.894   2.943  0.3978  0.6467  1.0737
  892MOL0     C20349   9.598   6.009   2.946  0.0217 -0.2249  0.2489
  892MOL0     C20350   9.420   5.257   2.527 -0.5193  0.1289  0.0134
  892MOL0     C20351   9.448   5.152   2.443 -1.3305  0.8481  0.0076
  892MOL0     C20352   9.328   5.089   2.381 -0.7056  0.0868  0.0683
  892MOL0     H20353   9.633   4.693   2.258 -0.6039  1.8643  0.8883
  892MOL0     H20354   9.773   4.530   2.136  3.6675 -0.3536 -3.2316
  892MOL0     H20355  10.200   4.575   2.054 -0.4136 -1.6295 -1.9092
  892MOL0     H20356  10.165   4.445   2.178 -0.2707 -0.2605  0.7289
  892MOL0     H20357  10.070   4.294   1.998 -1.6992  0.4598 -1.5984
  892MOL0     H20358  10.246   4.315   2.013  1.1390  1.6342 -2.4946
  892MOL0     H20359  10.105   4.488   1.829 -0.9278 -1.0083 -1.6255
  892MOL0     H20360  10.125   4.330   1.774  0.3399 -1.3498  0.5625
  892MOL0     H20361  10.328   4.540   1.839 -0.5129  1.6998 -0.3615
  892MOL0     H20362  10.387   4.371   1.828  1.9428  0.3138 -3.0730
  892MOL0     H20363  10.268   4.345   1.606  0.3288 -0.8403 -0.5998
  892MOL0     H20364  10.211   4.497   1.626 -1.5664 -2.2163  1.1683
  892MOL0     H20365  10.444   4.602   1.627  4.6814  0.1925 -1.0903
  892MOL0     H20366  10.521   4.451   1.606  1.7343  2.9301  0.4001
  892MOL0     H20367  10.387   4.410   1.379  0.1581 -0.3612 -1.9708
  892MOL0     H20368  10.501   4.529   1.376 -1.1665 -1.4826 -2.2442
  892MOL0     H20369  10.216   4.593   1.449 -0.1288 -0.0756 -0.8660
  892MOL0     H20370  10.341   4.711   1.401 -2.7740  0.9642  0.8514
  892MOL0     H20371  10.463   4.627   1.164  1.6171 -1.2046 -4.1564
  892MOL0     H20372  10.362   4.644   0.837 -0.2937  1.2005  1.4066
  892MOL0     H20373  10.459   4.513   0.904 -0.2331 -2.5320 -1.3050
  892MOL0     H20374  10.291   4.343   0.847 -0.8841  1.5863  1.8818
  892MOL0     H20375  10.175   4.469   0.794 -0.6468 -2.9909 -0.6636
  892MOL0     H20376  10.425   4.356   0.672  0.3243  1.1748 -0.6168
  892MOL0     H20377  10.410   4.528   0.655  1.3820  0.4223  0.3777
  892MOL0     H20378  10.295   4.407   0.456 -1.4231 -1.3165 -0.7355
  892MOL0     H20379  10.181   4.498   0.561  0.1271 -0.1448  4.0062
  892MOL0     H20380  10.335   4.211   0.372 -0.2648  4.2142 -1.4360
  892MOL0     H20381  10.258   4.048   0.201  2.9454  1.5777  1.9472
  892MOL0     H20382  10.156   3.642   0.080  0.2280  0.8087  0.0741
  892MOL0     H20383  10.109   3.481  -0.102 -0.9857 -1.5936 -1.7964
  892MOL0     H20384   9.948   3.328  -0.309 -0.2205 -0.4090  0.6909
  892MOL0     H20385   9.850   3.445  -0.211  2.7594  1.1217  1.1104
  892MOL0     H20386   9.778   3.528  -0.451  0.9757  0.5098  2.1936
  892MOL0     H20387   9.854   3.385  -0.511  1.9947  1.1823  1.0193
  892MOL0     H20388   9.625   3.303  -0.478 -1.4486 -1.5849  0.6788
  892MOL0     H20389   9.693   3.273  -0.315  1.2083 -0.2807  0.0498
  892MOL0     H20390   9.463   3.396  -0.336  1.2664 -1.2614 -2.2005
  892MOL0     H20391   9.543   3.512  -0.427  1.5052 -0.3761 -0.3396
  892MOL0     H20392   9.532   3.612  -0.200  1.1945  1.4008 -3.2991
  892MOL0     H20393   9.699   3.556  -0.210  1.2669 -2.6197 -3.1026
  892MOL0     H20394   9.618   3.323  -0.103  2.0100  0.1614  2.7851
  892MOL0     H20395   9.646   3.465  -0.015  2.5844 -0.0995 -1.6995
  892MOL0     H20396   9.419   3.303  -0.054  0.1333 -0.2831 -1.6445
  892MOL0     H20397   9.367   3.452  -0.119  1.6008 -0.9956 -1.5959
  892MOL0     H20398   9.408   3.578   0.088 -2.1805 -0.3195  3.7599
  892MOL0     H20399   9.306   3.440   0.115 -1.0574  3.8386  2.7147
  892MOL0     H20400   9.936   3.790  -0.329 -0.6813 -1.8539 -0.5746
  892MOL0     H20401  10.004   3.966  -0.142 -0.9337  0.1102  0.1012
  892MOL0     H20402   9.853   4.072   0.366  0.1097 -0.3608  0.2988
  892MOL0     H20403   9.938   4.212   0.544  0.3382 -1.4332 -0.0340
  892MOL0     H20404  10.128   4.710   2.284  0.2404 -0.8344 -0.0589
  892MOL0     H20405  10.007   4.881   2.371 -0.4143  0.5989 -0.1031
  892MOL0     H20406   9.788   5.163   2.478 -0.3087  0.3000 -1.5407
  892MOL0     H20407   9.740   5.351   2.595 -1.9875  0.4290  1.0273
  892MOL0     H20408   9.656   5.535   2.719  0.7361 -0.3544 -0.6556
  892MOL0     H20409   9.580   5.408   2.828  2.9258  2.1197  2.1810
  892MOL0     H20410   9.397   5.534   2.871 -1.9787  2.6331 -0.3689
  892MOL0     H20411   9.435   5.677   2.779  0.7739  0.8610 -1.1202
  892MOL0     H20412   9.578   5.568   3.035  1.2719  1.7607  1.9973
  892MOL0     H20413   9.458   5.694   3.019  2.4468  4.5589 -0.9846
  892MOL0     H20414   9.734   5.741   3.020 -2.1935  1.8837  2.0353
  892MOL0     H20415   9.700   5.729   2.847 -0.0488 -4.4882  0.2338
  892MOL0     H20416   9.587   6.115   2.937  0.8061 -0.1359  0.2232
  892MOL0     H20417   9.319   5.281   2.558 -0.0702  3.9446 -0.9519
  892MOL0     H20418   9.242   5.149   2.414  0.2261  1.6206 -0.2198
  892MOL0     H20419   9.351   5.083   2.274  1.4364  0.8240  0.4444
  892MOL0     H20420   9.328   4.985   2.413  4.1103 -0.5644 -1.3380
  893MOL0     O20421   3.671   5.158   2.918  0.1821  0.0893 -0.4423
  893MOL0     C20422   3.733   5.054   2.906 -0.3581  0.6273  0.1559
  893MOL0     O20423   3.684   4.943   2.839  0.5712  0.0935  0.3771
  893MOL0     C20424   3.561   4.956   2.789 -0.7588 -0.7503  0.1702
  893MOL0     C20425   3.448   4.912   2.863 -0.4308  0.0329  0.3929
  893MOL0     C20426   3.311   4.907   2.799 -0.2215 -0.4267 -0.6759
  893MOL0     C20427   3.299   4.941   2.662  0.0295 -0.5428 -0.5997
  893MOL0     O20428   3.180   4.950   2.590 -0.1852  0.6163  0.9799
  893MOL0     C20429   3.055   4.957   2.661 -0.2905 -0.2316  0.3713
  893MOL0     C20430   2.999   4.831   2.739  0.2816 -0.3285 -0.3244
  893MOL0     C20431   2.915   4.735   2.660  0.7765 -0.1832  0.5478
  893MOL0     C20432   2.781   4.792   2.608  0.7381  0.3306 -0.0286
  893MOL0     C20433   2.701   4.686   2.533 -0.1708  0.5332  0.6142
  893MOL0     C20434   2.554   4.719   2.516 -0.2375 -0.1911  0.1565
  893MOL0     C20435   2.541   4.840   2.419 -0.4468  1.0925  0.2489
  893MOL0     C20436   2.402   4.878   2.384  0.9058 -0.3551 -0.3622
  893MOL0     N20437   2.316   4.912   2.495 -0.0369  0.3616 -0.3883
  893MOL0     C20438   2.358   4.981   2.605  0.8321 -0.2022 -0.1106
  893MOL0     C20439   2.250   4.974   2.688  0.4541 -0.1134 -0.0883
  893MOL0     C20440   2.239   5.012   2.834 -0.3056 -0.7704 -0.8046
  893MOL0     C20441   2.128   5.126   2.852  0.3177 -0.3435 -0.4314
  893MOL0     C20442   1.994   5.101   2.775 -0.4970  0.1153 -0.4699
  893MOL0     C20443   1.881   5.193   2.837  0.6288 -0.6280 -0.3908
  893MOL0     O20444   1.927   5.329   2.851 -0.2789 -0.7747 -0.2473
  893MOL0     C20445   1.915   5.415   2.742 -0.3495  0.4859 -0.5920
  893MOL0     C20446   1.966   5.540   2.770 -0.4663 -0.4948 -0.2347
  893MOL0     C20447   1.965   5.644   2.681 -0.3910 -0.0456 -0.2760
  893MOL0     C20448   1.892   5.620   2.565 -0.1243 -0.4787  0.2352
  893MOL0     C20449   1.850   5.726   2.473 -0.4693 -1.5327  0.0394
  893MOL0     O20450   1.880   5.851   2.534 -0.3416 -0.0069  0.2637
  893MOL0     C20451   1.901   5.965   2.461 -0.5221  0.4163 -1.1210
  893MOL0     C20452   1.914   6.083   2.535 -1.1890  0.1975 -0.8072
  893MOL0     C20453   1.926   6.208   2.487  0.2647 -0.1201  0.2333
  893MOL0     C20454   1.949   6.217   2.351 -0.6332 -0.1467 -0.9397
  893MOL0     O20455   1.949   6.329   2.277  0.3212  0.0319  0.2467
  893MOL0     C20456   1.920   6.454   2.342 -0.3796 -1.1408 -0.3195
  893MOL0     C20457   1.942   6.564   2.232  0.2555  0.0565  0.0786
  893MOL0     C20458   1.886   6.702   2.273 -0.3025  0.4121  0.2237
  893MOL0     C20459   1.958   6.770   2.396  0.2657  0.7731 -0.6157
  893MOL0     C20460   1.877   6.891   2.430 -0.2587  0.2614 -0.1157
  893MOL0     C20461   1.929   6.955   2.554  0.1351  0.3657  0.7148
  893MOL0     C20462   1.910   7.101   2.548  0.4426 -0.1322 -0.3296
  893MOL0     C20463   1.904   7.156   2.695  0.4087  0.8587  0.3631
  893MOL0    Cl20464   1.915   7.341   2.690 -0.0516  0.0940  0.4225
  893MOL0     C20465   1.952   6.103   2.262 -0.2229  0.5710 -0.4709
  893MOL0     C20466   1.926   5.976   2.328  0.0457 -0.0681  0.2060
  893MOL0     O20467   1.790   5.712   2.357 -0.7796 -0.0583 -0.2360
  893MOL0     C20468   1.842   5.491   2.529  0.3506 -0.3746  0.6188
  893MOL0     C20469   1.863   5.388   2.614  0.3310  0.6487  0.1474
  893MOL0     N20470   2.158   4.893   2.632  0.0077 -0.2969  0.0037
  893MOL0     N20471   2.189   4.864   2.518  0.2313 -0.4029  0.8532
  893MOL0     C20472   3.414   4.979   2.599  0.4103 -0.5445 -0.9757
  893MOL0     C20473   3.536   4.978   2.652 -0.2737 -0.3710 -0.1839
  893MOL0     C20474   3.875   5.059   2.959  0.4785  0.4020  0.7293
  893MOL0     C20475   3.909   5.134   3.068  0.9001 -0.5162 -1.2201
  893MOL0     C20476   4.033   5.131   3.132  0.5364  0.1310 -0.5357
  893MOL0     C20477   4.139   5.072   3.065  0.3150  0.6881  0.2077
  893MOL0     O20478   4.267   5.076   3.123  0.1673 -0.1294  0.2408
  893MOL0     C20479   4.379   5.012   3.060 -0.0588  0.5552 -0.1723
  893MOL0     C20480   4.507   5.064   3.126  1.0606  1.0735  0.6840
  893MOL0     C20481   4.529   5.215   3.114 -0.4832  0.3857 -0.3721
  893MOL0     C20482   4.651   5.242   3.200 -0.8145 -0.5544 -0.7628
  893MOL0     C20483   4.774   5.220   3.120  0.2271 -0.4145 -0.4399
  893MOL0     C20484   4.854   5.188   3.041 -1.3621 -0.6715 -0.0578
  893MOL0     C20485   4.112   4.994   2.949 -1.3384 -0.5357 -0.4911
  893MOL0     C20486   3.979   4.980   2.896 -0.0104 -0.6304 -0.1356
  893MOL0     C20487   3.962   4.882   2.782 -1.2914  0.0659 -0.0418
  893MOL0     H20488   3.462   4.886   2.967 -3.9362  0.6623  1.1542
  893MOL0     H20489   3.225   4.868   2.852  1.1947 -3.6645 -0.5646
  893MOL0     H20490   3.074   5.041   2.729  1.9184 -1.2295  1.0994
  893MOL0     H20491   2.984   4.977   2.580 -3.0741 -2.1122  2.1626
  893MOL0     H20492   2.931   4.868   2.816  0.2170  1.9342 -1.3930
  893MOL0     H20493   3.080   4.770   2.780  0.2947 -0.4522 -0.5296
  893MOL0     H20494   2.879   4.653   2.722 -0.9703  0.9638  1.1181
  893MOL0     H20495   2.969   4.695   2.573  0.9570 -0.7452  0.9085
  893MOL0     H20496   2.726   4.830   2.694 -0.1074 -2.3023  0.7047
  893MOL0     H20497   2.799   4.882   2.548  1.1833 -0.2323 -0.7673
  893MOL0     H20498   2.745   4.685   2.433  0.6574  1.4381  0.9525
  893MOL0     H20499   2.709   4.589   2.583 -0.8357 -0.5883 -1.3778
  893MOL0     H20500   2.510   4.631   2.469 -1.4716 -0.3195  1.4729
  893MOL0     H20501   2.489   4.737   2.603 -1.6636  0.1333 -0.9302
  893MOL0     H20502   2.592   4.810   2.327  1.9759  2.1417  1.1776
  893MOL0     H20503   2.601   4.925   2.453  3.1411 -1.5560  1.1178
  893MOL0     H20504   2.404   4.974   2.332 -1.9744  1.2194  2.0863
  893MOL0     H20505   2.344   4.815   2.316 -1.5857 -1.4591  2.5476
  893MOL0     H20506   2.456   5.011   2.642 -0.9885  4.5548  1.5822
  893MOL0     H20507   2.213   4.921   2.888 -2.2101 -0.2231 -0.7099
  893MOL0     H20508   2.336   5.050   2.867 -2.5347  2.6700  2.6197
  893MOL0     H20509   2.108   5.129   2.960  1.9587 -0.7840 -0.0912
  893MOL0     H20510   2.164   5.226   2.825 -0.2574 -0.1341 -0.4370
  893MOL0     H20511   1.964   4.996   2.780  1.3734 -0.5376 -1.7976
  893MOL0     H20512   2.011   5.122   2.669  1.5284  1.5425  0.0575
  893MOL0     H20513   1.859   5.162   2.940  0.9367  0.0597 -0.1084
  893MOL0     H20514   1.788   5.190   2.778 -1.0643  5.1374  1.2604
  893MOL0     H20515   1.991   5.565   2.873 -0.9790  2.4822 -0.7593
  893MOL0     H20516   2.014   5.735   2.713  1.2084 -0.6214 -0.9650
  893MOL0     H20517   1.899   6.064   2.641 -2.9498  0.3158 -1.0067
  893MOL0     H20518   1.936   6.293   2.554  1.1764 -0.1371  0.1440
  893MOL0     H20519   1.814   6.447   2.367 -0.5236 -0.2622 -0.6465
  893MOL0     H20520   1.990   6.471   2.425  0.0351  0.6671 -0.9774
  893MOL0     H20521   2.043   6.568   2.192  1.3498 -1.4435  2.4822
  893MOL0     H20522   1.875   6.540   2.148 -1.1888 -0.7703  1.4144
  893MOL0     H20523   1.891   6.776   2.192  0.2582  1.9769  1.6266
  893MOL0     H20524   1.781   6.689   2.300  0.2796  1.4056  3.4500
  893MOL0     H20525   2.061   6.799   2.374  0.9312  0.9640  2.3317
  893MOL0     H20526   1.960   6.706   2.485  2.4849  3.1016  1.1320
  893MOL0     H20527   1.778   6.845   2.440  0.6721 -2.0896 -1.0515
  893MOL0     H20528   1.888   6.955   2.342  0.2344 -2.3396 -2.0558
  893MOL0     H20529   1.887   6.922   2.650 -0.7921 -1.9417 -0.4292
  893MOL0     H20530   2.035   6.939   2.576  0.5331  1.8640 -0.0369
  893MOL0     H20531   1.822   7.138   2.494  0.3485  1.4554  0.8154
  893MOL0     H20532   1.999   7.142   2.499  2.2710 -3.3488  0.0646
  893MOL0     H20533   1.806   7.135   2.739  0.4696 -0.9433 -0.2747
  893MOL0     H20534   1.975   7.118   2.769 -2.1603  1.2273  3.1919
  893MOL0     H20535   1.956   6.127   2.156 -0.6359 -1.7200 -1.0378
  893MOL0     H20536   1.908   5.894   2.260 -0.7899  1.0199 -0.9320
  893MOL0     H20537   1.798   5.466   2.433  0.1160  1.5252  0.1938
  893MOL0     H20538   1.827   5.288   2.591  1.6689  0.3325 -0.7514
  893MOL0     H20539   3.403   5.006   2.494 -1.1451 -4.0229 -1.8875
  893MOL0     H20540   3.623   5.001   2.590  1.8690 -1.4128  2.2286
  893MOL0     H20541   3.832   5.199   3.108  0.7207 -0.7823 -1.1300
  893MOL0     H20542   4.035   5.174   3.232 -1.3274  0.1031 -0.4413
  893MOL0     H20543   4.379   5.025   2.952 -1.2765  3.3938  0.0518
  893MOL0     H20544   4.376   4.905   3.079 -0.4468  0.2881 -1.6248
  893MOL0     H20545   4.590   5.017   3.072 -1.3210 -3.7389  0.7303
  893MOL0     H20546   4.507   5.022   3.227 -3.6941 -3.4505 -0.7629
  893MOL0     H20547   4.442   5.261   3.161  0.2637  0.1746  1.2827
  893MOL0     H20548   4.539   5.259   3.014 -0.1463 -1.2457 -1.0918
  893MOL0     H20549   4.651   5.345   3.238  3.4180 -0.7840  0.3062
  893MOL0     H20550   4.654   5.176   3.286  0.9143 -0.7009 -0.9016
  893MOL0     H20551   4.931   5.156   2.973  0.1300 -0.1082  1.3053
  893MOL0     H20552   4.196   4.940   2.906  0.1066  3.1471 -2.7530
  893MOL0     H20553   3.924   4.939   2.697 -1.3719 -1.4083 -1.0418
  893MOL0     H20554   4.059   4.844   2.749 -1.6897 -1.5724  0.5642
  893MOL0     H20555   3.911   4.788   2.804 -1.1086  0.4188  2.0703
  894MOL0     O20556   6.204   9.964   2.115 -0.2216 -0.4421 -0.9621
  894MOL0     C20557   6.169  10.030   2.209 -0.1738  0.8579 -0.6704
  894MOL0     O20558   6.207  10.005   2.336  0.5669 -0.2278  0.0044
  894MOL0     C20559   6.314   9.922   2.344 -0.9365 -0.1319 -1.0467
  894MOL0     C20560   6.436   9.933   2.272  0.5329 -1.1440  0.6536
  894MOL0     C20561   6.523   9.826   2.276 -0.5437  0.0338 -0.7683
  894MOL0     C20562   6.505   9.712   2.361  0.2386  0.5352  0.1167
  894MOL0     O20563   6.591   9.605   2.367  0.2364  0.3179 -0.8580
  894MOL0     C20564   6.727   9.630   2.331  0.8721  0.0170 -0.0352
  894MOL0     C20565   6.833   9.536   2.392  0.1926 -0.9491  0.2107
  894MOL0     C20566   6.781   9.392   2.415  0.1588 -0.5785  0.4554
  894MOL0     C20567   6.913   9.296   2.401  0.4432  0.0774 -0.5843
  894MOL0     C20568   6.870   9.150   2.430 -0.3175  0.2261  0.5123
  894MOL0     C20569   6.994   9.054   2.432 -0.0583  0.2015 -0.0946
  894MOL0     C20570   7.061   9.022   2.295 -0.1994 -0.6520 -0.3881
  894MOL0     C20571   7.152   9.131   2.236 -0.2157 -0.1976 -0.5594
  894MOL0     N20572   7.280   9.074   2.186 -0.0352 -0.0594  0.4266
  894MOL0     C20573   7.298   8.994   2.079 -0.6983  0.5375 -0.8052
  894MOL0     C20574   7.424   8.934   2.092  0.5798 -0.0734  0.3549
  894MOL0     C20575   7.490   8.825   2.010 -0.6042 -0.3366 -1.5746
  894MOL0     C20576   7.540   8.857   1.870 -0.0767  0.6288  0.4562
  894MOL0     C20577   7.656   8.958   1.856  0.0292 -0.4349  0.3848
  894MOL0     C20578   7.785   8.898   1.909  0.5509 -0.2301 -0.6782
  894MOL0     O20579   7.902   8.942   1.834 -0.3420  0.7037 -0.2710
  894MOL0     C20580   7.915   8.882   1.709 -0.9818 -0.1257  1.1457
  894MOL0     C20581   7.880   8.758   1.667 -0.0257 -0.2096 -0.2926
  894MOL0     C20582   7.911   8.717   1.541  0.0752  0.0979  0.1643
  894MOL0     C20583   7.984   8.801   1.451  0.1328 -0.1915  0.3589
  894MOL0     C20584   8.049   8.765   1.323  0.1127 -0.1974 -0.2073
  894MOL0     O20585   8.039   8.635   1.288  0.1532 -0.2992 -0.2851
  894MOL0     C20586   8.132   8.583   1.199  1.1521  0.2571  0.1680
  894MOL0     C20587   8.069   8.518   1.097  0.2016  0.7205  0.9510
  894MOL0     C20588   8.148   8.468   0.988 -0.1214 -0.8137  0.1724
  894MOL0     C20589   8.285   8.496   0.985  0.1998 -0.3889 -0.5161
  894MOL0     O20590   8.339   8.467   0.863  0.8204  0.9549 -0.0325
  894MOL0     C20591   8.468   8.519   0.842 -0.0232  0.0273 -0.1903
  894MOL0     C20592   8.537   8.455   0.722 -0.0985  0.6108  0.1053
  894MOL0     C20593   8.561   8.307   0.760  0.1389 -0.1294  0.6145
  894MOL0     C20594   8.625   8.232   0.644 -0.0799  0.4541  0.6133
  894MOL0     C20595   8.648   8.085   0.682  0.9584 -1.3908  0.2462
  894MOL0     C20596   8.693   7.995   0.570  0.1065 -0.1142 -0.2012
  894MOL0     C20597   8.709   7.849   0.626  0.1811  0.4446  0.4481
  894MOL0     C20598   8.804   7.761   0.541  0.0263  0.0287  0.2913
  894MOL0    Cl20599   8.977   7.781   0.584  0.2643  0.4427  0.1257
  894MOL0     C20600   8.339   8.573   1.091  0.4910 -0.6670  0.0493
  894MOL0     C20601   8.267   8.605   1.206  0.9551 -0.2236 -0.1023
  894MOL0     O20602   8.125   8.849   1.271  0.6096 -0.0860  0.1627
  894MOL0     C20603   8.007   8.936   1.493 -0.3697 -0.2238  0.1635
  894MOL0     C20604   7.965   8.975   1.616  0.2799 -0.2686  0.1148
  894MOL0     N20605   7.471   8.987   2.208 -0.0151 -0.1417 -1.5996
  894MOL0     N20606   7.391   9.075   2.259  0.2808 -0.5855  0.3251
  894MOL0     C20607   6.394   9.721   2.443 -0.5642  0.6098 -0.5178
  894MOL0     C20608   6.293   9.809   2.426 -0.0275  0.4395  0.6935
  894MOL0     C20609   6.069  10.139   2.185 -0.0542  0.7513 -0.2367
  894MOL0     C20610   6.061  10.232   2.291  1.0712 -0.0324 -0.4412
  894MOL0     C20611   5.959  10.322   2.302  0.0825  0.5704  0.7936
  894MOL0     C20612   5.861  10.346   2.204 -0.0340  0.3536  1.2202
  894MOL0     O20613   5.755  10.437   2.210 -0.2184 -0.5986 -0.1367
  894MOL0     C20614   5.790  10.563   2.246 -0.9203 -0.3410  0.1816
  894MOL0     C20615   5.679  10.661   2.203 -0.2269  0.0703  0.0587
  894MOL0     C20616   5.695  10.804   2.254  0.4800  0.4807 -0.6058
  894MOL0     C20617   5.804  10.880   2.184 -0.5073 -0.5783 -0.2598
  894MOL0     C20618   5.841  10.994   2.266 -0.1376  0.6710  0.5745
  894MOL0     C20619   5.876  11.088   2.329 -0.7888  0.3560  0.9113
  894MOL0     C20620   5.867  10.251   2.098  0.5126 -0.5176  0.4553
  894MOL0     C20621   5.971  10.159   2.085 -0.3427 -0.3021  0.5172
  894MOL0     C20622   5.956  10.057   1.972  0.6157 -0.8687  0.8539
  894MOL0     H20623   6.451  10.025   2.217  1.3727 -0.9943  1.1230
  894MOL0     H20624   6.603   9.824   2.204  0.4128 -0.3390  0.2666
  894MOL0     H20625   6.722   9.619   2.222 -1.4182  0.0348  0.0258
  894MOL0     H20626   6.743   9.735   2.359 -2.3948  0.8382 -0.7791
  894MOL0     H20627   6.861   9.592   2.481 -1.3570 -1.0496  0.7919
  894MOL0     H20628   6.916   9.533   2.321  2.2989 -1.3343  2.5684
  894MOL0     H20629   6.712   9.365   2.334 -0.7934  1.7467  0.4172
  894MOL0     H20630   6.737   9.378   2.514 -1.3623  3.1144  0.4506
  894MOL0     H20631   6.959   9.306   2.303 -1.5103 -0.2219 -1.5706
  894MOL0     H20632   6.973   9.332   2.485 -2.0002 -1.1011  1.8525
  894MOL0     H20633   6.818   9.139   2.526 -1.4867 -0.4199 -0.1716
  894MOL0     H20634   6.812   9.106   2.349  2.8927 -1.6377 -0.9449
  894MOL0     H20635   7.068   9.109   2.490 -1.0032  1.3112  0.0809
  894MOL0     H20636   6.963   8.959   2.478  1.8093 -0.9523 -1.1250
  894MOL0     H20637   6.980   8.997   2.225 -1.0153 -4.0470  1.5015
  894MOL0     H20638   7.107   8.927   2.323 -3.2343 -1.8633  0.9510
  894MOL0     H20639   7.093   9.175   2.155  2.9334  1.2671 -2.2054
  894MOL0     H20640   7.167   9.212   2.308  3.3869  0.0601 -1.4187
  894MOL0     H20641   7.225   8.970   2.002 -1.7598  1.6132 -0.1685
  894MOL0     H20642   7.565   8.770   2.068 -2.1032  0.5900  1.4753
  894MOL0     H20643   7.408   8.755   1.993 -0.7347 -0.2999 -1.1295
  894MOL0     H20644   7.553   8.766   1.811 -1.2633 -0.5204  1.9150
  894MOL0     H20645   7.447   8.904   1.836 -0.5222  0.1413  0.9781
  894MOL0     H20646   7.640   9.052   1.910  2.5535 -0.3403  1.1156
  894MOL0     H20647   7.662   8.986   1.751 -0.9944  0.8294  0.6393
  894MOL0     H20648   7.779   8.790   1.923 -1.5673 -0.0327  0.3089
  894MOL0     H20649   7.804   8.915   2.015 -0.7029 -1.7092 -0.1695
  894MOL0     H20650   7.844   8.682   1.736 -1.0741 -0.2606 -0.8679
  894MOL0     H20651   7.877   8.620   1.506  0.4192  0.4853 -1.3083
  894MOL0     H20652   7.963   8.497   1.092  0.5198 -1.1925  1.3312
  894MOL0     H20653   8.111   8.397   0.915  3.3389 -3.7810  0.9994
  894MOL0     H20654   8.448   8.626   0.834  0.7182  0.1093 -1.0670
  894MOL0     H20655   8.523   8.504   0.935 -2.0611 -2.7376  0.7118
  894MOL0     H20656   8.482   8.452   0.627  0.2776 -0.5883 -0.0982
  894MOL0     H20657   8.631   8.506   0.698 -0.1945  1.3458  1.2736
  894MOL0     H20658   8.622   8.313   0.851 -1.9575  2.0156  1.9884
  894MOL0     H20659   8.466   8.260   0.788  0.7963 -1.3957  0.8193
  894MOL0     H20660   8.716   8.285   0.614 -1.5929  2.4195 -0.7995
  894MOL0     H20661   8.561   8.224   0.556 -2.6184 -0.9321  2.4592
  894MOL0     H20662   8.560   8.032   0.718  0.8405 -2.7518 -1.8437
  894MOL0     H20663   8.722   8.078   0.762 -0.4774  0.7621  1.8688
  894MOL0     H20664   8.611   8.000   0.498  0.0812  0.8435 -0.1175
  894MOL0     H20665   8.788   8.028   0.526 -0.4164 -0.3232 -1.5306
  894MOL0     H20666   8.608   7.807   0.619  0.1540  0.5445  0.2067
  894MOL0     H20667   8.749   7.860   0.727  3.6743 -1.3583 -0.5988
  894MOL0     H20668   8.776   7.656   0.553  1.2427 -0.1598  1.8671
  894MOL0     H20669   8.791   7.783   0.435  1.7939 -1.9557 -0.4180
  894MOL0     H20670   8.444   8.599   1.090  0.2796  0.2089 -0.2838
  894MOL0     H20671   8.305   8.660   1.291 -0.3808  0.9258 -0.1991
  894MOL0     H20672   8.056   9.007   1.427  0.1283 -0.4179  0.3175
  894MOL0     H20673   7.986   9.075   1.653 -3.2728  1.7599 -2.6892
  894MOL0     H20674   6.379   9.635   2.508 -1.2843  0.2057 -1.2074
  894MOL0     H20675   6.206   9.791   2.488 -2.0405  0.7582 -1.8741
  894MOL0     H20676   6.128  10.216   2.375  1.7049  1.2357 -0.6834
  894MOL0     H20677   5.945  10.372   2.397 -1.5097 -2.2715  2.2028
  894MOL0     H20678   5.879  10.589   2.187 -1.1984  1.2307  0.4127
  894MOL0     H20679   5.808  10.576   2.353 -1.5000  0.0247  0.2386
  894MOL0     H20680   5.579  10.624   2.228 -0.8985  0.7013 -1.6080
  894MOL0     H20681   5.683  10.672   2.094  1.4901  0.3238  0.1198
  894MOL0     H20682   5.700  10.790   2.362 -5.3051  1.2876  0.1084
  894MOL0     H20683   5.601  10.856   2.231  0.5093  0.5865 -0.4820
  894MOL0     H20684   5.889  10.817   2.154  1.0845  0.9524  0.8747
  894MOL0     H20685   5.764  10.914   2.088  4.5651 -0.8127 -2.8105
  894MOL0     H20686   5.906  11.175   2.385  1.5147  0.1763  0.0646
  894MOL0     H20687   5.788  10.253   2.023 -1.1044 -1.1644  2.0812
  894MOL0     H20688   5.865  10.086   1.919 -0.0022 -0.7825  1.9238
  894MOL0     H20689   6.039  10.056   1.901  0.7335  0.8321  0.9342
  894MOL0     H20690   5.943   9.960   2.021  0.6926 -0.4627  1.7010
  895MOL0     O20691   7.505  10.452   1.318  0.2103  0.7662 -1.2531
  895MOL0     C20692   7.588  10.406   1.402 -0.1410  0.0077  0.1113
  895MOL0     O20693   7.717  10.450   1.415  0.5084  0.3815  0.0053
  895MOL0     C20694   7.752  10.551   1.323  1.2236 -0.4578 -0.3410
  895MOL0     C20695   7.823  10.523   1.211 -0.2153  1.0278 -0.3585
  895MOL0     C20696   7.880  10.622   1.136  0.3527 -0.0175 -0.0463
  895MOL0     C20697   7.851  10.756   1.160 -0.1480 -0.3950 -0.6186
  895MOL0     O20698   7.898  10.863   1.088 -0.0275 -0.4936 -1.0335
  895MOL0     C20699   8.040  10.859   1.085  0.3903 -1.3396 -0.7200
  895MOL0     C20700   8.087  11.005   1.093 -0.2910 -0.5759  0.6151
  895MOL0     C20701   8.239  11.029   1.088 -0.3017 -0.9343  0.4319
  895MOL0     C20702   8.284  11.173   1.136 -0.3823  0.1367  1.1681
  895MOL0     C20703   8.430  11.194   1.102 -0.6696  0.9486  0.0568
  895MOL0     C20704   8.469  11.340   1.117  0.5808  0.7602 -0.3716
  895MOL0     C20705   8.609  11.364   1.051  0.0082  0.7116 -0.6061
  895MOL0     C20706   8.600  11.458   0.924 -0.1559  0.0637 -0.2782
  895MOL0     N20707   8.545  11.389   0.805 -0.9769 -0.1768  0.0566
  895MOL0     C20708   8.616  11.344   0.697  0.1766  0.4358  0.7599
  895MOL0     C20709   8.531  11.332   0.602  0.4788 -0.0572 -0.3421
  895MOL0     C20710   8.573  11.288   0.467  0.4055  0.3289 -0.1978
  895MOL0     C20711   8.546  11.138   0.434 -0.7114 -0.0144 -0.7104
  895MOL0     C20712   8.657  11.090   0.332 -0.0852  0.2692 -0.5243
  895MOL0     C20713   8.663  11.166   0.192 -0.9751  0.0906 -0.6295
  895MOL0     O20714   8.533  11.166   0.130 -0.0295  0.0937 -0.2085
  895MOL0     C20715   8.511  11.230   0.011  0.5759 -0.3512  0.5490
  895MOL0     C20716   8.388  11.224  -0.043 -0.1525  1.0354 -0.1814
  895MOL0     C20717   8.353  11.283  -0.166  0.9546 -0.4856 -0.2484
  895MOL0     C20718   8.443  11.355  -0.237 -0.0687  1.3828  0.1415
  895MOL0     C20719   8.412  11.418  -0.369  0.3940  0.7285 -0.5730
  895MOL0     O20720   8.278  11.408  -0.412 -0.0422  0.3451  0.0342
  895MOL0     C20721   8.240  11.445  -0.539  0.3091  0.0506 -1.5386
  895MOL0     C20722   8.316  11.497  -0.644 -0.9159 -0.3341 -0.6470
  895MOL0     C20723   8.251  11.525  -0.767 -0.2628 -0.8589 -0.3882
  895MOL0     C20724   8.114  11.485  -0.790  0.0018 -1.2918 -0.4218
  895MOL0     O20725   8.065  11.513  -0.914 -0.3505  0.2936  1.0988
  895MOL0     C20726   7.942  11.450  -0.962  0.6816 -0.0921  0.2230
  895MOL0     C20727   7.876  11.523  -1.072 -0.3294 -0.5655  1.2021
  895MOL0     C20728   7.747  11.458  -1.140 -0.4104  0.4707 -0.2104
  895MOL0     C20729   7.668  11.564  -1.218 -0.2020 -0.1730  0.2940
  895MOL0     C20730   7.551  11.506  -1.303 -0.8328  0.2493  1.3255
  895MOL0     C20731   7.463  11.397  -1.235  0.2474 -0.6072  0.3118
  895MOL0     C20732   7.342  11.359  -1.320  0.0001 -0.3616 -0.2862
  895MOL0     C20733   7.226  11.461  -1.293 -0.7284  0.5143  0.0667
  895MOL0    Cl20734   7.067  11.422  -1.365 -0.3328  0.2908 -0.3591
  895MOL0     C20735   8.040  11.433  -0.680 -0.2524 -0.2065 -0.2488
  895MOL0     C20736   8.102  11.422  -0.555  0.0965  0.7971  0.6541
  895MOL0     O20737   8.502  11.459  -0.432 -0.7161 -0.5626 -0.3144
  895MOL0     C20738   8.578  11.358  -0.188  0.1497  0.0752 -0.3038
  895MOL0     C20739   8.609  11.294  -0.061  1.0106 -1.0551 -0.1935
  895MOL0     N20740   8.402  11.355   0.652 -0.1068  0.9720 -0.3880
  895MOL0     N20741   8.415  11.390   0.772  0.0926 -0.3991  0.5811
  895MOL0     C20742   7.775  10.786   1.277 -0.0373 -0.2630  0.3444
  895MOL0     C20743   7.721  10.684   1.351  0.2103 -1.0755  0.2853
  895MOL0     C20744   7.547  10.288   1.485 -0.1626  0.9339  0.1321
  895MOL0     C20745   7.416  10.300   1.539 -0.1160  0.5571  0.2220
  895MOL0     C20746   7.376  10.203   1.629  0.8388 -0.8903 -0.0558
  895MOL0     C20747   7.455  10.093   1.663 -0.0725 -0.0442 -0.2488
  895MOL0     O20748   7.390  10.004   1.747 -0.3557  0.7252  0.5243
  895MOL0     C20749   7.462   9.884   1.780  0.8191 -0.3665 -0.1612
  895MOL0     C20750   7.377   9.790   1.866  0.2464 -0.2739  0.2445
  895MOL0     C20751   7.317   9.857   1.997 -1.1676  0.2443 -0.1891
  895MOL0     C20752   7.267   9.760   2.098  0.9407  0.0074 -0.8231
  895MOL0     C20753   7.138   9.697   2.045  0.2284 -0.7708 -0.5715
  895MOL0     C20754   7.041   9.644   1.990  0.3920  0.0413 -0.2743
  895MOL0     C20755   7.578  10.078   1.607  0.4830  0.8811  1.3137
  895MOL0     C20756   7.622  10.173   1.513 -0.6683  0.3570 -0.2984
  895MOL0     C20757   7.752  10.142   1.444 -0.1579  0.6323 -0.1983
  895MOL0     H20758   7.823  10.416   1.193  2.6516  1.1136 -1.3312
  895MOL0     H20759   7.948  10.599   1.054  2.0664 -3.2153  2.0949
  895MOL0     H20760   8.086  10.802   1.166  0.5943 -0.5862 -0.2953
  895MOL0     H20761   8.068  10.816   0.988  1.2886  0.4159 -1.2889
  895MOL0     H20762   8.061  11.046   1.190  0.2783  1.1697  0.0611
  895MOL0     H20763   8.039  11.051   1.005  0.2373  0.7523  1.0047
  895MOL0     H20764   8.287  11.009   0.991  3.7851  1.7180  1.6591
  895MOL0     H20765   8.284  10.963   1.162  2.9673  2.0054  1.3239
  895MOL0     H20766   8.222  11.246   1.084  1.0960 -0.2186 -1.2599
  895MOL0     H20767   8.277  11.181   1.245  0.7571  0.1364  1.2570
  895MOL0     H20768   8.491  11.120   1.156 -1.8496  0.4918  0.8021
  895MOL0     H20769   8.437  11.166   0.997  1.5244  0.4896  0.2770
  895MOL0     H20770   8.397  11.417   1.089 -2.6368  0.0559  4.6752
  895MOL0     H20771   8.475  11.345   1.226  3.7958 -1.7166 -0.3012
  895MOL0     H20772   8.658  11.267   1.041  1.3434  0.9640  2.4819
  895MOL0     H20773   8.665  11.419   1.127  0.1120  0.8156 -0.7589
  895MOL0     H20774   8.542  11.549   0.945 -0.9153 -0.1885 -1.2129
  895MOL0     H20775   8.699  11.495   0.896  1.1524 -1.1089  2.4343
  895MOL0     H20776   8.722  11.326   0.682  0.4808  1.2392  1.8084
  895MOL0     H20777   8.530  11.351   0.388  3.4342  0.2268 -2.1015
  895MOL0     H20778   8.677  11.317   0.452 -0.2575  3.9047  0.9044
  895MOL0     H20779   8.529  11.076   0.522  4.5911 -0.5334  0.2599
  895MOL0     H20780   8.450  11.132   0.381 -0.6706  0.2075 -0.8118
  895MOL0     H20781   8.648  10.983   0.309  1.9766 -0.1009  0.1254
  895MOL0     H20782   8.750  11.102   0.389 -0.4830 -0.9757  0.4230
  895MOL0     H20783   8.740  11.135   0.121 -0.0269  0.9311  0.0093
  895MOL0     H20784   8.693  11.271   0.205  1.9110 -0.7971  0.6332
  895MOL0     H20785   8.309  11.171   0.009 -2.1403 -0.7704 -4.4568
  895MOL0     H20786   8.249  11.271  -0.196  0.7324  0.2316  0.2095
  895MOL0     H20787   8.421  11.522  -0.644 -0.9842 -0.0523 -0.3467
  895MOL0     H20788   8.305  11.565  -0.852 -2.8860  1.2241 -1.2152
  895MOL0     H20789   7.975  11.354  -1.004 -0.3528  0.3319 -1.6914
  895MOL0     H20790   7.862  11.431  -0.889  0.4960  1.1801  0.3721
  895MOL0     H20791   7.849  11.626  -1.048 -0.6164 -0.5612  0.8741
  895MOL0     H20792   7.952  11.535  -1.151 -1.6388  0.7907  0.0824
  895MOL0     H20793   7.771  11.374  -1.205  0.0688 -0.4063  1.0438
  895MOL0     H20794   7.685  11.414  -1.061  2.0316  0.0310  1.5779
  895MOL0     H20795   7.723  11.621  -1.293 -0.3318  1.2244  1.2318
  895MOL0     H20796   7.625  11.635  -1.146 -2.4174 -2.3795  1.3054
  895MOL0     H20797   7.594  11.458  -1.391 -0.7439 -1.6902  2.3705
  895MOL0     H20798   7.492  11.586  -1.350  0.4517  0.4304 -0.0574
  895MOL0     H20799   7.509  11.304  -1.203  1.8722  0.4431  1.1853
  895MOL0     H20800   7.425  11.437  -1.141  2.5549 -0.0591  1.0690
  895MOL0     H20801   7.313  11.257  -1.293 -0.1772 -0.2863 -0.1856
  895MOL0     H20802   7.360  11.376  -1.426 -0.9447 -0.0641 -0.4065
  895MOL0     H20803   7.204  11.431  -1.190 -2.0313 -0.0560 -0.3568
  895MOL0     H20804   7.261  11.563  -1.308  3.6054 -0.6435  0.9828
  895MOL0     H20805   7.937  11.402  -0.698  0.2740 -0.6728 -2.7897
  895MOL0     H20806   8.044  11.374  -0.478 -1.0348  0.9453 -0.0808
  895MOL0     H20807   8.648  11.430  -0.231 -1.3295  2.0509  0.4155
  895MOL0     H20808   8.710  11.311  -0.026  0.1192 -0.3239  2.2451
  895MOL0     H20809   7.760  10.889   1.308 -0.6963  0.4207 -2.0219
  895MOL0     H20810   7.676  10.701   1.448 -0.5432 -0.2355 -0.1982
  895MOL0     H20811   7.352  10.386   1.523  1.5732  1.8735  0.2316
  895MOL0     H20812   7.275  10.208   1.669  0.4531  3.0520 -1.0744
  895MOL0     H20813   7.558   9.894   1.832  1.0635 -0.4306 -0.5906
  895MOL0     H20814   7.489   9.833   1.687 -0.8552 -0.1153 -0.8254
  895MOL0     H20815   7.446   9.708   1.887  5.3203  2.6853 -2.8947
  895MOL0     H20816   7.296   9.760   1.799  1.6612 -0.2777 -1.5059
  895MOL0     H20817   7.237   9.923   1.961 -1.2672 -0.7570 -1.9194
  895MOL0     H20818   7.398   9.920   2.035  0.6077 -0.4895 -2.4850
  895MOL0     H20819   7.336   9.679   2.124 -0.0808 -0.9858 -1.1516
  895MOL0     H20820   7.251   9.818   2.190  1.7564  0.6286 -1.0565
  895MOL0     H20821   6.955   9.609   1.937 -1.4144  0.9405  1.8808
  895MOL0     H20822   7.637   9.988   1.620 -0.5538 -0.2822 -1.4536
  895MOL0     H20823   7.829  10.212   1.478  0.4228  0.5765 -1.3551
  895MOL0     H20824   7.780  10.039   1.466 -0.5907  0.7999  1.2406
  895MOL0     H20825   7.750  10.143   1.335  1.8438  2.3111 -0.2888
  896MOL0     O20826   4.869   4.922   0.028  0.1528  0.0947  0.5543
  896MOL0     C20827   4.950   4.922  -0.065 -0.1965 -0.2066  0.3040
  896MOL0     O20828   4.994   5.036  -0.124 -0.3052  0.3785 -0.1760
  896MOL0     C20829   4.916   5.146  -0.128  0.1905 -0.5398 -0.2631
  896MOL0     C20830   4.984   5.267  -0.140  1.0773  0.0931  0.0463
  896MOL0     C20831   4.912   5.387  -0.127  0.4763 -1.0569  0.3335
  896MOL0     C20832   4.776   5.392  -0.132  0.4624  0.0038  0.2961
  896MOL0     O20833   4.704   5.507  -0.140 -0.2694  0.2172  0.2423
  896MOL0     C20834   4.763   5.637  -0.148 -0.1204 -0.1848  0.3844
  896MOL0     C20835   4.670   5.739  -0.212  1.2565  0.1295 -0.5464
  896MOL0     C20836   4.540   5.746  -0.125 -0.0716  0.0251  0.7479
  896MOL0     C20837   4.578   5.806   0.015  0.0713  0.3553 -0.2027
  896MOL0     C20838   4.518   5.944   0.051  0.5037 -0.2505 -0.1531
  896MOL0     C20839   4.550   5.977   0.206  0.1643  0.2812  0.5572
  896MOL0     C20840   4.554   5.855   0.298 -0.1863  0.0573  0.2093
  896MOL0     C20841   4.605   5.915   0.430  0.7175  0.7667 -0.1066
  896MOL0     N20842   4.605   5.819   0.543 -0.2322 -0.1629  0.4340
  896MOL0     C20843   4.631   5.681   0.538  1.3599 -0.5993  0.2928
  896MOL0     C20844   4.633   5.651   0.670 -0.2351 -0.0350  0.2159
  896MOL0     C20845   4.658   5.504   0.712  0.0460  0.9366  0.7170
  896MOL0     C20846   4.526   5.425   0.713 -0.3397 -0.6109  1.1262
  896MOL0     C20847   4.565   5.283   0.750  0.0505 -0.5549 -0.1275
  896MOL0     C20848   4.448   5.185   0.788  0.7280 -0.4900 -1.0944
  896MOL0     O20849   4.342   5.194   0.694 -0.3331 -0.3587  0.5762
  896MOL0     C20850   4.360   5.135   0.568 -0.3053  0.3644 -0.7650
  896MOL0     C20851   4.290   5.174   0.457 -0.6727 -0.6218 -0.3464
  896MOL0     C20852   4.321   5.135   0.321  0.0742  0.8693 -0.0382
  896MOL0     C20853   4.415   5.031   0.298  0.5922 -0.0010 -0.6833
  896MOL0     C20854   4.441   4.969   0.163  0.1644  0.2147  0.6814
  896MOL0     O20855   4.355   5.008   0.063 -0.0478  0.4078  0.2498
  896MOL0     C20856   4.380   4.975  -0.073 -0.5929 -0.1410  0.1579
  896MOL0     C20857   4.469   4.875  -0.137  0.2660  0.1155  0.4264
  896MOL0     C20858   4.475   4.872  -0.273  0.2142 -0.2519  0.6635
  896MOL0     C20859   4.399   4.954  -0.355  0.2757  0.6271 -0.2815
  896MOL0     O20860   4.418   4.930  -0.484  0.3111 -0.1983  0.1335
  896MOL0     C20861   4.344   4.991  -0.586 -0.0690 -0.2908  0.2376
  896MOL0     C20862   4.426   4.964  -0.714 -0.3594  0.0207 -0.7039
  896MOL0     C20863   4.345   5.007  -0.843  0.3499  0.1462  1.6566
  896MOL0     C20864   4.430   5.078  -0.962 -0.0759 -0.2992 -0.0889
  896MOL0     C20865   4.547   4.987  -1.011 -1.1316  0.2959  0.1838
  896MOL0     C20866   4.634   5.054  -1.114  0.2265  0.3877 -0.3707
  896MOL0     C20867   4.775   4.999  -1.127 -0.7660  0.4638  0.5811
  896MOL0     C20868   4.852   5.015  -0.990 -0.2758 -0.2552  0.2895
  896MOL0    Cl20869   4.865   4.869  -0.898 -0.4190  0.3628  0.0713
  896MOL0     C20870   4.303   5.033  -0.295 -0.4183 -0.2500  0.2443
  896MOL0     C20871   4.291   5.037  -0.158  0.5587 -0.5872  0.0444
  896MOL0     O20872   4.534   4.888   0.146  0.3674 -0.3360  0.4852
  896MOL0     C20873   4.488   4.984   0.414 -0.4769  0.3790  0.6254
  896MOL0     C20874   4.467   5.043   0.538  0.6735 -0.4080 -0.3637
  896MOL0     N20875   4.592   5.756   0.753 -0.0401 -0.0677 -0.8627
  896MOL0     N20876   4.569   5.853   0.671  0.2704 -0.3993  0.6880
  896MOL0     C20877   4.703   5.270  -0.140 -0.9241 -1.5024  0.3495
  896MOL0     C20878   4.778   5.146  -0.138 -0.2127  0.3439 -0.0553
  896MOL0     C20879   5.047   4.807  -0.096  1.0113 -1.2786  0.1674
  896MOL0     C20880   5.176   4.840  -0.138 -0.6523  0.8796 -0.6911
  896MOL0     C20881   5.265   4.748  -0.171  0.5163  0.5046 -0.1178
  896MOL0     C20882   5.224   4.613  -0.168 -0.3508  0.8751  0.6066
  896MOL0     O20883   5.323   4.517  -0.216  0.5159 -0.4953 -0.0756
  896MOL0     C20884   5.290   4.431  -0.325 -0.0619  0.6104  0.6442
  896MOL0     C20885   5.256   4.508  -0.463 -0.2315  0.5964  0.1381
  896MOL0     C20886   5.147   4.430  -0.538 -0.0580  0.4742 -0.1074
  896MOL0     C20887   5.171   4.285  -0.589  0.4081 -0.8930 -0.3272
  896MOL0     C20888   5.296   4.281  -0.674 -0.3673  0.6649  0.8013
  896MOL0     C20889   5.401   4.291  -0.725  0.1173 -0.3913  0.5003
  896MOL0     C20890   5.097   4.573  -0.135  0.4408 -0.1504 -0.4028
  896MOL0     C20891   5.006   4.671  -0.090  0.6515  0.4687 -1.0790
  896MOL0     C20892   4.868   4.621  -0.042  0.1286  0.0059  0.3659
  896MOL0     H20893   5.092   5.272  -0.146  1.4111 -2.7184  1.5788
  896MOL0     H20894   4.961   5.483  -0.141 -4.8384  1.5314 -5.3336
  896MOL0     H20895   4.794   5.674  -0.050 -4.2938 -0.4572  2.0075
  896MOL0     H20896   4.848   5.624  -0.215 -0.2895  0.8664 -0.0493
  896MOL0     H20897   4.640   5.712  -0.313  1.1057  1.0039 -0.7351
  896MOL0     H20898   4.720   5.836  -0.212 -0.2991  1.1058  3.1458
  896MOL0     H20899   4.493   5.648  -0.131  1.3008 -0.6557  0.8986
  896MOL0     H20900   4.459   5.810  -0.164 -1.7950 -3.1348 -1.2635
  896MOL0     H20901   4.539   5.724   0.076 -1.0311  0.3132 -0.9134
  896MOL0     H20902   4.683   5.823   0.040  1.4225 -2.9727 -2.8740
  896MOL0     H20903   4.565   6.009  -0.023  0.4124  0.4652  0.4042
  896MOL0     H20904   4.410   5.940   0.033 -0.1016 -3.8680  2.8972
  896MOL0     H20905   4.654   6.013   0.202  1.3135 -2.7246  1.0391
  896MOL0     H20906   4.486   6.058   0.242  0.2162 -0.4115  2.2678
  896MOL0     H20907   4.628   5.780   0.268 -0.3145 -1.5793  3.5007
  896MOL0     H20908   4.452   5.815   0.304 -1.4572  3.2474  2.3748
  896MOL0     H20909   4.708   5.950   0.416  1.1390  0.3456  1.6380
  896MOL0     H20910   4.550   6.002   0.467 -1.7344 -1.5515  2.1761
  896MOL0     H20911   4.636   5.609   0.457 -1.6317  0.4949 -1.0173
  896MOL0     H20912   4.734   5.462   0.646  0.9161  3.9832 -0.4109
  896MOL0     H20913   4.703   5.510   0.811  1.6733 -2.0824  0.2541
  896MOL0     H20914   4.450   5.460   0.784  1.4594  1.6294  2.0807
  896MOL0     H20915   4.484   5.423   0.612  0.9187 -0.2609  0.5706
  896MOL0     H20916   4.642   5.290   0.827 -0.4550  0.2539  0.3152
  896MOL0     H20917   4.626   5.242   0.669  0.2632  0.3097 -0.4134
  896MOL0     H20918   4.419   5.211   0.890 -0.6820 -1.0663 -1.3258
  896MOL0     H20919   4.487   5.084   0.803  0.5183 -0.3488  0.6723
  896MOL0     H20920   4.210   5.241   0.484  1.1217  1.5324 -0.1303
  896MOL0     H20921   4.258   5.175   0.242 -1.2505  1.0309  1.0551
  896MOL0     H20922   4.552   4.827  -0.086 -0.0025 -0.6451  0.1557
  896MOL0     H20923   4.546   4.805  -0.321 -2.0124 -2.1903 -0.0974
  896MOL0     H20924   4.241   4.953  -0.583 -1.1291  2.4274  1.6115
  896MOL0     H20925   4.333   5.099  -0.578 -0.6400 -0.0478 -2.8292
  896MOL0     H20926   4.524   5.011  -0.709 -1.3054  2.0295  3.2967
  896MOL0     H20927   4.441   4.856  -0.723  0.5381  0.2864 -3.2531
  896MOL0     H20928   4.294   4.918  -0.882 -0.1071 -0.2641  3.1366
  896MOL0     H20929   4.271   5.084  -0.821 -0.6623  0.0181 -0.8997
  896MOL0     H20930   4.474   5.169  -0.920  0.3942  0.8152 -2.8182
  896MOL0     H20931   4.364   5.110  -1.043  1.7318 -1.4432 -2.1265
  896MOL0     H20932   4.512   4.899  -1.066  2.3087 -0.4311 -1.0623
  896MOL0     H20933   4.606   4.950  -0.927 -0.7780 -1.1491 -0.6665
  896MOL0     H20934   4.576   5.042  -1.206 -2.5568 -3.2197  1.5679
  896MOL0     H20935   4.661   5.155  -1.083 -0.0851  0.7413 -1.2465
  896MOL0     H20936   4.827   5.039  -1.215 -0.9164 -3.0257 -1.2523
  896MOL0     H20937   4.776   4.891  -1.143  1.8791  0.9492 -4.5312
  896MOL0     H20938   4.954   5.042  -1.022 -0.7212  0.5690 -0.5016
  896MOL0     H20939   4.817   5.096  -0.926 -0.2473  0.5923 -0.7354
  896MOL0     H20940   4.240   5.095  -0.358 -1.2599  0.9514  2.1719
  896MOL0     H20941   4.211   5.100  -0.119  1.1255  1.7550 -2.3433
  896MOL0     H20942   4.553   4.898   0.412 -2.1962 -1.0904  2.9677
  896MOL0     H20943   4.532   4.997   0.612  0.8203  1.1220  0.5162
  896MOL0     H20944   4.594   5.272  -0.144 -1.0586 -1.5790  2.6725
  896MOL0     H20945   4.722   5.053  -0.136  2.5548 -1.6575 -3.4945
  896MOL0     H20946   5.219   4.939  -0.153  0.9465  0.3700  0.2441
  896MOL0     H20947   5.363   4.764  -0.216  1.4452 -1.9280  0.8602
  896MOL0     H20948   5.198   4.384  -0.288 -0.4882  0.3562 -0.6968
  896MOL0     H20949   5.365   4.355  -0.344 -0.1022  0.8337 -0.4653
  896MOL0     H20950   5.350   4.530  -0.515  0.5661 -1.2063  0.7141
  896MOL0     H20951   5.215   4.606  -0.438 -1.5699 -0.1824  1.1208
  896MOL0     H20952   5.133   4.492  -0.626 -0.1677  1.5619  0.6640
  896MOL0     H20953   5.055   4.429  -0.478 -2.2390 -0.1117 -3.1963
  896MOL0     H20954   5.191   4.217  -0.505  1.7780 -1.7217 -1.2852
  896MOL0     H20955   5.079   4.255  -0.639 -1.4211 -0.2857  2.4478
  896MOL0     H20956   5.492   4.309  -0.779 -0.0599 -2.7991 -0.7118
  896MOL0     H20957   5.069   4.470  -0.116 -0.4277  0.4426  1.7187
  896MOL0     H20958   4.799   4.655  -0.120  1.8677  0.1644 -1.1732
  896MOL0     H20959   4.852   4.513  -0.037 -0.7915  0.1943  1.9039
  896MOL0     H20960   4.843   4.684   0.043  2.8092  2.2804 -0.3593
  897MOL0     O20961  11.110   1.245   2.106 -0.5307  0.7887  1.2158
  897MOL0     C20962  11.020   1.229   2.187 -0.3586 -0.2138 -1.0714
  897MOL0     O20963  11.046   1.208   2.317  0.5121  0.6786 -0.2360
  897MOL0     C20964  11.178   1.185   2.372 -0.8369  0.0406  0.6108
  897MOL0     C20965  11.281   1.118   2.309 -0.2185  0.3674  0.1170
  897MOL0     C20966  11.404   1.107   2.368 -0.9543  0.5646 -0.9312
  897MOL0     C20967  11.436   1.154   2.498 -0.1193 -0.0940 -0.2028
  897MOL0     O20968  11.562   1.142   2.556 -0.0686 -0.6590 -0.6106
  897MOL0     C20969  11.595   1.246   2.659 -0.9879 -0.0040  0.1135
  897MOL0     C20970  11.739   1.237   2.713 -0.4751  0.7181 -0.2475
  897MOL0     C20971  11.776   1.096   2.758  1.3016 -0.0910 -0.1932
  897MOL0     C20972  11.877   1.099   2.877  0.3104 -0.2363  0.2565
  897MOL0     C20973  11.919   0.955   2.922 -1.0316 -0.3912  0.0951
  897MOL0     C20974  11.993   0.966   3.055  0.4744  0.2600  0.2087
  897MOL0     C20975  12.151   0.979   3.039  0.7488 -0.4575 -0.6915
  897MOL0     C20976  12.203   0.998   3.179 -0.3535 -0.0879  0.1066
  897MOL0     N20977  12.174   0.885   3.271  0.2343  0.2775  0.0286
  897MOL0     C20978  12.204   0.748   3.251  1.6672  1.3079  1.5004
  897MOL0     C20979  12.152   0.690   3.362  0.5038 -0.0537  0.0770
  897MOL0     C20980  12.147   0.548   3.388  0.0041  0.1446  0.0195
  897MOL0     C20981  12.282   0.492   3.437 -0.9022 -0.1270  0.5025
  897MOL0     C20982  12.338   0.552   3.568 -0.3784  0.1234 -0.7261
  897MOL0     C20983  12.239   0.559   3.674 -0.1254  0.3293 -0.0243
  897MOL0     O20984  12.251   0.453   3.770  0.4688 -0.2167  0.0975
  897MOL0     C20985  12.354   0.452   3.859 -0.3998 -0.3360  0.2330
  897MOL0     C20986  12.430   0.568   3.877  0.4254 -0.1817  0.1677
  897MOL0     C20987  12.546   0.566   3.962  0.1316 -0.5991 -0.3413
  897MOL0     C20988  12.578   0.453   4.043  0.0111  0.1289  0.6129
  897MOL0     C20989  12.699   0.438   4.126  0.2543 -0.6065 -0.1773
  897MOL0     O20990  12.745   0.313   4.140 -0.4204  0.1971  1.0354
  897MOL0     C20991  12.871   0.301   4.196  0.1458  0.1376  1.0110
  897MOL0     C20992  12.982   0.331   4.107 -0.8725 -0.3228 -0.3360
  897MOL0     C20993  13.110   0.313   4.164  0.6526  0.8829  0.1897
  897MOL0     C20994  13.133   0.270   4.291 -0.4791 -0.2109  0.2234
  897MOL0     O20995  13.254   0.256   4.360  0.4837  0.2297 -0.5028
  897MOL0     C20996  13.325   0.146   4.293  0.5365 -0.3718 -0.4682
  897MOL0     C20997  13.432   0.091   4.395  0.1108 -0.0730 -0.6891
  897MOL0     C20998  13.367   0.038   4.525  0.2533 -0.7567  0.6236
  897MOL0     C20999  13.465  -0.049   4.593  0.4380  0.6691  0.1909
  897MOL0     C21000  13.431  -0.065   4.740 -0.2732  0.5712  0.4217
  897MOL0     C21001  13.510  -0.180   4.802 -0.5829 -0.2423 -0.7055
  897MOL0     C21002  13.491  -0.320   4.742  0.3622  0.4503 -0.3460
  897MOL0     C21003  13.560  -0.425   4.820 -0.7974 -0.3782 -0.3563
  897MOL0    Cl21004  13.564  -0.578   4.708  0.1525 -0.3285 -0.0062
  897MOL0     C21005  13.020   0.250   4.380  1.0545  0.1300  0.2213
  897MOL0     C21006  12.887   0.264   4.331 -0.8704  0.1731  1.0979
  897MOL0     O21007  12.768   0.541   4.144  0.0514  0.3693  0.0208
  897MOL0     C21008  12.492   0.338   4.029  0.7655 -0.8845  0.0902
  897MOL0     C21009  12.385   0.340   3.937  0.1196  0.4551 -0.4051
  897MOL0     N21010  12.073   0.789   3.424 -0.4128  0.3655 -0.8850
  897MOL0     N21011  12.089   0.902   3.376 -0.6715  0.2808 -0.3458
  897MOL0     C21012  11.330   1.214   2.561 -0.8426 -0.0868  0.8944
  897MOL0     C21013  11.203   1.229   2.501 -0.1433  0.4634 -0.5129
  897MOL0     C21014  10.883   1.212   2.146 -0.6288  0.4992  0.0814
  897MOL0     C21015  10.793   1.159   2.242 -0.0543 -0.8660 -0.7628
  897MOL0     C21016  10.660   1.142   2.212  0.1989  0.3960  0.4969
  897MOL0     C21017  10.606   1.162   2.079 -0.0551  0.2280  0.1478
  897MOL0     O21018  10.469   1.129   2.065 -0.1270  0.7651  0.0290
  897MOL0     C21019  10.391   1.227   1.987 -1.0855  0.3609  0.2072
  897MOL0     C21020  10.256   1.253   2.043 -0.7113  0.1089 -0.0894
  897MOL0     C21021  10.273   1.329   2.177 -0.5715 -0.2893  0.6408
  897MOL0     C21022  10.153   1.345   2.258  0.0029  1.0798 -0.0183
  897MOL0     C21023  10.185   1.376   2.397 -0.2444  0.8401  0.5782
  897MOL0     C21024  10.187   1.406   2.513 -0.6335 -0.2563 -0.1310
  897MOL0     C21025  10.699   1.208   1.990 -0.4084 -0.0225  0.3813
  897MOL0     C21026  10.835   1.236   2.023 -0.5095 -0.0013  0.5412
  897MOL0     C21027  10.913   1.306   1.921 -0.5127 -0.4823  0.3320
  897MOL0     H21028  11.278   1.076   2.209  0.5375 -0.4669  0.4386
  897MOL0     H21029  11.474   1.041   2.317 -2.6620 -2.1608 -0.0099
  897MOL0     H21030  11.572   1.343   2.614  0.0029 -0.4712 -1.4410
  897MOL0     H21031  11.533   1.235   2.749  1.9899  0.9606  2.4788
  897MOL0     H21032  11.756   1.311   2.792 -1.8431  1.2724 -0.4463
  897MOL0     H21033  11.804   1.263   2.628 -0.1848  1.0828  0.0812
  897MOL0     H21034  11.824   1.062   2.666 -1.1940 -1.4041 -1.1110
  897MOL0     H21035  11.696   1.027   2.786  1.4521 -0.3762 -0.4667
  897MOL0     H21036  11.960   1.167   2.855 -0.1574 -0.0519 -1.0322
  897MOL0     H21037  11.824   1.136   2.966  0.1812  1.2577 -0.4154
  897MOL0     H21038  11.831   0.892   2.932 -0.4452 -1.4754 -1.2932
  897MOL0     H21039  11.982   0.907   2.847  4.7718  0.5831  3.7276
  897MOL0     H21040  11.954   1.032   3.132  3.9140  0.2079  2.1825
  897MOL0     H21041  11.977   0.870   3.105 -0.8853  0.3567 -0.0017
  897MOL0     H21042  12.157   1.071   2.979 -1.4786 -0.1933 -0.5760
  897MOL0     H21043  12.197   0.890   2.995 -0.3935 -1.8696  0.8625
  897MOL0     H21044  12.311   1.019   3.183 -0.5308  0.9689 -0.2791
  897MOL0     H21045  12.160   1.091   3.216 -1.0226 -0.0612 -0.7008
  897MOL0     H21046  12.241   0.695   3.164 -0.6923  0.6297  0.8369
  897MOL0     H21047  12.080   0.519   3.469 -0.0874 -1.2489 -0.5182
  897MOL0     H21048  12.121   0.492   3.297 -0.7673  1.6802 -0.7373
  897MOL0     H21049  12.256   0.386   3.452  1.7875 -0.5676  2.6779
  897MOL0     H21050  12.359   0.489   3.359 -1.0418  0.1524  0.3529
  897MOL0     H21051  12.370   0.654   3.546  1.9678 -0.6899 -1.3505
  897MOL0     H21052  12.423   0.491   3.599  0.2043  0.5594 -1.4564
  897MOL0     H21053  12.136   0.564   3.638  0.2937  1.4925 -1.1183
  897MOL0     H21054  12.228   0.645   3.740 -0.0269 -2.2925  3.7764
  897MOL0     H21055  12.430   0.658   3.816  1.9631 -0.6120 -0.5438
  897MOL0     H21056  12.617   0.647   3.950  0.3424 -0.7839 -0.3490
  897MOL0     H21057  12.973   0.381   4.011 -1.5712 -1.4171 -0.8689
  897MOL0     H21058  13.188   0.342   4.095  1.1023  3.3814  1.6614
  897MOL0     H21059  13.252   0.068   4.269  0.5623  0.0393 -1.9368
  897MOL0     H21060  13.369   0.190   4.204  1.8945  0.9131  0.7896
  897MOL0     H21061  13.479   0.014   4.334 -0.0832  1.6072 -3.1113
  897MOL0     H21062  13.507   0.162   4.431  0.0498 -0.3973  0.0952
  897MOL0     H21063  13.336   0.123   4.587 -1.1937 -0.7694 -0.0563
  897MOL0     H21064  13.272  -0.009   4.501 -0.1702  0.4130 -0.0884
  897MOL0     H21065  13.563  -0.006   4.570  0.6246  0.8701  1.3085
  897MOL0     H21066  13.468  -0.142   4.536  0.7928  1.5876 -1.3453
  897MOL0     H21067  13.326  -0.088   4.759 -0.5527 -0.9742 -2.3819
  897MOL0     H21068  13.443   0.032   4.789 -2.1312 -0.0110  2.1636
  897MOL0     H21069  13.617  -0.155   4.798 -0.1308 -1.2812  2.6089
  897MOL0     H21070  13.484  -0.180   4.908  1.7993  2.9527  0.0298
  897MOL0     H21071  13.531  -0.320   4.641  5.4829 -3.2249  1.2531
  897MOL0     H21072  13.387  -0.355   4.736  0.4462 -1.2243  4.0642
  897MOL0     H21073  13.663  -0.400   4.845 -1.0105 -0.5518  0.7305
  897MOL0     H21074  13.512  -0.461   4.911  0.5085  0.3429  0.6439
  897MOL0     H21075  13.030   0.216   4.483  1.0485 -3.2128 -0.7606
  897MOL0     H21076  12.803   0.238   4.395  0.4400 -2.2170  1.9796
  897MOL0     H21077  12.524   0.238   4.057  1.4876 -1.1600 -1.5661
  897MOL0     H21078  12.337   0.243   3.920  2.6847 -1.4833  2.3175
  897MOL0     H21079  11.347   1.262   2.657  0.9949 -1.9293  1.5731
  897MOL0     H21080  11.121   1.287   2.543 -0.2719  1.0409 -1.5134
  897MOL0     H21081  10.820   1.132   2.343  0.7496  3.2759  0.3234
  897MOL0     H21082  10.586   1.093   2.274 -0.0118  2.0716  1.6263
  897MOL0     H21083  10.380   1.195   1.883  3.5199  2.3630 -1.1351
  897MOL0     H21084  10.435   1.326   1.975 -2.9387  1.3059  0.7708
  897MOL0     H21085  10.207   1.159   2.067 -0.9256 -0.7231 -3.3439
  897MOL0     H21086  10.188   1.309   1.979 -1.4537 -2.6416 -1.8716
  897MOL0     H21087  10.307   1.429   2.149 -0.8531 -0.3414  0.1003
  897MOL0     H21088  10.355   1.280   2.231 -1.0015  1.3022  2.8540
  897MOL0     H21089  10.092   1.428   2.221 -2.5313 -0.9280 -0.6310
  897MOL0     H21090  10.110   1.245   2.264 -0.7245  1.4533  1.5999
  897MOL0     H21091  10.182   1.452   2.610 -1.5175  1.5363 -0.9774
  897MOL0     H21092  10.670   1.229   1.887 -0.4019  2.3466  0.8032
  897MOL0     H21093  10.854   1.355   1.843  2.3798  0.8733 -1.1857
  897MOL0     H21094  10.983   1.385   1.951  0.5592 -2.0300  2.1532
  897MOL0     H21095  10.975   1.222   1.888 -0.7607 -0.3111 -0.5875
  898MOL0     O21096   9.337   4.827   4.051 -0.1688  0.4115 -0.5445
  898MOL0     C21097   9.415   4.734   4.075 -0.8985 -0.3574  0.1480
  898MOL0     O21098   9.402   4.629   4.173  0.1302 -0.8175 -0.3639
  898MOL0     C21099   9.283   4.634   4.249  0.8258  0.9473  0.2459
  898MOL0     C21100   9.254   4.737   4.332 -0.2082 -0.0702  0.2135
  898MOL0     C21101   9.138   4.744   4.405  0.6564  0.0657 -0.1707
  898MOL0     C21102   9.032   4.654   4.393  0.7465  0.5493 -0.5364
  898MOL0     O21103   8.915   4.685   4.457  0.1671  0.1946  0.1566
  898MOL0     C21104   8.813   4.587   4.478 -0.2599 -0.8950 -0.1787
  898MOL0     C21105   8.739   4.619   4.607 -0.8270 -0.8770  0.0601
  898MOL0     C21106   8.665   4.756   4.592  0.3101  0.1700 -0.4518
  898MOL0     C21107   8.639   4.816   4.729  0.3341 -0.7168  0.1542
  898MOL0     C21108   8.612   4.967   4.709  0.5785  0.5235 -0.9226
  898MOL0     C21109   8.739   5.049   4.693  0.0028 -0.5956 -0.4457
  898MOL0     C21110   8.823   5.077   4.823  0.4764 -0.2097 -0.3808
  898MOL0     C21111   8.943   4.989   4.843 -0.6245 -0.4122  0.3151
  898MOL0     N21112   9.058   5.040   4.772 -0.1679  0.6448  0.2709
  898MOL0     C21113   9.142   5.138   4.815  0.4006  0.0420  0.2635
  898MOL0     C21114   9.208   5.179   4.701  0.5990  0.3436  0.0184
  898MOL0     C21115   9.316   5.281   4.680 -0.1404 -0.1630  0.5018
  898MOL0     C21116   9.268   5.423   4.656  0.4760 -0.2043  0.4552
  898MOL0     C21117   9.387   5.516   4.640 -0.4111  0.0945  0.0471
  898MOL0     C21118   9.356   5.654   4.621 -0.3563 -0.4003  0.4673
  898MOL0     O21119   9.480   5.731   4.607  0.5841  0.2563  0.0860
  898MOL0     C21120   9.471   5.868   4.591  0.3189  0.4327 -0.7630
  898MOL0     C21121   9.353   5.936   4.544  1.4656  0.1534  0.4813
  898MOL0     C21122   9.365   6.073   4.543 -0.4521  0.7416  0.3101
  898MOL0     C21123   9.474   6.152   4.576  0.0889 -0.3334 -0.2655
  898MOL0     C21124   9.463   6.302   4.571 -0.7401  0.3816  0.2112
  898MOL0     O21125   9.579   6.369   4.603  0.0331  0.8913 -0.1344
  898MOL0     C21126   9.590   6.504   4.615 -0.4827 -0.4621  0.7207
  898MOL0     C21127   9.532   6.592   4.529 -0.6167  0.4261 -0.9366
  898MOL0     C21128   9.551   6.728   4.534  0.5477  0.5446 -0.0473
  898MOL0     C21129   9.654   6.781   4.610  0.6632 -0.1487  0.9973
  898MOL0     O21130   9.674   6.917   4.623  0.2329 -0.4667  0.3685
  898MOL0     C21131   9.600   7.015   4.549 -0.1810 -0.7744  0.0010
  898MOL0     C21132   9.479   7.077   4.620 -0.1103  0.4337  0.0741
  898MOL0     C21133   9.426   7.195   4.537  0.7671  0.0028  0.7554
  898MOL0     C21134   9.306   7.263   4.588  1.3245 -0.5615  0.3500
  898MOL0     C21135   9.285   7.409   4.535 -0.2963 -0.9784  0.1516
  898MOL0     C21136   9.171   7.484   4.592  0.2997  0.3610 -0.0716
  898MOL0     C21137   9.056   7.507   4.488  0.5232 -0.5189  0.1580
  898MOL0     C21138   8.960   7.610   4.535  0.4581  0.3722 -0.6104
  898MOL0    Cl21139   8.790   7.602   4.451  0.3018 -0.0347  0.0549
  898MOL0     C21140   9.726   6.698   4.687  0.3134  0.3614  0.2631
  898MOL0     C21141   9.702   6.557   4.684  0.2611 -0.3380 -0.2447
  898MOL0     O21142   9.352   6.354   4.560 -0.0760  0.4307  0.6804
  898MOL0     C21143   9.592   6.082   4.623 -0.1501 -0.4261  0.3737
  898MOL0     C21144   9.585   5.943   4.627  0.7358  0.6964 -0.7681
  898MOL0     N21145   9.157   5.106   4.593 -0.3084 -0.0468 -0.3254
  898MOL0     N21146   9.085   5.011   4.641 -0.5542  0.0404 -0.2883
  898MOL0     C21147   9.058   4.551   4.302  0.0714  0.1718  1.0766
  898MOL0     C21148   9.182   4.538   4.232 -0.6655  0.3933  0.1815
  898MOL0     C21149   9.532   4.721   3.982 -0.0674 -0.4296  0.2994
  898MOL0     C21150   9.633   4.629   4.018  0.3839  0.1482 -1.1150
  898MOL0     C21151   9.749   4.605   3.953 -0.8995  0.4519  0.6949
  898MOL0     C21152   9.781   4.680   3.843  0.3895  0.2750  0.0200
  898MOL0     O21153   9.903   4.666   3.787  0.3269 -0.0133  0.1039
  898MOL0     C21154   9.946   4.729   3.661  0.0970 -0.8998  0.6466
  898MOL0     C21155   9.993   4.620   3.558  1.7697  0.1261  0.0809
  898MOL0     C21156   9.887   4.586   3.456 -0.2301 -0.4700 -0.0169
  898MOL0     C21157   9.803   4.461   3.492 -0.1204 -0.1895 -0.4295
  898MOL0     C21158   9.674   4.446   3.421  0.8505 -0.4459  0.4347
  898MOL0     C21159   9.560   4.448   3.367 -0.5631 -0.0359  0.0001
  898MOL0     C21160   9.686   4.781   3.811 -0.0069  0.4845  0.1025
  898MOL0     C21161   9.567   4.808   3.880  0.2592 -0.1911 -0.3926
  898MOL0     C21162   9.511   4.947   3.850  0.2210 -0.4717  0.1297
  898MOL0     H21163   9.318   4.824   4.348 -0.5357 -0.3377  3.8214
  898MOL0     H21164   9.118   4.827   4.472 -0.5610 -0.2615 -0.0937
  898MOL0     H21165   8.740   4.590   4.396 -1.6376 -0.2287  1.0362
  898MOL0     H21166   8.878   4.499   4.479  1.5910  0.2757 -2.7982
  898MOL0     H21167   8.809   4.617   4.691 -1.3752  2.0946  0.6896
  898MOL0     H21168   8.654   4.550   4.620 -2.5338  1.2898  1.1307
  898MOL0     H21169   8.566   4.736   4.549 -0.2679  1.5523  0.1820
  898MOL0     H21170   8.724   4.819   4.526 -0.4032  2.2892  0.8427
  898MOL0     H21171   8.549   4.778   4.778  0.6705  1.1358  2.4044
  898MOL0     H21172   8.723   4.813   4.799  0.1975  2.2684  0.5629
  898MOL0     H21173   8.556   4.988   4.618  1.2036 -1.0738 -1.7146
  898MOL0     H21174   8.553   5.005   4.794  1.2088  0.0495 -0.2661
  898MOL0     H21175   8.802   5.007   4.614 -0.6405  2.3276 -2.6732
  898MOL0     H21176   8.702   5.143   4.651 -2.7666 -1.2982  0.2041
  898MOL0     H21177   8.758   5.055   4.908 -1.9015 -1.4886 -2.3798
  898MOL0     H21178   8.856   5.181   4.821  1.7632 -0.5403  1.4847
  898MOL0     H21179   8.970   5.006   4.947  3.5693  0.6130 -0.7479
  898MOL0     H21180   8.916   4.886   4.815  1.9183 -0.8807 -0.7721
  898MOL0     H21181   9.150   5.177   4.916  1.4045 -1.4192  0.7801
  898MOL0     H21182   9.365   5.291   4.777  1.8292 -1.7804 -0.2511
  898MOL0     H21183   9.401   5.245   4.622  1.7885  0.5984  2.7176
  898MOL0     H21184   9.202   5.429   4.569  0.4489 -0.0690  0.4857
  898MOL0     H21185   9.216   5.460   4.745  2.6518  0.1836  1.6263
  898MOL0     H21186   9.439   5.484   4.549 -2.6741  1.0622 -1.6690
  898MOL0     H21187   9.458   5.503   4.722 -0.1004 -3.4260 -0.5916
  898MOL0     H21188   9.297   5.693   4.705 -1.1827 -0.7826  0.0760
  898MOL0     H21189   9.291   5.666   4.534 -0.8065  0.2265  0.8791
  898MOL0     H21190   9.263   5.881   4.520  1.1186 -1.5068  4.7263
  898MOL0     H21191   9.277   6.127   4.510 -1.1734  1.5949  3.3211
  898MOL0     H21192   9.450   6.545   4.477 -0.5961 -0.9655  0.2570
  898MOL0     H21193   9.484   6.792   4.477 -0.7126  1.2464  2.0778
  898MOL0     H21194   9.664   7.097   4.517 -1.5453 -0.0509 -0.9234
  898MOL0     H21195   9.564   6.972   4.456 -2.7912 -2.1023  1.5103
  898MOL0     H21196   9.403   6.998   4.617  1.3739 -1.0782  0.6856
  898MOL0     H21197   9.519   7.104   4.718  1.7222  0.1060 -0.5525
  898MOL0     H21198   9.504   7.271   4.532  3.8978 -3.0056  0.0193
  898MOL0     H21199   9.411   7.161   4.434  0.5863  0.1158  0.7443
  898MOL0     H21200   9.304   7.269   4.697 -2.7960 -4.4021  0.7683
  898MOL0     H21201   9.218   7.215   4.544 -0.2898  0.8542  1.8582
  898MOL0     H21202   9.285   7.412   4.426 -0.3829  5.8856 -0.1265
  898MOL0     H21203   9.378   7.454   4.570  0.8867 -2.8910 -0.4103
  898MOL0     H21204   9.131   7.435   4.681 -0.1854  2.5798  1.0018
  898MOL0     H21205   9.202   7.584   4.622  0.8970  0.9958 -2.5820
  898MOL0     H21206   9.003   7.414   4.467  2.1062 -0.8232 -3.1310
  898MOL0     H21207   9.100   7.531   4.391 -1.3377  1.1424 -0.3589
  898MOL0     H21208   8.944   7.595   4.643 -0.4108 -1.1656 -0.9165
  898MOL0     H21209   8.998   7.711   4.518 -0.4151  0.8301  0.0569
  898MOL0     H21210   9.802   6.745   4.748  0.1680  1.6048 -0.4884
  898MOL0     H21211   9.765   6.487   4.739  1.5240 -0.3869 -1.6723
  898MOL0     H21212   9.682   6.139   4.646  0.3180 -0.0418 -2.1169
  898MOL0     H21213   9.675   5.890   4.659  0.2872  0.3523 -0.0620
  898MOL0     H21214   8.988   4.472   4.279  2.5623 -2.1091  0.8605
  898MOL0     H21215   9.178   4.454   4.164 -5.2921 -1.8166  2.7348
  898MOL0     H21216   9.597   4.558   4.092 -3.9285  1.2691 -1.8535
  898MOL0     H21217   9.809   4.527   4.000 -2.0039  1.1615  3.4594
  898MOL0     H21218  10.035   4.786   3.689 -1.6689  1.5497  1.6973
  898MOL0     H21219   9.878   4.799   3.612 -1.1348  1.9172  5.6433
  898MOL0     H21220  10.035   4.541   3.621  1.9950  2.0570  2.4829
  898MOL0     H21221  10.077   4.657   3.497  0.3572  2.6153 -0.5076
  898MOL0     H21222   9.939   4.570   3.361 -1.3539 -1.5241 -0.4937
  898MOL0     H21223   9.816   4.669   3.445 -0.2804 -0.6853 -1.6969
  898MOL0     H21224   9.858   4.367   3.486 -0.3465 -0.3909  0.4391
  898MOL0     H21225   9.782   4.467   3.599  0.2149  1.3198 -0.4232
  898MOL0     H21226   9.462   4.448   3.324 -1.4882 -3.8510  1.6693
  898MOL0     H21227   9.707   4.846   3.727 -2.0830  2.4758  1.0422
  898MOL0     H21228   9.485   5.005   3.939 -1.4331 -0.4086 -0.3636
  898MOL0     H21229   9.569   5.016   3.789 -0.0385  0.2325  0.6710
  898MOL0     H21230   9.423   4.924   3.789 -0.2509 -0.4593  0.7995
  899MOL0     O21231   4.223  10.088   5.186  0.3578 -0.0469  0.5256
  899MOL0     C21232   4.171  10.058   5.076 -0.5013 -0.3857 -0.3927
  899MOL0     O21233   4.217   9.966   4.982 -0.0901  0.3905  0.4577
  899MOL0     C21234   4.339   9.916   5.006 -0.0779 -0.1411  0.0443
  899MOL0     C21235   4.449   9.996   5.006 -0.3395 -0.8780 -0.7028
  899MOL0     C21236   4.570   9.938   5.047 -0.3439  0.1587 -0.0214
  899MOL0     C21237   4.581   9.802   5.069  0.0661  0.1457 -0.1732
  899MOL0     O21238   4.705   9.751   5.095 -0.0386 -0.2600  0.5865
  899MOL0     C21239   4.774   9.724   4.973  0.0698 -0.2146 -0.3000
  899MOL0     C21240   4.885   9.622   5.000  0.4828  1.0106  0.2723
  899MOL0     C21241   4.984   9.603   4.883  0.0824  0.7821 -0.0707
  899MOL0     C21242   5.104   9.515   4.917  0.9832 -0.1821 -0.8598
  899MOL0     C21243   5.199   9.502   4.795  0.4877  0.7354  0.3324
  899MOL0     C21244   5.196   9.618   4.691  0.4752  0.2292 -0.5396
  899MOL0     C21245   5.320   9.615   4.610 -0.0941 -0.3087 -0.2080
  899MOL0     C21246   5.328   9.723   4.491 -0.2115  0.5635 -0.0777
  899MOL0     N21247   5.362   9.854   4.550  0.0238 -0.0325 -1.1332
  899MOL0     C21248   5.479   9.879   4.617  0.1163 -0.6056 -0.6067
  899MOL0     C21249   5.456  10.001   4.677 -0.5550  0.0100 -0.2868
  899MOL0     C21250   5.551  10.077   4.758  0.2598  0.3878  0.0504
  899MOL0     C21251   5.673  10.112   4.671  0.2916  0.9555  0.1957
  899MOL0     C21252   5.752  10.225   4.729  0.0005 -0.3407  0.0517
  899MOL0     C21253   5.879  10.259   4.658 -0.6901  0.3155 -0.0214
  899MOL0     O21254   5.858  10.321   4.534  0.2874  0.6490 -0.6276
  899MOL0     C21255   5.965  10.345   4.448 -0.7442 -0.3365 -0.6367
  899MOL0     C21256   5.942  10.414   4.332 -1.0274 -0.3694 -0.0298
  899MOL0     C21257   6.038  10.451   4.238  0.2152  0.3533 -0.1763
  899MOL0     C21258   6.176  10.440   4.272 -0.1269  0.6278  0.1554
  899MOL0     C21259   6.283  10.487   4.174  0.5482  0.1269 -0.6147
  899MOL0     O21260   6.402  10.519   4.224  1.1973 -0.2204  0.7117
  899MOL0     C21261   6.511  10.578   4.159  0.4863  0.0548  0.0730
  899MOL0     C21262   6.637  10.594   4.223  0.3813 -0.5891  0.2363
  899MOL0     C21263   6.739  10.654   4.158  0.5013 -0.2047  0.2956
  899MOL0     C21264   6.723  10.718   4.028 -0.0564  0.5852  0.3145
  899MOL0     O21265   6.816  10.796   3.964  1.0634  0.2881 -0.3795
  899MOL0     C21266   6.948  10.823   4.023  0.6722  0.3279  0.3961
  899MOL0     C21267   7.028  10.701   3.985  0.3368  1.6171  0.1503
  899MOL0     C21268   7.163  10.698   4.044  0.0737 -0.0956  0.6133
  899MOL0     C21269   7.265  10.747   3.944 -0.2637 -0.0002  0.0747
  899MOL0     C21270   7.406  10.734   3.989 -0.6713  0.3619 -0.2809
  899MOL0     C21271   7.433  10.587   4.025  0.4970  0.1488  0.1794
  899MOL0     C21272   7.589  10.559   4.006  0.9859  0.2479 -0.1557
  899MOL0     C21273   7.630  10.422   4.046  0.2559  0.1557  0.5518
  899MOL0    Cl21274   7.794  10.377   4.002  0.2472  0.6360  0.2802
  899MOL0     C21275   6.599  10.703   3.965  0.3003  0.6009 -0.7159
  899MOL0     C21276   6.489  10.641   4.029 -0.1005 -1.0380 -0.7954
  899MOL0     O21277   6.238  10.499   4.063 -0.6299 -0.3996  0.0309
  899MOL0     C21278   6.208  10.373   4.388  0.0398  0.5520  0.3592
  899MOL0     C21279   6.104  10.328   4.478  0.9273 -0.8352  0.0086
  899MOL0     N21280   5.332  10.045   4.643 -1.1651  0.5238 -0.5174
  899MOL0     N21281   5.281   9.959   4.558 -0.2573  0.1140 -0.1356
  899MOL0     C21282   4.472   9.720   5.072  0.2307 -0.6893  0.1271
  899MOL0     C21283   4.345   9.775   5.035 -0.6893 -0.3678 -0.3336
  899MOL0     C21284   4.031  10.102   5.045  0.6738  0.3573 -0.9529
  899MOL0     C21285   3.924  10.011   5.004 -0.3612  0.2037 -0.1354
  899MOL0     C21286   3.791  10.055   4.976 -1.5765  0.2944  0.6601
  899MOL0     C21287   3.760  10.188   4.982  0.2354  0.8736  0.4124
  899MOL0     O21288   3.636  10.218   4.937  0.6544 -0.4277 -0.1966
  899MOL0     C21289   3.563  10.304   5.019  0.0309 -0.0098  0.3814
  899MOL0     C21290   3.479  10.212   5.115  0.3936  0.2567 -1.7581
  899MOL0     C21291   3.418  10.300   5.227 -0.7354 -0.9380  0.5009
  899MOL0     C21292   3.303  10.234   5.295  1.1029 -0.1590 -0.4786
  899MOL0     C21293   3.341  10.107   5.354 -0.1022  0.0738 -0.4726
  899MOL0     C21294   3.385  10.006   5.395 -0.2905 -0.3505  0.9063
  899MOL0     C21295   3.865  10.279   5.020 -0.0655 -0.4501 -0.5304
  899MOL0     C21296   3.988  10.236   5.048 -0.9098 -0.8416  0.6318
  899MOL0     C21297   4.089  10.340   5.092 -0.0937 -0.7410 -0.1102
  899MOL0     H21298   4.439  10.102   4.986 -0.9763 -0.7332  0.3345
  899MOL0     H21299   4.649  10.012   5.057 -1.9194  2.4474 -2.8829
  899MOL0     H21300   4.704   9.699   4.893 -0.6763  0.7098  0.0524
  899MOL0     H21301   4.833   9.807   4.933  1.8617 -1.4323 -0.3071
  899MOL0     H21302   4.840   9.524   5.022  1.8724  0.0951 -0.7925
  899MOL0     H21303   4.939   9.651   5.090  0.7931 -3.2971  1.7417
  899MOL0     H21304   5.013   9.700   4.841  0.8180 -0.8891 -3.7882
  899MOL0     H21305   4.920   9.564   4.805  0.3318 -1.4491  0.7585
  899MOL0     H21306   5.152   9.560   5.004 -1.1755  0.9387 -0.1671
  899MOL0     H21307   5.071   9.412   4.935  1.5436 -1.1939 -4.7819
  899MOL0     H21308   5.301   9.511   4.833  0.1227  1.4176  1.1710
  899MOL0     H21309   5.187   9.402   4.753  2.1368  1.4598 -2.0859
  899MOL0     H21310   5.110   9.592   4.629 -0.9645 -0.0361  1.4466
  899MOL0     H21311   5.183   9.716   4.738  0.3035 -0.2728  0.5169
  899MOL0     H21312   5.318   9.509   4.584 -0.6079 -0.3627  0.0322
  899MOL0     H21313   5.408   9.630   4.673 -0.2185 -3.3696  0.8385
  899MOL0     H21314   5.412   9.682   4.434  1.3645 -1.6206  3.4685
  899MOL0     H21315   5.237   9.714   4.430 -0.0702  1.3791 -0.4292
  899MOL0     H21316   5.569   9.819   4.621 -0.3335 -1.2305  0.6563
  899MOL0     H21317   5.500  10.166   4.795  3.1631  1.7503  1.1312
  899MOL0     H21318   5.574  10.014   4.845  0.9298 -0.8369 -0.9659
  899MOL0     H21319   5.734  10.021   4.665 -0.1857  0.4101  2.6270
  899MOL0     H21320   5.638  10.140   4.571  0.4362 -1.9527 -0.7765
  899MOL0     H21321   5.782  10.194   4.830  2.2403 -2.5886 -1.1794
  899MOL0     H21322   5.688  10.312   4.743 -0.0424 -0.4613  0.6421
  899MOL0     H21323   5.936  10.168   4.637 -0.5010  0.4171  0.0464
  899MOL0     H21324   5.939  10.322   4.724  0.2496  1.3225 -1.7725
  899MOL0     H21325   5.838  10.421   4.303 -1.4280  0.1153  1.4336
  899MOL0     H21326   6.009  10.500   4.146 -1.0664  2.4574  1.2466
  899MOL0     H21327   6.646  10.556   4.324 -2.9001 -1.3949  0.3394
  899MOL0     H21328   6.831  10.663   4.214  1.0254 -3.2266  0.0807
  899MOL0     H21329   6.989  10.915   3.980 -2.4406  0.8446 -1.8254
  899MOL0     H21330   6.933  10.825   4.131  1.9102 -2.0512  0.6809
  899MOL0     H21331   6.975  10.610   4.015 -2.9299  2.1471 -3.2700
  899MOL0     H21332   7.032  10.691   3.876  1.8255  1.7486  0.1795
  899MOL0     H21333   7.156  10.745   4.143 -2.4506  2.5381 -0.6640
  899MOL0     H21334   7.179  10.590   4.051  1.3969  0.1328  1.5910
  899MOL0     H21335   7.248  10.851   3.914  0.3240 -0.1898 -0.9320
  899MOL0     H21336   7.246  10.682   3.858  2.0814  1.2487 -1.4848
  899MOL0     H21337   7.434  10.798   4.073 -0.5309  0.1469 -0.1609
  899MOL0     H21338   7.480  10.758   3.913  2.9279 -1.5261  2.3145
  899MOL0     H21339   7.401  10.576   4.129 -0.0559 -3.9650 -0.2622
  899MOL0     H21340   7.376  10.515   3.967  1.6868 -1.3041  0.7541
  899MOL0     H21341   7.646  10.622   4.074 -0.9912  1.0777  0.8295
  899MOL0     H21342   7.619  10.574   3.902 -0.3085 -1.5473 -0.8456
  899MOL0     H21343   7.624  10.415   4.155 -1.6381 -0.9862  0.4106
  899MOL0     H21344   7.555  10.361   3.996 -0.0053  2.2166 -1.7669
  899MOL0     H21345   6.587  10.730   3.860 -0.0407  1.6941 -0.4081
  899MOL0     H21346   6.388  10.641   3.988  0.4320 -3.4930 -2.3831
  899MOL0     H21347   6.308  10.370   4.431  1.2846  1.9070 -2.1751
  899MOL0     H21348   6.130  10.283   4.573  1.5765  0.3683  0.4211
  899MOL0     H21349   4.478   9.619   5.110  0.8409 -0.1911  1.4293
  899MOL0     H21350   4.250   9.723   5.033 -1.9318  1.7392 -2.7564
  899MOL0     H21351   3.944   9.904   5.013 -2.4624 -0.1726  0.5964
  899MOL0     H21352   3.719   9.978   4.949 -1.3311  0.3728 -0.2517
  899MOL0     H21353   3.506  10.365   4.948  0.0006 -0.5880 -0.1002
  899MOL0     H21354   3.623  10.373   5.079 -2.1497  0.9467  1.5524
  899MOL0     H21355   3.539  10.133   5.162  0.4237  1.2217 -0.1034
  899MOL0     H21356   3.389  10.168   5.072  1.0017 -1.3666 -1.4683
  899MOL0     H21357   3.392  10.398   5.186 -1.3870 -0.5611  1.7508
  899MOL0     H21358   3.502  10.337   5.287 -0.0468  1.5240 -1.7855
  899MOL0     H21359   3.250  10.304   5.360  1.2926 -0.9067  0.5118
  899MOL0     H21360   3.229  10.212   5.217 -2.3682  2.1667  1.9091
  899MOL0     H21361   3.430   9.927   5.451 -1.7469 -1.4206  0.6096
  899MOL0     H21362   3.833  10.382   5.019 -1.6617 -0.9202 -1.0668
  899MOL0     H21363   4.045  10.428   5.140  1.6394 -0.9896  2.0949
  899MOL0     H21364   4.155  10.308   5.173  0.0235  0.7907  0.4384
  899MOL0     H21365   4.139  10.387   5.006 -1.6795 -0.3897 -0.8713
  900MOL0     O21366   7.037   9.599   5.248 -0.7846 -0.4258  0.0261
  900MOL0     C21367   6.984   9.714   5.254  0.3153 -0.5865  0.9142
  900MOL0     O21368   7.051   9.830   5.278 -0.3920  0.0134 -0.4937
  900MOL0     C21369   7.189   9.824   5.301  0.2368  0.6883  0.4010
  900MOL0     C21370   7.283   9.788   5.202  0.6924 -0.9168  0.0963
  900MOL0     C21371   7.422   9.793   5.232 -0.6012  0.2147  0.5124
  900MOL0     C21372   7.465   9.845   5.357  0.6843  0.1600  0.1733
  900MOL0     O21373   7.602   9.858   5.372  0.0027 -0.4433  0.3604
  900MOL0     C21374   7.640   9.876   5.508 -0.6658 -0.3601  0.3546
  900MOL0     C21375   7.804   9.874   5.525  0.3715  0.5014  0.6089
  900MOL0     C21376   7.872   9.997   5.461  0.2212 -0.3957 -1.0984
  900MOL0     C21377   8.017  10.004   5.475 -1.1940  0.1089  0.6528
  900MOL0     C21378   8.062  10.114   5.378 -0.1280 -0.2257  0.2392
  900MOL0     C21379   8.216  10.139   5.375 -0.4330  0.0171 -0.2672
  900MOL0     C21380   8.310  10.014   5.345  0.0242  0.0273  0.7197
  900MOL0     C21381   8.449  10.048   5.323 -0.3503 -0.0644 -1.2970
  900MOL0     N21382   8.537   9.945   5.270 -0.6288  1.2017 -0.1737
  900MOL0     C21383   8.590   9.945   5.141  0.3113 -0.2302 -0.4578
  900MOL0     C21384   8.697   9.859   5.144 -0.7001 -0.4296 -0.2193
  900MOL0     C21385   8.794   9.830   5.034  0.3835  0.3161 -0.4747
  900MOL0     C21386   8.805   9.930   4.915 -0.2837 -1.0671 -0.2559
  900MOL0     C21387   8.917   9.910   4.822 -0.1427 -0.1292 -0.5133
  900MOL0     C21388   8.930  10.034   4.727  1.3414 -0.1972 -0.2137
  900MOL0     O21389   8.811  10.037   4.649  0.1382 -0.3082 -0.0777
  900MOL0     C21390   8.801  10.120   4.552  0.2272 -0.6480 -0.3470
  900MOL0     C21391   8.894  10.140   4.460 -0.1644  0.3929  0.1649
  900MOL0     C21392   8.886  10.251   4.373  0.1598 -0.1613 -0.1676
  900MOL0     C21393   8.786  10.347   4.396  1.1774  0.4855 -0.4621
  900MOL0     C21394   8.779  10.480   4.337  0.2183  0.4255  0.0690
  900MOL0     O21395   8.703  10.575   4.399 -0.1013  0.1326  0.7477
  900MOL0     C21396   8.655  10.687   4.334 -0.4113  0.3592 -0.1464
  900MOL0     C21397   8.691  10.733   4.208  0.0784  0.5892  0.7177
  900MOL0     C21398   8.649  10.856   4.153 -0.0611 -0.0455 -0.5819
  900MOL0     C21399   8.568  10.938   4.233 -0.4264  0.2741 -0.7521
  900MOL0     O21400   8.553  11.071   4.206  0.5336 -0.4503  0.1108
  900MOL0     C21401   8.422  11.125   4.233 -0.4633  0.4261  0.1629
  900MOL0     C21402   8.417  11.254   4.170 -0.0973 -0.5301  0.5706
  900MOL0     C21403   8.270  11.309   4.163  0.0009  0.2904  0.0467
  900MOL0     C21404   8.258  11.411   4.051  0.2239  0.1867  0.9917
  900MOL0     C21405   8.138  11.516   4.049 -0.0607  0.1687  0.1829
  900MOL0     C21406   8.002  11.444   4.035  0.3937 -0.2225 -0.5126
  900MOL0     C21407   7.887  11.550   4.031 -0.3988  0.3937 -0.0843
  900MOL0     C21408   7.750  11.496   3.974  0.0770 -0.2124  0.3167
  900MOL0    Cl21409   7.658  11.646   3.909 -0.3697  0.0768 -0.1309
  900MOL0     C21410   8.517  10.883   4.350 -0.1548  0.0886 -0.5016
  900MOL0     C21411   8.560  10.759   4.399  0.1494  1.0323 -0.0676
  900MOL0     O21412   8.848  10.504   4.242 -0.3571  0.2453 -0.0470
  900MOL0     C21413   8.684  10.319   4.491  0.4742 -0.2312 -0.5431
  900MOL0     C21414   8.693  10.200   4.565  0.0219  0.3369  0.4553
  900MOL0     N21415   8.712   9.817   5.271 -0.6145  0.3762 -1.1436
  900MOL0     N21416   8.620   9.864   5.352 -0.2296 -0.8357  0.2209
  900MOL0     C21417   7.368   9.887   5.447 -0.5750  0.0112 -0.1354
  900MOL0     C21418   7.231   9.881   5.422 -1.3655  0.3819 -0.1526
  900MOL0     C21419   6.842   9.720   5.244  0.1183  0.4677  0.2115
  900MOL0     C21420   6.785   9.685   5.122  0.4393  0.3036 -0.9937
  900MOL0     C21421   6.650   9.710   5.107  0.2000 -0.5257  0.1179
  900MOL0     C21422   6.562   9.749   5.203  0.6742  0.6083  0.0450
  900MOL0     O21423   6.432   9.757   5.160  0.2611  0.0963  0.2545
  900MOL0     C21424   6.331   9.796   5.251  0.9107  0.1241  0.0905
  900MOL0     C21425   6.293   9.668   5.334  0.7449  0.2271 -1.5112
  900MOL0     C21426   6.240   9.546   5.249 -0.1987 -0.2622 -0.1446
  900MOL0     C21427   6.103   9.575   5.187 -0.5380  0.8050 -0.1800
  900MOL0     C21428   5.995   9.616   5.278  0.1905 -0.0926  0.0593
  900MOL0     C21429   5.903   9.632   5.356 -0.0630 -0.5830  0.1056
  900MOL0     C21430   6.617   9.781   5.326 -0.7666 -0.2044 -0.6052
  900MOL0     C21431   6.762   9.777   5.345  0.3198 -0.4263 -0.4434
  900MOL0     C21432   6.826   9.818   5.482  0.8566 -0.4319  0.1941
  900MOL0     H21433   7.245   9.734   5.115 -0.6817 -2.5314  1.6050
  900MOL0     H21434   7.499   9.757   5.165 -2.7090 -2.2172 -0.8221
  900MOL0     H21435   7.617   9.982   5.528  0.3385  0.3577 -1.9443
  900MOL0     H21436   7.598   9.800   5.574 -2.1653 -0.4734 -0.6855
  900MOL0     H21437   7.842   9.782   5.481 -0.0553 -0.1191  1.5012
  900MOL0     H21438   7.841   9.873   5.628  5.5675 -2.2045 -0.9505
  900MOL0     H21439   7.839  10.086   5.515  3.4055  0.0406  0.3238
  900MOL0     H21440   7.856   9.996   5.352 -1.8136  1.1317 -0.8866
  900MOL0     H21441   8.057  10.030   5.574  2.5177 -1.1761 -0.3210
  900MOL0     H21442   8.058   9.910   5.437 -2.2056 -0.2295  0.3763
  900MOL0     H21443   8.034  10.094   5.274  0.8819  3.0578 -0.7867
  900MOL0     H21444   8.014  10.210   5.396 -0.1234 -0.1316 -0.2255
  900MOL0     H21445   8.237  10.209   5.293  0.1236 -2.1812 -2.1191
  900MOL0     H21446   8.257  10.178   5.468  1.2248  0.9081 -1.3065
  900MOL0     H21447   8.279   9.958   5.256 -1.0280  1.4067  0.1792
  900MOL0     H21448   8.299   9.945   5.429 -1.6853 -0.4786  0.1235
  900MOL0     H21449   8.446  10.141   5.266 -0.4164  3.4067  3.6883
  900MOL0     H21450   8.499  10.069   5.418  0.1352 -1.8445 -1.1155
  900MOL0     H21451   8.547  10.005   5.062 -2.2380 -1.0741  0.1760
  900MOL0     H21452   8.887   9.835   5.090  0.5245  1.6138 -0.7843
  900MOL0     H21453   8.775   9.729   4.997 -1.4502 -0.5895  2.5641
  900MOL0     H21454   8.711   9.925   4.860  0.8103 -1.1120 -2.1992
  900MOL0     H21455   8.808  10.032   4.956  5.2389  0.0456 -2.5350
  900MOL0     H21456   8.904   9.816   4.768 -2.3856 -0.0210 -0.2562
  900MOL0     H21457   9.006   9.913   4.886 -0.7732  5.5925  0.6728
  900MOL0     H21458   9.017  10.020   4.662  3.6375 -2.2970  2.9963
  900MOL0     H21459   8.934  10.131   4.777  0.3547 -0.1022 -0.3154
  900MOL0     H21460   8.977  10.071   4.446 -1.0632 -1.1468  1.9483
  900MOL0     H21461   8.960  10.273   4.297  0.4553 -1.8131 -0.3799
  900MOL0     H21462   8.772  10.688   4.150 -0.1382  2.0392 -0.7968
  900MOL0     H21463   8.700  10.903   4.070  1.4841  2.5008  1.6666
  900MOL0     H21464   8.338  11.063   4.200 -0.1090 -0.6782  1.2552
  900MOL0     H21465   8.407  11.149   4.339  0.7368  0.4023  0.3544
  900MOL0     H21466   8.496  11.319   4.209 -1.0057  2.1703 -1.7617
  900MOL0     H21467   8.443  11.243   4.064 -0.6262 -0.0684  0.3923
  900MOL0     H21468   8.197  11.232   4.136 -0.7892  1.6913 -2.1081
  900MOL0     H21469   8.250  11.357   4.259  2.3036  3.6828 -0.9982
  900MOL0     H21470   8.238  11.351   3.962  2.6030  1.0858 -0.2607
  900MOL0     H21471   8.350  11.470   4.043  0.6345 -0.4682  0.7894
  900MOL0     H21472   8.138  11.590   3.968 -2.1027  0.8639  0.7564
  900MOL0     H21473   8.139  11.570   4.144  3.6012 -0.1877  0.5008
  900MOL0     H21474   8.001  11.376   3.950 -1.0253 -2.1557  0.9642
  900MOL0     H21475   7.976  11.384   4.122  0.0742  0.1376 -0.3554
  900MOL0     H21476   7.917  11.633   3.967  0.3529  0.8620  0.8653
  900MOL0     H21477   7.874  11.595   4.129  0.1217 -1.8104  1.0510
  900MOL0     H21478   7.768  11.421   3.897  0.2929 -1.6828  1.7417
  900MOL0     H21479   7.691  11.449   4.053 -0.0978  1.0271  0.9387
  900MOL0     H21480   8.439  10.925   4.412 -2.1175 -0.8158 -2.2356
  900MOL0     H21481   8.516  10.721   4.491  1.2808 -1.8917 -0.6460
  900MOL0     H21482   8.601  10.385   4.511 -1.3463 -2.1626 -1.3681
  900MOL0     H21483   8.618  10.165   4.635 -3.5592  2.1815 -2.1102
  900MOL0     H21484   7.391   9.908   5.551  0.1011 -3.1506  0.4477
  900MOL0     H21485   7.172   9.916   5.506  0.8140 -0.0417  1.6525
  900MOL0     H21486   6.835   9.648   5.033 -0.4633 -2.5172 -0.4316
  900MOL0     H21487   6.617   9.700   5.004  1.0746 -0.0887 -0.2152
  900MOL0     H21488   6.249   9.845   5.197  2.3176  1.8337 -0.6313
  900MOL0     H21489   6.361   9.881   5.313  1.0116 -1.2233  1.9380
  900MOL0     H21490   6.213   9.708   5.396  2.6033  2.2086 -0.2523
  900MOL0     H21491   6.367   9.639   5.410  1.2629 -1.1188 -2.4847
  900MOL0     H21492   6.234   9.456   5.311  0.1264 -0.2075 -0.0308
  900MOL0     H21493   6.316   9.523   5.174  2.5677  1.7137  1.8416
  900MOL0     H21494   6.121   9.658   5.117 -0.5025 -1.7340 -3.4447
  900MOL0     H21495   6.078   9.487   5.127  3.1771 -0.4936 -0.0522
  900MOL0     H21496   5.826   9.640   5.430 -2.7896 -3.1376 -2.1361
  900MOL0     H21497   6.545   9.811   5.401 -2.5807  0.2377 -2.4269
  900MOL0     H21498   6.750   9.867   5.543 -0.7942 -1.4218 -1.0159
  900MOL0     H21499   6.856   9.724   5.530 -1.7299 -1.2759  0.2827
  900MOL0     H21500   6.914   9.883   5.472  0.1583  0.6056  0.6182
  901MOL0     O21501   2.715  10.726   0.279 -0.2364 -0.3827  0.5782
  901MOL0     C21502   2.706  10.754   0.156 -0.2163  0.4027 -0.1856
  901MOL0     O21503   2.683  10.881   0.108  0.6077  0.7220 -0.2179
  901MOL0     C21504   2.757  10.985   0.160  0.5981 -0.0015  0.3158
  901MOL0     C21505   2.711  11.117   0.126  0.6663  0.7229 -0.1168
  901MOL0     C21506   2.773  11.232   0.170  0.2619  0.5080  0.4720
  901MOL0     C21507   2.888  11.226   0.244  0.7471  0.5176 -0.5091
  901MOL0     O21508   2.951  11.341   0.267 -0.1482 -0.3177 -0.1890
  901MOL0     C21509   2.993  11.362   0.406  0.6980 -0.1449 -0.5927
  901MOL0     C21510   3.074  11.489   0.436 -0.1476 -0.2776  0.0895
  901MOL0     C21511   3.227  11.490   0.398  0.5093 -0.4085 -0.0098
  901MOL0     C21512   3.260  11.499   0.249  0.4266  0.1871  0.9971
  901MOL0     C21513   3.409  11.511   0.237 -0.3676 -0.0618 -0.2571
  901MOL0     C21514   3.447  11.534   0.095 -0.2323  0.0838  0.8724
  901MOL0     C21515   3.446  11.432  -0.016  0.2113 -0.6568 -0.1797
  901MOL0     C21516   3.493  11.289   0.031 -1.4659 -0.0732 -0.2199
  901MOL0     N21517   3.492  11.190  -0.075  0.7865  0.6288 -0.0299
  901MOL0     C21518   3.376  11.152  -0.134 -0.6738  0.0034  0.5668
  901MOL0     C21519   3.411  11.091  -0.251  0.4099  0.3627 -0.7706
  901MOL0     C21520   3.317  11.035  -0.349  0.4851 -0.0150 -0.7664
  901MOL0     C21521   3.267  11.136  -0.450 -1.0069 -0.4659 -0.5411
  901MOL0     C21522   3.372  11.175  -0.556  0.9395 -0.1606  0.6834
  901MOL0     C21523   3.417  11.053  -0.644 -0.3052  0.5319 -0.0565
  901MOL0     O21524   3.526  10.999  -0.572  0.1896  1.1616 -0.7275
  901MOL0     C21525   3.576  10.874  -0.620 -0.4577 -0.1460 -0.6019
  901MOL0     C21526   3.663  10.808  -0.529  1.0467 -1.4825 -0.3125
  901MOL0     C21527   3.710  10.683  -0.553  0.3040  0.5686  0.5618
  901MOL0     C21528   3.666  10.611  -0.669 -0.0224  0.2112  0.9344
  901MOL0     C21529   3.718  10.471  -0.676  0.3510  0.2461 -0.5418
  901MOL0     O21530   3.804  10.423  -0.578 -0.8967 -0.0366  0.0712
  901MOL0     C21531   3.840  10.294  -0.573 -0.3082  0.0631 -0.3691
  901MOL0     C21532   3.794  10.210  -0.468 -0.6942 -0.3890  0.0427
  901MOL0     C21533   3.874  10.108  -0.424  0.1509 -0.7176 -0.7042
  901MOL0     C21534   3.993  10.076  -0.484 -0.5687 -0.2827 -0.3990
  901MOL0     O21535   4.070   9.975  -0.429 -0.2600 -0.0452 -0.3310
  901MOL0     C21536   4.213   9.977  -0.455  0.4903 -0.0398 -0.2077
  901MOL0     C21537   4.264   9.851  -0.395 -0.1577 -0.5449  0.2296
  901MOL0     C21538   4.244   9.834  -0.242  0.1919 -0.7593 -0.6137
  901MOL0     C21539   4.386   9.817  -0.171 -0.1810 -0.1894  0.8873
  901MOL0     C21540   4.383   9.774  -0.023 -0.6780 -0.1684  0.0434
  901MOL0     C21541   4.288   9.654  -0.000 -0.3523 -0.6100  0.4739
  901MOL0     C21542   4.273   9.609   0.144 -0.9254 -0.3042  0.4388
  901MOL0     C21543   4.178   9.703   0.225  0.0281  0.5178  0.7207
  901MOL0    Cl21544   4.118   9.636   0.374 -0.4102 -0.0104  0.7027
  901MOL0     C21545   4.031  10.150  -0.600 -0.0387  0.5836 -0.2597
  901MOL0     C21546   3.958  10.258  -0.642  0.0142 -1.4161 -0.4619
  901MOL0     O21547   3.661  10.395  -0.756 -0.6619 -0.3518  0.0463
  901MOL0     C21548   3.587  10.679  -0.763  0.5150  0.4813 -0.6146
  901MOL0     C21549   3.541  10.812  -0.744  0.6143  0.8190  0.7710
  901MOL0     N21550   3.541  11.114  -0.264 -0.2150 -0.2344  0.5572
  901MOL0     N21551   3.589  11.180  -0.165 -0.1250  0.9385 -0.9125
  901MOL0     C21552   2.938  11.098   0.271 -0.1289  0.7818 -0.4982
  901MOL0     C21553   2.885  10.980   0.230  0.1825 -0.3161  0.4938
  901MOL0     C21554   2.723  10.648   0.049 -0.2480 -0.4866 -1.3270
  901MOL0     C21555   2.692  10.686  -0.084  0.0839  0.3431  1.0623
  901MOL0     C21556   2.693  10.585  -0.190  0.2958 -1.0529 -0.2448
  901MOL0     C21557   2.735  10.458  -0.155  0.0816 -0.2023  0.2771
  901MOL0     O21558   2.739  10.383  -0.268  0.8296 -0.0807  1.0105
  901MOL0     C21559   2.744  10.244  -0.234 -0.7604 -0.0083  1.0774
  901MOL0     C21560   2.713  10.163  -0.362  0.2049  0.2590 -1.4786
  901MOL0     C21561   2.569  10.161  -0.414 -0.2522 -0.1214  0.5319
  901MOL0     C21562   2.519  10.027  -0.470 -0.1702 -0.5819 -0.2762
  901MOL0     C21563   2.624   9.976  -0.554  0.0665  0.6238 -0.2501
  901MOL0     C21564   2.731   9.933  -0.599  0.0926  0.6796 -1.2103
  901MOL0     C21565   2.758  10.419  -0.024  0.0118  0.3566  0.3714
  901MOL0     C21566   2.762  10.512   0.078 -0.6271  0.2202  0.5614
  901MOL0     C21567   2.813  10.459   0.215 -1.0579  0.6374  0.0662
  901MOL0     H21568   2.621  11.137   0.069 -1.6140 -2.0301  2.1735
  901MOL0     H21569   2.750  11.330   0.129 -2.2468 -1.0500 -2.1794
  901MOL0     H21570   2.909  11.350   0.475  0.5589  2.4750 -0.1945
  901MOL0     H21571   3.070  11.290   0.436  0.5238  0.0847  0.4501
  901MOL0     H21572   3.059  11.513   0.541 -1.9017 -4.1841  0.8966
  901MOL0     H21573   3.014  11.561   0.380  0.0748  0.0838  0.3103
  901MOL0     H21574   3.283  11.408   0.444  1.8594 -0.9292 -2.4136
  901MOL0     H21575   3.262  11.584   0.441  0.5457  0.8369 -2.5937
  901MOL0     H21576   3.222  11.408   0.201 -0.4165 -2.0806  5.3677
  901MOL0     H21577   3.208  11.583   0.203  0.2318 -0.6844 -0.4380
  901MOL0     H21578   3.448  11.589   0.304 -0.4383 -1.5824  1.6483
  901MOL0     H21579   3.453  11.416   0.270 -1.5523 -0.3421  0.5693
  901MOL0     H21580   3.397  11.621   0.052  1.0813  0.5203  0.1672
  901MOL0     H21581   3.550  11.571   0.100 -0.8018  1.8459  0.3250
  901MOL0     H21582   3.492  11.465  -0.109 -2.6120 -0.8129 -1.7306
  901MOL0     H21583   3.340  11.421  -0.042 -0.4340  1.4453  1.2624
  901MOL0     H21584   3.596  11.297   0.067  0.1728 -1.3040 -4.0921
  901MOL0     H21585   3.432  11.252   0.114  1.9221  1.0031  3.0285
  901MOL0     H21586   3.275  11.174  -0.099  0.3286  2.8004  2.0199
  901MOL0     H21587   3.350  10.938  -0.388 -0.9913  0.2464 -2.8994
  901MOL0     H21588   3.225  11.021  -0.292  2.1375 -2.4991  1.5349
  901MOL0     H21589   3.184  11.104  -0.514 -3.8326  0.7315  2.2303
  901MOL0     H21590   3.233  11.221  -0.390  1.5375  2.6049 -3.1335
  901MOL0     H21591   3.457  11.223  -0.506  2.2152 -1.2326 -0.3787
  901MOL0     H21592   3.325  11.251  -0.618 -0.4432 -1.8753 -0.4749
  901MOL0     H21593   3.434  11.089  -0.746 -1.1601 -0.0163 -0.4050
  901MOL0     H21594   3.337  10.981  -0.661 -0.0694  0.7821 -2.5797
  901MOL0     H21595   3.685  10.868  -0.441 -1.0124  0.5845 -1.0897
  901MOL0     H21596   3.772  10.639  -0.477 -0.8923  1.6285  2.2255
  901MOL0     H21597   3.710  10.257  -0.418 -0.2042  0.5226  0.0219
  901MOL0     H21598   3.842  10.063  -0.331  1.9919  0.2176  0.4518
  901MOL0     H21599   4.226   9.986  -0.563 -1.5630  2.9416 -0.3405
  901MOL0     H21600   4.262  10.061  -0.405  2.1075 -1.3332  0.4831
  901MOL0     H21601   4.230   9.763  -0.450  1.2768 -0.7967 -0.2899
  901MOL0     H21602   4.370   9.844  -0.421  0.0168  1.2122  0.3352
  901MOL0     H21603   4.188   9.919  -0.201  0.6264 -1.2181  1.0249
  901MOL0     H21604   4.177   9.751  -0.221  1.0835 -1.7494 -1.5855
  901MOL0     H21605   4.430   9.917  -0.175 -1.8992  0.5730 -0.5553
  901MOL0     H21606   4.444   9.745  -0.229 -0.5739 -0.1869  0.4825
  901MOL0     H21607   4.354   9.866   0.028 -2.4380 -0.9671  0.5291
  901MOL0     H21608   4.482   9.743   0.012 -0.2805  2.8798  1.9968
  901MOL0     H21609   4.185   9.679  -0.025 -0.7613 -1.8149  0.8578
  901MOL0     H21610   4.318   9.569  -0.063  0.0642  1.1168 -1.7608
  901MOL0     H21611   4.373   9.624   0.187 -1.3921  2.3822  0.7641
  901MOL0     H21612   4.242   9.504   0.147  1.7441 -1.1732  1.3029
  901MOL0     H21613   4.235   9.795   0.241  0.9808 -0.0163  0.4508
  901MOL0     H21614   4.089   9.728   0.167 -0.9727  0.2829  2.0979
  901MOL0     H21615   4.118  10.136  -0.664  0.1763  1.6755 -0.2361
  901MOL0     H21616   3.975  10.315  -0.732 -2.0613  1.7475  0.9655
  901MOL0     H21617   3.558  10.624  -0.851 -1.8166 -0.3164  0.5748
  901MOL0     H21618   3.488  10.858  -0.826  1.5781 -1.4574 -1.2740
  901MOL0     H21619   3.031  11.087   0.326 -1.2377  1.2285  1.5674
  901MOL0     H21620   2.927  10.884   0.258 -0.1923 -0.7322 -0.3208
  901MOL0     H21621   2.659  10.785  -0.112 -0.3139 -0.4689 -1.6656
  901MOL0     H21622   2.666  10.603  -0.294 -0.5155  1.0165  0.2704
  901MOL0     H21623   2.665  10.220  -0.162 -1.2322  1.5612  1.1106
  901MOL0     H21624   2.844  10.218  -0.200  0.5968  0.3950 -2.2046
  901MOL0     H21625   2.753  10.064  -0.338  1.4459  0.9207 -0.7586
  901MOL0     H21626   2.765  10.208  -0.448  0.2214  2.3602 -0.4239
  901MOL0     H21627   2.559  10.251  -0.475  0.5688  2.7450  4.2061
  901MOL0     H21628   2.508  10.173  -0.323  0.1564 -2.7676  1.2480
  901MOL0     H21629   2.509   9.955  -0.387  1.8942 -1.1895 -0.4956
  901MOL0     H21630   2.427  10.029  -0.529  0.7685 -1.2767 -1.8258
  901MOL0     H21631   2.826   9.892  -0.627 -0.3965 -0.1741 -1.6686
  901MOL0     H21632   2.793  10.319   0.001  0.8824  0.4471 -0.4414
  901MOL0     H21633   2.718  10.437   0.263 -1.4115  2.5461  0.3106
  901MOL0     H21634   2.865  10.364   0.201 -0.6221  0.8208  0.3783
  901MOL0     H21635   2.870  10.536   0.269  1.6299  0.1951 -1.8986
  902MOL0     O21636   6.232   7.738   9.690  0.3243 -0.5502  0.8593
  902MOL0     C21637   6.121   7.776   9.648 -0.0264  0.9211  0.1374
  902MOL0     O21638   6.094   7.897   9.595  0.1061  0.1987  0.3123
  902MOL0     C21639   6.200   7.975   9.567 -0.0447 -0.3730 -0.5758
  902MOL0     C21640   6.238   7.998   9.437 -0.5645  0.5854  1.1660
  902MOL0     C21641   6.336   8.089   9.406  0.3460 -0.0193  0.5333
  902MOL0     C21642   6.412   8.147   9.502  0.2364 -0.1026 -0.0878
  902MOL0     O21643   6.522   8.207   9.450  1.1786  0.3302  0.1602
  902MOL0     C21644   6.644   8.188   9.522 -0.6359 -0.2238 -0.0170
  902MOL0     C21645   6.762   8.249   9.450 -0.3424 -0.1533  0.7746
  902MOL0     C21646   6.769   8.397   9.488  0.0059  0.3036  0.2651
  902MOL0     C21647   6.851   8.461   9.374  0.7091  0.0315 -1.2382
  902MOL0     C21648   6.876   8.611   9.393 -0.5862 -0.8634  0.6480
  902MOL0     C21649   6.971   8.666   9.277 -0.7559 -0.2698  0.0727
  902MOL0     C21650   7.041   8.798   9.305  0.5785  0.4768 -0.3432
  902MOL0     C21651   6.942   8.906   9.327 -0.8860 -0.0547 -0.4369
  902MOL0     N21652   7.015   9.022   9.374  0.3518 -1.2541 -0.0409
  902MOL0     C21653   7.055   9.126   9.300 -0.3370  0.4779 -0.5150
  902MOL0     C21654   7.128   9.202   9.382 -0.7373 -0.3858  1.0073
  902MOL0     C21655   7.158   9.346   9.339  0.6812 -0.3435 -0.0830
  902MOL0     C21656   7.139   9.446   9.452  0.0016  0.2269  0.4003
  902MOL0     C21657   7.131   9.589   9.408  0.0584 -0.0010  0.3059
  902MOL0     C21658   7.077   9.681   9.520 -1.6191  0.4332  0.0861
  902MOL0     O21659   7.179   9.682   9.623  0.1756 -0.2876 -0.5232
  902MOL0     C21660   7.276   9.784   9.621  0.1947 -0.5380  0.1207
  902MOL0     C21661   7.373   9.769   9.724  0.5489 -0.2075  1.1237
  902MOL0     C21662   7.463   9.867   9.758 -0.0711 -0.7852  0.1601
  902MOL0     C21663   7.470   9.984   9.675  0.8698 -0.3931 -0.8285
  902MOL0     C21664   7.561  10.098   9.714  0.0004  0.1397 -0.0240
  902MOL0     O21665   7.541  10.213   9.642  0.4482 -0.2379 -0.0025
  902MOL0     C21666   7.603  10.325   9.687 -0.0055 -0.3979  1.1129
  902MOL0     C21667   7.733  10.341   9.656 -0.4493  0.6317  0.2374
  902MOL0     C21668   7.806  10.453   9.700  0.5799  0.1371  0.1529
  902MOL0     C21669   7.742  10.551   9.775 -0.1192 -0.4330 -0.7391
  902MOL0     O21670   7.802  10.672   9.811  0.7239  0.3443  0.1774
  902MOL0     C21671   7.941  10.720   9.771 -0.1383 -0.5305 -0.0414
  902MOL0     C21672   8.043  10.632   9.837  0.5865 -0.1239  1.0255
  902MOL0     C21673   8.108  10.697   9.956  0.6004  0.5572  0.5421
  902MOL0     C21674   8.238  10.628  10.002 -0.6521  0.7000 -0.6124
  902MOL0     C21675   8.370  10.697   9.953  0.2551 -0.5917  1.2446
  902MOL0     C21676   8.395  10.671   9.807  0.7250 -0.0423 -0.1984
  902MOL0     C21677   8.536  10.705   9.758  0.2822 -0.2585 -0.2017
  902MOL0     C21678   8.533  10.672   9.602  0.1119  0.5676 -0.2203
  902MOL0    Cl21679   8.695  10.663   9.530 -0.3092 -0.0912  0.1084
  902MOL0     C21680   7.606  10.530   9.819 -0.9235  0.1011  0.0899
  902MOL0     C21681   7.539  10.414   9.775 -0.5177 -0.4097  0.0475
  902MOL0     O21682   7.639  10.084   9.809 -0.0332 -0.2280 -0.2239
  902MOL0     C21683   7.370  10.012   9.582  1.0762  0.4728 -0.0563
  902MOL0     C21684   7.275   9.913   9.555 -0.2960  0.2322 -0.7980
  902MOL0     N21685   7.144   9.130   9.501  0.0675 -0.2057  0.7358
  902MOL0     N21686   7.067   9.029   9.498 -0.2823  0.0494  0.1958
  902MOL0     C21687   6.384   8.118   9.633  0.5437 -0.2502 -0.5007
  902MOL0     C21688   6.268   8.048   9.665 -0.8012  0.7818  0.4915
  902MOL0     C21689   6.004   7.678   9.670 -0.1556  0.3182 -0.2461
  902MOL0     C21690   5.870   7.730   9.673 -0.1367  0.3322 -1.5887
  902MOL0     C21691   5.757   7.651   9.708 -0.4085 -0.5325  0.4962
  902MOL0     C21692   5.780   7.523   9.751 -0.4848 -0.3586  0.3031
  902MOL0     O21693   5.668   7.459   9.803  0.9824 -0.7060 -0.3219
  902MOL0     C21694   5.581   7.399   9.700 -0.3196  0.4358  0.3065
  902MOL0     C21695   5.461   7.324   9.773 -0.5986  0.0105 -0.1742
  902MOL0     C21696   5.372   7.242   9.679 -1.1141  0.0125  0.3064
  902MOL0     C21697   5.268   7.156   9.747 -0.0450 -0.6348 -0.4457
  902MOL0     C21698   5.152   7.230   9.791  0.1376 -0.2874  0.5153
  902MOL0     C21699   5.055   7.291   9.823  0.0695 -0.5691  0.5341
  902MOL0     C21700   5.905   7.465   9.731 -0.5266  0.3705 -1.1750
  902MOL0     C21701   6.018   7.534   9.688 -0.1142  0.4299 -0.4268
  902MOL0     C21702   6.148   7.459   9.690 -0.4628  0.7730 -0.1178
  902MOL0     H21703   6.186   7.933   9.367 -1.2819  2.2505  0.0989
  902MOL0     H21704   6.372   8.102   9.304 -1.4551 -1.1481 -0.2859
  902MOL0     H21705   6.637   8.226   9.624 -2.1770  0.1048 -0.2281
  902MOL0     H21706   6.672   8.082   9.521 -2.2057 -0.7085 -2.6495
  902MOL0     H21707   6.733   8.234   9.346 -1.1717  1.7356  0.6895
  902MOL0     H21708   6.857   8.200   9.475  1.4341  2.9527  0.6262
  902MOL0     H21709   6.819   8.408   9.585  1.2564 -0.8535 -0.2274
  902MOL0     H21710   6.667   8.436   9.480  0.4286  1.4236  0.0927
  902MOL0     H21711   6.947   8.409   9.379  0.7130  0.1044  2.0752
  902MOL0     H21712   6.791   8.444   9.285  1.3105  0.3403 -1.7082
  902MOL0     H21713   6.777   8.658   9.391 -0.3018 -0.2713  0.2984
  902MOL0     H21714   6.923   8.634   9.489  2.5712 -1.2778 -0.6762
  902MOL0     H21715   7.045   8.592   9.245 -2.3421 -1.7330 -0.2967
  902MOL0     H21716   6.908   8.692   9.191 -2.8151 -2.0937  0.9549
  902MOL0     H21717   7.111   8.826   9.225 -0.5459 -1.2582 -2.0207
  902MOL0     H21718   7.113   8.795   9.387  1.7093  2.0887 -1.2110
  902MOL0     H21719   6.882   8.938   9.242  1.2513  1.6075 -1.4281
  902MOL0     H21720   6.862   8.880   9.397 -0.8342 -0.5860 -0.5739
  902MOL0     H21721   7.041   9.135   9.193  0.6784 -1.8987 -0.9110
  902MOL0     H21722   7.252   9.362   9.286 -0.4039  1.5668 -1.5880
  902MOL0     H21723   7.086   9.354   9.258  1.9754 -2.1969 -1.4991
  902MOL0     H21724   7.048   9.422   9.509 -0.2959  0.4225  0.0052
  902MOL0     H21725   7.222   9.433   9.522  2.9841  1.1829 -2.7219
  902MOL0     H21726   7.053   9.593   9.331  0.5360 -0.8344 -0.2302
  902MOL0     H21727   7.221   9.622   9.356 -0.3849 -0.6998 -0.9411
  902MOL0     H21728   6.986   9.653   9.574 -1.2336 -0.3946  0.3141
  902MOL0     H21729   7.074   9.782   9.477  0.7278  0.2781 -0.5518
  902MOL0     H21730   7.371   9.674   9.775 -0.4870 -0.0831  1.3531
  902MOL0     H21731   7.526   9.842   9.843 -1.6656 -0.3199  1.5136
  902MOL0     H21732   7.782  10.269   9.591 -1.1640 -0.5467  0.9555
  902MOL0     H21733   7.902  10.481   9.657 -0.3603  1.8325 -0.9874
  902MOL0     H21734   7.931  10.719   9.662 -1.8913  0.2262  0.0844
  902MOL0     H21735   7.963  10.823   9.798 -1.1989 -0.4516  0.5841
  902MOL0     H21736   8.011  10.531   9.865 -2.6289  0.6461  0.4698
  902MOL0     H21737   8.108  10.613   9.751  1.4761  1.0426  1.4050
  902MOL0     H21738   8.152  10.790   9.920 -1.8970  0.7479 -2.3962
  902MOL0     H21739   8.034  10.715  10.034 -0.5866 -1.2710 -0.1038
  902MOL0     H21740   8.251  10.521   9.981  1.3645  0.1194  2.7959
  902MOL0     H21741   8.243  10.618  10.110 -2.0757  0.4367 -0.5573
  902MOL0     H21742   8.459  10.661  10.006  0.0104 -0.7878  1.5267
  902MOL0     H21743   8.371  10.804   9.978  3.2929 -0.5922  1.3976
  902MOL0     H21744   8.363  10.569   9.780 -1.8694  1.2157 -2.3324
  902MOL0     H21745   8.329  10.737   9.750 -1.9583 -0.3869  2.2879
  902MOL0     H21746   8.611  10.642   9.805 -2.0698 -0.7331  3.2904
  902MOL0     H21747   8.573  10.808   9.771  3.7137 -1.5901  1.9160
  902MOL0     H21748   8.482  10.575   9.595  0.4014  0.4915 -1.3830
  902MOL0     H21749   8.478  10.754   9.556  2.0544  2.2369  0.2849
  902MOL0     H21750   7.572  10.603   9.892  1.5520  0.7577  0.6707
  902MOL0     H21751   7.441  10.395   9.816  1.1526 -2.6870  3.4347
  902MOL0     H21752   7.362  10.105   9.527  0.2701 -0.2510 -1.2139
  902MOL0     H21753   7.202   9.950   9.484 -0.2589 -0.1258 -1.0239
  902MOL0     H21754   6.444   8.154   9.716  1.1221 -0.6942 -0.7190
  902MOL0     H21755   6.232   8.031   9.766 -0.9298 -0.4208  0.2583
  902MOL0     H21756   5.862   7.835   9.648  0.7047  0.8036 -0.0034
  902MOL0     H21757   5.660   7.699   9.704  1.3756  3.4342 -1.0755
  902MOL0     H21758   5.641   7.323   9.651  0.5344  1.2647  0.0278
  902MOL0     H21759   5.553   7.475   9.626  0.7645  0.6985  0.1529
  902MOL0     H21760   5.399   7.396   9.827 -0.6314 -0.1848  0.0494
  902MOL0     H21761   5.503   7.254   9.846  1.7078  0.5389 -0.9032
  902MOL0     H21762   5.442   7.175   9.629 -1.4528  0.9055 -1.4639
  902MOL0     H21763   5.328   7.306   9.602 -0.2112  0.4167  0.1130
  902MOL0     H21764   5.226   7.077   9.685 -0.3268 -1.1660  0.4090
  902MOL0     H21765   5.307   7.107   9.837 -2.8742  0.1268  1.3512
  902MOL0     H21766   4.979   7.346   9.876 -0.6961 -1.7308  0.6953
  902MOL0     H21767   5.910   7.362   9.767  5.3229  1.4277  2.3998
  902MOL0     H21768   6.122   7.354   9.676 -0.7895  1.0096 -1.5062
  902MOL0     H21769   6.210   7.482   9.603  0.5323 -1.2176  0.0071
  902MOL0     H21770   6.215   7.471   9.775  0.9670  0.7824 -1.2171
  903MOL0     O21771   3.696   1.824  11.417  0.2477  0.2398 -0.4537
  903MOL0     C21772   3.719   1.946  11.433 -0.8185  0.3597 -0.4816
  903MOL0     O21773   3.665   2.022  11.534 -0.4944 -0.3392  0.2937
  903MOL0     C21774   3.581   1.961  11.612  0.1155  0.5573 -0.2383
  903MOL0     C21775   3.446   1.924  11.575 -0.9369  0.7746 -0.1259
  903MOL0     C21776   3.364   1.861  11.677  0.3703 -0.0878  0.0057
  903MOL0     C21777   3.417   1.844  11.811  1.0119  1.0985  0.5076
  903MOL0     O21778   3.342   1.769  11.898  0.9480  0.2369  0.0008
  903MOL0     C21779   3.308   1.633  11.861 -0.5480 -0.4916  0.2428
  903MOL0     C21780   3.163   1.603  11.886 -0.3536  1.6773 -0.2904
  903MOL0     C21781   3.106   1.640  12.019  0.1158  0.2681  0.3938
  903MOL0     C21782   3.178   1.568  12.143 -0.1888  0.1646 -0.0920
  903MOL0     C21783   3.087   1.571  12.272  0.1789 -0.1458 -0.5326
  903MOL0     C21784   3.031   1.709  12.309  0.1766 -0.3768  0.5689
  903MOL0     C21785   2.986   1.707  12.462  0.7330  0.0170 -0.2639
  903MOL0     C21786   2.887   1.599  12.498  0.2696 -0.8598  0.4201
  903MOL0     N21787   2.754   1.619  12.443  0.2423  0.0258 -0.1248
  903MOL0     C21788   2.682   1.734  12.437 -0.4954 -0.5639 -0.0624
  903MOL0     C21789   2.576   1.703  12.357  0.4008  0.6050 -0.2164
  903MOL0     C21790   2.463   1.785  12.319 -0.0939 -0.0331 -0.3632
  903MOL0     C21791   2.453   1.925  12.390 -0.7062  0.3391  1.0604
  903MOL0     C21792   2.346   2.020  12.335 -0.1364 -0.1950  0.1713
  903MOL0     C21793   2.382   2.084  12.205 -0.5342  0.4950 -0.3112
  903MOL0     O21794   2.499   2.157  12.219  0.2520 -0.1493 -0.3945
  903MOL0     C21795   2.525   2.238  12.105 -0.7164  0.2886 -0.0917
  903MOL0     C21796   2.624   2.338  12.125 -0.5790  0.1557  0.6775
  903MOL0     C21797   2.685   2.398  12.015  0.7991  0.1559  0.4503
  903MOL0     C21798   2.647   2.373  11.878  0.8249 -0.5818 -0.5197
  903MOL0     C21799   2.707   2.443  11.753  0.0884 -0.4081 -0.2762
  903MOL0     O21800   2.653   2.416  11.634  0.1636  0.3859 -0.2140
  903MOL0     C21801   2.712   2.471  11.524 -0.8249 -0.3936  0.3884
  903MOL0     C21802   2.633   2.536  11.437  1.3800 -0.3900  0.6655
  903MOL0     C21803   2.676   2.592  11.321  0.2567  0.2889 -0.7894
  903MOL0     C21804   2.801   2.559  11.275  0.3986  0.2513  0.9790
  903MOL0     O21805   2.818   2.595  11.142 -0.7746 -0.1211 -0.2522
  903MOL0     C21806   2.948   2.585  11.074 -0.6091 -0.1938  0.2848
  903MOL0     C21807   2.919   2.524  10.943 -0.0749  0.3009 -0.9964
  903MOL0     C21808   3.044   2.481  10.874  0.1466  0.1707  0.0387
  903MOL0     C21809   3.138   2.606  10.843  1.0802  0.1979 -0.0789
  903MOL0     C21810   3.226   2.586  10.722  0.6228  0.2368 -0.8278
  903MOL0     C21811   3.323   2.464  10.729  0.9379 -0.3604 -0.4484
  903MOL0     C21812   3.437   2.465  10.622  0.5694  0.0017  0.2437
  903MOL0     C21813   3.525   2.345  10.635  0.6352  0.0799 -0.0559
  903MOL0    Cl21814   3.642   2.326  10.494  0.1385  0.4316  0.5618
  903MOL0     C21815   2.891   2.483  11.352  0.3411  0.5228  0.8667
  903MOL0     C21816   2.848   2.442  11.481 -0.0226  0.3028  0.2946
  903MOL0     O21817   2.784   2.539  11.776 -0.1578 -0.4689 -0.2909
  903MOL0     C21818   2.536   2.289  11.856  1.0013 -0.2902  0.1319
  903MOL0     C21819   2.472   2.223  11.974  0.7264  0.2536  0.1034
  903MOL0     N21820   2.581   1.569  12.330  0.0773 -0.3945  0.2753
  903MOL0     N21821   2.686   1.520  12.379 -0.0007  0.5374  0.1952
  903MOL0     C21822   3.552   1.871  11.837 -0.6298  0.1812  0.0128
  903MOL0     C21823   3.623   1.939  11.736  0.2610  0.1588 -0.3779
  903MOL0     C21824   3.841   2.001  11.372  0.3605 -0.2464  0.4072
  903MOL0     C21825   3.843   2.138  11.347 -0.0488 -0.6081 -0.6929
  903MOL0     C21826   3.943   2.202  11.288 -0.1885 -0.3503  0.2506
  903MOL0     C21827   4.057   2.129  11.227  0.8686 -0.4599  0.1690
  903MOL0     O21828   4.150   2.202  11.153 -0.3430  0.2846  0.3896
  903MOL0     C21829   4.242   2.131  11.063  0.3496  0.9007  0.3197
  903MOL0     C21830   4.323   2.235  10.978 -0.2880  0.9096 -0.6048
  903MOL0     C21831   4.231   2.338  10.915 -0.0048  0.7077 -0.6135
  903MOL0     C21832   4.318   2.446  10.845  0.4761  0.1485 -0.3385
  903MOL0     C21833   4.360   2.548  10.936 -0.3185 -0.8987  0.4245
  903MOL0     C21834   4.398   2.636  11.007  0.2198  0.0288  1.0402
  903MOL0     C21835   4.048   1.999  11.240 -0.2307  0.3754 -0.2693
  903MOL0     C21836   3.957   1.929  11.321  0.3268 -0.2877  0.2763
  903MOL0     C21837   3.995   1.795  11.365 -0.1219 -0.5808  0.1103
  903MOL0     H21838   3.426   1.960  11.475 -0.8829  2.2789  0.3738
  903MOL0     H21839   3.256   1.859  11.665  0.3631  2.4616 -0.8788
  903MOL0     H21840   3.334   1.620  11.756 -0.4690  3.7612 -0.4268
  903MOL0     H21841   3.366   1.561  11.919  1.4040  2.1060  1.7335
  903MOL0     H21842   3.151   1.494  11.880 -1.9194  1.8895 -1.4025
  903MOL0     H21843   3.103   1.634  11.800 -0.1964 -1.1901 -1.5572
  903MOL0     H21844   3.004   1.601  12.012  0.9334 -1.6488 -4.0479
  903MOL0     H21845   3.097   1.749  12.026 -1.9519  0.0857  1.2868
  903MOL0     H21846   3.209   1.467  12.114 -0.1916 -0.6630  2.4884
  903MOL0     H21847   3.272   1.614  12.175 -0.8980  0.6595  1.4137
  903MOL0     H21848   3.002   1.501  12.267 -1.3856  1.6238  0.0701
  903MOL0     H21849   3.158   1.536  12.348 -0.8962  0.0364  0.5899
  903MOL0     H21850   3.118   1.775  12.302 -0.2400  0.1701  0.3793
  903MOL0     H21851   2.951   1.729  12.237  1.9828 -1.5727 -1.9324
  903MOL0     H21852   2.953   1.809  12.480  1.1172  0.1276 -0.1812
  903MOL0     H21853   3.069   1.699  12.534  3.9618  0.1437 -3.6450
  903MOL0     H21854   2.935   1.508  12.463  2.4631  1.1477 -2.2592
  903MOL0     H21855   2.874   1.593  12.606  0.7064 -3.2886  0.3957
  903MOL0     H21856   2.710   1.829  12.482  1.9391 -2.4595  2.7954
  903MOL0     H21857   2.462   1.798  12.210 -0.4682  1.2516 -0.2233
  903MOL0     H21858   2.376   1.728  12.353  0.7965 -2.7534 -2.3072
  903MOL0     H21859   2.440   1.903  12.496  1.0133  0.4439  1.3121
  903MOL0     H21860   2.550   1.975  12.382 -0.1682 -0.7531  0.6575
  903MOL0     H21861   2.312   2.094  12.408 -1.5005 -2.4593  1.9536
  903MOL0     H21862   2.265   1.953  12.307  2.2282 -4.1452  1.8597
  903MOL0     H21863   2.301   2.149  12.172 -0.2974  0.0597 -1.8214
  903MOL0     H21864   2.400   2.009  12.127 -1.3964  0.2477 -0.2783
  903MOL0     H21865   2.665   2.347  12.225  4.8108 -1.4104 -1.0445
  903MOL0     H21866   2.775   2.453  12.042  3.9830 -3.6311 -1.5037
  903MOL0     H21867   2.528   2.531  11.461  1.4822 -0.6676  1.0550
  903MOL0     H21868   2.615   2.646  11.249  0.9963  0.9480 -0.9370
  903MOL0     H21869   2.999   2.680  11.057  2.2279 -1.2692  2.0104
  903MOL0     H21870   3.026   2.535  11.133  0.7061  2.6717  1.2070
  903MOL0     H21871   2.866   2.431  10.961  3.0925 -1.0548  2.3677
  903MOL0     H21872   2.859   2.588  10.877  0.2593 -1.1279 -2.7542
  903MOL0     H21873   3.100   2.405  10.928 -1.5711 -3.0072 -2.2938
  903MOL0     H21874   2.999   2.433  10.787 -3.9648  2.7742  0.4602
  903MOL0     H21875   3.204   2.610  10.930 -1.5149 -1.1724  2.1377
  903MOL0     H21876   3.078   2.697  10.835 -1.2961 -1.0843  1.6918
  903MOL0     H21877   3.284   2.678  10.714  0.8318  0.1194 -0.6795
  903MOL0     H21878   3.171   2.568  10.630 -0.5299  1.3464 -0.3817
  903MOL0     H21879   3.367   2.443  10.827  1.1546 -1.7154 -0.8234
  903MOL0     H21880   3.255   2.379  10.715 -1.4163  1.3289  0.0148
  903MOL0     H21881   3.491   2.560  10.634 -3.4313  2.6762 -0.6542
  903MOL0     H21882   3.386   2.465  10.526 -2.7072  1.3542  1.8108
  903MOL0     H21883   3.583   2.360  10.727  1.0503 -1.5123 -0.0273
  903MOL0     H21884   3.471   2.250  10.628  1.4875 -0.3512 -1.0475
  903MOL0     H21885   2.998   2.481  11.334  0.3002  0.9290  0.5587
  903MOL0     H21886   2.903   2.382  11.553 -3.5239 -2.5661  0.8692
  903MOL0     H21887   2.514   2.266  11.752  1.8896 -2.3806  0.3529
  903MOL0     H21888   2.386   2.164  11.948  2.2569 -2.5043  0.9134
  903MOL0     H21889   3.592   1.838  11.932  0.7827  2.6979  0.3750
  903MOL0     H21890   3.726   1.965  11.756 -0.0952  0.7324  0.8121
  903MOL0     H21891   3.757   2.197  11.378  2.1946  0.5429  4.3281
  903MOL0     H21892   3.926   2.309  11.279  2.3587  0.1135  0.3228
  903MOL0     H21893   4.181   2.073  10.992 -0.4206  1.5975  0.3967
  903MOL0     H21894   4.313   2.066  11.116 -0.5331 -2.3406 -2.1076
  903MOL0     H21895   4.367   2.179  10.894 -2.7186  0.4669 -1.6752
  903MOL0     H21896   4.399   2.278  11.043  1.0106  1.8789 -2.6717
  903MOL0     H21897   4.182   2.393  10.996  0.4721 -1.6547  1.3904
  903MOL0     H21898   4.171   2.298  10.834 -1.0125  3.2127 -1.1950
  903MOL0     H21899   4.401   2.400  10.790  0.9662  1.7169 -0.9669
  903MOL0     H21900   4.264   2.497  10.764  3.2797 -2.1085 -3.9436
  903MOL0     H21901   4.444   2.720  11.055 -0.6085  0.6314  0.7999
  903MOL0     H21902   4.128   1.942  11.193  0.7881  0.8512  0.8351
  903MOL0     H21903   4.104   1.803  11.375 -0.2182 -0.2562  0.9399
  903MOL0     H21904   3.966   1.784  11.469 -1.2188  2.8298  0.2942
  903MOL0     H21905   3.987   1.711  11.295  1.8109  0.3274 -1.3105
  904MOL0     O21906   1.176   3.957   4.194  0.1562 -0.0637 -0.5531
  904MOL0     C21907   1.140   4.046   4.119 -0.2983 -0.6524 -0.9614
  904MOL0     O21908   1.099   4.031   3.989 -0.4377 -0.4827 -0.5073
  904MOL0     C21909   1.129   3.917   3.915  0.2910 -0.3898 -0.5291
  904MOL0     C21910   1.035   3.838   3.860  0.4467 -0.1264  0.4436
  904MOL0     C21911   1.074   3.711   3.802 -0.3165  0.2493  0.7213
  904MOL0     C21912   1.216   3.691   3.780 -1.0140  0.5622 -0.0094
  904MOL0     O21913   1.270   3.586   3.725 -0.2456 -0.1377  0.6504
  904MOL0     C21914   1.207   3.461   3.739 -0.8226 -0.5365 -0.1905
  904MOL0     C21915   1.311   3.352   3.703 -0.2718 -0.0873 -0.4404
  904MOL0     C21916   1.444   3.349   3.781  1.1050 -0.2573  0.2864
  904MOL0     C21917   1.486   3.198   3.814  0.9175 -0.8466  0.1585
  904MOL0     C21918   1.391   3.132   3.914  0.0944 -0.1579  0.2332
  904MOL0     C21919   1.385   3.184   4.059  0.6117 -0.2295  0.6437
  904MOL0     C21920   1.270   3.106   4.120  0.1366 -0.2597  0.6936
  904MOL0     C21921   1.274   3.112   4.280  0.0084 -0.2029  0.0267
  904MOL0     N21922   1.196   2.995   4.329 -0.3880 -0.8551  0.3287
  904MOL0     C21923   1.081   3.008   4.390  0.3252 -0.2778  0.0198
  904MOL0     C21924   1.031   2.886   4.401  0.1867  0.2648  1.1591
  904MOL0     C21925   0.909   2.832   4.477  0.5532  0.2497 -0.0021
  904MOL0     C21926   0.923   2.833   4.629 -0.2609 -0.6300  1.1333
  904MOL0     C21927   1.024   2.726   4.663 -0.5278  0.8427 -0.1770
  904MOL0     C21928   1.096   2.739   4.801  0.2862 -0.6423  0.6457
  904MOL0     O21929   1.125   2.878   4.811 -0.1294  0.6528  0.3381
  904MOL0     C21930   1.240   2.928   4.747 -0.0877 -0.6742 -0.5707
  904MOL0     C21931   1.324   2.859   4.645  0.3641 -0.2797 -0.0797
  904MOL0     C21932   1.435   2.923   4.593  0.2436 -0.0656 -0.1104
  904MOL0     C21933   1.462   3.060   4.626 -0.2053 -0.5942 -0.0330
  904MOL0     C21934   1.586   3.124   4.570  0.4550  0.4859  0.1837
  904MOL0     O21935   1.633   3.234   4.638  0.2894  0.1208  0.7104
  904MOL0     C21936   1.733   3.305   4.584 -0.1736  0.2133  0.0802
  904MOL0     C21937   1.734   3.447   4.594 -0.1090 -0.2707  0.1441
  904MOL0     C21938   1.843   3.523   4.552  0.1463 -0.3692  0.5689
  904MOL0     C21939   1.951   3.463   4.479 -1.3901 -0.5427 -0.6712
  904MOL0     O21940   2.051   3.547   4.425  0.2218 -0.6989 -0.4634
  904MOL0     C21941   2.185   3.494   4.415  0.0652  0.0170 -0.0419
  904MOL0     C21942   2.275   3.574   4.493 -0.9811 -0.8236 -0.0743
  904MOL0     C21943   2.420   3.557   4.466  0.0616 -0.0332  0.7092
  904MOL0     C21944   2.471   3.589   4.318 -0.3749  0.4351  0.2286
  904MOL0     C21945   2.620   3.619   4.306  0.3447  0.0389  0.1818
  904MOL0     C21946   2.710   3.501   4.359 -0.6725 -0.3930  0.2562
  904MOL0     C21947   2.715   3.381   4.267 -0.6469  0.8683 -0.0307
  904MOL0     C21948   2.688   3.255   4.347  0.2149 -0.3277  0.0619
  904MOL0    Cl21949   2.835   3.217   4.443  0.1516  1.0194  0.2930
  904MOL0     C21950   1.949   3.326   4.475  0.0740 -0.4200  0.6625
  904MOL0     C21951   1.841   3.246   4.522 -0.0932 -0.4206 -0.2246
  904MOL0     O21952   1.630   3.075   4.474 -0.6693  0.1516  0.3446
  904MOL0     C21953   1.380   3.125   4.722  0.0927  0.2713  0.7298
  904MOL0     C21954   1.283   3.057   4.790 -0.6128 -0.4220  0.1839
  904MOL0     N21955   1.120   2.797   4.335  0.4972 -0.3272  0.7026
  904MOL0     N21956   1.224   2.860   4.299  0.4074 -0.9529 -0.2100
  904MOL0     C21957   1.308   3.782   3.833  0.0841  0.0180  0.2627
  904MOL0     C21958   1.266   3.896   3.894 -0.4521 -0.0764  0.0600
  904MOL0     C21959   1.107   4.180   4.181 -0.1148  0.2269  0.0512
  904MOL0     C21960   1.062   4.280   4.087 -0.0881  0.4765  0.2997
  904MOL0     C21961   1.031   4.405   4.141  1.4853 -0.4792 -0.6457
  904MOL0     C21962   1.012   4.423   4.282 -0.3744 -0.6199 -0.5623
  904MOL0     O21963   0.981   4.546   4.336  0.3407 -0.0439  0.3584
  904MOL0     C21964   0.943   4.663   4.258 -0.6476  0.6491 -0.2070
  904MOL0     C21965   0.944   4.789   4.344 -0.3698 -0.5743  0.1053
  904MOL0     C21966   1.094   4.819   4.396 -0.0629  0.3284 -0.1929
  904MOL0     C21967   1.179   4.905   4.312 -1.6707  0.2533  0.5801
  904MOL0     C21968   1.319   4.906   4.348 -0.6721  0.3068  0.5799
  904MOL0     C21969   1.438   4.914   4.379 -0.1721 -0.4869 -0.5330
  904MOL0     C21970   1.053   4.322   4.369  0.5950  0.0867 -0.3166
  904MOL0     C21971   1.105   4.203   4.319 -0.6483 -0.9797 -0.3014
  904MOL0     C21972   1.147   4.101   4.416  0.1517  0.4911 -0.2196
  904MOL0     H21973   0.930   3.857   3.881  0.8307  1.2523  1.2794
  904MOL0     H21974   0.988   3.650   3.775 -1.2751  1.4537  0.9845
  904MOL0     H21975   1.169   3.454   3.842  0.2803 -1.2916  0.1948
  904MOL0     H21976   1.119   3.460   3.675 -1.3776  0.4542  0.5162
  904MOL0     H21977   1.341   3.333   3.599  1.2684 -0.8848  0.1099
  904MOL0     H21978   1.254   3.261   3.725 -0.3353  0.3142  1.1560
  904MOL0     H21979   1.424   3.418   3.863 -1.4824 -0.2661 -0.2561
  904MOL0     H21980   1.531   3.395   3.733 -1.3390  2.0013 -2.3518
  904MOL0     H21981   1.480   3.136   3.725 -1.3778  0.5420 -0.7265
  904MOL0     H21982   1.588   3.187   3.852  1.4187 -1.3167 -1.2649
  904MOL0     H21983   1.290   3.118   3.874 -0.8944  2.2930  1.6677
  904MOL0     H21984   1.426   3.029   3.926  0.9703  0.2503  1.4494
  904MOL0     H21985   1.477   3.166   4.117  1.4048  4.1866  1.0844
  904MOL0     H21986   1.373   3.293   4.056  5.2187  0.6502 -5.5077
  904MOL0     H21987   1.256   3.006   4.078  0.0763 -0.8574  2.1068
  904MOL0     H21988   1.174   3.159   4.112  0.3868  0.4111  1.9373
  904MOL0     H21989   1.377   3.098   4.315  0.5573  1.0938 -0.9880
  904MOL0     H21990   1.236   3.207   4.316 -0.7023 -0.1421 -0.8546
  904MOL0     H21991   1.043   3.100   4.434  0.7805  0.7439 -1.6538
  904MOL0     H21992   0.825   2.894   4.443  0.5318  0.1808 -0.0743
  904MOL0     H21993   0.885   2.730   4.444  1.0641  0.1210  0.0278
  904MOL0     H21994   0.958   2.932   4.660  0.1459  0.4812 -2.3786
  904MOL0     H21995   0.829   2.816   4.682 -0.6602 -1.4002  0.2131
  904MOL0     H21996   1.100   2.719   4.584 -0.9495  0.4941 -0.5575
  904MOL0     H21997   0.974   2.630   4.645  1.1479  0.2667 -2.3046
  904MOL0     H21998   1.186   2.677   4.805 -0.3708 -1.5594  2.2939
  904MOL0     H21999   1.024   2.707   4.877 -1.4242 -1.1400 -1.0894
  904MOL0     H22000   1.305   2.760   4.604 -3.5626  0.7164 -1.1699
  904MOL0     H22001   1.500   2.868   4.525  1.4924 -1.6426  2.2229
  904MOL0     H22002   1.655   3.501   4.646  2.4333  4.1066 -0.0431
  904MOL0     H22003   1.842   3.631   4.565  0.1945  0.2920 -3.4963
  904MOL0     H22004   2.193   3.393   4.456  0.8697 -0.4463 -1.2775
  904MOL0     H22005   2.210   3.488   4.308  1.5500 -1.1598  0.3370
  904MOL0     H22006   2.255   3.678   4.465  4.3512 -0.1019 -2.2654
  904MOL0     H22007   2.260   3.559   4.601 -0.5870  0.6238  0.2070
  904MOL0     H22008   2.470   3.620   4.541  0.0982 -1.2002  1.6957
  904MOL0     H22009   2.451   3.456   4.495  1.0022 -0.3570 -1.2200
  904MOL0     H22010   2.419   3.683   4.295  1.6873  1.6962  0.4881
  904MOL0     H22011   2.443   3.504   4.255  2.2429 -1.1597  1.0431
  904MOL0     H22012   2.635   3.717   4.353 -0.9588 -0.2034  1.1743
  904MOL0     H22013   2.644   3.627   4.200  3.1290  0.3516  0.7619
  904MOL0     H22014   2.813   3.538   4.362  0.2743 -2.5872 -1.6519
  904MOL0     H22015   2.684   3.458   4.456 -0.3934 -1.7811 -0.2510
  904MOL0     H22016   2.817   3.374   4.228  0.7244 -2.9784  3.5168
  904MOL0     H22017   2.638   3.391   4.190  0.8909  2.0161 -1.5032
  904MOL0     H22018   2.602   3.277   4.410  0.4110  1.5605 -0.2493
  904MOL0     H22019   2.671   3.170   4.280  2.7212 -1.2948  0.5476
  904MOL0     H22020   2.030   3.290   4.412  0.2138  1.1430 -0.1016
  904MOL0     H22021   1.847   3.138   4.509  0.0130 -0.8448  2.6530
  904MOL0     H22022   1.399   3.227   4.752 -1.9269  1.5741 -2.0352
  904MOL0     H22023   1.226   3.109   4.866  1.5054  3.8487 -0.7685
  904MOL0     H22024   1.413   3.765   3.811  0.1651  0.2649  0.4531
  904MOL0     H22025   1.329   3.972   3.938  1.5341 -0.6934 -1.5712
  904MOL0     H22026   1.065   4.262   3.980 -0.1431 -1.1227  0.5394
  904MOL0     H22027   1.005   4.488   4.076  3.0463  1.1880  0.7531
  904MOL0     H22028   0.846   4.648   4.210  0.4445  0.1302 -2.3969
  904MOL0     H22029   1.012   4.683   4.176 -0.6636 -1.2115 -0.7104
  904MOL0     H22030   0.876   4.788   4.429  0.6321  1.5543  1.0026
  904MOL0     H22031   0.911   4.869   4.276 -0.2723 -3.5512 -3.8149
  904MOL0     H22032   1.141   4.721   4.403 -1.8724 -0.6971 -1.4670
  904MOL0     H22033   1.098   4.860   4.497 -0.1412 -0.2914  0.0656
  904MOL0     H22034   1.173   4.867   4.210  0.7008 -1.9938  1.1789
  904MOL0     H22035   1.147   5.010   4.322  0.8887  0.9422  2.7327
  904MOL0     H22036   1.541   4.906   4.409 -0.7730 -2.4913  1.2268
  904MOL0     H22037   1.044   4.353   4.472  1.2244  2.8169 -1.0173
  904MOL0     H22038   1.142   4.134   4.520 -0.6466  2.8091 -0.9425
  904MOL0     H22039   1.079   4.018   4.399  0.6685  0.4456 -2.3825
  904MOL0     H22040   1.249   4.064   4.401  1.5439  3.5706  0.8190
  905MOL0     O22041  10.592  11.403   2.427 -0.3663  0.6499  0.9812
  905MOL0     C22042  10.655  11.504   2.408 -0.9347 -0.0231 -0.5256
  905MOL0     O22043  10.636  11.584   2.302 -0.7427  0.0430  0.0847
  905MOL0     C22044  10.541  11.553   2.210 -0.7053  0.5157  0.3039
  905MOL0     C22045  10.447  11.651   2.183  0.3700 -0.1924  0.0627
  905MOL0     C22046  10.345  11.629   2.089 -0.1378 -0.1239  0.2981
  905MOL0     C22047  10.342  11.502   2.023 -0.3689  0.6700 -0.2764
  905MOL0     O22048  10.236  11.468   1.940 -0.2634  0.1139  0.6817
  905MOL0     C22049  10.225  11.340   1.878 -0.2963 -1.3000  0.2430
  905MOL0     C22050  10.105  11.323   1.776 -0.9801  0.5373 -0.3718
  905MOL0     C22051   9.995  11.231   1.819 -0.3616  0.0770  0.6599
  905MOL0     C22052   9.928  11.153   1.699 -0.6508  0.2218 -0.5880
  905MOL0     C22053   9.801  11.076   1.750 -0.5607 -0.5068 -0.3139
  905MOL0     C22054   9.721  11.021   1.635 -0.3082 -0.0310 -0.5452
  905MOL0     C22055   9.591  10.972   1.697  0.5880  0.1083  0.0231
  905MOL0     C22056   9.510  10.893   1.599 -0.7820 -1.1334  0.5205
  905MOL0     N22057   9.463  10.986   1.494 -0.2347  0.8868 -0.9372
  905MOL0     C22058   9.365  11.078   1.509  0.1702  1.1723 -0.2532
  905MOL0     C22059   9.331  11.116   1.389  0.9780 -0.1585 -0.1494
  905MOL0     C22060   9.229  11.229   1.383 -0.0492 -0.4757  0.4042
  905MOL0     C22061   9.095  11.170   1.335 -0.3793  1.3658 -0.4284
  905MOL0     C22062   9.021  11.097   1.450 -0.4809  0.2192 -0.2156
  905MOL0     C22063   8.887  11.043   1.426 -0.7930 -0.5190  0.1108
  905MOL0     O22064   8.794  11.154   1.405 -0.3356 -0.3712 -0.4614
  905MOL0     C22065   8.665  11.130   1.434  0.9079 -0.0699  0.5107
  905MOL0     C22066   8.577  11.234   1.459 -0.0627  0.0831 -0.0277
  905MOL0     C22067   8.439  11.212   1.492  0.0625  1.0063  0.0621
  905MOL0     C22068   8.387  11.082   1.519 -0.2902 -0.6862  0.3889
  905MOL0     C22069   8.244  11.052   1.550  0.2979  0.5754  0.1999
  905MOL0     O22070   8.156  11.166   1.571 -0.0080 -0.8172  1.0323
  905MOL0     C22071   8.022  11.143   1.590 -0.4700 -0.1381  0.2244
  905MOL0     C22072   7.967  11.081   1.706  0.4270  0.1074 -0.4187
  905MOL0     C22073   7.827  11.065   1.706 -0.4672 -0.1798  0.6905
  905MOL0     C22074   7.741  11.100   1.603  0.7479 -0.9477 -0.6717
  905MOL0     O22075   7.604  11.060   1.608 -0.2053 -0.3503 -1.0901
  905MOL0     C22076   7.525  11.078   1.493  0.2136  0.3450  0.8532
  905MOL0     C22077   7.371  11.082   1.522  0.7444  0.1183 -0.5864
  905MOL0     C22078   7.291  11.018   1.409  0.6483 -0.3357 -1.1276
  905MOL0     C22079   7.297  10.867   1.422  0.5587  0.0320  0.1647
  905MOL0     C22080   7.247  10.788   1.305  0.8486 -1.6219 -0.8867
  905MOL0     C22081   7.356  10.790   1.197  0.8823  0.5085  0.1129
  905MOL0     C22082   7.322  10.703   1.077  0.6052 -0.1837  0.1349
  905MOL0     C22083   7.440  10.694   0.979 -0.8483 -0.2170  0.2336
  905MOL0    Cl22084   7.398  10.585   0.846 -0.4980  0.1080  0.5391
  905MOL0     C22085   7.805  11.169   1.497  0.1251  0.0402  0.4759
  905MOL0     C22086   7.943  11.184   1.484  0.0318  1.3806  0.4980
  905MOL0     O22087   8.205  10.935   1.536 -0.2684  1.0296  0.6075
  905MOL0     C22088   8.480  10.976   1.507  0.7976  0.4226  0.1983
  905MOL0     C22089   8.613  11.001   1.463  0.9760 -0.1185 -0.0112
  905MOL0     N22090   9.410  11.064   1.289  0.9210  0.2193  0.4108
  905MOL0     N22091   9.487  10.982   1.354 -0.3769 -0.1481  0.7399
  905MOL0     C22092  10.439  11.409   2.046  1.2345  0.7191 -0.8179
  905MOL0     C22093  10.537  11.433   2.137  0.5224  0.4610 -0.0242
  905MOL0     C22094  10.769  11.549   2.498 -0.3690  0.2006  0.1131
  905MOL0     C22095  10.865  11.640   2.455 -0.1262 -0.1579 -1.3145
  905MOL0     C22096  10.974  11.679   2.535 -0.4268 -0.3877  0.3883
  905MOL0     C22097  10.981  11.644   2.673  1.1725 -0.0161 -0.0001
  905MOL0     O22098  11.090  11.672   2.757  0.4776  0.1871 -0.8969
  905MOL0     C22099  11.182  11.767   2.708  0.5092  0.7508 -0.2218
  905MOL0     C22100  11.274  11.825   2.829 -0.1653 -0.4059  0.6437
  905MOL0     C22101  11.204  11.953   2.905 -0.5600  0.0748 -0.0638
  905MOL0     C22102  11.268  11.986   3.046 -0.0508 -0.1960  0.8337
  905MOL0     C22103  11.418  12.007   3.032 -0.3797 -0.4507 -0.9382
  905MOL0     C22104  11.533  12.036   3.004 -0.5956 -0.6906  0.3167
  905MOL0     C22105  10.897  11.544   2.713  0.0323  0.2265  0.1323
  905MOL0     C22106  10.789  11.499   2.631 -0.2248  0.3806 -0.8983
  905MOL0     C22107  10.708  11.385   2.690 -0.6975 -0.4252  0.3764
  905MOL0     H22108  10.466  11.746   2.232  2.6466 -0.8158  0.5189
  905MOL0     H22109  10.270  11.707   2.078  2.0894  2.0570 -0.3970
  905MOL0     H22110  10.315  11.335   1.815 -0.4041  1.6094 -0.2942
  905MOL0     H22111  10.233  11.258   1.949  1.8663 -1.6301 -0.3062
  905MOL0     H22112  10.154  11.277   1.689 -1.5702 -3.2322  1.0688
  905MOL0     H22113  10.063  11.422   1.758 -2.8344 -0.3771 -1.4321
  905MOL0     H22114   9.919  11.297   1.862 -2.1450 -0.3234 -1.6460
  905MOL0     H22115  10.037  11.151   1.881 -0.5008 -1.1325 -0.7322
  905MOL0     H22116   9.891  11.222   1.622 -1.0629 -0.1228 -0.6997
  905MOL0     H22117  10.013  11.101   1.654 -0.9014 -1.4604  0.7997
  905MOL0     H22118   9.835  10.995   1.816 -0.0020  1.2355  1.6724
  905MOL0     H22119   9.732  11.143   1.803 -1.2641  0.3014 -2.1659
  905MOL0     H22120   9.705  11.103   1.564 -1.0794 -1.0110 -1.5339
  905MOL0     H22121   9.777  10.936   1.594  1.3257  1.4394 -1.5120
  905MOL0     H22122   9.530  11.053   1.739 -1.6708 -0.6149 -1.6685
  905MOL0     H22123   9.596  10.904   1.783 -2.0395 -0.0031  0.1862
  905MOL0     H22124   9.560  10.811   1.547  0.6724 -1.3695  2.2043
  905MOL0     H22125   9.417  10.862   1.649  0.7415 -0.0317  4.4450
  905MOL0     H22126   9.317  11.121   1.596  0.8992  0.5891  0.4526
  905MOL0     H22127   9.221  11.278   1.481  0.6265  1.8540 -0.6378
  905MOL0     H22128   9.275  11.309   1.324 -2.6467  2.2437  1.7101
  905MOL0     H22129   9.027  11.249   1.302  0.2768  1.3467 -1.9050
  905MOL0     H22130   9.125  11.106   1.251  2.9645  1.8885  0.2367
  905MOL0     H22131   9.009  11.171   1.529 -1.6298  0.2807 -0.4394
  905MOL0     H22132   9.090  11.022   1.491 -1.3100 -0.9348 -0.8920
  905MOL0     H22133   8.872  10.977   1.512 -0.4013 -2.7076 -1.4031
  905MOL0     H22134   8.874  10.972   1.343  0.3370 -0.7740  0.1385
  905MOL0     H22135   8.596  11.340   1.445 -2.2470  0.2543 -2.6665
  905MOL0     H22136   8.377  11.297   1.519 -0.5087  0.7846 -0.5187
  905MOL0     H22137   8.022  11.018   1.775 -0.4877 -0.5396 -0.2550
  905MOL0     H22138   7.781  11.012   1.788 -2.0451  0.4068  0.2269
  905MOL0     H22139   7.541  11.164   1.427 -2.6665 -2.2715 -3.7488
  905MOL0     H22140   7.549  10.997   1.424  4.1520  2.7494 -0.9540
  905MOL0     H22141   7.341  11.039   1.618 -2.9233  1.9438 -0.7634
  905MOL0     H22142   7.332  11.184   1.525  0.6349  0.0615  2.1228
  905MOL0     H22143   7.190  11.059   1.412  1.6480  2.3150  0.5157
  905MOL0     H22144   7.338  11.048   1.315  0.3086  0.6036 -1.0089
  905MOL0     H22145   7.232  10.845   1.507  0.0832 -0.0240 -0.2074
  905MOL0     H22146   7.395  10.832   1.454 -0.9196 -1.1716  4.0405
  905MOL0     H22147   7.157  10.836   1.264  1.4417 -0.5276 -0.9380
  905MOL0     H22148   7.239  10.683   1.336  2.7758 -1.4450  0.3375
  905MOL0     H22149   7.379  10.890   1.160  0.5313  0.2140 -0.9393
  905MOL0     H22150   7.441  10.743   1.247  0.2003 -0.1763  0.6500
  905MOL0     H22151   7.238  10.744   1.021  1.1545 -0.7502 -1.1372
  905MOL0     H22152   7.299  10.600   1.104  0.2663 -0.4002 -0.9555
  905MOL0     H22153   7.447  10.794   0.935 -4.1061  1.7120  3.5282
  905MOL0     H22154   7.531  10.662   1.030  0.4818 -2.6270 -3.2839
  905MOL0     H22155   7.747  11.216   1.418  0.9290 -1.7960 -1.3073
  905MOL0     H22156   7.987  11.240   1.402 -2.1762  2.1085 -0.2590
  905MOL0     H22157   8.442  10.876   1.522 -2.4127  1.0309 -2.6613
  905MOL0     H22158   8.682  10.918   1.458  1.1930 -0.1119  1.9217
  905MOL0     H22159  10.443  11.315   1.991  0.2682 -0.7808  1.5336
  905MOL0     H22160  10.603  11.358   2.178  0.8313  2.4504  3.5304
  905MOL0     H22161  10.855  11.675   2.352  0.3227 -1.4880 -1.8323
  905MOL0     H22162  11.052  11.730   2.478  0.0601 -0.6705  0.7982
  905MOL0     H22163  11.140  11.850   2.650 -2.9079 -2.2886 -2.4742
  905MOL0     H22164  11.241  11.700   2.645 -0.6682 -1.5087  0.9504
  905MOL0     H22165  11.374  11.855   2.797  1.2124 -2.5105  2.6349
  905MOL0     H22166  11.289  11.753   2.910 -2.2836  0.8552  2.3043
  905MOL0     H22167  11.097  11.933   2.915 -0.3183  0.0115  4.6159
  905MOL0     H22168  11.206  12.040   2.839 -1.4797 -1.2790 -1.9605
  905MOL0     H22169  11.223  12.081   3.076 -1.5547 -0.4371 -0.5510
  905MOL0     H22170  11.254  11.908   3.122  1.1004  0.7824  2.1116
  905MOL0     H22171  11.631  12.076   2.983 -0.7497 -0.2377  0.4473
  905MOL0     H22172  10.904  11.495   2.809  2.1985  1.6517  0.7871
  905MOL0     H22173  10.730  11.355   2.793 -1.1636 -1.0066  0.3163
  905MOL0     H22174  10.600  11.394   2.678 -0.5192 -0.1951 -1.2022
  905MOL0     H22175  10.743  11.294   2.641  2.1968  0.6744  0.1967
  906MOL0     O22176   5.590   4.740   9.794 -0.5879 -0.2520  0.0132
  906MOL0     C22177   5.525   4.729   9.905  0.8646 -0.1887  0.9693
  906MOL0     O22178   5.585   4.718  10.029 -0.6645  0.5665  0.3072
  906MOL0     C22179   5.722   4.727  10.034  0.4198 -0.6935 -0.0603
  906MOL0     C22180   5.792   4.845  10.000  0.6353 -0.0412  0.1373
  906MOL0     C22181   5.930   4.858  10.028 -0.6365  0.2454 -0.4857
  906MOL0     C22182   6.013   4.742  10.060 -0.6043 -0.4683  1.1591
  906MOL0     O22183   6.153   4.758  10.070  0.1975 -0.4398  0.0912
  906MOL0     C22184   6.200   4.883  10.119 -0.3403 -0.4354  0.0078
  906MOL0     C22185   6.351   4.845  10.153 -0.5136 -0.4586  0.1585
  906MOL0     C22186   6.457   4.951  10.167 -1.1137  0.1296 -0.0451
  906MOL0     C22187   6.510   5.007  10.034  0.8654  0.5591 -1.0602
  906MOL0     C22188   6.568   5.145  10.045 -0.9827  0.1204  0.2409
  906MOL0     C22189   6.716   5.153   9.987  0.3398  0.1379 -0.5177
  906MOL0     C22190   6.813   5.079  10.076  0.2674  0.1420 -0.5597
  906MOL0     C22191   6.831   5.157  10.217  0.6222 -0.2340 -0.0255
  906MOL0     N22192   6.928   5.080  10.301  0.5298 -0.3006  0.3387
  906MOL0     C22193   7.065   5.091  10.294 -0.7010  0.0156 -0.4930
  906MOL0     C22194   7.104   5.006  10.392  1.1625  0.5421 -0.8207
  906MOL0     C22195   7.247   4.998  10.437 -0.3406 -0.2357  0.2200
  906MOL0     C22196   7.284   5.054  10.584  0.0171 -0.2917  0.1245
  906MOL0     C22197   7.314   5.203  10.576  0.5564 -0.3036 -0.2545
  906MOL0     C22198   7.307   5.251  10.725  0.5083 -0.7543  0.2527
  906MOL0     O22199   7.301   5.392  10.721 -0.3522 -0.2838 -0.2764
  906MOL0     C22200   7.330   5.472  10.830 -0.2973  0.9278  0.1981
  906MOL0     C22201   7.346   5.602  10.792  0.4508 -0.2228 -0.0534
  906MOL0     C22202   7.379   5.697  10.884  0.0642  0.9081 -0.2135
  906MOL0     C22203   7.383   5.663  11.021 -0.1085 -1.0545 -0.5739
  906MOL0     C22204   7.443   5.766  11.109 -0.3349 -0.4556 -0.2702
  906MOL0     O22205   7.467   5.732  11.229 -0.4176 -0.0489 -0.4879
  906MOL0     C22206   7.486   5.827  11.330  0.2371  0.3572  0.2325
  906MOL0     C22207   7.453   5.962  11.333 -0.3556 -0.3458  0.5565
  906MOL0     C22208   7.479   6.039  11.451  0.0901  0.0837 -0.1252
  906MOL0     C22209   7.523   5.983  11.575 -0.2022 -0.2175  0.4684
  906MOL0     O22210   7.557   6.058  11.689  0.6302 -0.4987 -0.0388
  906MOL0     C22211   7.599   6.195  11.672 -0.3027  0.0021  0.8695
  906MOL0     C22212   7.667   6.240  11.791 -0.2326 -0.8825 -0.2617
  906MOL0     C22213   7.747   6.375  11.774  0.1031  0.4335 -0.3219
  906MOL0     C22214   7.864   6.380  11.879  0.3815 -0.6432  0.0899
  906MOL0     C22215   7.939   6.507  11.876 -0.4750 -0.4061  0.5769
  906MOL0     C22216   8.070   6.484  11.951 -0.6433 -0.5328  0.2612
  906MOL0     C22217   8.152   6.619  11.968  0.9994 -0.6397  0.4500
  906MOL0     C22218   8.292   6.617  12.043 -0.2343  0.1968  0.2128
  906MOL0    Cl22219   8.412   6.513  11.956 -0.5727  0.0347 -0.0905
  906MOL0     C22220   7.550   5.847  11.566  0.1289 -0.0477  0.6891
  906MOL0     C22221   7.526   5.766  11.448 -0.7830 -0.9463 -0.6656
  906MOL0     O22222   7.467   5.882  11.058  0.2912  0.1819 -0.6050
  906MOL0     C22223   7.367   5.525  11.059 -0.5781 -0.2389 -0.9038
  906MOL0     C22224   7.335   5.428  10.960 -0.6742 -0.4682 -0.7000
  906MOL0     N22225   6.993   4.951  10.447 -0.6261  1.1213  0.2014
  906MOL0     N22226   6.886   4.998  10.398 -0.3732 -0.4765 -0.9180
  906MOL0     C22227   5.944   4.625  10.087 -0.5086  0.1010 -0.3154
  906MOL0     C22228   5.799   4.620  10.085 -0.7814 -0.4062 -0.0944
  906MOL0     C22229   5.369   4.733   9.898  0.7495  1.1261 -0.8620
  906MOL0     C22230   5.303   4.715  10.018 -0.2190 -0.4283 -0.4415
  906MOL0     C22231   5.169   4.711  10.027 -0.1759 -0.2241 -0.0984
  906MOL0     C22232   5.090   4.745   9.922  1.1192 -0.1077  0.7901
  906MOL0     O22233   4.954   4.751   9.946  0.3525  0.5380 -0.6414
  906MOL0     C22234   4.862   4.741   9.838 -0.4602  0.5173 -0.5251
  906MOL0     C22235   4.722   4.756   9.899  0.5149 -0.1975  0.1517
  906MOL0     C22236   4.598   4.732   9.803 -0.0068  0.6709  0.1947
  906MOL0     C22237   4.496   4.846   9.809  0.5496  0.1391  0.4391
  906MOL0     C22238   4.450   4.863   9.945  0.4131 -0.8850 -0.7822
  906MOL0     C22239   4.408   4.876  10.061  0.8762 -0.4446 -0.6563
  906MOL0     C22240   5.150   4.755   9.798  0.3041 -0.6562  0.7870
  906MOL0     C22241   5.286   4.736   9.783  0.0932 -0.8005  0.8119
  906MOL0     C22242   5.337   4.741   9.640 -0.1056 -0.2452  0.4930
  906MOL0     H22243   5.734   4.929   9.964 -0.7822 -0.1774  1.9438
  906MOL0     H22244   5.980   4.952  10.007  1.0649 -0.4779  0.0889
  906MOL0     H22245   6.192   4.964  10.046 -1.3872  1.1225  1.7473
  906MOL0     H22246   6.145   4.924  10.204 -0.8718  0.1591 -0.6057
  906MOL0     H22247   6.395   4.776  10.080  1.2412 -0.5428  1.2242
  906MOL0     H22248   6.344   4.792  10.248  1.6892 -0.8356  0.1803
  906MOL0     H22249   6.539   4.915  10.229 -1.5458  0.6387  0.8307
  906MOL0     H22250   6.415   5.026  10.234 -1.0430 -0.4119  0.6239
  906MOL0     H22251   6.581   4.934   9.995  1.1531  0.8944 -1.1640
  906MOL0     H22252   6.427   5.011   9.962  1.9206  0.4156 -2.3205
  906MOL0     H22253   6.519   5.226   9.991 -1.2306 -0.6618 -0.7312
  906MOL0     H22254   6.564   5.177  10.150  2.1804 -0.7072  0.6935
  906MOL0     H22255   6.729   5.101   9.891  1.1372 -1.7558  0.5672
  906MOL0     H22256   6.755   5.255   9.975  0.3620  0.2016  0.0868
  906MOL0     H22257   6.909   5.067  10.026  1.0656 -0.1431  0.9876
  906MOL0     H22258   6.788   4.973  10.082  0.3254  0.0890 -1.1685
  906MOL0     H22259   6.875   5.256  10.204 -1.3200  0.5686 -0.8948
  906MOL0     H22260   6.739   5.175  10.272 -0.2772 -1.6130 -0.9997
  906MOL0     H22261   7.132   5.154  10.237  2.8669 -2.2392  0.8612
  906MOL0     H22262   7.287   4.896  10.431  1.2006  0.3861 -0.3535
  906MOL0     H22263   7.311   5.042  10.361  2.0492 -2.0857  1.0316
  906MOL0     H22264   7.193   5.041  10.643 -0.7951  0.6790 -0.8713
  906MOL0     H22265   7.367   4.993  10.619 -0.2484 -1.4698 -1.2096
  906MOL0     H22266   7.234   5.243  10.514 -1.0641 -0.7109  1.4803
  906MOL0     H22267   7.417   5.214  10.540  0.5854 -0.7980 -0.3366
  906MOL0     H22268   7.402   5.233  10.776  1.4440  0.3176 -1.0181
  906MOL0     H22269   7.218   5.208  10.772  1.0451 -1.2886  0.7846
  906MOL0     H22270   7.343   5.624  10.686  0.1056 -2.1956 -0.4883
  906MOL0     H22271   7.404   5.799  10.856  0.9935  0.6230 -0.4697
  906MOL0     H22272   7.401   6.009  11.250  2.5850  2.2152 -0.0193
  906MOL0     H22273   7.448   6.140  11.428 -5.0943 -1.3415 -0.8073
  906MOL0     H22274   7.663   6.194  11.583 -0.1967 -1.8712  0.9279
  906MOL0     H22275   7.515   6.265  11.661 -3.0384 -2.6364  3.2315
  906MOL0     H22276   7.592   6.247  11.870 -0.3044 -0.7180 -0.3434
  906MOL0     H22277   7.732   6.154  11.812 -1.7308 -2.4687 -1.8022
  906MOL0     H22278   7.779   6.381  11.670  0.8806  0.7639 -0.0740
  906MOL0     H22279   7.674   6.455  11.787 -0.3137  0.2927 -1.6630
  906MOL0     H22280   7.932   6.297  11.857  0.3221 -0.8866  0.7980
  906MOL0     H22281   7.828   6.370  11.982  0.3422  0.9852  0.2643
  906MOL0     H22282   7.879   6.585  11.924  0.7765  1.8233 -1.2392
  906MOL0     H22283   7.958   6.540  11.773  0.8584 -0.6659  0.7252
  906MOL0     H22284   8.051   6.460  12.056 -0.7921  2.0924  0.9083
  906MOL0     H22285   8.141   6.415  11.905  0.7706 -0.4987  2.2565
  906MOL0     H22286   8.080   6.677  12.027 -0.5071 -0.5611 -1.3582
  906MOL0     H22287   8.162   6.656  11.866 -0.2137 -2.6313 -0.4530
  906MOL0     H22288   8.320   6.723  12.043  2.8982 -0.5133 -1.7334
  906MOL0     H22289   8.281   6.593  12.150 -1.1645  1.1258  0.3486
  906MOL0     H22290   7.590   5.806  11.659 -1.6655  2.3095  2.6353
  906MOL0     H22291   7.533   5.657  11.445  0.6846 -0.9057  0.2886
  906MOL0     H22292   7.393   5.495  11.160 -2.2980  0.5458 -0.1842
  906MOL0     H22293   7.331   5.324  10.990  1.1794  0.0975  1.8465
  906MOL0     H22294   5.999   4.533  10.106 -0.9480 -0.9407 -3.3844
  906MOL0     H22295   5.739   4.533  10.113 -0.5258 -1.3451 -2.3003
  906MOL0     H22296   5.342   4.713  10.119  2.0288 -0.7780 -1.2640
  906MOL0     H22297   5.124   4.696  10.124 -0.5356 -0.4796 -0.3011
  906MOL0     H22298   4.883   4.642   9.796  4.4467  0.1844  1.8877
  906MOL0     H22299   4.884   4.803   9.750  0.2691  0.5723 -0.3191
  906MOL0     H22300   4.719   4.855   9.945  2.4048  0.0304 -0.1424
  906MOL0     H22301   4.700   4.675   9.970 -5.1261 -2.1833 -3.1983
  906MOL0     H22302   4.549   4.635   9.816  0.2497  0.4001 -0.7697
  906MOL0     H22303   4.630   4.714   9.700  0.3572 -2.0044  0.7105
  906MOL0     H22304   4.542   4.941   9.778 -2.4285  1.2452 -0.9907
  906MOL0     H22305   4.409   4.822   9.748 -1.2006 -1.5923  3.3722
  906MOL0     H22306   4.379   4.863  10.163  1.1001  1.0204 -0.3830
  906MOL0     H22307   5.088   4.769   9.710  1.1660 -2.8130 -0.2353
  906MOL0     H22308   5.404   4.826   9.632 -1.6140  0.8468 -1.7436
  906MOL0     H22309   5.401   4.652   9.630 -0.3916 -0.5208  1.0656
  906MOL0     H22310   5.253   4.737   9.570 -0.0281 -2.2752  0.4402
  907MOL0     O22311   5.444   5.177   7.740  0.3343  1.2310  0.2189
  907MOL0     C22312   5.385   5.219   7.842 -1.0974  0.4056 -0.7280
  907MOL0     O22313   5.460   5.278   7.953 -0.1631  0.4119  0.4671
  907MOL0     C22314   5.598   5.241   7.954  0.0212 -0.2975 -0.4919
  907MOL0     C22315   5.649   5.127   8.023  0.4052  0.2611 -0.4023
  907MOL0     C22316   5.782   5.096   8.025  0.4713  0.0696 -0.1511
  907MOL0     C22317   5.880   5.187   7.975 -0.2307  0.7991  0.1270
  907MOL0     O22318   6.020   5.154   7.984  0.7006  0.7320  0.0870
  907MOL0     C22319   6.103   5.186   7.864 -0.0216  0.5850 -0.5624
  907MOL0     C22320   6.233   5.126   7.910  0.4927  0.5203 -0.4562
  907MOL0     C22321   6.331   5.113   7.795  0.3720  0.3065 -0.2429
  907MOL0     C22322   6.372   5.256   7.745 -0.3684  0.0257  1.1283
  907MOL0     C22323   6.468   5.237   7.632  1.0259 -0.2594  0.0974
  907MOL0     C22324   6.554   5.356   7.576 -0.0463 -0.8721 -0.0689
  907MOL0     C22325   6.570   5.470   7.686  0.3335 -0.4313  0.2869
  907MOL0     C22326   6.611   5.605   7.616  0.5324  0.3882  0.2940
  907MOL0     N22327   6.746   5.642   7.663  0.5309 -0.0143  0.2924
  907MOL0     C22328   6.864   5.562   7.662  1.0999 -0.3427 -0.2526
  907MOL0     C22329   6.961   5.653   7.681 -0.2259 -0.0395  0.1858
  907MOL0     C22330   7.097   5.609   7.724  0.4658  0.3409 -0.0237
  907MOL0     C22331   7.174   5.539   7.616 -0.8711 -0.4500 -0.9503
  907MOL0     C22332   7.257   5.639   7.536 -0.8801  0.7101  0.0588
  907MOL0     C22333   7.173   5.684   7.420 -0.0670 -0.0211 -0.0652
  907MOL0     O22334   7.178   5.589   7.317  0.1087  0.6517 -0.4310
  907MOL0     C22335   7.279   5.549   7.240  0.2880  0.4279  0.7018
  907MOL0     C22336   7.400   5.615   7.223  0.6892 -0.2253 -0.4599
  907MOL0     C22337   7.500   5.568   7.142 -0.4686  0.0798  0.1994
  907MOL0     C22338   7.482   5.449   7.070 -0.1874 -0.1090  0.7475
  907MOL0     C22339   7.586   5.400   6.982 -0.0326  0.3446  0.1434
  907MOL0     O22340   7.715   5.441   7.011  0.1449  0.4288 -0.5133
  907MOL0     C22341   7.818   5.380   6.949 -0.1363  0.1280 -0.7453
  907MOL0     C22342   7.823   5.250   6.879  0.3333 -0.3185 -0.2496
  907MOL0     C22343   7.947   5.205   6.830  0.1619 -0.0207  0.3476
  907MOL0     C22344   8.063   5.273   6.838  0.0796 -0.8569  0.2253
  907MOL0     O22345   8.169   5.217   6.779  0.1645 -0.1714  0.0973
  907MOL0     C22346   8.190   5.231   6.641  1.0890 -0.9178 -0.7707
  907MOL0     C22347   8.210   5.093   6.575 -0.3977 -0.7266 -0.4930
  907MOL0     C22348   8.214   5.103   6.429 -1.0323 -0.5035  0.6789
  907MOL0     C22349   8.081   5.109   6.360  0.7332  0.9787  0.2622
  907MOL0     C22350   8.096   5.151   6.207  0.0339 -0.2465 -0.3377
  907MOL0     C22351   7.958   5.123   6.139  0.9813 -0.6866 -1.4875
  907MOL0     C22352   7.967   5.159   5.991  0.8273 -1.2751  0.3523
  907MOL0     C22353   7.824   5.157   5.928  0.0724 -0.2660  0.1478
  907MOL0    Cl22354   7.816   5.201   5.754 -0.0811  0.0711 -0.5912
  907MOL0     C22355   8.060   5.399   6.902  0.1321  0.0814  0.2159
  907MOL0     C22356   7.943   5.443   6.958 -0.2969 -0.4307 -0.8260
  907MOL0     O22357   7.554   5.341   6.879  0.0843  0.2079  0.1353
  907MOL0     C22358   7.356   5.386   7.074  0.2488  0.0577 -0.2016
  907MOL0     C22359   7.267   5.429   7.169  0.0017 -0.4571  0.2376
  907MOL0     N22360   6.906   5.777   7.693 -0.2559 -0.9182 -0.3687
  907MOL0     N22361   6.776   5.775   7.680  0.1107  0.0320  0.7110
  907MOL0     C22362   5.833   5.304   7.909 -1.3276  0.6319  0.1560
  907MOL0     C22363   5.698   5.325   7.898 -0.7289  0.4807 -0.4294
  907MOL0     C22364   5.239   5.237   7.855  0.1247  0.5271  0.1248
  907MOL0     C22365   5.193   5.362   7.910  0.5252 -0.1127 -0.7549
  907MOL0     C22366   5.055   5.378   7.933  0.2146 -0.4069 -0.5953
  907MOL0     C22367   4.958   5.281   7.901 -0.5605 -0.0379 -0.3692
  907MOL0     O22368   4.824   5.278   7.913 -0.1436 -0.8062 -0.1592
  907MOL0     C22369   4.754   5.397   7.965  0.4122 -0.1351  0.1433
  907MOL0     C22370   4.759   5.510   7.868 -0.0922 -0.9280  0.3801
  907MOL0     C22371   4.704   5.647   7.932  0.5567 -0.5289  0.1174
  907MOL0     C22372   4.810   5.758   7.936 -0.3391  1.4253 -1.0137
  907MOL0     C22373   4.853   5.807   7.798  1.0683 -0.3267  1.3899
  907MOL0     C22374   4.894   5.855   7.696 -0.3387  0.6253 -0.7519
  907MOL0     C22375   5.013   5.162   7.841  0.2278 -0.0541  0.2795
  907MOL0     C22376   5.146   5.135   7.823 -1.1743 -1.4101  0.1216
  907MOL0     C22377   5.192   4.995   7.801  0.2014 -0.4803 -0.0361
  907MOL0     H22378   5.574   5.073   8.081 -1.5209  2.8040 -0.3347
  907MOL0     H22379   5.803   5.008   8.084  3.1788  1.5665  1.3108
  907MOL0     H22380   6.065   5.130   7.778  2.2803 -0.3184 -1.0717
  907MOL0     H22381   6.113   5.293   7.843  1.1139  0.0634 -3.0122
  907MOL0     H22382   6.227   5.022   7.942  1.1761  0.8366  0.7792
  907MOL0     H22383   6.263   5.180   8.000 -0.1718 -2.7704  1.9423
  907MOL0     H22384   6.287   5.069   7.705  0.6385  3.0673 -1.8293
  907MOL0     H22385   6.412   5.044   7.819 -0.1500  0.4877  2.2934
  907MOL0     H22386   6.290   5.320   7.712 -0.3910 -0.8719 -0.7161
  907MOL0     H22387   6.416   5.298   7.836 -1.8564  0.0696  1.8673
  907MOL0     H22388   6.549   5.174   7.670  4.3386  1.8694 -2.7769
  907MOL0     H22389   6.425   5.185   7.545  0.5888  1.2464 -0.6252
  907MOL0     H22390   6.651   5.320   7.539  0.2759 -0.8404  0.7239
  907MOL0     H22391   6.491   5.399   7.497 -1.3538  0.5178  1.6667
  907MOL0     H22392   6.640   5.448   7.768  1.8956 -0.4069 -0.9843
  907MOL0     H22393   6.478   5.482   7.743  0.6073  2.0608  0.3066
  907MOL0     H22394   6.610   5.596   7.507 -0.8870 -2.1110  0.4616
  907MOL0     H22395   6.537   5.680   7.646 -0.5538  0.2314 -1.7950
  907MOL0     H22396   6.884   5.459   7.633  0.8449 -0.1630 -1.1278
  907MOL0     H22397   7.146   5.704   7.749  0.3692  0.9836 -2.0458
  907MOL0     H22398   7.074   5.547   7.811 -1.1553 -1.2790 -1.5270
  907MOL0     H22399   7.242   5.471   7.670 -1.3002 -1.1572 -1.2937
  907MOL0     H22400   7.113   5.473   7.553 -0.0788 -1.7423 -0.4198
  907MOL0     H22401   7.349   5.587   7.509 -0.6071  0.8555  0.6955
  907MOL0     H22402   7.284   5.729   7.591 -2.8177  2.9016 -2.3086
  907MOL0     H22403   7.220   5.776   7.385  1.6350 -0.1806  1.6825
  907MOL0     H22404   7.071   5.708   7.454 -0.2566 -1.8549  0.7512
  907MOL0     H22405   7.411   5.716   7.262  3.1754 -0.2030 -0.9998
  907MOL0     H22406   7.587   5.629   7.119 -0.7310  2.1398  3.9481
  907MOL0     H22407   7.736   5.187   6.865  1.8829 -4.2236  4.6734
  907MOL0     H22408   7.936   5.116   6.768 -0.4780  1.0427 -1.1085
  907MOL0     H22409   8.122   5.302   6.592  3.2933  0.3306 -2.1642
  907MOL0     H22410   8.282   5.289   6.650  1.1596 -0.9690 -1.1807
  907MOL0     H22411   8.294   5.036   6.615 -0.3623 -1.4395 -1.5718
  907MOL0     H22412   8.120   5.036   6.601 -0.4289 -0.5534 -0.2111
  907MOL0     H22413   8.263   5.192   6.387 -1.9981  0.2059  1.0178
  907MOL0     H22414   8.269   5.017   6.390 -0.7631  0.0818 -0.2761
  907MOL0     H22415   8.026   5.185   6.417  3.3267  3.3101 -0.1226
  907MOL0     H22416   8.035   5.012   6.380  1.5420  0.9233  2.0508
  907MOL0     H22417   8.178   5.087   6.174  1.1271  1.5269 -1.1609
  907MOL0     H22418   8.137   5.252   6.213  1.6024 -0.9243  1.6946
  907MOL0     H22419   7.928   5.020   6.158 -1.3861  0.6168  3.1997
  907MOL0     H22420   7.888   5.188   6.192  2.0483  0.2306 -1.1591
  907MOL0     H22421   8.045   5.093   5.952  2.3225  0.1141  0.9117
  907MOL0     H22422   8.000   5.263   5.985  2.4050 -1.6684  1.5502
  907MOL0     H22423   7.791   5.053   5.920  1.9322 -0.9141  0.4904
  907MOL0     H22424   7.738   5.198   5.982  0.0930  0.3437 -0.2718
  907MOL0     H22425   8.147   5.463   6.909 -0.0085  0.7846 -2.8122
  907MOL0     H22426   7.925   5.533   7.016 -4.5710 -0.6884 -1.3776
  907MOL0     H22427   7.334   5.293   7.023 -2.6930  1.1269 -1.0776
  907MOL0     H22428   7.177   5.368   7.171 -1.2879  1.3799  0.5133
  907MOL0     H22429   5.901   5.365   7.851 -0.9792 -0.2069 -0.3343
  907MOL0     H22430   5.662   5.417   7.853  0.5029  2.1731  1.8745
  907MOL0     H22431   5.255   5.442   7.947  0.4189 -0.1505 -0.4973
  907MOL0     H22432   5.019   5.467   7.982 -5.6255 -3.4343  1.5804
  907MOL0     H22433   4.799   5.422   8.062 -1.3001 -1.7700  1.4374
  907MOL0     H22434   4.653   5.368   7.995  1.5842 -1.2442  3.5250
  907MOL0     H22435   4.695   5.484   7.782  0.1079  0.5045 -0.2424
  907MOL0     H22436   4.859   5.523   7.827 -0.3920 -3.3213 -1.3481
  907MOL0     H22437   4.683   5.633   8.039 -3.1107  1.2837 -0.2160
  907MOL0     H22438   4.612   5.682   7.886  1.6561  1.4197 -0.7081
  907MOL0     H22439   4.758   5.831   7.999 -0.6383  0.5591 -0.2365
  907MOL0     H22440   4.903   5.725   7.984 -1.5677 -2.2507 -0.9150
  907MOL0     H22441   4.925   5.889   7.600  1.9444  2.9052  0.6721
  907MOL0     H22442   4.926   5.097   7.829 -2.0476  2.7428  0.4816
  907MOL0     H22443   5.153   4.961   7.705 -0.0613  3.0005 -1.3104
  907MOL0     H22444   5.301   4.986   7.801  0.5665  1.4297 -4.1356
  907MOL0     H22445   5.146   4.943   7.885  0.7333 -1.8776 -0.5649
  908MOL0     O22446   0.322   7.699   5.431 -0.2131 -0.2472 -0.7931
  908MOL0     C22447   0.326   7.732   5.314  0.1736  0.9568  0.9769
  908MOL0     O22448   0.427   7.709   5.226 -0.3191  0.8981 -0.0239
  908MOL0     C22449   0.549   7.643   5.249 -0.0986 -0.2387  0.1186
  908MOL0     C22450   0.606   7.570   5.148 -0.5225  0.1851 -0.1126
  908MOL0     C22451   0.720   7.495   5.156 -0.4298 -0.3249 -0.0228
  908MOL0     C22452   0.789   7.497   5.280 -1.2935 -0.1190  0.4445
  908MOL0     O22453   0.898   7.417   5.287 -0.0457 -0.1319 -0.5504
  908MOL0     C22454   1.014   7.506   5.305  0.4514  1.1054 -0.0955
  908MOL0     C22455   1.138   7.406   5.301  0.3891  0.1484  0.8675
  908MOL0     C22456   1.271   7.476   5.293 -0.5089 -0.2241 -0.5685
  908MOL0     C22457   1.300   7.558   5.155 -1.2664  0.2661  0.1226
  908MOL0     C22458   1.445   7.615   5.155 -0.9325 -0.8995 -0.7192
  908MOL0     C22459   1.478   7.721   5.270 -0.2278  0.4615  0.0514
  908MOL0     C22460   1.398   7.848   5.269  0.6229 -0.6236  0.6343
  908MOL0     C22461   1.405   7.921   5.399 -0.0471  0.5687  0.4377
  908MOL0     N22462   1.545   7.950   5.434  0.8169 -0.0481 -0.3953
  908MOL0     C22463   1.616   8.044   5.366  0.0132  0.2747  0.3953
  908MOL0     C22464   1.729   8.045   5.431 -0.5062  0.1327 -0.5892
  908MOL0     C22465   1.844   8.129   5.382 -0.2901  0.7017 -0.3180
  908MOL0     C22466   1.935   8.042   5.289 -0.6475  0.8313  0.5567
  908MOL0     C22467   2.054   8.119   5.229 -0.2311 -0.1111  0.6175
  908MOL0     C22468   2.125   8.041   5.116 -0.5670  0.4636  0.9882
  908MOL0     O22469   2.243   8.111   5.083  0.0180 -0.2473  0.9970
  908MOL0     C22470   2.358   8.120   5.153 -0.1873  1.0328  0.3428
  908MOL0     C22471   2.421   8.032   5.243  0.5904 -0.1530 -1.2212
  908MOL0     C22472   2.551   8.051   5.284  0.2662 -0.0798 -0.3526
  908MOL0     C22473   2.630   8.160   5.239  0.3139  0.2479 -1.0640
  908MOL0     C22474   2.774   8.164   5.283  1.1278  0.1053  0.4841
  908MOL0     O22475   2.843   8.046   5.307  0.1832  0.1213  0.7980
  908MOL0     C22476   2.979   8.037   5.297 -0.3094 -0.0943  0.0659
  908MOL0     C22477   3.037   7.916   5.336  0.3257  0.7803  0.2663
  908MOL0     C22478   3.171   7.883   5.315  0.4545 -0.4713 -0.2063
  908MOL0     C22479   3.256   7.980   5.259  0.1893  0.6141 -0.4712
  908MOL0     O22480   3.385   7.945   5.275 -0.3606  0.4235 -0.4418
  908MOL0     C22481   3.483   8.039   5.225  0.0708  0.7052  0.2634
  908MOL0     C22482   3.501   8.032   5.071 -0.3603  0.0126 -0.5134
  908MOL0     C22483   3.560   7.891   5.019 -0.0128 -0.7883  0.6916
  908MOL0     C22484   3.537   7.882   4.869 -0.3625  0.4838  0.6266
  908MOL0     C22485   3.559   7.740   4.811 -0.0362  0.7382 -0.6294
  908MOL0     C22486   3.536   7.763   4.661  0.6888 -0.3325  0.1965
  908MOL0     C22487   3.564   7.640   4.571 -0.0382  0.5642  0.5720
  908MOL0     C22488   3.584   7.669   4.423  0.0227  0.2367 -0.6688
  908MOL0    Cl22489   3.598   7.507   4.356 -0.2247  0.2669  0.5924
  908MOL0     C22490   3.203   8.104   5.224  0.3862  0.0393  0.3386
  908MOL0     C22491   3.066   8.133   5.245 -0.6207  0.6407 -0.2150
  908MOL0     O22492   2.820   8.280   5.277  1.0832  0.8685 -0.2269
  908MOL0     C22493   2.565   8.255   5.161  0.5277 -0.1529 -0.3204
  908MOL0     C22494   2.433   8.231   5.118 -0.8827  0.6777 -0.9581
  908MOL0     N22495   1.731   7.954   5.541  0.0629  0.6220  0.5796
  908MOL0     N22496   1.612   7.902   5.540  0.2400  0.2604  0.1776
  908MOL0     C22497   0.742   7.578   5.388  0.7276  0.2145 -0.1901
  908MOL0     C22498   0.621   7.656   5.370  0.4512 -0.5652  0.5882
  908MOL0     C22499   0.200   7.807   5.256  0.6368 -0.5733  0.1800
  908MOL0     C22500   0.107   7.864   5.341  0.0198 -0.8215 -0.8176
  908MOL0     C22501  -0.015   7.916   5.301  0.0055 -0.5568 -0.5015
  908MOL0     C22502  -0.050   7.921   5.168  0.1982  1.6961  0.4738
  908MOL0     O22503  -0.162   7.957   5.107  0.4011 -0.8493 -0.1368
  908MOL0     C22504  -0.295   7.996   5.167  0.2963  0.9807  0.4330
  908MOL0     C22505  -0.326   8.143   5.205  0.2093  0.8824 -0.3595
  908MOL0     C22506  -0.318   8.227   5.068 -0.0352  0.4587  0.2123
  908MOL0     C22507  -0.367   8.373   5.082 -0.3141  0.7081  0.0412
  908MOL0     C22508  -0.506   8.368   5.154  0.1948 -0.4361 -0.3317
  908MOL0     C22509  -0.599   8.399   5.237 -0.7071 -0.0210  0.4900
  908MOL0     C22510   0.037   7.857   5.079 -0.7075  0.1642  0.0254
  908MOL0     C22511   0.164   7.810   5.113  0.5152  0.0156  0.0324
  908MOL0     C22512   0.248   7.760   5.009 -0.2129  0.9287  0.1641
  908MOL0     H22513   0.546   7.568   5.057  1.0276  3.2469 -1.3430
  908MOL0     H22514   0.760   7.452   5.065 -0.6423  0.4879 -0.5184
  908MOL0     H22515   1.015   7.574   5.219 -0.9364  0.0330 -1.0090
  908MOL0     H22516   1.007   7.552   5.404 -0.7736  1.8571 -0.5009
  908MOL0     H22517   1.140   7.339   5.214 -1.2190  1.7689 -0.5032
  908MOL0     H22518   1.138   7.347   5.393 -2.5690 -1.3346  0.0669
  908MOL0     H22519   1.352   7.404   5.312 -0.9828 -0.3182  1.4040
  908MOL0     H22520   1.281   7.540   5.382  0.6158 -0.3872 -0.5650
  908MOL0     H22521   1.288   7.492   5.069  0.1966  1.2326 -0.8609
  908MOL0     H22522   1.229   7.639   5.134 -0.3626  0.2880 -3.5116
  908MOL0     H22523   1.518   7.535   5.169  0.4571  0.6908  1.9599
  908MOL0     H22524   1.466   7.668   5.062 -2.2647  1.1165  0.0430
  908MOL0     H22525   1.458   7.675   5.367  0.8416  0.4672  0.2880
  908MOL0     H22526   1.586   7.742   5.267 -0.1651  0.0919 -0.5798
  908MOL0     H22527   1.293   7.831   5.242  0.2979 -2.6757  2.9316
  908MOL0     H22528   1.445   7.899   5.184 -0.9504  0.6224  0.4598
  908MOL0     H22529   1.345   8.013   5.398  0.9268  1.2353  1.1080
  908MOL0     H22530   1.370   7.849   5.474  2.5228 -3.7099 -2.0575
  908MOL0     H22531   1.592   8.109   5.283  0.8978 -1.3274 -1.1657
  908MOL0     H22532   1.805   8.212   5.323 -1.9197 -0.3798 -0.8227
  908MOL0     H22533   1.911   8.174   5.455  0.3357  1.0138 -1.0681
  908MOL0     H22534   1.969   7.963   5.357 -1.6989  1.5410  1.9549
  908MOL0     H22535   1.877   8.002   5.205 -1.1266 -3.4328  2.6457
  908MOL0     H22536   2.125   8.142   5.309  1.1916 -1.6285 -0.1443
  908MOL0     H22537   2.014   8.211   5.186 -3.3292 -3.5060 -5.0175
  908MOL0     H22538   2.058   8.036   5.030  1.0277  0.2724 -0.2878
  908MOL0     H22539   2.157   7.938   5.132  0.5693  0.5851 -0.3800
  908MOL0     H22540   2.374   7.936   5.260  1.2977 -0.2303  0.6063
  908MOL0     H22541   2.604   7.983   5.350 -0.7797 -0.1044  0.4822
  908MOL0     H22542   2.982   7.829   5.371 -2.5330  1.0276 -3.0610
  908MOL0     H22543   3.219   7.792   5.352  1.1139  0.6572  1.8995
  908MOL0     H22544   3.471   8.139   5.267 -1.0106 -0.3029  2.5110
  908MOL0     H22545   3.578   8.007   5.268  0.3397  0.7690 -0.2759
  908MOL0     H22546   3.407   8.050   5.018 -1.0033  1.1074  0.9341
  908MOL0     H22547   3.568   8.113   5.044 -1.0923  0.4555 -1.0513
  908MOL0     H22548   3.668   7.894   5.037 -0.2109 -0.5539  1.9559
  908MOL0     H22549   3.515   7.809   5.075 -0.9809 -0.3178  0.6121
  908MOL0     H22550   3.603   7.945   4.808 -0.5179 -0.5287 -0.6452
  908MOL0     H22551   3.432   7.903   4.850 -0.6311 -0.2078  1.2892
  908MOL0     H22552   3.499   7.663   4.859  1.6816 -1.3524 -1.6499
  908MOL0     H22553   3.664   7.708   4.815  0.3669  1.2469 -3.8882
  908MOL0     H22554   3.429   7.776   4.644  0.9567  2.1092  0.1090
  908MOL0     H22555   3.592   7.849   4.623 -0.9084  1.3482  1.4779
  908MOL0     H22556   3.472   7.580   4.573 -1.1348  2.1883  1.0175
  908MOL0     H22557   3.648   7.583   4.612  0.7833  0.4078 -1.2523
  908MOL0     H22558   3.504   7.725   4.374 -0.9395 -1.3741 -0.9970
  908MOL0     H22559   3.679   7.723   4.407  1.9146 -1.9156  2.2226
  908MOL0     H22560   3.256   8.191   5.186  1.3253 -0.9646 -0.7442
  908MOL0     H22561   3.036   8.231   5.210  1.9834  1.5216 -0.2212
  908MOL0     H22562   2.618   8.346   5.137 -1.9218  1.9293  1.5786
  908MOL0     H22563   2.391   8.310   5.057 -1.5101  2.1340  1.2787
  908MOL0     H22564   0.803   7.580   5.478  0.4350 -0.2231  0.0169
  908MOL0     H22565   0.573   7.710   5.450  0.4154 -2.0223  1.6047
  908MOL0     H22566   0.127   7.861   5.448 -2.7266 -3.2806 -0.2438
  908MOL0     H22567  -0.076   7.960   5.380  1.8661  2.9461 -0.8162
  908MOL0     H22568  -0.307   7.944   5.262  1.7131  0.6572  0.4490
  908MOL0     H22569  -0.360   7.953   5.090  0.6283  2.5862 -0.8084
  908MOL0     H22570  -0.240   8.175   5.266  0.5534 -1.4086  0.4423
  908MOL0     H22571  -0.422   8.136   5.256  1.4934  0.7279  2.2200
  908MOL0     H22572  -0.388   8.186   4.994  1.1002  1.6329 -1.5772
  908MOL0     H22573  -0.219   8.227   5.021 -0.4431  2.0423 -0.7132
  908MOL0     H22574  -0.296   8.429   5.144 -0.0574  0.9781 -0.4871
  908MOL0     H22575  -0.388   8.422   4.987  3.4042 -1.7248 -2.2498
  908MOL0     H22576  -0.660   8.438   5.315  0.0610  0.1710  1.0141
  908MOL0     H22577   0.004   7.855   4.975 -0.0629  2.1881 -0.2657
  908MOL0     H22578   0.209   7.781   4.909 -0.1051 -0.0102 -0.0760
  908MOL0     H22579   0.342   7.816   5.022  0.1100 -0.1110  3.1879
  908MOL0     H22580   0.276   7.656   5.025  3.8441  1.9825  1.3948
  909MOL0     O22581   1.684   7.055   1.693  0.5922 -0.0566  0.7489
  909MOL0     C22582   1.652   7.060   1.574  0.6861 -0.2458  0.0581
  909MOL0     O22583   1.625   6.956   1.492 -0.3506  0.0737 -0.0695
  909MOL0     C22584   1.505   6.895   1.530 -0.0643 -0.2071  0.2126
  909MOL0     C22585   1.405   6.944   1.615  0.1473 -1.2157  0.4659
  909MOL0     C22586   1.289   6.878   1.648  0.1393  0.0584 -0.1214
  909MOL0     C22587   1.280   6.744   1.603  0.6726  0.1019  0.4760
  909MOL0     O22588   1.171   6.663   1.638 -0.1202  0.3543  0.1874
  909MOL0     C22589   1.086   6.703   1.745  0.4033 -0.4381  0.3180
  909MOL0     C22590   1.030   6.580   1.803 -0.2737  0.4839 -0.8036
  909MOL0     C22591   0.946   6.625   1.927  0.9807  1.0654  0.3076
  909MOL0     C22592   0.919   6.500   2.024 -0.8165  0.9466  0.2850
  909MOL0     C22593   0.821   6.525   2.138 -0.5618 -0.6277  0.5789
  909MOL0     C22594   0.675   6.518   2.094  0.1001 -0.3735 -0.1255
  909MOL0     C22595   0.589   6.571   2.211 -0.1486 -0.6253 -1.2920
  909MOL0     C22596   0.528   6.450   2.287  0.3384 -0.2483 -0.5654
  909MOL0     N22597   0.410   6.484   2.379 -0.3711  1.2316  0.3023
  909MOL0     C22598   0.410   6.507   2.521  1.0001 -0.1839  0.6456
  909MOL0     C22599   0.279   6.543   2.543  0.3571 -0.3361  1.1607
  909MOL0     C22600   0.218   6.598   2.665 -0.6011  0.7012 -0.1367
  909MOL0     C22601   0.179   6.484   2.766 -0.4967 -0.4301  0.5361
  909MOL0     C22602   0.082   6.365   2.715 -0.0057  0.6533  0.7199
  909MOL0     C22603   0.055   6.254   2.808  0.0218 -0.3353  0.8991
  909MOL0     O22604  -0.016   6.298   2.922 -0.1354  0.4425  0.1592
  909MOL0     C22605   0.060   6.321   3.037  0.3646  0.0323 -0.0940
  909MOL0     C22606  -0.010   6.369   3.145 -0.3286 -0.4813 -1.7067
  909MOL0     C22607   0.056   6.395   3.270 -0.4507  0.0579 -0.0102
  909MOL0     C22608   0.196   6.395   3.270 -0.5902  0.1500  0.6321
  909MOL0     C22609   0.272   6.431   3.398  1.1625  0.1364 -1.0662
  909MOL0     O22610   0.199   6.430   3.513 -0.1055 -0.3787 -0.4092
  909MOL0     C22611   0.260   6.444   3.631 -0.4080 -0.0306  0.1980
  909MOL0     C22612   0.251   6.339   3.710  0.2620  0.7366  0.5853
  909MOL0     C22613   0.309   6.333   3.828  0.7048  0.0531 -0.2156
  909MOL0     C22614   0.398   6.435   3.870  0.0027 -0.3755 -0.1655
  909MOL0     O22615   0.456   6.443   3.991 -0.1627 -0.1343 -0.8058
  909MOL0     C22616   0.379   6.489   4.102 -0.8293 -0.2986 -0.5497
  909MOL0     C22617   0.341   6.630   4.091 -0.7261 -0.0172  0.4662
  909MOL0     C22618   0.318   6.708   4.229 -0.8265  0.3620 -0.2407
  909MOL0     C22619   0.181   6.715   4.274  0.3889 -0.0569 -1.1697
  909MOL0     C22620   0.180   6.747   4.418 -0.1980  0.3470  0.7379
  909MOL0     C22621   0.048   6.719   4.486  0.7694  1.0555 -0.6821
  909MOL0     C22622  -0.067   6.819   4.448 -0.7945  0.7163  0.3237
  909MOL0     C22623  -0.198   6.751   4.410  0.4362  1.2746 -0.0193
  909MOL0    Cl22624  -0.329   6.872   4.406 -0.5777 -0.0254 -0.3092
  909MOL0     C22625   0.410   6.550   3.785  0.0586 -0.7757 -0.2703
  909MOL0     C22626   0.338   6.554   3.663 -0.6567 -0.3894 -0.6886
  909MOL0     O22627   0.389   6.443   3.392  0.9319  1.3350 -0.3234
  909MOL0     C22628   0.268   6.349   3.160  0.6648 -0.0686  0.9363
  909MOL0     C22629   0.196   6.312   3.052  0.2224  0.0771  0.2432
  909MOL0     N22630   0.204   6.537   2.429  0.4221  0.3662 -0.2358
  909MOL0     N22631   0.287   6.502   2.328  0.5549  0.0965 -0.0734
  909MOL0     C22632   1.382   6.687   1.537  0.5517 -0.3117  0.1009
  909MOL0     C22633   1.489   6.767   1.488 -0.4024  0.1269 -0.4911
  909MOL0     C22634   1.677   7.194   1.506  0.3420  0.3070  0.5132
  909MOL0     C22635   1.728   7.197   1.373 -0.3522  0.5064  0.6388
  909MOL0     C22636   1.740   7.318   1.306  0.0452 -0.0640 -0.6606
  909MOL0     C22637   1.717   7.444   1.363  0.6119  0.6136  0.6793
  909MOL0     O22638   1.721   7.572   1.313 -0.1045  0.5019  0.1733
  909MOL0     C22639   1.808   7.593   1.203  0.1169 -1.8598  0.1935
  909MOL0     C22640   1.953   7.622   1.252  0.1348  1.1801 -0.8605
  909MOL0     C22641   2.038   7.693   1.147 -0.2027 -0.4857  0.3436
  909MOL0     C22642   2.002   7.842   1.110 -0.2684  0.3722  0.4972
  909MOL0     C22643   2.051   7.883   0.979 -0.2104  0.9218 -0.3980
  909MOL0     C22644   2.101   7.918   0.870  0.9088 -0.0823 -0.1559
  909MOL0     C22645   1.670   7.444   1.496  0.3060  0.0369  0.0622
  909MOL0     C22646   1.643   7.326   1.569  0.5874  0.2463  0.4560
  909MOL0     C22647   1.591   7.349   1.705  0.5052 -0.5048 -0.2125
  909MOL0     H22648   1.412   7.049   1.643  1.3886 -1.4588  1.1645
  909MOL0     H22649   1.209   6.934   1.696  0.1250  0.7204 -0.9032
  909MOL0     H22650   1.136   6.766   1.819 -0.0538 -0.6368  0.8064
  909MOL0     H22651   1.011   6.773   1.706  3.0752  2.8305  0.6483
  909MOL0     H22652   1.113   6.519   1.839 -0.3020  0.8382 -0.1196
  909MOL0     H22653   0.957   6.526   1.742 -1.2042  2.3160 -1.3904
  909MOL0     H22654   0.851   6.664   1.888  0.6228  0.2906  0.3854
  909MOL0     H22655   0.986   6.705   1.990 -2.2522  2.4653  0.7653
  909MOL0     H22656   0.891   6.414   1.963 -1.4088  2.0540 -1.0541
  909MOL0     H22657   1.018   6.470   2.062  0.0559 -0.5438 -2.8142
  909MOL0     H22658   0.841   6.443   2.207  0.6626  0.4095  1.4990
  909MOL0     H22659   0.844   6.624   2.181  4.3463 -0.6696 -1.3810
  909MOL0     H22660   0.670   6.588   2.011 -1.1166 -2.1854 -1.6663
  909MOL0     H22661   0.637   6.424   2.052  0.2747 -0.1630 -0.7683
  909MOL0     H22662   0.499   6.623   2.175  0.2702  0.4023 -0.8891
  909MOL0     H22663   0.639   6.641   2.278 -0.8342 -1.7815  0.4989
  909MOL0     H22664   0.478   6.385   2.214 -2.2091 -0.5054  1.2689
  909MOL0     H22665   0.602   6.393   2.344  0.3664 -1.5212 -1.8076
  909MOL0     H22666   0.492   6.490   2.589 -0.8471 -2.7198  2.4559
  909MOL0     H22667   0.301   6.660   2.698 -1.6975  1.7670  0.7457
  909MOL0     H22668   0.146   6.676   2.639 -0.5320  0.6661 -0.4362
  909MOL0     H22669   0.266   6.438   2.814 -0.1635  1.3108  1.7062
  909MOL0     H22670   0.126   6.533   2.848  2.7734 -0.6853  3.0105
  909MOL0     H22671   0.132   6.323   2.627 -0.2108  2.5022 -0.3314
  909MOL0     H22672  -0.012   6.405   2.676 -0.1394 -0.3500 -0.0327
  909MOL0     H22673   0.151   6.210   2.838  0.6934  2.0539  2.6136
  909MOL0     H22674  -0.006   6.179   2.758 -2.1486  2.5806 -1.1424
  909MOL0     H22675  -0.117   6.378   3.132 -0.7542  0.6258  1.6889
  909MOL0     H22676  -0.003   6.421   3.357 -0.7748 -0.6103 -0.0199
  909MOL0     H22677   0.190   6.255   3.679  1.8591 -1.0670  2.1036
  909MOL0     H22678   0.283   6.243   3.883 -2.8579 -1.3059 -3.6521
  909MOL0     H22679   0.307   6.418   4.144 -0.0964 -0.6258  0.1728
  909MOL0     H22680   0.456   6.466   4.177 -1.0019  1.0584  0.0822
  909MOL0     H22681   0.420   6.676   4.031  0.6365 -2.1313  0.5456
  909MOL0     H22682   0.243   6.647   4.044 -0.6585  0.3786  0.4634
  909MOL0     H22683   0.375   6.653   4.305  2.0104 -0.0564 -2.5165
  909MOL0     H22684   0.370   6.804   4.228 -0.7518  0.3724 -3.1745
  909MOL0     H22685   0.133   6.617   4.271  1.3806 -0.5537 -1.0497
  909MOL0     H22686   0.118   6.787   4.219 -1.2766  1.8631  2.8369
  909MOL0     H22687   0.221   6.844   4.447  2.2912 -1.4010  3.7796
  909MOL0     H22688   0.242   6.668   4.462 -0.6369  0.8785  2.3534
  909MOL0     H22689   0.025   6.620   4.447 -0.4755  1.8733 -2.1365
  909MOL0     H22690   0.058   6.701   4.594  1.1942 -2.3042 -1.1820
  909MOL0     H22691  -0.024   6.890   4.376 -1.6305  0.9579  0.0486
  909MOL0     H22692  -0.087   6.897   4.523 -0.8459 -0.1445  1.2203
  909MOL0     H22693  -0.187   6.691   4.319  3.2117  2.2466 -0.4213
  909MOL0     H22694  -0.214   6.680   4.493  0.3805 -0.1523 -1.2138
  909MOL0     H22695   0.467   6.637   3.815  0.4978 -0.3510 -2.2018
  909MOL0     H22696   0.345   6.640   3.597 -1.4093  1.0140  0.9676
  909MOL0     H22697   0.377   6.344   3.160  0.7259  0.1659 -1.7009
  909MOL0     H22698   0.269   6.280   2.979  2.9581  4.8366  0.4611
  909MOL0     H22699   1.370   6.583   1.509 -1.0852 -0.4768  1.2464
  909MOL0     H22700   1.562   6.721   1.422 -1.5135  0.1341 -1.7451
  909MOL0     H22701   1.742   7.099   1.328  0.3171 -0.2206  2.3400
  909MOL0     H22702   1.772   7.311   1.203  2.4393 -1.2146  0.0804
  909MOL0     H22703   1.790   7.685   1.146  2.5734 -1.6937 -0.4320
  909MOL0     H22704   1.812   7.510   1.132 -0.9956  0.2136 -2.5007
  909MOL0     H22705   1.999   7.524   1.270 -1.9535  0.0882 -1.2048
  909MOL0     H22706   1.950   7.680   1.345 -3.5138 -0.0330 -0.0685
  909MOL0     H22707   2.035   7.630   1.058 -0.6505  0.7923 -0.5748
  909MOL0     H22708   2.144   7.687   1.174  0.3226 -0.3786 -1.5529
  909MOL0     H22709   1.894   7.860   1.116 -0.7286 -1.5662 -0.9993
  909MOL0     H22710   2.043   7.912   1.183 -1.1107 -1.4643  2.8655
  909MOL0     H22711   2.161   7.948   0.787  1.2428  2.1093  0.8071
  909MOL0     H22712   1.642   7.539   1.538  0.3962  0.0327  0.1328
  909MOL0     H22713   1.495   7.301   1.727 -0.6497  2.7085  2.7891
  909MOL0     H22714   1.663   7.309   1.776  1.8385  0.2528 -1.0852
  909MOL0     H22715   1.592   7.456   1.728 -3.1337 -0.5504  0.7872
  910MOL0     O22716   4.830   8.511   2.645 -0.5749  0.2720  1.0019
  910MOL0     C22717   4.746   8.486   2.734 -0.5007 -0.8368 -0.2776
  910MOL0     O22718   4.735   8.540   2.854  0.1376 -0.5815 -0.1838
  910MOL0     C22719   4.797   8.658   2.894  0.1660 -0.4856  0.1906
  910MOL0     C22720   4.901   8.723   2.831 -0.2416 -1.1359 -0.3690
  910MOL0     C22721   4.950   8.844   2.894 -0.0530  0.4308 -0.7282
  910MOL0     C22722   4.886   8.903   3.010  0.3115 -0.6094 -0.2823
  910MOL0     O22723   4.907   9.037   3.044 -0.2011  0.5625 -0.0165
  910MOL0     C22724   4.910   9.068   3.180  0.6792  0.0361  0.1050
  910MOL0     C22725   4.909   9.224   3.190  0.0673  0.1354  0.0993
  910MOL0     C22726   5.021   9.290   3.112  0.7025  0.5147 -0.0153
  910MOL0     C22727   5.159   9.233   3.140 -0.2676  0.4376 -0.0015
  910MOL0     C22728   5.271   9.327   3.090 -0.9784 -0.3995 -0.6864
  910MOL0     C22729   5.394   9.260   3.040 -0.0487  0.1936 -0.3407
  910MOL0     C22730   5.435   9.143   3.131  0.3744  0.6377  0.5623
  910MOL0     C22731   5.510   9.041   3.037 -0.3450  0.6386  0.3092
  910MOL0     N22732   5.426   8.938   2.975 -0.0103 -0.4027  0.0102
  910MOL0     C22733   5.397   8.812   3.026 -0.6224 -0.2433 -0.3062
  910MOL0     C22734   5.331   8.746   2.922 -0.0127  0.0577  0.1473
  910MOL0     C22735   5.277   8.606   2.916  0.8945 -0.2453  0.3397
  910MOL0     C22736   5.234   8.571   3.054 -0.6784  0.3478 -0.4774
  910MOL0     C22737   5.208   8.431   3.070 -0.5523  0.8822  0.0398
  910MOL0     C22738   5.103   8.365   2.972 -0.3424 -0.2534  0.8707
  910MOL0     O22739   5.053   8.248   3.022  0.7521 -0.3112  0.3596
  910MOL0     C22740   4.950   8.174   2.971 -0.2129  0.9194  1.0153
  910MOL0     C22741   4.867   8.102   3.056  0.5420 -0.9442 -0.6700
  910MOL0     C22742   4.776   8.003   3.012 -0.7125 -0.1493 -0.0632
  910MOL0     C22743   4.753   7.993   2.873  0.6241  0.3762 -0.1139
  910MOL0     C22744   4.665   7.882   2.830 -0.5080 -0.2051 -0.4550
  910MOL0     O22745   4.686   7.855   2.694  1.5257 -0.1366 -0.0395
  910MOL0     C22746   4.627   7.748   2.636  0.4951 -0.2079  0.4701
  910MOL0     C22747   4.587   7.622   2.687 -0.2720  0.4138  0.5694
  910MOL0     C22748   4.516   7.533   2.603  0.5362 -0.1319 -0.3646
  910MOL0     C22749   4.469   7.568   2.478  0.6048  0.4600  0.6319
  910MOL0     O22750   4.386   7.470   2.423  0.2298 -0.4556  1.2006
  910MOL0     C22751   4.269   7.517   2.353 -0.5967 -0.4181  0.4299
  910MOL0     C22752   4.295   7.524   2.200 -0.1228 -0.1177 -0.5844
  910MOL0     C22753   4.170   7.560   2.125  0.3312 -0.2881 -1.1685
  910MOL0     C22754   4.201   7.525   1.977 -0.7946  0.1007  0.6056
  910MOL0     C22755   4.092   7.536   1.874 -0.0192  0.4649  0.5369
  910MOL0     C22756   4.132   7.473   1.738 -0.2928 -0.0950  0.8232
  910MOL0     C22757   4.056   7.547   1.621  0.6729 -0.3262  0.5294
  910MOL0     C22758   4.057   7.471   1.484 -0.1124 -0.2806  0.9444
  910MOL0    Cl22759   3.964   7.582   1.365 -0.1465 -0.0536  0.4243
  910MOL0     C22760   4.511   7.685   2.420  1.1172  0.3070 -0.1894
  910MOL0     C22761   4.583   7.770   2.499 -0.4783 -0.7836 -0.3234
  910MOL0     O22762   4.581   7.839   2.908  0.3555  0.9135  0.1939
  910MOL0     C22763   4.824   8.087   2.785 -0.0219  0.1590 -0.2149
  910MOL0     C22764   4.917   8.171   2.829 -0.6844 -0.8831  0.5949
  910MOL0     N22765   5.317   8.834   2.813  0.5787 -0.0460  0.0717
  910MOL0     N22766   5.384   8.934   2.841  0.1156  0.0595 -0.2860
  910MOL0     C22767   4.776   8.834   3.063 -0.0602 -0.2953 -1.0098
  910MOL0     C22768   4.737   8.707   3.012  0.3949  0.4750 -0.4064
  910MOL0     C22769   4.640   8.396   2.696  0.2433  1.0885  0.0919
  910MOL0     C22770   4.579   8.317   2.793 -0.0280 -0.3247  0.2818
  910MOL0     C22771   4.496   8.214   2.753  0.4760  0.8101 -0.0904
  910MOL0     C22772   4.446   8.196   2.621  0.0523  0.1031 -0.7492
  910MOL0     O22773   4.358   8.104   2.572  0.4691  0.0580  0.5109
  910MOL0     C22774   4.307   7.993   2.652  0.8783 -0.6519  0.3163
  910MOL0     C22775   4.209   7.894   2.582  1.4728 -0.4170  0.1804
  910MOL0     C22776   4.121   7.981   2.486  0.6186  0.1931 -0.5664
  910MOL0     C22777   4.008   7.901   2.427  0.4130 -0.3726  0.1948
  910MOL0     C22778   3.905   7.989   2.381  0.6528  0.6144  0.1330
  910MOL0     C22779   3.838   8.078   2.333 -0.2072  0.3871  0.9112
  910MOL0     C22780   4.501   8.282   2.529 -0.9166  0.0609  0.4360
  910MOL0     C22781   4.596   8.382   2.559 -0.2242 -0.5628  0.4378
  910MOL0     C22782   4.629   8.477   2.445 -0.0079 -0.5661 -1.0338
  910MOL0     H22783   4.949   8.682   2.742  1.8712 -1.6175  0.9217
  910MOL0     H22784   5.034   8.902   2.855  1.5266 -0.5952  0.9705
  910MOL0     H22785   4.815   9.039   3.227  0.7804 -2.4286 -1.0628
  910MOL0     H22786   4.996   9.024   3.231  0.2794 -1.6801 -0.6289
  910MOL0     H22787   4.917   9.250   3.296  1.7349  1.3814 -0.2862
  910MOL0     H22788   4.816   9.262   3.147  0.9531 -0.3025 -2.3375
  910MOL0     H22789   5.020   9.394   3.145  2.0721  1.3557 -2.3926
  910MOL0     H22790   5.009   9.282   3.003  1.9385  1.1616 -0.2177
  910MOL0     H22791   5.166   9.209   3.246 -1.2127 -0.0066 -0.0241
  910MOL0     H22792   5.151   9.136   3.089  0.0907  0.0257  0.7223
  910MOL0     H22793   5.229   9.393   3.014 -1.2644  1.0745  0.6992
  910MOL0     H22794   5.298   9.404   3.163 -0.6316  1.2222 -2.4465
  910MOL0     H22795   5.353   9.219   2.947 -4.8042  2.5446  0.4214
  910MOL0     H22796   5.476   9.330   3.019 -0.4859  1.2230  1.1930
  910MOL0     H22797   5.355   9.082   3.175  0.4752 -0.5929 -0.8692
  910MOL0     H22798   5.500   9.185   3.208 -0.2905 -0.8794  2.0220
  910MOL0     H22799   5.567   9.091   2.958  1.6166  0.3428  1.4820
  910MOL0     H22800   5.597   9.001   3.090  0.8666  1.0957 -1.2509
  910MOL0     H22801   5.403   8.779   3.129  0.4072  0.1387 -0.2377
  910MOL0     H22802   5.195   8.611   2.844  1.6671  3.0887 -0.4737
  910MOL0     H22803   5.349   8.533   2.877  0.7944 -1.2356  1.9263
  910MOL0     H22804   5.306   8.594   3.133  0.0759  1.6807 -1.5210
  910MOL0     H22805   5.143   8.626   3.080  0.5963  0.7778  3.7893
  910MOL0     H22806   5.192   8.408   3.175  2.0921  0.7366  0.4725
  910MOL0     H22807   5.295   8.367   3.051 -0.1957  1.5832 -0.7928
  910MOL0     H22808   5.157   8.353   2.878 -1.6440  1.0050 -0.0823
  910MOL0     H22809   5.027   8.437   2.939  0.3897  0.7291  1.2725
  910MOL0     H22810   4.888   8.106   3.163 -0.7017  1.3192 -0.4607
  910MOL0     H22811   4.715   7.954   3.088  0.0460  1.5453  1.7474
  910MOL0     H22812   4.600   7.607   2.794 -1.2589 -0.3946  0.5958
  910MOL0     H22813   4.499   7.433   2.641  2.4546 -0.7423 -0.9744
  910MOL0     H22814   4.180   7.458   2.379 -1.1283  1.2284  2.7445
  910MOL0     H22815   4.230   7.616   2.376 -3.4860 -0.6236 -2.6817
  910MOL0     H22816   4.375   7.587   2.161  1.0846 -0.6060  0.9969
  910MOL0     H22817   4.321   7.421   2.171 -0.1117 -0.1175 -0.5748
  910MOL0     H22818   4.081   7.509   2.162  0.1924  1.3758  1.0083
  910MOL0     H22819   4.158   7.667   2.146  0.5148 -0.4412 -0.2503
  910MOL0     H22820   4.220   7.417   1.978  0.8649  0.3733  1.0950
  910MOL0     H22821   4.289   7.573   1.933 -0.0150 -3.6508 -2.5360
  910MOL0     H22822   4.083   7.644   1.867  0.3306  0.5880  1.7135
  910MOL0     H22823   3.999   7.495   1.914  0.0102  1.4636  1.6928
  910MOL0     H22824   4.240   7.485   1.736 -0.3812  2.0811  3.0192
  910MOL0     H22825   4.107   7.367   1.730  4.2823 -1.3274  0.3520
  910MOL0     H22826   4.106   7.641   1.594 -0.7170 -0.2446 -2.0385
  910MOL0     H22827   3.958   7.576   1.658  0.8210 -1.0185  1.4952
  910MOL0     H22828   4.158   7.457   1.444 -0.5610 -0.7315 -0.0835
  910MOL0     H22829   4.012   7.371   1.488  2.6906 -1.8002 -1.2624
  910MOL0     H22830   4.489   7.708   2.317  0.4570  0.3604 -0.0390
  910MOL0     H22831   4.613   7.861   2.450  2.4998 -2.4547 -1.8873
  910MOL0     H22832   4.799   8.086   2.680  1.2319 -1.0661 -0.5378
  910MOL0     H22833   4.970   8.235   2.759 -0.2218 -0.1070  1.6354
  910MOL0     H22834   4.715   8.871   3.144  0.2180 -0.2320 -0.8299
  910MOL0     H22835   4.663   8.636   3.049  0.2308  1.4344  1.2199
  910MOL0     H22836   4.613   8.330   2.895  1.6147 -2.6272  0.0950
  910MOL0     H22837   4.464   8.149   2.833 -0.5184 -1.3263 -2.0950
  910MOL0     H22838   4.255   8.038   2.737 -1.6022  0.3320 -1.6131
  910MOL0     H22839   4.388   7.933   2.694  1.4378 -0.0718  0.0814
  910MOL0     H22840   4.148   7.848   2.660  1.4847 -0.1437  0.3518
  910MOL0     H22841   4.263   7.813   2.532 -2.0559 -3.5320  0.9797
  910MOL0     H22842   4.187   8.017   2.406  0.5560 -2.2486 -1.8214
  910MOL0     H22843   4.074   8.064   2.538  0.3880 -0.0369 -0.4066
  910MOL0     H22844   4.041   7.853   2.334 -0.5927  0.3283 -0.5470
  910MOL0     H22845   3.952   7.837   2.494 -1.7437  1.0061 -0.1900
  910MOL0     H22846   3.769   8.151   2.296 -2.0832 -2.0351 -0.6755
  910MOL0     H22847   4.480   8.263   2.424  1.0693 -2.0522  0.3344
  910MOL0     H22848   4.589   8.443   2.349  0.3922 -0.1267 -1.3556
  910MOL0     H22849   4.600   8.580   2.467  0.4041 -0.5329 -0.6336
  910MOL0     H22850   4.736   8.482   2.423  0.4949 -1.8600  0.8399
  911MOL0     O22851   8.671   4.666   3.865 -0.0064  0.4117  0.0420
  911MOL0     C22852   8.756   4.619   3.943 -0.4604  0.1432 -0.1428
  911MOL0     O22853   8.742   4.595   4.079 -1.3256 -0.4403 -0.6483
  911MOL0     C22854   8.642   4.661   4.137 -0.1908 -0.1000 -0.9764
  911MOL0     C22855   8.658   4.771   4.221 -0.4060 -0.4039 -0.0874
  911MOL0     C22856   8.549   4.851   4.259 -0.2570 -1.3153 -0.3103
  911MOL0     C22857   8.416   4.823   4.238 -0.0707 -0.7404  0.5339
  911MOL0     O22858   8.304   4.907   4.275 -0.5166 -0.6585 -0.5830
  911MOL0     C22859   8.318   5.024   4.362 -0.2843 -0.5498 -0.0734
  911MOL0     C22860   8.356   5.149   4.273  0.2417 -0.0668  0.0716
  911MOL0     C22861   8.252   5.182   4.164 -0.3646  0.1024  0.2426
  911MOL0     C22862   8.141   5.277   4.221 -0.1931 -0.4345  0.2525
  911MOL0     C22863   8.039   5.321   4.119 -0.9589 -0.1983  0.9765
  911MOL0     C22864   7.961   5.206   4.071 -0.0170  0.4521  0.4655
  911MOL0     C22865   7.869   5.242   3.947  0.0534 -0.4277 -0.3515
  911MOL0     C22866   7.786   5.118   3.908  0.0660 -0.5131  0.1136
  911MOL0     N22867   7.675   5.168   3.809  0.5415  0.3283  0.4144
  911MOL0     C22868   7.626   5.066   3.727 -0.0350  1.2921  0.3796
  911MOL0     C22869   7.519   5.112   3.665  0.2074  0.5754 -0.9404
  911MOL0     C22870   7.431   5.030   3.575  0.2875 -0.1852  0.1417
  911MOL0     C22871   7.308   4.977   3.641  0.0048 -0.8870  0.2463
  911MOL0     C22872   7.206   5.080   3.676  0.2029 -0.5292  0.1760
  911MOL0     C22873   7.087   5.017   3.750 -0.3252 -0.7176 -0.4632
  911MOL0     O22874   7.029   4.922   3.658  0.3368  0.9806 -0.6463
  911MOL0     C22875   6.898   4.894   3.684 -0.7300 -0.3830 -0.7922
  911MOL0     C22876   6.799   4.914   3.588 -0.2133  0.5357 -0.4032
  911MOL0     C22877   6.659   4.895   3.609  0.2327 -1.2368  0.1793
  911MOL0     C22878   6.621   4.851   3.737  0.6542 -0.3691 -0.6390
  911MOL0     C22879   6.476   4.823   3.762  1.0748  0.6981  1.1547
  911MOL0     O22880   6.389   4.812   3.649 -0.6647 -0.1615 -0.9746
  911MOL0     C22881   6.258   4.781   3.657  0.6150  0.1623  0.7622
  911MOL0     C22882   6.159   4.853   3.721  0.1221 -1.0672 -0.1507
  911MOL0     C22883   6.017   4.814   3.724 -0.2873  0.7408 -1.0205
  911MOL0     C22884   5.977   4.701   3.662  0.6872 -0.1642 -0.3377
  911MOL0     O22885   5.847   4.663   3.669 -0.0225 -0.2614 -0.0603
  911MOL0     C22886   5.824   4.527   3.693  0.1652  0.0892  1.0859
  911MOL0     C22887   5.670   4.508   3.705  0.3525  0.2715  0.4321
  911MOL0     C22888   5.632   4.441   3.834 -0.7595 -0.3082  0.6617
  911MOL0     C22889   5.496   4.483   3.892 -0.1202  0.3041  0.3187
  911MOL0     C22890   5.465   4.403   4.018 -0.1130 -0.3601 -0.4226
  911MOL0     C22891   5.466   4.486   4.152  0.0902  0.2751  0.2085
  911MOL0     C22892   5.587   4.576   4.162  0.0880  0.7030  0.5197
  911MOL0     C22893   5.602   4.639   4.298  0.1756  0.6579 -0.5096
  911MOL0    Cl22894   5.637   4.529   4.430 -0.5426  0.1329 -0.0570
  911MOL0     C22895   6.075   4.634   3.587 -0.1484  0.5088  0.3155
  911MOL0     C22896   6.208   4.668   3.586 -0.4367 -0.5057  1.0322
  911MOL0     O22897   6.440   4.821   3.875  0.4921  0.2979 -0.3310
  911MOL0     C22898   6.720   4.824   3.836 -0.4280 -0.1560  0.0971
  911MOL0     C22899   6.854   4.854   3.808  0.1068 -0.2828 -0.7040
  911MOL0     N22900   7.497   5.238   3.715  0.5099 -0.5754 -0.8316
  911MOL0     N22901   7.579   5.267   3.810  0.2591 -0.3568  0.0901
  911MOL0     C22902   8.397   4.710   4.153  0.1799  0.5267 -0.5869
  911MOL0     C22903   8.502   4.636   4.111  0.7979 -0.4130  0.3401
  911MOL0     C22904   8.879   4.563   3.885  0.5833 -0.2409 -0.1570
  911MOL0     C22905   9.005   4.581   3.955  0.7354  0.0073 -0.3469
  911MOL0     C22906   9.125   4.547   3.900  0.1571 -1.1031 -0.8195
  911MOL0     C22907   9.140   4.526   3.765  0.6892  0.0326 -0.0319
  911MOL0     O22908   9.250   4.522   3.688  1.0338 -0.6879 -0.2008
  911MOL0     C22909   9.374   4.502   3.756 -0.4859  0.2766  0.0086
  911MOL0     C22910   9.378   4.366   3.826  0.7905  0.0116  0.2015
  911MOL0     C22911   9.513   4.338   3.883  0.7260  0.7368 -0.9924
  911MOL0     C22912   9.567   4.197   3.868 -0.0989  0.2511 -0.5655
  911MOL0     C22913   9.639   4.182   3.740 -0.6348 -0.8120  0.6406
  911MOL0     C22914   9.719   4.165   3.646 -0.0697 -0.2332  0.4851
  911MOL0     C22915   9.011   4.507   3.693 -0.5654  0.2840  0.0333
  911MOL0     C22916   8.881   4.519   3.750 -0.3221 -0.2660 -0.1851
  911MOL0     C22917   8.764   4.485   3.661  0.3484  0.4390  0.0268
  911MOL0     H22918   8.758   4.807   4.241 -0.4194  0.7547 -1.8967
  911MOL0     H22919   8.594   4.940   4.301  0.8456 -1.7918 -0.4423
  911MOL0     H22920   8.222   5.047   4.410  0.1087  0.4897  0.2441
  911MOL0     H22921   8.376   5.001   4.452 -0.2804  0.7883  0.2918
  911MOL0     H22922   8.453   5.129   4.228  0.6597 -0.5249  1.1487
  911MOL0     H22923   8.380   5.230   4.342  1.2590  1.0341 -1.5084
  911MOL0     H22924   8.214   5.088   4.124  1.3653 -0.6936  0.4231
  911MOL0     H22925   8.304   5.244   4.090 -1.5242  2.7952  1.5250
  911MOL0     H22926   8.087   5.227   4.302  1.2545 -0.3010  1.3482
  911MOL0     H22927   8.188   5.366   4.264  1.6972 -1.7233  1.0033
  911MOL0     H22928   7.971   5.396   4.160 -0.5785  1.1825 -0.8087
  911MOL0     H22929   8.099   5.364   4.038 -2.9266 -2.8891 -2.1746
  911MOL0     H22930   8.028   5.133   4.025  0.5052  1.0912  0.1801
  911MOL0     H22931   7.894   5.174   4.151 -0.7257  3.0786  1.0159
  911MOL0     H22932   7.921   5.290   3.864 -0.5052  1.4851  0.3495
  911MOL0     H22933   7.811   5.323   3.992  0.2216  0.9486 -2.4365
  911MOL0     H22934   7.843   5.045   3.850 -0.3357 -0.0386 -0.8940
  911MOL0     H22935   7.741   5.076   3.998 -1.6634  1.5531  0.2919
  911MOL0     H22936   7.655   4.964   3.704 -2.5539  0.5143  0.3040
  911MOL0     H22937   7.398   5.097   3.495  0.1577  0.6010  0.8472
  911MOL0     H22938   7.485   4.944   3.534 -1.6217  0.3995 -4.1293
  911MOL0     H22939   7.262   4.909   3.569 -0.3663 -1.3625  0.9237
  911MOL0     H22940   7.338   4.921   3.729  1.6218  2.6686  2.1889
  911MOL0     H22941   7.158   5.125   3.589  0.2875  1.9198  1.3288
  911MOL0     H22942   7.252   5.153   3.743  1.0209 -0.5119 -0.3955
  911MOL0     H22943   7.018   5.100   3.767 -0.1306 -1.1538  3.5425
  911MOL0     H22944   7.126   4.972   3.842  1.5178  2.8591  0.6818
  911MOL0     H22945   6.828   4.953   3.491  1.3509  1.4292  0.3835
  911MOL0     H22946   6.583   4.933   3.541  0.3202  1.3318  1.4125
  911MOL0     H22947   6.197   4.939   3.775 -0.4163 -2.6240  2.9990
  911MOL0     H22948   5.935   4.872   3.764 -1.9711 -1.7407 -0.6589
  911MOL0     H22949   5.858   4.478   3.601 -0.3823  2.9810 -0.7994
  911MOL0     H22950   5.883   4.499   3.780  5.4758 -1.9227 -2.6359
  911MOL0     H22951   5.611   4.600   3.703  1.7325  1.1729 -1.8259
  911MOL0     H22952   5.636   4.441   3.626 -2.1919  1.0574  0.7874
  911MOL0     H22953   5.626   4.334   3.811 -5.3561 -0.4027  1.3677
  911MOL0     H22954   5.715   4.460   3.902  1.3079  0.6478 -1.9355
  911MOL0     H22955   5.418   4.464   3.817 -0.4693 -2.0910  1.2212
  911MOL0     H22956   5.505   4.592   3.905  2.0318  0.1059  0.8704
  911MOL0     H22957   5.541   4.325   4.030 -1.6359 -1.5227  2.9061
  911MOL0     H22958   5.364   4.361   4.023  0.0075 -0.4881  2.7037
  911MOL0     H22959   5.373   4.544   4.156 -2.4187 -3.3609  0.0277
  911MOL0     H22960   5.481   4.415   4.234 -0.3652  3.0046  2.8291
  911MOL0     H22961   5.560   4.655   4.091 -0.7273  0.5442  0.6409
  911MOL0     H22962   5.677   4.526   4.125 -0.7570  0.0003 -0.6629
  911MOL0     H22963   5.685   4.710   4.300 -0.2976  1.2452 -1.2120
  911MOL0     H22964   5.515   4.703   4.318  2.3954  3.9173 -0.5096
  911MOL0     H22965   6.044   4.547   3.529 -0.5049 -0.9067  2.5334
  911MOL0     H22966   6.274   4.615   3.518  1.0419  0.3088  1.7823
  911MOL0     H22967   6.696   4.770   3.927 -1.7613  1.1957  0.5871
  911MOL0     H22968   6.928   4.835   3.885 -0.6698  0.5544  0.2893
  911MOL0     H22969   8.295   4.683   4.128 -0.5771  1.6003  1.1982
  911MOL0     H22970   8.482   4.541   4.063  0.0278 -1.5166  2.6975
  911MOL0     H22971   8.995   4.628   4.052  4.3594  1.5309 -0.5835
  911MOL0     H22972   9.215   4.578   3.952 -1.4644  0.1545  1.4137
  911MOL0     H22973   9.385   4.587   3.825 -1.6539 -0.1387  0.7348
  911MOL0     H22974   9.465   4.504   3.695  1.6255  1.3605  2.9802
  911MOL0     H22975   9.341   4.289   3.757 -1.2080  0.6090  0.5511
  911MOL0     H22976   9.310   4.381   3.910 -0.2143 -0.7134 -0.4579
  911MOL0     H22977   9.495   4.346   3.990  2.0441 -1.6988 -0.5237
  911MOL0     H22978   9.585   4.414   3.852 -0.0911  1.8742 -0.1925
  911MOL0     H22979   9.635   4.173   3.950  1.6072  0.6821 -1.7935
  911MOL0     H22980   9.477   4.135   3.865  0.6105 -0.7894 -1.0271
  911MOL0     H22981   9.788   4.149   3.565 -0.5906 -0.0999  0.0113
  911MOL0     H22982   9.032   4.470   3.593 -0.2904 -1.9759  0.8792
  911MOL0     H22983   8.694   4.565   3.632 -3.2233 -3.3805 -3.1674
  911MOL0     H22984   8.811   4.460   3.565 -1.0918 -0.9694 -0.3387
  911MOL0     H22985   8.696   4.408   3.697 -0.4486  0.1644 -1.9224
  912MOL0     O22986  10.325   3.233   9.790 -0.1540  0.9660 -0.1571
  912MOL0     C22987  10.394   3.314   9.857  0.5155  0.4956 -0.5144
  912MOL0     O22988  10.430   3.298   9.986  0.6257 -1.0912  1.2863
  912MOL0     C22989  10.391   3.186  10.064 -0.0825 -0.1117 -0.6305
  912MOL0     C22990  10.476   3.130  10.165 -0.3990 -1.1023  0.3539
  912MOL0     C22991  10.430   3.019  10.237 -0.3945 -0.9380 -0.4090
  912MOL0     C22992  10.310   2.953  10.221 -0.0795  0.5488  0.0541
  912MOL0     O22993  10.287   2.839  10.300  0.1077 -0.4034  0.0064
  912MOL0     C22994  10.156   2.795  10.314  1.4801  0.1796 -0.0188
  912MOL0     C22995  10.150   2.732  10.455  0.9130  0.1734 -0.7990
  912MOL0     C22996  10.008   2.676  10.473  0.5390 -0.5512 -0.2584
  912MOL0     C22997   9.998   2.601  10.616  0.6890 -0.0056 -0.3645
  912MOL0     C22998   9.984   2.684  10.741  0.0785 -0.6339 -0.2458
  912MOL0     C22999   9.849   2.771  10.731  0.2161 -0.3530  0.3935
  912MOL0     C23000   9.811   2.831  10.862 -1.1698 -0.2664  0.8175
  912MOL0     C23001   9.740   2.974  10.859 -0.1347  0.0407 -0.7944
  912MOL0     N23002   9.839   3.068  10.803  1.0400 -0.4133 -0.3080
  912MOL0     C23003   9.951   3.119  10.864  0.6554 -0.5479  0.5846
  912MOL0     C23004  10.009   3.206  10.779  0.1145  0.8487 -0.5408
  912MOL0     C23005  10.120   3.313  10.803 -0.1127  0.3264 -0.1279
  912MOL0     C23006  10.076   3.455  10.777  0.3665 -0.2272 -0.2377
  912MOL0     C23007  10.183   3.565  10.765  0.5835  0.1376 -0.5010
  912MOL0     C23008  10.196   3.650  10.888  0.8856  0.8915 -0.0846
  912MOL0     O23009  10.316   3.736  10.865  0.6875 -0.3215 -0.1649
  912MOL0     C23010  10.372   3.794  10.980 -0.9606 -0.4844 -0.0590
  912MOL0     C23011  10.298   3.832  11.089 -0.2463 -0.0304  0.2353
  912MOL0     C23012  10.368   3.887  11.198 -1.1368 -0.5317 -0.6143
  912MOL0     C23013  10.511   3.905  11.191 -0.2284 -0.1205 -0.0332
  912MOL0     C23014  10.597   3.966  11.297  0.0555 -0.5337  0.5051
  912MOL0     O23015  10.723   3.995  11.265  0.0663 -0.4899 -0.0675
  912MOL0     C23016  10.805   4.025  11.368  1.0753  0.8668  0.0215
  912MOL0     C23017  10.845   4.150  11.384 -0.1499  0.5637  0.3316
  912MOL0     C23018  10.920   4.198  11.491 -0.4792  0.2698  0.3662
  912MOL0     C23019  10.961   4.100  11.584 -0.1008 -1.3396 -0.8066
  912MOL0     O23020  11.038   4.129  11.699  0.0217  0.3345  0.9406
  912MOL0     C23021  11.100   4.256  11.710  1.9654  0.3931 -0.3645
  912MOL0     C23022  11.173   4.264  11.848 -0.1327 -0.3811  0.2644
  912MOL0     C23023  11.256   4.390  11.863 -0.2475 -0.0091 -0.7040
  912MOL0     C23024  11.302   4.396  12.009  0.4229  0.1184 -0.3667
  912MOL0     C23025  11.435   4.475  12.020  0.5819 -0.6231 -0.6561
  912MOL0     C23026  11.460   4.532  12.172  0.1503 -0.0394  0.6267
  912MOL0     C23027  11.452   4.411  12.270 -0.2013 -0.7840  0.2673
  912MOL0     C23028  11.430   4.461  12.407  0.1049  0.6325 -0.2679
  912MOL0    Cl23029  11.482   4.328  12.521 -0.1621 -0.4490 -0.0751
  912MOL0     C23030  10.920   3.970  11.566 -0.3771  0.2983  0.0304
  912MOL0     C23031  10.849   3.926  11.459  0.6212  0.2023  0.2947
  912MOL0     O23032  10.541   3.980  11.406  0.2143  0.0786 -0.2295
  912MOL0     C23033  10.579   3.876  11.067  0.5151 -0.8667 -0.2528
  912MOL0     C23034  10.503   3.823  10.964 -0.6061  0.3910  0.3471
  912MOL0     N23035   9.929   3.195  10.658  0.3714  0.5956  0.5982
  912MOL0     N23036   9.833   3.110  10.677 -0.6080 -1.0984  0.0268
  912MOL0     C23037  10.226   3.014  10.125  0.0144  0.0386 -0.0386
  912MOL0     C23038  10.261   3.124  10.049 -0.2026 -0.1716  0.0043
  912MOL0     C23039  10.433   3.430   9.778 -0.5029 -0.2383  0.3677
  912MOL0     C23040  10.539   3.500   9.842 -0.0615 -0.3596 -0.1382
  912MOL0     C23041  10.606   3.598   9.769 -0.3477  0.3451  0.4053
  912MOL0     C23042  10.564   3.653   9.651 -0.2045 -0.0775 -0.2985
  912MOL0     O23043  10.637   3.740   9.578 -0.9729 -0.5171 -0.6690
  912MOL0     C23044  10.778   3.728   9.575 -0.7256  0.2231  0.8432
  912MOL0     C23045  10.856   3.783   9.450 -0.5854  0.1692 -0.0371
  912MOL0     C23046  10.801   3.719   9.324  0.6641 -0.1383  0.2983
  912MOL0     C23047  10.891   3.766   9.208 -1.5701 -0.0203  1.1113
  912MOL0     C23048  10.874   3.675   9.091 -0.3814 -1.0607  0.3631
  912MOL0     C23049  10.863   3.611   8.990 -0.0292 -0.3070 -0.0763
  912MOL0     C23050  10.447   3.594   9.591  0.1697  0.3459 -1.4393
  912MOL0     C23051  10.386   3.482   9.656  0.0908  0.2120  1.0250
  912MOL0     C23052  10.272   3.411   9.577 -1.1984 -1.1294 -0.9089
  912MOL0     H23053  10.574   3.168  10.191 -1.2444 -0.8040  3.5946
  912MOL0     H23054  10.477   2.988  10.330 -0.0889  0.1105 -0.2022
  912MOL0     H23055  10.097   2.886  10.326  1.9729  0.3026  1.8460
  912MOL0     H23056  10.121   2.726  10.237 -2.3232  1.6013  0.2177
  912MOL0     H23057  10.167   2.804  10.536 -1.4561 -2.5921  2.4516
  912MOL0     H23058  10.224   2.652  10.453 -1.4652 -2.1841  0.2508
  912MOL0     H23059   9.992   2.604  10.392  3.5720 -0.3756 -1.1453
  912MOL0     H23060   9.933   2.754  10.459  0.9731 -0.0812  0.0167
  912MOL0     H23061   9.916   2.527  10.616  3.7650 -3.7451 -0.9170
  912MOL0     H23062  10.087   2.539  10.627  0.5864 -0.0850  0.0209
  912MOL0     H23063   9.997   2.630  10.835 -0.3850  0.1337  0.2783
  912MOL0     H23064  10.060   2.762  10.753 -2.3529  1.8799 -0.1432
  912MOL0     H23065   9.864   2.847  10.653  0.2514 -1.1313 -0.3674
  912MOL0     H23066   9.761   2.710  10.708 -1.7603 -0.0813  5.8117
  912MOL0     H23067   9.902   2.843  10.922  1.3046  2.2504 -3.0283
  912MOL0     H23068   9.738   2.760  10.903 -2.9374  1.0946  0.1858
  912MOL0     H23069   9.652   2.983  10.795  0.1731  1.4207 -1.0597
  912MOL0     H23070   9.714   2.995  10.963 -0.1145 -4.0227  0.2013
  912MOL0     H23071   9.973   3.095  10.968 -2.3776  1.1373  1.7620
  912MOL0     H23072  10.162   3.305  10.904 -2.2268  1.2454  0.9086
  912MOL0     H23073  10.193   3.280  10.729  0.0170  1.2477 -0.4192
  912MOL0     H23074  10.021   3.458  10.682  1.8593  1.1933 -1.1045
  912MOL0     H23075  10.018   3.483  10.866 -1.2645  0.9038 -1.5905
  912MOL0     H23076  10.151   3.632  10.684  1.6009  1.4822  0.1670
  912MOL0     H23077  10.270   3.504  10.738 -0.2252 -0.3503 -2.1856
  912MOL0     H23078  10.214   3.592  10.979 -2.1248 -0.6061 -0.3563
  912MOL0     H23079  10.103   3.704  10.906 -0.5663 -0.5920 -2.5819
  912MOL0     H23080  10.190   3.838  11.089 -0.3241 -1.0324  1.6585
  912MOL0     H23081  10.324   3.917  11.292  1.3979  0.9867  0.2082
  912MOL0     H23082  10.797   4.222  11.318  1.5749  1.2971 -0.1748
  912MOL0     H23083  10.957   4.300  11.491 -0.7063  0.4240 -2.4099
  912MOL0     H23084  11.165   4.280  11.625 -1.7014 -0.2889 -3.6756
  912MOL0     H23085  11.028   4.338  11.714  0.5316 -0.7567 -1.3795
  912MOL0     H23086  11.111   4.251  11.937  1.4983  0.5229  1.5959
  912MOL0     H23087  11.248   4.184  11.848  2.1059  1.6000  0.9459
  912MOL0     H23088  11.346   4.389  11.801 -1.7055 -1.5234 -2.9546
  912MOL0     H23089  11.203   4.481  11.834 -0.3726  0.9622  2.2665
  912MOL0     H23090  11.324   4.296  12.047  0.5951  0.2990  0.0181
  912MOL0     H23091  11.222   4.438  12.070  0.5149  2.5061 -1.7643
  912MOL0     H23092  11.440   4.566  11.958 -2.5276  2.7192  3.3958
  912MOL0     H23093  11.513   4.405  11.989 -0.5692 -2.9513  1.4016
  912MOL0     H23094  11.561   4.573  12.180 -0.1024  0.6492  0.4000
  912MOL0     H23095  11.379   4.604  12.191  0.4112  0.2625  0.6115
  912MOL0     H23096  11.538   4.347  12.252  0.2132 -0.0937 -0.2436
  912MOL0     H23097  11.366   4.353  12.235 -0.1654  0.7636 -2.6560
  912MOL0     H23098  11.497   4.546  12.418  1.2329 -0.1929 -0.6177
  912MOL0     H23099  11.325   4.481  12.433  0.2833 -1.5022  2.6875
  912MOL0     H23100  10.952   3.887  11.628 -1.1863 -1.0236 -1.2552
  912MOL0     H23101  10.819   3.822  11.467  2.6707 -0.2842  4.6624
  912MOL0     H23102  10.684   3.894  11.048  1.0406  0.8260  3.3771
  912MOL0     H23103  10.546   3.805  10.866 -0.0091  0.2595  0.6327
  912MOL0     H23104  10.130   2.969  10.104  1.0268 -2.6615  0.7041
  912MOL0     H23105  10.192   3.158   9.973  0.4756 -2.3965 -1.6975
  912MOL0     H23106  10.587   3.468   9.934 -1.6240 -0.7404  0.5651
  912MOL0     H23107  10.691   3.651   9.810 -1.5680  4.0970 -1.4493
  912MOL0     H23108  10.801   3.621   9.570  0.2526  0.4977 -1.2881
  912MOL0     H23109  10.826   3.773   9.663  1.8707  1.4233 -1.0769
  912MOL0     H23110  10.960   3.757   9.469 -1.0131 -2.6719 -1.0707
  912MOL0     H23111  10.843   3.888   9.422  1.4121  0.0866 -1.5056
  912MOL0     H23112  10.701   3.762   9.313 -1.0422 -3.6812  0.2958
  912MOL0     H23113  10.794   3.611   9.340 -0.5781  0.2209  2.7288
  912MOL0     H23114  10.872   3.867   9.170 -0.1413 -0.6143 -1.4057
  912MOL0     H23115  10.996   3.760   9.237 -1.1285 -1.1400 -0.5966
  912MOL0     H23116  10.843   3.560   8.898 -0.4757  0.1912 -0.2632
  912MOL0     H23117  10.410   3.624   9.494 -0.7152  0.9605 -0.9363
  912MOL0     H23118  10.190   3.409   9.649  0.2633  2.3821  1.0901
  912MOL0     H23119  10.248   3.475   9.491 -0.6055  0.2086 -0.1142
  912MOL0     H23120  10.295   3.314   9.531 -1.5085 -0.9119 -1.5378
  913MOL0     O23121  10.070   6.693   2.819  0.0630  0.0493 -0.0236
  913MOL0     C23122   9.965   6.630   2.786  0.6808 -0.3715  0.1367
  913MOL0     O23123   9.943   6.576   2.663  0.5874  0.0262  1.0408
  913MOL0     C23124  10.017   6.634   2.564 -0.4975  0.2450 -0.1893
  913MOL0     C23125  10.132   6.565   2.535  0.0460  0.7294  0.1157
  913MOL0     C23126  10.220   6.617   2.439  0.9944  0.0865  0.4155
  913MOL0     C23127  10.188   6.735   2.368 -0.2591 -1.1388  0.1396
  913MOL0     O23128  10.273   6.779   2.265  0.3331  0.0826  0.1784
  913MOL0     C23129  10.216   6.836   2.145 -0.0890 -0.8733 -0.4107
  913MOL0     C23130  10.327   6.864   2.039 -0.3936  0.3469  0.5810
  913MOL0     C23131  10.440   6.956   2.096  0.1033 -0.0355  0.9087
  913MOL0     C23132  10.541   6.991   1.989 -0.0141 -0.5825  0.1300
  913MOL0     C23133  10.655   7.071   2.054 -0.6188 -0.0157  1.2066
  913MOL0     C23134  10.743   7.149   1.958 -0.3101 -0.1738  0.4384
  913MOL0     C23135  10.667   7.261   1.885 -0.0886  0.5573 -0.5497
  913MOL0     C23136  10.758   7.371   1.838 -0.3781 -0.6048 -0.4878
  913MOL0     N23137  10.823   7.444   1.947  0.5368  0.3022  0.7186
  913MOL0     C23138  10.763   7.500   2.058 -0.0374  0.1450  1.2864
  913MOL0     C23139  10.855   7.584   2.104 -0.8181 -0.3737  0.3683
  913MOL0     C23140  10.835   7.662   2.234  0.4764 -0.7275 -0.7603
  913MOL0     C23141  10.706   7.745   2.216  0.6070  0.6854 -0.6973
  913MOL0     C23142  10.731   7.865   2.118  0.3206  0.1018  0.1945
  913MOL0     C23143  10.795   7.970   2.204  0.6829  0.0772 -0.0629
  913MOL0     O23144  10.899   8.045   2.123  0.5456  0.2128 -0.4645
  913MOL0     C23145  11.016   7.973   2.106 -0.9620  0.2115 -0.4964
  913MOL0     C23146  11.088   7.909   2.212 -0.2516  0.1976  0.8459
  913MOL0     C23147  11.201   7.833   2.192  0.3055 -0.0041  0.3523
  913MOL0     C23148  11.260   7.819   2.062  0.0864  0.4299 -0.0753
  913MOL0     C23149  11.374   7.738   2.040  0.6651  0.0371 -0.7285
  913MOL0     O23150  11.395   7.644   2.142 -1.0531 -0.3169  0.3218
  913MOL0     C23151  11.463   7.531   2.108 -1.1206 -0.0897  0.9119
  913MOL0     C23152  11.578   7.501   2.180 -0.1940 -0.0982  0.4301
  913MOL0     C23153  11.652   7.384   2.161  0.2556 -0.0205  0.7785
  913MOL0     C23154  11.598   7.292   2.062 -0.1937 -0.7435  0.7464
  913MOL0     O23155  11.675   7.188   2.019  0.7528 -0.2545  0.2092
  913MOL0     C23156  11.730   7.092   2.119  0.5164 -1.1186  0.4217
  913MOL0     C23157  11.754   6.955   2.066 -1.1717  0.6384  0.1346
  913MOL0     C23158  11.862   6.956   1.950 -0.2791 -0.6276 -0.8181
  913MOL0     C23159  11.897   6.807   1.916  1.0406  1.3715  0.5604
  913MOL0     C23160  11.777   6.727   1.865  0.3885  0.0885 -0.6169
  913MOL0     C23161  11.827   6.589   1.825 -0.0452  0.2664  0.4259
  913MOL0     C23162  11.737   6.514   1.732  0.9886  0.3953 -0.2298
  913MOL0     C23163  11.816   6.384   1.697  0.3579  0.2679  1.0324
  913MOL0    Cl23164  11.845   6.270   1.841  0.5277 -0.7765 -0.2000
  913MOL0     C23165  11.477   7.318   1.994 -0.5659 -0.9172  0.2490
  913MOL0     C23166  11.409   7.436   2.013 -0.3936  1.0123 -0.2299
  913MOL0     O23167  11.428   7.750   1.929 -0.1401  0.0232 -0.1587
  913MOL0     C23168  11.190   7.884   1.951  0.4332 -0.2954  0.2140
  913MOL0     C23169  11.074   7.956   1.980  0.3042 -0.0225 -0.7656
  913MOL0     N23170  10.967   7.570   2.030 -0.3010 -0.5116  0.7503
  913MOL0     N23171  10.947   7.481   1.934 -0.4968  0.1193  0.7877
  913MOL0     C23172  10.070   6.805   2.411  0.7347 -0.1253 -0.6656
  913MOL0     C23173   9.979   6.742   2.496 -0.1251 -0.6241 -0.0708
  913MOL0     C23174   9.870   6.577   2.893 -0.3539 -0.0615 -0.3305
  913MOL0     C23175   9.764   6.495   2.855  0.2425 -0.7311 -0.0981
  913MOL0     C23176   9.680   6.429   2.936  0.3539 -0.1034  0.5331
  913MOL0     C23177   9.703   6.435   3.070  0.1568  0.4603 -0.7317
  913MOL0     O23178   9.611   6.355   3.135 -0.5791  1.0964 -0.1964
  913MOL0     C23179   9.614   6.337   3.274 -0.2171  0.1534  0.1487
  913MOL0     C23180   9.699   6.209   3.275 -0.0487 -0.2780  0.0695
  913MOL0     C23181   9.726   6.155   3.420  0.5806 -0.4784 -0.2106
  913MOL0     C23182   9.873   6.150   3.472  0.3789 -0.4435  0.0696
  913MOL0     C23183   9.948   6.267   3.446  0.0596 -0.1491 -0.2095
  913MOL0     C23184  10.013   6.362   3.397  0.6126  0.1149 -0.2869
  913MOL0     C23185   9.807   6.511   3.122 -0.7776 -0.2784 -0.3694
  913MOL0     C23186   9.892   6.588   3.036  0.2055 -0.2267 -0.7122
  913MOL0     C23187   9.986   6.686   3.091  0.4050  0.0827  0.1850
  913MOL0     H23188  10.165   6.472   2.580  0.6035 -0.2010 -2.0446
  913MOL0     H23189  10.308   6.557   2.417 -2.3353 -4.1603 -3.2406
  913MOL0     H23190  10.126   6.794   2.099 -1.6212  1.5027  0.2775
  913MOL0     H23191  10.187   6.939   2.168 -0.9969 -0.5706 -2.5859
  913MOL0     H23192  10.285   6.895   1.943 -0.3570 -2.4132 -0.4105
  913MOL0     H23193  10.370   6.768   2.008  0.3991  0.8725  0.0236
  913MOL0     H23194  10.493   6.894   2.168 -1.3239  0.5608  2.5459
  913MOL0     H23195  10.399   7.046   2.142  1.1046  1.6616 -1.2921
  913MOL0     H23196  10.593   6.906   1.944 -0.6103 -0.0153 -1.7134
  913MOL0     H23197  10.482   7.044   1.914 -0.7296 -0.1734  0.9547
  913MOL0     H23198  10.614   7.138   2.130  3.0162  4.7116 -0.5045
  913MOL0     H23199  10.709   6.987   2.098 -0.8188 -0.3745  0.7739
  913MOL0     H23200  10.833   7.186   2.008 -0.5370  2.9915 -1.2432
  913MOL0     H23201  10.787   7.083   1.883 -0.6249  0.3541 -0.2298
  913MOL0     H23202  10.598   7.309   1.955  0.9159  2.1990 -0.6371
  913MOL0     H23203  10.602   7.222   1.806  0.0009  0.2496 -0.4739
  913MOL0     H23204  10.831   7.333   1.765  0.7136 -2.2571  1.3552
  913MOL0     H23205  10.700   7.442   1.778 -1.2141 -0.4662  0.4527
  913MOL0     H23206  10.665   7.468   2.090  0.2025 -0.9238  0.9950
  913MOL0     H23207  10.825   7.596   2.321 -0.0130  0.6578  0.2864
  913MOL0     H23208  10.913   7.734   2.259 -2.1337  2.1665 -0.3805
  913MOL0     H23209  10.620   7.685   2.183  0.8088 -0.6052  0.9751
  913MOL0     H23210  10.675   7.790   2.310  1.6693 -0.3472  0.1879
  913MOL0     H23211  10.632   7.886   2.077 -0.8583 -2.7384  1.3215
  913MOL0     H23212  10.788   7.814   2.039 -0.2005 -2.3312  1.2828
  913MOL0     H23213  10.840   7.934   2.297  1.5273  1.5707  0.1362
  913MOL0     H23214  10.718   8.041   2.236 -0.6524 -0.1764 -2.4788
  913MOL0     H23215  11.040   7.927   2.307 -1.1433  0.0943  0.4257
  913MOL0     H23216  11.242   7.790   2.283  0.5428 -0.0357  0.2327
  913MOL0     H23217  11.616   7.570   2.255  0.0190  1.8196 -1.3489
  913MOL0     H23218  11.750   7.374   2.207 -0.1254 -2.1437  1.2168
  913MOL0     H23219  11.828   7.128   2.151  1.1872 -3.6864  1.5510
  913MOL0     H23220  11.655   7.093   2.199 -2.2596  4.8679 -1.6716
  913MOL0     H23221  11.780   6.882   2.143 -2.4889 -1.6433 -1.4682
  913MOL0     H23222  11.661   6.914   2.023 -1.5505 -0.4201  1.8621
  913MOL0     H23223  11.831   7.009   1.860  2.3778  0.9018 -0.9227
  913MOL0     H23224  11.955   7.000   1.987 -0.2412 -0.1273 -1.4906
  913MOL0     H23225  11.945   6.764   2.005 -2.4660  1.3228  2.6113
  913MOL0     H23226  11.973   6.804   1.837  1.4109  4.5117  0.6706
  913MOL0     H23227  11.728   6.785   1.787  0.9286  1.8316  0.2860
  913MOL0     H23228  11.709   6.709   1.949  2.1678 -0.9787  0.6904
  913MOL0     H23229  11.923   6.593   1.773  0.1229 -4.0896  0.0349
  913MOL0     H23230  11.840   6.520   1.909  2.6592 -0.1191 -0.2117
  913MOL0     H23231  11.702   6.571   1.645  0.5122  1.8747  0.8893
  913MOL0     H23232  11.652   6.488   1.795  2.3627  3.0786  2.9737
  913MOL0     H23233  11.766   6.334   1.614 -0.0668  1.4082  0.5857
  913MOL0     H23234  11.912   6.423   1.661  0.8338 -0.2447  1.7088
  913MOL0     H23235  11.452   7.248   1.916  2.1027 -2.7414  0.8895
  913MOL0     H23236  11.311   7.452   1.969 -0.9749  1.4201  1.1592
  913MOL0     H23237  11.215   7.880   1.846 -3.5213  1.3054 -0.9854
  913MOL0     H23238  11.022   7.992   1.891 -1.8087 -1.2251 -0.0832
  913MOL0     H23239  10.048   6.900   2.364 -0.9836  0.0039  0.2992
  913MOL0     H23240   9.877   6.781   2.498  0.6736  2.2935 -3.7604
  913MOL0     H23241   9.747   6.499   2.748  1.5647  0.7636 -0.2950
  913MOL0     H23242   9.592   6.378   2.899 -0.0075  1.0611 -0.2836
  913MOL0     H23243   9.517   6.322   3.321  0.2487 -2.9524  0.2875
  913MOL0     H23244   9.674   6.417   3.319  2.1726 -1.3927 -0.1066
  913MOL0     H23245   9.793   6.224   3.222 -0.2850 -1.5146 -0.7449
  913MOL0     H23246   9.629   6.134   3.238 -1.1262 -0.2841  1.9886
  913MOL0     H23247   9.684   6.054   3.429 -0.9570  0.1440 -0.2185
  913MOL0     H23248   9.668   6.210   3.495  1.5750  0.1950  0.0815
  913MOL0     H23249   9.868   6.141   3.581  0.0590  1.1635  0.2119
  913MOL0     H23250   9.928   6.063   3.433  3.0423  0.6130  1.1961
  913MOL0     H23251  10.068   6.437   3.343  0.5909  2.7008  2.9813
  913MOL0     H23252   9.831   6.534   3.226 -0.4954  1.6788 -0.8419
  913MOL0     H23253   9.960   6.789   3.063 -0.7869 -0.4858 -0.9248
  913MOL0     H23254   9.988   6.678   3.201 -1.5679  1.5523  0.3936
  913MOL0     H23255  10.084   6.669   3.045 -0.5948  0.0616 -2.0645
  914MOL0     O23256   6.379   8.810   2.050 -0.4996  0.4707 -0.1484
  914MOL0     C23257   6.404   8.759   2.162 -0.6526  0.4784 -0.0907
  914MOL0     O23258   6.430   8.833   2.279 -0.0642  0.4868  0.3989
  914MOL0     C23259   6.392   8.962   2.277  0.8894 -0.4602 -0.9554
  914MOL0     C23260   6.256   8.985   2.294 -0.8698 -0.8144  0.6769
  914MOL0     C23261   6.211   9.116   2.309  0.2173 -0.3115 -1.1525
  914MOL0     C23262   6.290   9.232   2.297 -0.5415 -1.0813  0.1048
  914MOL0     O23263   6.236   9.362   2.315 -0.4787  0.1607 -0.7440
  914MOL0     C23264   6.096   9.371   2.339 -0.5615  0.0403  0.0782
  914MOL0     C23265   6.058   9.514   2.383  0.2263 -0.0989  0.4461
  914MOL0     C23266   6.044   9.608   2.247 -0.3498 -0.6152  0.2822
  914MOL0     C23267   5.966   9.738   2.272 -0.8643 -0.6125 -0.4874
  914MOL0     C23268   5.812   9.735   2.291 -0.9542 -0.1763  0.3356
  914MOL0     C23269   5.768   9.864   2.351 -0.5009 -0.2965 -0.0052
  914MOL0     C23270   5.610   9.857   2.384 -0.8048  0.8370  0.5315
  914MOL0     C23271   5.576   9.970   2.476 -1.1475 -0.5916  1.2622
  914MOL0     N23272   5.444   9.958   2.540 -0.0352  0.1198  0.8552
  914MOL0     C23273   5.333  10.038   2.526  0.2231 -0.2317  0.2902
  914MOL0     C23274   5.226   9.971   2.585 -1.5292 -0.6937  0.0774
  914MOL0     C23275   5.083  10.021   2.613  0.0763  0.1848  0.2111
  914MOL0     C23276   4.978   9.909   2.653  0.0718 -0.2635 -0.2232
  914MOL0     C23277   4.942   9.822   2.530  0.0899  0.2473 -0.2137
  914MOL0     C23278   4.818   9.734   2.545 -0.4753 -0.0129  0.1854
  914MOL0     O23279   4.697   9.814   2.536  0.0970  0.2647 -0.0890
  914MOL0     C23280   4.580   9.781   2.593  0.2282 -0.5103 -0.8672
  914MOL0     C23281   4.539   9.651   2.626 -0.2040  1.1003 -0.7395
  914MOL0     C23282   4.414   9.629   2.691 -1.0860  0.4077  0.7342
  914MOL0     C23283   4.328   9.739   2.725  0.2924  0.5130  0.8238
  914MOL0     C23284   4.196   9.730   2.794  0.3686 -0.4985  0.1058
  914MOL0     O23285   4.149   9.601   2.780  0.2398 -0.0900 -0.7110
  914MOL0     C23286   4.021   9.582   2.802  0.3031 -0.5310  0.2615
  914MOL0     C23287   3.912   9.656   2.754  0.3933  0.1139  0.2411
  914MOL0     C23288   3.782   9.636   2.803  0.2836 -0.0260 -0.3563
  914MOL0     C23289   3.756   9.536   2.905 -0.1969 -0.3950  0.8939
  914MOL0     O23290   3.631   9.513   2.969  0.1522 -0.1693  0.0167
  914MOL0     C23291   3.574   9.380   2.944 -0.2506  0.4259  0.1134
  914MOL0     C23292   3.475   9.330   3.050  0.1909  0.8062  0.4474
  914MOL0     C23293   3.435   9.188   3.013 -0.6109 -0.1296  0.3449
  914MOL0     C23294   3.325   9.131   3.107 -0.0836  0.4082  1.1095
  914MOL0     C23295   3.277   8.989   3.071 -0.9321 -0.3706 -0.1771
  914MOL0     C23296   3.163   8.994   2.967  0.9676  0.6286 -0.1378
  914MOL0     C23297   3.138   8.845   2.932  0.4398  0.3317  1.6295
  914MOL0     C23298   3.034   8.828   2.811  0.4339  0.2052 -0.5810
  914MOL0    Cl23299   3.098   8.896   2.671  0.3901 -0.5024  0.1941
  914MOL0     C23300   3.861   9.452   2.952  0.2009  0.5037  0.2962
  914MOL0     C23301   3.996   9.482   2.895 -0.1791  0.7917 -0.1943
  914MOL0     O23302   4.132   9.823   2.841 -0.5189 -0.2280  0.1285
  914MOL0     C23303   4.373   9.866   2.689  0.4715 -0.5146  1.7519
  914MOL0     C23304   4.492   9.885   2.615 -1.3399 -0.8282  0.8037
  914MOL0     N23305   5.287   9.860   2.645 -0.5106 -0.2306 -0.2667
  914MOL0     N23306   5.414   9.850   2.619 -0.6735 -0.2614  0.0114
  914MOL0     C23307   6.428   9.206   2.294  0.2185 -0.6254 -0.2915
  914MOL0     C23308   6.480   9.071   2.288  0.2165 -0.7463 -1.4362
  914MOL0     C23309   6.407   8.613   2.172  0.9475  0.1091 -0.1717
  914MOL0     C23310   6.427   8.563   2.300  0.2540  0.4337  0.3993
  914MOL0     C23311   6.413   8.429   2.330  0.9968  0.7204 -0.0251
  914MOL0     C23312   6.396   8.331   2.235  0.9284 -0.0327 -0.3285
  914MOL0     O23313   6.361   8.200   2.266 -0.1967  0.7406 -0.1585
  914MOL0     C23314   6.216   8.180   2.271  0.4655 -0.6612  0.0914
  914MOL0     C23315   6.198   8.023   2.239  0.2318  0.1793  0.2809
  914MOL0     C23316   6.272   7.941   2.339 -0.1611  0.4785 -0.8599
  914MOL0     C23317   6.216   7.801   2.362  0.2398 -0.0549  0.0645
  914MOL0     C23318   6.077   7.790   2.418 -0.6989 -0.2160 -0.0395
  914MOL0     C23319   5.966   7.788   2.465 -0.2919  0.6980 -0.4387
  914MOL0     C23320   6.388   8.373   2.102  0.8023 -0.7032  1.0614
  914MOL0     C23321   6.405   8.512   2.066  0.3094  0.7585 -0.2392
  914MOL0     C23322   6.391   8.549   1.919 -0.5716 -0.1358 -0.6303
  914MOL0     H23323   6.188   8.902   2.305 -1.8751 -0.2341 -0.7585
  914MOL0     H23324   6.106   9.110   2.335  0.9972  0.0388  2.7065
  914MOL0     H23325   6.047   9.334   2.249  0.9151  0.4833 -0.9410
  914MOL0     H23326   6.079   9.300   2.421  0.4768 -1.1065 -0.6621
  914MOL0     H23327   6.136   9.556   2.448  2.9037 -2.6249 -0.8771
  914MOL0     H23328   5.963   9.517   2.437 -1.2143  0.7098 -1.9756
  914MOL0     H23329   5.996   9.566   2.157  2.2010 -1.9654 -0.5572
  914MOL0     H23330   6.146   9.632   2.214 -0.4261 -0.6322  0.0303
  914MOL0     H23331   5.996   9.783   2.367 -0.6461  1.0099 -1.2793
  914MOL0     H23332   6.004   9.802   2.191  1.7806 -1.0880  0.2787
  914MOL0     H23333   5.758   9.715   2.198  0.4350 -3.8079  0.1725
  914MOL0     H23334   5.774   9.662   2.363 -1.3328  1.3541  1.7628
  914MOL0     H23335   5.829   9.882   2.439 -0.1334  1.3547 -0.5694
  914MOL0     H23336   5.784   9.950   2.286 -0.2034 -2.2424 -2.6678
  914MOL0     H23337   5.590   9.763   2.436  0.6661  0.7885  1.0576
  914MOL0     H23338   5.544   9.864   2.298  0.0030 -2.6768 -0.5229
  914MOL0     H23339   5.654   9.970   2.552  1.5323  2.3680 -1.2282
  914MOL0     H23340   5.600  10.063   2.424  0.3515  0.0248  2.9650
  914MOL0     H23341   5.320  10.134   2.475  0.6402 -0.9637 -1.2565
  914MOL0     H23342   5.098  10.095   2.692  0.0699  1.9684 -1.3881
  914MOL0     H23343   5.046  10.077   2.526 -0.3184  0.6509  0.6735
  914MOL0     H23344   5.022   9.845   2.729  0.7691 -0.4273 -0.7539
  914MOL0     H23345   4.890   9.961   2.691 -0.0284  0.4707 -1.3839
  914MOL0     H23346   5.024   9.754   2.502  0.3376 -0.6943  2.4568
  914MOL0     H23347   4.926   9.890   2.446  1.0609  1.2680  0.4072
  914MOL0     H23348   4.813   9.697   2.647 -5.4559  1.3942  0.7332
  914MOL0     H23349   4.827   9.656   2.469 -0.0156  1.4742 -1.3660
  914MOL0     H23350   4.595   9.565   2.590 -0.2751  1.4799 -1.7999
  914MOL0     H23351   4.399   9.523   2.706 -0.0869  0.2329  0.5808
  914MOL0     H23352   3.931   9.745   2.694  0.3539 -0.1367 -0.1516
  914MOL0     H23353   3.703   9.692   2.754  0.7317 -0.2930 -1.4261
  914MOL0     H23354   3.535   9.377   2.841  1.5229 -3.4881 -0.6088
  914MOL0     H23355   3.659   9.312   2.940  0.4659  1.3409 -0.8075
  914MOL0     H23356   3.500   9.337   3.157 -1.9669 -2.1117  1.2531
  914MOL0     H23357   3.383   9.389   3.042 -0.1263  0.1206 -1.4550
  914MOL0     H23358   3.381   9.195   2.918 -1.6342 -1.4031  0.8039
  914MOL0     H23359   3.524   9.126   3.003  0.2306  1.1222 -0.2646
  914MOL0     H23360   3.242   9.202   3.109 -2.6466 -2.3125 -0.5460
  914MOL0     H23361   3.361   9.120   3.210  0.5214  0.3214  0.8934
  914MOL0     H23362   3.245   8.941   3.164  0.6619  0.4377  0.8377
  914MOL0     H23363   3.360   8.925   3.040  0.3404  1.3530 -0.5350
  914MOL0     H23364   3.078   9.032   3.024  1.6912 -1.1466  2.3110
  914MOL0     H23365   3.180   9.046   2.873  0.4185  0.9279 -0.0741
  914MOL0     H23366   3.101   8.789   3.018 -0.9451  0.9638  1.4842
  914MOL0     H23367   3.231   8.797   2.903 -1.2671 -1.7107 -0.9717
  914MOL0     H23368   3.002   8.725   2.793  1.0077  0.0221 -0.5547
  914MOL0     H23369   2.944   8.883   2.841  1.2354  1.7412 -0.9070
  914MOL0     H23370   3.850   9.377   3.030  0.7325 -0.8794 -0.9186
  914MOL0     H23371   4.081   9.432   2.942 -1.0485  0.0785  0.6651
  914MOL0     H23372   4.313   9.951   2.721  1.2469  1.7199 -2.1205
  914MOL0     H23373   4.517   9.984   2.579 -1.3047 -0.5648  1.5383
  914MOL0     H23374   6.494   9.292   2.296 -2.1529  1.2636  1.2500
  914MOL0     H23375   6.587   9.054   2.286  0.5734  0.6773  1.0225
  914MOL0     H23376   6.442   8.626   2.387  4.5082 -2.1288  1.8263
  914MOL0     H23377   6.407   8.403   2.435 -1.1086  1.2694  0.0288
  914MOL0     H23378   6.166   8.234   2.191  2.6715 -0.8541 -1.5058
  914MOL0     H23379   6.172   8.210   2.367 -3.0701 -1.5010 -1.1198
  914MOL0     H23380   6.231   8.009   2.135 -3.9020  0.6009 -1.2630
  914MOL0     H23381   6.089   8.014   2.247  0.2352  1.7072  2.7492
  914MOL0     H23382   6.260   7.995   2.433  0.7823  1.0146 -1.0400
  914MOL0     H23383   6.378   7.931   2.317 -0.1972  1.2670 -1.3983
  914MOL0     H23384   6.221   7.733   2.277 -2.9264 -0.8313  0.3758
  914MOL0     H23385   6.277   7.759   2.442 -2.2645 -3.2002  0.5289
  914MOL0     H23386   5.869   7.781   2.510  0.6385 -3.0787  1.4036
  914MOL0     H23387   6.363   8.300   2.025 -0.6627 -0.7163  1.5220
  914MOL0     H23388   6.289   8.588   1.913 -0.7709 -0.4492  0.5122
  914MOL0     H23389   6.460   8.633   1.904  1.0587 -0.2635  4.3042
  914MOL0     H23390   6.428   8.462   1.865  2.1394 -1.3269  2.7836
  915MOL0     O23391   7.796   8.485   3.381  0.4205 -0.3122 -0.6272
  915MOL0     C23392   7.722   8.557   3.320 -0.4084  0.1683  0.1546
  915MOL0     O23393   7.762   8.629   3.211  0.4075  0.1339  0.2051
  915MOL0     C23394   7.884   8.602   3.151  0.0846 -0.5525 -0.2333
  915MOL0     C23395   7.892   8.535   3.033  0.1641  0.3088 -0.0128
  915MOL0     C23396   8.020   8.504   2.980  0.1863  0.6053 -0.2296
  915MOL0     C23397   8.134   8.526   3.055 -1.2191 -0.4069 -0.3331
  915MOL0     O23398   8.247   8.480   3.019 -0.0375  0.0976 -0.7922
  915MOL0     C23399   8.369   8.561   3.019  0.1325  0.1050 -0.2615
  915MOL0     C23400   8.482   8.458   2.981  0.0128 -0.1596 -0.4525
  915MOL0     C23401   8.465   8.399   2.848  0.0755 -0.1887  0.4488
  915MOL0     C23402   8.583   8.321   2.803 -0.2159 -0.0465 -0.3498
  915MOL0     C23403   8.543   8.246   2.685  0.6775 -1.2442 -0.1056
  915MOL0     C23404   8.661   8.182   2.620 -0.8799 -0.1924  0.9696
  915MOL0     C23405   8.761   8.088   2.700  0.3106 -0.1867 -0.1410
  915MOL0     C23406   8.856   7.995   2.619 -0.1086 -0.4746 -0.3303
  915MOL0     N23407   8.791   7.890   2.533 -0.3321 -0.5067  0.1431
  915MOL0     C23408   8.693   7.800   2.574 -0.2449  0.5192  0.4441
  915MOL0     C23409   8.677   7.718   2.464  0.6490 -0.0448 -0.2264
  915MOL0     C23410   8.569   7.627   2.445 -0.1083  0.2693  0.2763
  915MOL0     C23411   8.427   7.688   2.448  1.2127 -0.5029  0.0437
  915MOL0     C23412   8.314   7.587   2.420  0.1452  0.2472 -0.1851
  915MOL0     C23413   8.310   7.558   2.268  1.1210  0.4228 -0.5304
  915MOL0     O23414   8.264   7.669   2.194  0.9729  0.7100 -0.0709
  915MOL0     C23415   8.139   7.717   2.227 -0.5286  1.3560  0.1458
  915MOL0     C23416   8.030   7.637   2.253 -0.4437  0.3915 -0.6003
  915MOL0     C23417   7.909   7.682   2.305  0.3156  0.0940 -0.0573
  915MOL0     C23418   7.892   7.824   2.316 -0.4767 -0.6273 -0.4638
  915MOL0     C23419   7.773   7.888   2.368  0.8450  0.8722  1.1447
  915MOL0     O23420   7.676   7.811   2.424 -0.3232 -0.4577 -0.0103
  915MOL0     C23421   7.586   7.878   2.502  0.2936 -0.1225 -0.7688
  915MOL0     C23422   7.452   7.891   2.461 -0.4395 -0.3854  0.0816
  915MOL0     C23423   7.356   7.929   2.552 -0.3498  0.5149 -0.2005
  915MOL0     C23424   7.391   7.964   2.686  0.6898 -0.1727  0.0302
  915MOL0     O23425   7.311   7.977   2.801  0.6879 -0.6201  0.1476
  915MOL0     C23426   7.177   7.931   2.782 -0.1684  0.9007  0.6547
  915MOL0     C23427   7.124   7.906   2.920  0.9325 -0.2982 -0.7973
  915MOL0     C23428   6.980   7.835   2.910  0.6386 -0.3961  0.4152
  915MOL0     C23429   6.952   7.762   3.037 -0.2168 -0.0252 -0.1111
  915MOL0     C23430   6.798   7.735   3.049 -0.0931 -0.4102 -0.1748
  915MOL0     C23431   6.716   7.850   3.098 -0.7957 -0.8287 -0.1308
  915MOL0     C23432   6.585   7.808   3.156 -0.9834 -0.3860  0.0880
  915MOL0     C23433   6.463   7.819   3.059 -0.7458  0.4975 -0.3283
  915MOL0    Cl23434   6.321   7.754   3.150  0.1277 -0.0512 -0.7162
  915MOL0     C23435   7.532   7.966   2.723  0.3952 -0.5612  0.1245
  915MOL0     C23436   7.622   7.926   2.630  0.4087  0.7539  0.6602
  915MOL0     O23437   7.757   8.010   2.347 -0.0268  0.3722  0.6675
  915MOL0     C23438   7.999   7.902   2.283  0.7610  0.2836 -0.7133
  915MOL0     C23439   8.113   7.853   2.239 -0.5768 -0.5426 -0.7986
  915MOL0     N23440   8.763   7.776   2.361  0.3218  0.2022 -0.0952
  915MOL0     N23441   8.823   7.876   2.408 -0.0113 -0.4917  0.2991
  915MOL0     C23442   8.123   8.611   3.165 -0.0046 -0.3859 -0.1670
  915MOL0     C23443   8.002   8.651   3.215 -0.2773 -0.3805 -0.3636
  915MOL0     C23444   7.581   8.552   3.356  0.3597  0.0594 -0.0289
  915MOL0     C23445   7.486   8.564   3.251 -1.4134 -0.0074  0.5474
  915MOL0     C23446   7.351   8.557   3.268  0.0560 -0.3000 -0.3778
  915MOL0     C23447   7.297   8.522   3.392 -0.3746  0.9698  0.3173
  915MOL0     O23448   7.159   8.494   3.384  1.0269 -0.0655 -0.2704
  915MOL0     C23449   7.073   8.576   3.466 -0.7655 -0.6790  0.1397
  915MOL0     C23450   6.943   8.634   3.416 -0.2666  0.4370  1.2111
  915MOL0     C23451   6.975   8.696   3.277  0.3373  0.8442 -0.1226
  915MOL0     C23452   6.850   8.768   3.219 -1.1749 -0.3326 -0.1577
  915MOL0     C23453   6.873   8.817   3.093  1.1047 -0.0811  0.4099
  915MOL0     C23454   6.913   8.826   2.980  0.3013  0.9656 -0.2310
  915MOL0     C23455   7.381   8.496   3.492  0.5924 -1.1400  0.1721
  915MOL0     C23456   7.518   8.528   3.480 -0.0165 -0.3279 -0.5219
  915MOL0     C23457   7.594   8.513   3.613  0.1494 -0.4501  1.1590
  915MOL0     H23458   7.801   8.496   2.988 -0.3404 -0.0348  1.2737
  915MOL0     H23459   8.019   8.457   2.882 -3.5400 -0.5220  0.1530
  915MOL0     H23460   8.353   8.639   2.944  0.0325  0.5807  0.2512
  915MOL0     H23461   8.399   8.610   3.112 -0.6351 -0.8562  0.5224
  915MOL0     H23462   8.495   8.385   3.063  1.9284  1.0189  0.3601
  915MOL0     H23463   8.577   8.512   2.978 -0.5875  0.9278 -0.3102
  915MOL0     H23464   8.456   8.480   2.775 -0.5934  1.0981  1.9104
  915MOL0     H23465   8.376   8.337   2.835  1.7595 -2.4935 -0.8804
  915MOL0     H23466   8.664   8.382   2.763  0.2258 -1.3920 -1.5832
  915MOL0     H23467   8.640   8.266   2.878 -2.1149 -1.8259 -0.1176
  915MOL0     H23468   8.476   8.173   2.731  2.9595 -2.3499  1.6897
  915MOL0     H23469   8.496   8.316   2.616  0.9080  3.3405  3.8572
  915MOL0     H23470   8.627   8.120   2.537  0.1301  1.2122 -0.5638
  915MOL0     H23471   8.715   8.265   2.573 -1.8706  0.7784  1.4834
  915MOL0     H23472   8.714   8.020   2.772 -0.5179 -2.0680 -2.3417
  915MOL0     H23473   8.817   8.162   2.759 -1.7037  1.1106  0.2425
  915MOL0     H23474   8.913   8.065   2.556  0.5851 -0.3788  0.3955
  915MOL0     H23475   8.926   7.941   2.682  0.1788  0.0517 -0.1863
  915MOL0     H23476   8.640   7.796   2.669  0.4595  2.4869  0.9687
  915MOL0     H23477   8.596   7.561   2.362 -0.3243 -0.6130  0.8954
  915MOL0     H23478   8.561   7.560   2.530 -3.6246  0.1288 -0.0119
  915MOL0     H23479   8.404   7.729   2.547  0.3531  0.2929 -0.4657
  915MOL0     H23480   8.412   7.773   2.380  0.9012 -0.1407  0.5609
  915MOL0     H23481   8.216   7.623   2.453 -0.4042 -3.3275  2.7250
  915MOL0     H23482   8.314   7.495   2.478 -0.8004  0.9991  1.0691
  915MOL0     H23483   8.244   7.475   2.241  0.2104 -0.2003  3.1480
  915MOL0     H23484   8.414   7.536   2.242  1.2153  0.2832 -0.0464
  915MOL0     H23485   8.029   7.538   2.209 -0.3869  0.8038 -1.5463
  915MOL0     H23486   7.832   7.608   2.326  0.9637 -1.3002 -2.2197
  915MOL0     H23487   7.425   7.849   2.365 -0.9178 -2.2814  0.9936
  915MOL0     H23488   7.249   7.938   2.536 -0.6480 -1.5615  0.3374
  915MOL0     H23489   7.117   8.007   2.733  0.6399  0.3940 -1.2185
  915MOL0     H23490   7.175   7.839   2.722  1.1792  2.7071 -2.3825
  915MOL0     H23491   7.193   7.841   2.973  0.9952  1.0699  0.8754
  915MOL0     H23492   7.124   7.985   2.996  1.3144 -1.3771  0.3535
  915MOL0     H23493   6.918   7.924   2.896  0.6242 -0.6413 -1.2527
  915MOL0     H23494   6.970   7.774   2.820  1.2503 -0.9950  0.7417
  915MOL0     H23495   6.996   7.813   3.123  1.5131 -0.0975 -0.9036
  915MOL0     H23496   7.005   7.667   3.026  0.5763  0.4658 -0.7002
  915MOL0     H23497   6.786   7.650   3.118  3.1504 -0.7330  0.1188
  915MOL0     H23498   6.762   7.704   2.951  5.7404  2.8634 -3.9086
  915MOL0     H23499   6.774   7.901   3.175 -0.9528 -0.4661 -0.2517
  915MOL0     H23500   6.699   7.925   3.020  1.0059 -0.4379 -0.1755
  915MOL0     H23501   6.561   7.861   3.248 -0.0605 -0.9605  0.6708
  915MOL0     H23502   6.591   7.703   3.185  0.5200 -0.5673 -0.7786
  915MOL0     H23503   6.456   7.918   3.013 -0.1401 -0.5035 -2.7786
  915MOL0     H23504   6.484   7.749   2.977  1.3440  1.1347 -0.3990
  915MOL0     H23505   7.571   8.008   2.816 -0.6773  2.5944 -0.7173
  915MOL0     H23506   7.725   7.910   2.660  1.4134 -0.0218 -2.7203
  915MOL0     H23507   7.995   8.010   2.283  3.7520  0.5308  2.3288
  915MOL0     H23508   8.196   7.924   2.238  2.1564 -3.3158  2.7133
  915MOL0     H23509   8.217   8.639   3.211  0.5100  2.0212 -2.4543
  915MOL0     H23510   7.987   8.701   3.310  1.7025  1.4239 -0.9312
  915MOL0     H23511   7.517   8.601   3.154  1.6918 -0.2369  1.3517
  915MOL0     H23512   7.278   8.588   3.194 -0.8842 -2.1317 -0.2618
  915MOL0     H23513   7.131   8.662   3.502 -0.4709  0.6839 -3.2916
  915MOL0     H23514   7.055   8.525   3.561 -2.1683 -0.0045  0.2489
  915MOL0     H23515   6.901   8.720   3.470  0.2612  1.4718  0.0426
  915MOL0     H23516   6.875   8.549   3.407 -0.6324  0.6037  2.1901
  915MOL0     H23517   7.008   8.618   3.207 -0.2532  0.8418 -0.4074
  915MOL0     H23518   7.048   8.777   3.275 -0.7733  1.8873 -2.3697
  915MOL0     H23519   6.764   8.700   3.215 -0.2098 -1.7305  1.4859
  915MOL0     H23520   6.838   8.853   3.287 -0.4495  0.7788 -1.3883
  915MOL0     H23521   6.940   8.828   2.877 -0.7423 -0.9127 -0.5956
  915MOL0     H23522   7.345   8.469   3.591  1.0295  0.8282  0.9188
  915MOL0     H23523   7.637   8.606   3.651 -1.1267  2.3528 -3.5273
  915MOL0     H23524   7.536   8.473   3.697  0.4685  0.9973  2.0934
  915MOL0     H23525   7.670   8.436   3.596 -0.6065 -0.5999 -2.0264
  916MOL0     O23526   8.489   7.011   3.764  0.5997  0.4171 -0.0431
  916MOL0     C23527   8.372   6.973   3.749  0.3513  0.9172 -0.6309
  916MOL0     O23528   8.294   6.925   3.855 -0.5741 -0.2369 -0.7881
  916MOL0     C23529   8.345   6.917   3.984 -0.3985  0.5557  0.1693
  916MOL0     C23530   8.478   6.891   4.016  0.2838 -0.5994  1.4290
  916MOL0     C23531   8.528   6.870   4.141  0.1763  0.5844  0.3427
  916MOL0     C23532   8.432   6.851   4.241 -0.2114 -0.5784 -0.4057
  916MOL0     O23533   8.467   6.820   4.365 -0.0843 -0.6072 -0.0164
  916MOL0     C23534   8.499   6.682   4.382 -0.6957 -0.0821  0.6468
  916MOL0     C23535   8.602   6.686   4.505  0.0372 -0.6323 -0.3444
  916MOL0     C23536   8.651   6.561   4.538 -0.6957  0.9266  0.8978
  916MOL0     C23537   8.754   6.591   4.656  0.6297  0.5726  0.5009
  916MOL0     C23538   8.830   6.463   4.698  0.4083  0.0954 -0.2311
  916MOL0     C23539   8.922   6.500   4.814 -0.4286  0.3373 -0.6037
  916MOL0     C23540   9.048   6.577   4.765  1.6466  0.5621 -0.0129
  916MOL0     C23541   9.124   6.608   4.890 -0.4882  0.3035  0.2645
  916MOL0     N23542   9.054   6.715   4.964 -0.2803  0.4942 -0.1870
  916MOL0     C23543   9.074   6.841   4.921 -1.1747 -0.1279  0.2077
  916MOL0     C23544   9.036   6.924   5.027 -0.0916 -0.2878  0.2156
  916MOL0     C23545   9.031   7.073   5.052  0.5066 -0.6038  0.2905
  916MOL0     C23546   9.169   7.128   5.009  0.7251  0.2851  0.0777
  916MOL0     C23547   9.202   7.270   5.063 -0.2209  0.3424  0.1802
  916MOL0     C23548   9.193   7.289   5.216  0.6410 -1.3824  0.4124
  916MOL0     O23549   9.310   7.216   5.259  0.5894 -0.2563  0.3511
  916MOL0     C23550   9.327   7.215   5.395 -0.4635  0.0106  0.9327
  916MOL0     C23551   9.442   7.160   5.427  0.4288  1.0082 -0.1911
  916MOL0     C23552   9.490   7.157   5.557  0.3447 -0.0025  0.2970
  916MOL0     C23553   9.419   7.226   5.659  0.4558  0.9063  0.3414
  916MOL0     C23554   9.471   7.231   5.800 -0.4336 -0.5688 -0.8016
  916MOL0     O23555   9.606   7.204   5.826  0.7829 -0.1935 -0.4838
  916MOL0     C23556   9.645   7.163   5.947  0.7653  0.4999  0.1564
  916MOL0     C23557   9.769   7.198   5.986 -0.3069 -0.0621 -0.6741
  916MOL0     C23558   9.833   7.164   6.105 -0.3615  0.1898 -1.4886
  916MOL0     C23559   9.763   7.081   6.200  1.0683  0.8504  0.4045
  916MOL0     O23560   9.815   7.040   6.318 -0.4154  0.2242 -0.3590
  916MOL0     C23561   9.783   7.134   6.418  0.0678 -0.6245  0.1849
  916MOL0     C23562   9.832   7.086   6.564 -0.4374 -0.6267 -0.7098
  916MOL0     C23563   9.966   7.137   6.606  0.8759  0.2883  0.4023
  916MOL0     C23564   9.956   7.281   6.660  0.2814 -0.2077 -0.2694
  916MOL0     C23565  10.083   7.336   6.718 -0.0088  0.2484  0.2652
  916MOL0     C23566  10.090   7.484   6.689 -0.7430 -0.8589 -0.8141
  916MOL0     C23567  10.216   7.557   6.747 -0.2469  0.0817 -0.0904
  916MOL0     C23568  10.343   7.512   6.668  0.3759 -1.1511 -0.7566
  916MOL0    Cl23569  10.321   7.495   6.485  0.1251  0.2953 -0.0338
  916MOL0     C23570   9.631   7.037   6.165  0.1510  0.1317  0.1511
  916MOL0     C23571   9.577   7.074   6.038 -0.5896 -0.4574  0.1944
  916MOL0     O23572   9.385   7.236   5.890 -0.1884  0.5617 -0.1275
  916MOL0     C23573   9.290   7.276   5.630  0.8485  0.2637  0.2922
  916MOL0     C23574   9.248   7.278   5.496  0.4246 -0.5577  0.3298
  916MOL0     N23575   9.007   6.835   5.123  0.8615 -0.8080 -0.3665
  916MOL0     N23576   9.030   6.711   5.095 -0.5111 -0.0216  0.1985
  916MOL0     C23577   8.295   6.891   4.222  0.0246  0.2915 -0.7863
  916MOL0     C23578   8.254   6.922   4.088 -0.3898  0.0844 -0.1214
  916MOL0     C23579   8.301   7.018   3.628  0.6583 -0.4856  0.5481
  916MOL0     C23580   8.157   7.027   3.642  0.0649  1.2971  0.2508
  916MOL0     C23581   8.080   7.055   3.527  0.5003 -0.1940  0.5451
  916MOL0     C23582   8.137   7.072   3.404 -1.1046 -0.6148  0.3923
  916MOL0     O23583   8.069   7.088   3.287  0.5030 -0.7192  0.7417
  916MOL0     C23584   7.921   7.082   3.291 -0.3002  0.7147 -0.4016
  916MOL0     C23585   7.848   7.213   3.350  0.1587  0.3232  0.0766
  916MOL0     C23586   7.882   7.334   3.272 -0.2419  0.5167 -0.8302
  916MOL0     C23587   7.868   7.317   3.116 -0.3604  0.2349 -0.2864
  916MOL0     C23588   7.739   7.283   3.062  0.0788  0.0273 -0.0300
  916MOL0     C23589   7.633   7.272   3.005  0.3447  0.0429 -0.1312
  916MOL0     C23590   8.277   7.069   3.397 -0.5600 -0.1497 -0.2202
  916MOL0     C23591   8.357   7.045   3.502 -1.3750  0.4622 -0.3752
  916MOL0     C23592   8.499   7.006   3.482 -0.3429 -0.0704 -0.0520
  916MOL0     H23593   8.558   6.883   3.944  0.5859 -0.5308  1.7507
  916MOL0     H23594   8.634   6.871   4.164  0.1351  0.1497  0.5456
  916MOL0     H23595   8.401   6.639   4.403 -1.6020  1.4743 -0.1978
  916MOL0     H23596   8.543   6.636   4.293 -0.3460  2.5624 -0.6435
  916MOL0     H23597   8.552   6.738   4.588 -2.6209 -0.3466 -1.9937
  916MOL0     H23598   8.689   6.741   4.468  1.2840 -2.7703 -0.7547
  916MOL0     H23599   8.698   6.512   4.452 -1.6050  0.4543  0.6543
  916MOL0     H23600   8.566   6.506   4.580 -2.2422  3.2603  1.0370
  916MOL0     H23601   8.821   6.666   4.615  1.4303 -0.8786 -0.9736
  916MOL0     H23602   8.704   6.641   4.739  0.2169  1.4203 -0.2361
  916MOL0     H23603   8.761   6.383   4.728  0.7753  0.1990  0.8969
  916MOL0     H23604   8.892   6.437   4.611  1.4434  2.3091 -0.2185
  916MOL0     H23605   8.865   6.561   4.884 -3.1710 -0.7026 -1.7867
  916MOL0     H23606   8.947   6.413   4.875  1.2821  0.4488 -1.0743
  916MOL0     H23607   9.025   6.661   4.698 -0.3001  0.7437  0.8206
  916MOL0     H23608   9.110   6.509   4.705  1.3427  0.3681 -0.1108
  916MOL0     H23609   9.128   6.513   4.942 -0.8531 -0.0290 -0.3034
  916MOL0     H23610   9.221   6.652   4.865 -1.1003  1.2325 -0.5657
  916MOL0     H23611   9.089   6.870   4.817 -1.5738  0.0510  0.1985
  916MOL0     H23612   8.953   7.119   4.992  0.4158 -1.6242 -0.3856
  916MOL0     H23613   9.014   7.089   5.159  0.1343 -0.9592  0.2833
  916MOL0     H23614   9.253   7.070   5.048  0.1309 -1.2959 -0.8714
  916MOL0     H23615   9.174   7.123   4.900 -2.6185 -0.1942 -0.1672
  916MOL0     H23616   9.144   7.340   5.003  1.4359 -0.8384 -3.0584
  916MOL0     H23617   9.302   7.297   5.027 -0.0922 -0.2917  0.0393
  916MOL0     H23618   9.103   7.250   5.266  0.0543 -0.6280 -0.0334
  916MOL0     H23619   9.194   7.398   5.225  0.5720 -1.3810  0.4126
  916MOL0     H23620   9.496   7.114   5.344 -1.2895 -0.8728 -0.3361
  916MOL0     H23621   9.589   7.114   5.568  0.4111  0.2115  0.5871
  916MOL0     H23622   9.832   7.246   5.912 -0.3672  2.3391  0.7034
  916MOL0     H23623   9.935   7.193   6.129 -0.9714  3.4491 -2.4627
  916MOL0     H23624   9.819   7.235   6.395 -2.3754  0.2857  0.0597
  916MOL0     H23625   9.674   7.136   6.410 -0.0302 -4.1806 -1.3579
  916MOL0     H23626   9.753   7.134   6.623  0.4611  0.7055 -0.5357
  916MOL0     H23627   9.817   6.979   6.576 -0.9326 -0.5543 -0.6591
  916MOL0     H23628   9.985   7.064   6.686  1.0956  0.1249  0.2011
  916MOL0     H23629  10.038   7.124   6.525  1.6658  2.2321  0.7286
  916MOL0     H23630   9.883   7.271   6.742  0.4269 -0.0721 -0.1217
  916MOL0     H23631   9.919   7.358   6.591  0.4701 -0.6916 -0.9065
  916MOL0     H23632  10.161   7.283   6.662  0.8779  1.5821  0.1800
  916MOL0     H23633  10.100   7.315   6.824  2.2742 -3.1711 -0.5839
  916MOL0     H23634  10.093   7.494   6.580 -0.0251  2.7034 -0.5872
  916MOL0     H23635   9.999   7.533   6.723 -1.1105 -0.5607 -2.1705
  916MOL0     H23636  10.232   7.539   6.854 -0.6679  1.4280  0.2249
  916MOL0     H23637  10.200   7.664   6.727  1.1004  1.1048  3.5218
  916MOL0     H23638  10.426   7.576   6.699 -1.5015 -0.1843  2.8864
  916MOL0     H23639  10.368   7.410   6.697  0.0844 -1.4309 -1.4856
  916MOL0     H23640   9.567   6.977   6.230 -0.6599 -1.0446 -1.6580
  916MOL0     H23641   9.481   7.035   6.007 -0.4251 -1.2618  0.6710
  916MOL0     H23642   9.223   7.307   5.709 -0.8532 -0.8305 -0.6539
  916MOL0     H23643   9.153   7.325   5.474 -0.2200 -1.6936  0.5568
  916MOL0     H23644   8.225   6.896   4.305 -0.1582  1.6518 -0.9879
  916MOL0     H23645   8.157   6.963   4.062  0.4809  1.4613 -1.3151
  916MOL0     H23646   8.102   7.020   3.736  2.6215  0.9105  1.8071
  916MOL0     H23647   7.974   7.072   3.540  0.5611  2.7814 -1.6940
  916MOL0     H23648   7.895   6.995   3.352 -0.7634  0.5507 -0.8301
  916MOL0     H23649   7.886   7.054   3.191  1.6452  3.2506 -1.9033
  916MOL0     H23650   7.862   7.222   3.458 -2.6268  1.7307  0.3921
  916MOL0     H23651   7.740   7.198   3.345 -0.0233  1.3526  0.6625
  916MOL0     H23652   7.990   7.341   3.289  0.7400 -4.2816 -3.4835
  916MOL0     H23653   7.827   7.416   3.319 -0.5604 -0.7634  1.1204
  916MOL0     H23654   7.897   7.414   3.074  0.3297  0.0917 -0.1528
  916MOL0     H23655   7.947   7.255   3.073  0.8595  2.6436 -1.7183
  916MOL0     H23656   7.541   7.253   2.953 -1.4310  2.4382  1.9159
  916MOL0     H23657   8.314   7.085   3.297 -3.0157 -0.7388 -1.2840
  916MOL0     H23658   8.559   7.085   3.527 -0.7825 -1.2924  2.9669
  916MOL0     H23659   8.531   6.911   3.527 -0.6566 -0.0290  0.2538
  916MOL0     H23660   8.514   6.992   3.374 -1.9044  1.6700 -0.5494
  917MOL0     O23661   1.033   0.694  10.633 -0.1866 -0.1029  0.9639
  917MOL0     C23662   1.061   0.707  10.512  0.2130 -0.4385 -0.1844
  917MOL0     O23663   1.176   0.734  10.461 -0.3483 -0.6352 -0.3269
  917MOL0     C23664   1.287   0.684  10.522  0.5680  0.6998  0.5837
  917MOL0     C23665   1.304   0.572  10.605  0.1411 -0.2743  0.3020
  917MOL0     C23666   1.421   0.551  10.679 -0.2163  0.1743  0.1541
  917MOL0     C23667   1.529   0.632  10.658 -1.1529  0.2512  0.2940
  917MOL0     O23668   1.640   0.616  10.733 -0.4856  0.6801 -0.9051
  917MOL0     C23669   1.612   0.607  10.877  0.0978  0.0628  0.4551
  917MOL0     C23670   1.654   0.734  10.944 -0.1279  0.1755 -0.9462
  917MOL0     C23671   1.808   0.745  10.941 -0.5504 -0.1613  0.1981
  917MOL0     C23672   1.892   0.624  10.991 -0.5031 -0.1384 -0.3112
  917MOL0     C23673   2.039   0.652  11.002  1.2699 -0.0815  0.6621
  917MOL0     C23674   2.097   0.659  10.857 -0.4278  0.4478 -0.3477
  917MOL0     C23675   2.253   0.654  10.872  0.1849  0.9293 -0.9653
  917MOL0     C23676   2.339   0.718  10.760 -0.6051 -0.7824  0.7298
  917MOL0     N23677   2.474   0.742  10.811  0.8138 -0.0723  0.3908
  917MOL0     C23678   2.534   0.859  10.803  0.7413  0.2952 -0.2131
  917MOL0     C23679   2.659   0.846  10.855  0.2861 -0.2904  0.3631
  917MOL0     C23680   2.770   0.940  10.858  0.1919  0.7182 -1.1777
  917MOL0     C23681   2.866   0.917  10.744 -0.0614 -1.2844 -0.0998
  917MOL0     C23682   2.809   0.955  10.596 -0.4370  0.1515 -0.3815
  917MOL0     C23683   2.896   0.882  10.492 -0.6875 -1.1529 -0.1294
  917MOL0     O23684   2.914   0.742  10.528 -0.2781 -0.2695 -0.7725
  917MOL0     C23685   2.808   0.655  10.526 -0.3454  0.3210  0.9706
  917MOL0     C23686   2.690   0.685  10.455  0.9670  0.2811  0.1953
  917MOL0     C23687   2.582   0.596  10.475  0.6225 -0.3271 -0.0186
  917MOL0     C23688   2.590   0.473  10.551  0.8246  1.2861  0.0379
  917MOL0     C23689   2.475   0.382  10.570  0.1822  0.2255  1.2070
  917MOL0     O23690   2.479   0.292  10.673  0.5702 -0.7033 -0.2438
  917MOL0     C23691   2.371   0.212  10.673  0.0361  0.1940 -0.4936
  917MOL0     C23692   2.364   0.095  10.596  0.7886 -0.5083  0.0492
  917MOL0     C23693   2.247   0.016  10.620 -1.0730  0.7248 -0.1549
  917MOL0     C23694   2.148   0.049  10.705 -0.0962  0.5975 -0.4498
  917MOL0     O23695   2.048  -0.042  10.704  0.2664 -0.6958 -0.3212
  917MOL0     C23696   1.935  -0.015  10.786 -0.1728  0.0894  0.4818
  917MOL0     C23697   1.827  -0.128  10.770 -0.9656  0.3041  0.8463
  917MOL0     C23698   1.858  -0.252  10.850 -0.3928  1.1682  0.1436
  917MOL0     C23699   1.773  -0.376  10.808  0.0164 -0.2834 -0.6840
  917MOL0     C23700   1.786  -0.489  10.918 -0.1125 -0.6230  0.1533
  917MOL0     C23701   1.770  -0.632  10.850 -0.3976  0.0029  0.4444
  917MOL0     C23702   1.783  -0.747  10.948  0.2598  0.4710 -1.1499
  917MOL0     C23703   1.929  -0.791  10.963 -0.2114 -0.1967  0.2857
  917MOL0    Cl23704   1.953  -0.947  11.044  0.2454  0.1473 -0.0138
  917MOL0     C23705   2.161   0.162  10.784  0.4970 -0.6688 -0.3952
  917MOL0     C23706   2.270   0.244  10.765 -0.7771  0.5945 -0.0150
  917MOL0     O23707   2.395   0.381  10.475  0.5524  0.0807 -0.7498
  917MOL0     C23708   2.712   0.442  10.618  0.3909 -0.2456 -0.6249
  917MOL0     C23709   2.823   0.531  10.595  0.8638 -0.8415 -0.2438
  917MOL0     N23710   2.666   0.713  10.885 -0.1467  0.2004 -0.0339
  917MOL0     N23711   2.549   0.656  10.867 -0.3995 -1.2460 -0.0006
  917MOL0     C23712   1.529   0.722  10.548 -0.1713 -0.1759 -0.3519
  917MOL0     C23713   1.399   0.763  10.501 -0.8997  0.5806  0.3179
  917MOL0     C23714   0.949   0.714  10.417  0.7265  0.1268  0.0614
  917MOL0     C23715   0.817   0.708  10.475 -0.8623 -0.6361  0.9284
  917MOL0     C23716   0.709   0.711  10.389 -0.2736  1.1331 -0.2098
  917MOL0     C23717   0.718   0.751  10.254  0.5696 -0.1228  0.1656
  917MOL0     O23718   0.609   0.777  10.178  0.7378 -0.9001  0.0522
  917MOL0     C23719   0.597   0.722  10.046 -0.0760 -0.4799  0.7416
  917MOL0     C23720   0.445   0.711  10.008 -0.4496 -1.2868 -0.8666
  917MOL0     C23721   0.389   0.854  10.006  0.4043  0.2781 -0.3600
  917MOL0     C23722   0.283   0.862   9.898 -0.5732  0.5501 -0.4152
  917MOL0     C23723   0.214   0.995   9.886 -0.3556  0.2456  1.3093
  917MOL0     C23724   0.155   1.101   9.859  1.0162 -0.2783  0.4402
  917MOL0     C23725   0.845   0.759  10.200 -0.7933  0.6955  0.1914
  917MOL0     C23726   0.964   0.756  10.278  0.3312  0.5940  0.7283
  917MOL0     C23727   1.091   0.782  10.201 -0.2270 -0.1260  0.0039
  917MOL0     H23728   1.215   0.527  10.647 -2.5459  3.4851 -0.8355
  917MOL0     H23729   1.427   0.467  10.748  2.5807  0.3838  0.3059
  917MOL0     H23730   1.506   0.590  10.900 -0.1105 -0.5049 -0.8223
  917MOL0     H23731   1.663   0.523  10.925  1.5462  1.0677  0.7369
  917MOL0     H23732   1.620   0.720  11.047  1.9246  0.5331 -0.1795
  917MOL0     H23733   1.607   0.818  10.894  0.6787  1.0208 -0.3176
  917MOL0     H23734   1.830   0.827  11.010 -1.5628 -0.6539  1.1354
  917MOL0     H23735   1.846   0.787  10.848  0.8993 -0.7253  0.5050
  917MOL0     H23736   1.847   0.587  11.083 -0.3965  1.6015  0.4727
  917MOL0     H23737   1.885   0.537  10.924 -1.4935 -1.2128  1.1206
  917MOL0     H23738   2.052   0.742  11.064  1.9925 -0.3331  0.8991
  917MOL0     H23739   2.078   0.569  11.062 -3.0080 -0.5810  3.1530
  917MOL0     H23740   2.060   0.569  10.808  3.0907 -1.3067 -0.1216
  917MOL0     H23741   2.051   0.745  10.807 -0.9400 -0.2715 -1.1614
  917MOL0     H23742   2.267   0.548  10.893 -3.4458  0.6013  0.5270
  917MOL0     H23743   2.293   0.697  10.964  0.3329  0.6778 -0.9107
  917MOL0     H23744   2.346   0.642  10.682 -0.5122  0.6390 -0.6852
  917MOL0     H23745   2.291   0.811  10.726  1.2259  0.9450  2.5609
  917MOL0     H23746   2.496   0.948  10.754  3.0351  0.6813 -1.4527
  917MOL0     H23747   2.739   1.045  10.866  4.7773  2.1886  0.4059
  917MOL0     H23748   2.821   0.921  10.952  0.2062  1.4391 -1.0335
  917MOL0     H23749   2.963   0.964  10.766 -0.5905  0.5201 -1.3604
  917MOL0     H23750   2.895   0.812  10.751  1.7518 -0.7484  1.5407
  917MOL0     H23751   2.810   1.063  10.578  4.0367 -0.0101 -2.4782
  917MOL0     H23752   2.702   0.932  10.588 -0.5166 -1.3981  3.1895
  917MOL0     H23753   2.998   0.921  10.488 -0.5814 -1.1368  1.8256
  917MOL0     H23754   2.848   0.893  10.394  1.1443 -2.7769 -1.2883
  917MOL0     H23755   2.673   0.773  10.395 -1.3936 -0.4363 -0.2657
  917MOL0     H23756   2.491   0.612  10.417  1.0992 -1.7365 -1.2343
  917MOL0     H23757   2.442   0.065  10.527  0.2326 -0.2529 -0.7071
  917MOL0     H23758   2.234  -0.073  10.559 -0.9459  1.2492 -0.9647
  917MOL0     H23759   1.955  -0.004  10.893 -1.4845 -0.2591  0.7729
  917MOL0     H23760   1.882   0.068  10.738  1.4335 -1.4380 -4.5864
  917MOL0     H23761   1.738  -0.079  10.810 -0.1578  0.9087  1.9629
  917MOL0     H23762   1.815  -0.146  10.662 -2.9568  1.5691  0.8029
  917MOL0     H23763   1.963  -0.271  10.829  0.1393  3.3122  0.6388
  917MOL0     H23764   1.831  -0.234  10.955  1.2708  1.8853  0.4820
  917MOL0     H23765   1.803  -0.422  10.714 -1.8427 -1.8578 -0.5491
  917MOL0     H23766   1.673  -0.333  10.803  0.3028  0.6291  0.6905
  917MOL0     H23767   1.725  -0.468  11.007 -0.9224  1.9716 -0.9244
  917MOL0     H23768   1.892  -0.488  10.945  0.4833 -0.7356 -2.0418
  917MOL0     H23769   1.675  -0.651  10.799 -0.9615 -1.8927  2.0811
  917MOL0     H23770   1.850  -0.638  10.776 -0.3747 -2.7800  0.5959
  917MOL0     H23771   1.726  -0.835  10.915  1.9358 -1.1018 -0.0433
  917MOL0     H23772   1.736  -0.705  11.038  1.2279  0.4297 -0.6153
  917MOL0     H23773   1.961  -0.798  10.859 -4.9138  3.0337 -1.7702
  917MOL0     H23774   1.982  -0.711  11.016 -0.6620 -1.1959  2.3628
  917MOL0     H23775   2.086   0.186  10.859  3.7918  0.1735  2.9028
  917MOL0     H23776   2.286   0.334  10.824 -1.3827 -0.2961  1.5963
  917MOL0     H23777   2.721   0.357  10.686 -0.4309  0.7086  0.7296
  917MOL0     H23778   2.916   0.506  10.645  0.6312 -2.3892 -0.5264
  917MOL0     H23779   1.627   0.765  10.531  0.1780 -0.4433  0.8491
  917MOL0     H23780   1.407   0.848  10.435  1.5421 -1.6521 -2.5197
  917MOL0     H23781   0.806   0.681  10.580  0.4364 -2.5338  0.6358
  917MOL0     H23782   0.619   0.663  10.427  2.1444 -3.7906 -0.0351
  917MOL0     H23783   0.649   0.626  10.033 -3.3381 -2.4978  1.5360
  917MOL0     H23784   0.636   0.790   9.970  3.3345 -2.5821  0.3730
  917MOL0     H23785   0.398   0.658  10.092  0.6312 -0.2001  0.4930
  917MOL0     H23786   0.445   0.654   9.915  2.8870 -2.3976 -0.3093
  917MOL0     H23787   0.463   0.931   9.980  1.9258 -0.9874  0.0848
  917MOL0     H23788   0.337   0.884  10.097 -1.0846 -0.4944 -0.9287
  917MOL0     H23789   0.331   0.843   9.802 -1.1818 -1.6170 -0.3497
  917MOL0     H23790   0.207   0.784   9.906 -1.0540  1.0345 -0.2092
  917MOL0     H23791   0.106   1.190   9.826  1.9771  0.4744  1.0220
  917MOL0     H23792   0.849   0.772  10.092 -0.3113 -0.3131  0.0721
  917MOL0     H23793   1.157   0.853  10.252 -0.7747  1.7538 -1.7470
  917MOL0     H23794   1.137   0.683  10.191 -1.5010 -1.1819  3.3928
  917MOL0     H23795   1.082   0.822  10.099 -2.8749 -3.2791 -1.1580
  918MOL0     O23796   0.108   4.454   7.580  0.0037 -0.6210  0.5691
  918MOL0     C23797   0.098   4.356   7.655 -0.2474  0.4391  0.5903
  918MOL0     O23798   0.133   4.232   7.621 -0.4355  1.3176 -0.4175
  918MOL0     C23799   0.175   4.198   7.494 -0.0262  0.1570 -0.2593
  918MOL0     C23800   0.110   4.233   7.379  0.1057  1.2689  0.3019
  918MOL0     C23801   0.162   4.202   7.255  0.0655  1.3711 -0.1504
  918MOL0     C23802   0.271   4.121   7.244 -0.1964 -0.1831  0.0163
  918MOL0     O23803   0.317   4.064   7.130  0.4075 -0.3498 -0.8113
  918MOL0     C23804   0.304   4.148   7.015 -0.1165  0.3973 -0.4479
  918MOL0     C23805   0.433   4.152   6.932 -0.0143 -0.0639 -0.5234
  918MOL0     C23806   0.537   4.219   7.016  0.4550 -0.1057  0.0518
  918MOL0     C23807   0.638   4.263   6.924 -0.9383 -0.5596 -0.3533
  918MOL0     C23808   0.731   4.378   6.985 -0.3099  0.3358 -0.2044
  918MOL0     C23809   0.855   4.412   6.899  0.8710 -0.0952  0.5538
  918MOL0     C23810   0.964   4.506   6.958 -0.4780  0.7554 -0.1467
  918MOL0     C23811   1.092   4.520   6.887 -0.5247 -0.7012 -0.1874
  918MOL0     N23812   1.084   4.612   6.770 -0.2461  0.0417  0.6308
  918MOL0     C23813   1.122   4.739   6.771  0.2943 -0.6805 -0.1323
  918MOL0     C23814   1.099   4.784   6.646 -0.1312  0.1920  0.1082
  918MOL0     C23815   1.127   4.926   6.601  0.0349  0.0789  0.8718
  918MOL0     C23816   1.175   4.938   6.451 -0.0060 -0.4714  0.2594
  918MOL0     C23817   1.304   4.864   6.421 -0.0155  0.5540  1.0125
  918MOL0     C23818   1.338   4.862   6.264 -0.2624  0.0952 -0.5960
  918MOL0     O23819   1.278   4.974   6.194 -0.1974  0.2249  0.4745
  918MOL0     C23820   1.270   4.978   6.058  0.4342  0.6895  0.5818
  918MOL0     C23821   1.304   4.870   5.977 -0.2142  0.0099  0.4241
  918MOL0     C23822   1.269   4.869   5.839 -0.0403 -0.5532  0.0424
  918MOL0     C23823   1.213   4.979   5.774  0.2094 -0.1613  0.2840
  918MOL0     C23824   1.203   4.988   5.627  0.9337 -0.0375  0.5825
  918MOL0     O23825   1.287   4.907   5.555 -0.2237  0.9211  0.1472
  918MOL0     C23826   1.298   4.927   5.424  0.1312  0.2680  0.0497
  918MOL0     C23827   1.381   5.037   5.375  0.5875  0.6827 -0.5690
  918MOL0     C23828   1.409   5.056   5.240 -0.8631 -0.1054 -0.4025
  918MOL0     C23829   1.351   4.963   5.155 -0.0097 -1.2965  0.5566
  918MOL0     O23830   1.392   4.966   5.018  0.0104 -0.3765  0.4017
  918MOL0     C23831   1.478   4.857   4.976  0.1518 -0.1600 -1.3124
  918MOL0     C23832   1.507   4.891   4.833  0.3815  0.1434 -0.5111
  918MOL0     C23833   1.400   4.856   4.740 -0.1981  0.2120 -0.5860
  918MOL0     C23834   1.394   4.706   4.725  0.5852 -1.1571 -0.6637
  918MOL0     C23835   1.263   4.649   4.665  0.0500  0.0844 -0.6474
  918MOL0     C23836   1.137   4.657   4.756 -0.0864  0.6735  0.3789
  918MOL0     C23837   1.009   4.596   4.698  0.4277 -0.5297 -0.0088
  918MOL0     C23838   0.880   4.649   4.776 -0.4695 -0.4975 -0.5727
  918MOL0    Cl23839   0.892   4.618   4.946  0.1984  0.0365  0.1381
  918MOL0     C23840   1.264   4.860   5.197 -0.0617 -1.1711 -0.5007
  918MOL0     C23841   1.234   4.840   5.333  0.5491  0.6802 -0.3292
  918MOL0     O23842   1.109   5.048   5.575  0.0066  0.4303 -0.3316
  918MOL0     C23843   1.182   5.090   5.859 -0.8448 -0.0915  0.6513
  918MOL0     C23844   1.214   5.092   6.001 -1.4869  0.9037  0.7701
  918MOL0     N23845   1.042   4.681   6.573  0.5520  0.2967  0.2800
  918MOL0     N23846   1.031   4.576   6.645 -0.1053  0.8897 -0.8467
  918MOL0     C23847   0.331   4.085   7.360 -0.0938 -0.3312  0.1498
  918MOL0     C23848   0.285   4.120   7.484 -0.7689  0.2208  0.1177
  918MOL0     C23849   0.060   4.366   7.799  0.8102 -1.0776 -0.4624
  918MOL0     C23850   0.002   4.490   7.828 -0.8009 -0.0881 -0.6591
  918MOL0     C23851  -0.017   4.536   7.963 -0.0054  0.4739  0.2656
  918MOL0     C23852   0.009   4.447   8.066 -0.5618  0.2005  0.3407
  918MOL0     O23853  -0.024   4.496   8.187  0.4792  0.7946  0.2089
  918MOL0     C23854  -0.016   4.416   8.304  0.5319  0.4733 -1.5028
  918MOL0     C23855  -0.034   4.517   8.418  0.7383 -0.1359  0.4027
  918MOL0     C23856  -0.002   4.453   8.553 -0.3330 -0.3766 -0.1293
  918MOL0     C23857   0.151   4.416   8.565 -0.3418  0.9343 -0.8915
  918MOL0     C23858   0.185   4.399   8.710  0.0096 -0.0664  0.7726
  918MOL0     C23859   0.214   4.369   8.827 -0.0668 -1.3894  0.7397
  918MOL0     C23860   0.055   4.317   8.039  0.6241 -0.1538  0.1161
  918MOL0     C23861   0.084   4.273   7.906  0.4593 -0.3842 -0.3963
  918MOL0     C23862   0.133   4.122   7.902  1.0629  0.9114 -0.5692
  918MOL0     H23863   0.012   4.279   7.383  0.8735  2.8672  2.4560
  918MOL0     H23864   0.098   4.223   7.170 -3.4496 -2.9459  1.0839
  918MOL0     H23865   0.237   4.097   6.945  0.1298  0.3661 -0.6631
  918MOL0     H23866   0.275   4.252   7.034 -0.2529  0.0993  1.1450
  918MOL0     H23867   0.411   4.193   6.833 -0.6471 -3.8575 -2.1082
  918MOL0     H23868   0.467   4.051   6.907 -1.3459 -0.4423 -0.8569
  918MOL0     H23869   0.577   4.157   7.096 -0.5828  0.5624  1.1076
  918MOL0     H23870   0.490   4.305   7.065 -0.6162 -1.9682  2.4538
  918MOL0     H23871   0.689   4.171   6.892 -2.1459 -2.5773  2.9852
  918MOL0     H23872   0.583   4.314   6.844 -2.8592  0.6591  1.6341
  918MOL0     H23873   0.676   4.471   6.994  0.4408  0.7149  0.6188
  918MOL0     H23874   0.769   4.353   7.084 -2.4861 -0.5357  0.4648
  918MOL0     H23875   0.891   4.310   6.881 -2.4963 -1.0631 -1.8660
  918MOL0     H23876   0.819   4.451   6.803 -2.3269 -0.4517  1.4592
  918MOL0     H23877   0.963   4.472   7.062 -4.4794 -0.6876 -0.5125
  918MOL0     H23878   0.923   4.608   6.955  1.3374  1.5581  0.6377
  918MOL0     H23879   1.166   4.560   6.958  1.3650 -0.9588 -1.9123
  918MOL0     H23880   1.135   4.426   6.851  0.9720  0.4239 -1.5364
  918MOL0     H23881   1.169   4.794   6.853  0.7804 -2.0961  0.5702
  918MOL0     H23882   1.037   4.984   6.621 -0.3296 -0.8194  1.9599
  918MOL0     H23883   1.208   4.969   6.661  0.0441  1.9851 -0.4157
  918MOL0     H23884   1.093   4.903   6.388  0.0451 -2.7131  1.3319
  918MOL0     H23885   1.198   5.042   6.427 -2.6697  1.1019  3.7053
  918MOL0     H23886   1.303   4.758   6.448  2.2301  0.3041  0.3355
  918MOL0     H23887   1.390   4.911   6.470  0.2664 -0.7618  1.8317
  918MOL0     H23888   1.306   4.765   6.226 -0.0338 -0.7631  1.2494
  918MOL0     H23889   1.446   4.875   6.252 -0.0063  2.9072  2.8089
  918MOL0     H23890   1.373   4.795   6.015  2.2989  2.2332  0.5238
  918MOL0     H23891   1.296   4.775   5.794  0.7682 -0.0963 -0.4470
  918MOL0     H23892   1.447   5.081   5.449  1.5380  0.5395 -1.3146
  918MOL0     H23893   1.478   5.133   5.208  0.8009 -0.9532  0.9876
  918MOL0     H23894   1.570   4.854   5.034 -0.9444  1.0961  0.5921
  918MOL0     H23895   1.426   4.762   4.985 -0.8539  0.3248 -1.8050
  918MOL0     H23896   1.513   4.999   4.816  0.1945  0.8012  2.7835
  918MOL0     H23897   1.603   4.849   4.803  0.7784  0.9116 -0.3415
  918MOL0     H23898   1.306   4.891   4.784 -0.1416  0.4791 -0.6734
  918MOL0     H23899   1.428   4.897   4.643  1.4243 -0.6707 -0.5314
  918MOL0     H23900   1.404   4.657   4.822  0.2069  0.0847  0.0218
  918MOL0     H23901   1.483   4.671   4.672  0.4432  0.0427 -1.7566
  918MOL0     H23902   1.290   4.546   4.642 -0.9671 -0.1868 -0.6950
  918MOL0     H23903   1.240   4.706   4.575 -1.8080  0.2855 -0.0862
  918MOL0     H23904   1.164   4.626   4.857  1.3347  0.0844 -0.1609
  918MOL0     H23905   1.112   4.763   4.761 -2.3872  0.3909 -2.2963
  918MOL0     H23906   1.001   4.487   4.702 -0.7853 -0.4691 -0.3344
  918MOL0     H23907   1.001   4.629   4.594  0.3314 -0.7925 -0.0880
  918MOL0     H23908   0.873   4.755   4.751 -0.0656 -0.6183 -1.2273
  918MOL0     H23909   0.788   4.595   4.753 -0.1510 -1.5460  0.4760
  918MOL0     H23910   1.227   4.790   5.123  0.8692 -2.6018  0.3290
  918MOL0     H23911   1.172   4.760   5.370 -0.3596  2.0135  1.1731
  918MOL0     H23912   1.140   5.178   5.811 -1.7728 -0.0146  1.5808
  918MOL0     H23913   1.200   5.180   6.063  2.8599  1.9891  0.5646
  918MOL0     H23914   0.430   4.039   7.362  1.2953  2.4455  1.4499
  918MOL0     H23915   0.327   4.080   7.576  1.5862 -0.1991 -1.0740
  918MOL0     H23916  -0.025   4.551   7.743  0.2213  0.6836 -0.4483
  918MOL0     H23917  -0.058   4.632   7.991  0.2141  0.9088 -0.8277
  918MOL0     H23918   0.081   4.366   8.315  0.7591  1.2812  0.6234
  918MOL0     H23919  -0.090   4.336   8.313 -0.6036  1.6825  0.9879
  918MOL0     H23920  -0.133   4.564   8.415  1.1806  0.7834 -0.2748
  918MOL0     H23921   0.046   4.591   8.409 -0.5329  1.1353 -1.3090
  918MOL0     H23922  -0.067   4.366   8.562 -0.1925 -0.9135 -3.4066
  918MOL0     H23923  -0.027   4.524   8.633 -1.4946  0.9351 -1.6085
  918MOL0     H23924   0.163   4.317   8.520 -3.3879 -1.6948  3.2837
  918MOL0     H23925   0.212   4.488   8.510  2.5109 -1.5095 -1.2028
  918MOL0     H23926   0.228   4.356   8.932 -3.9938 -0.0868  1.5984
  918MOL0     H23927   0.064   4.233   8.107 -0.2571 -1.7044 -1.6057
  918MOL0     H23928   0.141   4.066   7.996  0.6950  1.1769 -0.3751
  918MOL0     H23929   0.057   4.069   7.844  0.2995  0.4270  0.8347
  918MOL0     H23930   0.234   4.128   7.861  2.4960  1.9530  2.7313
  919MOL0     O23931   0.923   6.168  10.393  0.2217 -0.1261 -0.7574
  919MOL0     C23932   1.040   6.206  10.426 -0.0933 -0.0475 -0.5573
  919MOL0     O23933   1.107   6.302  10.359  0.0376 -0.9359 -0.1486
  919MOL0     C23934   1.056   6.333  10.238  0.6152 -0.8117 -0.1296
  919MOL0     C23935   1.060   6.229  10.148 -0.7199 -0.2750  0.5031
  919MOL0     C23936   1.027   6.247  10.011 -0.4801  0.3993  0.3139
  919MOL0     C23937   0.968   6.368   9.976  0.8571 -0.7694  0.5208
  919MOL0     O23938   0.922   6.384   9.847 -0.9397 -0.3924 -0.3678
  919MOL0     C23939   0.925   6.511   9.785 -0.4902 -0.8569 -0.3489
  919MOL0     C23940   0.910   6.504   9.629 -0.1490 -0.1855  0.2125
  919MOL0     C23941   0.830   6.630   9.591 -0.4182  1.0233  0.4088
  919MOL0     C23942   0.906   6.761   9.641 -0.1544  0.2875  0.5614
  919MOL0     C23943   0.820   6.880   9.605  1.0428  0.6865 -0.0078
  919MOL0     C23944   0.885   7.017   9.628  0.4380  0.1574 -0.5103
  919MOL0     C23945   0.778   7.122   9.610 -0.0184 -1.0254 -0.3248
  919MOL0     C23946   0.700   7.151   9.742 -1.0669 -0.3007 -0.2661
  919MOL0     N23947   0.603   7.263   9.723 -0.4025 -0.6337  0.6906
  919MOL0     C23948   0.626   7.399   9.767 -0.1361  0.5713 -0.4563
  919MOL0     C23949   0.496   7.433   9.795 -1.1519 -0.7337 -0.2337
  919MOL0     C23950   0.463   7.581   9.831  1.1691 -0.3421  0.0717
  919MOL0     C23951   0.580   7.674   9.804  0.1859  0.1312  0.3507
  919MOL0     C23952   0.547   7.825   9.831 -0.2915 -0.4105 -0.2019
  919MOL0     C23953   0.473   7.891   9.721  0.1265  0.9026  0.2469
  919MOL0     O23954   0.475   8.032   9.746 -0.1877  0.0269  0.0251
  919MOL0     C23955   0.579   8.100   9.690 -0.9558 -0.8626  0.6155
  919MOL0     C23956   0.619   8.101   9.553 -0.5966  0.8726  0.2398
  919MOL0     C23957   0.734   8.174   9.511  0.0272  0.8159 -0.0633
  919MOL0     C23958   0.789   8.265   9.603  0.2880 -0.8469  0.3205
  919MOL0     C23959   0.905   8.344   9.566 -0.0574  0.3804  0.3763
  919MOL0     O23960   0.959   8.426   9.660 -0.3979 -0.0360 -0.1857
  919MOL0     C23961   1.082   8.488   9.640  0.2159  0.2755  0.8719
  919MOL0     C23962   1.118   8.588   9.730 -0.4491  0.7292 -0.4876
  919MOL0     C23963   1.256   8.616   9.755 -0.5975  0.0755 -0.3597
  919MOL0     C23964   1.359   8.564   9.680 -0.4513 -0.4648 -0.2070
  919MOL0     O23965   1.486   8.616   9.702 -0.7067  0.1960 -0.7387
  919MOL0     C23966   1.610   8.535   9.683  0.7179  1.3886  1.0336
  919MOL0     C23967   1.676   8.520   9.825 -1.1046 -0.4428 -0.0374
  919MOL0     C23968   1.699   8.653   9.903  1.0910 -0.3068  0.2145
  919MOL0     C23969   1.581   8.704   9.989 -0.0248 -0.3832  0.0005
  919MOL0     C23970   1.622   8.815  10.081 -0.1827 -0.0787 -0.3602
  919MOL0     C23971   1.509   8.910  10.126 -0.3557  0.4183 -0.1754
  919MOL0     C23972   1.513   9.023  10.022  0.5953 -0.2479 -0.3858
  919MOL0     C23973   1.375   9.095  10.001  0.5168 -0.0185  0.0797
  919MOL0    Cl23974   1.246   8.986   9.950 -0.2786 -0.1054  0.4765
  919MOL0     C23975   1.321   8.459   9.592  0.0994 -0.2861  0.7084
  919MOL0     C23976   1.185   8.418   9.568 -0.4431  0.8981 -0.2827
  919MOL0     O23977   0.926   8.339   9.445 -0.6480 -0.7840  0.2727
  919MOL0     C23978   0.735   8.281   9.735  0.3883  0.8748  0.2261
  919MOL0     C23979   0.628   8.199   9.775  1.0016 -0.5860  0.2864
  919MOL0     N23980   0.399   7.345   9.761 -0.9938  0.2166  0.0837
  919MOL0     N23981   0.466   7.245   9.718  0.3951  0.4063 -0.3972
  919MOL0     C23982   0.956   6.473  10.071 -0.4023  0.3355  0.3263
  919MOL0     C23983   1.012   6.464  10.194  0.1656  0.3228  0.2919
  919MOL0     C23984   1.123   6.149  10.538 -0.4865  0.5050 -0.0982
  919MOL0     C23985   1.245   6.217  10.575  0.6947 -0.2099 -1.0658
  919MOL0     C23986   1.311   6.189  10.694  0.6973 -0.7718  0.9606
  919MOL0     C23987   1.272   6.087  10.774 -0.1407 -1.0432  0.3067
  919MOL0     O23988   1.350   6.064  10.890  0.8087 -0.1080 -0.4922
  919MOL0     C23989   1.297   5.994  11.007  0.2263 -0.1381  0.1530
  919MOL0     C23990   1.411   5.920  11.076 -0.1581 -0.3589 -0.8803
  919MOL0     C23991   1.387   5.849  11.208 -0.1113 -0.4845 -0.4262
  919MOL0     C23992   1.363   5.951  11.316  0.6612  0.9754 -0.2893
  919MOL0     C23993   1.219   5.983  11.329 -1.2550 -0.5579 -0.7637
  919MOL0     C23994   1.099   6.017  11.335  0.0423  0.2595  0.0775
  919MOL0     C23995   1.163   6.009  10.726 -0.4960 -0.0234  0.6021
  919MOL0     C23996   1.090   6.028  10.607 -0.8878 -1.2607 -0.3577
  919MOL0     C23997   0.993   5.926  10.569 -0.0028  0.7016  0.0544
  919MOL0     H23998   1.087   6.132  10.187  2.0418  0.9065  1.8811
  919MOL0     H23999   1.037   6.163   9.944 -0.8624  0.6729 -0.0982
  919MOL0     H24000   0.841   6.561   9.835  0.5513 -0.8741  1.4923
  919MOL0     H24001   1.018   6.562   9.810 -0.1546 -1.4434 -0.3875
  919MOL0     H24002   0.844   6.420   9.607 -1.1741  0.7978 -0.5565
  919MOL0     H24003   1.003   6.495   9.572  1.1140  0.7337  2.0146
  919MOL0     H24004   0.726   6.629   9.625  0.0979  1.4864  2.0718
  919MOL0     H24005   0.831   6.624   9.481 -1.6842  0.2799  0.4178
  919MOL0     H24006   0.906   6.763   9.751 -2.8617 -2.1489  0.7167
  919MOL0     H24007   1.008   6.765   9.601 -1.2440  2.5421 -2.3330
  919MOL0     H24008   0.796   6.868   9.499  1.4917  0.7720 -0.1227
  919MOL0     H24009   0.727   6.875   9.662  0.6708  0.7872 -0.5991
  919MOL0     H24010   0.932   7.033   9.726 -1.1307  3.4945 -0.1620
  919MOL0     H24011   0.965   7.039   9.557  1.3406  0.1269  0.4626
  919MOL0     H24012   0.711   7.110   9.524 -0.7452  0.7784 -0.0686
  919MOL0     H24013   0.816   7.218   9.574  1.2813 -2.3998 -2.9320
  919MOL0     H24014   0.643   7.059   9.763  0.1452 -0.9772  0.1693
  919MOL0     H24015   0.772   7.167   9.824 -0.2189  0.5877 -1.1635
  919MOL0     H24016   0.719   7.455   9.773  0.3354 -0.2415  0.1095
  919MOL0     H24017   0.376   7.613   9.774 -1.3453 -2.5221  2.4179
  919MOL0     H24018   0.438   7.576   9.938  3.2740 -0.7467  0.5928
  919MOL0     H24019   0.655   7.650   9.880 -1.9145 -3.4576  1.5060
  919MOL0     H24020   0.622   7.654   9.705  0.3193  0.3789  0.3561
  919MOL0     H24021   0.632   7.890   9.854 -0.5462  0.2775 -1.1363
  919MOL0     H24022   0.484   7.837   9.919 -1.2374 -0.6747 -0.8251
  919MOL0     H24023   0.371   7.855   9.703  1.0839 -0.3456 -3.8331
  919MOL0     H24024   0.514   7.866   9.622 -0.9729  2.0096 -0.5146
  919MOL0     H24025   0.563   8.037   9.485 -0.6983  2.4586 -1.2171
  919MOL0     H24026   0.770   8.149   9.412  1.1222  1.1322  0.2439
  919MOL0     H24027   1.056   8.634   9.806  2.0290 -0.2877  2.3434
  919MOL0     H24028   1.277   8.680   9.839  0.0995  0.2920 -0.6935
  919MOL0     H24029   1.590   8.436   9.641  0.8879  1.4294  0.8563
  919MOL0     H24030   1.680   8.589   9.618  0.3467  0.4426 -0.1910
  919MOL0     H24031   1.628   8.441   9.883  2.1927 -0.2043  3.3803
  919MOL0     H24032   1.774   8.473   9.811 -1.3219 -1.8750  2.6025
  919MOL0     H24033   1.779   8.628   9.972  2.2329 -0.9758 -1.2961
  919MOL0     H24034   1.731   8.735   9.837 -2.5826  0.3991 -0.9723
  919MOL0     H24035   1.563   8.619  10.056 -0.0093 -3.4659 -3.5601
  919MOL0     H24036   1.496   8.725   9.924  0.3800  0.0059 -0.4089
  919MOL0     H24037   1.703   8.869  10.031 -1.1911  1.2974 -0.5603
  919MOL0     H24038   1.670   8.772  10.170 -0.8811 -1.2905 -0.5393
  919MOL0     H24039   1.411   8.863  10.130  0.2559 -1.0044 -1.2652
  919MOL0     H24040   1.529   8.930  10.232 -0.9766  2.5398 -0.4164
  919MOL0     H24041   1.546   8.997   9.921  1.9522 -0.5332  0.1108
  919MOL0     H24042   1.586   9.100  10.047 -1.3113  1.0718  1.4857
  919MOL0     H24043   1.341   9.152  10.088  2.7448  2.3190 -0.4641
  919MOL0     H24044   1.378   9.168   9.920 -3.5187 -0.3918 -0.6227
  919MOL0     H24045   1.397   8.392   9.552  0.2174 -0.3954  1.1093
  919MOL0     H24046   1.177   8.328   9.508  1.5832  0.8987 -0.6392
  919MOL0     H24047   0.774   8.349   9.809  1.6474 -0.6865  1.0580
  919MOL0     H24048   0.584   8.212   9.873 -0.2194 -1.0288 -0.1859
  919MOL0     H24049   0.908   6.567  10.046 -1.4720 -0.7198 -1.8736
  919MOL0     H24050   1.011   6.531  10.279 -1.2117 -1.2455  1.5716
  919MOL0     H24051   1.266   6.314  10.531  0.1046 -0.5901 -2.2417
  919MOL0     H24052   1.391   6.253  10.731  0.7410 -2.3854  4.0489
  919MOL0     H24053   1.219   5.920  10.984 -1.9386  2.2383 -0.6530
  919MOL0     H24054   1.238   6.068  11.061 -1.6072  0.4240 -2.4468
  919MOL0     H24055   1.505   5.976  11.075  0.0305 -0.4375  2.2628
  919MOL0     H24056   1.435   5.833  11.014 -0.2993 -0.6744 -0.4939
  919MOL0     H24057   1.474   5.798  11.249  0.0912 -1.4288 -1.9652
  919MOL0     H24058   1.304   5.777  11.205 -1.8984  1.2920  1.8631
  919MOL0     H24059   1.392   5.912  11.414  0.5452  0.4628 -0.4520
  919MOL0     H24060   1.419   6.042  11.296  3.3076 -0.8401 -1.8154
  919MOL0     H24061   0.996   6.034  11.357 -0.3785 -0.5175 -1.1779
  919MOL0     H24062   1.143   5.917  10.782 -0.4579 -0.4656 -0.1038
  919MOL0     H24063   0.889   5.952  10.549 -0.9093 -2.5758 -0.1910
  919MOL0     H24064   1.030   5.872  10.482  0.7579  1.2376  0.0458
  919MOL0     H24065   0.973   5.851  10.647  0.1890  0.3163 -0.2626
  920MOL0     O24066   7.045   1.523   4.280 -0.1844  0.0106  1.2747
  920MOL0     C24067   7.124   1.590   4.344  0.4299 -0.6643 -0.3152
  920MOL0     O24068   7.165   1.571   4.468  0.6402  0.3435 -0.6433
  920MOL0     C24069   7.129   1.453   4.541 -0.5631 -0.6057 -0.2683
  920MOL0     C24070   7.005   1.449   4.602  1.1479  0.0960 -0.4805
  920MOL0     C24071   6.988   1.351   4.698 -0.5390 -0.2158  0.2117
  920MOL0     C24072   7.079   1.260   4.733 -0.0900  1.8190 -0.8690
  920MOL0     O24073   7.057   1.178   4.840 -0.2898  0.0802  0.2176
  920MOL0     C24074   7.119   1.049   4.845  0.2778 -0.4410  0.3883
  920MOL0     C24075   7.056   0.956   4.943  0.3445 -0.5952 -0.4638
  920MOL0     C24076   6.914   0.909   4.919  0.0367 -0.0847 -0.3181
  920MOL0     C24077   6.902   0.786   5.004 -0.2090 -0.6883  0.7569
  920MOL0     C24078   6.759   0.775   5.056 -0.3985  0.3772  0.0785
  920MOL0     C24079   6.740   0.664   5.163 -0.5562  0.0024  0.1564
  920MOL0     C24080   6.599   0.667   5.227 -0.1661  0.2090  0.3976
  920MOL0     C24081   6.471   0.732   5.157 -0.5680  0.2827 -0.0038
  920MOL0     N24082   6.365   0.772   5.252  0.4405  0.3773  0.3925
  920MOL0     C24083   6.270   0.684   5.293 -0.2553  0.0101 -0.4167
  920MOL0     C24084   6.222   0.742   5.407  0.2746 -0.4950  0.2840
  920MOL0     C24085   6.104   0.701   5.483  0.5903 -0.8230 -0.2764
  920MOL0     C24086   5.983   0.798   5.486 -0.1816  0.1640 -0.0866
  920MOL0     C24087   5.999   0.907   5.591 -0.3687 -0.5507 -0.3162
  920MOL0     C24088   5.882   1.000   5.580  0.7118  0.2845 -0.4100
  920MOL0     O24089   5.879   1.091   5.693  0.1924  0.1151  0.2962
  920MOL0     C24090   5.850   1.218   5.657  0.5490 -0.1147  0.0635
  920MOL0     C24091   5.739   1.257   5.582 -0.8279  0.3496  0.0475
  920MOL0     C24092   5.715   1.398   5.557 -0.1822  0.3627 -0.0946
  920MOL0     C24093   5.786   1.487   5.631 -0.1959  1.0167 -0.8603
  920MOL0     C24094   5.747   1.626   5.636  0.9045  0.4170 -0.0630
  920MOL0     O24095   5.625   1.650   5.584  0.7882 -0.5842  0.0016
  920MOL0     C24096   5.588   1.783   5.590 -0.2252  0.5671 -0.7704
  920MOL0     C24097   5.481   1.820   5.675 -0.6369  0.3445  0.9480
  920MOL0     C24098   5.414   1.946   5.661 -0.1832  0.2358 -0.5538
  920MOL0     C24099   5.458   2.030   5.564 -0.8661  0.9602  0.6607
  920MOL0     O24100   5.371   2.133   5.538 -0.0734 -0.1830  0.3815
  920MOL0     C24101   5.373   2.189   5.408  0.1735  0.0926 -0.5308
  920MOL0     C24102   5.321   2.100   5.294  0.1910  0.7379  0.3540
  920MOL0     C24103   5.183   2.055   5.336 -0.7554  0.0560 -0.9993
  920MOL0     C24104   5.112   1.957   5.237 -0.6269  0.0694 -0.9248
  920MOL0     C24105   5.206   1.846   5.188 -0.6814  1.0938  0.5103
  920MOL0     C24106   5.132   1.736   5.113  0.0212 -0.2482 -0.3837
  920MOL0     C24107   5.214   1.622   5.065  0.0212 -0.1050  0.0557
  920MOL0     C24108   5.136   1.533   4.974 -0.3449  0.8155 -0.5803
  920MOL0    Cl24109   5.237   1.409   4.918  0.1810  0.5421  0.3389
  920MOL0     C24110   5.567   1.995   5.479  0.6813 -0.2983 -0.6589
  920MOL0     C24111   5.630   1.875   5.499 -0.6451  0.2650 -0.0388
  920MOL0     O24112   5.807   1.706   5.705 -0.4831 -0.1825  0.0135
  920MOL0     C24113   5.900   1.445   5.703  0.5127  0.5397 -0.1104
  920MOL0     C24114   5.935   1.312   5.717  0.8088 -0.2453 -0.2875
  920MOL0     N24115   6.285   0.860   5.435  0.1590 -0.5884  0.3910
  920MOL0     N24116   6.374   0.870   5.343  0.0462  0.0513 -0.2204
  920MOL0     C24117   7.195   1.247   4.653  1.0483 -0.4967  0.3404
  920MOL0     C24118   7.224   1.351   4.571  0.2724 -0.8547 -0.1180
  920MOL0     C24119   7.178   1.711   4.282  0.3888  0.5068  0.5110
  920MOL0     C24120   7.308   1.740   4.296 -0.5573  0.4035 -0.2303
  920MOL0     C24121   7.371   1.837   4.223 -0.1994 -0.0141  0.2048
  920MOL0     C24122   7.299   1.915   4.130  0.0193 -0.8019  0.1691
  920MOL0     O24123   7.336   2.028   4.060 -0.4719  0.8255 -0.1088
  920MOL0     C24124   7.475   2.065   4.067 -0.2760  0.9092  0.0594
  920MOL0     C24125   7.501   2.152   3.952 -0.3702 -0.0892  0.3335
  920MOL0     C24126   7.608   2.256   3.962  0.2131  0.2533  0.2120
  920MOL0     C24127   7.745   2.206   3.924  1.0099 -0.5224  0.0042
  920MOL0     C24128   7.813   2.108   4.015  0.6835 -0.0631 -0.8048
  920MOL0     C24129   7.854   2.020   4.090 -0.2459  0.5186 -0.4786
  920MOL0     C24130   7.162   1.892   4.110 -0.4214  0.5470 -0.1000
  920MOL0     C24131   7.099   1.788   4.186  0.2080  0.1470  0.4136
  920MOL0     C24132   6.963   1.764   4.143  0.2877  0.5777  0.5188
  920MOL0     H24133   6.933   1.527   4.580  1.9098  0.6322 -1.1822
  920MOL0     H24134   6.895   1.364   4.753 -1.2190 -1.5741 -0.5703
  920MOL0     H24135   7.101   1.010   4.744 -1.6247  0.0255  0.5046
  920MOL0     H24136   7.227   1.060   4.860  1.0782 -1.7353 -3.3769
  920MOL0     H24137   7.048   1.009   5.038  3.1083 -0.0994 -0.4269
  920MOL0     H24138   7.118   0.866   4.945  0.1482 -0.7680  2.9315
  920MOL0     H24139   6.906   0.879   4.814 -1.1367  2.0804 -0.9089
  920MOL0     H24140   6.838   0.983   4.943 -0.9685 -1.3975  0.7137
  920MOL0     H24141   6.948   0.706   4.946 -1.5870 -0.5965 -0.4971
  920MOL0     H24142   6.965   0.799   5.093 -0.7398 -1.6556  1.2957
  920MOL0     H24143   6.734   0.866   5.110  0.8538  0.5743  0.3442
  920MOL0     H24144   6.688   0.753   4.975 -0.0484  0.5994 -0.2900
  920MOL0     H24145   6.748   0.564   5.119 -2.3092 -1.2935  2.5164
  920MOL0     H24146   6.814   0.690   5.239 -0.0441  2.2099 -1.0006
  920MOL0     H24147   6.590   0.707   5.329 -2.8169  3.2957 -0.8445
  920MOL0     H24148   6.585   0.559   5.232 -1.1185  0.2293 -1.1881
  920MOL0     H24149   6.503   0.831   5.123 -3.2764  1.1702 -0.2232
  920MOL0     H24150   6.438   0.674   5.071 -0.6033  1.3921 -0.7558
  920MOL0     H24151   6.236   0.595   5.240 -0.5029  0.0456 -0.3167
  920MOL0     H24152   6.073   0.600   5.453  0.6428 -1.4690  1.6675
  920MOL0     H24153   6.137   0.677   5.585  0.2974  1.7681  0.5089
  920MOL0     H24154   5.967   0.839   5.386 -1.5672 -0.0025  0.0373
  920MOL0     H24155   5.900   0.737   5.525  0.2197 -2.3226 -2.7073
  920MOL0     H24156   6.084   0.975   5.586 -2.1957  1.9016  0.2243
  920MOL0     H24157   6.002   0.865   5.692 -2.4653  1.0638  0.4848
  920MOL0     H24158   5.789   0.943   5.580  0.5923  0.4724  0.2691
  920MOL0     H24159   5.883   1.047   5.481 -0.0704  2.1474  0.4051
  920MOL0     H24160   5.669   1.189   5.535 -1.1336  0.1274  0.8101
  920MOL0     H24161   5.629   1.426   5.496  0.0539 -0.1921 -0.7063
  920MOL0     H24162   5.454   1.749   5.752 -1.1276  0.6700  1.0825
  920MOL0     H24163   5.323   1.958   5.719  0.0771 -1.4653  0.2726
  920MOL0     H24164   5.325   2.287   5.413  1.3883  0.6865 -0.1890
  920MOL0     H24165   5.478   2.217   5.393 -0.2112  1.7853 -0.2923
  920MOL0     H24166   5.323   2.159   5.202 -3.7997 -2.1751 -1.8957
  920MOL0     H24167   5.394   2.018   5.284 -0.6021 -0.1487  1.5476
  920MOL0     H24168   5.189   2.011   5.436  2.1708  3.6217  0.6414
  920MOL0     H24169   5.108   2.133   5.353 -2.6172 -2.0386  1.0039
  920MOL0     H24170   5.085   2.017   5.150  0.1224  0.0995 -1.1423
  920MOL0     H24171   5.023   1.907   5.277 -0.3488 -1.3366 -1.9930
  920MOL0     H24172   5.259   1.808   5.275 -1.2888  0.8930  0.8029
  920MOL0     H24173   5.273   1.881   5.109 -1.7178 -0.5878 -1.2043
  920MOL0     H24174   5.056   1.695   5.181 -0.0032 -0.5078 -0.5661
  920MOL0     H24175   5.085   1.776   5.022 -1.2378 -2.7757 -0.9382
  920MOL0     H24176   5.242   1.567   5.155  0.3820  2.0620  1.3309
  920MOL0     H24177   5.303   1.650   5.007 -0.5674 -4.9105 -3.9207
  920MOL0     H24178   5.047   1.490   5.021 -0.0522  1.1291  0.2650
  920MOL0     H24179   5.103   1.584   4.882  0.5911 -0.9196 -1.9424
  920MOL0     H24180   5.595   2.055   5.393  3.4571 -0.0347  0.3500
  920MOL0     H24181   5.714   1.846   5.435 -2.5228 -1.8650 -1.7058
  920MOL0     H24182   5.962   1.514   5.760  2.7472 -1.1326 -0.3715
  920MOL0     H24183   6.003   1.271   5.790 -2.1725  1.0022  3.5001
  920MOL0     H24184   7.269   1.168   4.663 -0.1777 -1.5432  1.3654
  920MOL0     H24185   7.321   1.352   4.523  0.0632 -0.1769 -0.5432
  920MOL0     H24186   7.369   1.690   4.370  0.1712 -0.2363 -1.2430
  920MOL0     H24187   7.477   1.848   4.241  0.1954 -1.9024 -0.7191
  920MOL0     H24188   7.533   1.972   4.067 -0.7790  0.4852 -2.8547
  920MOL0     H24189   7.517   2.115   4.154 -0.9855 -0.0849  0.9923
  920MOL0     H24190   7.407   2.205   3.935 -0.9980 -0.9699  0.9611
  920MOL0     H24191   7.516   2.084   3.868 -0.2644  1.7241 -1.1934
  920MOL0     H24192   7.624   2.293   4.063  1.6694 -0.0162  0.0973
  920MOL0     H24193   7.568   2.337   3.899  1.9597 -0.1627 -1.5271
  920MOL0     H24194   7.737   2.151   3.830 -0.6699  0.6505 -0.5934
  920MOL0     H24195   7.807   2.296   3.910 -0.4194  0.1130 -3.0448
  920MOL0     H24196   7.886   1.948   4.162 -0.4195  1.2200  0.3254
  920MOL0     H24197   7.116   1.946   4.028  0.2830  0.0940 -0.7961
  920MOL0     H24198   6.923   1.861   4.110  2.4456  0.4950 -2.8437
  920MOL0     H24199   6.962   1.697   4.057 -1.5751  1.0494  0.1314
  920MOL0     H24200   6.897   1.710   4.211 -0.6328 -0.6447 -1.2715
  921MOL0     O24201   1.018   9.958   5.197  0.3321  0.1561 -0.0310
  921MOL0     C24202   1.015   9.842   5.245  0.4448 -0.4564  0.4776
  921MOL0     O24203   1.120   9.770   5.304  0.0835 -1.2435 -0.9813
  921MOL0     C24204   1.242   9.836   5.313  0.5522 -0.2498  0.2972
  921MOL0     C24205   1.345   9.797   5.225  1.0861 -0.4512 -0.7726
  921MOL0     C24206   1.477   9.857   5.239  0.9842 -0.8378  0.2354
  921MOL0     C24207   1.505   9.942   5.348 -0.3651  0.0835 -0.7572
  921MOL0     O24208   1.638   9.973   5.383  0.0818  0.2970 -0.7663
  921MOL0     C24209   1.672  10.082   5.471 -0.4593  0.5641 -0.5502
  921MOL0     C24210   1.829  10.091   5.472 -0.3654 -0.0941 -0.0819
  921MOL0     C24211   1.887  10.104   5.328  0.5931 -0.4445 -0.2138
  921MOL0     C24212   2.035  10.131   5.337  0.5400 -1.0671  0.3991
  921MOL0     C24213   2.108  10.106   5.209 -0.4266  0.2164  0.1529
  921MOL0     C24214   2.081  10.227   5.112  0.3879 -0.2314  0.8531
  921MOL0     C24215   2.167  10.226   4.986 -1.0878 -0.0004  0.1887
  921MOL0     C24216   2.313  10.285   5.010  1.7343  0.5143  0.5520
  921MOL0     N24217   2.316  10.432   5.008 -0.2600 -0.5828 -1.1653
  921MOL0     C24218   2.323  10.530   5.107 -0.0770 -0.0621  0.5823
  921MOL0     C24219   2.364  10.645   5.055  0.1646 -0.3705 -0.8859
  921MOL0     C24220   2.383  10.767   5.132  0.4983 -0.8796 -0.0196
  921MOL0     C24221   2.527  10.779   5.156  0.2819 -0.1188  0.1691
  921MOL0     C24222   2.611  10.819   5.028 -0.0193  0.4850 -0.0967
  921MOL0     C24223   2.593  10.963   4.984  0.2919 -0.1574  0.1597
  921MOL0     O24224   2.682  10.989   4.879  0.2233 -0.7865  0.3312
  921MOL0     C24225   2.622  10.975   4.758 -0.0337 -0.8360  0.3163
  921MOL0     C24226   2.695  11.039   4.653 -0.0691 -0.4402 -0.2132
  921MOL0     C24227   2.658  11.028   4.515  0.8412 -0.1029 -0.1209
  921MOL0     C24228   2.545  10.942   4.487 -0.3939 -1.8623 -0.2936
  921MOL0     C24229   2.524  10.896   4.354  0.1663 -0.2953  0.2985
  921MOL0     O24230   2.630  10.919   4.271 -0.7377  0.8906  0.2422
  921MOL0     C24231   2.626  10.881   4.143  0.7733  0.0369 -0.5761
  921MOL0     C24232   2.588  10.754   4.091 -0.3040 -0.1025 -0.0880
  921MOL0     C24233   2.588  10.720   3.956 -0.1606 -0.7428 -0.4334
  921MOL0     C24234   2.634  10.817   3.873  0.0563  0.2540  0.4990
  921MOL0     O24235   2.651  10.783   3.739  0.1713 -0.0299  0.5665
  921MOL0     C24236   2.535  10.787   3.654 -0.1097  0.6239 -0.3440
  921MOL0     C24237   2.567  10.845   3.513  0.4148 -0.5891  0.3313
  921MOL0     C24238   2.655  10.974   3.522  0.3055 -0.6107  0.7562
  921MOL0     C24239   2.624  11.064   3.395  0.0708 -0.1501 -0.5390
  921MOL0     C24240   2.735  11.161   3.366  0.0798 -0.3177 -0.0940
  921MOL0     C24241   2.726  11.222   3.226  0.2273  0.4707  0.0617
  921MOL0     C24242   2.596  11.308   3.198  0.0584  0.1560  0.7260
  921MOL0     C24243   2.606  11.409   3.079 -0.5580 -0.4963 -0.1055
  921MOL0    Cl24244   2.479  11.524   3.113 -0.0461  0.1850  0.0125
  921MOL0     C24245   2.682  10.938   3.914  0.4581 -0.4558 -0.6467
  921MOL0     C24246   2.684  10.971   4.054 -0.2329 -0.6646  0.9557
  921MOL0     O24247   2.413  10.857   4.325 -0.5203  0.0274  0.0474
  921MOL0     C24248   2.466  10.891   4.595  0.8114 -0.6307 -0.1556
  921MOL0     C24249   2.506  10.904   4.723 -0.5433  0.4582  0.4925
  921MOL0     N24250   2.356  10.623   4.920 -0.3464 -0.5600 -0.2711
  921MOL0     N24251   2.325  10.504   4.892  0.2110  0.1403  0.0197
  921MOL0     C24252   1.401   9.969   5.436 -0.1106  0.4617  0.0623
  921MOL0     C24253   1.265   9.922   5.410 -1.0742  0.1126 -0.5437
  921MOL0     C24254   0.869   9.794   5.255  0.8005  0.2584  0.2806
  921MOL0     C24255   0.759   9.887   5.251  0.9135 -0.7842  0.0214
  921MOL0     C24256   0.628   9.835   5.255 -0.3893 -0.4685  0.7445
  921MOL0     C24257   0.597   9.697   5.271 -1.0957 -0.2287 -0.2890
  921MOL0     O24258   0.468   9.652   5.281 -0.3331  0.3512 -0.4362
  921MOL0     C24259   0.425   9.539   5.198  0.0565 -0.3857  0.7176
  921MOL0     C24260   0.270   9.535   5.206 -0.4273  0.6271 -0.6874
  921MOL0     C24261   0.213   9.476   5.345 -0.2739 -0.2454 -0.1591
  921MOL0     C24262   0.254   9.337   5.368  0.2874  0.4104  0.1664
  921MOL0     C24263   0.172   9.275   5.476  0.9541 -0.2014  1.0783
  921MOL0     C24264   0.097   9.236   5.560 -0.7829  0.4787  0.5537
  921MOL0     C24265   0.707   9.610   5.260  0.1238  0.2049  0.5173
  921MOL0     C24266   0.847   9.653   5.258  0.8799 -0.2737  0.5805
  921MOL0     C24267   0.946   9.541   5.250  0.6635 -0.4716 -0.1921
  921MOL0     H24268   1.311   9.724   5.152 -2.5577  1.5702 -1.3299
  921MOL0     H24269   1.552   9.829   5.166 -1.1131  1.6578 -3.1519
  921MOL0     H24270   1.638  10.178   5.429 -2.2847  0.0407 -0.3421
  921MOL0     H24271   1.617  10.071   5.565 -1.0231 -2.3682 -1.1548
  921MOL0     H24272   1.849   9.994   5.518  0.5934  0.8438  1.5965
  921MOL0     H24273   1.865  10.171   5.538  0.2619 -2.9166  3.3282
  921MOL0     H24274   1.831  10.179   5.271  0.3598 -0.7124 -0.3400
  921MOL0     H24275   1.876  10.006   5.281  3.6087 -2.8835  3.6384
  921MOL0     H24276   2.045  10.236   5.368  2.5092 -0.3146 -2.4029
  921MOL0     H24277   2.087  10.065   5.406  2.2846 -0.8588 -0.6707
  921MOL0     H24278   2.214  10.106   5.232 -0.2353 -2.4938 -0.3827
  921MOL0     H24279   2.089  10.015   5.151 -0.1014 -0.1807  0.6665
  921MOL0     H24280   1.978  10.225   5.076  1.1296 -1.0807 -1.4307
  921MOL0     H24281   2.115  10.322   5.156  1.0293  1.4422 -2.8189
  921MOL0     H24282   2.117  10.294   4.917  0.1586  0.3106 -0.4387
  921MOL0     H24283   2.172  10.128   4.938 -1.9471  1.7084 -3.7832
  921MOL0     H24284   2.346  10.262   5.111  3.3763  3.6731  0.8694
  921MOL0     H24285   2.378  10.248   4.930 -0.9228 -0.3441 -1.3652
  921MOL0     H24286   2.295  10.516   5.211 -0.2816 -0.1041  0.5216
  921MOL0     H24287   2.333  10.853   5.086  1.4029  0.4987  1.4481
  921MOL0     H24288   2.331  10.747   5.225 -1.8495 -0.9984 -1.2820
  921MOL0     H24289   2.534  10.857   5.232 -3.4610  0.7311 -0.1686
  921MOL0     H24290   2.573  10.684   5.186 -1.5027 -1.5739 -1.4631
  921MOL0     H24291   2.588  10.752   4.944  2.0038 -1.5417  0.8686
  921MOL0     H24292   2.720  10.811   5.035  0.5970  1.9222 -4.7418
  921MOL0     H24293   2.612  11.031   5.067 -1.3841 -2.4808  2.6267
  921MOL0     H24294   2.486  10.982   4.969 -0.1001 -2.2760 -0.0050
  921MOL0     H24295   2.789  11.092   4.666  0.3458 -1.3238  0.5430
  921MOL0     H24296   2.716  11.069   4.432  1.8815 -2.5118 -0.6937
  921MOL0     H24297   2.541  10.694   4.169 -3.0035  3.2123  1.0907
  921MOL0     H24298   2.545  10.629   3.914  0.9257 -0.0408 -3.2883
  921MOL0     H24299   2.483  10.692   3.639  0.2296  0.7066 -2.2564
  921MOL0     H24300   2.466  10.855   3.705  1.6102 -0.3473  3.6547
  921MOL0     H24301   2.624  10.771   3.454 -1.7095  1.1655 -4.4558
  921MOL0     H24302   2.473  10.855   3.458  0.0269 -2.9969  0.4271
  921MOL0     H24303   2.628  11.023   3.615 -3.2769 -2.7603  1.0377
  921MOL0     H24304   2.762  10.950   3.522  0.9448  1.8710 -0.4542
  921MOL0     H24305   2.526  11.112   3.399 -0.7842 -1.7928 -0.5370
  921MOL0     H24306   2.612  10.988   3.318 -2.6635  1.2579 -1.6482
  921MOL0     H24307   2.826  11.101   3.371  0.2276 -0.1627 -0.8138
  921MOL0     H24308   2.733  11.243   3.438  1.4915  1.6854 -2.1816
  921MOL0     H24309   2.818  11.279   3.212  0.2637  0.2762 -0.5096
  921MOL0     H24310   2.738  11.146   3.149  2.7165  0.5175  0.3318
  921MOL0     H24311   2.564  11.368   3.284 -3.3858 -1.0257  0.4162
  921MOL0     H24312   2.513  11.240   3.179  1.6500 -1.0919 -2.5741
  921MOL0     H24313   2.704  11.457   3.085 -1.0428  0.3139  1.9129
  921MOL0     H24314   2.582  11.348   2.991 -0.0285  1.0990 -1.4009
  921MOL0     H24315   2.720  11.016   3.848  0.1658 -0.5771 -0.9626
  921MOL0     H24316   2.728  11.066   4.084  0.2554 -0.0652 -1.4910
  921MOL0     H24317   2.388  10.817   4.585  0.2735 -0.2556  1.0721
  921MOL0     H24318   2.458  10.853   4.806  0.2691  0.1702  0.8008
  921MOL0     H24319   1.419  10.045   5.511  0.4520  1.4872 -1.0685
  921MOL0     H24320   1.185   9.938   5.483  0.1551  1.5686  0.5574
  921MOL0     H24321   0.777   9.994   5.254  1.1441 -0.8298  0.4602
  921MOL0     H24322   0.551   9.911   5.242  1.6687  1.5144 -0.7116
  921MOL0     H24323   0.472   9.446   5.234  0.8667 -0.5185 -0.6400
  921MOL0     H24324   0.455   9.551   5.094  0.1835  0.8511  0.8815
  921MOL0     H24325   0.255   9.472   5.118  1.5269 -0.4535 -0.3099
  921MOL0     H24326   0.221   9.631   5.192 -0.8186  0.3604 -1.1631
  921MOL0     H24327   0.106   9.493   5.334 -0.3384 -1.2693 -1.4160
  921MOL0     H24328   0.238   9.547   5.424 -1.7498 -1.3190  1.3425
  921MOL0     H24329   0.258   9.271   5.281  2.1761 -1.6487  1.7012
  921MOL0     H24330   0.356   9.324   5.405  1.6301 -3.7751 -4.1295
  921MOL0     H24331   0.048   9.201   5.648  1.2411 -1.5774  0.9688
  921MOL0     H24332   0.681   9.505   5.261 -0.3411  0.2490  3.4880
  921MOL0     H24333   1.000   9.551   5.155  0.5238 -2.1466 -0.4752
  921MOL0     H24334   1.019   9.537   5.331  2.6555  2.4086 -1.6648
  921MOL0     H24335   0.902   9.441   5.245  2.1773 -1.1743  0.0275
  922MOL0     O24336   8.941   2.073   1.701 -0.0230 -0.0275  0.3015
  922MOL0     C24337   8.879   2.086   1.811 -0.3926  0.5756  0.4436
  922MOL0     O24338   8.905   2.189   1.904  0.1938  0.0994 -0.9769
  922MOL0     C24339   9.033   2.242   1.891 -0.1088 -0.2982  0.6337
  922MOL0     C24340   9.064   2.371   1.830  0.1206  1.0169  0.0056
  922MOL0     C24341   9.198   2.414   1.824  0.4718  0.1190 -0.2371
  922MOL0     C24342   9.304   2.333   1.877 -0.5770 -0.7926  0.3266
  922MOL0     O24343   9.428   2.391   1.891  0.5918 -0.5048  0.2205
  922MOL0     C24344   9.484   2.500   1.806 -0.5714 -0.7686  0.1687
  922MOL0     C24345   9.632   2.511   1.816  0.1908 -0.5839 -0.3465
  922MOL0     C24346   9.675   2.573   1.943 -0.0424 -0.3934  0.6975
  922MOL0     C24347   9.824   2.599   1.936 -0.4518 -0.5192  1.0705
  922MOL0     C24348   9.874   2.653   2.068  0.2747  0.1913  0.3927
  922MOL0     C24349   9.844   2.800   2.104  0.3361 -0.5579  0.5652
  922MOL0     C24350   9.903   2.842   2.242  0.1118  0.5567 -0.7404
  922MOL0     C24351  10.051   2.827   2.250  0.3483 -1.5878 -0.2236
  922MOL0     N24352  10.109   2.913   2.359 -0.3020 -0.0938  0.8175
  922MOL0     C24353  10.152   2.877   2.490  0.5786 -0.2816 -1.1087
  922MOL0     C24354  10.240   2.976   2.514 -0.0666  0.4384  1.3139
  922MOL0     C24355  10.318   2.985   2.639 -0.4769  0.2256  0.1395
  922MOL0     C24356  10.445   2.908   2.634  0.2306  0.6650  1.2262
  922MOL0     C24357  10.552   2.967   2.552  0.8768 -0.1584 -0.1413
  922MOL0     C24358  10.549   2.949   2.395 -0.3609  0.9294  0.3286
  922MOL0     O24359  10.501   2.820   2.358 -0.0233  0.2324 -0.4964
  922MOL0     C24360  10.577   2.712   2.390 -0.4039 -0.6526  0.0158
  922MOL0     C24361  10.510   2.600   2.429  0.1999  0.1014 -0.6476
  922MOL0     C24362  10.579   2.483   2.462  0.2431 -0.7689  0.7556
  922MOL0     C24363  10.716   2.477   2.448  0.4736 -0.6194 -1.0315
  922MOL0     C24364  10.789   2.353   2.456 -0.2225  0.3123 -0.2322
  922MOL0     O24365  10.896   2.330   2.386  0.2920  0.1722  0.6795
  922MOL0     C24366  10.945   2.203   2.371  0.2471 -0.3860  0.0933
  922MOL0     C24367  11.088   2.180   2.368 -0.2130  0.4800 -0.2025
  922MOL0     C24368  11.129   2.055   2.326  0.3101  0.0708 -0.1439
  922MOL0     C24369  11.042   1.954   2.291  0.4434 -0.4484  0.3092
  922MOL0     O24370  11.095   1.837   2.251  0.2493  0.6386 -0.0885
  922MOL0     C24371  11.066   1.718   2.324 -0.6658  0.5187  0.6510
  922MOL0     C24372  11.187   1.666   2.406 -0.6293 -0.5485 -1.3597
  922MOL0     C24373  11.309   1.655   2.312  0.2381 -0.0227 -0.1376
  922MOL0     C24374  11.305   1.528   2.229  0.3514 -0.7803  0.5310
  922MOL0     C24375  11.437   1.510   2.152 -0.6646  0.4204  0.5705
  922MOL0     C24376  11.550   1.466   2.244  0.0357  0.0204 -0.5678
  922MOL0     C24377  11.677   1.427   2.164 -0.1596  0.2951 -0.6755
  922MOL0     C24378  11.799   1.513   2.194 -0.6696  0.3530 -0.6305
  922MOL0    Cl24379  11.851   1.500   2.369  0.1979 -0.1544 -0.1292
  922MOL0     C24380  10.902   1.986   2.278 -0.4094  0.6887  0.3872
  922MOL0     C24381  10.847   2.103   2.316 -0.7579 -0.2053 -1.1780
  922MOL0     O24382  10.724   2.263   2.517  0.0029 -0.2060  0.2040
  922MOL0     C24383  10.786   2.595   2.425  0.3076 -0.6259  0.9061
  922MOL0     C24384  10.717   2.713   2.390  0.0254  0.5090 -0.5015
  922MOL0     N24385  10.251   3.070   2.408 -0.3997 -0.4662  0.5063
  922MOL0     N24386  10.170   3.028   2.319  0.1566 -0.0750  0.2213
  922MOL0     C24387   9.270   2.203   1.929 -0.4882 -0.3970 -0.0302
  922MOL0     C24388   9.146   2.158   1.927  0.5742  0.1200  0.4680
  922MOL0     C24389   8.755   2.008   1.824 -1.3578 -0.2406  0.5790
  922MOL0     C24390   8.657   2.055   1.907  0.4719  1.0441 -0.2183
  922MOL0     C24391   8.538   1.984   1.932  1.1620 -0.6386  0.0449
  922MOL0     C24392   8.520   1.865   1.859  0.1851 -0.4945 -0.7768
  922MOL0     O24393   8.413   1.774   1.880 -0.0400  0.0238  0.6298
  922MOL0     C24394   8.279   1.814   1.919 -0.2127  1.0606  0.3282
  922MOL0     C24395   8.234   1.936   1.832 -0.1340  0.5373 -0.0140
  922MOL0     C24396   8.223   1.915   1.681 -0.4923 -1.2891 -0.0399
  922MOL0     C24397   8.143   1.795   1.647 -0.3214 -1.1126 -0.2760
  922MOL0     C24398   8.004   1.813   1.686 -0.2658  0.0820  1.0591
  922MOL0     C24399   7.889   1.824   1.712  0.1029  1.6902  0.4402
  922MOL0     C24400   8.620   1.813   1.778 -0.2669  0.1791 -0.5905
  922MOL0     C24401   8.742   1.884   1.761  0.0524  1.1626 -0.1377
  922MOL0     C24402   8.848   1.800   1.688  0.0792 -0.3815 -0.9209
  922MOL0     H24403   8.994   2.433   1.775 -3.8610 -2.0271  1.2182
  922MOL0     H24404   9.212   2.517   1.794  2.5787  1.1668  3.6059
  922MOL0     H24405   9.455   2.482   1.702  0.2568  0.0568 -0.2237
  922MOL0     H24406   9.441   2.595   1.838 -2.0340 -1.4506  0.3282
  922MOL0     H24407   9.668   2.577   1.736  0.3124 -0.0928  0.1109
  922MOL0     H24408   9.668   2.407   1.822 -2.6038 -1.5464  1.6044
  922MOL0     H24409   9.658   2.491   2.013 -0.1988 -1.1742 -0.2198
  922MOL0     H24410   9.626   2.668   1.966  0.1997 -0.6336  2.3315
  922MOL0     H24411   9.880   2.507   1.917 -1.3118 -0.7009 -0.8507
  922MOL0     H24412   9.857   2.665   1.855  2.0406  0.8704  3.1047
  922MOL0     H24413   9.830   2.588   2.145 -0.2341  1.4143  1.1702
  922MOL0     H24414   9.983   2.640   2.071  0.1838 -0.5387  2.1747
  922MOL0     H24415   9.881   2.861   2.021  0.4763  1.9419  2.3651
  922MOL0     H24416   9.737   2.815   2.115  0.4156  0.6091 -0.0803
  922MOL0     H24417   9.852   2.786   2.321 -2.0393 -0.5523 -2.8195
  922MOL0     H24418   9.865   2.944   2.250 -1.2607  0.0909 -1.0897
  922MOL0     H24419  10.079   2.723   2.265  3.4027 -0.6690  1.4173
  922MOL0     H24420  10.097   2.862   2.157 -1.3729  0.5270 -0.3560
  922MOL0     H24421  10.114   2.794   2.549 -0.5916  0.7634 -0.3314
  922MOL0     H24422  10.336   3.091   2.662 -1.6650  0.8731 -1.6581
  922MOL0     H24423  10.258   2.950   2.723 -0.5870 -0.4382 -0.2074
  922MOL0     H24424  10.474   2.904   2.739 -1.0951  2.4607  1.6971
  922MOL0     H24425  10.436   2.805   2.598  1.9340  1.6778 -2.6266
  922MOL0     H24426  10.641   2.908   2.577 -0.5490 -3.8592 -2.8445
  922MOL0     H24427  10.567   3.072   2.579  1.8654 -0.4394  0.4550
  922MOL0     H24428  10.646   2.972   2.351 -0.1246  1.1630  0.9724
  922MOL0     H24429  10.485   3.019   2.341 -0.8264  0.6065  0.4514
  922MOL0     H24430  10.402   2.599   2.418  0.3617 -0.8061 -2.7281
  922MOL0     H24431  10.531   2.394   2.502  3.6838 -1.8380  2.9977
  922MOL0     H24432  11.158   2.262   2.383  1.9733 -1.4078  0.5368
  922MOL0     H24433  11.237   2.048   2.310  0.3458  2.2622 -1.2432
  922MOL0     H24434  10.972   1.734   2.378 -0.8409  0.0831  0.4809
  922MOL0     H24435  11.036   1.639   2.254 -1.3645  0.1925  1.3032
  922MOL0     H24436  11.208   1.732   2.491 -1.1905  0.6564 -2.1362
  922MOL0     H24437  11.165   1.567   2.448 -0.5130  0.4238  1.1809
  922MOL0     H24438  11.319   1.740   2.244 -0.3400 -0.9187 -1.3719
  922MOL0     H24439  11.389   1.650   2.387 -0.5444 -0.7376  0.6787
  922MOL0     H24440  11.212   1.537   2.171  0.2620  1.9948  0.9763
  922MOL0     H24441  11.297   1.441   2.294 -2.5377  0.4617  2.0457
  922MOL0     H24442  11.473   1.601   2.104 -0.3315  0.6839  1.3096
  922MOL0     H24443  11.420   1.444   2.067  0.7346  0.2386  0.4244
  922MOL0     H24444  11.576   1.542   2.318 -1.4825 -2.0052  2.2462
  922MOL0     H24445  11.521   1.379   2.304 -0.4466  0.9523  0.5772
  922MOL0     H24446  11.650   1.438   2.059  2.5604  2.6194 -1.2593
  922MOL0     H24447  11.703   1.322   2.177  2.3857  1.1323  2.3027
  922MOL0     H24448  11.876   1.478   2.125  1.7868 -0.8534  2.4640
  922MOL0     H24449  11.776   1.618   2.174 -1.4143  0.7721  2.0705
  922MOL0     H24450  10.834   1.936   2.211  0.9135 -0.4939 -0.1305
  922MOL0     H24451  10.745   2.138   2.302 -1.1007 -0.0540  1.2224
  922MOL0     H24452  10.891   2.608   2.399 -0.7225  1.4264 -2.9738
  922MOL0     H24453  10.786   2.792   2.360  1.5681 -1.7132 -3.3668
  922MOL0     H24454   9.340   2.135   1.978  0.3833  2.1981  2.5797
  922MOL0     H24455   9.112   2.062   1.965 -3.0681  0.8563 -0.4849
  922MOL0     H24456   8.674   2.141   1.972 -2.0350  0.6799  1.0399
  922MOL0     H24457   8.478   2.033   2.008  0.5958 -0.4681 -0.5058
  922MOL0     H24458   8.292   1.844   2.024  1.0056 -2.0943  1.1985
  922MOL0     H24459   8.214   1.726   1.924 -0.4722  1.3026  4.2656
  922MOL0     H24460   8.285   2.030   1.851 -2.5275  1.5880  1.8400
  922MOL0     H24461   8.129   1.960   1.851 -0.5712  0.6817 -2.3307
  922MOL0     H24462   8.328   1.899   1.654  0.2352 -1.5030  2.6492
  922MOL0     H24463   8.183   2.003   1.630  0.2496 -1.9051 -1.7563
  922MOL0     H24464   8.150   1.781   1.539  0.8379 -1.8827 -0.1104
  922MOL0     H24465   8.187   1.711   1.701 -0.6602  0.5704  2.8900
  922MOL0     H24466   7.787   1.852   1.729 -1.0552 -2.0526  0.5700
  922MOL0     H24467   8.591   1.717   1.736 -1.3731  0.3446 -0.2304
  922MOL0     H24468   8.849   1.692   1.705 -1.3519 -0.0210  2.0832
  922MOL0     H24469   8.840   1.809   1.579  1.8120 -2.8957 -1.3316
  922MOL0     H24470   8.951   1.828   1.713  0.5586 -2.7307 -0.0298
  923MOL0     O24471   6.597  11.331   0.396 -0.1962  0.2719 -0.4559
  923MOL0     C24472   6.692  11.407   0.380  1.5836 -0.3966 -0.4671
  923MOL0     O24473   6.683  11.552   0.376 -0.0280  0.5555 -0.2719
  923MOL0     C24474   6.553  11.603   0.395 -0.2208  0.7827 -0.2488
  923MOL0     C24475   6.465  11.652   0.298  0.0003 -0.2776 -0.1574
  923MOL0     C24476   6.336  11.700   0.331  0.5261 -0.5850 -0.1035
  923MOL0     C24477   6.288  11.714   0.458 -0.3854 -0.8284  0.2386
  923MOL0     O24478   6.173  11.783   0.485  0.1209 -0.1754  1.3404
  923MOL0     C24479   6.074  11.726   0.573  0.6121 -0.2123  0.3721
  923MOL0     C24480   5.936  11.794   0.570 -0.6442  1.3070  0.3179
  923MOL0     C24481   5.846  11.727   0.683 -1.2692 -0.4488 -0.6337
  923MOL0     C24482   5.700  11.769   0.662 -0.2714  0.2124  0.0653
  923MOL0     C24483   5.597  11.697   0.762 -0.2436  0.1236  0.3510
  923MOL0     C24484   5.622  11.762   0.899 -0.1187  0.2064 -0.8717
  923MOL0     C24485   5.546  11.688   0.997 -0.2937 -1.1509 -0.2772
  923MOL0     C24486   5.540  11.745   1.140  0.4128  0.3711  0.1928
  923MOL0     N24487   5.674  11.758   1.190 -0.5597 -0.0962 -0.2850
  923MOL0     C24488   5.748  11.869   1.187  0.5246 -0.5298  0.3954
  923MOL0     C24489   5.868  11.831   1.228 -0.5979  0.0694 -0.2853
  923MOL0     C24490   5.987  11.917   1.254  0.5619  0.2966 -0.5686
  923MOL0     C24491   6.088  11.915   1.133  0.0441  0.4627  0.2785
  923MOL0     C24492   6.019  11.958   0.999 -0.7202  0.3950 -0.2456
  923MOL0     C24493   6.111  11.961   0.885 -1.0021 -0.3589  1.1705
  923MOL0     O24494   6.181  12.088   0.887  0.1047  0.4206  0.5527
  923MOL0     C24495   6.277  12.110   0.793  0.5416  1.3565 -0.6255
  923MOL0     C24496   6.282  12.049   0.666 -0.1037  0.4973  0.4972
  923MOL0     C24497   6.405  12.053   0.594 -0.2195 -0.2318 -0.0894
  923MOL0     C24498   6.505  12.134   0.627  0.4924 -0.6458 -0.2323
  923MOL0     C24499   6.619  12.148   0.539 -0.3215  0.4634  0.2826
  923MOL0     O24500   6.635  12.042   0.449  0.0225 -0.2763  0.1954
  923MOL0     C24501   6.757  12.023   0.380  1.3459  1.0298  0.2850
  923MOL0     C24502   6.779  11.887   0.333 -0.0520 -1.8896 -0.3305
  923MOL0     C24503   6.892  11.848   0.270 -0.1776  0.7190 -0.2510
  923MOL0     C24504   6.986  11.944   0.232 -0.3021 -0.1453 -1.0676
  923MOL0     O24505   7.107  11.927   0.169  0.4084  0.5277  0.0060
  923MOL0     C24506   7.191  11.818   0.221  0.0211  0.1756 -0.4352
  923MOL0     C24507   7.212  11.809   0.370 -0.5221 -0.4609 -0.0809
  923MOL0     C24508   7.287  11.685   0.418 -0.3179  1.1386 -1.0126
  923MOL0     C24509   7.445  11.719   0.414 -0.2904 -0.3114 -0.3110
  923MOL0     C24510   7.524  11.610   0.475  0.1318 -0.2917  0.2364
  923MOL0     C24511   7.662  11.661   0.511  1.0182 -0.2144 -0.3457
  923MOL0     C24512   7.756  11.542   0.510  0.8191 -0.2236 -0.3466
  923MOL0     C24513   7.903  11.574   0.552  0.4938 -0.1864  0.5746
  923MOL0    Cl24514   7.967  11.673   0.419 -0.1269 -0.4214  0.0450
  923MOL0     C24515   6.960  12.078   0.273 -0.1408  0.0207 -0.0429
  923MOL0     C24516   6.851  12.120   0.348 -0.0780  0.1641  0.0111
  923MOL0     O24517   6.692  12.244   0.551  0.2062 -0.4664  0.4530
  923MOL0     C24518   6.485  12.218   0.735 -0.4638  0.2644  0.1331
  923MOL0     C24519   6.381  12.197   0.827 -0.4595 -0.7045  0.8458
  923MOL0     N24520   5.875  11.701   1.247 -0.4185 -0.2855 -0.8281
  923MOL0     N24521   5.764  11.654   1.229  0.6491 -0.8159  0.2271
  923MOL0     C24522   6.375  11.662   0.554 -0.5772 -0.1671 -0.0474
  923MOL0     C24523   6.499  11.605   0.530 -0.7635 -0.5788  0.1800
  923MOL0     C24524   6.829  11.361   0.390  0.1603  0.5873  1.1306
  923MOL0     C24525   6.925  11.448   0.452 -1.0760  1.2569  1.1359
  923MOL0     C24526   7.058  11.403   0.464  0.8784  0.1725 -0.4506
  923MOL0     C24527   7.104  11.278   0.424 -0.1009 -0.2629  0.4597
  923MOL0     O24528   7.226  11.233   0.460  0.0824 -0.0158  0.2355
  923MOL0     C24529   7.298  11.294   0.575 -0.3505 -0.3243 -0.6301
  923MOL0     C24530   7.399  11.186   0.622 -0.0943  0.2021 -0.4059
  923MOL0     C24531   7.529  11.254   0.674  0.3122  0.5130 -0.1378
  923MOL0     C24532   7.607  11.156   0.768  0.3819  0.0476 -0.5387
  923MOL0     C24533   7.644  11.019   0.711 -0.6041 -0.6087  0.1597
  923MOL0     C24534   7.695  10.910   0.677  0.3611  0.7437  0.1525
  923MOL0     C24535   7.010  11.205   0.352 -0.2681  0.3205  0.1450
  923MOL0     C24536   6.874  11.238   0.341  0.0249  1.0151  0.3402
  923MOL0     C24537   6.778  11.134   0.290 -0.6894 -0.7361 -0.2437
  923MOL0     H24538   6.481  11.642   0.191  1.5700 -1.0755  0.1183
  923MOL0     H24539   6.266  11.723   0.251  0.3163  0.6356  0.4177
  923MOL0     H24540   6.060  11.620   0.548  1.2896 -0.2532  0.1495
  923MOL0     H24541   6.117  11.727   0.674  1.3298 -1.2622  0.1007
  923MOL0     H24542   5.891  11.782   0.471 -1.3089  1.4961  0.5894
  923MOL0     H24543   5.935  11.900   0.594 -3.9316  1.4960 -0.2051
  923MOL0     H24544   5.890  11.761   0.777  0.4574 -0.3508 -1.4472
  923MOL0     H24545   5.843  11.618   0.694  4.0940 -0.6482  3.3380
  923MOL0     H24546   5.707  11.878   0.669  0.0478  0.1466  0.9728
  923MOL0     H24547   5.685  11.744   0.557 -0.4377  1.6807 -0.2826
  923MOL0     H24548   5.491  11.715   0.737 -0.8576 -0.1172  2.5540
  923MOL0     H24549   5.624  11.592   0.751  0.0216  0.0639  1.4032
  923MOL0     H24550   5.723  11.749   0.941 -0.7274  0.5075  0.7809
  923MOL0     H24551   5.605  11.870   0.897  0.6311  0.4166  1.1014
  923MOL0     H24552   5.590  11.589   1.003  2.7422  0.1606  1.2661
  923MOL0     H24553   5.440  11.678   0.971 -1.6335  3.2722  2.3122
  923MOL0     H24554   5.502  11.847   1.149 -2.3527 -0.6484  1.5861
  923MOL0     H24555   5.470  11.679   1.193  0.4887 -2.0370 -2.4687
  923MOL0     H24556   5.710  11.969   1.165 -1.2769 -1.4086 -0.6969
  923MOL0     H24557   5.971  12.021   1.283  3.9302 -0.5422  6.7116
  923MOL0     H24558   6.043  11.885   1.343 -1.0701  2.1007  1.1903
  923MOL0     H24559   6.168  11.986   1.156  1.2331 -0.8728  0.3726
  923MOL0     H24560   6.139  11.819   1.122  0.9981  0.9473  0.3945
  923MOL0     H24561   5.977  12.060   1.000 -4.1359 -0.8786  0.3338
  923MOL0     H24562   5.945  11.884   0.968 -1.4764  0.2721  1.7147
  923MOL0     H24563   6.052  11.947   0.795  1.0647 -1.6565 -0.0665
  923MOL0     H24564   6.188  11.884   0.893  0.6251  1.3310  3.2847
  923MOL0     H24565   6.204  11.992   0.616  0.2234 -1.1222  1.7406
  923MOL0     H24566   6.414  11.985   0.510  2.3653  0.0912 -0.1531
  923MOL0     H24567   6.704  11.812   0.357 -2.4190  0.9788  2.0007
  923MOL0     H24568   6.888  11.743   0.243 -4.8588  0.5628  0.3024
  923MOL0     H24569   7.161  11.716   0.193  1.4693  0.0618 -1.7256
  923MOL0     H24570   7.284  11.831   0.165  1.7801  2.8333  2.8035
  923MOL0     H24571   7.278  11.890   0.403  0.4574 -2.1601  2.4119
  923MOL0     H24572   7.117  11.820   0.424 -0.8034 -1.2047 -0.4181
  923MOL0     H24573   7.259  11.664   0.522  1.6292  0.4455 -0.5878
  923MOL0     H24574   7.275  11.585   0.375  2.4350 -0.0301  0.6079
  923MOL0     H24575   7.472  11.807   0.472 -0.4415 -2.2890  2.9636
  923MOL0     H24576   7.477  11.735   0.310 -1.0463  0.6127 -0.4141
  923MOL0     H24577   7.534  11.520   0.413 -0.5495 -0.3437  0.1896
  923MOL0     H24578   7.488  11.578   0.573  3.1748 -2.6917  0.7187
  923MOL0     H24579   7.688  11.737   0.437 -0.6374 -0.0327 -0.7869
  923MOL0     H24580   7.662  11.716   0.606  0.8282 -0.4648 -0.2001
  923MOL0     H24581   7.746  11.496   0.411 -2.0318 -1.6049  0.4655
  923MOL0     H24582   7.719  11.474   0.587  0.0682  0.6881  0.1231
  923MOL0     H24583   7.906  11.628   0.647 -2.2914 -1.9594  1.8121
  923MOL0     H24584   7.963  11.486   0.576  1.4567  0.0275 -0.8973
  923MOL0     H24585   7.035  12.154   0.252  0.7090 -1.1503 -1.4909
  923MOL0     H24586   6.831  12.221   0.381  0.3719  0.1209  0.4320
  923MOL0     H24587   6.563  12.288   0.763 -1.6345  1.9846 -0.7048
  923MOL0     H24588   6.358  12.247   0.920 -3.4887  0.2449 -0.2805
  923MOL0     H24589   6.338  11.660   0.656 -1.9434  0.4542 -0.5068
  923MOL0     H24590   6.570  11.572   0.605  0.1166 -1.2179 -0.8867
  923MOL0     H24591   6.891  11.543   0.492  0.4687  1.9858  0.8024
  923MOL0     H24592   7.127  11.465   0.520 -1.6567  1.4179  1.4936
  923MOL0     H24593   7.238  11.316   0.664  0.5612 -2.1772  0.5276
  923MOL0     H24594   7.349  11.389   0.560 -2.6119  0.9812 -0.5869
  923MOL0     H24595   7.416  11.110   0.545 -2.1671 -1.6965  0.8929
  923MOL0     H24596   7.345  11.125   0.694  0.8995  0.1151  0.2940
  923MOL0     H24597   7.513  11.350   0.725  0.8509  1.8520 -2.3483
  923MOL0     H24598   7.596  11.273   0.590  2.4841 -0.9071  1.1765
  923MOL0     H24599   7.701  11.209   0.785  1.3111 -1.9501  0.9353
  923MOL0     H24600   7.548  11.138   0.859  2.3308  1.6765  1.1518
  923MOL0     H24601   7.751  10.835   0.626  1.3776  1.8140 -0.3577
  923MOL0     H24602   7.033  11.108   0.310  3.0023  1.3782 -0.8623
  923MOL0     H24603   6.724  11.110   0.383 -1.0754 -0.0082 -0.2719
  923MOL0     H24604   6.700  11.177   0.227  1.6744  3.0465 -0.8742
  923MOL0     H24605   6.821  11.038   0.259  1.5048  0.5099 -1.2411
  924MOL0     O24606   3.927   1.621   2.050 -0.0322  0.0973  0.5611
  924MOL0     C24607   3.897   1.646   1.933  0.1084  0.1654  0.4707
  924MOL0     O24608   3.958   1.604   1.818  0.5336 -0.5917  0.2746
  924MOL0     C24609   4.044   1.503   1.799 -0.1772  0.3572  0.2945
  924MOL0     C24610   4.100   1.425   1.903  0.6235 -0.0316 -0.0693
  924MOL0     C24611   4.175   1.312   1.859 -0.8311  0.2661  0.6411
  924MOL0     C24612   4.206   1.292   1.726 -0.5575  0.3973 -0.1257
  924MOL0     O24613   4.281   1.193   1.679  0.3456  0.2352 -0.5668
  924MOL0     C24614   4.196   1.073   1.667  0.2966 -0.6192  0.2132
  924MOL0     C24615   4.278   0.969   1.588 -0.3810  0.4522 -0.8378
  924MOL0     C24616   4.284   1.004   1.442  0.5944  1.0448  0.5509
  924MOL0     C24617   4.370   0.906   1.358  0.0805  1.0467 -0.2992
  924MOL0     C24618   4.518   0.920   1.374  0.5802  1.0831  0.2507
  924MOL0     C24619   4.591   0.808   1.284  0.2138 -0.2877 -0.2014
  924MOL0     C24620   4.742   0.810   1.298 -0.0449  0.3470  0.7510
  924MOL0     C24621   4.804   0.932   1.229  0.5522  0.5357 -0.4887
  924MOL0     N24622   4.955   0.931   1.239  0.1549  0.1802 -0.5604
  924MOL0     C24623   5.030   0.935   1.357  0.2559  0.7264 -0.0435
  924MOL0     C24624   5.156   0.920   1.316 -0.5306 -0.4178 -0.4876
  924MOL0     C24625   5.265   0.919   1.421  0.2310  0.0237 -0.1456
  924MOL0     C24626   5.249   0.797   1.511  0.2368  0.6911 -0.3650
  924MOL0     C24627   5.304   0.817   1.650 -0.0138 -0.2694 -0.4577
  924MOL0     C24628   5.452   0.804   1.659 -1.1057  0.1612  0.0046
  924MOL0     O24629   5.506   0.673   1.619 -0.3999 -0.2470 -0.5988
  924MOL0     C24630   5.642   0.671   1.610  0.0093 -0.4177  1.0074
  924MOL0     C24631   5.717   0.610   1.710  0.2580 -0.4279 -0.7942
  924MOL0     C24632   5.862   0.620   1.702  0.4349 -0.1804  0.0891
  924MOL0     C24633   5.937   0.689   1.600  0.7651 -0.2624 -0.1418
  924MOL0     C24634   6.085   0.677   1.591  0.2412  0.3261 -0.9295
  924MOL0     O24635   6.141   0.614   1.704 -0.4003  0.0760 -0.8856
  924MOL0     C24636   6.280   0.630   1.703 -0.6682  0.3966 -0.6530
  924MOL0     C24637   6.354   0.751   1.708 -0.0281  0.3508  0.2541
  924MOL0     C24638   6.490   0.757   1.724 -0.9013  0.1474  0.6480
  924MOL0     C24639   6.559   0.647   1.765  0.3946  1.4734 -0.5886
  924MOL0     O24640   6.694   0.637   1.785 -0.6080 -0.4161 -0.3804
  924MOL0     C24641   6.766   0.760   1.822  0.1582 -0.3388  0.8929
  924MOL0     C24642   6.719   0.826   1.953  0.6142 -0.2653  0.1377
  924MOL0     C24643   6.799   0.954   1.966  0.2687  0.1704 -0.7324
  924MOL0     C24644   6.772   1.041   2.092 -0.6723  0.5238  0.3588
  924MOL0     C24645   6.630   1.084   2.109 -0.0902 -0.7170  0.4146
  924MOL0     C24646   6.576   1.161   1.988  0.0644 -0.1442 -0.5047
  924MOL0     C24647   6.434   1.221   2.014  0.0987 -0.3083 -0.7753
  924MOL0     C24648   6.317   1.110   2.038  0.9468 -0.2069 -0.7791
  924MOL0    Cl24649   6.152   1.169   1.996  0.1629  0.0994  0.2057
  924MOL0     C24650   6.483   0.523   1.762 -0.5838 -0.6966  0.5025
  924MOL0     C24651   6.345   0.512   1.734 -0.5487  0.5995  0.4125
  924MOL0     O24652   6.131   0.690   1.477 -0.1537 -0.5400  0.1240
  924MOL0     C24653   5.854   0.751   1.506  0.1183 -0.5234  0.3417
  924MOL0     C24654   5.711   0.744   1.502 -0.6409  0.4133 -0.1920
  924MOL0     N24655   5.160   0.893   1.183  0.4293 -0.5009  0.3343
  924MOL0     N24656   5.041   0.895   1.136  0.6796 -0.0524 -0.1974
  924MOL0     C24657   4.165   1.379   1.627 -0.8486  0.1111  0.2054
  924MOL0     C24658   4.072   1.476   1.664  0.4836 -0.1866  0.0800
  924MOL0     C24659   3.775   1.735   1.922  1.0306  0.9381  1.4905
  924MOL0     C24660   3.751   1.818   2.024  0.1657 -0.6245  0.1181
  924MOL0     C24661   3.633   1.893   2.030 -0.2603  0.0666  0.0136
  924MOL0     C24662   3.530   1.881   1.934  0.3156  0.0134  0.8249
  924MOL0     O24663   3.404   1.933   1.931 -0.5649 -0.0029 -0.9220
  924MOL0     C24664   3.370   2.014   2.046 -0.2060  0.3254  0.0622
  924MOL0     C24665   3.225   2.063   2.026  0.5888 -0.3812 -0.3936
  924MOL0     C24666   3.202   2.197   2.103 -0.3849 -0.4653  0.5339
  924MOL0     C24667   3.069   2.262   2.074  0.4011 -0.1611  0.3941
  924MOL0     C24668   3.060   2.332   1.947  0.1844 -0.1962  0.2046
  924MOL0     C24669   3.052   2.398   1.844  0.0551  0.4883 -0.1889
  924MOL0     C24670   3.555   1.801   1.827 -0.5431  0.0186  0.3079
  924MOL0     C24671   3.678   1.729   1.812  0.0543 -0.6181 -0.2606
  924MOL0     C24672   3.696   1.639   1.698  0.4635  0.1236 -0.0421
  924MOL0     H24673   4.080   1.455   2.005 -0.3301  2.3070 -0.8821
  924MOL0     H24674   4.221   1.241   1.927 -0.1084 -2.1346 -2.1221
  924MOL0     H24675   4.160   1.040   1.765  1.1345 -1.1654  0.3504
  924MOL0     H24676   4.106   1.083   1.606 -0.1263 -0.2105  0.8872
  924MOL0     H24677   4.238   0.869   1.604  1.5156 -0.1353  0.7654
  924MOL0     H24678   4.381   0.961   1.625 -1.3238 -0.0726  1.9068
  924MOL0     H24679   4.308   1.111   1.441  2.2752  0.6852  0.1629
  924MOL0     H24680   4.183   0.988   1.403  1.2437  1.5684 -1.4934
  924MOL0     H24681   4.326   0.809   1.384  1.6037  0.5053  0.3325
  924MOL0     H24682   4.351   0.924   1.251 -0.8295 -2.6857 -0.9142
  924MOL0     H24683   4.539   1.021   1.336  4.5366  0.4633  0.3487
  924MOL0     H24684   4.555   0.920   1.477 -2.5824 -1.6189  1.5885
  924MOL0     H24685   4.543   0.710   1.297 -6.2933  2.3837 -0.0156
  924MOL0     H24686   4.560   0.835   1.182 -0.1485 -0.4294 -0.1323
  924MOL0     H24687   4.778   0.709   1.275  0.4023  0.8615 -0.9425
  924MOL0     H24688   4.763   0.817   1.405  2.6135  2.6036  0.2090
  924MOL0     H24689   4.782   0.928   1.121  0.5745  2.0744 -0.5743
  924MOL0     H24690   4.762   1.027   1.262  2.5361  1.4553 -0.4673
  924MOL0     H24691   4.995   0.947   1.459  1.1605 -0.6887  0.4700
  924MOL0     H24692   5.359   0.921   1.366 -0.7471  2.9322 -2.0022
  924MOL0     H24693   5.248   1.010   1.480 -1.4544  0.0245 -0.5724
  924MOL0     H24694   5.152   0.750   1.528  1.5843 -1.8304  0.9279
  924MOL0     H24695   5.304   0.722   1.454 -2.7569 -2.5498  0.6852
  924MOL0     H24696   5.272   0.728   1.705  2.1136 -1.2767 -0.7712
  924MOL0     H24697   5.275   0.906   1.707  0.7701 -1.2416  1.5708
  924MOL0     H24698   5.486   0.819   1.762  1.1222  1.1907 -0.8026
  924MOL0     H24699   5.495   0.883   1.596 -0.5859  1.2077  1.6150
  924MOL0     H24700   5.648   0.569   1.783  0.5432  3.5168  1.9788
  924MOL0     H24701   5.919   0.555   1.768 -1.5622 -1.5699  0.5522
  924MOL0     H24702   6.318   0.853   1.698  2.6245  1.3418  0.0175
  924MOL0     H24703   6.542   0.852   1.717 -3.3318  1.6241  1.3509
  924MOL0     H24704   6.868   0.724   1.838  0.2954 -2.8429 -3.7846
  924MOL0     H24705   6.775   0.825   1.735  1.8437 -0.1503  1.1766
  924MOL0     H24706   6.611   0.845   1.956  1.0512  2.5579  3.0873
  924MOL0     H24707   6.737   0.759   2.038 -1.9458 -0.6541  0.4700
  924MOL0     H24708   6.904   0.924   1.958  1.1568  2.9822 -0.4532
  924MOL0     H24709   6.780   1.016   1.879 -2.5160 -2.3794 -2.1429
  924MOL0     H24710   6.849   1.118   2.088  0.5650 -0.6283  1.1244
  924MOL0     H24711   6.785   0.972   2.176  2.7276 -0.6689 -0.9559
  924MOL0     H24712   6.602   1.135   2.202 -3.1865 -1.8098  0.2232
  924MOL0     H24713   6.566   0.996   2.120 -1.5302 -0.0790 -2.0003
  924MOL0     H24714   6.642   1.241   1.953 -2.3307  0.3798 -4.5035
  924MOL0     H24715   6.569   1.088   1.906  2.8980 -1.9152  0.6886
  924MOL0     H24716   6.413   1.289   1.932  1.9117  2.0534  0.5836
  924MOL0     H24717   6.441   1.296   2.093  1.0253  1.7224 -2.6953
  924MOL0     H24718   6.336   1.036   1.960  3.4000  1.8815 -2.3212
  924MOL0     H24719   6.333   1.064   2.136 -0.5068 -0.9260 -0.8551
  924MOL0     H24720   6.538   0.440   1.806  3.2909  1.6717  0.6577
  924MOL0     H24721   6.304   0.412   1.749  0.4566 -0.1321 -1.4194
  924MOL0     H24722   5.913   0.797   1.427  0.2137  0.8111  1.1564
  924MOL0     H24723   5.664   0.798   1.419 -2.5135 -0.0865  0.4901
  924MOL0     H24724   4.187   1.362   1.522  2.4162  2.7400  0.2810
  924MOL0     H24725   4.025   1.545   1.595  1.7593 -1.5626 -2.3286
  924MOL0     H24726   3.821   1.827   2.106  3.1781 -2.0103 -2.1163
  924MOL0     H24727   3.644   1.964   2.112 -0.1723  0.0510  0.0151
  924MOL0     H24728   3.439   2.099   2.048 -1.4937  1.4175 -0.5777
  924MOL0     H24729   3.358   1.965   2.143  0.6411  2.3013  1.2178
  924MOL0     H24730   3.152   1.991   2.065  0.4692  0.1084  0.3081
  924MOL0     H24731   3.207   2.071   1.918  1.4327 -1.6048 -0.6476
  924MOL0     H24732   3.283   2.266   2.077  0.0890 -1.0410  0.4594
  924MOL0     H24733   3.216   2.174   2.209 -0.7314  1.4468  1.0374
  924MOL0     H24734   2.983   2.199   2.101  0.4745  0.0636  1.1683
  924MOL0     H24735   3.071   2.340   2.150  2.2139 -1.4072  1.7310
  924MOL0     H24736   3.054   2.461   1.758 -0.7280  0.6535 -0.0901
  924MOL0     H24737   3.468   1.810   1.763 -3.3987 -0.6488  3.7804
  924MOL0     H24738   3.784   1.655   1.636  2.5699 -2.5698  2.0276
  924MOL0     H24739   3.694   1.535   1.731 -1.7523  0.4035  0.9006
  924MOL0     H24740   3.628   1.660   1.615  2.1700  0.6372 -1.3682
  925MOL0     O24741   6.102   9.813   4.067  0.2804  0.2554 -0.7027
  925MOL0     C24742   6.154   9.906   4.008  0.6602 -0.2095  0.3185
  925MOL0     O24743   6.292   9.938   4.007  0.2260 -0.2185 -0.5292
  925MOL0     C24744   6.380   9.837   3.995  0.8717 -0.2842  0.0702
  925MOL0     C24745   6.352   9.718   3.924  0.3268  1.2515 -0.4832
  925MOL0     C24746   6.461   9.629   3.886 -0.4809 -0.4463  0.8203
  925MOL0     C24747   6.593   9.664   3.924 -0.1676 -0.1490 -0.1510
  925MOL0     O24748   6.694   9.584   3.890  0.2198  0.6276 -0.0833
  925MOL0     C24749   6.837   9.617   3.888  0.6150 -0.3982 -0.3291
  925MOL0     C24750   6.894   9.564   4.022 -0.2868 -0.7339  0.6360
  925MOL0     C24751   7.038   9.612   4.054 -0.4787  0.6316 -0.0257
  925MOL0     C24752   7.151   9.576   3.955  0.4009  0.3493  0.0068
  925MOL0     C24753   7.277   9.644   3.987 -1.0103  0.3829 -0.5670
  925MOL0     C24754   7.272   9.798   3.950  0.5734  0.3717 -0.4305
  925MOL0     C24755   7.413   9.850   3.914 -0.0728  0.6838  0.3060
  925MOL0     C24756   7.502   9.895   4.029 -0.5673  0.0518 -1.2494
  925MOL0     N24757   7.648   9.887   4.018 -0.3695 -0.3560  0.4606
  925MOL0     C24758   7.730   9.979   3.956  0.6583  0.9476  0.6933
  925MOL0     C24759   7.855   9.940   3.993  0.2514 -0.2658  1.1026
  925MOL0     C24760   7.980  10.019   3.956  0.1005  0.6172  1.4375
  925MOL0     C24761   8.024   9.941   3.828 -1.1816 -0.5355  0.7233
  925MOL0     C24762   8.141  10.006   3.756 -0.2139 -0.3386  0.6876
  925MOL0     C24763   8.281   9.970   3.810  1.2791 -0.4221 -0.1222
  925MOL0     O24764   8.374  10.037   3.724  0.0197  1.0582 -0.0904
  925MOL0     C24765   8.403   9.979   3.596  0.7460 -0.9685  1.1266
  925MOL0     C24766   8.337   9.861   3.544 -0.0728  0.0435 -0.1901
  925MOL0     C24767   8.362   9.823   3.417  0.0992  0.2084  0.6545
  925MOL0     C24768   8.457   9.885   3.339 -0.6864 -0.1296 -1.0351
  925MOL0     C24769   8.489   9.846   3.205  0.6322  0.5114  0.7583
  925MOL0     O24770   8.609   9.889   3.152 -0.7481  0.8357 -0.1605
  925MOL0     C24771   8.649   9.880   3.022  0.0922 -1.0181 -0.3173
  925MOL0     C24772   8.569   9.847   2.914 -0.5234 -0.5044  0.2939
  925MOL0     C24773   8.625   9.840   2.787  0.1083  0.9776 -0.0618
  925MOL0     C24774   8.758   9.856   2.760  0.2117  0.1399 -0.0679
  925MOL0     O24775   8.807   9.830   2.633  0.4205 -0.3435 -0.0155
  925MOL0     C24776   8.914   9.908   2.582  0.3565  0.3974 -0.1254
  925MOL0     C24777   8.965   9.841   2.455  0.2495  0.2848  0.1586
  925MOL0     C24778   9.069   9.724   2.481 -0.3915  0.4038 -0.4552
  925MOL0     C24779   9.135   9.680   2.350  0.2005 -0.2916 -0.5048
  925MOL0     C24780   9.246   9.579   2.372  0.3113  1.1167  0.3028
  925MOL0     C24781   9.208   9.444   2.436 -0.0878 -0.2896  0.5546
  925MOL0     C24782   9.321   9.330   2.415  1.5045 -0.2240  0.2980
  925MOL0     C24783   9.280   9.207   2.503  1.0501 -0.4319  0.5841
  925MOL0    Cl24784   9.370   9.065   2.459 -0.0718  0.0152 -0.0854
  925MOL0     C24785   8.842   9.880   2.875 -0.4180  0.8563  0.5678
  925MOL0     C24786   8.781   9.901   2.997 -0.2949  0.2464 -0.2247
  925MOL0     O24787   8.413   9.768   3.153 -0.2372 -0.3028 -0.2749
  925MOL0     C24788   8.516   9.997   3.388 -0.6188  0.2212  0.2979
  925MOL0     C24789   8.487  10.047   3.518 -0.2411 -0.4963 -0.3776
  925MOL0     N24790   7.852   9.830   4.062  0.2160  0.1327 -0.6790
  925MOL0     N24791   7.735   9.798   4.077  1.2184  0.5829  0.0031
  925MOL0     C24792   6.611   9.783   3.998  0.5021 -0.7771  1.2052
  925MOL0     C24793   6.506   9.869   4.030 -0.0927 -1.0592 -0.7205
  925MOL0     C24794   6.069  10.014   3.943 -0.0995  0.1872  0.4322
  925MOL0     C24795   6.107  10.144   3.962 -0.6661 -0.0612  0.2580
  925MOL0     C24796   6.048  10.250   3.899  0.2266 -0.2274  0.4674
  925MOL0     C24797   5.939  10.222   3.813  0.7106 -0.6609  0.2467
  925MOL0     O24798   5.856  10.319   3.756 -0.1227 -0.0274  0.1232
  925MOL0     C24799   5.909  10.428   3.674 -1.1321  0.1446  0.1026
  925MOL0     C24800   5.840  10.428   3.537 -0.9224 -0.2055  0.4112
  925MOL0     C24801   5.698  10.400   3.549  0.6829  0.3725  0.6824
  925MOL0     C24802   5.637  10.408   3.401  0.4236 -0.2327 -0.0354
  925MOL0     C24803   5.498  10.358   3.413 -0.1252 -0.8067  0.0884
  925MOL0     C24804   5.381  10.344   3.389  0.9618  0.4235  1.4462
  925MOL0     C24805   5.896  10.088   3.789 -0.3148  0.0339  0.8277
  925MOL0     C24806   5.960   9.982   3.854  0.0173 -0.3188 -0.9940
  925MOL0     C24807   5.923   9.842   3.822 -0.5256 -0.2384 -0.0595
  925MOL0     H24808   6.250   9.691   3.898  1.3667 -2.0607 -1.6176
  925MOL0     H24809   6.452   9.539   3.826 -0.5653  1.0049 -1.4750
  925MOL0     H24810   6.883   9.565   3.804  0.1057 -0.3239 -0.6577
  925MOL0     H24811   6.857   9.725   3.882 -0.2281 -0.1619  0.8357
  925MOL0     H24812   6.899   9.455   4.016  0.0193 -0.6883 -0.0187
  925MOL0     H24813   6.828   9.589   4.106 -1.0114 -3.1336  0.8566
  925MOL0     H24814   7.058   9.577   4.155 -2.6046  1.2807  0.6813
  925MOL0     H24815   7.046   9.721   4.057 -1.1862  0.6701  1.1464
  925MOL0     H24816   7.165   9.468   3.958 -3.1503 -0.2004  0.7589
  925MOL0     H24817   7.128   9.609   3.853  1.2196 -0.1968 -0.3633
  925MOL0     H24818   7.298   9.628   4.093  2.0013  2.0038 -0.8140
  925MOL0     H24819   7.352   9.593   3.925 -0.2963 -0.5988  1.0264
  925MOL0     H24820   7.198   9.819   3.872  0.1773 -1.2154 -0.5023
  925MOL0     H24821   7.246   9.868   4.030  0.8825 -0.1325  0.1170
  925MOL0     H24822   7.398   9.937   3.849  0.2700  2.8607  2.9669
  925MOL0     H24823   7.460   9.764   3.864 -2.1511  0.0627 -0.6827
  925MOL0     H24824   7.477   9.999   4.052 -2.1851  0.0640 -2.8143
  925MOL0     H24825   7.470   9.835   4.115  2.5656  0.1649  0.1029
  925MOL0     H24826   7.704  10.060   3.889 -1.4953  0.2424  0.5920
  925MOL0     H24827   7.949  10.122   3.935  0.7714  0.6835  0.7526
  925MOL0     H24828   8.056  10.011   4.034  1.2306  0.7942  0.3904
  925MOL0     H24829   8.062   9.841   3.853  1.6658  0.2209 -0.2215
  925MOL0     H24830   7.942   9.925   3.758  0.5704 -1.1920 -1.2832
  925MOL0     H24831   8.129  10.114   3.751  0.4194 -0.0745  3.2374
  925MOL0     H24832   8.135   9.972   3.653 -0.1510  1.6854 -0.0230
  925MOL0     H24833   8.305   9.863   3.805 -0.4039 -0.7764 -1.8959
  925MOL0     H24834   8.291   9.997   3.915 -1.9509 -1.2358  0.5168
  925MOL0     H24835   8.259   9.807   3.596  0.5032 -0.3753  0.2451
  925MOL0     H24836   8.323   9.732   3.372 -0.0799 -1.4106  3.7756
  925MOL0     H24837   8.463   9.828   2.927 -0.2289 -3.0027 -0.4029
  925MOL0     H24838   8.560   9.805   2.708  2.6878 -1.4231 -1.2914
  925MOL0     H24839   8.882  10.010   2.559  0.9574  0.5910 -0.1223
  925MOL0     H24840   9.007   9.912   2.640  1.7083 -1.8669 -1.9854
  925MOL0     H24841   8.884   9.787   2.404 -0.3924 -0.2856  1.7087
  925MOL0     H24842   9.009   9.928   2.404 -0.9797  2.0245  1.9140
  925MOL0     H24843   9.147   9.758   2.550  1.0143 -0.8536 -1.3680
  925MOL0     H24844   9.013   9.639   2.522  1.9824 -0.0862  2.1489
  925MOL0     H24845   9.190   9.765   2.307  1.6186 -0.5597  0.6969
  925MOL0     H24846   9.060   9.634   2.285 -0.0143 -0.9410  0.1925
  925MOL0     H24847   9.312   9.631   2.442 -0.9784  2.2177  0.7509
  925MOL0     H24848   9.305   9.562   2.281  0.3462  1.2658  0.2970
  925MOL0     H24849   9.186   9.463   2.542  1.0884  0.9861  0.5977
  925MOL0     H24850   9.112   9.404   2.401 -0.7031  0.3421  1.4778
  925MOL0     H24851   9.416   9.368   2.454  0.1516  2.9416  0.8201
  925MOL0     H24852   9.325   9.301   2.310  0.3827 -1.5758  0.6011
  925MOL0     H24853   9.304   9.237   2.605 -0.9164  0.7747  0.7553
  925MOL0     H24854   9.171   9.197   2.506  0.9644 -0.1733 -0.7662
  925MOL0     H24855   8.949   9.896   2.874 -0.3273  0.6429  2.3643
  925MOL0     H24856   8.839   9.934   3.083 -2.6894  0.2359  1.5006
  925MOL0     H24857   8.593  10.052   3.334  1.8646 -2.6615  0.6497
  925MOL0     H24858   8.530  10.142   3.548  0.3866  1.0589 -5.2905
  925MOL0     H24859   6.715   9.809   4.016  0.4636 -0.8599  1.5477
  925MOL0     H24860   6.528   9.967   4.071  2.1363 -1.4172 -0.8978
  925MOL0     H24861   6.190  10.174   4.025 -1.3478  4.3240 -0.5684
  925MOL0     H24862   6.084  10.351   3.911 -1.1304  0.3764 -0.3113
  925MOL0     H24863   6.017  10.419   3.664 -1.3282 -0.3513 -1.9953
  925MOL0     H24864   5.901  10.525   3.723 -0.2682  0.3019 -0.0551
  925MOL0     H24865   5.897  10.367   3.466 -0.3085  1.0306 -0.1759
  925MOL0     H24866   5.849  10.528   3.495  1.2354 -1.1026 -1.5045
  925MOL0     H24867   5.650  10.462   3.625 -1.4201  0.1065 -0.3535
  925MOL0     H24868   5.692  10.294   3.574  1.7265 -0.2431 -1.3960
  925MOL0     H24869   5.632  10.510   3.363 -2.5982  0.4458  1.8378
  925MOL0     H24870   5.678  10.335   3.330 -2.6611 -1.8482 -0.3342
  925MOL0     H24871   5.278  10.326   3.369  1.0799  0.2519  0.9871
  925MOL0     H24872   5.809  10.083   3.723  0.7267 -0.4481 -0.5710
  925MOL0     H24873   5.858   9.791   3.893 -1.4398 -0.5297 -1.0764
  925MOL0     H24874   5.863   9.833   3.731 -3.6073  0.0884  1.8054
  925MOL0     H24875   6.016   9.784   3.822 -1.6746 -2.2768  2.3474
  926MOL0     O24876   0.877  11.275   5.538 -1.4604 -0.0147  0.2971
  926MOL0     C24877   0.811  11.178   5.569 -0.5794  0.2028  0.1763
  926MOL0     O24878   0.827  11.053   5.518  0.2568  0.2546  0.3195
  926MOL0     C24879   0.919  11.036   5.420 -0.3460 -0.1287  0.9081
  926MOL0     C24880   0.879  10.969   5.308 -0.6551  0.3215  0.5015
  926MOL0     C24881   0.973  10.940   5.196  0.8272 -0.6138 -0.2515
  926MOL0     C24882   1.106  10.980   5.205 -0.1860 -0.9056 -0.4860
  926MOL0     O24883   1.188  10.935   5.113  0.1087 -0.6362  0.3914
  926MOL0     C24884   1.328  10.925   5.159 -0.6085  0.5643 -0.3336
  926MOL0     C24885   1.386  10.811   5.066 -0.0727 -0.1345 -0.7950
  926MOL0     C24886   1.486  10.726   5.141  0.1927  0.3350 -0.0714
  926MOL0     C24887   1.584  10.651   5.048  0.2335  0.0986 -0.7491
  926MOL0     C24888   1.689  10.584   5.129 -0.5558  0.3369  0.0685
  926MOL0     C24889   1.796  10.520   5.029  1.0942 -0.4084 -0.1711
  926MOL0     C24890   1.892  10.625   4.963 -0.4578 -0.0916 -0.6999
  926MOL0     C24891   2.027  10.660   5.030 -0.7680  0.3319 -0.3446
  926MOL0     N24892   2.012  10.723   5.167 -0.2637 -0.0745 -0.0401
  926MOL0     C24893   2.017  10.859   5.192 -0.0149  0.0049  0.4233
  926MOL0     C24894   2.048  10.872   5.325  0.5203 -0.2644  0.5822
  926MOL0     C24895   2.094  10.995   5.390  0.1164 -0.6001 -0.0800
  926MOL0     C24896   1.983  11.076   5.460 -0.3989  0.7417  0.1384
  926MOL0     C24897   1.957  11.014   5.608  0.3803  0.3867 -0.6257
  926MOL0     C24898   1.898  10.874   5.618  0.0067 -0.1658 -0.6053
  926MOL0     O24899   1.775  10.879   5.538  0.3470  0.3952 -0.1128
  926MOL0     C24900   1.652  10.885   5.603  0.1152 -0.9853  0.8988
  926MOL0     C24901   1.633  10.915   5.735  0.2966  0.2169 -0.2581
  926MOL0     C24902   1.512  10.942   5.795  0.9092 -1.2153  0.3837
  926MOL0     C24903   1.402  10.949   5.706  0.1087  0.1302 -0.4572
  926MOL0     C24904   1.274  10.989   5.772 -0.2448  0.0062  0.5248
  926MOL0     O24905   1.281  11.019   5.906 -0.2748  0.3212 -0.3455
  926MOL0     C24906   1.173  11.029   5.990 -0.5139  0.2568  0.0895
  926MOL0     C24907   1.203  11.057   6.129  0.5726  0.2792  0.4073
  926MOL0     C24908   1.105  11.063   6.224  1.0984  0.3122 -0.9520
  926MOL0     C24909   0.970  11.025   6.188  0.1233 -0.3884  0.7673
  926MOL0     O24910   0.872  11.009   6.290  0.2942  0.0805 -0.6522
  926MOL0     C24911   0.741  11.041   6.259 -0.1158 -0.0281  0.1629
  926MOL0     C24912   0.662  10.965   6.388 -0.2597 -0.8669 -0.4058
  926MOL0     C24913   0.515  10.969   6.395  0.2155  0.7688 -0.0421
  926MOL0     C24914   0.440  10.946   6.525  0.7732 -0.6819  0.7724
  926MOL0     C24915   0.443  10.799   6.572 -0.0380  0.2086 -0.1474
  926MOL0     C24916   0.588  10.749   6.608 -0.5859  0.0395  0.9040
  926MOL0     C24917   0.566  10.640   6.697 -0.4366  0.5408 -0.9707
  926MOL0     C24918   0.691  10.560   6.732 -0.3107  0.3423  0.2758
  926MOL0    Cl24919   0.812  10.661   6.809  0.1859 -0.3550 -0.0824
  926MOL0     C24920   0.943  10.999   6.046 -0.3588 -0.2363 -0.8471
  926MOL0     C24921   1.040  10.989   5.952  0.3647  0.7331  0.0167
  926MOL0     O24922   1.174  11.003   5.701 -0.3552  0.1031  0.3678
  926MOL0     C24923   1.418  10.930   5.568  0.0280  0.2761  0.0762
  926MOL0     C24924   1.541  10.895   5.516  0.5616 -0.5892  0.6688
  926MOL0     N24925   2.056  10.750   5.378 -0.2749 -0.0449 -0.0053
  926MOL0     N24926   2.045  10.665   5.284 -0.2857  0.9188 -0.2190
  926MOL0     C24927   1.144  11.071   5.310 -0.2111 -0.0117  0.0365
  926MOL0     C24928   1.051  11.093   5.415  0.6542  0.0461 -0.2382
  926MOL0     C24929   0.717  11.194   5.683 -0.3518 -0.4197  0.5865
  926MOL0     C24930   0.693  11.076   5.759  0.6536 -0.4865  0.0360
  926MOL0     C24931   0.606  11.092   5.875 -0.6152 -0.1337  1.0352
  926MOL0     C24932   0.562  11.219   5.921 -0.7469  0.6959  0.0095
  926MOL0     O24933   0.501  11.222   6.041 -0.1883 -0.3461 -0.2810
  926MOL0     C24934   0.476  11.356   6.090 -1.3184  0.3164 -0.2137
  926MOL0     C24935   0.434  11.358   6.234 -0.3349  0.5372 -0.7131
  926MOL0     C24936   0.300  11.286   6.250  1.1095  0.0936  0.6897
  926MOL0     C24937   0.182  11.372   6.191  0.3221 -0.5951 -0.2968
  926MOL0     C24938   0.160  11.500   6.269  0.1234  0.5855  0.3182
  926MOL0     C24939   0.146  11.615   6.313  0.2608 -0.1282 -0.1625
  926MOL0     C24940   0.604  11.330   5.846 -0.1597  0.0920  0.0814
  926MOL0     C24941   0.675  11.323   5.728 -0.4477  0.8549 -0.3246
  926MOL0     C24942   0.689  11.452   5.655  0.3861 -0.0647 -0.2298
  926MOL0     H24943   0.783  10.920   5.295  0.9098 -2.7504 -0.4403
  926MOL0     H24944   0.938  10.875   5.117 -0.4223 -2.1498  1.4691
  926MOL0     H24945   1.379  11.021   5.155  2.1826 -0.7644  0.5660
  926MOL0     H24946   1.339  10.896   5.264 -0.5838 -0.6976 -0.6608
  926MOL0     H24947   1.433  10.859   4.979  0.3405 -0.2684 -0.6448
  926MOL0     H24948   1.301  10.749   5.034  0.9891 -1.9971 -0.1368
  926MOL0     H24949   1.437  10.654   5.207 -0.2307 -0.6627 -1.4197
  926MOL0     H24950   1.550  10.786   5.206  0.1796 -1.3141  1.5178
  926MOL0     H24951   1.530  10.579   4.986  1.1479  1.2825 -3.0388
  926MOL0     H24952   1.634  10.714   4.975  3.1115  0.2112  1.1209
  926MOL0     H24953   1.742  10.647   5.201  1.0919 -2.7509  1.7590
  926MOL0     H24954   1.660  10.501   5.194  1.7640  0.8627  1.9236
  926MOL0     H24955   1.850  10.446   5.089  2.5993 -0.1579 -1.1641
  926MOL0     H24956   1.732  10.462   4.962 -2.7721  1.8409  1.2711
  926MOL0     H24957   1.847  10.722   4.943  0.1897  0.3396 -0.1103
  926MOL0     H24958   1.912  10.587   4.863  0.8941  0.6160 -0.7218
  926MOL0     H24959   2.100  10.579   5.046  0.8345  2.2286  3.3045
  926MOL0     H24960   2.089  10.724   4.968  0.0736 -0.3170 -0.1942
  926MOL0     H24961   2.018  10.937   5.117  1.2215 -1.2468 -0.9363
  926MOL0     H24962   2.170  10.955   5.458  1.8689 -0.9308 -2.1339
  926MOL0     H24963   2.150  11.054   5.318  1.2939 -4.5078 -2.6753
  926MOL0     H24964   2.020  11.178   5.475  2.7036  0.0287 -1.8608
  926MOL0     H24965   1.891  11.074   5.401 -0.6297  0.7370  0.4960
  926MOL0     H24966   1.879  11.071   5.660  0.2647  1.0466 -1.4950
  926MOL0     H24967   2.046  11.010   5.671 -0.2195  0.4863  0.2436
  926MOL0     H24968   1.881  10.857   5.724 -0.8957  0.3525 -0.6512
  926MOL0     H24969   1.966  10.792   5.593  1.5348 -0.8662  4.6158
  926MOL0     H24970   1.718  10.921   5.802 -0.5957  0.7519  0.8661
  926MOL0     H24971   1.514  10.973   5.899  0.7709  1.2337 -0.2679
  926MOL0     H24972   1.296  11.091   6.172 -0.5016  1.1514  2.1284
  926MOL0     H24973   1.137  11.067   6.328 -2.1661 -0.5888  0.2268
  926MOL0     H24974   0.712  11.146   6.254 -2.3310 -0.5988 -0.0394
  926MOL0     H24975   0.702  10.984   6.174  3.9805 -4.4719  0.8431
  926MOL0     H24976   0.687  10.861   6.366  0.5936 -0.7009 -0.2511
  926MOL0     H24977   0.708  11.007   6.478  0.5190  2.5819 -2.2677
  926MOL0     H24978   0.474  11.058   6.346 -2.6594 -2.0058 -3.1507
  926MOL0     H24979   0.486  10.887   6.330 -1.0798  0.3980  0.9686
  926MOL0     H24980   0.332  10.958   6.510  1.0948  0.9675 -0.4687
  926MOL0     H24981   0.471  11.016   6.603  2.8087  0.1629 -0.7158
  926MOL0     H24982   0.390  10.727   6.509  0.2441 -2.3099  2.2747
  926MOL0     H24983   0.396  10.801   6.671  1.4420  0.7520  0.5791
  926MOL0     H24984   0.626  10.715   6.512 -3.1239  0.6362 -0.3850
  926MOL0     H24985   0.659  10.827   6.637  0.4673 -1.0939  1.4803
  926MOL0     H24986   0.491  10.571   6.657 -1.0816  1.0385 -0.6411
  926MOL0     H24987   0.532  10.682   6.791 -2.7631  2.1283 -2.4274
  926MOL0     H24988   0.665  10.484   6.807  0.2730 -0.2770 -0.1309
  926MOL0     H24989   0.725  10.513   6.640  1.6826  1.1707  0.5411
  926MOL0     H24990   0.840  10.984   6.015 -0.0820 -0.0289 -1.9033
  926MOL0     H24991   1.006  10.952   5.856  1.8460  1.2079 -0.7266
  926MOL0     H24992   1.338  10.923   5.495  0.7961  0.1103 -0.7663
  926MOL0     H24993   1.553  10.863   5.413 -0.4938 -0.4297  0.4753
  926MOL0     H24994   1.242  11.117   5.305 -1.4658  2.7412 -1.9148
  926MOL0     H24995   1.082  11.142   5.507  3.0109  0.3619 -1.1233
  926MOL0     H24996   0.736  10.981   5.731  1.5516  0.1136 -0.6688
  926MOL0     H24997   0.588  11.002   5.933 -0.5045  0.6409  2.3135
  926MOL0     H24998   0.422  11.416   6.016  2.0018  0.4721 -2.7465
  926MOL0     H24999   0.572  11.409   6.092 -0.4544 -0.8898 -3.5531
  926MOL0     H25000   0.418  11.461   6.268 -0.2679  0.3508 -0.1141
  926MOL0     H25001   0.502  11.309   6.305 -1.2676  0.8608  0.4366
  926MOL0     H25002   0.281  11.272   6.357  0.4196  0.7396  0.6577
  926MOL0     H25003   0.305  11.183   6.214  0.1645  0.1937  0.2387
  926MOL0     H25004   0.209  11.402   6.089  1.3982  1.3471  0.4957
  926MOL0     H25005   0.096  11.306   6.195  0.6651 -1.0857 -0.8598
  926MOL0     H25006   0.130  11.716   6.346 -2.4817 -0.3169 -0.7071
  926MOL0     H25007   0.563  11.424   5.879  3.7446  1.4902  1.5042
  926MOL0     H25008   0.650  11.538   5.711  2.6850  2.7148 -2.5668
  926MOL0     H25009   0.797  11.470   5.648  0.3021  0.2133 -0.8504
  926MOL0     H25010   0.658  11.461   5.551 -1.0966 -2.7490 -0.1007
  927MOL0     O25011   4.263   5.296   7.003  0.1285  0.3569 -0.2613
  927MOL0     C25012   4.221   5.366   6.912 -0.1015 -0.7742 -0.5359
  927MOL0     O25013   4.103   5.349   6.842 -0.0159  0.5601  0.1675
  927MOL0     C25014   4.006   5.265   6.891 -0.0632  0.5236  0.2275
  927MOL0     C25015   3.910   5.313   6.982  0.2467 -0.3174  0.0137
  927MOL0     C25016   3.808   5.226   7.035 -0.1621  0.6555 -0.2590
  927MOL0     C25017   3.819   5.088   7.007  0.1413  0.8549  0.2231
  927MOL0     O25018   3.740   4.986   7.064  0.3062 -1.0511 -0.0249
  927MOL0     C25019   3.616   4.988   6.994  0.5056  0.6330  0.1552
  927MOL0     C25020   3.534   4.872   7.041 -0.1286  0.7136 -0.0428
  927MOL0     C25021   3.603   4.733   7.051 -0.3148 -0.2713  0.4239
  927MOL0     C25022   3.657   4.676   6.920 -0.4776 -0.4633 -0.5893
  927MOL0     C25023   3.714   4.533   6.946  0.5194 -0.7263  0.4145
  927MOL0     C25024   3.778   4.492   6.811 -0.5172  1.0942  0.0963
  927MOL0     C25025   3.839   4.355   6.811  0.5625 -0.2092 -0.2726
  927MOL0     C25026   3.756   4.233   6.870  1.2580  0.1765  0.3763
  927MOL0     N25027   3.809   4.198   7.001  0.0642 -0.3650 -0.1529
  927MOL0     C25028   3.804   4.267   7.122  0.6010 -0.2309  0.7641
  927MOL0     C25029   3.883   4.203   7.207 -0.4222  0.0270 -0.2803
  927MOL0     C25030   3.910   4.228   7.357  0.2319 -0.7391  0.5273
  927MOL0     C25031   3.818   4.147   7.447 -1.2770  0.5764  0.0018
  927MOL0     C25032   3.669   4.190   7.445  0.8645 -0.4271 -1.0591
  927MOL0     C25033   3.630   4.327   7.481  0.5197  0.3025 -0.4013
  927MOL0     O25034   3.674   4.419   7.379  0.7712 -0.5603  0.8947
  927MOL0     C25035   3.679   4.554   7.391  0.4315  0.9282 -0.1053
  927MOL0     C25036   3.790   4.628   7.355  0.4292 -0.5079 -0.1629
  927MOL0     C25037   3.790   4.769   7.382 -0.4162  1.7501 -0.3620
  927MOL0     C25038   3.674   4.837   7.431 -0.1521  0.4529  0.4396
  927MOL0     C25039   3.676   4.991   7.438  0.7480  1.1539 -0.9992
  927MOL0     O25040   3.794   5.054   7.432  0.4860 -0.0105 -0.0992
  927MOL0     C25041   3.813   5.193   7.450 -0.3992  0.0613 -0.9173
  927MOL0     C25042   3.753   5.268   7.549  0.0622  1.9936 -0.1821
  927MOL0     C25043   3.783   5.402   7.562  0.2675  0.0651 -0.3478
  927MOL0     C25044   3.878   5.468   7.483  0.2755  0.3947 -0.1421
  927MOL0     O25045   3.877   5.603   7.477 -0.6451 -0.7638 -0.1078
  927MOL0     C25046   4.000   5.662   7.439 -0.5133  0.4717 -0.2659
  927MOL0     C25047   4.033   5.792   7.524  0.8757  0.8475 -0.3504
  927MOL0     C25048   3.913   5.902   7.514 -0.2909  0.6735  0.9226
  927MOL0     C25049   3.944   6.026   7.588 -0.4142 -0.3216 -0.1691
  927MOL0     C25050   3.841   6.140   7.604 -1.3855  0.2165  0.2813
  927MOL0     C25051   3.719   6.104   7.694 -0.3881 -0.8406  0.9104
  927MOL0     C25052   3.758   6.075   7.836 -0.3100 -0.0261 -0.6664
  927MOL0     C25053   3.631   6.042   7.928 -1.1493 -0.8536 -0.6905
  927MOL0    Cl25054   3.525   6.188   7.941 -0.0781  0.4688  0.0615
  927MOL0     C25055   3.927   5.394   7.382 -0.5373  0.1080  0.7264
  927MOL0     C25056   3.908   5.258   7.376  0.1784 -0.3924  0.2217
  927MOL0     O25057   3.568   5.047   7.448  0.3535  0.5686 -0.6110
  927MOL0     C25058   3.567   4.759   7.458 -0.3737  0.0122 -0.7211
  927MOL0     C25059   3.569   4.619   7.449  0.8094 -0.9159 -0.0663
  927MOL0     N25060   3.927   4.089   7.146  0.0929  0.4778  0.3786
  927MOL0     N25061   3.884   4.086   7.022  0.0648 -0.8590 -0.3394
  927MOL0     C25062   3.921   5.038   6.923 -0.7044  0.9116 -0.4554
  927MOL0     C25063   4.012   5.123   6.865 -0.3358  0.3587 -0.1628
  927MOL0     C25064   4.292   5.490   6.883 -0.4335  0.1547 -0.1959
  927MOL0     C25065   4.209   5.591   6.832  1.1425 -0.4853  0.0295
  927MOL0     C25066   4.261   5.718   6.818 -0.9540 -0.2937 -0.4248
  927MOL0     C25067   4.394   5.749   6.846  0.9052 -0.5309 -0.5050
  927MOL0     O25068   4.452   5.878   6.827 -0.4678  0.3782  1.0824
  927MOL0     C25069   4.362   5.985   6.791  0.1223 -0.5672  0.7919
  927MOL0     C25070   4.438   6.117   6.792  0.6262 -0.5178 -0.0010
  927MOL0     C25071   4.505   6.143   6.669 -0.5787 -0.6249 -0.5324
  927MOL0     C25072   4.423   6.178   6.545  0.2600 -0.8552 -0.6783
  927MOL0     C25073   4.499   6.168   6.423 -0.1714 -0.3259  0.2122
  927MOL0     C25074   4.551   6.139   6.314  0.1976  1.1078  0.0629
  927MOL0     C25075   4.471   5.655   6.911 -0.3640  0.3831 -0.4779
  927MOL0     C25076   4.426   5.527   6.927 -0.5417 -0.3554 -0.7058
  927MOL0     C25077   4.513   5.409   6.999 -1.1665  0.3288  0.1856
  927MOL0     H25078   3.920   5.421   6.991  0.6723 -0.4547  1.7140
  927MOL0     H25079   3.727   5.267   7.094  1.3963  4.3717 -0.4399
  927MOL0     H25080   3.570   5.085   7.017  2.0317  0.8709  2.6920
  927MOL0     H25081   3.628   4.956   6.890 -0.3061 -2.3313  0.8830
  927MOL0     H25082   3.447   4.869   6.974  1.3247 -0.3688 -1.9778
  927MOL0     H25083   3.500   4.890   7.143  1.1712  0.4491  0.4556
  927MOL0     H25084   3.526   4.662   7.083 -0.4113 -0.3531  0.0034
  927MOL0     H25085   3.683   4.728   7.126 -2.1885  1.2438  2.6958
  927MOL0     H25086   3.577   4.661   6.848 -1.0071 -2.1269  0.2825
  927MOL0     H25087   3.742   4.731   6.878  1.1494 -0.4034  2.4806
  927MOL0     H25088   3.794   4.542   7.019 -0.0874  3.6955  0.8461
  927MOL0     H25089   3.643   4.465   6.994 -2.6896  2.9529  1.4445
  927MOL0     H25090   3.703   4.495   6.732 -1.4323  1.1688  0.9512
  927MOL0     H25091   3.856   4.566   6.788 -1.9080  2.8091  0.6242
  927MOL0     H25092   3.944   4.360   6.844  1.2495 -1.2168 -2.1815
  927MOL0     H25093   3.853   4.333   6.705  0.0590  3.8522 -1.3278
  927MOL0     H25094   3.649   4.257   6.871  0.2182 -3.5587 -1.4507
  927MOL0     H25095   3.767   4.147   6.804 -2.6087  0.3891 -0.8440
  927MOL0     H25096   3.728   4.343   7.135 -0.1715 -0.4079 -1.9869
  927MOL0     H25097   4.012   4.193   7.375  1.1648  1.7199  0.3460
  927MOL0     H25098   3.913   4.334   7.384 -1.9894 -0.5073  0.0949
  927MOL0     H25099   3.822   4.039   7.430  1.7600  1.0645 -3.4967
  927MOL0     H25100   3.849   4.170   7.550 -2.7675  2.8490  0.0079
  927MOL0     H25101   3.622   4.118   7.513 -0.3716 -1.5304 -2.9977
  927MOL0     H25102   3.622   4.174   7.348 -0.9764  0.0968 -0.2940
  927MOL0     H25103   3.678   4.345   7.578 -0.1836 -1.6983  0.3698
  927MOL0     H25104   3.520   4.328   7.487  0.5436 -0.9653  0.7691
  927MOL0     H25105   3.877   4.580   7.314  1.3101 -0.8778  1.9923
  927MOL0     H25106   3.870   4.832   7.344 -0.5169  0.5572 -2.7484
  927MOL0     H25107   3.682   5.218   7.613  2.5585 -3.1938 -0.9375
  927MOL0     H25108   3.721   5.451   7.637 -0.3836  0.8706 -1.3789
  927MOL0     H25109   4.083   5.592   7.453  1.4221  2.7920  0.4360
  927MOL0     H25110   3.997   5.692   7.334  0.5053  2.7432  0.2848
  927MOL0     H25111   4.044   5.758   7.628 -2.9193  1.0033  0.2348
  927MOL0     H25112   4.129   5.832   7.490  2.2801 -1.2287  0.9266
  927MOL0     H25113   3.879   5.931   7.414 -2.0904  0.8900  1.5666
  927MOL0     H25114   3.827   5.866   7.571  0.2030 -1.3384  0.4797
  927MOL0     H25115   4.031   6.067   7.536 -0.9993 -2.1351 -2.7417
  927MOL0     H25116   3.979   6.002   7.689 -1.2435  0.3806  0.3071
  927MOL0     H25117   3.816   6.167   7.501 -0.7559  0.1411  0.1054
  927MOL0     H25118   3.885   6.230   7.649 -2.4033  1.3649 -0.9282
  927MOL0     H25119   3.661   6.197   7.700 -1.8493 -1.5565 -0.9188
  927MOL0     H25120   3.662   6.027   7.641 -2.0119  0.7984  0.1633
  927MOL0     H25121   3.807   6.161   7.884  0.0357  0.1377 -1.3064
  927MOL0     H25122   3.825   5.989   7.841  0.6478  0.7551  1.0377
  927MOL0     H25123   3.580   5.951   7.898 -1.9455 -0.5444 -0.3143
  927MOL0     H25124   3.682   6.016   8.022 -0.7497  1.8935 -0.0484
  927MOL0     H25125   3.982   5.433   7.297  2.6359  0.4312  2.7386
  927MOL0     H25126   3.974   5.193   7.320  0.2952 -1.1277  1.1815
  927MOL0     H25127   3.477   4.805   7.497  0.3522 -0.7520  2.1428
  927MOL0     H25128   3.489   4.560   7.491  2.8384 -3.2619  0.7196
  927MOL0     H25129   3.934   4.934   6.892 -0.4735  0.2014  1.8285
  927MOL0     H25130   4.076   5.085   6.786  1.9114 -0.0062  1.7287
  927MOL0     H25131   4.103   5.582   6.811  0.4036  1.0216  2.6195
  927MOL0     H25132   4.203   5.798   6.775  1.3313  2.0536  0.6148
  927MOL0     H25133   4.275   5.986   6.857 -0.7944  2.3537 -0.2881
  927MOL0     H25134   4.323   5.972   6.690  0.2895  1.5565  0.4048
  927MOL0     H25135   4.511   6.107   6.873  1.9020  0.8317 -0.9125
  927MOL0     H25136   4.368   6.197   6.817  0.2122 -1.2932  1.4273
  927MOL0     H25137   4.566   6.054   6.654 -0.8329 -1.3318  2.1062
  927MOL0     H25138   4.573   6.228   6.683 -0.4237 -0.9085  0.5072
  927MOL0     H25139   4.344   6.105   6.528 -0.7208  0.2926 -1.1548
  927MOL0     H25140   4.393   6.283   6.551  2.1911 -0.1361 -2.3940
  927MOL0     H25141   4.580   6.125   6.212  0.6400 -0.4490  0.3857
  927MOL0     H25142   4.558   5.694   6.964 -0.2510  0.7204 -0.9059
  927MOL0     H25143   4.512   5.314   6.945  2.7759  0.7264 -0.9154
  927MOL0     H25144   4.618   5.431   7.016 -1.4431  0.0553  2.5848
  927MOL0     H25145   4.489   5.414   7.105 -1.9240  1.1450 -0.0081
  928MOL0     O25146  10.043   2.920   5.725 -0.0336 -0.6483 -0.2518
  928MOL0     C25147  10.033   3.021   5.658  0.7862 -0.4612  0.1070
  928MOL0     O25148  10.121   3.123   5.661  0.6978  0.5368 -0.0319
  928MOL0     C25149  10.214   3.107   5.755 -0.2390  0.0644  0.4111
  928MOL0     C25150  10.339   3.051   5.727 -0.2178 -0.1197 -0.8382
  928MOL0     C25151  10.440   3.046   5.830 -0.1992 -0.2667  0.0056
  928MOL0     C25152  10.420   3.103   5.958  0.7013 -0.2678  1.2132
  928MOL0     O25153  10.518   3.120   6.049  0.2665  0.2961 -0.3886
  928MOL0     C25154  10.652   3.089   6.031 -0.5332 -0.8744  0.1941
  928MOL0     C25155  10.723   3.102   6.165 -0.9474  0.2119  0.0430
  928MOL0     C25156  10.668   2.989   6.256  0.4019  0.5562  0.8220
  928MOL0     C25157  10.720   3.014   6.404 -0.3925 -0.0762  0.8306
  928MOL0     C25158  10.652   2.934   6.516  0.8858 -0.1998 -0.8973
  928MOL0     C25159  10.502   2.970   6.515  0.1393  0.6880 -0.0547
  928MOL0     C25160  10.455   2.928   6.661 -0.0198 -0.0849 -0.8903
  928MOL0     C25161  10.301   2.932   6.675  0.8222  0.1364  0.5935
  928MOL0     N25162  10.247   2.863   6.557 -0.2637 -0.9361 -0.7606
  928MOL0     C25163  10.204   2.931   6.451  0.5124  0.0659  0.5344
  928MOL0     C25164  10.178   2.841   6.355 -0.1612 -0.1278 -0.1488
  928MOL0     C25165  10.117   2.869   6.221 -0.5018 -0.2302  0.0664
  928MOL0     C25166  10.120   2.758   6.117 -0.1821  0.6183 -0.4399
  928MOL0     C25167  10.215   2.782   5.998  0.5992  0.0397 -1.1429
  928MOL0     C25168  10.363   2.767   6.030 -0.6367  0.7792  0.4404
  928MOL0     O25169  10.390   2.649   6.096  0.0771  0.4646  0.3203
  928MOL0     C25170  10.511   2.627   6.142  0.1139  0.1791 -1.2986
  928MOL0     C25171  10.526   2.523   6.241 -1.2309  0.6222 -0.3598
  928MOL0     C25172  10.648   2.468   6.291 -0.0766 -1.0184 -0.1300
  928MOL0     C25173  10.762   2.525   6.236 -0.8920 -0.0558 -0.0757
  928MOL0     C25174  10.897   2.473   6.289  0.3434 -0.3028 -0.1861
  928MOL0     O25175  10.904   2.407   6.404  0.0526  0.5046  0.1482
  928MOL0     C25176  11.015   2.327   6.427 -0.5860  0.5369 -0.2045
  928MOL0     C25177  11.058   2.323   6.556 -0.2476  0.1504 -0.3743
  928MOL0     C25178  11.151   2.229   6.594 -0.6139 -0.1012 -0.2776
  928MOL0     C25179  11.204   2.140   6.502  0.3709  0.2950  0.1052
  928MOL0     O25180  11.304   2.073   6.563 -0.5546  0.4616  0.0327
  928MOL0     C25181  11.404   2.014   6.484  0.3577  0.2556  0.8483
  928MOL0     C25182  11.522   1.990   6.575  0.2297  0.3205  0.2189
  928MOL0     C25183  11.659   1.940   6.507  0.9149 -0.1831  0.3658
  928MOL0     C25184  11.760   1.895   6.616 -1.4016  1.1768  0.5082
  928MOL0     C25185  11.893   1.840   6.551 -0.7461 -0.8113 -0.1758
  928MOL0     C25186  11.986   1.793   6.662 -0.1002  0.3804 -0.0201
  928MOL0     C25187  12.132   1.773   6.604  0.3907 -0.5139 -0.0966
  928MOL0     C25188  12.233   1.796   6.712  0.5570  0.5891 -0.0472
  928MOL0    Cl25189  12.398   1.783   6.643  0.8017 -0.0427 -0.0160
  928MOL0     C25190  11.165   2.147   6.367  0.3231  0.5379  0.7145
  928MOL0     C25191  11.071   2.250   6.330 -1.2890 -0.3359  0.5165
  928MOL0     O25192  10.996   2.511   6.223 -0.8266 -0.2446 -0.2747
  928MOL0     C25193  10.757   2.630   6.140 -0.0148 -0.2493  1.2976
  928MOL0     C25194  10.634   2.693   6.105  0.2875  1.4841  0.6873
  928MOL0     N25195  10.196   2.719   6.409 -0.2795  0.9909 -0.2680
  928MOL0     N25196  10.238   2.727   6.536  0.3825 -0.6078  0.6217
  928MOL0     C25197  10.298   3.181   5.973  0.1134  0.1659 -0.0518
  928MOL0     C25198  10.192   3.178   5.874 -0.4453  0.1845 -0.6122
  928MOL0     C25199   9.908   3.038   5.577 -0.1358 -0.3426  0.0308
  928MOL0     C25200   9.926   3.102   5.453 -0.0093 -1.0570 -0.1010
  928MOL0     C25201   9.825   3.123   5.355 -0.7755  0.6693  0.0617
  928MOL0     C25202   9.698   3.066   5.385  0.3342 -0.0338 -0.1445
  928MOL0     O25203   9.590   3.075   5.305  0.4257 -0.1141  0.3916
  928MOL0     C25204   9.590   3.132   5.173  0.6462  0.3481 -0.7747
  928MOL0     C25205   9.450   3.149   5.113  0.2597 -0.3314  0.3995
  928MOL0     C25206   9.374   3.017   5.095  0.4090 -0.0463  1.1817
  928MOL0     C25207   9.441   2.905   5.011 -0.5014 -0.2742 -0.0319
  928MOL0     C25208   9.348   2.794   4.970  0.1868  0.4380 -0.2629
  928MOL0     C25209   9.269   2.706   4.950 -0.8946 -0.8404  0.0505
  928MOL0     C25210   9.678   2.992   5.509  0.7075  0.1868  0.0419
  928MOL0     C25211   9.781   2.980   5.602 -0.8769 -0.5315 -0.2795
  928MOL0     C25212   9.759   2.905   5.734 -0.5740 -0.1164 -0.1301
  928MOL0     H25213  10.359   2.994   5.637  0.2439 -0.2976 -0.6240
  928MOL0     H25214  10.535   2.996   5.819  0.3076  0.1041  2.2134
  928MOL0     H25215  10.665   2.987   5.993 -1.9259 -0.9267 -0.1749
  928MOL0     H25216  10.686   3.161   5.956  0.6120 -0.2248  1.2914
  928MOL0     H25217  10.699   3.202   6.201 -0.5042 -0.6594  3.0680
  928MOL0     H25218  10.830   3.082   6.152 -1.1418 -0.1053 -1.2062
  928MOL0     H25219  10.699   2.889   6.225  2.3213  0.8044  1.7708
  928MOL0     H25220  10.559   2.992   6.245  0.3219  1.6041  1.6729
  928MOL0     H25221  10.823   2.977   6.407 -0.5877 -0.5770  3.1329
  928MOL0     H25222  10.709   3.121   6.422 -1.6675  0.0182 -0.3361
  928MOL0     H25223  10.665   2.826   6.500 -0.0675 -0.5928  0.7431
  928MOL0     H25224  10.695   2.962   6.612 -0.3626  0.3913 -0.4954
  928MOL0     H25225  10.490   3.077   6.499 -1.3868  0.5793  0.2291
  928MOL0     H25226  10.463   2.906   6.435 -2.7023 -0.1714  1.8269
  928MOL0     H25227  10.489   3.000   6.736 -1.3719  1.2732 -1.5341
  928MOL0     H25228  10.491   2.828   6.686 -1.6080 -0.7906 -1.3309
  928MOL0     H25229  10.261   2.860   6.747 -0.3231 -1.3411 -1.3907
  928MOL0     H25230  10.270   3.035   6.691  0.5385  0.8256 -3.2779
  928MOL0     H25231  10.202   3.038   6.434  0.7031  0.0955  0.6951
  928MOL0     H25232  10.012   2.897   6.237  0.3570  2.5029  1.5303
  928MOL0     H25233  10.161   2.962   6.182 -1.7694 -0.0709 -1.0676
  928MOL0     H25234  10.140   2.664   6.168  1.2554  0.9863 -0.2878
  928MOL0     H25235  10.016   2.756   6.081 -1.3167  1.1059  2.5194
  928MOL0     H25236  10.190   2.879   5.953 -0.5272 -0.9487 -2.7931
  928MOL0     H25237  10.188   2.708   5.922  2.0414 -1.0703 -0.6175
  928MOL0     H25238  10.398   2.852   6.090  1.1637  0.7541 -0.5155
  928MOL0     H25239  10.427   2.756   5.942  1.6891  0.4523  2.0689
  928MOL0     H25240  10.439   2.480   6.291  0.0710 -1.2818  0.4072
  928MOL0     H25241  10.643   2.392   6.369 -1.0208 -0.1510  0.6987
  928MOL0     H25242  11.036   2.399   6.630  2.0023 -0.0962  0.6123
  928MOL0     H25243  11.191   2.222   6.694 -0.5174  1.5342 -0.1713
  928MOL0     H25244  11.364   1.922   6.441  1.4003  0.2698 -0.1787
  928MOL0     H25245  11.432   2.081   6.402 -2.0211  0.7081  0.3186
  928MOL0     H25246  11.552   2.081   6.628  0.0254  0.1458  0.6355
  928MOL0     H25247  11.487   1.914   6.645  0.5301  1.4720  1.6631
  928MOL0     H25248  11.652   1.857   6.436  1.1652 -0.0155  0.1415
  928MOL0     H25249  11.696   2.026   6.450  0.3156  0.7949  1.4007
  928MOL0     H25250  11.720   1.811   6.675 -1.2407  2.8611  3.2162
  928MOL0     H25251  11.782   1.977   6.684  1.4019  1.1679 -0.3031
  928MOL0     H25252  11.936   1.909   6.478 -1.3998  0.6704  0.7855
  928MOL0     H25253  11.869   1.756   6.485 -0.7362 -1.1963  0.3067
  928MOL0     H25254  11.981   1.861   6.747 -1.0381 -0.1945  0.3971
  928MOL0     H25255  11.958   1.694   6.699  2.9530 -1.3620 -1.8448
  928MOL0     H25256  12.156   1.849   6.529 -0.2711  3.1239  3.0817
  928MOL0     H25257  12.143   1.675   6.557 -2.9166 -0.2162 -1.7903
  928MOL0     H25258  12.214   1.893   6.759 -2.3584 -1.3473  3.2693
  928MOL0     H25259  12.222   1.722   6.792  2.9794 -0.2338 -0.3846
  928MOL0     H25260  11.196   2.081   6.286  0.2666 -0.9107  1.8345
  928MOL0     H25261  11.054   2.269   6.225  1.3939 -1.3297 -0.1826
  928MOL0     H25262  10.853   2.671   6.110  0.4046  0.2444  3.1613
  928MOL0     H25263  10.635   2.762   6.022  1.7897  3.3722  2.1712
  928MOL0     H25264  10.273   3.226   6.069 -0.2418 -0.3972  0.1214
  928MOL0     H25265  10.094   3.217   5.899  0.1873  1.1874  0.4466
  928MOL0     H25266  10.024   3.134   5.419 -0.1219 -1.3990 -0.7697
  928MOL0     H25267   9.832   3.176   5.261 -4.5087 -3.0665 -2.6906
  928MOL0     H25268   9.653   3.065   5.114  1.6247 -2.8113  3.3599
  928MOL0     H25269   9.634   3.233   5.178  3.3674 -0.7980  1.2819
  928MOL0     H25270   9.470   3.207   5.022 -0.6536  2.1334  1.6811
  928MOL0     H25271   9.391   3.206   5.184  0.0389 -1.4728  1.1525
  928MOL0     H25272   9.282   3.053   5.048  0.5855 -2.0825 -0.8742
  928MOL0     H25273   9.337   2.977   5.190 -0.2048  2.2007  1.9411
  928MOL0     H25274   9.475   2.947   4.916 -1.5000  0.1486 -0.2046
  928MOL0     H25275   9.528   2.862   5.062  0.0049 -1.6964 -2.0051
  928MOL0     H25276   9.194   2.630   4.954  0.9345 -2.6679  1.8726
  928MOL0     H25277   9.576   2.957   5.520  0.5932 -0.1938 -1.8791
  928MOL0     H25278   9.653   2.885   5.754 -0.1625 -2.4072  0.0417
  928MOL0     H25279   9.819   2.814   5.739  0.0745  0.3423  0.9490
  928MOL0     H25280   9.799   2.958   5.821  0.2172 -1.3324  0.2671
  929MOL0     O25281  10.115   7.355   7.944 -0.5407  0.2172 -0.6007
  929MOL0     C25282  10.010   7.295   7.928  0.5416 -0.1064  0.9807
  929MOL0     O25283   9.952   7.224   8.024 -0.0131  1.4412  0.6034
  929MOL0     C25284   9.985   7.221   8.157 -0.1455  1.1643  0.4949
  929MOL0     C25285  10.030   7.095   8.205  1.2659 -0.2509 -0.4991
  929MOL0     C25286  10.059   7.068   8.341 -0.0729 -0.1014  0.0153
  929MOL0     C25287  10.041   7.168   8.435 -0.1232  0.4793  0.4501
  929MOL0     O25288  10.060   7.154   8.569  0.2242 -0.3544 -0.2915
  929MOL0     C25289  10.173   7.083   8.614 -0.4982  1.1207 -0.0554
  929MOL0     C25290  10.200   7.111   8.762  0.1943  0.5903  0.2193
  929MOL0     C25291  10.335   7.183   8.791  0.3271 -0.5751 -0.4944
  929MOL0     C25292  10.385   7.152   8.927 -1.0134 -0.2436  0.5204
  929MOL0     C25293  10.478   7.261   8.977 -0.6092 -0.2207  0.5718
  929MOL0     C25294  10.607   7.292   8.889 -0.5464 -0.6721 -0.2598
  929MOL0     C25295  10.706   7.389   8.949 -0.8547 -0.2839  0.6418
  929MOL0     C25296  10.824   7.423   8.845 -0.3938  0.1021  0.0457
  929MOL0     N25297  10.777   7.504   8.734 -0.6401 -0.4768 -0.0590
  929MOL0     C25298  10.730   7.451   8.617 -0.0940  0.2008 -0.2974
  929MOL0     C25299  10.694   7.557   8.545  0.2000 -0.3571 -0.1194
  929MOL0     C25300  10.633   7.555   8.412 -0.2842  0.1495 -0.0695
  929MOL0     C25301  10.483   7.574   8.395 -0.6255 -0.0212 -0.6279
  929MOL0     C25302  10.401   7.461   8.463 -0.2999  0.3127  0.2191
  929MOL0     C25303  10.252   7.484   8.441 -0.0440 -0.3979  0.0531
  929MOL0     O25304  10.207   7.618   8.445  0.5082  0.3642  0.1865
  929MOL0     C25305  10.134   7.675   8.344  0.5090  0.5093 -0.2771
  929MOL0     C25306  10.153   7.634   8.213 -0.1158  0.3290 -0.5823
  929MOL0     C25307  10.068   7.669   8.108 -0.1885 -0.4471 -0.5578
  929MOL0     C25308   9.966   7.761   8.128  0.4507  0.9323 -0.6345
  929MOL0     C25309   9.877   7.815   8.028 -0.1926  0.0632  0.1862
  929MOL0     O25310   9.783   7.908   8.069 -0.2349  0.0651 -0.0864
  929MOL0     C25311   9.686   7.934   7.972 -0.4926 -0.5293 -0.1924
  929MOL0     C25312   9.579   7.841   7.942 -0.3080 -0.0163  0.6508
  929MOL0     C25313   9.484   7.867   7.842  0.4495  0.1224 -0.4449
  929MOL0     C25314   9.487   7.990   7.776  0.3622 -0.3132 -0.3448
  929MOL0     O25315   9.390   8.020   7.684 -0.4180 -0.3964  0.2253
  929MOL0     C25316   9.329   8.154   7.675 -0.0359 -0.1652 -0.5868
  929MOL0     C25317   9.234   8.183   7.790  0.1582 -0.7061  0.2581
  929MOL0     C25318   9.226   8.334   7.823  0.7597  0.3625  0.7940
  929MOL0     C25319   9.141   8.414   7.716  0.1778  0.7507  0.8604
  929MOL0     C25320   9.115   8.544   7.771 -0.8193 -0.0119  0.0271
  929MOL0     C25321   9.070   8.638   7.665  0.5360  0.8015  0.1924
  929MOL0     C25322   8.964   8.741   7.712 -0.5127  0.2953  0.4156
  929MOL0     C25323   8.820   8.696   7.670 -1.3742 -0.2805  0.8419
  929MOL0    Cl25324   8.788   8.744   7.502  0.1535  0.5463  0.5649
  929MOL0     C25325   9.585   8.089   7.807  0.2276  0.0843 -0.8621
  929MOL0     C25326   9.679   8.058   7.904  0.0385 -0.2528 -0.3190
  929MOL0     O25327   9.902   7.778   7.909  0.5826 -0.2210 -0.1153
  929MOL0     C25328   9.938   7.786   8.264  0.4086  0.1054  0.1879
  929MOL0     C25329  10.013   7.745   8.364 -0.4728  0.2083 -0.4000
  929MOL0     N25330  10.743   7.669   8.614 -0.0170 -0.1650  0.7028
  929MOL0     N25331  10.784   7.636   8.734 -0.0947 -0.0404  0.1153
  929MOL0     C25332   9.990   7.289   8.382  0.0500 -0.3849  0.1102
  929MOL0     C25333   9.971   7.327   8.249 -0.6981  0.6911 -0.3395
  929MOL0     C25334   9.972   7.267   7.783 -0.1061  0.6025  0.2855
  929MOL0     C25335  10.000   7.133   7.737 -0.0336  0.0924  0.3002
  929MOL0     C25336   9.956   7.102   7.605 -0.6513 -0.2827  0.5319
  929MOL0     C25337   9.911   7.204   7.509 -0.3876  0.9606 -0.4794
  929MOL0     O25338   9.865   7.188   7.379 -0.0364  0.2967 -0.1170
  929MOL0     C25339   9.906   7.067   7.306  0.2787  0.2738 -0.3691
  929MOL0     C25340   9.886   7.104   7.159  0.0641  1.2169 -0.3046
  929MOL0     C25341   9.880   6.979   7.073  0.0113  0.1111 -0.6348
  929MOL0     C25342   9.819   7.031   6.945 -1.3305  0.3813  0.6970
  929MOL0     C25343   9.816   6.909   6.866  1.2555  0.1198 -0.3358
  929MOL0     C25344   9.807   6.804   6.808 -0.6517 -0.2504  0.2134
  929MOL0     C25345   9.896   7.330   7.560 -0.3527 -0.7629 -0.1966
  929MOL0     C25346   9.913   7.360   7.700  0.4346 -0.3615 -0.1749
  929MOL0     C25347   9.876   7.496   7.752 -0.2154  0.5953  0.2188
  929MOL0     H25348  10.048   7.016   8.134  0.0070 -0.2307 -0.8693
  929MOL0     H25349  10.100   6.971   8.366  3.3711  1.5103  1.1965
  929MOL0     H25350  10.160   6.975   8.606 -1.8215  1.3247 -0.9690
  929MOL0     H25351  10.257   7.111   8.550 -0.4086 -2.1012 -1.5534
  929MOL0     H25352  10.203   7.016   8.816 -2.0731  0.2633 -0.1192
  929MOL0     H25353  10.118   7.167   8.806  1.4480  3.1335 -0.5126
  929MOL0     H25354  10.318   7.291   8.790  0.7986 -0.4951 -0.1902
  929MOL0     H25355  10.409   7.153   8.716  2.1419  1.1672  0.4959
  929MOL0     H25356  10.298   7.140   8.993 -0.6117 -0.2213  1.0535
  929MOL0     H25357  10.445   7.060   8.923 -1.3402 -0.7972  4.2942
  929MOL0     H25358  10.423   7.353   8.998 -1.4645 -0.8579  1.2064
  929MOL0     H25359  10.508   7.220   9.074  0.9394  1.0940  0.6867
  929MOL0     H25360  10.659   7.197   8.874 -0.4133 -0.8115  0.9895
  929MOL0     H25361  10.576   7.330   8.791 -1.8086  0.3991  0.5139
  929MOL0     H25362  10.741   7.349   9.044 -3.1506  2.1709  2.6667
  929MOL0     H25363  10.651   7.482   8.965  0.7240  1.0386 -1.1234
  929MOL0     H25364  10.903   7.461   8.910 -0.7556 -0.0312  0.5751
  929MOL0     H25365  10.856   7.326   8.806 -0.5535  0.7762 -1.8614
  929MOL0     H25366  10.722   7.346   8.592  0.2777  0.1313 -0.1292
  929MOL0     H25367  10.679   7.635   8.352 -1.0785 -2.1041 -4.0694
  929MOL0     H25368  10.664   7.458   8.373 -1.5198 -1.0945  1.8635
  929MOL0     H25369  10.452   7.659   8.457 -1.1086 -0.0567 -0.8143
  929MOL0     H25370  10.455   7.596   8.292  3.3017 -0.1122 -1.8707
  929MOL0     H25371  10.428   7.472   8.569 -3.1667  0.4728  1.0207
  929MOL0     H25372  10.430   7.368   8.413 -2.2437  0.1515 -0.6731
  929MOL0     H25373  10.192   7.436   8.519 -3.6471  1.4994 -1.2896
  929MOL0     H25374  10.231   7.434   8.346 -0.3830 -1.1690  0.5238
  929MOL0     H25375  10.236   7.566   8.193 -1.1018 -1.8865  2.2017
  929MOL0     H25376  10.079   7.620   8.011 -1.9487  0.9475 -1.5227
  929MOL0     H25377   9.567   7.754   8.005  0.2357  2.4977  4.5651
  929MOL0     H25378   9.418   7.786   7.815  2.6201 -2.5943  1.7520
  929MOL0     H25379   9.404   8.234   7.679 -0.8791  0.5884  1.8873
  929MOL0     H25380   9.292   8.171   7.573  1.3226 -2.1397 -1.4725
  929MOL0     H25381   9.136   8.140   7.767 -0.2226  1.0832 -1.6998
  929MOL0     H25382   9.275   8.141   7.883 -2.0059 -1.0604  1.1158
  929MOL0     H25383   9.183   8.340   7.924 -0.6375 -0.6689  0.2893
  929MOL0     H25384   9.324   8.381   7.834 -0.2534  3.1035 -0.8253
  929MOL0     H25385   9.053   8.358   7.683  0.1342  1.2082  0.1887
  929MOL0     H25386   9.223   8.415   7.644  1.8749  2.1807  2.7312
  929MOL0     H25387   9.205   8.593   7.808  0.4653 -1.5588 -0.9211
  929MOL0     H25388   9.038   8.543   7.850 -1.0937  0.2072 -0.2366
  929MOL0     H25389   9.165   8.686   7.638  1.1113  0.0010  0.7418
  929MOL0     H25390   9.037   8.581   7.579  4.5062 -0.4021 -0.7353
  929MOL0     H25391   8.999   8.841   7.684  0.8597 -1.1572 -3.8459
  929MOL0     H25392   8.982   8.743   7.820  3.3129 -0.7019 -0.0516
  929MOL0     H25393   8.813   8.587   7.670 -1.1433 -0.3204 -0.6950
  929MOL0     H25394   8.746   8.744   7.735 -0.8399  1.5273  0.1728
  929MOL0     H25395   9.595   8.182   7.751  0.7448 -1.1425 -2.8869
  929MOL0     H25396   9.762   8.124   7.923 -0.3722 -0.3569  2.2079
  929MOL0     H25397   9.845   7.837   8.286  0.6198  1.6577 -2.1596
  929MOL0     H25398   9.983   7.772   8.465  2.0058  1.8504 -0.0130
  929MOL0     H25399   9.966   7.362   8.459 -1.5071 -1.2187  0.4477
  929MOL0     H25400   9.931   7.423   8.217 -0.8398  0.7050 -0.1249
  929MOL0     H25401  10.049   7.052   7.790  1.6037 -1.7488 -3.6967
  929MOL0     H25402   9.975   7.006   7.559 -0.7128  1.5632 -3.8192
  929MOL0     H25403   9.838   6.987   7.335 -2.3331  1.5249 -2.5538
  929MOL0     H25404  10.007   7.034   7.333  0.4854 -0.4911 -1.9271
  929MOL0     H25405   9.967   7.172   7.132 -0.4895  2.0910  0.1792
  929MOL0     H25406   9.789   7.153   7.144 -2.5035 -3.5833 -1.2312
  929MOL0     H25407   9.819   6.907   7.128 -0.3145  0.0606 -1.0547
  929MOL0     H25408   9.977   6.932   7.058  1.7118  1.8124  3.4277
  929MOL0     H25409   9.727   7.088   6.959 -0.2489  2.1513  0.8579
  929MOL0     H25410   9.890   7.105   6.907 -2.6140  1.5474  0.5361
  929MOL0     H25411   9.829   6.722   6.743  0.0382  0.1904 -0.1083
  929MOL0     H25412   9.861   7.395   7.481 -1.6946 -0.3542  0.7088
  929MOL0     H25413   9.792   7.539   7.698 -0.4921 -0.4508 -0.2102
  929MOL0     H25414   9.840   7.506   7.855 -0.6052  1.6526 -0.0120
  929MOL0     H25415   9.960   7.566   7.752  0.1453  0.1915  1.3024
  930MOL0     O25416   0.228   3.998   9.391 -0.0900 -0.0168  0.1320
  930MOL0     C25417   0.133   4.054   9.447 -1.0291 -0.5653  0.9521
  930MOL0     O25418   0.130   4.187   9.473 -0.0165  0.4728 -0.5969
  930MOL0     C25419   0.237   4.262   9.436  0.3633 -0.4104 -0.5270
  930MOL0     C25420   0.258   4.297   9.305  0.0724  0.6453  0.2866
  930MOL0     C25421   0.369   4.373   9.268  0.6013  1.0384 -0.2994
  930MOL0     C25422   0.457   4.431   9.362 -0.1068  1.1334  0.1325
  930MOL0     O25423   0.566   4.499   9.312 -0.9779 -0.2787 -1.0309
  930MOL0     C25424   0.612   4.605   9.400 -0.3979 -0.2890  0.8064
  930MOL0     C25425   0.720   4.691   9.317  0.6198 -0.6144  0.9375
  930MOL0     C25426   0.793   4.808   9.391  0.1900  0.1462  0.0352
  930MOL0     C25427   0.914   4.870   9.309  1.2755 -0.1235  0.1929
  930MOL0     C25428   0.857   4.937   9.181  0.2193 -0.2566 -0.6395
  930MOL0     C25429   0.850   5.087   9.191 -0.3705 -0.4437  0.3677
  930MOL0     C25430   0.760   5.143   9.075 -0.6619  0.2254  0.1324
  930MOL0     C25431   0.770   5.297   9.060  0.5604  0.2915 -0.2174
  930MOL0     N25432   0.647   5.351   9.000  0.5211 -0.7564 -0.4766
  930MOL0     C25433   0.530   5.367   9.065  0.5123 -0.1311  0.2684
  930MOL0     C25434   0.438   5.423   8.980  0.7006  0.4477 -0.9945
  930MOL0     C25435   0.300   5.491   9.000  0.3101  0.8332  1.3249
  930MOL0     C25436   0.191   5.390   8.937  0.0464 -0.7165 -0.4527
  930MOL0     C25437   0.163   5.263   9.015 -0.0219 -0.0212 -0.3996
  930MOL0     C25438   0.136   5.289   9.165  0.2832 -0.7240 -0.8590
  930MOL0     O25439   0.251   5.296   9.248  0.2005 -0.0807 -0.7411
  930MOL0     C25440   0.233   5.356   9.369 -0.7027 -0.2770  0.9717
  930MOL0     C25441   0.134   5.339   9.459  0.0328  0.7081  0.6401
  930MOL0     C25442   0.142   5.397   9.589 -0.6517  0.2417  0.1089
  930MOL0     C25443   0.260   5.456   9.632 -0.0411  0.6404  0.0127
  930MOL0     C25444   0.269   5.501   9.772 -0.0856 -0.8863 -0.6310
  930MOL0     O25445   0.165   5.473   9.858  0.5188 -0.0720 -0.3100
  930MOL0     C25446   0.184   5.497   9.997 -0.6840 -0.5823  0.4677
  930MOL0     C25447   0.150   5.393  10.084  0.8398  0.6201 -0.5650
  930MOL0     C25448   0.170   5.402  10.225 -0.0505  0.1318  0.3996
  930MOL0     C25449   0.192   5.530  10.281  0.0086  0.6799  1.2626
  930MOL0     O25450   0.179   5.533  10.417 -0.8943 -0.0737  0.3856
  930MOL0     C25451   0.213   5.653  10.476  0.0119 -0.0869  0.1321
  930MOL0     C25452   0.195   5.648  10.630 -0.1114 -0.2680  0.3968
  930MOL0     C25453   0.242   5.781  10.687 -0.2761 -0.7891 -0.3067
  930MOL0     C25454   0.276   5.788  10.836  0.1246  0.2484 -0.1037
  930MOL0     C25455   0.297   5.931  10.891  0.5906  0.1892  0.1789
  930MOL0     C25456   0.177   6.024  10.876 -0.6091  0.5591  0.1174
  930MOL0     C25457   0.067   5.966  10.954 -0.3502  0.6832  0.2927
  930MOL0     C25458  -0.028   6.069  11.010 -0.1810  0.8611  0.1079
  930MOL0    Cl25459  -0.045   6.213  10.911  0.3699  0.0077  0.4469
  930MOL0     C25460   0.209   5.638  10.191 -0.2002  0.7644 -0.8703
  930MOL0     C25461   0.214   5.620  10.055 -0.2586 -0.3253  0.9185
  930MOL0     O25462   0.370   5.571   9.802  0.1453  0.4368 -0.4127
  930MOL0     C25463   0.368   5.474   9.545  0.3275 -0.5069  0.4244
  930MOL0     C25464   0.350   5.427   9.415  0.3399 -0.4205  0.1346
  930MOL0     N25465   0.513   5.431   8.867 -0.1157  0.3115  1.3377
  930MOL0     N25466   0.636   5.396   8.871 -0.1715  0.3299 -0.1992
  930MOL0     C25467   0.429   4.390   9.494 -0.5766  0.1268  0.2634
  930MOL0     C25468   0.327   4.307   9.538 -0.6998 -0.1386  0.3108
  930MOL0     C25469   0.027   3.963   9.485 -0.1459  1.0599 -0.4361
  930MOL0     C25470   0.055   3.833   9.531 -0.4565  0.3939  0.4796
  930MOL0     C25471  -0.038   3.738   9.556  0.6640 -0.2592 -0.5393
  930MOL0     C25472  -0.175   3.760   9.520  0.0657 -0.1055  0.8007
  930MOL0     O25473  -0.271   3.665   9.533  0.3722 -0.5956  0.7795
  930MOL0     C25474  -0.235   3.531   9.503 -0.3435 -0.1204 -0.1066
  930MOL0     C25475  -0.355   3.443   9.481  0.7507  0.5177 -0.4038
  930MOL0     C25476  -0.302   3.309   9.420 -0.6277  0.2990  0.9072
  930MOL0     C25477  -0.343   3.188   9.497 -0.2468  0.4880 -0.8612
  930MOL0     C25478  -0.459   3.122   9.432  0.1125  0.4569 -0.0076
  930MOL0     C25479  -0.569   3.059   9.402  0.0817  0.2125 -0.0691
  930MOL0     C25480  -0.212   3.894   9.475  0.0852  0.3329 -0.0481
  930MOL0     C25481  -0.109   3.987   9.459 -0.0905 -0.4049 -0.2184
  930MOL0     C25482  -0.151   4.116   9.397  0.2629  0.2354  0.4445
  930MOL0     H25483   0.201   4.264   9.218 -0.5461  2.8029 -0.1688
  930MOL0     H25484   0.384   4.400   9.164  0.1080 -1.7406 -1.1665
  930MOL0     H25485   0.526   4.671   9.410  0.2582  1.0393 -1.5419
  930MOL0     H25486   0.656   4.570   9.494  0.1410 -3.3816 -0.4637
  930MOL0     H25487   0.663   4.735   9.235  1.7246 -2.0992 -0.7120
  930MOL0     H25488   0.796   4.629   9.269  1.2659 -0.1177  1.2923
  930MOL0     H25489   0.822   4.786   9.494 -1.5635 -0.5032  0.4325
  930MOL0     H25490   0.719   4.888   9.401 -1.0176 -0.0808 -4.7206
  930MOL0     H25491   0.959   4.944   9.376 -0.8727 -0.6918  2.4218
  930MOL0     H25492   0.982   4.794   9.271  2.1219  0.6267  0.1953
  930MOL0     H25493   0.927   4.920   9.099  0.0476  2.1220 -1.3617
  930MOL0     H25494   0.755   4.905   9.154 -0.7162  1.5568  0.5435
  930MOL0     H25495   0.781   5.105   9.274 -0.0623  2.1903  0.1436
  930MOL0     H25496   0.946   5.139   9.196 -1.7322  2.1278  1.9488
  930MOL0     H25497   0.656   5.114   9.087 -1.4529  0.6491 -4.1329
  930MOL0     H25498   0.793   5.089   8.986  0.6611 -1.3408  1.4914
  930MOL0     H25499   0.779   5.339   9.160 -0.2408 -0.7524  0.3191
  930MOL0     H25500   0.862   5.319   9.006 -0.8894  2.3191 -2.0423
  930MOL0     H25501   0.517   5.331   9.167  2.0463 -0.5129  0.3519
  930MOL0     H25502   0.280   5.524   9.102 -2.0143  0.9054  0.8822
  930MOL0     H25503   0.296   5.582   8.940 -2.3771 -0.3016 -0.3949
  930MOL0     H25504   0.096   5.441   8.926  1.1922  1.6575  0.0903
  930MOL0     H25505   0.226   5.351   8.841  1.2110  1.9598 -1.1980
  930MOL0     H25506   0.248   5.194   9.011  0.3391  0.2684  1.1954
  930MOL0     H25507   0.082   5.205   8.971 -0.7524  2.2549 -2.2731
  930MOL0     H25508   0.080   5.203   9.204 -1.7124  1.2252  0.8350
  930MOL0     H25509   0.069   5.373   9.186 -1.8843 -2.6867  0.6934
  930MOL0     H25510   0.049   5.283   9.424  0.9575 -0.0005 -0.5632
  930MOL0     H25511   0.059   5.388   9.658  0.0317 -1.8372  0.7335
  930MOL0     H25512   0.114   5.295  10.054  1.2118  0.3535 -0.1577
  930MOL0     H25513   0.164   5.315  10.289  1.9102  0.7590  1.5150
  930MOL0     H25514   0.317   5.671  10.447 -0.6461 -1.3428 -3.5936
  930MOL0     H25515   0.152   5.734  10.435  0.8657  1.1361  1.1891
  930MOL0     H25516   0.095   5.639  10.673 -0.1512  0.4413  0.4675
  930MOL0     H25517   0.251   5.564  10.671 -1.2568 -0.9373  0.6343
  930MOL0     H25518   0.334   5.807  10.634  0.4665  1.5125  1.8520
  930MOL0     H25519   0.173   5.859  10.654  1.6354  0.5867 -1.2962
  930MOL0     H25520   0.372   5.741  10.859 -0.1398  1.0747  3.2788
  930MOL0     H25521   0.200   5.746  10.903 -0.3610  0.5939 -0.4328
  930MOL0     H25522   0.370   5.989  10.834  1.0192  0.7535  1.2618
  930MOL0     H25523   0.339   5.916  10.991  2.3838 -1.7955 -0.7749
  930MOL0     H25524   0.211   6.123  10.911  1.4793 -0.0164 -0.1282
  930MOL0     H25525   0.145   6.024  10.772 -0.1955 -2.6631 -0.1121
  930MOL0     H25526   0.098   5.907  11.041 -0.0664  2.3976  1.3842
  930MOL0     H25527  -0.000   5.902  10.895 -1.1610 -0.7057  2.5940
  930MOL0     H25528  -0.126   6.028  11.036  0.0850 -0.0773 -0.3207
  930MOL0     H25529   0.028   6.094  11.101 -1.2482 -0.0103  1.0462
  930MOL0     H25530   0.223   5.742  10.222 -1.9103  0.5149  0.9322
  930MOL0     H25531   0.239   5.709   9.997 -2.5363  0.8923  1.6597
  930MOL0     H25532   0.463   5.513   9.579  0.9116  1.1421 -2.7331
  930MOL0     H25533   0.443   5.430   9.359  0.1760  0.5132 -0.1095
  930MOL0     H25534   0.499   4.429   9.567  0.4466  1.6741 -1.4428
  930MOL0     H25535   0.315   4.272   9.640 -0.7299 -1.7759 -0.2329
  930MOL0     H25536   0.161   3.815   9.545 -0.2708  1.1514  0.0792
  930MOL0     H25537  -0.014   3.639   9.592  0.7497 -0.1512 -0.2941
  930MOL0     H25538  -0.177   3.490   9.586  0.9113  2.5635  0.4781
  930MOL0     H25539  -0.178   3.537   9.410 -0.8579 -2.2507 -0.6115
  930MOL0     H25540  -0.428   3.486   9.412 -0.5001 -1.9008 -0.7111
  930MOL0     H25541  -0.394   3.430   9.582 -2.3188 -1.1420 -1.6399
  930MOL0     H25542  -0.193   3.299   9.413 -0.8481 -1.1394 -1.7565
  930MOL0     H25543  -0.347   3.314   9.320  2.3321 -1.8016 -0.6842
  930MOL0     H25544  -0.263   3.115   9.503 -3.2160 -2.9546  0.5525
  930MOL0     H25545  -0.368   3.214   9.601  2.3915  3.8371 -0.8874
  930MOL0     H25546  -0.657   3.016   9.360 -1.2874  2.3588  0.4725
  930MOL0     H25547  -0.315   3.923   9.456 -0.5691 -1.7521  0.0131
  930MOL0     H25548  -0.108   4.200   9.453  0.8745  0.7160 -0.7114
  930MOL0     H25549  -0.125   4.118   9.291  0.5282 -0.5188  0.4893
  930MOL0     H25550  -0.258   4.128   9.413  0.4333  0.0436  1.9021
  931MOL0     O25551   2.959   4.422   3.031  0.3438  0.7326  0.5985
  931MOL0     C25552   2.893   4.524   3.008 -0.1853 -0.2085 -0.2571
  931MOL0     O25553   2.944   4.649   3.015  0.0703 -0.7802  0.1967
  931MOL0     C25554   3.080   4.663   3.044  0.2677 -0.1939 -0.6447
  931MOL0     C25555   3.179   4.619   2.963  0.0946 -0.4681  0.5825
  931MOL0     C25556   3.313   4.645   3.002  0.2750  0.5661  0.7346
  931MOL0     C25557   3.339   4.694   3.123  0.2388 -0.1115  0.3428
  931MOL0     O25558   3.473   4.698   3.148 -0.1873  0.6457  0.6253
  931MOL0     C25559   3.524   4.731   3.278  0.2678 -0.0699 -0.2994
  931MOL0     C25560   3.609   4.861   3.266  0.5086 -0.9163  0.0394
  931MOL0     C25561   3.728   4.856   3.358 -0.3170 -0.0823 -0.2378
  931MOL0     C25562   3.853   4.783   3.297 -0.1197  0.0098  0.1581
  931MOL0     C25563   3.982   4.848   3.351 -0.0358 -0.4433 -0.4372
  931MOL0     C25564   4.112   4.764   3.333  0.1296 -0.3119 -0.2195
  931MOL0     C25565   4.235   4.845   3.373 -0.1594 -0.2175  0.8471
  931MOL0     C25566   4.278   4.820   3.517 -0.2881 -0.3521  0.2026
  931MOL0     N25567   4.386   4.717   3.527  0.4410 -0.3435  0.5801
  931MOL0     C25568   4.443   4.678   3.644  0.0522  0.4553 -0.1013
  931MOL0     C25569   4.506   4.564   3.633  0.0830 -0.2186  0.9441
  931MOL0     C25570   4.588   4.493   3.737  0.4215  0.3863 -0.1692
  931MOL0     C25571   4.724   4.563   3.761 -0.2389 -0.4445  0.3127
  931MOL0     C25572   4.825   4.536   3.646  0.2191 -0.3023 -0.2722
  931MOL0     C25573   4.958   4.604   3.678 -0.7677 -0.3020  0.3289
  931MOL0     O25574   5.068   4.573   3.590 -0.3655 -0.4850 -0.1441
  931MOL0     C25575   5.148   4.472   3.626  0.4064 -0.3001 -0.6288
  931MOL0     C25576   5.271   4.473   3.571  0.7868 -0.1164 -0.2599
  931MOL0     C25577   5.361   4.369   3.576  0.1701 -0.8356  0.1982
  931MOL0     C25578   5.341   4.261   3.662 -0.1168 -0.1482  0.7594
  931MOL0     C25579   5.456   4.163   3.676 -0.2063 -0.2023  0.1599
  931MOL0     O25580   5.565   4.175   3.595 -0.1917  0.9310 -0.3190
  931MOL0     C25581   5.636   4.059   3.592  0.5034  1.0272 -0.9221
  931MOL0     C25582   5.725   4.018   3.688  0.1832  1.4555  0.0360
  931MOL0     C25583   5.816   3.918   3.664  0.1319 -0.6349  0.1572
  931MOL0     C25584   5.813   3.842   3.543  0.4822 -0.5326  0.1700
  931MOL0     O25585   5.894   3.740   3.523  0.2778  0.0126  0.4400
  931MOL0     C25586   5.995   3.686   3.612  0.3850  0.7594  0.5945
  931MOL0     C25587   6.025   3.538   3.575  0.5048 -0.1881  0.8441
  931MOL0     C25588   6.084   3.458   3.686  0.9504 -0.3063 -0.4423
  931MOL0     C25589   6.185   3.351   3.648  0.3252  0.4349  0.8429
  931MOL0     C25590   6.115   3.228   3.586 -0.1755  0.3989 -0.3172
  931MOL0     C25591   6.214   3.112   3.562  0.1775  0.1347  0.5236
  931MOL0     C25592   6.275   3.051   3.691  0.1686 -0.7056  0.1850
  931MOL0     C25593   6.165   2.998   3.785 -0.1102  0.9909 -0.2322
  931MOL0    Cl25594   6.075   2.865   3.704  0.1551 -0.3356 -0.1276
  931MOL0     C25595   5.732   3.886   3.444  0.9945 -0.1429  0.6709
  931MOL0     C25596   5.647   4.000   3.470 -0.0279 -0.2624  0.2228
  931MOL0     O25597   5.438   4.084   3.775  0.0283 -0.8532  0.0637
  931MOL0     C25598   5.215   4.263   3.730 -0.2037  0.2948 -0.3855
  931MOL0     C25599   5.113   4.362   3.710  0.4242  0.5678  0.1656
  931MOL0     N25600   4.481   4.517   3.510  0.0807  0.3994 -0.2247
  931MOL0     N25601   4.408   4.609   3.441  0.6638  0.6287  0.3202
  931MOL0     C25602   3.238   4.732   3.215  0.8571 -0.4052  1.3657
  931MOL0     C25603   3.104   4.720   3.176  0.6625 -0.5514  0.5423
  931MOL0     C25604   2.754   4.511   2.981  0.2573  0.9230 -0.4199
  931MOL0     C25605   2.687   4.619   2.909  0.5536  0.2026 -0.7008
  931MOL0     C25606   2.556   4.616   2.873 -0.5647 -0.0712 -0.4189
  931MOL0     C25607   2.476   4.519   2.932 -0.4732 -0.7569  1.0439
  931MOL0     O25608   2.342   4.511   2.906  0.0763 -0.5417  0.6538
  931MOL0     C25609   2.283   4.611   2.817 -0.2678  0.3541  0.4699
  931MOL0     C25610   2.129   4.591   2.800 -0.5374 -0.1187  0.4972
  931MOL0     C25611   2.100   4.459   2.734 -0.0195  0.5727 -0.4324
  931MOL0     C25612   2.124   4.458   2.576 -0.3327 -0.1234 -0.6253
  931MOL0     C25613   2.119   4.331   2.502 -0.4135 -1.3245 -0.8274
  931MOL0     C25614   2.108   4.226   2.451 -0.0767  0.6687 -0.2914
  931MOL0     C25615   2.529   4.420   3.023  0.4903  0.1218  0.2678
  931MOL0     C25616   2.664   4.414   3.044 -1.4096  0.8138  0.7863
  931MOL0     C25617   2.712   4.299   3.134 -0.0798 -0.2693  0.2911
  931MOL0     H25618   3.149   4.593   2.862  1.0949  0.5841 -0.0099
  931MOL0     H25619   3.396   4.619   2.937 -0.5102  0.8461 -0.4141
  931MOL0     H25620   3.453   4.741   3.360 -0.1422  0.5501 -0.7260
  931MOL0     H25621   3.593   4.657   3.321  0.1147 -0.0921 -0.0903
  931MOL0     H25622   3.546   4.945   3.298 -0.8610 -1.9032  0.0119
  931MOL0     H25623   3.636   4.866   3.160 -0.6646 -2.2913 -0.3499
  931MOL0     H25624   3.716   4.812   3.458  3.6766 -2.8796 -0.7682
  931MOL0     H25625   3.760   4.960   3.368  6.0981 -1.7645  1.3593
  931MOL0     H25626   3.838   4.678   3.325 -0.9149  0.0522 -0.1034
  931MOL0     H25627   3.859   4.780   3.188 -1.6173  0.6574  0.0387
  931MOL0     H25628   3.999   4.948   3.310  0.4662 -0.7380 -0.9566
  931MOL0     H25629   3.972   4.869   3.457 -0.4919  1.1238 -0.7686
  931MOL0     H25630   4.108   4.677   3.399  0.9981  0.7069  1.2280
  931MOL0     H25631   4.118   4.742   3.226 -1.2068  4.9602 -1.6512
  931MOL0     H25632   4.211   4.950   3.354 -2.2645 -1.2161 -3.1239
  931MOL0     H25633   4.313   4.814   3.303  1.1057  3.5677  0.3292
  931MOL0     H25634   4.306   4.908   3.575 -2.0789 -1.2438  2.6108
  931MOL0     H25635   4.190   4.802   3.579  0.4925 -0.0670  1.4378
  931MOL0     H25636   4.442   4.727   3.740 -1.8581 -1.3786  0.9027
  931MOL0     H25637   4.525   4.488   3.826  0.5666 -0.9975 -0.1276
  931MOL0     H25638   4.600   4.390   3.704 -1.1028  0.9182 -2.7199
  931MOL0     H25639   4.700   4.669   3.751 -0.8171 -0.7856 -2.9135
  931MOL0     H25640   4.763   4.532   3.859 -5.1518  0.9671  3.0786
  931MOL0     H25641   4.782   4.570   3.551 -0.1949 -0.3552 -0.1051
  931MOL0     H25642   4.851   4.430   3.633  1.6508 -0.2110  1.4348
  931MOL0     H25643   4.977   4.588   3.785  1.5710  1.3693  0.2565
  931MOL0     H25644   4.953   4.711   3.658  1.1167 -0.2953 -0.3092
  931MOL0     H25645   5.298   4.559   3.510  0.9722  0.5703  0.7769
  931MOL0     H25646   5.451   4.405   3.526 -0.2210 -1.7681 -1.2212
  931MOL0     H25647   5.729   4.062   3.787 -4.0246 -0.0370  1.0592
  931MOL0     H25648   5.892   3.891   3.737  2.8100  0.1678 -2.1745
  931MOL0     H25649   6.089   3.741   3.620  1.9177 -1.7276  0.5976
  931MOL0     H25650   5.952   3.686   3.713  0.5326  0.9118  0.6603
  931MOL0     H25651   5.939   3.483   3.535  1.8831 -1.1779 -0.9071
  931MOL0     H25652   6.107   3.544   3.503  1.8437 -2.3890  2.0771
  931MOL0     H25653   6.127   3.521   3.765 -0.0734 -0.5560  0.3318
  931MOL0     H25654   5.999   3.404   3.729 -0.2749  2.1409  0.3774
  931MOL0     H25655   6.225   3.320   3.745 -0.8576 -0.1818  1.1516
  931MOL0     H25656   6.272   3.391   3.595 -0.8764  0.5278 -1.1252
  931MOL0     H25657   6.076   3.257   3.488 -0.2258  1.2268 -0.0614
  931MOL0     H25658   6.028   3.200   3.646  0.4105 -1.4395 -0.2667
  931MOL0     H25659   6.153   3.036   3.512 -1.0226  1.0762  0.5296
  931MOL0     H25660   6.284   3.144   3.484  0.6274 -1.1133  0.3836
  931MOL0     H25661   6.327   3.131   3.744 -2.2752  1.0245  0.1433
  931MOL0     H25662   6.339   2.967   3.663  1.0223 -0.8446  2.3679
  931MOL0     H25663   6.209   2.962   3.879  1.1328  0.6737 -0.9067
  931MOL0     H25664   6.096   3.074   3.823  1.1467  1.5310  1.1019
  931MOL0     H25665   5.739   3.837   3.347 -0.0501 -2.1242  1.5480
  931MOL0     H25666   5.592   4.037   3.384  0.7372 -1.0990 -0.6547
  931MOL0     H25667   5.194   4.186   3.804  2.1263  2.6924  3.0524
  931MOL0     H25668   5.015   4.360   3.756  1.5111  0.9726  2.6694
  931MOL0     H25669   3.241   4.777   3.314  0.1475  0.4004  1.0355
  931MOL0     H25670   3.027   4.736   3.251  0.0186 -1.9000  0.1980
  931MOL0     H25671   2.732   4.714   2.882 -2.8365  1.2860 -3.0832
  931MOL0     H25672   2.523   4.704   2.818  1.4686 -0.0736 -1.7978
  931MOL0     H25673   2.322   4.613   2.715 -1.3594  0.1957  0.0305
  931MOL0     H25674   2.309   4.710   2.854  1.8105 -0.5839  1.6771
  931MOL0     H25675   2.088   4.669   2.735  2.5393  2.2786  1.2028
  931MOL0     H25676   2.088   4.586   2.901  1.0185  0.9435  1.2223
  931MOL0     H25677   1.998   4.423   2.746  0.0962  0.0547 -0.9642
  931MOL0     H25678   2.168   4.388   2.783 -0.1613 -0.2838 -1.4452
  931MOL0     H25679   2.052   4.531   2.537 -0.9024  1.0161  2.2896
  931MOL0     H25680   2.226   4.491   2.553 -0.1200 -0.7373 -0.5656
  931MOL0     H25681   2.100   4.130   2.404 -2.1624  1.8546 -2.6144
  931MOL0     H25682   2.467   4.344   3.071  2.4642 -1.6973  0.0924
  931MOL0     H25683   2.648   4.300   3.223 -0.1442 -2.3032  0.3172
  931MOL0     H25684   2.696   4.205   3.080 -1.5621  0.0176  0.1662
  931MOL0     H25685   2.816   4.303   3.165  0.0572 -1.9503  0.1457
  932MOL0     O25686   1.881  11.031   6.904  0.1081 -0.5434 -0.2364
  932MOL0     C25687   1.898  11.150   6.896 -0.0477  0.3022  0.3210
  932MOL0     O25688   2.026  11.210   6.889 -0.5215  0.2407  0.9969
  932MOL0     C25689   2.145  11.138   6.881 -0.5245 -0.3864 -0.3686
  932MOL0     C25690   2.259  11.194   6.942 -0.6536 -0.8444  0.4858
  932MOL0     C25691   2.376  11.121   6.936  0.0656 -0.5348 -0.8774
  932MOL0     C25692   2.383  11.004   6.868 -1.3243 -0.4080 -0.8186
  932MOL0     O25693   2.498  10.923   6.874  0.0643  0.0958 -0.3607
  932MOL0     C25694   2.609  10.935   6.965 -0.9541 -0.2287 -0.4337
  932MOL0     C25695   2.748  10.969   6.897 -0.5101  0.8370  0.0453
  932MOL0     C25696   2.819  10.846   6.842 -0.1838  0.4180 -0.8553
  932MOL0     C25697   2.733  10.771   6.741 -0.1060 -0.2009  0.1954
  932MOL0     C25698   2.819  10.684   6.650  0.6720  0.7244  0.1959
  932MOL0     C25699   2.905  10.575   6.718 -0.9501  0.6059  0.0290
  932MOL0     C25700   2.920  10.444   6.640 -0.1756  0.0912 -0.5803
  932MOL0     C25701   3.002  10.463   6.514  1.1499 -0.6648 -0.8967
  932MOL0     N25702   3.012  10.332   6.447 -0.3862  0.5005 -0.6317
  932MOL0     C25703   2.926  10.295   6.354 -0.4504  0.4058  1.0646
  932MOL0     C25704   2.977  10.174   6.301 -0.0039 -0.1279  0.3541
  932MOL0     C25705   2.920  10.095   6.190 -0.9707 -0.2694  0.3420
  932MOL0     C25706   2.772  10.073   6.190  0.7453 -0.6194  0.2880
  932MOL0     C25707   2.736  10.000   6.060  0.0191 -0.7942  0.0478
  932MOL0     C25708   2.586   9.980   6.052  0.2907  0.3802  0.2935
  932MOL0     O25709   2.552   9.901   5.941 -0.1561  0.4173 -0.7205
  932MOL0     C25710   2.588   9.934   5.816  0.4020 -0.1136 -0.7157
  932MOL0     C25711   2.579  10.065   5.773  0.4013  0.1869 -0.8513
  932MOL0     C25712   2.618  10.103   5.644 -0.5616 -0.4883  0.1322
  932MOL0     C25713   2.658  10.011   5.555  0.2838 -0.1442  0.1094
  932MOL0     C25714   2.708  10.047   5.420 -0.8480 -0.0034  0.3709
  932MOL0     O25715   2.694  10.182   5.404  1.0101  0.3303 -0.2348
  932MOL0     C25716   2.731  10.238   5.286  0.3885 -0.3627  0.1849
  932MOL0     C25717   2.861  10.239   5.243  0.2106 -0.2490 -1.0301
  932MOL0     C25718   2.902  10.316   5.138 -0.1247 -0.4892  0.3531
  932MOL0     C25719   2.813  10.391   5.066  0.2322  0.3666 -0.6040
  932MOL0     O25720   2.845  10.452   4.950 -0.3106  0.3693  0.1119
  932MOL0     C25721   2.742  10.427   4.843  0.9101  0.3009  0.5882
  932MOL0     C25722   2.808  10.438   4.710  0.9501 -0.1457 -0.2911
  932MOL0     C25723   2.694  10.415   4.599 -0.3596  0.5001  0.2164
  932MOL0     C25724   2.614  10.541   4.561 -0.4469  0.5199  0.8789
  932MOL0     C25725   2.520  10.522   4.438  0.1586  0.0966  0.7968
  932MOL0     C25726   2.411  10.415   4.456  0.6818 -0.2621  0.2224
  932MOL0     C25727   2.304  10.440   4.344  1.1225 -0.1920 -0.3154
  932MOL0     C25728   2.184  10.507   4.416  0.5195  0.7931 -0.5024
  932MOL0    Cl25729   2.089  10.387   4.511 -0.0326  0.0605 -0.4280
  932MOL0     C25730   2.686  10.404   5.118 -0.8291 -0.1793 -0.0897
  932MOL0     C25731   2.642  10.329   5.225 -0.0276  0.5944  0.6417
  932MOL0     O25732   2.764   9.969   5.337  0.5957  0.0724 -0.3359
  932MOL0     C25733   2.642   9.873   5.580 -0.9048  0.3844 -0.8431
  932MOL0     C25734   2.600   9.840   5.714 -1.0599 -0.0774 -0.2041
  932MOL0     N25735   3.096  10.147   6.375 -0.7941  0.6224  0.3098
  932MOL0     N25736   3.118  10.244   6.460 -0.3051  0.0182  1.5988
  932MOL0     C25737   2.279  10.951   6.800  0.2246 -0.7954  0.9188
  932MOL0     C25738   2.158  11.021   6.811  0.2729 -0.0387 -0.4403
  932MOL0     C25739   1.771  11.229   6.899  0.1529  0.5263  0.3376
  932MOL0     C25740   1.659  11.179   6.965  0.1437  0.1729  0.6451
  932MOL0     C25741   1.536  11.241   6.967  0.5357 -0.6647 -0.6267
  932MOL0     C25742   1.510  11.361   6.894 -0.8598 -0.4863 -0.4100
  932MOL0     O25743   1.389  11.418   6.884 -0.3607  0.0307 -0.7396
  932MOL0     C25744   1.269  11.367   6.949  0.4831 -0.2235  0.2344
  932MOL0     C25745   1.247  11.451   7.087  0.4470  1.0551  0.5858
  932MOL0     C25746   1.139  11.420   7.180  0.1032  0.4942  0.9041
  932MOL0     C25747   1.141  11.528   7.287  0.8730  0.1761  0.3510
  932MOL0     C25748   1.245  11.529   7.385 -0.3495  0.1196  0.3872
  932MOL0     C25749   1.346  11.545   7.449  0.7062  1.0419 -0.7557
  932MOL0     C25750   1.614  11.409   6.813  0.0985  0.1268 -0.0204
  932MOL0     C25751   1.749  11.343   6.823 -0.0797 -0.1664  1.1571
  932MOL0     C25752   1.865  11.400   6.744 -0.3003  0.7445 -0.4916
  932MOL0     H25753   2.255  11.289   6.994  1.8982 -0.4441  0.0367
  932MOL0     H25754   2.469  11.157   6.979  0.4509  0.3322 -2.3661
  932MOL0     H25755   2.590  11.013   7.039  0.1265 -0.2918 -0.0731
  932MOL0     H25756   2.627  10.834   7.002  2.6084 -0.2577 -1.8328
  932MOL0     H25757   2.809  11.010   6.978  0.2050 -3.7970  2.2008
  932MOL0     H25758   2.762  11.030   6.807  3.5625 -0.8776 -0.7400
  932MOL0     H25759   2.838  10.774   6.923 -0.8298 -1.3081 -2.1729
  932MOL0     H25760   2.916  10.869   6.797 -0.9042  1.1524 -2.0744
  932MOL0     H25761   2.662  10.704   6.790 -0.5131  0.1768  0.1199
  932MOL0     H25762   2.682  10.840   6.672  0.2559  0.4263  0.5507
  932MOL0     H25763   2.745  10.621   6.600  0.4413 -0.7495  2.2656
  932MOL0     H25764   2.865  10.742   6.570 -0.2944  1.0815 -0.1117
  932MOL0     H25765   3.001  10.619   6.748 -0.6370 -0.8011  1.1988
  932MOL0     H25766   2.857  10.536   6.808 -0.8032 -0.3819 -0.3103
  932MOL0     H25767   2.831  10.391   6.606 -0.5283  0.7488 -0.7055
  932MOL0     H25768   2.971  10.367   6.699  2.1419  1.9407  0.0015
  932MOL0     H25769   2.963  10.533   6.440  0.2173 -0.7571 -0.5180
  932MOL0     H25770   3.099  10.497   6.550 -0.1819  0.2169  2.2186
  932MOL0     H25771   2.834  10.344   6.326 -0.4311 -0.3406 -0.4016
  932MOL0     H25772   2.943  10.148   6.097  0.8408  0.9135  1.3843
  932MOL0     H25773   2.973   9.999   6.194  0.7220  0.6627  1.8246
  932MOL0     H25774   2.736  10.016   6.276  2.5398 -0.3128  1.2966
  932MOL0     H25775   2.732  10.175   6.192  3.1071  0.3613  0.6592
  932MOL0     H25776   2.786   9.903   6.072  0.9729 -0.4814 -1.2377
  932MOL0     H25777   2.765  10.054   5.970 -1.4236  5.1252  2.6584
  932MOL0     H25778   2.544  10.081   6.053  0.2400  0.3887 -1.0301
  932MOL0     H25779   2.543   9.922   6.134 -1.7277 -0.7245 -1.4511
  932MOL0     H25780   2.553  10.149   5.837 -0.4277 -0.5785 -0.1597
  932MOL0     H25781   2.609  10.209   5.620 -2.4497  0.0027  2.6670
  932MOL0     H25782   2.937  10.179   5.292  1.9313  2.0240 -0.7298
  932MOL0     H25783   3.005  10.321   5.105 -0.9515 -0.0172 -2.3731
  932MOL0     H25784   2.699  10.327   4.849 -0.6428  0.6886 -2.3009
  932MOL0     H25785   2.663  10.502   4.851  3.2178  2.9313  0.6222
  932MOL0     H25786   2.833  10.544   4.703 -2.2472  0.8582  1.4265
  932MOL0     H25787   2.899  10.380   4.694  0.8613 -0.3160 -0.1866
  932MOL0     H25788   2.742  10.374   4.510 -3.1706 -0.0289 -1.1844
  932MOL0     H25789   2.619  10.339   4.624 -0.8357  0.5399 -1.0270
  932MOL0     H25790   2.683  10.621   4.534  0.9394 -0.2813  1.9281
  932MOL0     H25791   2.555  10.557   4.651  1.0255 -6.0263  3.5753
  932MOL0     H25792   2.587  10.498   4.355  1.0350  2.1139  0.8375
  932MOL0     H25793   2.470  10.614   4.407 -0.9426 -0.7383  0.0356
  932MOL0     H25794   2.459  10.317   4.455  1.0871 -0.0673 -0.5113
  932MOL0     H25795   2.365  10.436   4.553  3.4131  0.2219  1.5142
  932MOL0     H25796   2.281  10.340   4.305 -1.2497 -0.9694  2.6689
  932MOL0     H25797   2.334  10.506   4.263  0.8289 -0.3256 -0.5340
  932MOL0     H25798   2.216  10.594   4.475  0.3623 -0.0634  0.8998
  932MOL0     H25799   2.114  10.544   4.340 -4.0347 -0.3739  2.6772
  932MOL0     H25800   2.622  10.482   5.078  0.5122  1.9421  1.6082
  932MOL0     H25801   2.541  10.340   5.264 -0.3309  0.5421 -0.1140
  932MOL0     H25802   2.670   9.795   5.510 -0.3113 -1.7956  1.6275
  932MOL0     H25803   2.585   9.733   5.728  1.2517 -0.8821 -2.8665
  932MOL0     H25804   2.293  10.865   6.734 -0.4421  1.5045 -2.4899
  932MOL0     H25805   2.071  10.985   6.759 -0.1782  1.1329 -0.5327
  932MOL0     H25806   1.674  11.087   7.021 -0.7986 -1.4138 -1.5633
  932MOL0     H25807   1.456  11.202   7.029 -0.2911  0.2071 -1.1136
  932MOL0     H25808   1.269  11.259   6.964  0.3542 -0.2928 -0.2472
  932MOL0     H25809   1.185  11.387   6.881  1.4891  0.2831 -0.8882
  932MOL0     H25810   1.248  11.557   7.060  1.5273  1.0019  0.3556
  932MOL0     H25811   1.339  11.432   7.143  1.2329  1.0132 -0.6650
  932MOL0     H25812   1.157  11.318   7.217 -1.2836 -1.0152 -2.2132
  932MOL0     H25813   1.043  11.411   7.128  0.3046 -1.4280  0.7678
  932MOL0     H25814   1.151  11.624   7.236  0.6181  0.2701  0.4776
  932MOL0     H25815   1.044  11.537   7.336  0.8845  1.3363  0.1821
  932MOL0     H25816   1.431  11.556   7.513 -0.0054 -0.8417  0.6088
  932MOL0     H25817   1.606  11.493   6.745  0.0465  0.3893  0.3076
  932MOL0     H25818   1.835  11.451   6.652 -1.2380 -1.5627 -1.5422
  932MOL0     H25819   1.913  11.475   6.808  2.2611 -0.9550 -0.2722
  932MOL0     H25820   1.942  11.331   6.710 -1.4151 -0.4446 -0.6635
  933MOL0     O25821   9.227   1.757   2.183 -0.1836 -0.1438  0.3602
  933MOL0     C25822   9.155   1.717   2.273  0.1320  0.0016  0.7364
  933MOL0     O25823   9.198   1.692   2.401 -0.0692  0.0548 -0.4733
  933MOL0     C25824   9.337   1.720   2.417  0.3879  0.4037  0.5034
  933MOL0     C25825   9.401   1.846   2.425 -0.2725 -0.5374 -0.5969
  933MOL0     C25826   9.537   1.853   2.435  0.4993 -0.5401 -0.5800
  933MOL0     C25827   9.621   1.737   2.435  1.5683 -0.3936  1.2259
  933MOL0     O25828   9.754   1.767   2.438 -1.1047  0.4914  0.3219
  933MOL0     C25829   9.849   1.657   2.401 -0.2000  0.0356 -0.3553
  933MOL0     C25830   9.993   1.709   2.409 -1.3150 -0.0212 -0.4928
  933MOL0     C25831  10.040   1.728   2.551  0.7752 -0.9553  0.9328
  933MOL0     C25832  10.182   1.796   2.557 -0.2678 -0.2588  0.1702
  933MOL0     C25833  10.196   1.857   2.691 -0.0604  0.1744  0.4612
  933MOL0     C25834  10.309   1.955   2.682 -0.0656 -0.5659 -0.1006
  933MOL0     C25835  10.321   2.040   2.807  1.2070  0.3609  0.3671
  933MOL0     C25836  10.456   2.118   2.820  0.6627  0.5994 -0.1063
  933MOL0     N25837  10.568   2.034   2.843 -0.3633  0.5580  1.2838
  933MOL0     C25838  10.669   2.018   2.751  0.1788  0.7559  0.1098
  933MOL0     C25839  10.759   1.933   2.807 -0.6219 -1.2437 -0.1325
  933MOL0     C25840  10.886   1.878   2.745 -0.6851 -0.4871 -0.2699
  933MOL0     C25841  11.006   1.967   2.764  0.0540  0.1109 -0.1161
  933MOL0     C25842  11.119   1.917   2.676  0.4939  0.5635  0.2366
  933MOL0     C25843  11.245   1.993   2.710 -0.2094 -0.2364 -0.1295
  933MOL0     O25844  11.297   1.940   2.828  1.0579 -1.0280 -0.8463
  933MOL0     C25845  11.419   1.877   2.833  0.2278  0.2567 -0.2256
  933MOL0     C25846  11.503   1.909   2.933 -0.1943  0.3741  0.4074
  933MOL0     C25847  11.628   1.840   2.940 -0.1212  0.4376  0.5970
  933MOL0     C25848  11.673   1.746   2.850  0.1671 -0.2877 -0.2788
  933MOL0     C25849  11.790   1.668   2.875 -0.4800  0.1187 -0.6297
  933MOL0     O25850  11.881   1.722   2.970  0.6270  0.0077 -0.5533
  933MOL0     C25851  11.961   1.636   3.038 -0.3746  0.4501 -0.0660
  933MOL0     C25852  11.943   1.635   3.176 -0.5995  0.0609 -0.3123
  933MOL0     C25853  12.016   1.543   3.256 -0.9273  0.3732 -0.4740
  933MOL0     C25854  12.096   1.445   3.195  0.4610  0.5315 -0.6880
  933MOL0     O25855  12.172   1.357   3.257 -0.2617  0.1315  1.0249
  933MOL0     C25856  12.261   1.416   3.356  0.4924  0.4662 -0.7081
  933MOL0     C25857  12.362   1.304   3.399  0.6763  0.0941  0.6861
  933MOL0     C25858  12.456   1.373   3.494  0.0765 -0.2870 -0.3228
  933MOL0     C25859  12.556   1.265   3.523 -0.3703  1.1584 -0.8030
  933MOL0     C25860  12.657   1.313   3.638 -0.3695  0.1021  0.0224
  933MOL0     C25861  12.760   1.411   3.602  0.4807 -0.4843 -0.5619
  933MOL0     C25862  12.866   1.365   3.497 -0.9334  0.5114 -0.5160
  933MOL0     C25863  12.887   1.460   3.381 -0.0120 -0.5249 -0.0915
  933MOL0    Cl25864  12.742   1.479   3.289  0.1040 -0.0777  0.1122
  933MOL0     C25865  12.111   1.447   3.060  0.3971  0.4456  0.3085
  933MOL0     C25866  12.035   1.530   2.972 -0.0329 -0.2130 -0.4723
  933MOL0     O25867  11.797   1.569   2.810  0.8870 -0.2753  0.2556
  933MOL0     C25868  11.579   1.725   2.746  0.2878  0.0617  0.2443
  933MOL0     C25869  11.459   1.789   2.734  0.0569  0.2669  1.3874
  933MOL0     N25870  10.707   1.908   2.936  0.3140 -0.6082 -0.0155
  933MOL0     N25871  10.594   1.967   2.958  0.4425 -0.0557 -0.6246
  933MOL0     C25872   9.559   1.613   2.425  0.6867  0.2676  0.3282
  933MOL0     C25873   9.425   1.607   2.415  0.1663 -0.8641 -0.5639
  933MOL0     C25874   9.022   1.675   2.237 -0.3302 -0.2338 -1.0509
  933MOL0     C25875   8.983   1.552   2.295 -0.3322  1.0262  0.1020
  933MOL0     C25876   8.859   1.490   2.274  0.7178  0.3190 -0.1377
  933MOL0     C25877   8.767   1.552   2.183  0.5192 -0.4588 -0.3202
  933MOL0     O25878   8.642   1.491   2.178  0.8186 -0.1571  0.9242
  933MOL0     C25879   8.538   1.586   2.154  0.3426  0.7556  0.1641
  933MOL0     C25880   8.391   1.548   2.180 -0.6871  0.0825  0.5310
  933MOL0     C25881   8.367   1.411   2.125  0.0361 -0.9094  0.0972
  933MOL0     C25882   8.234   1.360   2.181 -1.2099 -0.5137  1.1317
  933MOL0     C25883   8.114   1.418   2.115 -0.6099  1.0598  0.6283
  933MOL0     C25884   8.029   1.470   2.048 -0.1892  0.4581 -0.4297
  933MOL0     C25885   8.816   1.668   2.112 -0.5185 -0.3383 -0.1767
  933MOL0     C25886   8.938   1.738   2.142 -0.2758  0.4802  0.1997
  933MOL0     C25887   8.972   1.870   2.072  0.2316  0.3665  1.0619
  933MOL0     H25888   9.350   1.941   2.430 -1.1610 -0.9677 -1.2761
  933MOL0     H25889   9.582   1.952   2.443  2.0163 -1.3250  2.0364
  933MOL0     H25890   9.828   1.572   2.466 -1.4251  1.1813  0.8322
  933MOL0     H25891   9.825   1.632   2.297 -3.1668 -1.1534  0.4971
  933MOL0     H25892   9.990   1.788   2.333 -2.3400  0.5902  0.1587
  933MOL0     H25893  10.055   1.624   2.378 -0.5438 -0.0411  1.0181
  933MOL0     H25894  10.048   1.633   2.604  0.8483 -2.8709 -2.2978
  933MOL0     H25895   9.967   1.795   2.597 -0.6473 -2.1582  0.4939
  933MOL0     H25896  10.255   1.717   2.538 -1.8317 -2.0783  1.3646
  933MOL0     H25897  10.189   1.882   2.489 -1.6145 -0.8635 -0.7902
  933MOL0     H25898  10.108   1.919   2.712  0.5611  1.5665 -0.8718
  933MOL0     H25899  10.208   1.772   2.760  2.7501  0.4314  0.4132
  933MOL0     H25900  10.401   1.902   2.654  1.0309 -0.0506  2.2575
  933MOL0     H25901  10.281   2.026   2.604 -1.1440  1.0029  1.6334
  933MOL0     H25902  10.310   1.982   2.899 -1.5003 -0.2889 -0.3050
  933MOL0     H25903  10.244   2.118   2.811  0.4406 -0.3121 -0.8067
  933MOL0     H25904  10.461   2.182   2.732 -6.3424 -0.9472 -2.2130
  933MOL0     H25905  10.448   2.176   2.913 -2.7443  0.4504 -0.1762
  933MOL0     H25906  10.685   2.064   2.654  1.4479 -0.5848 -0.3507
  933MOL0     H25907  10.901   1.777   2.784 -0.1041 -0.1632  0.3608
  933MOL0     H25908  10.866   1.871   2.637  0.0759  0.1022 -0.4621
  933MOL0     H25909  10.977   2.068   2.733  0.5031  0.0803 -0.6623
  933MOL0     H25910  11.034   1.954   2.869  2.0770 -0.9785 -0.7344
  933MOL0     H25911  11.092   1.925   2.571  0.4154  0.9825  0.2864
  933MOL0     H25912  11.139   1.811   2.693  0.1441 -0.1563 -3.1795
  933MOL0     H25913  11.232   2.101   2.717 -1.1592 -0.3811  0.4983
  933MOL0     H25914  11.320   1.975   2.632 -0.9435 -3.4212 -0.2363
  933MOL0     H25915  11.480   1.990   3.002 -1.4119  0.1394  0.2965
  933MOL0     H25916  11.696   1.864   3.021 -0.5333  1.2061  0.7302
  933MOL0     H25917  11.880   1.711   3.221  0.7813  0.6730  0.6721
  933MOL0     H25918  12.016   1.543   3.365  1.6964  2.2702 -0.4022
  933MOL0     H25919  12.311   1.503   3.312 -1.5821  0.8139 -2.5206
  933MOL0     H25920  12.197   1.445   3.440  1.5953  3.1324 -0.7005
  933MOL0     H25921  12.314   1.227   3.460  0.3669  1.9972  2.9424
  933MOL0     H25922  12.410   1.270   3.307  1.2286  0.7554  0.7213
  933MOL0     H25923  12.498   1.465   3.452  1.5314  0.2082  2.0409
  933MOL0     H25924  12.408   1.410   3.586 -3.1298 -1.4503 -1.3758
  933MOL0     H25925  12.618   1.237   3.438  2.4516  1.5455  0.9812
  933MOL0     H25926  12.491   1.183   3.553  0.7176 -0.3454 -2.3685
  933MOL0     H25927  12.718   1.233   3.682  0.8842  0.9605 -0.1095
  933MOL0     H25928  12.603   1.368   3.715  0.0452  1.2875 -0.5091
  933MOL0     H25929  12.705   1.502   3.575  1.0210  0.2074  0.6026
  933MOL0     H25930  12.817   1.429   3.693  0.5379 -0.8740 -0.5207
  933MOL0     H25931  12.836   1.266   3.463 -0.9941  0.3490  0.0076
  933MOL0     H25932  12.958   1.345   3.551 -2.2573  0.9862  2.1014
  933MOL0     H25933  12.912   1.559   3.420 -2.8407 -0.9103  3.2651
  933MOL0     H25934  12.965   1.419   3.317  1.2914  0.1984  0.9757
  933MOL0     H25935  12.181   1.378   3.015  1.8176  1.0022  1.5574
  933MOL0     H25936  12.033   1.538   2.863 -0.2086  2.7672 -0.3247
  933MOL0     H25937  11.617   1.655   2.672  0.8377 -2.2238  2.5451
  933MOL0     H25938  11.404   1.750   2.649  2.4927 -1.0072  0.3027
  933MOL0     H25939   9.609   1.516   2.421 -2.2374 -1.3930  0.8459
  933MOL0     H25940   9.370   1.515   2.398 -1.8621  0.2543 -0.3509
  933MOL0     H25941   9.065   1.515   2.357 -1.0849 -2.3071 -0.7139
  933MOL0     H25942   8.835   1.391   2.311  2.8846 -0.7760 -1.4362
  933MOL0     H25943   8.547   1.605   2.047 -1.6002 -0.0562 -0.1848
  933MOL0     H25944   8.554   1.679   2.210 -0.9651  2.0156 -1.4440
  933MOL0     H25945   8.323   1.617   2.128  0.4355  1.5694  0.9580
  933MOL0     H25946   8.376   1.553   2.288  1.7942 -0.6530  0.9755
  933MOL0     H25947   8.438   1.330   2.147 -2.6688 -3.5422 -0.1225
  933MOL0     H25948   8.372   1.426   2.017 -0.1861  1.5045  0.3771
  933MOL0     H25949   8.230   1.251   2.173  0.3663 -0.5143 -0.4466
  933MOL0     H25950   8.234   1.360   2.290  1.9790 -4.8891  1.4007
  933MOL0     H25951   7.955   1.528   1.998 -2.3620 -0.5691  1.4185
  933MOL0     H25952   8.750   1.723   2.046 -0.2340 -2.3583 -2.2824
  933MOL0     H25953   8.891   1.938   2.045  0.4011  1.7193  3.5961
  933MOL0     H25954   9.025   1.932   2.146 -1.2590  2.2534  0.6333
  933MOL0     H25955   9.035   1.844   1.986 -2.4329  0.8906 -1.1692
  934MOL0     O25956   8.770   3.908   7.830  0.4465 -0.8393  0.4290
  934MOL0     C25957   8.789   3.792   7.799  0.3766  0.0838  0.3465
  934MOL0     O25958   8.842   3.746   7.689 -0.6292  0.6124  1.0774
  934MOL0     C25959   8.860   3.830   7.588 -1.1247 -0.0731  0.9307
  934MOL0     C25960   8.946   3.937   7.594  0.1841  0.1055  0.3493
  934MOL0     C25961   8.983   4.015   7.482  1.8569  1.0978  0.2878
  934MOL0     C25962   8.918   3.987   7.359 -0.1030  0.1102  0.1281
  934MOL0     O25963   8.942   4.074   7.253 -0.2415  0.1441  0.0886
  934MOL0     C25964   8.846   4.175   7.248 -0.7268 -0.1039 -0.0050
  934MOL0     C25965   8.847   4.274   7.119 -0.0587  0.3351  0.5523
  934MOL0     C25966   8.785   4.211   6.983 -0.3790 -0.8382 -0.3329
  934MOL0     C25967   8.743   4.325   6.882 -0.1147 -0.4414 -0.7628
  934MOL0     C25968   8.859   4.421   6.849 -0.0424 -0.5346  0.9318
  934MOL0     C25969   8.850   4.506   6.720  0.2173 -0.7365 -0.3763
  934MOL0     C25970   8.742   4.611   6.713 -1.0263  0.2637  0.0012
  934MOL0     C25971   8.705   4.636   6.557  0.0623 -0.8651 -0.7996
  934MOL0     N25972   8.751   4.763   6.502  0.1217 -0.0023 -0.2663
  934MOL0     C25973   8.676   4.880   6.501  0.0493 -0.1245 -0.4051
  934MOL0     C25974   8.758   4.976   6.454  0.5070 -0.3941 -0.0643
  934MOL0     C25975   8.722   5.117   6.443  0.5661 -0.6962 -0.0996
  934MOL0     C25976   8.759   5.221   6.562 -0.0774 -0.2198  0.2971
  934MOL0     C25977   8.697   5.160   6.690 -0.0861 -0.1392 -0.7519
  934MOL0     C25978   8.735   5.258   6.801  0.9039 -0.2992 -0.0569
  934MOL0     O25979   8.658   5.380   6.793  0.2184 -0.0926 -1.0374
  934MOL0     C25980   8.596   5.430   6.904 -0.0121  0.7100  0.3102
  934MOL0     C25981   8.643   5.415   7.035  0.5550 -0.3696 -0.1888
  934MOL0     C25982   8.578   5.489   7.135  0.9895 -0.4183  0.2771
  934MOL0     C25983   8.461   5.569   7.104 -0.3909  0.5241 -0.6466
  934MOL0     C25984   8.385   5.638   7.213  0.1148  0.9248  0.5857
  934MOL0     O25985   8.450   5.674   7.326  0.3083 -0.3124 -0.0340
  934MOL0     C25986   8.387   5.705   7.444  0.3879  0.5165 -0.1544
  934MOL0     C25987   8.459   5.773   7.545  0.3714  0.3169 -0.0645
  934MOL0     C25988   8.410   5.787   7.678  0.0706 -0.2335  0.4719
  934MOL0     C25989   8.279   5.748   7.707 -0.5610  0.5879  0.1802
  934MOL0     O25990   8.247   5.765   7.843 -0.2849 -0.2080  0.7168
  934MOL0     C25991   8.108   5.757   7.882  0.0122  0.4135 -0.5185
  934MOL0     C25992   8.092   5.792   8.038 -0.7261  0.2940  0.1264
  934MOL0     C25993   8.103   5.953   8.043 -0.6340 -0.9934  0.5795
  934MOL0     C25994   8.026   6.021   8.156 -0.2274 -0.7172 -0.3228
  934MOL0     C25995   8.029   6.168   8.143 -0.8294 -0.4320  0.1476
  934MOL0     C25996   7.925   6.246   8.239 -0.4585  0.1860 -0.7175
  934MOL0     C25997   7.983   6.266   8.379 -0.3612 -0.4233  0.9104
  934MOL0     C25998   7.895   6.347   8.466  0.0409 -0.4958 -0.6419
  934MOL0    Cl25999   7.978   6.337   8.633 -0.2022  0.5220 -0.1258
  934MOL0     C26000   8.209   5.677   7.609 -0.3508 -0.7688  0.0722
  934MOL0     C26001   8.262   5.661   7.485 -0.3460 -0.6991 -0.7819
  934MOL0     O26002   8.262   5.648   7.186  0.4999 -0.0051 -0.1034
  934MOL0     C26003   8.425   5.580   6.969 -0.8136 -0.0196 -0.1001
  934MOL0     C26004   8.488   5.510   6.869  0.2449 -0.7857 -0.9152
  934MOL0     N26005   8.881   4.921   6.427 -0.3408  0.3763  0.3791
  934MOL0     N26006   8.874   4.787   6.451  0.0088 -0.0142 -1.1985
  934MOL0     C26007   8.825   3.881   7.355  0.2618  1.2401 -0.0605
  934MOL0     C26008   8.813   3.798   7.466  0.5783  0.2678 -0.8809
  934MOL0     C26009   8.765   3.699   7.903  0.7653 -0.2577  0.4304
  934MOL0     C26010   8.841   3.716   8.015 -0.0940  0.6601 -0.7610
  934MOL0     C26011   8.835   3.631   8.134  0.0247 -0.2608 -0.3853
  934MOL0     C26012   8.748   3.523   8.126 -0.1078  0.8779 -0.5895
  934MOL0     O26013   8.715   3.440   8.232 -0.8191  0.1209 -0.9692
  934MOL0     C26014   8.841   3.393   8.290  0.8940 -0.0089  0.9914
  934MOL0     C26015   8.823   3.298   8.405  1.3195  0.5601  0.7104
  934MOL0     C26016   8.803   3.359   8.547 -0.0440 -0.3584 -0.4646
  934MOL0     C26017   8.726   3.267   8.649 -0.1738 -0.9239  0.6332
  934MOL0     C26018   8.821   3.161   8.683  0.2340 -0.8308 -0.0078
  934MOL0     C26019   8.904   3.088   8.727 -0.5504  0.3296 -0.9961
  934MOL0     C26020   8.683   3.503   8.010  0.6264 -0.1249  0.7044
  934MOL0     C26021   8.699   3.582   7.893 -1.0519  0.4438 -0.2726
  934MOL0     C26022   8.645   3.531   7.769  0.4709 -0.7175  0.3096
  934MOL0     H26023   8.993   3.966   7.687  0.6829 -0.4677  0.2797
  934MOL0     H26024   9.050   4.100   7.495  0.3377  3.3840 -4.5446
  934MOL0     H26025   8.750   4.123   7.239  0.4277 -2.9299  2.2863
  934MOL0     H26026   8.838   4.237   7.338 -1.2516  2.1545 -1.5200
  934MOL0     H26027   8.949   4.304   7.094  0.2261 -1.6943 -0.9974
  934MOL0     H26028   8.801   4.366   7.155  0.9263  0.8565  0.5064
  934MOL0     H26029   8.696   4.147   6.996  0.3202 -2.6162 -3.3503
  934MOL0     H26030   8.860   4.148   6.935 -0.7217 -1.7528  0.2909
  934MOL0     H26031   8.702   4.277   6.792 -0.0676 -1.0822 -0.4465
  934MOL0     H26032   8.665   4.384   6.931  1.8153  1.0454  0.6680
  934MOL0     H26033   8.883   4.481   6.938 -0.2711  5.2108 -2.3804
  934MOL0     H26034   8.948   4.363   6.823  0.5055  1.3423 -1.8598
  934MOL0     H26035   8.947   4.554   6.703 -1.6429  2.9794 -1.6242
  934MOL0     H26036   8.831   4.442   6.633 -0.6287 -1.8209  0.5907
  934MOL0     H26037   8.782   4.702   6.758  0.0264 -1.9110  3.9020
  934MOL0     H26038   8.657   4.581   6.775  0.0355 -2.0500  0.4297
  934MOL0     H26039   8.742   4.555   6.493  0.7730 -0.3972 -0.9924
  934MOL0     H26040   8.597   4.637   6.544 -0.0670  1.6875 -0.0321
  934MOL0     H26041   8.570   4.898   6.512 -0.1102 -0.9500 -0.5148
  934MOL0     H26042   8.773   5.165   6.358  1.5702  0.8260  1.2800
  934MOL0     H26043   8.613   5.112   6.437  0.4511  0.8751  0.0561
  934MOL0     H26044   8.866   5.229   6.582  0.3084 -0.7740 -1.3521
  934MOL0     H26045   8.708   5.314   6.534  2.0623  0.3445 -2.1228
  934MOL0     H26046   8.747   5.065   6.711 -0.3280 -0.3954 -1.3069
  934MOL0     H26047   8.590   5.149   6.668 -0.3166  1.3950 -0.5060
  934MOL0     H26048   8.841   5.286   6.807  0.1546  2.5159  1.6762
  934MOL0     H26049   8.721   5.206   6.896 -2.5439 -1.5322 -1.1024
  934MOL0     H26050   8.718   5.340   7.056  1.3804  0.4574 -0.1169
  934MOL0     H26051   8.616   5.470   7.236  1.1947  0.0015  0.2788
  934MOL0     H26052   8.547   5.826   7.510  1.7285 -3.4368 -2.9589
  934MOL0     H26053   8.457   5.853   7.751 -1.1084  1.5203 -0.3019
  934MOL0     H26054   8.061   5.835   7.821 -0.0881 -0.2213 -1.2597
  934MOL0     H26055   8.062   5.662   7.855  0.0770  0.7944 -2.0622
  934MOL0     H26056   8.001   5.748   8.081 -0.4143  1.7663  2.4666
  934MOL0     H26057   8.174   5.752   8.098 -1.1477 -1.9531 -0.7074
  934MOL0     H26058   8.208   5.983   8.051 -1.3939  2.0876  0.3605
  934MOL0     H26059   8.067   5.997   7.949 -2.9596  1.6868  2.5674
  934MOL0     H26060   8.068   5.992   8.252 -0.5663  0.2626  0.1401
  934MOL0     H26061   7.920   5.996   8.149 -1.6599  4.5294 -3.6260
  934MOL0     H26062   7.998   6.194   8.042  1.8457  3.5707  0.1379
  934MOL0     H26063   8.126   6.217   8.157 -0.3258 -1.5112  0.5628
  934MOL0     H26064   7.911   6.342   8.187 -4.1419  0.9608  1.3039
  934MOL0     H26065   7.831   6.192   8.250  0.6029 -1.7137 -0.6352
  934MOL0     H26066   8.080   6.316   8.369  1.2486 -3.0761  2.2174
  934MOL0     H26067   7.994   6.171   8.433  2.0441  0.3238  1.8561
  934MOL0     H26068   7.876   6.448   8.428 -0.6978 -0.2660  0.2926
  934MOL0     H26069   7.795   6.303   8.468 -0.6017  0.9358  0.3684
  934MOL0     H26070   8.113   5.630   7.626 -0.9935 -0.7517 -2.9007
  934MOL0     H26071   8.196   5.600   7.425 -0.9068 -0.1963 -0.6884
  934MOL0     H26072   8.338   5.638   6.941  1.2727  2.3858 -2.1129
  934MOL0     H26073   8.456   5.523   6.766 -0.2140  1.1812 -0.5647
  934MOL0     H26074   8.770   3.851   7.267  0.1482 -0.3988  0.5326
  934MOL0     H26075   8.737   3.721   7.450 -0.4562  1.2769 -0.9225
  934MOL0     H26076   8.893   3.810   8.031  1.2651 -0.2078  0.1867
  934MOL0     H26077   8.879   3.658   8.230  0.2940  1.6516 -1.0138
  934MOL0     H26078   8.917   3.466   8.320  1.5730  0.8120 -2.3651
  934MOL0     H26079   8.893   3.337   8.212 -0.5316 -2.0817  1.4333
  934MOL0     H26080   8.906   3.227   8.406  1.2947  0.3811  4.2451
  934MOL0     H26081   8.736   3.235   8.385 -2.0387  4.7816  0.5083
  934MOL0     H26082   8.754   3.456   8.536  1.0064  0.5838  2.3343
  934MOL0     H26083   8.898   3.401   8.581 -1.1669  3.3000 -1.3616
  934MOL0     H26084   8.696   3.323   8.738 -0.6425 -1.8811  1.0996
  934MOL0     H26085   8.631   3.232   8.608 -0.9352  1.6007  0.0597
  934MOL0     H26086   8.989   3.040   8.770 -2.2111 -0.8984  1.1179
  934MOL0     H26087   8.610   3.422   8.007  0.3414  0.0922  1.4578
  934MOL0     H26088   8.602   3.431   7.778  0.1627 -0.6544 -0.4505
  934MOL0     H26089   8.556   3.582   7.730 -0.5288 -1.8065  1.0963
  934MOL0     H26090   8.723   3.509   7.696  0.5626 -1.8584  0.7409
  935MOL0     O26091   1.457  10.935   6.971  0.3024 -0.0906 -0.0975
  935MOL0     C26092   1.390  10.831   6.999  0.5649  0.1429  0.4625
  935MOL0     O26093   1.283  10.825   7.080  0.2023  0.5853 -0.2338
  935MOL0     C26094   1.268  10.916   7.177  0.3304 -1.0400 -0.8121
  935MOL0     C26095   1.132  10.935   7.212  0.6781 -0.0723 -0.2086
  935MOL0     C26096   1.107  11.018   7.320 -0.2833 -1.4393  0.4441
  935MOL0     C26097   1.207  11.090   7.387  0.5083 -0.0140  0.4757
  935MOL0     O26098   1.172  11.188   7.479  1.0418 -0.1447  0.0729
  935MOL0     C26099   1.088  11.141   7.586  0.0809 -0.0069 -0.2020
  935MOL0     C26100   1.052  11.257   7.683 -0.2470  0.4147 -0.1272
  935MOL0     C26101   0.988  11.372   7.612 -0.5005 -0.5976  0.1711
  935MOL0     C26102   0.928  11.489   7.696  0.1593  0.0595  0.4415
  935MOL0     C26103   1.034  11.582   7.756  1.2936 -0.0676  0.1021
  935MOL0     C26104   0.971  11.695   7.829 -0.0052  0.2981 -0.1820
  935MOL0     C26105   1.063  11.800   7.891  0.7967 -0.7178  0.4559
  935MOL0     C26106   1.167  11.750   7.987 -0.7099 -0.1864 -0.1982
  935MOL0     N26107   1.259  11.854   8.029  0.5157 -0.2708 -0.2479
  935MOL0     C26108   1.392  11.873   7.988  0.2246  0.1233 -0.4251
  935MOL0     C26109   1.423  11.988   8.045 -0.5060  0.6138 -1.0236
  935MOL0     C26110   1.565  12.038   8.050 -0.0530 -0.1573  0.1491
  935MOL0     C26111   1.562  12.189   8.041  0.2435 -1.8506  0.4752
  935MOL0     C26112   1.703  12.238   7.985 -0.6503  0.2757 -0.7415
  935MOL0     C26113   1.818  12.204   8.090 -0.7958  0.3517 -0.8246
  935MOL0     O26114   1.941  12.276   8.082  0.5153  0.5238 -0.2559
  935MOL0     C26115   2.034  12.233   8.170 -0.2550 -0.0241  0.0426
  935MOL0     C26116   2.017  12.136   8.277  0.2041  0.5029  0.4450
  935MOL0     C26117   2.126  12.104   8.361 -0.3606 -0.0970 -0.3449
  935MOL0     C26118   2.257  12.154   8.347  0.6832 -0.3578  0.3448
  935MOL0     C26119   2.360  12.118   8.440  0.1377  0.9975  0.0466
  935MOL0     O26120   2.485  12.112   8.389  0.4388 -0.3163  0.7452
  935MOL0     C26121   2.586  12.065   8.459 -0.2409 -0.0063 -0.5107
  935MOL0     C26122   2.632  11.933   8.430 -0.0239  0.1483  0.3188
  935MOL0     C26123   2.745  11.886   8.499  0.1580  0.4953  0.8391
  935MOL0     C26124   2.800  11.972   8.597 -0.3694 -0.0151 -0.2266
  935MOL0     O26125   2.908  11.917   8.664  1.1976  0.8450 -0.2946
  935MOL0     C26126   2.872  11.871   8.799 -0.3970 -0.6654 -0.4331
  935MOL0     C26127   2.989  11.802   8.873  0.3075 -0.2483  0.3401
  935MOL0     C26128   3.076  11.715   8.788 -0.1350  0.1780 -0.4989
  935MOL0     C26129   3.210  11.671   8.859 -0.0160  0.1293  0.3038
  935MOL0     C26130   3.318  11.616   8.773 -0.5209 -0.1002  0.4268
  935MOL0     C26131   3.315  11.451   8.776 -0.5972  0.4339  0.7756
  935MOL0     C26132   3.398  11.381   8.671 -0.3418 -0.6272  1.0041
  935MOL0     C26133   3.360  11.236   8.649  0.5551 -0.1384  1.3222
  935MOL0    Cl26134   3.423  11.148   8.792  0.2647  0.3294  0.5300
  935MOL0     C26135   2.755  12.100   8.626 -0.6564  0.5434 -0.8174
  935MOL0     C26136   2.650  12.154   8.551  0.7747  0.3297  0.1772
  935MOL0     O26137   2.328  12.090   8.554  0.1531  0.7581 -0.4802
  935MOL0     C26138   2.275  12.239   8.243 -0.5612  0.5499 -1.3020
  935MOL0     C26139   2.165  12.276   8.158 -1.4027 -0.9528 -0.2923
  935MOL0     N26140   1.319  12.037   8.117 -0.6135 -0.2751 -0.0977
  935MOL0     N26141   1.216  11.956   8.108 -0.2704 -0.3760 -0.3675
  935MOL0     C26142   1.337  11.073   7.344 -0.1306  0.4651  0.0919
  935MOL0     C26143   1.370  10.986   7.246 -1.0437  0.2911  0.9741
  935MOL0     C26144   1.423  10.704   6.927 -0.4317 -0.0885 -0.1084
  935MOL0     C26145   1.544  10.700   6.850 -1.1244  0.1088 -0.6948
  935MOL0     C26146   1.587  10.586   6.787  0.1057  0.2958  0.0919
  935MOL0     C26147   1.507  10.469   6.789 -0.0643 -0.2456  0.4524
  935MOL0     O26148   1.542  10.353   6.727  0.2683 -0.2231 -0.7719
  935MOL0     C26149   1.668  10.331   6.665 -0.3945  0.2262  0.2022
  935MOL0     C26150   1.786  10.315   6.765  1.0480 -0.7393 -0.0233
  935MOL0     C26151   1.904  10.232   6.719  0.2063  0.3231 -0.0090
  935MOL0     C26152   2.036  10.247   6.793  0.3275  0.8968  0.3190
  935MOL0     C26153   2.022  10.212   6.935  0.2461  0.2795  0.4614
  935MOL0     C26154   2.002  10.174   7.048 -0.6454 -1.0178 -0.4137
  935MOL0     C26155   1.390  10.471   6.860 -0.6699  0.1695 -0.1670
  935MOL0     C26156   1.341  10.591   6.923 -0.0486 -1.1145  0.2212
  935MOL0     C26157   1.208  10.571   6.979  0.2286 -0.4979 -0.4162
  935MOL0     H26158   1.049  10.890   7.157 -1.1581  0.9992  1.5709
  935MOL0     H26159   1.000  11.034   7.332 -0.3161 -0.8430 -0.5113
  935MOL0     H26160   0.990  11.107   7.550  1.2504 -1.8540 -1.9028
  935MOL0     H26161   1.134  11.056   7.637 -0.0258 -0.0811 -0.2308
  935MOL0     H26162   1.149  11.280   7.727  0.2069 -0.9288 -0.3863
  935MOL0     H26163   0.977  11.213   7.750 -0.2548  2.4919  1.3194
  935MOL0     H26164   0.914  11.336   7.540  1.7607 -0.7326 -2.2248
  935MOL0     H26165   1.068  11.407   7.546  1.9693 -3.0978  1.6181
  935MOL0     H26166   0.861  11.549   7.633 -0.8937 -2.9129 -1.4806
  935MOL0     H26167   0.869  11.453   7.781 -1.0926  2.2842  0.6051
  935MOL0     H26168   1.105  11.527   7.818  1.9229 -0.2134 -0.7406
  935MOL0     H26169   1.089  11.626   7.673 -2.0149  3.3837 -0.5520
  935MOL0     H26170   0.897  11.744   7.764  1.0807  1.0890 -0.8616
  935MOL0     H26171   0.916  11.645   7.909  0.1875 -0.2747 -0.4072
  935MOL0     H26172   1.003  11.869   7.950  0.7792 -0.2271 -0.1187
  935MOL0     H26173   1.109  11.853   7.806 -3.3383 -0.8108 -2.0954
  935MOL0     H26174   1.127  11.711   8.081 -0.1126  2.7799  1.4158
  935MOL0     H26175   1.215  11.662   7.942  0.4098 -0.0910  0.7606
  935MOL0     H26176   1.441  11.801   7.924  2.6845  3.1616 -2.2529
  935MOL0     H26177   1.606  11.995   8.142  0.0802 -1.1635 -0.3608
  935MOL0     H26178   1.623  12.008   7.962  1.9805  0.9232  1.0770
  935MOL0     H26179   1.491  12.214   7.962 -0.1686 -0.3891  1.2836
  935MOL0     H26180   1.537  12.234   8.137 -1.6752  0.8332 -1.1450
  935MOL0     H26181   1.694  12.346   7.971 -2.2034  0.2967  0.2571
  935MOL0     H26182   1.738  12.191   7.892  1.7944  0.3434  0.0812
  935MOL0     H26183   1.836  12.097   8.085  1.0436  0.5459  0.5391
  935MOL0     H26184   1.773  12.230   8.186 -0.6242  2.4873 -1.2556
  935MOL0     H26185   1.924  12.094   8.312  0.7200 -0.7966  0.3091
  935MOL0     H26186   2.106  12.022   8.428  0.6334  0.9749  1.3309
  935MOL0     H26187   2.604  11.888   8.335 -0.4056  0.9894  0.0278
  935MOL0     H26188   2.805  11.799   8.473  0.9399  0.9611  1.0273
  935MOL0     H26189   2.830  11.961   8.845 -0.5001  0.5559 -2.7690
  935MOL0     H26190   2.792  11.796   8.797 -2.2748  1.1916  0.7367
  935MOL0     H26191   3.033  11.879   8.937  0.5752 -0.9600  1.0166
  935MOL0     H26192   2.930  11.733   8.935 -0.6222 -1.8675 -2.1936
  935MOL0     H26193   3.019  11.624   8.769  0.8503 -0.2196 -1.7132
  935MOL0     H26194   3.100  11.762   8.692 -1.9188  2.7396  0.2170
  935MOL0     H26195   3.194  11.599   8.940  1.6825 -0.3529  0.2476
  935MOL0     H26196   3.238  11.766   8.904 -0.3845  0.6178 -0.4673
  935MOL0     H26197   3.407  11.669   8.806  1.1869 -0.7388 -2.7714
  935MOL0     H26198   3.306  11.666   8.677  0.8781 -2.8603 -1.3136
  935MOL0     H26199   3.335  11.421   8.879  0.2105  3.6756  1.6627
  935MOL0     H26200   3.215  11.412   8.753  0.1386 -0.5213 -1.0180
  935MOL0     H26201   3.505  11.401   8.685 -0.2072  0.3003 -1.0316
  935MOL0     H26202   3.357  11.439   8.587 -1.7589 -1.5108  1.0563
  935MOL0     H26203   3.251  11.230   8.644  0.1911  4.1122  0.1768
  935MOL0     H26204   3.411  11.208   8.556  1.5930 -0.9732  2.1196
  935MOL0     H26205   2.788  12.148   8.718 -3.6287 -2.3074  2.0332
  935MOL0     H26206   2.635  12.259   8.573 -0.9953 -0.3647  2.7191
  935MOL0     H26207   2.371  12.282   8.217 -0.5681  2.3900  1.2757
  935MOL0     H26208   2.188  12.341   8.074 -0.8097  2.9058  2.5651
  935MOL0     H26209   1.417  11.140   7.375  1.6077 -2.2102  1.8734
  935MOL0     H26210   1.474  10.967   7.222 -0.4913  2.6512  1.2230
  935MOL0     H26211   1.615  10.782   6.850  1.6504 -2.0179  2.6673
  935MOL0     H26212   1.674  10.587   6.722 -2.5451  0.2725 -3.8133
  935MOL0     H26213   1.685  10.409   6.589 -0.8558  0.3109  0.1806
  935MOL0     H26214   1.658  10.243   6.602  1.1074  1.0414 -1.2625
  935MOL0     H26215   1.745  10.263   6.852  2.6816  1.7046  2.3444
  935MOL0     H26216   1.810  10.412   6.809  1.0013 -1.1016  0.8203
  935MOL0     H26217   1.931  10.259   6.617 -2.7083  1.0693 -0.6746
  935MOL0     H26218   1.868  10.129   6.715 -0.7089  0.6240  0.2648
  935MOL0     H26219   2.115  10.195   6.737 -2.0914 -0.0063 -2.4762
  935MOL0     H26220   2.054  10.354   6.782  0.9306  0.7936  0.2385
  935MOL0     H26221   2.005  10.129   7.145  2.4904  0.2225  0.1720
  935MOL0     H26222   1.335  10.378   6.871 -1.7663  0.8082 -0.0892
  935MOL0     H26223   1.149  10.662   6.990  1.3492  0.1061  0.8921
  935MOL0     H26224   1.160  10.501   6.910 -2.7037 -0.3012  1.2833
  935MOL0     H26225   1.203  10.524   7.077 -2.8973  0.0379 -0.2270
  936MOL0     O26226   0.054   3.241   7.303 -0.5603 -0.8589  0.1929
  936MOL0     C26227   0.064   3.186   7.193 -0.1071 -0.5503 -0.3157
  936MOL0     O26228  -0.040   3.135   7.136 -0.2891  0.9230  0.5397
  936MOL0     C26229  -0.096   3.030   7.208  1.1207  0.9149  0.0767
  936MOL0     C26230  -0.168   3.041   7.324  0.1034  0.2338  0.5818
  936MOL0     C26231  -0.220   2.923   7.381  0.6070  1.1148 -0.8764
  936MOL0     C26232  -0.189   2.793   7.330 -0.1575 -0.3196  0.6176
  936MOL0     O26233  -0.224   2.670   7.388 -0.0134 -1.0210 -0.0673
  936MOL0     C26234  -0.280   2.663   7.516 -1.0705 -0.1215 -0.4819
  936MOL0     C26235  -0.247   2.526   7.580 -0.6594  0.2112  0.5824
  936MOL0     C26236  -0.337   2.410   7.526 -0.6267  0.1379  1.0829
  936MOL0     C26237  -0.253   2.289   7.500  0.7180 -0.0689 -0.2307
  936MOL0     C26238  -0.203   2.219   7.627 -0.6359  0.4005 -0.0002
  936MOL0     C26239  -0.128   2.099   7.586 -0.1636  0.8164  0.3024
  936MOL0     C26240   0.021   2.133   7.558  0.3996 -0.5371 -1.2481
  936MOL0     C26241   0.098   2.008   7.533 -0.6338 -0.4940 -0.6164
  936MOL0     N26242   0.249   2.015   7.568 -0.0102 -0.0439 -0.0534
  936MOL0     C26243   0.331   2.083   7.485  0.1234 -0.0188  0.9396
  936MOL0     C26244   0.456   2.043   7.505 -0.4619 -0.1287 -0.1104
  936MOL0     C26245   0.576   2.102   7.437  0.3619  0.6666 -0.9110
  936MOL0     C26246   0.705   2.054   7.496 -0.6497 -0.1815  0.0543
  936MOL0     C26247   0.834   2.098   7.407  0.1081  0.2513 -0.0346
  936MOL0     C26248   0.856   2.245   7.412  1.1492 -0.8274  0.2372
  936MOL0     O26249   0.765   2.314   7.324 -0.0044 -0.3651 -0.0651
  936MOL0     C26250   0.784   2.445   7.287 -0.4491 -0.5336  0.4097
  936MOL0     C26251   0.891   2.531   7.337  0.3873  0.4115  0.0157
  936MOL0     C26252   0.889   2.670   7.296  0.0730  0.4794 -0.0884
  936MOL0     C26253   0.804   2.721   7.195  0.6759  0.4674 -0.0439
  936MOL0     C26254   0.807   2.866   7.146 -0.3047 -0.4811  0.1856
  936MOL0     O26255   0.905   2.953   7.202 -0.2916 -0.7062 -0.2282
  936MOL0     C26256   0.893   3.086   7.190  0.9893  0.1661  0.3913
  936MOL0     C26257   0.959   3.158   7.096 -0.0041 -0.4435  0.4149
  936MOL0     C26258   0.958   3.291   7.089 -0.1909  0.0671 -0.2657
  936MOL0     C26259   0.875   3.364   7.174 -0.4430  0.4881  1.1283
  936MOL0     O26260   0.859   3.502   7.157 -0.1729  1.3007  0.0567
  936MOL0     C26261   0.756   3.564   7.227  0.3056 -0.2598  0.5198
  936MOL0     C26262   0.605   3.534   7.170 -0.1213 -0.4969 -0.9460
  936MOL0     C26263   0.494   3.634   7.201 -0.9985 -0.7353 -0.6910
  936MOL0     C26264   0.353   3.573   7.189  0.0212  0.4976 -0.1403
  936MOL0     C26265   0.241   3.664   7.212 -0.2401 -0.2134 -0.1790
  936MOL0     C26266   0.119   3.562   7.232  0.7156 -0.4773  0.3050
  936MOL0     C26267   0.000   3.652   7.281 -0.3395  0.7635  0.3440
  936MOL0     C26268  -0.127   3.571   7.304 -0.7736 -0.0953 -0.2693
  936MOL0    Cl26269  -0.208   3.523   7.161  0.3876  0.5817 -0.1606
  936MOL0     C26270   0.795   3.292   7.263  0.3036 -0.1257 -0.3890
  936MOL0     C26271   0.803   3.153   7.271 -0.1943  0.3256 -0.0247
  936MOL0     O26272   0.722   2.903   7.063 -0.3234  0.2660  0.0859
  936MOL0     C26273   0.720   2.629   7.144  1.0005 -0.0974 -0.0392
  936MOL0     C26274   0.698   2.505   7.194  0.7289  0.2434 -1.2506
  936MOL0     N26275   0.454   1.951   7.611  0.1355  0.3346  0.5603
  936MOL0     N26276   0.326   1.944   7.655  0.0547  0.1699  0.2055
  936MOL0     C26277  -0.124   2.796   7.205 -0.0097  0.5613 -0.2204
  936MOL0     C26278  -0.079   2.906   7.144 -0.4140 -0.4376 -0.0614
  936MOL0     C26279   0.193   3.176   7.121  0.2616  0.6258 -0.9810
  936MOL0     C26280   0.186   3.152   6.986  0.9712  0.5734  1.1378
  936MOL0     C26281   0.296   3.126   6.903 -1.1849 -1.0752 -0.4642
  936MOL0     C26282   0.423   3.149   6.959 -0.2010  0.5168  0.8349
  936MOL0     O26283   0.519   3.153   6.864 -0.5584 -0.5527  0.7098
  936MOL0     C26284   0.644   3.206   6.896 -0.0729  0.2607 -0.6731
  936MOL0     C26285   0.742   3.188   6.779  1.0114 -0.8727  0.0356
  936MOL0     C26286   0.787   3.045   6.765 -0.0817 -0.2591 -0.1502
  936MOL0     C26287   0.865   3.025   6.638 -0.0444 -0.0252 -0.0976
  936MOL0     C26288   0.999   3.089   6.654  0.3863  0.6337  0.0853
  936MOL0     C26289   1.107   3.150   6.655  0.3918  0.8992  0.6514
  936MOL0     C26290   0.442   3.184   7.096  0.0886  0.2007 -0.0872
  936MOL0     C26291   0.322   3.188   7.180  0.3607  0.5510  0.0410
  936MOL0     C26292   0.345   3.183   7.336  0.4778  0.2974  0.2265
  936MOL0     H26293  -0.165   3.139   7.369  4.8156  0.4335  0.3606
  936MOL0     H26294  -0.268   2.932   7.478  1.2039 -1.6440 -0.2634
  936MOL0     H26295  -0.226   2.739   7.573  0.2898 -0.8029 -0.7907
  936MOL0     H26296  -0.387   2.681   7.511 -1.0113  1.1425  1.5605
  936MOL0     H26297  -0.268   2.526   7.688 -0.4246 -0.6346  0.6309
  936MOL0     H26298  -0.139   2.516   7.562 -0.7826  1.9621 -1.4736
  936MOL0     H26299  -0.388   2.438   7.432  0.3875  0.6719  0.6778
  936MOL0     H26300  -0.418   2.385   7.595 -1.1753 -0.4565  0.2456
  936MOL0     H26301  -0.315   2.211   7.456 -1.0293 -0.9805  3.4121
  936MOL0     H26302  -0.178   2.311   7.424 -1.1835  1.2654 -1.8221
  936MOL0     H26303  -0.159   2.284   7.702 -3.3996 -0.5829  2.6820
  936MOL0     H26304  -0.294   2.196   7.684  0.1408 -1.3674  0.5873
  936MOL0     H26305  -0.139   2.035   7.674 -1.8593 -0.0207 -0.4915
  936MOL0     H26306  -0.173   2.043   7.504  0.8712  1.3978 -0.6820
  936MOL0     H26307   0.061   2.185   7.645  0.3194 -0.4884 -1.2408
  936MOL0     H26308   0.026   2.215   7.485  5.5305 -1.9495 -2.8880
  936MOL0     H26309   0.061   1.934   7.605  0.6847  1.6535  2.4890
  936MOL0     H26310   0.091   1.971   7.430  2.2447 -2.1633 -0.3146
  936MOL0     H26311   0.313   2.164   7.415  0.0638  1.9959  3.1481
  936MOL0     H26312   0.568   2.088   7.329  0.3074  0.8119 -0.9255
  936MOL0     H26313   0.571   2.211   7.440  3.4622  0.8895 -0.6957
  936MOL0     H26314   0.719   2.093   7.597  0.8603  1.7099 -0.8115
  936MOL0     H26315   0.706   1.945   7.494 -2.2102 -0.2114 -0.8784
  936MOL0     H26316   0.833   2.057   7.305  2.2606 -0.4807  0.1918
  936MOL0     H26317   0.914   2.038   7.451 -0.2257  0.9448  1.5798
  936MOL0     H26318   0.957   2.275   7.382  0.6827  0.4804 -0.0995
  936MOL0     H26319   0.844   2.267   7.518  1.7482  1.6468 -0.1479
  936MOL0     H26320   0.960   2.515   7.420  0.3779  4.0227  0.8703
  936MOL0     H26321   0.960   2.736   7.345  2.5795 -1.1471 -1.3174
  936MOL0     H26322   1.020   3.101   7.026  1.9692 -0.3184  1.9407
  936MOL0     H26323   1.016   3.356   7.024  1.7519 -0.2209  1.0970
  936MOL0     H26324   0.783   3.551   7.332  2.8483 -1.2457 -0.1583
  936MOL0     H26325   0.781   3.667   7.199 -0.2461  0.3584  2.1911
  936MOL0     H26326   0.610   3.529   7.061  0.2205  0.7281 -1.0021
  936MOL0     H26327   0.568   3.440   7.212 -2.4641  1.4423  1.7977
  936MOL0     H26328   0.500   3.676   7.302 -0.0079 -0.3614 -0.8960
  936MOL0     H26329   0.517   3.717   7.134  1.7075 -0.2445  0.6916
  936MOL0     H26330   0.346   3.489   7.259  2.0211 -1.5571 -2.2284
  936MOL0     H26331   0.327   3.540   7.088  0.3415 -1.6619  0.4455
  936MOL0     H26332   0.230   3.741   7.135 -1.3086  2.5372  2.5229
  936MOL0     H26333   0.257   3.711   7.310  1.7778 -3.1471  1.0451
  936MOL0     H26334   0.090   3.512   7.139  1.8017  2.6630 -1.9097
  936MOL0     H26335   0.126   3.487   7.311  2.4407 -3.9859 -2.8514
  936MOL0     H26336  -0.014   3.728   7.204 -0.2984 -0.1584 -0.5984
  936MOL0     H26337   0.034   3.705   7.371  2.3893 -0.8555  0.4136
  936MOL0     H26338  -0.101   3.486   7.369  0.0450 -1.8491 -2.7499
  936MOL0     H26339  -0.194   3.639   7.357  1.0204  2.0033 -0.5641
  936MOL0     H26340   0.740   3.339   7.344  1.2796 -1.3773  1.0489
  936MOL0     H26341   0.743   3.097   7.342 -0.1025  0.6439  0.3102
  936MOL0     H26342   0.648   2.666   7.072  0.1801  1.8568  1.6964
  936MOL0     H26343   0.626   2.436   7.153 -0.9904  1.4398 -0.3578
  936MOL0     H26344  -0.120   2.705   7.146 -4.6591  1.6242 -2.7452
  936MOL0     H26345  -0.032   2.904   7.046  1.2801 -1.3816  0.7196
  936MOL0     H26346   0.093   3.179   6.936  0.5300  2.0159  2.6420
  936MOL0     H26347   0.277   3.123   6.796 -2.6250  1.1249 -0.3487
  936MOL0     H26348   0.689   3.155   6.981  0.7860 -1.5011 -2.1288
  936MOL0     H26349   0.630   3.312   6.920 -1.1912  0.0878 -0.5339
  936MOL0     H26350   0.822   3.261   6.797  0.3661  0.2034 -1.2419
  936MOL0     H26351   0.692   3.219   6.687 -0.6819 -0.4473  1.0583
  936MOL0     H26352   0.700   2.979   6.776  0.6235 -1.5256 -1.7643
  936MOL0     H26353   0.849   3.021   6.852  3.0370 -4.3434 -3.0554
  936MOL0     H26354   0.873   2.916   6.638 -1.5748 -0.2352  2.3185
  936MOL0     H26355   0.802   3.047   6.551 -1.5062 -1.9587  0.3904
  936MOL0     H26356   1.194   3.212   6.655  0.5582  0.6810  1.7278
  936MOL0     H26357   0.538   3.216   7.135 -0.5214  1.4751  0.4290
  936MOL0     H26358   0.335   3.088   7.388 -2.1576 -0.1204 -0.8495
  936MOL0     H26359   0.448   3.218   7.345  0.7985 -0.5738  0.0406
  936MOL0     H26360   0.296   3.271   7.381  1.3265  2.0788 -2.1118
  937MOL0     O26361   4.681   9.976   4.078  0.8026 -0.1828 -0.5034
  937MOL0     C26362   4.794   9.943   4.081 -0.2675 -0.2920 -0.1961
  937MOL0     O26363   4.842   9.828   4.015  0.0245 -0.5592 -0.0806
  937MOL0     C26364   4.765   9.712   4.010 -0.0057 -0.7876  0.2269
  937MOL0     C26365   4.695   9.667   4.124 -0.2889 -1.0250  0.1880
  937MOL0     C26366   4.617   9.554   4.099 -0.3538  0.2167 -0.1373
  937MOL0     C26367   4.617   9.476   3.986 -0.1930 -0.3549 -0.1712
  937MOL0     O26368   4.563   9.351   3.978 -0.0527  0.2565 -0.5333
  937MOL0     C26369   4.536   9.284   4.098 -0.3889 -0.0222  0.4485
  937MOL0     C26370   4.569   9.134   4.078 -0.9719 -0.5070  0.5994
  937MOL0     C26371   4.518   9.032   4.182  1.3221 -0.9592  0.1417
  937MOL0     C26372   4.528   8.887   4.130 -0.0128 -1.1474 -0.2013
  937MOL0     C26373   4.454   8.793   4.230  0.0137  0.5768  1.0346
  937MOL0     C26374   4.434   8.649   4.169  0.1595  0.6080 -0.3730
  937MOL0     C26375   4.384   8.544   4.271  0.3634 -0.0537 -0.3164
  937MOL0     C26376   4.473   8.480   4.379  0.1016 -0.1150 -0.5588
  937MOL0     N26377   4.403   8.355   4.415 -0.3225 -0.2544 -0.0085
  937MOL0     C26378   4.449   8.230   4.384 -0.2648 -0.4782 -0.5125
  937MOL0     C26379   4.348   8.147   4.424  0.7921 -0.4420 -0.0765
  937MOL0     C26380   4.342   8.005   4.407 -0.7761 -0.9770  0.8165
  937MOL0     C26381   4.273   7.969   4.281  0.0985  0.7790  0.5293
  937MOL0     C26382   4.122   8.003   4.273  0.3809 -0.3909  0.8576
  937MOL0     C26383   4.100   8.111   4.158  0.6027  0.1051 -0.9960
  937MOL0     O26384   4.161   8.065   4.041  0.0461 -0.3510 -0.4326
  937MOL0     C26385   4.228   8.170   3.971  0.1479 -0.6153  0.9087
  937MOL0     C26386   4.191   8.302   3.961 -0.4709  0.1201 -0.2834
  937MOL0     C26387   4.278   8.398   3.903  0.1270  0.2729  0.4012
  937MOL0     C26388   4.390   8.365   3.834 -0.5551  0.1352 -0.1324
  937MOL0     C26389   4.475   8.468   3.772  0.0294 -0.8340 -0.4946
  937MOL0     O26390   4.440   8.596   3.789 -0.6818  0.4861 -0.2709
  937MOL0     C26391   4.512   8.679   3.713  0.3718 -0.7154  0.4062
  937MOL0     C26392   4.506   8.680   3.574 -0.0853  1.2112  0.2407
  937MOL0     C26393   4.597   8.768   3.503  0.6692 -0.9122 -0.4370
  937MOL0     C26394   4.694   8.852   3.567  1.0381 -0.8529 -0.3930
  937MOL0     O26395   4.763   8.947   3.483 -0.0316  0.5267  0.0932
  937MOL0     C26396   4.810   9.066   3.554 -0.4344 -0.0141 -0.0509
  937MOL0     C26397   4.949   9.057   3.624  0.8722  0.6935  0.2964
  937MOL0     C26398   4.975   9.146   3.749  0.8370  0.0455 -0.4490
  937MOL0     C26399   5.006   9.297   3.721 -0.0278  0.2556 -0.6051
  937MOL0     C26400   5.148   9.343   3.773  1.0548 -0.0196  0.6208
  937MOL0     C26401   5.194   9.478   3.713  0.2122  0.8339  0.8111
  937MOL0     C26402   5.087   9.588   3.710  0.5649  0.2231 -0.7095
  937MOL0     C26403   5.147   9.727   3.678 -0.0760  0.6717  1.1075
  937MOL0    Cl26404   5.273   9.793   3.773 -0.0217  0.1930  0.1849
  937MOL0     C26405   4.692   8.848   3.707 -0.4111 -0.0939 -0.2763
  937MOL0     C26406   4.598   8.768   3.781 -0.5470  0.8907  0.7817
  937MOL0     O26407   4.585   8.434   3.720  0.6567 -0.1035 -0.1084
  937MOL0     C26408   4.424   8.227   3.831 -0.6237 -0.5339 -0.4572
  937MOL0     C26409   4.344   8.140   3.910 -0.5849 -0.6981 -0.1532
  937MOL0     N26410   4.246   8.226   4.477  0.7479 -0.1074 -0.1595
  937MOL0     N26411   4.280   8.352   4.479  0.2815  0.8888 -0.5466
  937MOL0     C26412   4.683   9.529   3.877 -0.9349  0.4211 -0.0433
  937MOL0     C26413   4.757   9.650   3.892  0.1671 -0.0438 -0.5079
  937MOL0     C26414   4.888  10.033   4.143 -1.2902 -0.5372 -0.6985
  937MOL0     C26415   4.849  10.165   4.169 -0.0519 -0.0165  0.0874
  937MOL0     C26416   4.940  10.257   4.204 -0.6239 -0.6697 -0.5832
  937MOL0     C26417   5.068  10.230   4.234  0.1206 -0.9142  0.1720
  937MOL0     O26418   5.158  10.332   4.263  0.1611  0.0573  0.3197
  937MOL0     C26419   5.299  10.315   4.245 -0.6843 -0.1972  0.8442
  937MOL0     C26420   5.372  10.445   4.259  1.2361  0.6288  0.2383
  937MOL0     C26421   5.334  10.545   4.151  0.9073 -0.6117  0.1690
  937MOL0     C26422   5.376  10.502   4.005  0.2953 -0.5028 -0.5222
  937MOL0     C26423   5.511  10.439   4.007  0.1986 -0.4525 -0.5156
  937MOL0     C26424   5.617  10.376   3.984  0.1004  1.0349 -0.2625
  937MOL0     C26425   5.107  10.099   4.221 -0.8196 -0.5799  0.7025
  937MOL0     C26426   5.022   9.998   4.174 -0.3637 -0.8402 -0.2432
  937MOL0     C26427   5.078   9.862   4.176  0.3683 -0.2290 -0.6739
  937MOL0     H26428   4.697   9.726   4.214  1.6215  0.5359 -0.8064
  937MOL0     H26429   4.554   9.527   4.183  0.7556 -0.3508  0.5285
  937MOL0     H26430   4.607   9.319   4.174 -0.0795  1.7307 -0.5768
  937MOL0     H26431   4.433   9.297   4.134 -0.2346  0.6411  0.6672
  937MOL0     H26432   4.678   9.130   4.077 -0.7069  2.2331  3.1090
  937MOL0     H26433   4.526   9.094   3.986  2.2602 -1.1218 -0.7961
  937MOL0     H26434   4.412   9.051   4.203  1.0432 -1.6346 -0.5999
  937MOL0     H26435   4.569   9.043   4.278  0.3613  0.4743  0.5201
  937MOL0     H26436   4.486   8.879   4.029 -0.8692  2.8312 -0.3417
  937MOL0     H26437   4.633   8.870   4.109  0.1239  1.3083 -1.8941
  937MOL0     H26438   4.511   8.780   4.322 -0.2801 -2.3178  0.9169
  937MOL0     H26439   4.354   8.823   4.262 -1.8171 -1.4910 -2.0596
  937MOL0     H26440   4.366   8.642   4.083  0.8423 -3.6674 -0.7587
  937MOL0     H26441   4.523   8.609   4.121  0.0697  0.9872 -0.8593
  937MOL0     H26442   4.355   8.458   4.210  2.0768 -1.1543  0.3376
  937MOL0     H26443   4.293   8.590   4.311  0.2001 -0.8444  0.2556
  937MOL0     H26444   4.576   8.470   4.343 -0.2529  2.2076 -2.4690
  937MOL0     H26445   4.477   8.545   4.467 -2.2046 -3.0737  1.9712
  937MOL0     H26446   4.537   8.206   4.325  1.9898  3.3849  0.9348
  937MOL0     H26447   4.444   7.965   4.419 -1.0142 -1.7814  0.2446
  937MOL0     H26448   4.292   7.966   4.496 -2.3795 -1.3670 -0.2123
  937MOL0     H26449   4.327   8.008   4.195  0.5275  4.0787  2.1512
  937MOL0     H26450   4.283   7.860   4.278 -0.8974  0.5356  3.2360
  937MOL0     H26451   4.086   8.051   4.365  2.5310  0.3125  1.3783
  937MOL0     H26452   4.066   7.911   4.252  1.4299 -0.7679 -0.3810
  937MOL0     H26453   4.148   8.201   4.197  0.6477 -1.2405  2.3815
  937MOL0     H26454   3.993   8.122   4.139  0.7312 -3.1208 -4.8363
  937MOL0     H26455   4.099   8.329   4.012 -1.0055 -5.5820  2.5924
  937MOL0     H26456   4.255   8.503   3.918 -0.1576  0.1667  0.7239
  937MOL0     H26457   4.430   8.621   3.524  1.0883  0.1922 -0.3996
  937MOL0     H26458   4.612   8.763   3.396  1.5116  1.8505 -0.5031
  937MOL0     H26459   4.812   9.146   3.480  1.5789  0.4663  0.4693
  937MOL0     H26460   4.736   9.092   3.630  1.1867  0.9123  1.2879
  937MOL0     H26461   4.953   8.953   3.656  1.2511  1.2482  2.1557
  937MOL0     H26462   5.023   9.068   3.544 -1.2169 -2.4329 -2.3352
  937MOL0     H26463   4.887   9.133   3.813  1.3917  0.6152  0.4422
  937MOL0     H26464   5.058   9.102   3.805  0.9258  0.6895 -0.0714
  937MOL0     H26465   4.931   9.357   3.775  1.5838  0.2939  1.7288
  937MOL0     H26466   5.005   9.307   3.612 -0.5405  0.6141 -0.5754
  937MOL0     H26467   5.216   9.263   3.743  1.2785  0.9686 -1.6806
  937MOL0     H26468   5.153   9.355   3.882 -2.4086  2.6257  0.6344
  937MOL0     H26469   5.289   9.499   3.762  3.0974 -0.8651 -3.4767
  937MOL0     H26470   5.221   9.458   3.609  1.0122 -0.0893  1.1877
  937MOL0     H26471   5.040   9.594   3.809  1.4010 -4.6845  0.2939
  937MOL0     H26472   5.013   9.571   3.631 -2.8801  0.4018  2.1969
  937MOL0     H26473   5.181   9.720   3.574  0.3076  0.4911  1.2434
  937MOL0     H26474   5.071   9.806   3.680 -0.8273 -0.0324  0.8385
  937MOL0     H26475   4.769   8.898   3.766  0.7038 -3.1923  1.1059
  937MOL0     H26476   4.587   8.768   3.889  0.9146 -0.7701  0.9952
  937MOL0     H26477   4.509   8.193   3.774 -0.4770  1.7443 -1.7476
  937MOL0     H26478   4.376   8.037   3.899 -0.3168 -0.3400 -3.6488
  937MOL0     H26479   4.671   9.486   3.778 -0.8945  3.4727 -1.4951
  937MOL0     H26480   4.808   9.695   3.807 -2.5115  0.5123 -1.9307
  937MOL0     H26481   4.751  10.195   4.133  1.0568  2.6301 -1.0093
  937MOL0     H26482   4.913  10.360   4.223  2.3594 -0.0811  1.1371
  937MOL0     H26483   5.310  10.275   4.144 -0.6714  0.1256  0.7195
  937MOL0     H26484   5.359  10.247   4.307 -0.8445 -2.8025 -1.6348
  937MOL0     H26485   5.475  10.409   4.258  0.7648 -0.8188  0.5270
  937MOL0     H26486   5.354  10.497   4.353 -0.1239  0.8415 -0.1095
  937MOL0     H26487   5.384  10.640   4.171  3.2865 -1.4361 -1.3208
  937MOL0     H26488   5.227  10.562   4.156  1.2244  1.3910  0.7365
  937MOL0     H26489   5.294  10.441   3.966 -1.9619 -0.4726  3.6324
  937MOL0     H26490   5.388  10.590   3.941  1.2462 -2.2213 -2.8710
  937MOL0     H26491   5.711  10.324   3.980 -0.1267  0.7068 -1.9388
  937MOL0     H26492   5.206  10.073   4.258 -0.3236  1.0368  0.6092
  937MOL0     H26493   4.996   9.792   4.193 -0.5362  1.1206  0.8337
  937MOL0     H26494   5.121   9.840   4.078  1.6592 -1.4300  0.1123
  937MOL0     H26495   5.164   9.853   4.244 -1.2620  2.8358  2.1338
  938MOL0     O26496   9.025   6.286   8.652  0.0976 -0.5095 -0.8097
  938MOL0     C26497   9.132   6.341   8.681  0.4986 -0.5346  0.3848
  938MOL0     O26498   9.204   6.422   8.603 -0.8458 -0.0129 -0.1164
  938MOL0     C26499   9.143   6.480   8.492 -0.4148 -1.0161 -0.5907
  938MOL0     C26500   9.221   6.493   8.377 -0.2351  1.2188  0.4883
  938MOL0     C26501   9.164   6.551   8.262  0.3054 -0.5113 -0.7142
  938MOL0     C26502   9.031   6.611   8.267 -0.4430 -0.3332  0.6106
  938MOL0     O26503   8.985   6.680   8.157 -0.4417  0.1014 -0.0105
  938MOL0     C26504   8.853   6.722   8.148  0.6153 -0.0775 -0.3908
  938MOL0     C26505   8.842   6.790   8.011  0.5928 -0.3042 -0.0765
  938MOL0     C26506   8.697   6.818   7.953  0.4587  0.4294 -0.8860
  938MOL0     C26507   8.600   6.928   8.022 -0.6881  0.3318  0.4225
  938MOL0     C26508   8.457   6.899   7.977  0.7082 -0.8581  0.6141
  938MOL0     C26509   8.439   6.948   7.826  0.1577 -0.2619  0.5689
  938MOL0     C26510   8.303   6.918   7.759 -0.8520 -0.1374  0.3699
  938MOL0     C26511   8.183   6.979   7.835 -0.6499  0.1082 -0.5346
  938MOL0     N26512   8.047   6.934   7.790  1.1140  0.1274 -0.1115
  938MOL0     C26513   7.933   6.930   7.867  0.3255  0.1513  0.2141
  938MOL0     C26514   7.830   6.898   7.786  0.1693 -0.3991 -0.5566
  938MOL0     C26515   7.687   6.871   7.807  0.7990  0.1949 -0.1119
  938MOL0     C26516   7.592   6.989   7.769 -0.5083  0.2239  0.3841
  938MOL0     C26517   7.645   7.123   7.794  0.7193 -0.2603  0.0390
  938MOL0     C26518   7.660   7.144   7.949  0.0056  0.1605 -0.5684
  938MOL0     O26519   7.535   7.170   8.024  0.1387 -0.3349 -0.0797
  938MOL0     C26520   7.546   7.166   8.167 -0.4508 -0.8045  0.4278
  938MOL0     C26521   7.448   7.233   8.246 -0.7838 -0.0747  0.1284
  938MOL0     C26522   7.459   7.246   8.381 -0.3982  0.4194 -0.1746
  938MOL0     C26523   7.564   7.182   8.450  0.7645  0.1638  0.0104
  938MOL0     C26524   7.576   7.196   8.595 -0.4014  0.6808  0.1310
  938MOL0     O26525   7.459   7.227   8.660  0.6020 -0.4269 -0.6420
  938MOL0     C26526   7.466   7.226   8.801 -0.7741  0.5031  0.9109
  938MOL0     C26527   7.421   7.339   8.859  0.3399  0.3282  0.6316
  938MOL0     C26528   7.410   7.344   8.996 -0.5955 -0.7475 -0.4834
  938MOL0     C26529   7.465   7.243   9.077  0.4447 -0.1882 -0.8366
  938MOL0     O26530   7.486   7.269   9.215  0.8044 -0.0118  0.0009
  938MOL0     C26531   7.562   7.180   9.301 -0.1854 -0.7547 -0.9184
  938MOL0     C26532   7.602   7.273   9.418  0.2767  0.7173  1.0950
  938MOL0     C26533   7.653   7.195   9.538  0.2658 -0.0966 -0.5659
  938MOL0     C26534   7.809   7.152   9.540  0.6994  0.0253  0.0838
  938MOL0     C26535   7.847   7.082   9.675  0.0293  0.9793 -0.4234
  938MOL0     C26536   7.875   7.178   9.782 -0.2110  0.1286 -0.9882
  938MOL0     C26537   7.886   7.121   9.922 -0.7853 -0.4832  0.0046
  938MOL0     C26538   7.792   7.178  10.023 -0.6490  0.2445 -0.5561
  938MOL0    Cl26539   7.828   7.359  10.028 -0.4720  0.0814 -0.2730
  938MOL0     C26540   7.501   7.119   9.019 -1.5125  0.1065 -0.2249
  938MOL0     C26541   7.506   7.113   8.878  0.4888 -0.3947 -0.2865
  938MOL0     O26542   7.681   7.171   8.656  0.5319  0.0009  0.9850
  938MOL0     C26543   7.658   7.100   8.382  0.7479 -0.5234  0.6290
  938MOL0     C26544   7.641   7.095   8.243 -0.1437 -0.7897  0.7289
  938MOL0     N26545   7.885   6.904   7.656 -0.1057  0.6488 -0.0129
  938MOL0     N26546   8.011   6.915   7.662  0.3164 -0.0092 -0.1577
  938MOL0     C26547   8.956   6.597   8.382  0.2166  0.7336 -0.4999
  938MOL0     C26548   9.015   6.535   8.491  0.1979 -0.7011  0.1919
  938MOL0     C26549   9.189   6.297   8.815 -0.4583 -0.2270  0.9922
  938MOL0     C26550   9.328   6.334   8.838  0.6870 -0.7129  0.4945
  938MOL0     C26551   9.387   6.309   8.960 -0.9687 -0.7035 -0.4577
  938MOL0     C26552   9.335   6.227   9.060  0.5394 -0.1084  0.2029
  938MOL0     O26553   9.389   6.190   9.180  0.5900  0.6201 -0.5634
  938MOL0     C26554   9.515   6.244   9.213 -0.1608 -0.0486  0.0224
  938MOL0     C26555   9.558   6.191   9.339  0.3560 -0.1095 -0.5594
  938MOL0     C26556   9.618   6.303   9.417  0.5605  0.7088 -0.0078
  938MOL0     C26557   9.692   6.245   9.548  0.9001 -1.2954 -0.5014
  938MOL0     C26558   9.763   6.355   9.632  0.6812  0.0740 -0.5476
  938MOL0     C26559   9.847   6.419   9.683 -0.2424 -0.9141 -0.4952
  938MOL0     C26560   9.206   6.186   9.027  0.0600  0.4639 -0.1853
  938MOL0     C26561   9.134   6.213   8.908  0.4450 -0.0645 -0.9182
  938MOL0     C26562   9.002   6.144   8.886  0.8578  0.0593  0.0599
  938MOL0     H26563   9.324   6.459   8.379 -0.6291  0.0232  2.4068
  938MOL0     H26564   9.218   6.560   8.168  3.8812  2.0569  1.2937
  938MOL0     H26565   8.784   6.639   8.167 -1.0982  0.6156 -3.0567
  938MOL0     H26566   8.828   6.792   8.228 -2.6390 -2.4422  0.8854
  938MOL0     H26567   8.890   6.712   7.952  0.3943 -1.5019  1.2982
  938MOL0     H26568   8.901   6.882   8.014 -0.5117  0.4118  2.2893
  938MOL0     H26569   8.633   6.730   7.940 -2.7536  2.8017 -2.3717
  938MOL0     H26570   8.712   6.859   7.853 -0.2858 -0.9414 -1.5923
  938MOL0     H26571   8.609   6.913   8.130 -0.0890 -1.8180  0.1229
  938MOL0     H26572   8.632   7.030   7.999 -0.9998  0.6828  1.4946
  938MOL0     H26573   8.426   6.795   7.968 -0.8016 -0.3511 -0.4769
  938MOL0     H26574   8.389   6.953   8.043  1.4854 -1.9413  2.3820
  938MOL0     H26575   8.463   7.054   7.811 -0.5986 -0.3477 -1.6025
  938MOL0     H26576   8.507   6.893   7.761 -1.1948 -2.1681  0.6824
  938MOL0     H26577   8.289   6.809   7.764 -4.5243  0.2441  0.9605
  938MOL0     H26578   8.287   6.940   7.654  0.4631 -1.9114 -0.2484
  938MOL0     H26579   8.198   6.969   7.943 -1.1028  2.6279 -0.1627
  938MOL0     H26580   8.180   7.088   7.825 -1.5390  0.2734  1.1503
  938MOL0     H26581   7.928   6.970   7.968  1.2133  1.0276 -0.0693
  938MOL0     H26582   7.653   6.809   7.724 -2.3598 -0.1528  1.3180
  938MOL0     H26583   7.649   6.836   7.904  0.2372 -0.0757 -0.4296
  938MOL0     H26584   7.576   6.972   7.662  0.6163 -1.9516  0.4949
  938MOL0     H26585   7.490   6.977   7.808 -0.3755 -0.6618  0.4798
  938MOL0     H26586   7.575   7.191   7.744 -0.4529 -2.6600 -1.8453
  938MOL0     H26587   7.739   7.131   7.739 -1.1024  2.7406 -3.0458
  938MOL0     H26588   7.732   7.223   7.974  3.5012 -2.2822 -2.1381
  938MOL0     H26589   7.698   7.047   7.980  1.1477  0.2987 -1.4325
  938MOL0     H26590   7.367   7.274   8.187  0.1151 -2.2568 -2.8459
  938MOL0     H26591   7.387   7.297   8.445 -0.3420 -1.5839  1.6028
  938MOL0     H26592   7.386   7.426   8.805  0.4543 -1.2458 -2.1741
  938MOL0     H26593   7.368   7.437   9.032 -0.3079 -1.3148  1.4089
  938MOL0     H26594   7.503   7.101   9.348  1.4040  0.4471  3.5372
  938MOL0     H26595   7.657   7.143   9.262  0.1580 -1.1447  0.2768
  938MOL0     H26596   7.676   7.343   9.378 -0.5677 -0.3186 -2.7163
  938MOL0     H26597   7.516   7.328   9.456 -2.2464 -3.3580  1.8758
  938MOL0     H26598   7.631   7.252   9.629  1.4996 -0.3132 -0.1160
  938MOL0     H26599   7.587   7.109   9.553  1.0347 -0.5411  0.4292
  938MOL0     H26600   7.867   7.239   9.508 -1.2016  2.5672  3.0285
  938MOL0     H26601   7.819   7.074   9.464 -0.8023 -3.8227  3.4559
  938MOL0     H26602   7.938   7.021   9.672 -0.9761 -0.5348 -1.4877
  938MOL0     H26603   7.767   7.010   9.695 -1.1202  1.6005 -2.4942
  938MOL0     H26604   7.967   7.229   9.749  0.5716 -0.8200 -0.3446
  938MOL0     H26605   7.805   7.261   9.780  0.6322  0.9039  0.1087
  938MOL0     H26606   7.989   7.140   9.953  0.2741 -3.1864 -1.5091
  938MOL0     H26607   7.871   7.013   9.911 -2.0891 -0.3795  0.5897
  938MOL0     H26608   7.686   7.162   9.998 -1.0528  0.3798  0.9371
  938MOL0     H26609   7.803   7.120  10.115 -2.1303  0.8838  0.0549
  938MOL0     H26610   7.525   7.026   9.069  0.3856  0.6122 -0.1040
  938MOL0     H26611   7.546   7.025   8.829  0.7813 -0.2439 -0.3277
  938MOL0     H26612   7.741   7.061   8.440  2.5971  2.6985  0.3830
  938MOL0     H26613   7.718   7.040   8.189  0.8159  1.7359 -0.5996
  938MOL0     H26614   8.852   6.627   8.383  0.5517  1.9827  1.1649
  938MOL0     H26615   8.948   6.525   8.576 -1.3804 -0.5396 -0.9834
  938MOL0     H26616   9.373   6.405   8.770  0.4759 -0.4684  0.6123
  938MOL0     H26617   9.482   6.356   8.984 -0.6144 -1.5402 -0.1948
  938MOL0     H26618   9.501   6.352   9.226 -0.8089 -0.3699  2.4312
  938MOL0     H26619   9.595   6.230   9.140  2.2754 -0.7577  2.6418
  938MOL0     H26620   9.643   6.123   9.326  0.4350 -1.3637  4.3423
  938MOL0     H26621   9.480   6.138   9.395  1.0218  0.0369  0.5592
  938MOL0     H26622   9.536   6.369   9.444 -0.9302 -1.1417  0.2020
  938MOL0     H26623   9.691   6.356   9.356  0.2468 -0.9890 -1.9829
  938MOL0     H26624   9.618   6.191   9.607  0.7057 -3.2341 -2.3839
  938MOL0     H26625   9.769   6.177   9.510 -0.1689 -2.5928 -0.3898
  938MOL0     H26626   9.908   6.490   9.736 -1.3530 -0.7565  0.6313
  938MOL0     H26627   9.167   6.116   9.101  1.6861  2.1353  2.4372
  938MOL0     H26628   9.014   6.081   8.798  0.7126 -0.1855  0.2160
  938MOL0     H26629   8.988   6.072   8.968  0.6987 -2.1123 -1.7821
  938MOL0     H26630   8.921   6.218   8.890  0.8612  0.0207  1.1448
  939MOL0     O26631   2.387   0.870   4.660 -0.1202 -0.0568  0.7888
  939MOL0     C26632   2.302   0.954   4.616  0.0826 -0.2213 -1.0882
  939MOL0     O26633   2.247   1.057   4.691  0.5263  0.2636  0.7228
  939MOL0     C26634   2.295   1.100   4.810  0.7862 -1.3598  0.7196
  939MOL0     C26635   2.424   1.145   4.826 -0.6644  0.9717  0.3114
  939MOL0     C26636   2.465   1.213   4.939 -0.6974  0.0696  0.5492
  939MOL0     C26637   2.377   1.237   5.049 -0.3655 -0.8691 -0.8427
  939MOL0     O26638   2.407   1.306   5.163  1.0959 -0.0848  0.6171
  939MOL0     C26639   2.538   1.363   5.196  0.0623 -0.0125  0.3200
  939MOL0     C26640   2.540   1.396   5.341  0.6875 -0.3533 -0.4979
  939MOL0     C26641   2.496   1.535   5.372  0.0679 -0.1311  0.2234
  939MOL0     C26642   2.501   1.551   5.530  0.5638  0.1377 -0.0702
  939MOL0     C26643   2.642   1.595   5.576  0.2000  0.9432 -0.9347
  939MOL0     C26644   2.645   1.582   5.733 -0.3448  0.2225  0.2812
  939MOL0     C26645   2.728   1.682   5.791 -0.2934 -0.2334  0.0427
  939MOL0     C26646   2.730   1.677   5.948 -0.0477  0.3337 -0.2499
  939MOL0     N26647   2.815   1.787   5.986  0.4761 -0.8947 -0.0391
  939MOL0     C26648   2.776   1.915   5.969 -0.4445  0.2845 -0.1935
  939MOL0     C26649   2.890   1.997   5.987 -0.8489 -0.0003 -0.2541
  939MOL0     C26650   2.906   2.151   6.017  0.6290  0.3635  0.2954
  939MOL0     C26651   2.952   2.212   5.894  0.0460  0.3371 -0.0533
  939MOL0     C26652   2.975   2.368   5.899  0.4708  0.0449 -0.0139
  939MOL0     C26653   2.843   2.437   5.869  0.2016  0.8171 -0.5143
  939MOL0     O26654   2.863   2.572   5.824  0.0938  0.3478  0.1163
  939MOL0     C26655   2.870   2.670   5.918  0.7616  0.0211  0.4145
  939MOL0     C26656   2.992   2.717   5.974 -1.3518  0.2475 -0.6181
  939MOL0     C26657   2.974   2.811   6.078  0.0599 -0.0781  0.8134
  939MOL0     C26658   2.859   2.889   6.099  0.9244 -0.2821  1.4105
  939MOL0     C26659   2.855   2.999   6.204  0.3183 -0.4159 -0.3809
  939MOL0     O26660   2.732   3.066   6.224 -0.5660 -0.2077  0.8808
  939MOL0     C26661   2.743   3.183   6.287 -0.3226 -0.3534  0.4437
  939MOL0     C26662   2.828   3.284   6.231  0.4661 -0.0369  0.5805
  939MOL0     C26663   2.851   3.402   6.296  0.3643 -0.1740  0.4607
  939MOL0     C26664   2.774   3.423   6.415  0.4763  0.2000 -0.6262
  939MOL0     O26665   2.780   3.543   6.478 -0.2614  0.2062 -1.6605
  939MOL0     C26666   2.658   3.622   6.465 -0.6932  0.0701 -0.1488
  939MOL0     C26667   2.686   3.736   6.368 -0.3729 -0.0817 -0.4606
  939MOL0     C26668   2.816   3.815   6.408 -0.3901  0.8429 -0.3145
  939MOL0     C26669   2.838   3.929   6.310 -0.3388  0.1908  0.2213
  939MOL0     C26670   2.909   4.034   6.375  0.1105  0.2608 -0.9312
  939MOL0     C26671   2.943   4.150   6.268  0.2181  1.1380  0.7328
  939MOL0     C26672   3.021   4.245   6.344 -0.4301 -0.8026 -0.9005
  939MOL0     C26673   3.065   4.361   6.244  0.1528  0.3882  0.3279
  939MOL0    Cl26674   2.952   4.395   6.110 -0.1746  0.2420 -0.0571
  939MOL0     C26675   2.686   3.323   6.474 -0.8115 -0.4194 -0.8035
  939MOL0     C26676   2.675   3.195   6.412 -0.0959  0.0247  0.6971
  939MOL0     O26677   2.962   3.027   6.245 -0.4573  0.1568 -0.6676
  939MOL0     C26678   2.742   2.861   6.022 -1.5405 -0.5030 -0.2324
  939MOL0     C26679   2.750   2.747   5.940  0.5060  0.4112  0.9324
  939MOL0     N26680   2.996   1.902   6.011  0.0179 -0.1311  0.7431
  939MOL0     N26681   2.952   1.786   6.009 -0.6473 -0.2416 -0.2313
  939MOL0     C26682   2.255   1.167   5.038 -0.4488  0.2476  0.8279
  939MOL0     C26683   2.214   1.104   4.916 -0.2359  0.2890 -0.2544
  939MOL0     C26684   2.226   0.923   4.489 -0.3790 -0.2413 -0.6192
  939MOL0     C26685   2.087   0.969   4.483 -0.0287 -0.0810 -0.6198
  939MOL0     C26686   2.005   0.926   4.385 -0.2673 -0.2125 -0.9170
  939MOL0     C26687   2.048   0.832   4.289  0.0979  0.4240 -1.0208
  939MOL0     O26688   1.958   0.782   4.195  0.2948 -0.5871  0.6665
  939MOL0     C26689   1.852   0.688   4.245 -0.0208 -1.8259 -0.3440
  939MOL0     C26690   1.730   0.690   4.161  0.3142 -0.3504 -0.0783
  939MOL0     C26691   1.676   0.828   4.124 -0.5515 -0.1081 -0.4052
  939MOL0     C26692   1.536   0.826   4.061  0.3548  0.0140 -0.4245
  939MOL0     C26693   1.498   0.961   4.029  0.1008 -0.4801 -0.4552
  939MOL0     C26694   1.472   1.075   4.006 -0.0817 -0.1311  0.8360
  939MOL0     C26695   2.182   0.790   4.291 -0.9076 -0.2618 -0.0389
  939MOL0     C26696   2.271   0.837   4.390  0.0412  1.2184 -0.4705
  939MOL0     C26697   2.415   0.783   4.379  0.3595  0.5872 -0.4158
  939MOL0     H26698   2.495   1.148   4.744 -1.9904 -0.2581 -0.9556
  939MOL0     H26699   2.565   1.254   4.936 -0.4197 -0.6754 -1.1924
  939MOL0     H26700   2.615   1.286   5.188 -1.3909 -1.3006 -2.3725
  939MOL0     H26701   2.556   1.451   5.133 -1.9663  0.3734  0.2213
  939MOL0     H26702   2.644   1.390   5.373  0.0191 -0.9932  1.6805
  939MOL0     H26703   2.479   1.319   5.388  0.6290 -1.3411 -2.1397
  939MOL0     H26704   2.397   1.542   5.328 -0.5479 -0.9299  1.4219
  939MOL0     H26705   2.558   1.615   5.329 -1.4873  0.4604 -1.0252
  939MOL0     H26706   2.419   1.607   5.575  1.0972  1.8230 -1.0703
  939MOL0     H26707   2.473   1.455   5.574 -0.9735 -0.7629 -2.7932
  939MOL0     H26708   2.728   1.533   5.547  1.4247  2.4791 -0.7386
  939MOL0     H26709   2.650   1.701   5.550 -4.2052  1.4701 -0.9211
  939MOL0     H26710   2.548   1.599   5.779  0.0243  1.6857  0.5723
  939MOL0     H26711   2.675   1.478   5.747 -3.1746 -1.4559 -3.9952
  939MOL0     H26712   2.703   1.782   5.756 -1.8021 -1.3584 -2.3471
  939MOL0     H26713   2.832   1.675   5.758  0.1754  1.5349  1.0148
  939MOL0     H26714   2.628   1.694   5.982 -0.5442 -0.4130 -1.3044
  939MOL0     H26715   2.771   1.585   5.990 -0.5944 -0.1841 -0.8138
  939MOL0     H26716   2.675   1.949   5.947 -0.0328  0.7862 -1.3732
  939MOL0     H26717   2.815   2.199   6.056 -0.1541 -0.9406  0.1511
  939MOL0     H26718   2.987   2.160   6.089  0.8377 -2.3039  0.4875
  939MOL0     H26719   3.052   2.168   5.881  0.2909  0.4509  1.3263
  939MOL0     H26720   2.879   2.192   5.816  0.6220 -0.0642 -0.5051
  939MOL0     H26721   3.056   2.398   5.832 -0.1901 -1.6164 -1.6456
  939MOL0     H26722   2.997   2.395   6.002 -3.1016 -2.8573  1.7454
  939MOL0     H26723   2.786   2.427   5.961 -2.1800 -0.8974 -2.0588
  939MOL0     H26724   2.792   2.378   5.792  0.7811  1.0971 -1.1253
  939MOL0     H26725   3.083   2.663   5.952 -2.4925 -1.6956 -0.8424
  939MOL0     H26726   3.055   2.827   6.149 -1.6808 -0.3313  2.9649
  939MOL0     H26727   2.893   3.262   6.147  3.1777  1.5685  2.0932
  939MOL0     H26728   2.933   3.462   6.259  2.5042 -2.2400  1.5886
  939MOL0     H26729   2.572   3.559   6.442  0.8014 -1.0970 -3.0008
  939MOL0     H26730   2.642   3.675   6.559  0.8344  0.2303  0.0519
  939MOL0     H26731   2.707   3.704   6.266  2.7912 -0.6060  0.2477
  939MOL0     H26732   2.605   3.808   6.358  1.4190  1.8170 -2.0432
  939MOL0     H26733   2.822   3.847   6.513 -0.5646  1.4325 -0.4759
  939MOL0     H26734   2.900   3.747   6.391 -0.5491  0.6215 -0.2225
  939MOL0     H26735   2.745   3.973   6.273 -1.0371 -0.0192  1.6603
  939MOL0     H26736   2.898   3.892   6.226  1.2989  0.0166  1.4153
  939MOL0     H26737   3.006   3.999   6.412 -0.1563  1.7626  1.3818
  939MOL0     H26738   2.852   4.076   6.458 -1.0777  0.2865 -1.7437
  939MOL0     H26739   3.006   4.108   6.189  1.1066  0.0669  1.9671
  939MOL0     H26740   2.847   4.190   6.233  0.5655  3.0008  1.7618
  939MOL0     H26741   3.109   4.192   6.380  0.9142  0.4860 -2.1311
  939MOL0     H26742   2.972   4.289   6.431 -1.2906  2.4997 -2.8500
  939MOL0     H26743   3.089   4.451   6.300  2.7050 -1.1739  1.9683
  939MOL0     H26744   3.161   4.331   6.201  3.2466  4.0940  3.8988
  939MOL0     H26745   2.637   3.350   6.567 -1.7191  0.0455 -1.4029
  939MOL0     H26746   2.619   3.114   6.457 -0.5612 -0.1981 -0.2676
  939MOL0     H26747   2.653   2.922   6.024 -2.6929 -2.1075 -0.4457
  939MOL0     H26748   2.661   2.721   5.883 -0.5901  2.4451  1.6082
  939MOL0     H26749   2.187   1.153   5.122 -0.6846 -0.7914  0.4818
  939MOL0     H26750   2.110   1.073   4.914  0.2167 -1.3078 -1.8703
  939MOL0     H26751   2.034   1.042   4.543 -2.8804 -4.3822  2.6502
  939MOL0     H26752   1.912   0.982   4.376  0.2423  0.7322 -0.4631
  939MOL0     H26753   1.833   0.715   4.349 -0.0348 -0.2573 -0.7226
  939MOL0     H26754   1.887   0.585   4.241  2.2827 -1.1105 -0.3062
  939MOL0     H26755   1.656   0.631   4.217  0.3075  0.5190  0.8664
  939MOL0     H26756   1.747   0.630   4.072  0.2111  0.8852 -0.9602
  939MOL0     H26757   1.748   0.879   4.059 -1.3041  3.7407  1.5326
  939MOL0     H26758   1.667   0.890   4.213 -1.2475 -0.6496 -0.0821
  939MOL0     H26759   1.541   0.764   3.971  0.5829  1.9822 -1.8271
  939MOL0     H26760   1.471   0.780   4.136  4.1709  0.1080  3.3273
  939MOL0     H26761   1.444   1.174   3.977 -0.4403  0.3852  2.8252
  939MOL0     H26762   2.205   0.717   4.214 -0.3934  0.9980 -1.1207
  939MOL0     H26763   2.428   0.709   4.458  2.0484  1.8911  0.6065
  939MOL0     H26764   2.424   0.731   4.283  0.7509 -2.1941  1.0347
  939MOL0     H26765   2.493   0.857   4.398  2.0838 -0.8862 -1.5305
  940MOL0     O26766   7.630   3.343  10.491 -0.5292 -0.5048 -0.1079
  940MOL0     C26767   7.572   3.347  10.594 -0.0095  0.0860 -0.7885
  940MOL0     O26768   7.606   3.422  10.702  0.1090 -0.4129 -0.0528
  940MOL0     C26769   7.710   3.505  10.718  0.1202 -0.3395 -0.1586
  940MOL0     C26770   7.696   3.622  10.800  0.3694 -0.1759  0.7338
  940MOL0     C26771   7.813   3.710  10.822  0.2696 -0.1495  0.8670
  940MOL0     C26772   7.931   3.675  10.763  0.1849 -0.9126  0.5563
  940MOL0     O26773   8.032   3.761  10.786 -1.0295 -0.6038 -0.0088
  940MOL0     C26774   8.164   3.751  10.739  0.6348  0.0453  0.6895
  940MOL0     C26775   8.253   3.856  10.800  0.0899  0.4107 -0.2128
  940MOL0     C26776   8.297   3.833  10.944 -0.4028  0.0247 -0.4313
  940MOL0     C26777   8.452   3.844  10.964  0.2646 -0.1216 -0.2846
  940MOL0     C26778   8.501   3.840  11.109 -0.1957  0.5864  0.3498
  940MOL0     C26779   8.637   3.910  11.127  0.2023 -0.8248 -0.7660
  940MOL0     C26780   8.664   3.961  11.268  0.4761 -0.3775 -0.8078
  940MOL0     C26781   8.794   4.041  11.278 -0.0253  0.1851  0.7225
  940MOL0     N26782   8.781   4.170  11.220  0.6300 -0.3988  0.0005
  940MOL0     C26783   8.839   4.222  11.109 -0.3435 -0.6859 -0.1587
  940MOL0     C26784   8.796   4.353  11.106  0.0444  0.8775 -0.1112
  940MOL0     C26785   8.813   4.465  11.004 -0.3002  1.1757  0.3622
  940MOL0     C26786   8.960   4.506  11.010  0.5524 -0.5105  0.0082
  940MOL0     C26787   8.996   4.589  10.884  1.2910 -0.4716 -0.1149
  940MOL0     C26788   9.146   4.624  10.859 -0.3193 -0.1246 -0.6520
  940MOL0     O26789   9.199   4.729  10.952  0.6329 -0.4619  0.2368
  940MOL0     C26790   9.331   4.745  10.980  0.4805 -0.5464 -0.5023
  940MOL0     C26791   9.437   4.681  10.904  0.3568 -0.5763 -0.5344
  940MOL0     C26792   9.568   4.701  10.935 -0.1342  0.0790 -0.4401
  940MOL0     C26793   9.610   4.773  11.047  1.0734 -0.4868 -0.1752
  940MOL0     C26794   9.757   4.793  11.075  0.0087 -0.0899 -0.7978
  940MOL0     O26795   9.781   4.825  11.209 -0.1492 -0.0660  0.2948
  940MOL0     C26796   9.914   4.849  11.228  0.4385 -0.2618  0.2658
  940MOL0     C26797   9.944   4.983  11.255  0.4922 -0.3693  0.5953
  940MOL0     C26798  10.076   5.031  11.282 -0.4309  0.3053 -0.4516
  940MOL0     C26799  10.177   4.941  11.297 -0.1289  0.8949  0.6826
  940MOL0     O26800  10.306   4.977  11.323  0.3864  0.1391 -0.2367
  940MOL0     C26801  10.400   4.907  11.239  0.2241  0.0029 -1.0536
  940MOL0     C26802  10.478   4.788  11.296 -0.0037  0.2860 -0.2594
  940MOL0     C26803  10.492   4.797  11.454  0.0399 -0.0631  0.9436
  940MOL0     C26804  10.564   4.929  11.507 -0.1943  0.8039 -0.7848
  940MOL0     C26805  10.595   4.922  11.660 -0.7976 -0.7040  0.8892
  940MOL0     C26806  10.718   5.025  11.687  1.1698  0.6850  0.2496
  940MOL0     C26807  10.736   5.038  11.837  0.1108  0.0306  1.1346
  940MOL0     C26808  10.854   5.118  11.874 -0.3151  0.1881 -0.2378
  940MOL0    Cl26809  10.877   5.067  12.042 -0.7286 -0.1049 -0.4020
  940MOL0     C26810  10.147   4.795  11.291  1.0840 -0.4609  0.0402
  940MOL0     C26811  10.012   4.755  11.253 -0.0872  0.0639 -0.0448
  940MOL0     O26812   9.832   4.769  10.985 -0.3486 -0.3375 -0.9208
  940MOL0     C26813   9.498   4.841  11.122 -0.8662 -0.5262  0.8758
  940MOL0     C26814   9.366   4.828  11.096 -0.5592 -0.2107 -0.0216
  940MOL0     N26815   8.701   4.372  11.202 -0.1491 -0.2280  0.2309
  940MOL0     N26816   8.694   4.268  11.270 -0.0234  0.0925 -0.1756
  940MOL0     C26817   7.944   3.559  10.681  1.0136  0.0467  0.2470
  940MOL0     C26818   7.836   3.476  10.666  0.6400  0.2019  0.4909
  940MOL0     C26819   7.459   3.261  10.613  0.2348  0.5456 -0.5475
  940MOL0     C26820   7.443   3.207  10.743  0.9370  0.1412  0.4114
  940MOL0     C26821   7.345   3.111  10.755 -0.2964 -0.5774 -0.2928
  940MOL0     C26822   7.255   3.065  10.657  0.3977  0.1133  0.1915
  940MOL0     O26823   7.171   2.953  10.670 -1.3546 -0.5481 -0.3219
  940MOL0     C26824   7.045   2.968  10.616  0.7282  0.4836  0.2143
  940MOL0     C26825   6.942   2.910  10.714 -0.2858  0.0241  0.4612
  940MOL0     C26826   6.801   2.901  10.660  0.6153  0.6849 -0.3144
  940MOL0     C26827   6.710   2.813  10.747 -0.4446  0.6846  0.2381
  940MOL0     C26828   6.570   2.864  10.745 -0.6708 -0.1681  0.5959
  940MOL0     C26829   6.465   2.916  10.741  1.2806  0.4392  0.6823
  940MOL0     C26830   7.280   3.114  10.530  0.6559 -0.2662 -0.2091
  940MOL0     C26831   7.371   3.219  10.504 -1.1726  0.1652 -0.7398
  940MOL0     C26832   7.377   3.293  10.367 -0.3479 -0.7934 -0.3845
  940MOL0     H26833   7.604   3.642  10.855  0.5987 -0.9754  1.4247
  940MOL0     H26834   7.819   3.795  10.891  3.6028 -0.6307  1.3563
  940MOL0     H26835   8.212   3.658  10.771 -2.4298 -1.1227  2.3521
  940MOL0     H26836   8.169   3.767  10.631 -1.0950  0.1143  0.5905
  940MOL0     H26837   8.211   3.955  10.780 -1.1470 -0.7620 -4.4461
  940MOL0     H26838   8.351   3.845  10.751  0.6696  2.0697  0.4874
  940MOL0     H26839   8.270   3.733  10.982  2.2162 -0.9209 -0.8650
  940MOL0     H26840   8.243   3.909  11.001  1.6934  2.5856 -1.6747
  940MOL0     H26841   8.506   3.763  10.915 -0.2635  0.5050 -1.9921
  940MOL0     H26842   8.470   3.941  10.915 -1.1262 -0.0677 -0.7605
  940MOL0     H26843   8.422   3.877  11.175 -0.3854 -2.9547  2.3860
  940MOL0     H26844   8.503   3.739  11.152 -2.0515  0.7367  0.8893
  940MOL0     H26845   8.724   3.853  11.092  1.6488  1.8568 -1.8353
  940MOL0     H26846   8.631   4.002  11.069 -1.4746 -1.2157 -1.2859
  940MOL0     H26847   8.671   3.883  11.346  0.6697 -3.2380 -3.4768
  940MOL0     H26848   8.578   4.022  11.297 -0.1277 -1.0051 -1.2376
  940MOL0     H26849   8.830   4.044  11.381  1.1940  1.0189  0.2939
  940MOL0     H26850   8.871   3.995  11.215 -0.2347  0.4486  0.2656
  940MOL0     H26851   8.896   4.160  11.039  1.0769  0.9960 -0.5577
  940MOL0     H26852   8.800   4.412  10.909  2.0087  0.2700  0.4825
  940MOL0     H26853   8.756   4.557  11.017 -2.1323  0.7030 -3.2120
  940MOL0     H26854   8.975   4.556  11.106  3.2836 -0.1811 -0.5038
  940MOL0     H26855   9.008   4.408  11.003  0.3508 -0.7232  1.3321
  940MOL0     H26856   8.930   4.676  10.886 -2.1649 -2.8770  0.9373
  940MOL0     H26857   8.970   4.537  10.791 -2.9191 -0.2759  0.7388
  940MOL0     H26858   9.146   4.658  10.754 -0.3050  1.4416 -0.1755
  940MOL0     H26859   9.186   4.523  10.861  2.7129  0.9720 -0.5016
  940MOL0     H26860   9.421   4.639  10.805 -0.3162  1.2327 -1.2302
  940MOL0     H26861   9.642   4.650  10.874  1.0106  2.2957 -1.0151
  940MOL0     H26862   9.870   5.062  11.255  0.6570 -0.1603 -1.5501
  940MOL0     H26863  10.109   5.127  11.320  4.0243 -1.8836  1.9624
  940MOL0     H26864  10.366   4.881  11.138  1.8565 -2.1630 -1.1096
  940MOL0     H26865  10.475   4.983  11.215 -1.8886  2.4911 -0.2940
  940MOL0     H26866  10.419   4.703  11.261  1.6495 -0.3251 -1.6836
  940MOL0     H26867  10.575   4.769  11.250 -0.7836 -1.8768 -1.1775
  940MOL0     H26868  10.398   4.770  11.502 -0.3286 -0.6534 -0.0865
  940MOL0     H26869  10.560   4.717  11.485 -0.0106 -0.5478 -0.1684
  940MOL0     H26870  10.501   5.017  11.490 -1.6847 -0.1702 -0.5316
  940MOL0     H26871  10.662   4.940  11.461  0.5564 -0.4571  0.4511
  940MOL0     H26872  10.622   4.824  11.701 -1.6482  0.2799  4.1616
  940MOL0     H26873  10.506   4.968  11.704 -0.6677  0.5579 -0.1189
  940MOL0     H26874  10.812   4.992  11.643  0.4602 -1.8640  0.4818
  940MOL0     H26875  10.692   5.128  11.660  2.2308  1.3737  1.6839
  940MOL0     H26876  10.743   4.936  11.876  0.2818 -0.2110  0.4785
  940MOL0     H26877  10.648   5.080  11.886 -3.3595 -2.7905 -2.1137
  940MOL0     H26878  10.938   5.082  11.814  0.9393  0.6842  1.1528
  940MOL0     H26879  10.831   5.225  11.864  3.1571  1.1448  0.8018
  940MOL0     H26880  10.209   4.709  11.316  0.5046 -1.3779 -1.4862
  940MOL0     H26881   9.994   4.648  11.264  4.6542 -0.9863 -0.5868
  940MOL0     H26882   9.519   4.912  11.201 -0.8802 -0.1894  0.5768
  940MOL0     H26883   9.292   4.888  11.147 -2.9985 -1.0219 -2.3309
  940MOL0     H26884   8.025   3.538  10.612  1.4095  0.3581  0.6114
  940MOL0     H26885   7.846   3.395  10.595  2.0516  1.6708 -1.0733
  940MOL0     H26886   7.502   3.224  10.833  1.5538 -3.4086  0.8412
  940MOL0     H26887   7.324   3.076  10.856 -1.1468  2.6434  0.7794
  940MOL0     H26888   7.041   2.900  10.530 -0.4336  0.4561  0.2772
  940MOL0     H26889   7.020   3.071  10.590  1.6834  0.6548 -0.0614
  940MOL0     H26890   6.942   2.980  10.798  1.0613 -0.8812  1.2556
  940MOL0     H26891   6.978   2.812  10.747  0.5537  0.2397  0.1916
  940MOL0     H26892   6.807   2.860  10.559  0.8390 -0.9995  0.3434
  940MOL0     H26893   6.768   3.004  10.646 -0.7203  0.0422 -2.2985
  940MOL0     H26894   6.727   2.709  10.717 -0.3915  0.9736 -0.7753
  940MOL0     H26895   6.731   2.811  10.854 -1.8641 -1.3440  0.5275
  940MOL0     H26896   6.368   2.960  10.734  1.3716  0.3866 -2.2486
  940MOL0     H26897   7.201   3.093  10.459 -1.8724  0.6937  2.1348
  940MOL0     H26898   7.429   3.220  10.303 -0.7995 -1.4575  0.0045
  940MOL0     H26899   7.274   3.299  10.333 -0.0374  0.4197 -1.2026
  940MOL0     H26900   7.428   3.390  10.367 -0.5768 -0.6142 -2.6664
  941MOL0     O26901   6.203  10.253   0.187 -0.4479 -0.4816 -0.0675
  941MOL0     C26902   6.185  10.318   0.080 -0.3088 -0.2187 -0.3408
  941MOL0     O26903   6.099  10.282  -0.016  0.9251 -0.0616 -0.1288
  941MOL0     C26904   6.015  10.182   0.018 -0.4836 -0.1626 -0.7586
  941MOL0     C26905   5.913  10.200   0.109 -0.3347  0.2989  0.1778
  941MOL0     C26906   5.832  10.091   0.144  0.3593  0.4982 -0.8814
  941MOL0     C26907   5.845   9.972   0.081  0.9172 -0.0166 -0.3454
  941MOL0     O26908   5.738   9.888   0.092 -0.7275  0.0860  0.0030
  941MOL0     C26909   5.742   9.759   0.037 -0.5273 -1.2270 -0.7932
  941MOL0     C26910   5.633   9.668   0.109  0.0032 -0.0161  0.1591
  941MOL0     C26911   5.664   9.667   0.269  0.1362  0.1257  1.2358
  941MOL0     C26912   5.564   9.761   0.333 -0.5069  0.9696  0.1465
  941MOL0     C26913   5.594   9.784   0.478 -0.0765 -0.8853 -0.0801
  941MOL0     C26914   5.526   9.680   0.568 -0.0949 -0.0191 -0.0651
  941MOL0     C26915   5.562   9.688   0.714 -0.2486 -0.1776 -0.5079
  941MOL0     C26916   5.468   9.616   0.799  0.4802  0.3776 -0.8292
  941MOL0     N26917   5.493   9.476   0.796 -0.4981 -1.3969 -0.4724
  941MOL0     C26918   5.420   9.395   0.706 -0.1132  0.5494  0.3047
  941MOL0     C26919   5.503   9.283   0.702  0.0985  0.0917 -0.1654
  941MOL0     C26920   5.490   9.143   0.638 -0.5139  0.6229  0.6306
  941MOL0     C26921   5.354   9.131   0.556  0.0876  0.1456  0.3395
  941MOL0     C26922   5.376   9.171   0.410  0.4806 -0.3772 -0.0964
  941MOL0     C26923   5.251   9.158   0.325 -0.0864 -1.0912 -0.9357
  941MOL0     O26924   5.147   9.241   0.368 -0.1172 -0.2624 -0.2236
  941MOL0     C26925   5.177   9.374   0.356  0.2716 -0.6336  0.7488
  941MOL0     C26926   5.084   9.445   0.438 -0.1455 -0.7965 -0.1651
  941MOL0     C26927   5.076   9.583   0.426  0.0204  0.1037 -0.5391
  941MOL0     C26928   5.165   9.653   0.337  0.1801 -0.8272 -0.9630
  941MOL0     C26929   5.160   9.801   0.330  0.0788  1.4360  0.4763
  941MOL0     O26930   5.184   9.872   0.215  0.0016  1.2779  0.4292
  941MOL0     C26931   5.200  10.006   0.225  0.5499 -0.6179 -0.3373
  941MOL0     C26932   5.329  10.064   0.212 -0.1017  0.0501 -0.2909
  941MOL0     C26933   5.360  10.198   0.202  0.5128  1.1419  0.3738
  941MOL0     C26934   5.238  10.278   0.188  0.0351 -0.5751  0.3322
  941MOL0     O26935   5.243  10.417   0.194  0.4820  0.3204 -0.3393
  941MOL0     C26936   5.353  10.481   0.253 -0.1588  0.5835 -0.4092
  941MOL0     C26937   5.298  10.598   0.335  0.1440  0.2286  0.3943
  941MOL0     C26938   5.229  10.552   0.462  1.0685 -0.2172 -0.7964
  941MOL0     C26939   5.212  10.661   0.575  0.0513 -0.0986 -0.9925
  941MOL0     C26940   5.146  10.615   0.712 -0.1029  0.2505  0.5665
  941MOL0     C26941   4.999  10.577   0.698  0.7843  0.4572  0.4416
  941MOL0     C26942   4.953  10.492   0.816 -0.9344  0.7557  0.1215
  941MOL0     C26943   4.827  10.542   0.889 -0.0397 -0.4168 -0.9790
  941MOL0    Cl26944   4.860  10.698   0.984  0.8537  0.0047  0.0391
  941MOL0     C26945   5.107  10.224   0.181 -0.5533 -0.5804  0.2098
  941MOL0     C26946   5.092  10.084   0.200  0.4663  0.3092 -0.8468
  941MOL0     O26947   5.150   9.846   0.443  0.1501 -0.1331  0.5415
  941MOL0     C26948   5.250   9.580   0.254 -0.5747  0.0367 -0.1595
  941MOL0     C26949   5.262   9.443   0.270  0.7600  0.9146 -0.3128
  941MOL0     N26950   5.613   9.298   0.790 -1.1711  0.1644  0.1975
  941MOL0     N26951   5.613   9.421   0.838 -0.2255  0.2611  0.1949
  941MOL0     C26952   5.937   9.956  -0.021  0.2959  0.0737  0.1511
  941MOL0     C26953   6.023  10.061  -0.048  0.3161 -0.1569 -0.3636
  941MOL0     C26954   6.280  10.428   0.053 -0.4086  1.2212  0.5723
  941MOL0     C26955   6.285  10.479  -0.086  0.5811 -0.4453 -1.2137
  941MOL0     C26956   6.347  10.596  -0.119  1.1201 -0.6146  0.1338
  941MOL0     C26957   6.419  10.673  -0.031 -0.6268 -0.8329  0.1988
  941MOL0     O26958   6.497  10.783  -0.082 -0.1804  0.4275  0.0193
  941MOL0     C26959   6.578  10.851   0.014 -0.3221 -0.4593  1.0460
  941MOL0     C26960   6.642  10.973  -0.063 -0.2402  0.2687 -0.0546
  941MOL0     C26961   6.543  11.068  -0.132 -0.2656  0.9934  0.1353
  941MOL0     C26962   6.603  11.169  -0.217 -0.3726 -1.0817  0.3052
  941MOL0     C26963   6.693  11.274  -0.152  0.0549  0.7754  0.1561
  941MOL0     C26964   6.759  11.359  -0.096 -1.1403  0.1627  0.4652
  941MOL0     C26965   6.426  10.617   0.106 -0.3294  0.1848  0.3642
  941MOL0     C26966   6.353  10.510   0.145 -0.3697  0.0482 -0.6278
  941MOL0     C26967   6.357  10.485   0.294  0.1073  0.3309  0.4344
  941MOL0     H26968   5.898  10.297   0.153  0.4453  0.9809 -0.9863
  941MOL0     H26969   5.755  10.105   0.220  1.6128 -2.9813  1.2726
  941MOL0     H26970   5.745   9.760  -0.072 -0.9885  4.3534 -1.0497
  941MOL0     H26971   5.840   9.722   0.070  0.4900  3.5276  2.5385
  941MOL0     H26972   5.629   9.565   0.073 -1.7828  0.8037 -2.2093
  941MOL0     H26973   5.536   9.713   0.085 -0.0939  0.7519  1.8016
  941MOL0     H26974   5.764   9.705   0.293 -0.0171  2.3446 -1.2150
  941MOL0     H26975   5.655   9.564   0.305  2.2395 -0.3308  0.6091
  941MOL0     H26976   5.554   9.860   0.287 -3.1663  1.4951  1.6322
  941MOL0     H26977   5.471   9.707   0.313  1.9063 -3.0282 -1.4180
  941MOL0     H26978   5.700   9.773   0.502  0.1840  2.1245  0.5792
  941MOL0     H26979   5.557   9.882   0.510 -1.0413 -1.6025  1.1030
  941MOL0     H26980   5.418   9.685   0.553 -0.2223 -1.5847  0.2001
  941MOL0     H26981   5.555   9.584   0.523 -2.6006 -0.2606 -1.3396
  941MOL0     H26982   5.557   9.795   0.738  1.8480 -0.3986  1.2304
  941MOL0     H26983   5.664   9.653   0.734 -0.1585 -0.7571 -1.8765
  941MOL0     H26984   5.477   9.643   0.905 -1.6715 -0.2489 -0.4367
  941MOL0     H26985   5.365   9.636   0.768  0.9149  0.4106 -2.3331
  941MOL0     H26986   5.331   9.413   0.647 -0.3532  0.3156  0.5907
  941MOL0     H26987   5.577   9.118   0.576 -1.3071  2.7269 -1.4709
  941MOL0     H26988   5.482   9.069   0.719  0.9182 -0.0131  0.2288
  941MOL0     H26989   5.335   9.024   0.544  1.7184 -0.0562 -0.6815
  941MOL0     H26990   5.272   9.186   0.603  0.0170  2.3031 -2.0766
  941MOL0     H26991   5.442   9.091   0.377 -0.4808 -2.1053  1.8660
  941MOL0     H26992   5.431   9.265   0.409 -1.3037  0.7215 -0.7269
  941MOL0     H26993   5.220   9.057   0.356 -0.2238 -0.5684  0.7096
  941MOL0     H26994   5.284   9.180   0.223  2.8974  4.6465  0.8415
  941MOL0     H26995   5.028   9.399   0.519  0.8383  0.9195  1.6011
  941MOL0     H26996   5.014   9.640   0.494  2.0334  2.3939 -0.4631
  941MOL0     H26997   5.413   9.995   0.219 -1.6208 -1.8689 -0.0536
  941MOL0     H26998   5.461  10.238   0.203  1.5012 -1.0466 -1.7310
  941MOL0     H26999   5.402  10.407   0.317 -0.0432 -0.8804 -2.0786
  941MOL0     H27000   5.430  10.519   0.185  1.2763  3.7019  2.6496
  941MOL0     H27001   5.383  10.657   0.371  1.3794 -0.2502 -1.6151
  941MOL0     H27002   5.226  10.651   0.272 -0.2189 -1.7816 -0.9601
  941MOL0     H27003   5.133  10.509   0.432  0.4249 -0.6856  1.7312
  941MOL0     H27004   5.285  10.468   0.504 -0.8399  0.7334  4.3802
  941MOL0     H27005   5.158  10.743   0.528 -2.1638 -0.9152  0.0047
  941MOL0     H27006   5.311  10.699   0.603 -1.4323  1.8053  2.3072
  941MOL0     H27007   5.169  10.694   0.784  0.4056  0.8419 -0.2163
  941MOL0     H27008   5.210  10.539   0.759  1.9561  0.4805 -1.6240
  941MOL0     H27009   4.946  10.673   0.687 -1.8746 -0.8772  0.7317
  941MOL0     H27010   4.977  10.510   0.614  0.3006  0.1507  0.8062
  941MOL0     H27011   5.036  10.490   0.888 -0.7313  0.1142 -0.1223
  941MOL0     H27012   4.947  10.389   0.780  3.9286  1.2988 -3.3143
  941MOL0     H27013   4.748  10.569   0.818 -0.4318  1.9627  0.2377
  941MOL0     H27014   4.791  10.473   0.967  3.3663  0.8116  1.9683
  941MOL0     H27015   5.018  10.285   0.170 -0.7999 -1.1568 -1.1699
  941MOL0     H27016   4.993  10.040   0.197 -0.1907  1.4791  1.3230
  941MOL0     H27017   5.294   9.647   0.181 -2.1525  0.0207 -1.1608
  941MOL0     H27018   5.324   9.381   0.207  1.2270 -1.8142  2.5783
  941MOL0     H27019   5.948   9.865  -0.080 -0.6342 -1.6986  2.5355
  941MOL0     H27020   6.103  10.043  -0.119 -2.0885 -0.7569 -3.1057
  941MOL0     H27021   6.229  10.430  -0.165 -0.5331  0.2364 -0.8741
  941MOL0     H27022   6.333  10.644  -0.215 -0.0387  0.5914  0.8748
  941MOL0     H27023   6.647  10.781   0.061  4.4509  0.3826 -3.7887
  941MOL0     H27024   6.520  10.889   0.099 -2.1412 -0.6940 -0.0198
  941MOL0     H27025   6.717  10.940  -0.135  0.9332  2.9499 -0.1900
  941MOL0     H27026   6.703  11.026   0.011  0.9239 -1.1113  0.0290
  941MOL0     H27027   6.485  11.121  -0.056 -3.1058 -1.6974  0.0397
  941MOL0     H27028   6.461  11.019  -0.186 -0.6911  2.0166 -0.1670
  941MOL0     H27029   6.650  11.120  -0.302  0.7262 -0.5527  0.5957
  941MOL0     H27030   6.525  11.232  -0.261  3.0971  3.0994 -0.5853
  941MOL0     H27031   6.812  11.437  -0.044 -1.1099 -0.7577  1.8710
  941MOL0     H27032   6.476  10.670   0.186 -0.9233 -1.9050  2.2117
  941MOL0     H27033   6.429  10.550   0.343  0.5295 -1.5825  2.5155
  941MOL0     H27034   6.257  10.495   0.337  0.1352 -0.1683  0.6256
  941MOL0     H27035   6.387  10.382   0.315 -2.3651 -0.1435  2.1192
  942MOL0     O27036   8.896  11.273  10.771  0.0301 -0.2033 -0.0741
  942MOL0     C27037   9.000  11.338  10.730 -0.1499  0.0482  0.0467
  942MOL0     O27038   9.015  11.482  10.704  0.3794 -0.5879 -0.3738
  942MOL0     C27039   8.905  11.556  10.710  0.6621 -0.0235 -0.2186
  942MOL0     C27040   8.799  11.534  10.618  1.1735 -0.2000 -0.0066
  942MOL0     C27041   8.704  11.633  10.587 -0.4910 -0.6694 -0.3710
  942MOL0     C27042   8.710  11.758  10.650 -0.8035  0.2976 -1.5057
  942MOL0     O27043   8.624  11.860  10.613 -0.6823 -0.3546  0.5029
  942MOL0     C27044   8.566  11.939  10.722 -0.8220 -0.3110 -0.4232
  942MOL0     C27045   8.429  11.986  10.674  0.3147  0.2585  0.2040
  942MOL0     C27046   8.326  11.875  10.690  0.6344 -0.8804 -0.0720
  942MOL0     C27047   8.185  11.944  10.667  0.0179  0.9476 -0.2108
  942MOL0     C27048   8.068  11.842  10.643  0.3737 -0.3626  0.4596
  942MOL0     C27049   7.937  11.924  10.661  0.2539 -0.0318 -0.8425
  942MOL0     C27050   7.810  11.834  10.671 -0.2599 -0.4117 -0.3099
  942MOL0     C27051   7.817  11.729  10.793 -0.6862 -0.2762  0.4600
  942MOL0     N27052   7.707  11.638  10.795 -0.3324 -0.6306  0.1981
  942MOL0     C27053   7.648  11.593  10.686  0.5894 -1.3161  0.9035
  942MOL0     C27054   7.555  11.506  10.738 -0.6586 -0.3626 -0.0713
  942MOL0     C27055   7.440  11.458  10.655 -0.6516 -0.2699  0.2065
  942MOL0     C27056   7.296  11.510  10.689  0.9097  0.4047  0.4201
  942MOL0     C27057   7.186  11.469  10.588 -0.6690  0.6415  0.1300
  942MOL0     C27058   7.052  11.536  10.612  0.5569 -0.5368  0.3347
  942MOL0     O27059   7.057  11.672  10.577  0.7183 -0.0414  0.6120
  942MOL0     C27060   6.987  11.713  10.462 -1.7053  0.0745 -1.0680
  942MOL0     C27061   7.005  11.850  10.427 -0.2449  0.3684 -0.6882
  942MOL0     C27062   6.970  11.914  10.302  0.7054  0.7101 -0.9614
  942MOL0     C27063   6.908  11.826  10.209  0.3476 -0.3513  1.0429
  942MOL0     C27064   6.864  11.865  10.079  0.0064 -0.0593  0.1751
  942MOL0     O27065   6.955  11.950  10.018  0.0153  0.3513 -0.2387
  942MOL0     C27066   6.920  12.038   9.919  0.3068  0.5377  0.1901
  942MOL0     C27067   6.787  12.078   9.893 -0.3881  0.9828  0.7002
  942MOL0     C27068   6.752  12.171   9.797  0.0519  0.3087 -0.1421
  942MOL0     C27069   6.847  12.206   9.707 -0.2458 -0.3677  0.5617
  942MOL0     O27070   6.806  12.276   9.595 -0.1749  0.1347 -0.3792
  942MOL0     C27071   6.714  12.387   9.618 -0.3699  1.1083  0.1398
  942MOL0     C27072   6.784  12.511   9.676  0.1916  0.5288  0.4508
  942MOL0     C27073   6.887  12.578   9.585  0.1491  0.4909  0.5513
  942MOL0     C27074   6.827  12.691   9.500 -0.8568 -0.0369 -0.0146
  942MOL0     C27075   6.930  12.736   9.389 -0.0668  0.1831 -0.0378
  942MOL0     C27076   7.037  12.831   9.449  1.4901  0.4111 -0.4894
  942MOL0     C27077   7.141  12.876   9.339 -0.3923  0.2497 -0.0558
  942MOL0     C27078   7.070  12.972   9.237  0.9258 -0.2514  0.4128
  942MOL0    Cl27079   7.200  13.046   9.130  0.2970  0.5112  0.0105
  942MOL0     C27080   6.981  12.163   9.718  1.2073 -0.3116 -0.4213
  942MOL0     C27081   7.016  12.088   9.830 -0.1754 -0.1776  0.0334
  942MOL0     O27082   6.749  11.831  10.043 -0.0424 -0.5277 -0.7831
  942MOL0     C27083   6.899  11.689  10.236 -1.1088 -0.2858  0.0965
  942MOL0     C27084   6.935  11.634  10.364  0.0199  0.1252  0.9919
  942MOL0     N27085   7.570  11.495  10.871  0.5396  0.0931 -0.2028
  942MOL0     N27086   7.661  11.568  10.902 -0.0315 -0.2900 -0.4774
  942MOL0     C27087   8.802  11.774  10.756  0.0351 -0.0774  0.2808
  942MOL0     C27088   8.901  11.672  10.787  0.7160 -0.2695 -1.0903
  942MOL0     C27089   9.122  11.258  10.680 -0.4918 -0.8921 -0.2292
  942MOL0     C27090   9.251  11.321  10.690  0.9302  0.4384 -0.0636
  942MOL0     C27091   9.360  11.268  10.616  0.5309  0.1852  0.1944
  942MOL0     C27092   9.342  11.144  10.558  0.0297 -0.2759 -0.5062
  942MOL0     O27093   9.436  11.060  10.499  0.4240  0.8692 -0.4483
  942MOL0     C27094   9.564  11.111  10.472 -0.3392 -0.9947 -0.3382
  942MOL0     C27095   9.660  11.081  10.588 -0.3417  0.6579  0.8206
  942MOL0     C27096   9.684  10.931  10.624 -0.3640 -1.4530 -0.0199
  942MOL0     C27097   9.762  10.913  10.758  0.0982 -0.5957 -0.9990
  942MOL0     C27098   9.884  10.992  10.770  0.0834  0.3808  0.6166
  942MOL0     C27099   9.992  11.049  10.777 -0.0484 -0.6311 -0.9005
  942MOL0     C27100   9.224  11.081  10.565  0.3000 -0.0892 -0.5957
  942MOL0     C27101   9.102  11.141  10.615 -0.8211  0.3170 -0.4306
  942MOL0     C27102   8.973  11.077  10.583  0.8835  0.6623 -1.2732
  942MOL0     H27103   8.800  11.446  10.554  1.0052 -0.0209 -0.2564
  942MOL0     H27104   8.634  11.629  10.505  1.9062  0.5438 -2.6229
  942MOL0     H27105   8.558  11.886  10.817 -0.9049 -0.4517 -0.5076
  942MOL0     H27106   8.624  12.032  10.729  2.4618 -2.0926 -1.9196
  942MOL0     H27107   8.440  12.015  10.569  2.0105 -4.1990 -1.1242
  942MOL0     H27108   8.396  12.077  10.724 -0.5486  1.4048 -2.2764
  942MOL0     H27109   8.320  11.829  10.790  0.2186 -1.0103 -0.1575
  942MOL0     H27110   8.346  11.792  10.621  1.1240 -2.4029  1.7980
  942MOL0     H27111   8.156  12.002  10.756 -0.3723  0.0835  0.2443
  942MOL0     H27112   8.198  12.008  10.579  2.7089 -0.5622 -1.0197
  942MOL0     H27113   8.073  11.795  10.544 -1.9018  0.0591  0.1073
  942MOL0     H27114   8.084  11.757  10.711  0.9375 -2.5377 -2.1921
  942MOL0     H27115   7.949  11.982  10.753 -2.6032 -1.9989  0.9319
  942MOL0     H27116   7.933  11.989  10.573  0.9932  1.4734  0.2006
  942MOL0     H27117   7.800  11.779  10.577  1.1455  0.4830 -1.0337
  942MOL0     H27118   7.726  11.903  10.687 -0.1578 -0.3150 -0.1888
  942MOL0     H27119   7.912  11.676  10.795 -1.0227 -0.9298 -0.3603
  942MOL0     H27120   7.806  11.786  10.886 -1.2963 -1.3063  1.0379
  942MOL0     H27121   7.647  11.634  10.585  0.0673  0.4951  1.5999
  942MOL0     H27122   7.462  11.485  10.552 -0.7963 -0.0920  0.2218
  942MOL0     H27123   7.421  11.350  10.653 -1.3893 -0.1522  0.6054
  942MOL0     H27124   7.265  11.478  10.789 -0.2596  3.5408  1.1738
  942MOL0     H27125   7.302  11.618  10.703  3.5558  0.5958 -1.4045
  942MOL0     H27126   7.158  11.364  10.598 -2.5767  1.2781  2.2722
  942MOL0     H27127   7.209  11.499  10.485 -2.4869  0.1963 -0.4358
  942MOL0     H27128   7.026  11.535  10.718  1.1546 -1.0923  0.4767
  942MOL0     H27129   6.972  11.489  10.555 -0.4408  2.1655 -0.6659
  942MOL0     H27130   7.049  11.911  10.505 -0.2674 -1.3993  0.7764
  942MOL0     H27131   7.010  12.010  10.269  2.3594 -0.2697 -1.9631
  942MOL0     H27132   6.714  12.051   9.969  0.5278 -0.3484  1.1586
  942MOL0     H27133   6.647  12.176   9.770  0.0669  0.3782 -0.1874
  942MOL0     H27134   6.672  12.396   9.517  0.2458  1.0033 -0.1307
  942MOL0     H27135   6.623  12.361   9.672 -1.6424  0.3288 -2.2232
  942MOL0     H27136   6.701  12.570   9.715 -1.8626 -2.5204  1.0496
  942MOL0     H27137   6.837  12.472   9.763 -0.5308 -0.8238  0.3084
  942MOL0     H27138   6.974  12.607   9.644  1.2851 -0.1370 -0.7377
  942MOL0     H27139   6.929  12.511   9.509  0.4246  2.1727 -0.8304
  942MOL0     H27140   6.796  12.783   9.550 -1.4823 -0.4227  0.3152
  942MOL0     H27141   6.733  12.651   9.461 -3.4569  2.6057  2.9322
  942MOL0     H27142   6.869  12.781   9.311  0.3630 -0.5102 -0.7952
  942MOL0     H27143   6.979  12.648   9.346 -2.2600  0.7538 -4.1311
  942MOL0     H27144   6.990  12.922   9.487  1.1029  0.3662 -0.8476
  942MOL0     H27145   7.091  12.774   9.525  2.5644  4.0585  1.7159
  942MOL0     H27146   7.185  12.796   9.279 -0.6681  0.0268  0.0358
  942MOL0     H27147   7.220  12.935   9.386 -0.9242  1.0910 -0.2067
  942MOL0     H27148   7.000  12.914   9.177 -0.2794 -1.4549  2.8217
  942MOL0     H27149   7.011  13.050   9.285 -2.1209 -2.0668 -0.0877
  942MOL0     H27150   7.042  12.163   9.629 -2.5209 -1.6824 -3.2207
  942MOL0     H27151   7.118  12.052   9.838 -0.2439 -0.4733 -0.4159
  942MOL0     H27152   6.858  11.616  10.167 -1.5527 -2.4437  2.5122
  942MOL0     H27153   6.918  11.527  10.375 -2.0417  0.6036  3.4637
  942MOL0     H27154   8.809  11.868  10.809  0.9623 -0.0436  0.1122
  942MOL0     H27155   8.970  11.675  10.871 -1.8991 -2.1740  1.2793
  942MOL0     H27156   9.263  11.419  10.735  2.5948 -1.5474  4.4021
  942MOL0     H27157   9.459  11.311  10.608  1.1401 -1.4368 -1.4930
  942MOL0     H27158   9.574  11.218  10.455 -2.7575 -0.7067 -0.3061
  942MOL0     H27159   9.605  11.066  10.381  2.1977 -1.1402  0.7991
  942MOL0     H27160   9.615  11.117  10.681  0.0634 -2.9364  2.5579
  942MOL0     H27161   9.761  11.123  10.576 -0.3400  0.6908  0.9454
  942MOL0     H27162   9.744  10.877  10.550  1.4620 -1.3937  1.3698
  942MOL0     H27163   9.588  10.879  10.634  0.6188 -2.8874  3.3361
  942MOL0     H27164   9.684  10.951  10.824 -0.5299 -0.9367 -1.5351
  942MOL0     H27165   9.785  10.809  10.779 -0.3900 -0.6337 -0.6311
  942MOL0     H27166  10.083  11.104  10.764 -0.5697  0.3628 -0.4002
  942MOL0     H27167   9.211  10.990  10.508  0.1189 -0.6567  0.3318
  942MOL0     H27168   8.989  10.988  10.522 -4.1707 -0.7427 -1.0436
  942MOL0     H27169   8.917  11.035  10.667  4.1705 -0.7711  0.3861
  942MOL0     H27170   8.910  11.149  10.530 -1.4178 -1.4588 -1.6312
  943MOL0     O27171   6.936   0.914   5.352  0.7030  1.2866  0.4240
  943MOL0     C27172   6.980   1.015   5.399 -0.7019 -0.3390 -0.8365
  943MOL0     O27173   6.942   1.071   5.515 -0.8284  0.7398 -0.3687
  943MOL0     C27174   6.828   1.028   5.580 -0.2452  0.3869 -0.0087
  943MOL0     C27175   6.841   0.990   5.712  0.0788 -0.2525  0.0845
  943MOL0     C27176   6.736   0.947   5.779  0.3798 -0.2006  0.3083
  943MOL0     C27177   6.604   0.940   5.730  0.5677  0.2478 -0.2560
  943MOL0     O27178   6.499   0.896   5.801 -0.1169 -0.1859  0.5756
  943MOL0     C27179   6.497   0.908   5.933  0.1417 -0.2353 -1.0422
  943MOL0     C27180   6.357   0.953   5.977  1.0090  0.4741  0.5957
  943MOL0     C27181   6.360   1.005   6.120 -0.1205  1.1484 -0.4943
  943MOL0     C27182   6.383   1.160   6.130 -0.5627 -0.6100 -0.3321
  943MOL0     C27183   6.392   1.227   6.276  0.5781  0.0429 -0.7818
  943MOL0     C27184   6.403   1.375   6.267 -0.2699 -0.0691  0.0913
  943MOL0     C27185   6.346   1.445   6.392  1.0953  0.5542  0.2116
  943MOL0     C27186   6.443   1.441   6.515 -0.6326 -0.3266 -0.1389
  943MOL0     N27187   6.422   1.561   6.600 -0.3415  0.0657  0.6105
  943MOL0     C27188   6.328   1.568   6.703 -0.0760 -1.1932  0.4269
  943MOL0     C27189   6.361   1.687   6.767 -0.0145  0.6483 -0.5775
  943MOL0     C27190   6.283   1.751   6.878 -0.4801 -0.5227  0.1094
  943MOL0     C27191   6.215   1.886   6.834 -0.4750  0.1193 -0.4825
  943MOL0     C27192   6.119   1.942   6.943 -0.6031  1.2896 -0.0202
  943MOL0     C27193   6.044   1.850   7.042 -1.4144  1.1053 -0.2786
  943MOL0     O27194   6.120   1.802   7.155 -0.9155  0.3732  0.1404
  943MOL0     C27195   6.186   1.885   7.243 -0.5104  0.7962  0.4537
  943MOL0     C27196   6.171   2.024   7.272  0.8188 -0.2049 -1.1117
  943MOL0     C27197   6.257   2.091   7.365 -0.4020  0.7064  0.3943
  943MOL0     C27198   6.371   2.026   7.416  1.1232 -0.2307 -0.7095
  943MOL0     C27199   6.482   2.096   7.494  1.7598 -0.1618 -0.9329
  943MOL0     O27200   6.605   2.031   7.502  0.6062  0.0244 -0.7695
  943MOL0     C27201   6.698   2.083   7.594  0.3334 -0.1630  0.1303
  943MOL0     C27202   6.808   2.157   7.555 -0.1700 -0.1743  0.7677
  943MOL0     C27203   6.905   2.213   7.635 -0.4200  0.3471 -1.4158
  943MOL0     C27204   6.906   2.184   7.775  0.4305  0.5978 -0.0562
  943MOL0     O27205   6.993   2.233   7.872 -0.2147 -0.3083 -1.0569
  943MOL0     C27206   7.029   2.380   7.854  0.8859 -0.3048  0.3528
  943MOL0     C27207   7.122   2.451   7.956  0.7614 -0.9806  0.3418
  943MOL0     C27208   7.176   2.591   7.914  0.8928 -0.4611  0.6176
  943MOL0     C27209   7.215   2.672   8.035  0.9518  0.1834  0.1218
  943MOL0     C27210   7.356   2.623   8.080  0.3750  0.2871 -0.1451
  943MOL0     C27211   7.390   2.705   8.210 -0.0307 -0.1888  1.1461
  943MOL0     C27212   7.452   2.843   8.179 -0.5558  0.6455  0.0646
  943MOL0     C27213   7.527   2.901   8.304 -0.4022 -0.9509 -0.2158
  943MOL0    Cl27214   7.430   2.997   8.419  0.6929 -0.2480 -0.4044
  943MOL0     C27215   6.798   2.103   7.820  0.4765  0.0479  0.5251
  943MOL0     C27216   6.699   2.042   7.736 -1.2285 -0.4348 -0.7172
  943MOL0     O27217   6.456   2.208   7.546 -0.9441  0.8086 -0.2879
  943MOL0     C27218   6.389   1.893   7.390 -0.0885  0.8499 -0.0016
  943MOL0     C27219   6.294   1.825   7.310 -0.2961  0.3351 -0.5751
  943MOL0     N27220   6.470   1.736   6.703  0.1242 -1.3798 -0.0739
  943MOL0     N27221   6.506   1.667   6.607 -0.5006  0.5103  0.4899
  943MOL0     C27222   6.591   0.981   5.592  0.5054 -0.0091 -0.0579
  943MOL0     C27223   6.704   1.018   5.516  0.6948  0.0451 -0.2939
  943MOL0     C27224   7.094   1.065   5.328  0.1394 -0.0574 -0.4913
  943MOL0     C27225   7.096   1.203   5.318  1.1878  0.4153 -0.8122
  943MOL0     C27226   7.192   1.271   5.253 -0.5755 -1.4745 -0.4506
  943MOL0     C27227   7.298   1.206   5.180  0.9525  0.0824  0.1514
  943MOL0     O27228   7.404   1.260   5.115 -0.0606  0.0337 -0.5880
  943MOL0     C27229   7.451   1.394   5.159  0.3387  0.3390  0.7775
  943MOL0     C27230   7.539   1.451   5.049 -0.0182 -1.2597  0.6868
  943MOL0     C27231   7.604   1.587   5.073  0.8991  0.4859  0.3575
  943MOL0     C27232   7.745   1.573   5.120  0.6951 -0.0992 -0.4574
  943MOL0     C27233   7.745   1.548   5.265 -0.2119  0.3295 -0.0760
  943MOL0     C27234   7.745   1.543   5.387  0.0057  0.7019 -0.2148
  943MOL0     C27235   7.295   1.066   5.187  0.0227  0.6282  0.1247
  943MOL0     C27236   7.201   0.993   5.271  1.2535 -0.1937 -0.0861
  943MOL0     C27237   7.217   0.850   5.280 -1.1586  1.2267 -0.1712
  943MOL0     H27238   6.940   0.985   5.756  0.8190 -0.4436 -1.5565
  943MOL0     H27239   6.755   0.920   5.882  2.2211 -0.0726  0.0390
  943MOL0     H27240   6.520   0.811   5.979 -3.2282 -0.6067  0.1516
  943MOL0     H27241   6.574   0.975   5.972 -0.7981  2.8719 -4.0840
  943MOL0     H27242   6.294   0.864   5.973 -2.0225  2.5182 -1.4533
  943MOL0     H27243   6.301   1.016   5.908  2.2145  0.8520 -0.0716
  943MOL0     H27244   6.419   0.939   6.183 -1.8077 -0.5695 -0.6489
  943MOL0     H27245   6.260   0.990   6.162  1.1270  2.2852  3.2558
  943MOL0     H27246   6.477   1.174   6.076 -0.4968  0.5331  0.0332
  943MOL0     H27247   6.304   1.218   6.080  0.0288  1.6679  1.2136
  943MOL0     H27248   6.300   1.208   6.331  0.3456 -1.3823 -1.6217
  943MOL0     H27249   6.477   1.192   6.335 -0.6328  1.5507  2.0888
  943MOL0     H27250   6.502   1.410   6.237  0.0178 -0.4878  0.5406
  943MOL0     H27251   6.340   1.413   6.186  1.3176  1.7360 -0.3699
  943MOL0     H27252   6.249   1.398   6.412  1.1379 -0.7098 -2.1830
  943MOL0     H27253   6.321   1.547   6.361 -1.5248  0.0312  0.2985
  943MOL0     H27254   6.432   1.349   6.572  1.3250  0.3913  1.4862
  943MOL0     H27255   6.548   1.455   6.487 -0.2592 -1.9326  0.3612
  943MOL0     H27256   6.247   1.497   6.721 -2.2503  1.4509  1.7160
  943MOL0     H27257   6.193   1.695   6.906 -1.4855  2.6838  4.4177
  943MOL0     H27258   6.339   1.767   6.970  0.9073  2.2536 -1.1124
  943MOL0     H27259   6.285   1.967   6.813  0.0605  0.3970  2.0688
  943MOL0     H27260   6.166   1.876   6.737  0.9621  0.5307 -1.2820
  943MOL0     H27261   6.039   1.994   6.889  1.5280  3.4379 -1.2965
  943MOL0     H27262   6.181   2.015   6.996  2.3745 -1.2731  0.3220
  943MOL0     H27263   6.005   1.762   6.990  0.5778  0.5851 -0.9818
  943MOL0     H27264   5.955   1.902   7.078 -0.8165  1.6215  0.5011
  943MOL0     H27265   6.083   2.063   7.222  0.3342  0.6896  0.3744
  943MOL0     H27266   6.251   2.195   7.396 -1.0209  0.5147  0.9318
  943MOL0     H27267   6.836   2.156   7.451  2.8170  1.0148  1.4576
  943MOL0     H27268   6.994   2.263   7.597  0.9329 -0.1255  0.9062
  943MOL0     H27269   7.081   2.409   7.762  1.0015  1.8036  1.0464
  943MOL0     H27270   6.937   2.438   7.840  1.0809 -0.0980 -0.0931
  943MOL0     H27271   7.076   2.475   8.053 -0.4960  0.9735 -0.6724
  943MOL0     H27272   7.212   2.398   7.989  2.4220 -0.4677 -2.9777
  943MOL0     H27273   7.251   2.590   7.836  1.0380 -1.6063  0.7491
  943MOL0     H27274   7.100   2.655   7.868  3.0656  1.2727 -0.7147
  943MOL0     H27275   7.138   2.665   8.112 -1.4089  1.0296 -2.0405
  943MOL0     H27276   7.223   2.779   8.015 -0.0569  0.1772 -0.3503
  943MOL0     H27277   7.425   2.646   7.998  0.2225  0.7295 -0.1516
  943MOL0     H27278   7.358   2.519   8.114 -0.7743  1.0291  2.4099
  943MOL0     H27279   7.301   2.705   8.273 -0.4997 -2.6533  0.5984
  943MOL0     H27280   7.468   2.644   8.258  0.2931  0.1458  1.0512
  943MOL0     H27281   7.379   2.915   8.140 -0.0537  1.3053  0.3343
  943MOL0     H27282   7.525   2.823   8.100  0.3798  1.0727  0.7995
  943MOL0     H27283   7.581   2.828   8.364 -1.3821  0.0238  1.9850
  943MOL0     H27284   7.595   2.976   8.262 -0.7349 -0.5200 -0.0023
  943MOL0     H27285   6.801   2.083   7.927 -3.7320  5.2473  2.0646
  943MOL0     H27286   6.637   1.963   7.778 -0.0006 -1.1270 -0.1633
  943MOL0     H27287   6.473   1.839   7.432  0.3723  1.0147 -0.7106
  943MOL0     H27288   6.297   1.719   7.290 -0.5543  0.5476 -1.8287
  943MOL0     H27289   6.496   0.965   5.543  1.4421 -0.5415 -1.7747
  943MOL0     H27290   6.709   1.052   5.413 -1.1414 -1.2376 -0.8424
  943MOL0     H27291   7.016   1.268   5.352  0.0378 -0.8001 -1.1000
  943MOL0     H27292   7.176   1.378   5.243  1.2971 -1.2617 -1.4825
  943MOL0     H27293   7.501   1.391   5.256  0.1272  0.0099  0.8810
  943MOL0     H27294   7.369   1.465   5.169  0.6617  0.5047  2.5645
  943MOL0     H27295   7.481   1.472   4.959 -2.2726 -0.0751  2.3075
  943MOL0     H27296   7.615   1.380   5.015 -0.7609 -1.4414 -0.6851
  943MOL0     H27297   7.546   1.673   5.110  0.3049  0.7005 -1.0150
  943MOL0     H27298   7.621   1.629   4.974 -2.4053  1.5018  0.1031
  943MOL0     H27299   7.797   1.488   5.076 -0.7608 -2.0272  1.3184
  943MOL0     H27300   7.800   1.664   5.097  0.1517 -0.0155 -1.4660
  943MOL0     H27301   7.739   1.555   5.493 -2.5716 -1.1873 -0.0606
  943MOL0     H27302   7.376   1.009   5.143 -0.4825 -0.3859  0.4862
  943MOL0     H27303   7.138   0.797   5.225 -1.7552 -1.2726  2.7816
  943MOL0     H27304   7.315   0.813   5.247 -0.0252 -0.1685  4.1410
  943MOL0     H27305   7.207   0.825   5.386  6.2666 -1.7376  0.4573
  944MOL0     O27306   2.878   9.928   7.309  0.4827  1.0450 -0.0085
  944MOL0     C27307   2.805   9.923   7.403  0.5120 -1.0969 -0.2009
  944MOL0     O27308   2.829   9.863   7.525  0.8043  0.0853 -0.4416
  944MOL0     C27309   2.934   9.778   7.526 -0.4929 -0.0744 -0.0965
  944MOL0     C27310   3.065   9.816   7.561 -0.0404  1.0745 -0.1699
  944MOL0     C27311   3.178   9.729   7.573  0.6879  0.3853 -0.0468
  944MOL0     C27312   3.155   9.590   7.542 -0.1936 -0.1259  0.5467
  944MOL0     O27313   3.262   9.504   7.530 -0.1470  0.6821 -0.3282
  944MOL0     C27314   3.251   9.366   7.538  0.2010  0.0648 -0.1276
  944MOL0     C27315   3.372   9.302   7.606 -0.6269 -0.3768  0.1232
  944MOL0     C27316   3.380   9.348   7.746 -0.1323 -0.3641  0.2721
  944MOL0     C27317   3.487   9.271   7.829  0.1058  0.4977  0.4706
  944MOL0     C27318   3.510   9.328   7.971  0.7371 -0.5839  0.3177
  944MOL0     C27319   3.642   9.287   8.029  0.4707 -0.5171  0.7419
  944MOL0     C27320   3.771   9.363   7.976  0.8073 -0.2038 -0.2702
  944MOL0     C27321   3.895   9.276   7.982 -0.4644  0.3444  0.9330
  944MOL0     N27322   4.018   9.350   7.971 -0.1099  0.1962  0.6453
  944MOL0     C27323   4.090   9.383   8.086 -0.1475 -0.0766  0.4619
  944MOL0     C27324   4.170   9.485   8.045 -0.3918  0.5844  0.5869
  944MOL0     C27325   4.271   9.562   8.119 -0.1286  0.4576  0.7491
  944MOL0     C27326   4.403   9.571   8.035  0.3582 -0.5048  0.5382
  944MOL0     C27327   4.512   9.638   8.130  0.5048  0.9223  0.7472
  944MOL0     C27328   4.643   9.643   8.053  0.3097 -0.4823 -0.2360
  944MOL0     O27329   4.733   9.723   8.128 -0.2319 -0.4561 -0.2547
  944MOL0     C27330   4.863   9.736   8.090  0.1918  0.6204 -0.1291
  944MOL0     C27331   4.915   9.690   7.967 -0.5930 -0.7346 -1.1048
  944MOL0     C27332   5.051   9.699   7.934  0.6461 -0.0863  0.1027
  944MOL0     C27333   5.147   9.753   8.022  0.1384 -0.4103 -0.4100
  944MOL0     C27334   5.294   9.765   8.000 -0.8307 -0.0900 -0.7118
  944MOL0     O27335   5.374   9.812   8.102  0.1613  0.2289  0.3557
  944MOL0     C27336   5.507   9.817   8.096  0.1390 -0.3356 -0.2467
  944MOL0     C27337   5.553   9.918   8.166 -0.4566  0.0572  0.2325
  944MOL0     C27338   5.687   9.955   8.160  0.5454 -0.3516 -0.3693
  944MOL0     C27339   5.780   9.892   8.084  0.3442  0.5697  0.0003
  944MOL0     O27340   5.920   9.909   8.078  0.8107 -0.7181 -0.3504
  944MOL0     C27341   5.977  10.033   8.121  0.1115  0.4995  1.1114
  944MOL0     C27342   6.016  10.020   8.266 -0.3908 -0.3469 -0.9140
  944MOL0     C27343   6.087  10.152   8.304  0.5627  0.0247 -0.6813
  944MOL0     C27344   5.979  10.266   8.319  0.5687 -0.8080  0.0980
  944MOL0     C27345   6.017  10.361   8.437 -0.1946 -0.6625  0.7964
  944MOL0     C27346   5.899  10.419   8.507 -0.3748  0.4458  0.2807
  944MOL0     C27347   5.941  10.468   8.638  0.3667  0.7688 -0.6588
  944MOL0     C27348   5.825  10.551   8.703  1.0918  0.3753  0.2492
  944MOL0    Cl27349   5.871  10.648   8.851  0.0623  0.2951 -0.0049
  944MOL0     C27350   5.726   9.795   7.996  0.1237  0.8658  0.3126
  944MOL0     C27351   5.589   9.751   8.008  0.5188  1.0977 -0.2325
  944MOL0     O27352   5.328   9.741   7.891  0.1878  1.0696  0.3126
  944MOL0     C27353   5.095   9.784   8.148  0.1220 -0.7548 -0.6276
  944MOL0     C27354   4.958   9.788   8.183  0.8275  0.3997  0.1087
  944MOL0     N27355   4.147   9.517   7.915 -0.0369 -0.0392 -0.1329
  944MOL0     N27356   4.062   9.431   7.874 -0.3357  0.6179  0.1557
  944MOL0     C27357   3.029   9.557   7.488 -0.2991 -0.1236  0.6453
  944MOL0     C27358   2.925   9.648   7.492  0.5157 -0.2014  0.2362
  944MOL0     C27359   2.692  10.017   7.391  0.3718 -0.1272  0.8009
  944MOL0     C27360   2.624  10.028   7.266 -0.1610  0.1907  0.8142
  944MOL0     C27361   2.507  10.104   7.264 -0.2804 -0.1786  0.6799
  944MOL0     C27362   2.455  10.169   7.375 -0.0633  0.3397  0.5741
  944MOL0     O27363   2.342  10.237   7.378 -0.0297 -0.5343 -0.3577
  944MOL0     C27364   2.313  10.337   7.283 -0.9027 -0.4773 -0.3254
  944MOL0     C27365   2.185  10.404   7.301 -0.1617  0.0195  0.5273
  944MOL0     C27366   2.141  10.479   7.176 -0.1670 -0.8166 -0.5067
  944MOL0     C27367   2.206  10.614   7.161 -0.3605  0.7091  0.3839
  944MOL0     C27368   2.136  10.679   7.050  0.8273 -0.8961 -0.0887
  944MOL0     C27369   2.078  10.762   6.974 -0.2851 -0.3569  0.2200
  944MOL0     C27370   2.522  10.167   7.494 -0.7068 -0.0462 -0.3291
  944MOL0     C27371   2.645  10.094   7.507  0.2029 -0.0723 -0.3967
  944MOL0     C27372   2.722  10.090   7.644 -0.1202  1.1174  0.1356
  944MOL0     H27373   3.073   9.921   7.587 -0.3848  0.5704  2.1631
  944MOL0     H27374   3.274   9.770   7.602  0.7462 -0.0161  0.3311
  944MOL0     H27375   3.157   9.344   7.590 -1.0921 -0.0005 -2.3529
  944MOL0     H27376   3.247   9.318   7.440  1.8336 -1.5648  0.5410
  944MOL0     H27377   3.462   9.336   7.554 -0.1103  4.1705  3.4502
  944MOL0     H27378   3.371   9.192   7.608  1.4305 -0.4523 -0.6851
  944MOL0     H27379   3.276   9.338   7.781 -0.4788  0.6444 -0.4316
  944MOL0     H27380   3.412   9.452   7.749 -0.2340 -0.1376 -3.1818
  944MOL0     H27381   3.476   9.162   7.831  0.7777  0.4336  1.2341
  944MOL0     H27382   3.581   9.295   7.779 -0.0842  1.2281  0.4599
  944MOL0     H27383   3.500   9.437   7.975 -0.7212 -0.7178  1.0174
  944MOL0     H27384   3.436   9.284   8.039 -0.9832  0.6644 -0.6667
  944MOL0     H27385   3.629   9.300   8.137 -1.2893 -0.6846  0.5742
  944MOL0     H27386   3.663   9.182   8.009 -2.0480 -0.4956 -2.8967
  944MOL0     H27387   3.773   9.447   8.046 -2.3521 -0.9378  0.8800
  944MOL0     H27388   3.761   9.397   7.872  1.5286 -2.8343 -1.2884
  944MOL0     H27389   3.891   9.223   8.077  2.4060 -1.0078  0.4001
  944MOL0     H27390   3.889   9.200   7.903 -1.8373  1.3773 -0.0133
  944MOL0     H27391   4.085   9.334   8.183 -1.1411 -1.9648 -0.5022
  944MOL0     H27392   4.224   9.656   8.148 -0.3465  0.6741 -0.2516
  944MOL0     H27393   4.288   9.514   8.215 -1.0504  1.0855  1.2457
  944MOL0     H27394   4.433   9.469   8.008  1.0611 -0.1843  0.0882
  944MOL0     H27395   4.385   9.624   7.941 -0.2680 -0.1593  0.8404
  944MOL0     H27396   4.538   9.579   8.219 -0.4017  1.0059  1.0827
  944MOL0     H27397   4.477   9.737   8.161  2.1620  1.5154  0.8304
  944MOL0     H27398   4.623   9.683   7.953 -1.4390  1.5106  0.8348
  944MOL0     H27399   4.684   9.542   8.052 -0.2899 -0.7299  0.2308
  944MOL0     H27400   4.846   9.641   7.899 -4.0920 -0.1248  1.7425
  944MOL0     H27401   5.076   9.661   7.835  0.4341  0.6982 -0.2573
  944MOL0     H27402   5.492   9.993   8.217 -0.4022  0.5866 -0.4612
  944MOL0     H27403   5.717  10.021   8.241 -2.6023 -1.8283  2.2678
  944MOL0     H27404   6.063  10.065   8.062 -1.5896  1.5275 -0.9475
  944MOL0     H27405   5.910  10.116   8.098 -2.6707 -1.9260 -0.1514
  944MOL0     H27406   5.927  10.004   8.328 -0.7291 -0.1099 -1.3375
  944MOL0     H27407   6.077   9.931   8.283 -2.9009 -2.2400 -1.1616
  944MOL0     H27408   6.142  10.126   8.395 -0.7243 -0.5761 -0.0457
  944MOL0     H27409   6.153  10.173   8.220  0.3903  1.6159 -0.4442
  944MOL0     H27410   5.885  10.220   8.348  0.7505 -1.1051  0.2202
  944MOL0     H27411   5.961  10.321   8.226 -2.6028 -1.1196  0.4491
  944MOL0     H27412   6.075  10.445   8.396  0.9361  0.0725  3.6939
  944MOL0     H27413   6.087  10.305   8.500  0.1079  2.3091  3.3108
  944MOL0     H27414   5.861  10.501   8.446 -3.1524 -2.1826 -1.8426
  944MOL0     H27415   5.820  10.344   8.506  0.0713 -0.0352 -0.9829
  944MOL0     H27416   6.028  10.532   8.628  0.7384  0.1694 -1.3677
  944MOL0     H27417   5.970  10.381   8.697  0.2911  0.4435 -1.0947
  944MOL0     H27418   5.779  10.617   8.629 -0.6903 -0.7673  0.2791
  944MOL0     H27419   5.745  10.483   8.734 -0.2584  1.2152 -1.2399
  944MOL0     H27420   5.794   9.728   7.944  0.3778  3.2046 -2.6080
  944MOL0     H27421   5.544   9.667   7.957  1.9077  1.1571 -1.6218
  944MOL0     H27422   5.165   9.822   8.222 -1.7390  0.4702  0.6005
  944MOL0     H27423   4.929   9.827   8.280 -2.2152 -3.2294  0.8695
  944MOL0     H27424   3.025   9.456   7.447  0.8106  0.6220 -1.4553
  944MOL0     H27425   2.826   9.612   7.466  0.3128 -0.6250  1.5224
  944MOL0     H27426   2.660   9.976   7.177 -2.9731 -1.8061  0.7344
  944MOL0     H27427   2.458  10.133   7.171  1.2798  3.6909  0.8607
  944MOL0     H27428   2.320  10.290   7.184 -0.8521 -2.2540  0.4889
  944MOL0     H27429   2.392  10.413   7.292 -0.4450 -1.1170  1.3687
  944MOL0     H27430   2.183  10.470   7.388 -1.1887 -2.3826  2.4443
  944MOL0     H27431   2.117  10.323   7.329 -0.1172  0.1531  1.0460
  944MOL0     H27432   2.036  10.490   7.204  0.4645 -2.3763  2.9484
  944MOL0     H27433   2.158  10.412   7.091  2.9959  0.9816 -1.4527
  944MOL0     H27434   2.186  10.675   7.249  3.0606 -0.7244  2.3254
  944MOL0     H27435   2.312  10.617   7.136 -0.9890 -0.7879 -3.1237
  944MOL0     H27436   2.039  10.833   6.903 -1.0551  0.1027  1.0670
  944MOL0     H27437   2.476  10.217   7.579  0.2527 -2.2725  1.5845
  944MOL0     H27438   2.711   9.997   7.700 -1.7789  1.6234  0.7268
  944MOL0     H27439   2.828  10.117   7.635  0.1321  0.2895  0.5846
  944MOL0     H27440   2.676  10.162   7.713 -0.8239  3.1393 -2.2794
  945MOL0     O27441   3.455   7.982   8.134 -0.1826  0.2719  0.0595
  945MOL0     C27442   3.527   7.920   8.212  0.1016 -0.7384  0.0970
  945MOL0     O27443   3.622   7.977   8.289  0.1637  0.1035 -0.3020
  945MOL0     C27444   3.679   8.092   8.236 -0.4203 -0.5817  0.1133
  945MOL0     C27445   3.701   8.196   8.316 -0.0482 -0.2324  0.0418
  945MOL0     C27446   3.753   8.313   8.260 -0.5564 -0.1041  0.0564
  945MOL0     C27447   3.795   8.319   8.124  0.1467 -0.6828 -0.0472
  945MOL0     O27448   3.869   8.428   8.078  0.5229  0.4688  0.1905
  945MOL0     C27449   3.979   8.461   8.161  0.0258 -0.9989  0.2184
  945MOL0     C27450   4.111   8.416   8.084  0.2922 -0.7491  0.2842
  945MOL0     C27451   4.186   8.541   8.023  0.3834 -0.5756  0.5046
  945MOL0     C27452   4.304   8.493   7.930  0.0427  0.0924 -1.1348
  945MOL0     C27453   4.377   8.605   7.872 -0.6994 -0.3283  1.0995
  945MOL0     C27454   4.409   8.717   7.974  0.0828 -0.6034  0.4750
  945MOL0     C27455   4.528   8.810   7.932 -0.2718 -0.5976  0.1005
  945MOL0     C27456   4.556   8.927   8.034  0.6390 -0.1548 -0.9980
  945MOL0     N27457   4.642   9.046   7.988 -0.1634  0.4797 -0.3048
  945MOL0     C27458   4.613   9.130   7.884 -0.1506  0.7094 -0.6483
  945MOL0     C27459   4.727   9.210   7.879  0.4384  0.5023 -0.1039
  945MOL0     C27460   4.740   9.315   7.774 -0.6325 -0.2731 -0.2067
  945MOL0     C27461   4.874   9.381   7.796  0.3305  0.1308 -0.0919
  945MOL0     C27462   4.990   9.289   7.765 -0.5561  0.3994  0.3073
  945MOL0     C27463   5.120   9.371   7.731 -0.9702 -0.5988 -0.6889
  945MOL0     O27464   5.236   9.283   7.716 -0.2159  0.1450  0.9324
  945MOL0     C27465   5.365   9.343   7.719  1.1590 -0.3282  0.1899
  945MOL0     C27466   5.468   9.254   7.716  0.1536  0.3595 -1.0268
  945MOL0     C27467   5.608   9.304   7.709  0.2250  1.0277  0.3761
  945MOL0     C27468   5.625   9.441   7.693 -0.5693 -0.7054 -0.6020
  945MOL0     C27469   5.762   9.499   7.681 -0.3411  0.1527 -0.0773
  945MOL0     O27470   5.777   9.637   7.666  0.0082  0.0150  0.2853
  945MOL0     C27471   5.904   9.694   7.646  0.6030 -0.1676 -0.2662
  945MOL0     C27472   5.901   9.830   7.663 -0.0531  0.5438  0.5026
  945MOL0     C27473   6.014   9.910   7.667 -0.2485 -0.6869  1.0072
  945MOL0     C27474   6.137   9.855   7.639  0.1598 -0.0788  0.3905
  945MOL0     O27475   6.252   9.926   7.626 -0.2947  0.8240 -0.1296
  945MOL0     C27476   6.260  10.012   7.517  0.1386  0.0864  0.3293
  945MOL0     C27477   6.398  10.081   7.498  0.1346  0.0500 -0.1368
  945MOL0     C27478   6.398  10.202   7.402 -1.1065  0.2331 -1.0637
  945MOL0     C27479   6.528  10.292   7.440  0.2390  0.8257  0.2330
  945MOL0     C27480   6.492  10.425   7.528 -0.5984  0.2467  1.2444
  945MOL0     C27481   6.617  10.520   7.537  0.5028 -0.2590 -0.4092
  945MOL0     C27482   6.579  10.650   7.613  1.3118 -0.5532 -0.6155
  945MOL0     C27483   6.531  10.621   7.751 -0.6198  0.0899  0.7906
  945MOL0    Cl27484   6.586  10.744   7.864  0.3615  0.1117  0.2226
  945MOL0     C27485   6.143   9.720   7.621 -0.3619 -0.1286  0.3163
  945MOL0     C27486   6.028   9.638   7.617 -0.1848 -1.1438 -0.4505
  945MOL0     O27487   5.853   9.409   7.681 -0.1683  0.0776 -0.4946
  945MOL0     C27488   5.521   9.526   7.691 -0.1835  0.1052  0.2598
  945MOL0     C27489   5.390   9.479   7.703  0.7397  0.1034 -0.2091
  945MOL0     N27490   4.808   9.176   7.982 -0.0713  0.8338  0.1895
  945MOL0     N27491   4.765   9.076   8.047  0.5796 -0.0635 -0.3093
  945MOL0     C27492   3.770   8.214   8.036 -0.2735 -0.3320 -0.2718
  945MOL0     C27493   3.719   8.099   8.094  0.2051  0.4190 -0.9795
  945MOL0     C27494   3.502   7.767   8.228  0.3178 -0.6346  1.8235
  945MOL0     C27495   3.584   7.699   8.306 -0.7510  0.0823 -0.3362
  945MOL0     C27496   3.567   7.563   8.338  0.4837  0.0074 -0.4012
  945MOL0     C27497   3.466   7.483   8.275  0.4004 -0.0294  0.2909
  945MOL0     O27498   3.459   7.349   8.302  0.2218 -0.3633  0.4266
  945MOL0     C27499   3.354   7.267   8.246  0.3453 -0.7114  0.4987
  945MOL0     C27500   3.378   7.125   8.293 -0.2197 -0.7150 -0.6847
  945MOL0     C27501   3.482   7.064   8.210 -0.9038 -0.0056  0.1251
  945MOL0     C27502   3.514   6.914   8.266  0.7107 -0.8111 -0.1473
  945MOL0     C27503   3.622   6.849   8.194  0.4307  0.0829  0.8870
  945MOL0     C27504   3.703   6.784   8.123  0.4367  0.2078 -0.8764
  945MOL0     C27505   3.370   7.552   8.204 -0.7361 -0.1945  0.3504
  945MOL0     C27506   3.395   7.695   8.167  0.4502 -0.6042  1.1346
  945MOL0     C27507   3.287   7.751   8.075 -0.5038  0.1368  0.6806
  945MOL0     H27508   3.668   8.184   8.418  1.2937 -0.6625  0.4469
  945MOL0     H27509   3.768   8.392   8.333 -0.2098  0.6921 -0.8526
  945MOL0     H27510   3.965   8.564   8.195  0.0801 -1.6131  2.2266
  945MOL0     H27511   3.982   8.404   8.254 -0.3454  1.1622  1.6405
  945MOL0     H27512   4.084   8.352   8.000 -0.3571 -2.5680  1.8003
  945MOL0     H27513   4.180   8.345   8.131  2.2265 -1.9784 -3.8714
  945MOL0     H27514   4.213   8.593   8.115 -0.4641 -1.0661  1.0517
  945MOL0     H27515   4.107   8.595   7.971  0.1754  0.2271  1.6261
  945MOL0     H27516   4.368   8.435   7.997 -4.4055 -0.4913  3.1998
  945MOL0     H27517   4.256   8.431   7.854 -1.0330 -0.0702 -0.3604
  945MOL0     H27518   4.469   8.561   7.830  0.7196  0.6360  3.0388
  945MOL0     H27519   4.315   8.652   7.795  0.7452 -1.0716 -0.6108
  945MOL0     H27520   4.324   8.785   7.982  0.9544  0.5273  0.4744
  945MOL0     H27521   4.432   8.678   8.074  0.8282 -3.2261 -0.6328
  945MOL0     H27522   4.506   8.856   7.836  0.5693 -1.7672 -0.6778
  945MOL0     H27523   4.620   8.751   7.921 -2.1248 -3.6852  0.0637
  945MOL0     H27524   4.472   8.970   8.089  1.7580 -0.4178  1.0262
  945MOL0     H27525   4.599   8.868   8.116 -1.8600 -0.6209  0.0686
  945MOL0     H27526   4.514   9.134   7.840 -0.9143  2.1945  1.0826
  945MOL0     H27527   4.756   9.271   7.674  1.0034 -1.2022  0.4183
  945MOL0     H27528   4.659   9.388   7.768  2.9979  4.0513 -2.5087
  945MOL0     H27529   4.886   9.472   7.736  0.0945 -0.4032 -0.9788
  945MOL0     H27530   4.892   9.409   7.900  1.9278 -1.1322  0.0143
  945MOL0     H27531   4.975   9.225   7.678  2.5463 -0.5856  0.3666
  945MOL0     H27532   5.028   9.219   7.841  2.0894 -0.8908 -2.0035
  945MOL0     H27533   5.134   9.438   7.816  1.1217 -0.3420 -1.1710
  945MOL0     H27534   5.117   9.422   7.635  0.7810 -0.6204 -0.7975
  945MOL0     H27535   5.440   9.151   7.729  1.9982  0.1936  2.9113
  945MOL0     H27536   5.690   9.233   7.719  0.5749  1.2011 -1.0526
  945MOL0     H27537   5.803   9.874   7.673  0.7675  2.3207  1.1030
  945MOL0     H27538   6.021  10.016   7.690  3.2457 -0.2447 -1.2651
  945MOL0     H27539   6.233   9.959   7.425 -0.1913  2.4524 -1.0053
  945MOL0     H27540   6.186  10.093   7.521  2.5476  2.3690  0.9041
  945MOL0     H27541   6.433  10.105   7.599  0.0289 -0.2458 -0.0279
  945MOL0     H27542   6.482  10.024   7.458  0.4322 -0.2700  0.9128
  945MOL0     H27543   6.413  10.147   7.309 -0.4797 -4.3350  1.4359
  945MOL0     H27544   6.308  10.264   7.394 -2.1133 -1.1410 -0.7799
  945MOL0     H27545   6.565  10.320   7.341 -0.6275 -1.9737 -0.9833
  945MOL0     H27546   6.598  10.235   7.501 -0.7964  0.1010  0.7903
  945MOL0     H27547   6.463  10.388   7.626  2.1141 -0.6013  1.8270
  945MOL0     H27548   6.410  10.482   7.484  0.5363  0.0807 -1.3077
  945MOL0     H27549   6.708  10.467   7.566 -0.0452 -2.7118 -2.6915
  945MOL0     H27550   6.636  10.555   7.435 -0.7938 -0.1095 -0.6259
  945MOL0     H27551   6.495  10.699   7.563 -0.8672 -0.8340  2.5142
  945MOL0     H27552   6.668  10.714   7.605 -0.2639  1.5884 -2.2153
  945MOL0     H27553   6.425  10.599   7.765 -0.6444 -0.1726  0.2337
  945MOL0     H27554   6.587  10.532   7.780  0.5565  1.2175  2.1867
  945MOL0     H27555   6.241   9.677   7.612 -0.3993 -0.3665  0.9689
  945MOL0     H27556   6.049   9.533   7.600  5.2036 -0.1848 -1.5446
  945MOL0     H27557   5.536   9.632   7.706  0.1618  0.0758  0.1170
  945MOL0     H27558   5.314   9.556   7.710  2.2785  1.6573  0.3815
  945MOL0     H27559   3.791   8.208   7.930  4.7625  3.1553  0.1648
  945MOL0     H27560   3.700   8.020   8.021 -2.0784 -0.1803  0.1690
  945MOL0     H27561   3.671   7.751   8.347 -2.8457  2.1338  1.8313
  945MOL0     H27562   3.636   7.509   8.402  2.2830  1.8126 -0.7033
  945MOL0     H27563   3.345   7.261   8.137 -0.0896  1.6288  0.3398
  945MOL0     H27564   3.263   7.314   8.285 -1.4368 -0.6237 -3.3350
  945MOL0     H27565   3.287   7.067   8.273 -0.1085 -0.9318 -0.5633
  945MOL0     H27566   3.399   7.124   8.400  0.3469 -2.1771 -0.7938
  945MOL0     H27567   3.577   7.119   8.208 -1.7986  1.7742  2.3131
  945MOL0     H27568   3.453   7.063   8.105  2.0480  1.2432 -0.7975
  945MOL0     H27569   3.543   6.919   8.371 -0.3767  1.5538  0.1024
  945MOL0     H27570   3.429   6.846   8.262  0.8181 -0.9472 -0.1482
  945MOL0     H27571   3.777   6.734   8.064  5.0030  3.6711  1.2819
  945MOL0     H27572   3.281   7.501   8.170 -1.4985  1.0374  0.4419
  945MOL0     H27573   3.247   7.674   8.008 -0.6592 -0.2444  1.2080
  945MOL0     H27574   3.211   7.798   8.137 -0.0495 -0.3106  1.5903
  945MOL0     H27575   3.331   7.821   8.003  2.7232 -0.9176  1.4646
  946MOL0     O27576   5.799   2.865   5.345  0.1435 -0.3818 -0.0986
  946MOL0     C27577   5.862   2.763   5.332  0.5743  1.2832  0.8721
  946MOL0     O27578   5.978   2.730   5.388 -0.3386 -0.8346  0.0901
  946MOL0     C27579   6.047   2.827   5.461  0.1570 -0.0353  0.8470
  946MOL0     C27580   5.996   2.923   5.557  0.5530 -0.7124 -0.6181
  946MOL0     C27581   6.081   3.010   5.622  0.3462  0.1734  0.2167
  946MOL0     C27582   6.225   2.996   5.601 -0.1045  0.3663  0.5994
  946MOL0     O27583   6.312   3.078   5.660 -0.1110  0.4659  0.1449
  946MOL0     C27584   6.455   3.054   5.643  0.2386  0.1763  0.2331
  946MOL0     C27585   6.537   3.144   5.741  0.5654  0.1629 -0.2356
  946MOL0     C27586   6.534   3.286   5.686 -0.7715 -0.5908 -0.4602
  946MOL0     C27587   6.640   3.374   5.757  0.3851 -0.3819 -0.4163
  946MOL0     C27588   6.648   3.521   5.714 -0.7480 -0.2476  0.3169
  946MOL0     C27589   6.523   3.608   5.760 -1.1133  0.1296  0.4196
  946MOL0     C27590   6.509   3.737   5.690 -1.0974  0.2586  0.5100
  946MOL0     C27591   6.371   3.813   5.678 -0.5014  0.3664  0.2669
  946MOL0     N27592   6.387   3.939   5.599 -1.1853  0.4956 -0.7618
  946MOL0     C27593   6.356   3.961   5.468 -0.9647 -0.2644  0.0349
  946MOL0     C27594   6.376   4.096   5.444 -0.6220  0.2430 -1.0739
  946MOL0     C27595   6.368   4.164   5.315 -0.4124  0.5719  0.0058
  946MOL0     C27596   6.229   4.193   5.280  1.0199 -0.7132  0.0459
  946MOL0     C27597   6.221   4.208   5.128 -0.4848  0.3609 -0.1666
  946MOL0     C27598   6.072   4.235   5.084 -0.8500  0.4102 -0.3676
  946MOL0     O27599   6.077   4.219   4.936  0.4006  0.9640 -0.1812
  946MOL0     C27600   5.983   4.136   4.881  0.0072  0.8405 -0.0200
  946MOL0     C27601   5.950   4.011   4.936  0.5039  0.2167  0.3140
  946MOL0     C27602   5.849   3.942   4.882  0.7813  0.3419  1.3138
  946MOL0     C27603   5.791   3.982   4.756  0.0957 -0.5827 -0.6021
  946MOL0     C27604   5.697   3.896   4.689  0.3028 -0.2801 -0.3330
  946MOL0     O27605   5.678   3.767   4.734 -0.3080  0.2238  0.2113
  946MOL0     C27606   5.572   3.702   4.681 -0.1900  0.3651  0.1882
  946MOL0     C27607   5.568   3.668   4.550  0.1894 -0.2489  0.4068
  946MOL0     C27608   5.463   3.592   4.498  0.0327 -0.3152 -0.2497
  946MOL0     C27609   5.357   3.553   4.579  1.1234  0.4709 -0.6778
  946MOL0     O27610   5.270   3.460   4.512  0.5717  0.7737 -0.3113
  946MOL0     C27611   5.139   3.466   4.566  1.3803  0.3805 -0.5132
  946MOL0     C27612   5.037   3.372   4.495  0.1216  0.0214  0.9418
  946MOL0     C27613   4.894   3.378   4.553 -0.8799  0.2505  0.7494
  946MOL0     C27614   4.806   3.264   4.490 -0.0035 -0.8010  0.7959
  946MOL0     C27615   4.786   3.262   4.335 -0.0529  0.2374  0.1571
  946MOL0     C27616   4.659   3.200   4.294  0.0055  0.8514 -0.3488
  946MOL0     C27617   4.643   3.050   4.295  0.0700  0.0712  0.4492
  946MOL0     C27618   4.740   2.968   4.205 -0.6944 -0.1125 -0.5392
  946MOL0    Cl27619   4.734   2.986   4.028 -0.1881 -0.1775  0.6804
  946MOL0     C27620   5.363   3.575   4.719 -0.3193 -0.2768  0.2381
  946MOL0     C27621   5.469   3.661   4.766 -0.0675  0.1088 -0.5898
  946MOL0     O27622   5.633   3.947   4.599  0.6981  0.0124 -0.1951
  946MOL0     C27623   5.828   4.101   4.693 -0.5506  0.6487 -0.6294
  946MOL0     C27624   5.930   4.175   4.753 -0.7935 -1.1020 -0.4131
  946MOL0     N27625   6.424   4.160   5.565 -0.4789  0.0454  0.1691
  946MOL0     N27626   6.433   4.064   5.657 -0.3704  0.5208 -0.5201
  946MOL0     C27627   6.273   2.895   5.507  0.3710 -0.0305 -0.7078
  946MOL0     C27628   6.178   2.814   5.438 -0.4640  0.3518 -1.2047
  946MOL0     C27629   5.785   2.649   5.270 -0.9024  0.0223  0.8753
  946MOL0     C27630   5.708   2.575   5.347  0.9852  0.2093 -0.6723
  946MOL0     C27631   5.639   2.457   5.301 -0.6529 -0.0826  0.9907
  946MOL0     C27632   5.631   2.429   5.164  0.5093  0.8908  0.6890
  946MOL0     O27633   5.559   2.317   5.122  0.4797 -0.4937  0.0664
  946MOL0     C27634   5.535   2.279   4.983 -0.0464 -0.3536 -0.3336
  946MOL0     C27635   5.656   2.205   4.924 -0.5963  0.1657 -0.5950
  946MOL0     C27636   5.678   2.062   4.977  0.7925  0.5350  0.1636
  946MOL0     C27637   5.706   2.041   5.128  0.5672 -0.0073 -0.6183
  946MOL0     C27638   5.744   1.900   5.139 -0.2444  0.1911  0.0045
  946MOL0     C27639   5.782   1.786   5.150 -1.3338  0.2746 -0.0521
  946MOL0     C27640   5.708   2.509   5.081 -0.2388 -0.2475 -0.2445
  946MOL0     C27641   5.774   2.622   5.132  1.1225 -0.8900 -0.6048
  946MOL0     C27642   5.859   2.702   5.038 -0.4788 -0.6469 -0.2783
  946MOL0     H27643   5.895   2.927   5.597  1.5401 -0.3305  2.0648
  946MOL0     H27644   6.042   3.085   5.690  2.1473 -0.3227  1.9191
  946MOL0     H27645   6.469   2.950   5.673  1.9334  0.4924  0.6653
  946MOL0     H27646   6.490   3.071   5.540 -4.7365 -1.0487 -1.9495
  946MOL0     H27647   6.640   3.110   5.753  0.2550 -0.6924  0.0213
  946MOL0     H27648   6.486   3.138   5.837 -0.8435 -0.1106 -0.9707
  946MOL0     H27649   6.430   3.319   5.698 -0.3564  0.5455  0.2033
  946MOL0     H27650   6.560   3.279   5.580  0.9475  2.5464 -0.3775
  946MOL0     H27651   6.626   3.375   5.865  1.9146 -0.2046 -0.2006
  946MOL0     H27652   6.738   3.333   5.733  1.6239  1.7449  0.7245
  946MOL0     H27653   6.728   3.581   5.759  0.4447 -0.0414 -1.9477
  946MOL0     H27654   6.668   3.532   5.607  0.0259 -0.0502  0.4735
  946MOL0     H27655   6.432   3.552   5.735  2.0676 -3.8434 -4.0803
  946MOL0     H27656   6.542   3.631   5.865  4.0919  0.7571 -0.3900
  946MOL0     H27657   6.519   3.698   5.588  3.8968  2.4283 -0.1199
  946MOL0     H27658   6.583   3.816   5.705 -0.1794  0.1722 -2.7373
  946MOL0     H27659   6.293   3.747   5.637 -0.0644  0.0942 -0.1280
  946MOL0     H27660   6.348   3.841   5.782  2.7664 -2.2439  1.8688
  946MOL0     H27661   6.338   3.889   5.389  0.3601  0.3797 -0.9012
  946MOL0     H27662   6.419   4.261   5.322 -0.6942  0.6426  1.2755
  946MOL0     H27663   6.408   4.100   5.236 -2.7317  0.7160 -1.3493
  946MOL0     H27664   6.155   4.123   5.320  0.4145 -0.5171 -0.7132
  946MOL0     H27665   6.195   4.285   5.329  1.5819 -0.6684  0.3512
  946MOL0     H27666   6.257   4.122   5.072 -0.6263 -0.7443  1.3862
  946MOL0     H27667   6.287   4.293   5.106 -0.4934  1.0220  2.0929
  946MOL0     H27668   6.054   4.339   5.112 -2.2927 -0.5294  2.6522
  946MOL0     H27669   5.988   4.182   5.130 -0.9066 -0.5225 -1.4915
  946MOL0     H27670   6.009   3.966   5.015  1.1753 -2.3607 -1.5088
  946MOL0     H27671   5.818   3.848   4.927  2.5173 -1.1146 -0.3384
  946MOL0     H27672   5.652   3.695   4.486  1.5850  0.4024  2.4245
  946MOL0     H27673   5.463   3.565   4.393  0.8223 -0.0933 -0.3099
  946MOL0     H27674   5.141   3.446   4.674  1.2875 -1.7349 -0.8693
  946MOL0     H27675   5.102   3.568   4.554  0.2284  0.2701  1.6718
  946MOL0     H27676   5.026   3.396   4.388  0.9135 -1.4112  0.5149
  946MOL0     H27677   5.080   3.272   4.497  0.7659  0.2593 -0.2055
  946MOL0     H27678   4.893   3.384   4.662 -2.6515  0.7142  0.7322
  946MOL0     H27679   4.842   3.469   4.522  0.9113  1.6028  1.5507
  946MOL0     H27680   4.709   3.276   4.541 -2.1622 -0.3784 -3.0202
  946MOL0     H27681   4.844   3.166   4.518 -0.4392 -1.6213 -1.3023
  946MOL0     H27682   4.869   3.221   4.276  0.3636  1.6902 -0.3154
  946MOL0     H27683   4.781   3.366   4.299  2.6455  0.6797  0.8061
  946MOL0     H27684   4.588   3.238   4.368 -1.4864 -0.4487 -1.0679
  946MOL0     H27685   4.624   3.245   4.201 -0.7549 -0.7476 -0.8645
  946MOL0     H27686   4.542   3.027   4.260  0.5919  1.1200 -1.9305
  946MOL0     H27687   4.658   3.009   4.395  4.3861 -1.6255 -0.6618
  946MOL0     H27688   4.842   2.980   4.242  0.7728 -2.2664 -3.4108
  946MOL0     H27689   4.726   2.861   4.221  0.9751 -0.8731 -3.4539
  946MOL0     H27690   5.294   3.536   4.793 -0.5792 -1.5156 -0.6336
  946MOL0     H27691   5.471   3.693   4.870 -0.1609  1.2736 -0.9371
  946MOL0     H27692   5.770   4.136   4.608 -3.1258 -4.3189 -1.2921
  946MOL0     H27693   5.973   4.257   4.697  0.0383  0.1034  1.8409
  946MOL0     H27694   6.379   2.872   5.497  0.7628  0.5065  1.6475
  946MOL0     H27695   6.211   2.732   5.375  1.5643 -0.1504  0.4041
  946MOL0     H27696   5.704   2.590   5.455 -4.4888 -0.8709 -0.4305
  946MOL0     H27697   5.576   2.410   5.376 -0.8110  0.3729  1.1464
  946MOL0     H27698   5.524   2.370   4.922  3.0875  0.2855 -0.1440
  946MOL0     H27699   5.446   2.216   4.984 -0.7055  0.5437  1.8329
  946MOL0     H27700   5.750   2.261   4.935 -1.0825  0.6230  1.8735
  946MOL0     H27701   5.643   2.199   4.816 -0.7083 -1.0196 -0.5250
  946MOL0     H27702   5.754   2.011   4.917  3.1334  1.9686  1.7541
  946MOL0     H27703   5.585   2.010   4.952  0.1489  1.0317  1.4637
  946MOL0     H27704   5.780   2.114   5.161 -0.8888  0.5756  1.4949
  946MOL0     H27705   5.619   2.051   5.192 -0.5601 -3.4856 -1.3562
  946MOL0     H27706   5.821   1.691   5.177 -1.1396  0.3832  0.0532
  946MOL0     H27707   5.718   2.487   4.976 -0.4791  0.7336 -0.4794
  946MOL0     H27708   5.819   2.803   5.036  0.9021 -0.0046  1.8275
  946MOL0     H27709   5.963   2.708   5.072 -0.2935  1.6668 -1.0924
  946MOL0     H27710   5.854   2.667   4.934  0.9149  1.9311 -1.3043
  947MOL0     O27711   8.417   1.194   0.184  0.2880 -0.0390 -0.1040
  947MOL0     C27712   8.411   1.259   0.287 -0.1757  1.1941  0.7765
  947MOL0     O27713   8.509   1.345   0.328 -0.0495  0.1259  1.0395
  947MOL0     C27714   8.623   1.345   0.267  0.6828 -0.4869 -0.4187
  947MOL0     C27715   8.657   1.390   0.142  0.2282 -1.2318 -0.5813
  947MOL0     C27716   8.788   1.400   0.093  0.4957  0.0342 -0.2122
  947MOL0     C27717   8.891   1.360   0.171  0.7472 -0.1171  0.4816
  947MOL0     O27718   9.018   1.390   0.139  0.2168  0.2989  0.3288
  947MOL0     C27719   9.040   1.524   0.093  0.4959  0.1318  0.4894
  947MOL0     C27720   9.178   1.583   0.116 -0.1682  0.1299  0.6896
  947MOL0     C27721   9.268   1.515   0.018 -0.5088  0.1159 -0.6892
  947MOL0     C27722   9.415   1.515   0.062 -0.2233  1.2831  0.0731
  947MOL0     C27723   9.506   1.481  -0.058 -0.2507  0.6743 -0.4754
  947MOL0     C27724   9.656   1.521  -0.039 -0.3437 -0.7885  0.6443
  947MOL0     C27725   9.690   1.675  -0.040  0.9711 -0.0430 -0.2519
  947MOL0     C27726   9.630   1.755  -0.157  0.1841  0.0411 -0.4816
  947MOL0     N27727   9.666   1.707  -0.284 -0.3597 -0.3488  0.0053
  947MOL0     C27728   9.580   1.643  -0.364 -0.5685  0.2077 -0.4103
  947MOL0     C27729   9.655   1.595  -0.469  0.7641  0.1224 -0.7726
  947MOL0     C27730   9.608   1.533  -0.605  0.1692 -0.7933 -0.2498
  947MOL0     C27731   9.457   1.498  -0.615  0.4719  0.3262 -0.1193
  947MOL0     C27732   9.422   1.386  -0.515  0.3974  0.3873 -0.2116
  947MOL0     C27733   9.269   1.374  -0.488 -0.1162  0.0481 -0.7507
  947MOL0     O27734   9.208   1.482  -0.417  0.1700  0.3070  0.4191
  947MOL0     C27735   9.078   1.504  -0.414 -0.4686  0.2309 -0.0136
  947MOL0     C27736   9.048   1.605  -0.320 -0.8043  1.0064  0.0264
  947MOL0     C27737   8.918   1.625  -0.276  0.0903  0.0876 -0.3057
  947MOL0     C27738   8.807   1.559  -0.342 -0.4434  0.1778 -0.7593
  947MOL0     C27739   8.671   1.573  -0.291  0.0837  0.8244 -0.3059
  947MOL0     O27740   8.568   1.503  -0.355  0.3020 -0.4222  0.2049
  947MOL0     C27741   8.445   1.492  -0.293 -0.4096 -0.0517 -0.0829
  947MOL0     C27742   8.342   1.592  -0.318 -1.1115  1.1509  0.1829
  947MOL0     C27743   8.220   1.573  -0.247  0.3057 -0.0831 -0.7555
  947MOL0     C27744   8.190   1.459  -0.161 -0.4850 -0.5173  0.6781
  947MOL0     O27745   8.059   1.452  -0.102  0.2215 -0.1272 -0.0704
  947MOL0     C27746   8.043   1.406   0.034  0.1928 -0.2992  0.5742
  947MOL0     C27747   7.908   1.478   0.087  0.0578  0.8666  0.0574
  947MOL0     C27748   7.927   1.608   0.153  0.3780 -0.0681 -0.3410
  947MOL0     C27749   7.936   1.606   0.309 -0.7561  0.6963 -0.8006
  947MOL0     C27750   8.072   1.577   0.384  0.8007 -0.3413 -0.3761
  947MOL0     C27751   8.182   1.679   0.353  0.5225 -0.4087  0.3752
  947MOL0     C27752   8.286   1.669   0.463 -0.6736 -0.1309  0.9557
  947MOL0     C27753   8.419   1.757   0.463  0.4329  0.3978  0.9219
  947MOL0    Cl27754   8.365   1.928   0.441  0.5737  0.1373  0.3605
  947MOL0     C27755   8.299   1.372  -0.128 -0.5745 -0.5046 -0.9962
  947MOL0     C27756   8.413   1.385  -0.200  0.1818 -0.3582  0.4961
  947MOL0     O27757   8.647   1.650  -0.199  0.2929  0.0728 -0.7061
  947MOL0     C27758   8.836   1.469  -0.447 -0.2831  0.6940 -0.9277
  947MOL0     C27759   8.970   1.444  -0.477  0.5523  0.5136 -0.4390
  947MOL0     N27760   9.784   1.629  -0.427  0.4903  0.0002  0.3795
  947MOL0     N27761   9.791   1.708  -0.323 -0.2188  0.4518  0.4568
  947MOL0     C27762   8.859   1.300   0.295 -0.4367 -1.0555 -0.3330
  947MOL0     C27763   8.725   1.285   0.347 -0.6798 -0.0575 -0.1301
  947MOL0     C27764   8.303   1.229   0.385 -0.9298  0.3931  0.5978
  947MOL0     C27765   8.313   1.286   0.515  0.2540 -0.1260  0.3189
  947MOL0     C27766   8.214   1.269   0.613  0.6285 -0.0237  0.2979
  947MOL0     C27767   8.098   1.193   0.583  0.1579 -0.4897  0.3286
  947MOL0     O27768   7.982   1.183   0.658  1.0039 -0.3037 -0.3750
  947MOL0     C27769   7.968   1.261   0.777 -0.4070 -0.6357 -0.8736
  947MOL0     C27770   7.831   1.239   0.839  0.1961  0.4356  0.5753
  947MOL0     C27771   7.816   1.091   0.879 -0.1989  0.4943  0.4541
  947MOL0     C27772   7.679   1.057   0.940  0.1095 -0.7720 -0.2563
  947MOL0     C27773   7.636   0.923   0.954  0.7624  0.9771 -0.5465
  947MOL0     C27774   7.609   0.804   0.969 -0.3607 -0.0424  1.0493
  947MOL0     C27775   8.092   1.131   0.460 -0.5194 -0.5015  0.5010
  947MOL0     C27776   8.191   1.145   0.362  0.7197 -0.0619  0.2803
  947MOL0     C27777   8.168   1.067   0.232  0.3199 -0.0371 -0.4595
  947MOL0     H27778   8.580   1.443   0.086 -0.7364  2.1294  3.4064
  947MOL0     H27779   8.805   1.443  -0.005 -1.0756  0.7824 -0.1895
  947MOL0     H27780   9.017   1.532  -0.014  1.0384  0.4248  0.3905
  947MOL0     H27781   8.970   1.584   0.152  0.8135  0.6860  0.3155
  947MOL0     H27782   9.204   1.577   0.222  1.5166  0.3855  0.3268
  947MOL0     H27783   9.180   1.688   0.087 -0.9241 -0.0101  0.1045
  947MOL0     H27784   9.252   1.561  -0.080  0.1588 -0.5134 -1.1081
  947MOL0     H27785   9.237   1.410   0.012 -3.1925  0.8463 -0.8570
  947MOL0     H27786   9.450   1.611   0.100  1.4743 -0.7432  4.2433
  947MOL0     H27787   9.428   1.440   0.141  3.4860 -1.4797 -2.7573
  947MOL0     H27788   9.509   1.376  -0.088  2.4299  0.6146 -0.2504
  947MOL0     H27789   9.463   1.532  -0.145 -0.3794 -2.3752 -2.3142
  947MOL0     H27790   9.691   1.472   0.053 -3.2776  1.9119  3.4561
  947MOL0     H27791   9.716   1.474  -0.117 -0.0554  0.7585 -0.1031
  947MOL0     H27792   9.799   1.679  -0.048  0.9861  0.6793  0.3469
  947MOL0     H27793   9.668   1.720   0.057 -2.1326  2.1699 -1.8289
  947MOL0     H27794   9.521   1.766  -0.155  0.0283 -1.1210 -1.5243
  947MOL0     H27795   9.665   1.856  -0.137  0.8305 -0.7506  3.1983
  947MOL0     H27796   9.476   1.619  -0.345 -0.2356  0.3498  1.9723
  947MOL0     H27797   9.622   1.601  -0.689  0.8796 -1.2665 -0.5223
  947MOL0     H27798   9.675   1.448  -0.623  0.7323 -0.7780  1.5751
  947MOL0     H27799   9.387   1.578  -0.591 -1.0997 -0.9298 -0.3489
  947MOL0     H27800   9.431   1.468  -0.717  0.1504  1.2853 -0.3265
  947MOL0     H27801   9.477   1.404  -0.422 -0.6853 -1.4083  0.8183
  947MOL0     H27802   9.455   1.292  -0.559 -1.9758 -1.1858  1.1463
  947MOL0     H27803   9.256   1.287  -0.425 -0.5799  0.4180 -0.3283
  947MOL0     H27804   9.224   1.350  -0.585  0.2764  1.0920 -1.2119
  947MOL0     H27805   9.124   1.664  -0.269 -1.6298  0.3549  2.0743
  947MOL0     H27806   8.899   1.695  -0.196 -1.1429 -1.2623  0.6409
  947MOL0     H27807   8.358   1.686  -0.372 -2.7902  2.1542  1.3561
  947MOL0     H27808   8.135   1.641  -0.253  0.5317  0.1409 -1.5926
  947MOL0     H27809   8.043   1.297   0.036  0.7783 -0.3131  0.1887
  947MOL0     H27810   8.133   1.439   0.088  0.1978  3.5049 -1.3910
  947MOL0     H27811   7.854   1.496  -0.006  0.7700 -0.6497 -0.6887
  947MOL0     H27812   7.859   1.408   0.154  0.5331 -0.2728 -0.7525
  947MOL0     H27813   8.014   1.665   0.117 -0.2639  0.6895 -0.7234
  947MOL0     H27814   7.842   1.667   0.118  0.8109  0.6372 -0.2425
  947MOL0     H27815   7.861   1.538   0.349  3.6583 -3.5630  1.2356
  947MOL0     H27816   7.912   1.709   0.339 -0.5467  0.1436  1.4642
  947MOL0     H27817   8.106   1.475   0.365 -2.0757 -1.0312 -2.6252
  947MOL0     H27818   8.045   1.589   0.489 -2.6852  1.7290 -1.3522
  947MOL0     H27819   8.214   1.658   0.250  0.2197  1.6667 -0.1806
  947MOL0     H27820   8.145   1.782   0.354  2.6149  0.3760  1.5513
  947MOL0     H27821   8.320   1.565   0.462  0.6650  0.2821  1.3750
  947MOL0     H27822   8.235   1.686   0.558 -2.1924 -2.5481  0.6505
  947MOL0     H27823   8.473   1.753   0.558  0.1576 -1.9950  1.0502
  947MOL0     H27824   8.495   1.720   0.393 -0.0053 -0.7618  1.0238
  947MOL0     H27825   8.284   1.290  -0.059 -1.8372 -0.4600 -1.1803
  947MOL0     H27826   8.493   1.315  -0.181  1.7945  1.1815 -0.3926
  947MOL0     H27827   8.758   1.420  -0.505 -1.2638  1.7387 -0.5380
  947MOL0     H27828   8.978   1.376  -0.561  3.5678  1.3751 -0.9869
  947MOL0     H27829   8.944   1.262   0.350 -0.7603  1.1617  1.8689
  947MOL0     H27830   8.703   1.231   0.438  2.4249  0.4445  1.0617
  947MOL0     H27831   8.402   1.345   0.533  0.4764  0.8559 -3.2396
  947MOL0     H27832   8.212   1.310   0.713  0.4077 -1.4696  0.9064
  947MOL0     H27833   7.980   1.367   0.752  3.3147 -0.4896  0.9261
  947MOL0     H27834   8.053   1.241   0.843  2.0201  2.3821 -2.7614
  947MOL0     H27835   7.757   1.263   0.762  1.9255  0.7663 -1.0698
  947MOL0     H27836   7.816   1.304   0.926  0.4669  1.6704 -0.2815
  947MOL0     H27837   7.892   1.055   0.948 -0.9367  1.0405  1.5892
  947MOL0     H27838   7.819   1.026   0.791  0.6469  0.7968  0.2511
  947MOL0     H27839   7.674   1.100   1.040 -0.5810  0.6597 -0.8650
  947MOL0     H27840   7.600   1.121   0.898 -0.9108 -0.3840  2.1095
  947MOL0     H27841   7.573   0.704   0.958  1.1996 -0.3171 -3.8094
  947MOL0     H27842   8.001   1.073   0.446 -1.4056  0.9201  0.1517
  947MOL0     H27843   8.114   1.130   0.160 -0.0951  1.3092  0.9706
  947MOL0     H27844   8.257   1.042   0.174  0.2935 -1.6994  0.1696
  947MOL0     H27845   8.118   0.971   0.247 -2.6836  1.4481 -0.2544
  948MOL0     O27846   6.431   8.884  10.012 -0.4908 -0.3322  0.3599
  948MOL0     C27847   6.466   8.974  10.085  0.4709 -0.6918 -0.5772
  948MOL0     O27848   6.394   9.018  10.199 -0.6365 -0.2271  0.0605
  948MOL0     C27849   6.273   8.960  10.236  2.2055 -1.1227  0.0854
  948MOL0     C27850   6.241   8.823  10.244 -1.1329 -0.5829  0.0714
  948MOL0     C27851   6.120   8.777  10.305  0.2572 -0.4216  0.4842
  948MOL0     C27852   6.014   8.870  10.320  0.5678  0.7704  0.6784
  948MOL0     O27853   5.884   8.832  10.365 -0.2944  0.2959 -0.7876
  948MOL0     C27854   5.758   8.893  10.331  0.1806 -0.6084 -0.5369
  948MOL0     C27855   5.744   8.898  10.176  0.2921  0.1729 -0.4921
  948MOL0     C27856   5.596   8.954  10.126  0.4892  0.6788 -0.6182
  948MOL0     C27857   5.544   9.086  10.181 -0.9392  0.5297 -0.1545
  948MOL0     C27858   5.420   9.145  10.117  0.7359  0.2849 -0.8499
  948MOL0     C27859   5.391   9.276  10.200  0.4636 -0.4049 -0.5686
  948MOL0     C27860   5.296   9.369  10.123 -0.5884  0.3385  0.3016
  948MOL0     C27861   5.345   9.420   9.985 -0.4272 -0.0186  0.2356
  948MOL0     N27862   5.481   9.461   9.973 -0.0571 -0.8898 -0.4425
  948MOL0     C27863   5.596   9.387   9.942 -0.0263  0.2546  0.1407
  948MOL0     C27864   5.707   9.467   9.959 -0.5447 -1.3173 -0.0858
  948MOL0     C27865   5.840   9.417   9.938 -0.6255 -0.3645 -0.7989
  948MOL0     C27866   5.948   9.506   9.996 -0.8525  0.9740 -1.6289
  948MOL0     C27867   6.009   9.463  10.134 -0.0997 -0.1816  0.1911
  948MOL0     C27868   5.902   9.461  10.241 -1.2619 -0.1766 -0.1745
  948MOL0     O27869   5.963   9.409  10.365  0.2498  0.5613  0.4696
  948MOL0     C27870   5.893   9.330  10.448 -0.1931  0.8502 -0.7147
  948MOL0     C27871   5.767   9.331  10.481  0.2468  0.4084  0.1685
  948MOL0     C27872   5.707   9.237  10.576 -0.2663  0.3706  0.4672
  948MOL0     C27873   5.789   9.127  10.624 -0.3561  0.8848 -0.2931
  948MOL0     C27874   5.735   9.027  10.715  0.3558  0.1062  0.3455
  948MOL0     O27875   5.812   8.972  10.807 -0.8116 -0.0178 -0.3062
  948MOL0     C27876   5.763   8.885  10.899 -0.3458  0.1181 -0.1512
  948MOL0     C27877   5.647   8.906  10.976 -1.0435 -0.4546  0.6859
  948MOL0     C27878   5.594   8.811  11.057  0.1425  0.2554  0.0320
  948MOL0     C27879   5.653   8.681  11.076  0.5533 -0.4950  0.6297
  948MOL0     O27880   5.595   8.581  11.151  0.5714 -0.4708  1.0258
  948MOL0     C27881   5.591   8.445  11.120  0.2032  0.3693 -0.8631
  948MOL0     C27882   5.555   8.369  11.255 -0.1166 -0.4208 -0.9065
  948MOL0     C27883   5.667   8.375  11.363  1.0742 -0.0059  0.1523
  948MOL0     C27884   5.799   8.450  11.331  0.2146  0.3522 -0.0780
  948MOL0     C27885   5.905   8.418  11.426  0.8706  1.0982 -0.5995
  948MOL0     C27886   6.019   8.515  11.415  0.1503 -0.3519 -0.1470
  948MOL0     C27887   6.126   8.471  11.521  0.2865 -0.1474 -0.2326
  948MOL0     C27888   6.231   8.582  11.547 -0.2652 -0.2465 -0.7312
  948MOL0    Cl27889   6.371   8.516  11.647  0.0579  0.0088  0.4300
  948MOL0     C27890   5.777   8.662  11.003 -0.4025  0.8625  0.2585
  948MOL0     C27891   5.827   8.759  10.912  0.2811  0.6625 -0.0952
  948MOL0     O27892   5.614   9.005  10.700  0.1526 -0.5800 -0.3392
  948MOL0     C27893   5.929   9.124  10.590  0.8904 -0.2548 -1.0254
  948MOL0     C27894   5.977   9.228  10.501 -0.1379  0.6592 -0.9905
  948MOL0     N27895   5.658   9.582  10.023  1.0956  0.0844  0.0301
  948MOL0     N27896   5.525   9.584  10.018  0.2796  0.1675 -0.0769
  948MOL0     C27897   6.044   9.003  10.295  0.5330 -0.5456 -0.2676
  948MOL0     C27898   6.167   9.048  10.267 -0.7067  0.0650 -0.0531
  948MOL0     C27899   6.591   9.042  10.047  0.4224  0.3550  0.1587
  948MOL0     C27900   6.610   9.061   9.908 -0.0203  0.0053  0.1676
  948MOL0     C27901   6.728   9.119   9.866 -0.4715 -0.6844  0.5527
  948MOL0     C27902   6.819   9.171   9.964 -0.2752  0.2846 -0.1307
  948MOL0     O27903   6.940   9.236   9.941  0.2896  0.1165 -0.1083
  948MOL0     C27904   7.002   9.219   9.822 -0.5561 -0.0910 -0.3940
  948MOL0     C27905   7.124   9.307   9.814 -0.2422 -0.2857 -0.2964
  948MOL0     C27906   7.241   9.292   9.917  0.3462 -0.1316 -0.9822
  948MOL0     C27907   7.369   9.348   9.858  0.6910 -0.4969  0.4252
  948MOL0     C27908   7.471   9.372   9.966  0.0183  0.0884  0.0851
  948MOL0     C27909   7.550   9.433  10.035  0.6425  0.6379 -0.0429
  948MOL0     C27910   6.793   9.159  10.109 -0.4244  0.3908  0.0823
  948MOL0     C27911   6.676   9.091  10.146  0.6638  0.2933 -1.2279
  948MOL0     C27912   6.658   9.054  10.297  0.7543  0.4797 -0.6803
  948MOL0     H27913   6.322   8.760  10.211  0.9525  1.5863  0.8005
  948MOL0     H27914   6.102   8.673  10.333 -1.6138 -0.3567 -0.2724
  948MOL0     H27915   5.678   8.836  10.380  0.4819  1.0882  2.1656
  948MOL0     H27916   5.752   8.992  10.378 -1.9359 -1.8863  2.2577
  948MOL0     H27917   5.750   8.800  10.128 -0.8361  0.4887 -1.3270
  948MOL0     H27918   5.819   8.968  10.139 -1.3590  1.4310 -1.6325
  948MOL0     H27919   5.516   8.879  10.135 -1.0908  2.5129  3.0230
  948MOL0     H27920   5.612   8.971  10.020  0.2876  3.9330 -0.2299
  948MOL0     H27921   5.539   9.091  10.291  2.9519  3.2187  0.0870
  948MOL0     H27922   5.622   9.160  10.161  1.1973 -0.1833  4.1715
  948MOL0     H27923   5.440   9.172  10.012  1.1761  2.0004 -0.3558
  948MOL0     H27924   5.335   9.076  10.119 -0.2390  1.4463 -0.5981
  948MOL0     H27925   5.339   9.251  10.293  0.1474 -1.8585 -1.1082
  948MOL0     H27926   5.486   9.329  10.214 -0.3081  0.5608  1.2812
  948MOL0     H27927   5.265   9.449  10.191  2.4070  2.2894 -0.4165
  948MOL0     H27928   5.212   9.301  10.106  0.3962 -0.6514 -0.7860
  948MOL0     H27929   5.322   9.345   9.909  0.1278  0.1542 -0.1091
  948MOL0     H27930   5.286   9.509   9.960  0.6522  0.5103 -0.5047
  948MOL0     H27931   5.615   9.286   9.909 -0.9859  0.1560 -0.1350
  948MOL0     H27932   5.863   9.322   9.987  3.7715  0.8253 -0.0785
  948MOL0     H27933   5.852   9.412   9.829  3.3329  1.5431 -0.6406
  948MOL0     H27934   6.024   9.501   9.919  0.2368 -3.9640 -0.5257
  948MOL0     H27935   5.912   9.609  10.010 -1.0438  1.0355 -2.5108
  948MOL0     H27936   6.102   9.514  10.158 -0.9287  0.1242  3.1358
  948MOL0     H27937   6.043   9.361  10.114  0.0855  0.0366 -0.6361
  948MOL0     H27938   5.827   9.393  10.200 -1.1123  1.1793 -2.9020
  948MOL0     H27939   5.852   9.554  10.269 -0.0707 -0.6534  4.3303
  948MOL0     H27940   5.701   9.410  10.446 -1.1285 -1.2422 -1.1657
  948MOL0     H27941   5.605   9.250  10.609 -1.3682 -0.6373 -2.2458
  948MOL0     H27942   5.590   8.999  10.965  0.0047  0.1260  0.0089
  948MOL0     H27943   5.502   8.845  11.102  1.3742  1.9345  1.4158
  948MOL0     H27944   5.514   8.425  11.044  0.5616  2.5089 -1.8785
  948MOL0     H27945   5.678   8.398  11.073 -0.0823 -0.5502 -0.4981
  948MOL0     H27946   5.469   8.420  11.300 -1.3631  0.2886 -3.8348
  948MOL0     H27947   5.537   8.266  11.225 -2.3513 -0.6653  1.0116
  948MOL0     H27948   5.610   8.436  11.434 -5.3651 -3.1231 -1.5551
  948MOL0     H27949   5.696   8.276  11.399 -0.1742  0.1396  1.6720
  948MOL0     H27950   5.778   8.556  11.341  1.6548  0.6796 -0.3161
  948MOL0     H27951   5.837   8.430  11.230  1.1496  1.2058  0.0984
  948MOL0     H27952   5.938   8.316  11.403 -0.2821  0.6707 -0.4468
  948MOL0     H27953   5.861   8.418  11.527  0.5917  0.1773 -0.7121
  948MOL0     H27954   6.072   8.509  11.320 -0.8887 -1.0377 -0.6892
  948MOL0     H27955   5.986   8.617  11.440  0.0753 -0.4862  0.3035
  948MOL0     H27956   6.189   8.389  11.485  2.2239  1.1182  0.1431
  948MOL0     H27957   6.079   8.444  11.616 -1.5707  0.8774 -0.8098
  948MOL0     H27958   6.252   8.615  11.445  1.4794 -2.2673 -1.0884
  948MOL0     H27959   6.181   8.665  11.598  1.5172  0.3897  0.0564
  948MOL0     H27960   5.835   8.570  10.999 -1.7155 -0.0817  1.6521
  948MOL0     H27961   5.912   8.726  10.852  0.6809 -2.2191  1.8523
  948MOL0     H27962   5.998   9.044  10.615  1.1828  0.0344 -0.9040
  948MOL0     H27963   6.079   9.217  10.467  0.1455 -0.4915  0.1589
  948MOL0     H27964   5.964   9.075  10.304  0.3204 -0.7546 -0.4825
  948MOL0     H27965   6.192   9.154  10.269  0.7268 -0.2554  0.2592
  948MOL0     H27966   6.550   9.013   9.832  1.9739  2.0552 -2.9575
  948MOL0     H27967   6.740   9.109   9.759  0.6155 -0.6870  0.6621
  948MOL0     H27968   6.934   9.244   9.740 -0.4073  0.7273 -0.2774
  948MOL0     H27969   7.041   9.117   9.818  2.9429  1.1713 -1.7072
  948MOL0     H27970   7.089   9.411   9.817  0.4564 -0.0681  1.3565
  948MOL0     H27971   7.162   9.302   9.711 -0.7535  1.2031 -0.5753
  948MOL0     H27972   7.248   9.190   9.954 -0.2255 -0.4885 -1.8132
  948MOL0     H27973   7.220   9.352  10.006  2.5663  0.1589 -0.6025
  948MOL0     H27974   7.402   9.273   9.786  0.1157 -1.3028  0.9739
  948MOL0     H27975   7.341   9.445   9.816  1.0023 -0.9558 -0.8822
  948MOL0     H27976   7.615   9.490  10.098  2.4131 -0.4646 -0.7995
  948MOL0     H27977   6.873   9.186  10.178 -1.8874 -1.2357  2.5570
  948MOL0     H27978   6.737   9.107  10.351 -0.9695  2.4380  0.0323
  948MOL0     H27979   6.564   9.089  10.341 -0.4020 -0.2334 -2.4522
  948MOL0     H27980   6.654   8.946  10.318  0.6644  0.8469  1.3983
  949MOL0     O27981  10.063   3.980   9.870  1.0435  0.1726 -0.5515
  949MOL0     C27982  10.010   4.079   9.823  0.0877  0.4997  0.3751
  949MOL0     O27983   9.870   4.100   9.822  0.5023 -0.0165 -0.4309
  949MOL0     C27984   9.772   4.016   9.875  0.3263  0.5115  0.9143
  949MOL0     C27985   9.641   4.060   9.888 -0.8856 -0.0011  0.9332
  949MOL0     C27986   9.548   3.979   9.940 -0.1792 -0.9907 -0.4272
  949MOL0     C27987   9.569   3.849   9.985  0.1332  0.4023  0.0349
  949MOL0     O27988   9.468   3.785  10.048 -0.3703 -0.1681  0.2107
  949MOL0     C27989   9.477   3.647  10.074  0.0723 -0.6980  0.7405
  949MOL0     C27990   9.341   3.604  10.128  0.9950  0.2472  0.1373
  949MOL0     C27991   9.360   3.565  10.282  0.4200 -0.5114  0.0726
  949MOL0     C27992   9.422   3.433  10.308 -0.4731 -0.0212 -0.3477
  949MOL0     C27993   9.424   3.383  10.447 -0.4198 -0.0806 -0.4976
  949MOL0     C27994   9.531   3.450  10.535 -0.3002 -0.2219 -0.3784
  949MOL0     C27995   9.667   3.370  10.559 -0.0298  0.6768  0.5034
  949MOL0     C27996   9.759   3.355  10.436  1.0272 -0.2551 -0.0835
  949MOL0     N27997   9.812   3.481  10.393  0.4261 -1.2778 -0.5822
  949MOL0     C27998   9.947   3.501  10.389 -0.2085 -0.2859  0.4999
  949MOL0     C27999   9.960   3.628  10.346  0.0128 -0.0962 -0.5532
  949MOL0     C28000  10.097   3.708  10.323 -0.3326  0.5946 -0.2818
  949MOL0     C28001  10.126   3.739  10.171  0.7784  0.5581 -0.5877
  949MOL0     C28002  10.271   3.720  10.132  0.6902  0.4098  0.7179
  949MOL0     C28003  10.281   3.769   9.989 -0.0566  0.6773  0.2298
  949MOL0     O28004  10.415   3.806   9.963  0.0849  0.0994 -0.4029
  949MOL0     C28005  10.473   3.921  10.028 -0.1309 -0.2372  0.3817
  949MOL0     C28006  10.610   3.949   9.994 -0.0316 -0.8720  0.2802
  949MOL0     C28007  10.666   4.072  10.012 -0.0133  0.1712  0.2437
  949MOL0     C28008  10.586   4.176  10.068  0.0584  0.1609 -0.3633
  949MOL0     C28009  10.649   4.316  10.080  0.4837  0.2693 -0.8043
  949MOL0     O28010  10.787   4.324  10.061 -0.2028  0.0100 -0.6740
  949MOL0     C28011  10.849   4.442  10.050 -0.7876  0.4484 -0.3634
  949MOL0     C28012  10.914   4.496  10.157  0.0810  0.1422 -0.2959
  949MOL0     C28013  10.986   4.617  10.136 -0.3342  0.0458 -1.5867
  949MOL0     C28014  10.998   4.674  10.014 -0.8212 -0.0124 -0.3040
  949MOL0     O28015  11.065   4.792   9.986 -0.1281 -0.4110 -0.2028
  949MOL0     C28016  11.178   4.824  10.072 -0.7477  0.3533  0.3729
  949MOL0     C28017  11.290   4.881   9.991 -0.4869  0.2388  0.2765
  949MOL0     C28018  11.256   5.003   9.914 -0.7021 -0.0807  0.4512
  949MOL0     C28019  11.235   5.128   9.997 -1.5567  0.2727  0.3890
  949MOL0     C28020  11.229   5.261   9.914 -0.2045 -0.4224  0.8790
  949MOL0     C28021  11.248   5.386   9.987 -0.7668  0.0949  0.3789
  949MOL0     C28022  11.260   5.498   9.875  0.4719 -0.1840 -0.8780
  949MOL0     C28023  11.283   5.636   9.937 -0.3576 -0.4319 -0.0261
  949MOL0    Cl28024  11.151   5.677  10.056 -0.3560 -0.4655  0.1338
  949MOL0     C28025  10.943   4.614   9.906  0.0245  0.2675 -0.3319
  949MOL0     C28026  10.863   4.500   9.919 -0.8819 -0.5394 -0.0146
  949MOL0     O28027  10.576   4.412  10.109  0.6187 -0.2845 -0.2359
  949MOL0     C28028  10.458   4.148  10.115  0.6237 -0.3487 -0.6102
  949MOL0     C28029  10.404   4.024  10.087 -0.4428  1.2289 -0.7696
  949MOL0     N28030   9.832   3.677  10.334  0.6064 -0.7037  0.6628
  949MOL0     N28031   9.742   3.586  10.342  0.2115 -0.3478  0.8375
  949MOL0     C28032   9.702   3.809   9.986 -0.9343  0.1917  0.9554
  949MOL0     C28033   9.801   3.885   9.931  0.0427 -0.7416 -0.0863
  949MOL0     C28034  10.102   4.188   9.774 -0.3519  0.0250  0.5564
  949MOL0     C28035  10.252   4.163   9.761  0.2603  0.4648 -0.3190
  949MOL0     C28036  10.331   4.271   9.738 -0.4170 -0.3499  0.2771
  949MOL0     C28037  10.277   4.399   9.730 -0.6880 -0.3350  0.1801
  949MOL0     O28038  10.358   4.510   9.705  0.2350 -0.2294  0.2674
  949MOL0     C28039  10.501   4.516   9.742 -0.4111 -0.3559  0.0057
  949MOL0     C28040  10.560   4.633   9.657  0.2349  0.3770 -0.2383
  949MOL0     C28041  10.584   4.593   9.508  0.4683  0.5630 -0.6106
  949MOL0     C28042  10.647   4.710   9.432  0.5842 -0.3069 -0.4638
  949MOL0     C28043  10.558   4.827   9.415 -0.1410  0.5167 -0.1575
  949MOL0     C28044  10.495   4.927   9.385 -0.1112  0.1431  0.4319
  949MOL0     C28045  10.137   4.421   9.724 -0.3219 -0.6609 -0.4018
  949MOL0     C28046  10.052   4.319   9.746 -0.2962 -0.4895  0.9483
  949MOL0     C28047   9.904   4.362   9.731 -1.1749  0.1523 -0.4789
  949MOL0     H28048   9.612   4.164   9.869  1.4710  0.8444  1.6866
  949MOL0     H28049   9.443   4.002   9.960 -0.3683 -1.0432 -1.2961
  949MOL0     H28050   9.502   3.599   9.979 -0.9869  1.1607 -0.5412
  949MOL0     H28051   9.555   3.627  10.148 -1.3598 -0.0795  2.4630
  949MOL0     H28052   9.294   3.518  10.079 -0.3459 -1.3167  3.8029
  949MOL0     H28053   9.266   3.683  10.114 -2.2443 -2.1620  2.1990
  949MOL0     H28054   9.261   3.553  10.325 -1.9685  2.2404 -3.8927
  949MOL0     H28055   9.419   3.645  10.329  1.8039 -0.5255 -1.5352
  949MOL0     H28056   9.360   3.349  10.274 -2.4284 -1.4083  5.4817
  949MOL0     H28057   9.523   3.426  10.268 -0.6959  0.7967 -1.0625
  949MOL0     H28058   9.328   3.410  10.492 -0.0066  1.7873 -0.6625
  949MOL0     H28059   9.447   3.276  10.443  3.3832  0.6521 -3.4164
  949MOL0     H28060   9.556   3.552  10.504 -3.0786  1.5003  2.4437
  949MOL0     H28061   9.474   3.450  10.628 -1.9216  0.0036 -1.3297
  949MOL0     H28062   9.635   3.271  10.594  4.0300 -1.3243 -0.8645
  949MOL0     H28063   9.726   3.423  10.634 -1.1081 -1.1046  2.7381
  949MOL0     H28064   9.840   3.284  10.457  2.4887  0.9098 -1.5377
  949MOL0     H28065   9.701   3.312  10.354  2.4575  2.9940 -3.0133
  949MOL0     H28066  10.030   3.434  10.411  0.0555 -1.3421 -3.1449
  949MOL0     H28067  10.096   3.802  10.378  1.5620  0.9678 -0.8048
  949MOL0     H28068  10.184   3.657  10.363  0.7168  2.9723  0.6670
  949MOL0     H28069  10.086   3.669  10.097  3.4361 -2.3678  0.4945
  949MOL0     H28070  10.094   3.842  10.157 -2.1519 -0.4090 -1.9150
  949MOL0     H28071  10.300   3.615  10.133  1.2593  0.5487 -0.1270
  949MOL0     H28072  10.347   3.764  10.196  0.9971 -1.1565  1.4591
  949MOL0     H28073  10.210   3.853   9.988 -0.8717 -0.0042 -0.7185
  949MOL0     H28074  10.252   3.694   9.916  3.4429  0.6733 -1.3387
  949MOL0     H28075  10.671   3.867   9.956 -1.1333 -0.2110 -3.3055
  949MOL0     H28076  10.763   4.107   9.978  0.2507 -1.9483 -1.3662
  949MOL0     H28077  10.915   4.445  10.253 -0.3454  1.1941  0.2783
  949MOL0     H28078  11.030   4.665  10.223  0.5707 -1.7459 -1.0147
  949MOL0     H28079  11.162   4.899  10.149  0.2970 -0.2170  1.1645
  949MOL0     H28080  11.229   4.736  10.112  1.6242  1.7093  0.4807
  949MOL0     H28081  11.385   4.887  10.045 -0.6085 -2.3046  0.9206
  949MOL0     H28082  11.302   4.795   9.924  3.3354  0.6493  0.2100
  949MOL0     H28083  11.320   5.022   9.827 -3.3671 -1.1671 -1.9135
  949MOL0     H28084  11.166   4.968   9.863  0.6806 -2.2937 -0.6683
  949MOL0     H28085  11.320   5.123  10.066 -0.2151 -4.1326 -1.2188
  949MOL0     H28086  11.152   5.119  10.067 -1.3426 -1.7094  0.4610
  949MOL0     H28087  11.125   5.264   9.879  0.1999  0.4997 -0.2829
  949MOL0     H28088  11.306   5.259   9.837 -2.1899  2.1157 -1.3859
  949MOL0     H28089  11.184   5.406  10.074  0.1879 -0.2971  1.1878
  949MOL0     H28090  11.346   5.397  10.034 -0.1396  1.8455 -1.2084
  949MOL0     H28091  11.166   5.506   9.820  0.4475  2.7753 -0.5785
  949MOL0     H28092  11.343   5.476   9.807  5.1591  0.4705  3.9445
  949MOL0     H28093  11.375   5.631   9.996 -0.6759 -2.1320  0.3885
  949MOL0     H28094  11.286   5.713   9.860  1.3838 -3.0102 -2.7399
  949MOL0     H28095  10.963   4.648   9.805  4.1061 -3.5498 -1.1609
  949MOL0     H28096  10.818   4.458   9.829 -2.3053  0.3418  0.2464
  949MOL0     H28097  10.400   4.211  10.182 -1.4328 -1.8433 -0.8840
  949MOL0     H28098  10.305   4.000  10.122  1.4901 -0.7089  4.3094
  949MOL0     H28099   9.737   3.711  10.016 -1.6539 -0.3009  0.2347
  949MOL0     H28100   9.895   3.832   9.918  1.1830  1.4625 -1.4374
  949MOL0     H28101  10.291   4.063   9.777 -0.4250 -0.0496 -1.7395
  949MOL0     H28102  10.439   4.260   9.732 -0.1015  1.4549  1.5865
  949MOL0     H28103  10.561   4.431   9.710 -1.8375  0.1690 -4.8119
  949MOL0     H28104  10.503   4.534   9.850  1.0640 -1.6923  0.2340
  949MOL0     H28105  10.656   4.663   9.700  0.5070 -0.9650  0.1207
  949MOL0     H28106  10.494   4.721   9.662  1.6400  1.4221  0.7505
  949MOL0     H28107  10.492   4.560   9.458 -0.8041 -0.3114  2.1438
  949MOL0     H28108  10.653   4.509   9.504 -0.2983 -0.0539 -3.1807
  949MOL0     H28109  10.735   4.745   9.487  0.0384 -0.5187  0.5624
  949MOL0     H28110  10.671   4.680   9.329 -2.1730 -0.7058 -1.0560
  949MOL0     H28111  10.443   5.016   9.357 -1.1003 -0.0489  1.5964
  949MOL0     H28112  10.114   4.524   9.698  3.0788  0.3538  0.1200
  949MOL0     H28113   9.861   4.389   9.828  0.2235 -2.1162  0.8557
  949MOL0     H28114   9.892   4.455   9.675 -2.0574 -0.5935 -1.5468
  949MOL0     H28115   9.845   4.291   9.674  0.2259  0.7519 -2.8258
  950MOL0     O28116   9.907   6.598  11.289 -0.0430  0.6374  0.1857
  950MOL0     C28117   9.969   6.556  11.187  0.5131  0.3053  0.4214
  950MOL0     O28118   9.949   6.439  11.128  0.6084  0.1030  0.4365
  950MOL0     C28119   9.858   6.346  11.183  0.6588 -0.0560  0.1899
  950MOL0     C28120   9.742   6.317  11.110 -0.1711  0.1866 -0.9860
  950MOL0     C28121   9.646   6.240  11.161 -0.1195 -0.0361 -0.7406
  950MOL0     C28122   9.672   6.168  11.283 -0.3787 -0.3936 -0.4028
  950MOL0     O28123   9.567   6.093  11.323 -0.1466  1.0907 -0.2916
  950MOL0     C28124   9.553   6.051  11.466 -0.2425  0.6507 -0.0196
  950MOL0     C28125   9.413   5.994  11.473 -0.7962 -0.4985 -0.9488
  950MOL0     C28126   9.380   5.952  11.620  0.2354  0.4551  0.6072
  950MOL0     C28127   9.230   5.913  11.609 -0.6526  0.6538 -0.7087
  950MOL0     C28128   9.201   5.782  11.545  0.6940 -0.4808  0.6842
  950MOL0     C28129   9.066   5.729  11.594 -0.7779  0.2230  0.3990
  950MOL0     C28130   9.021   5.614  11.496 -0.5719 -1.0070  0.4667
  950MOL0     C28131   8.881   5.635  11.448 -0.1074  0.1331  0.0522
  950MOL0     N28132   8.787   5.658  11.555 -0.1787 -0.2027 -0.0831
  950MOL0     C28133   8.694   5.756  11.542  0.6915  0.0161  1.1009
  950MOL0     C28134   8.588   5.713  11.620 -0.7896 -0.2468 -0.0962
  950MOL0     C28135   8.455   5.786  11.634 -0.3132 -0.0510 -0.6318
  950MOL0     C28136   8.373   5.741  11.506  0.4428  0.6518 -1.0970
  950MOL0     C28137   8.270   5.838  11.465  0.2691 -0.9781 -0.7685
  950MOL0     C28138   8.206   5.788  11.338  0.2751 -0.2503 -0.7107
  950MOL0     O28139   8.109   5.886  11.291 -0.3553 -0.7756 -0.4849
  950MOL0     C28140   8.030   5.860  11.176  0.2305  0.2594 -0.3736
  950MOL0     C28141   7.910   5.931  11.168 -0.1151 -0.3826  0.3356
  950MOL0     C28142   7.820   5.917  11.056  0.1916  0.0506 -0.8391
  950MOL0     C28143   7.854   5.829  10.959  0.6449  0.4169  0.0326
  950MOL0     C28144   7.760   5.798  10.846  0.2671 -0.1493 -0.1254
  950MOL0     O28145   7.791   5.695  10.769  0.1005 -0.2480 -0.9081
  950MOL0     C28146   7.740   5.691  10.643 -1.0337 -0.2076 -0.6295
  950MOL0     C28147   7.735   5.801  10.563 -1.0494  0.3099 -0.5902
  950MOL0     C28148   7.661   5.802  10.447 -0.0415 -0.8745  0.2506
  950MOL0     C28149   7.570   5.690  10.424 -0.4460 -0.2616  0.0752
  950MOL0     O28150   7.483   5.709  10.319 -0.6118  0.5675 -0.3765
  950MOL0     C28151   7.355   5.649  10.314 -0.3054  0.3327  0.0217
  950MOL0     C28152   7.309   5.633  10.176  0.6111  0.1162  0.2615
  950MOL0     C28153   7.388   5.528  10.097  0.3854  0.6928  0.8648
  950MOL0     C28154   7.506   5.582  10.020 -0.5066  0.4548 -0.2156
  950MOL0     C28155   7.568   5.477   9.937  0.5756 -0.1479  0.9308
  950MOL0     C28156   7.605   5.347   9.998  0.0357 -0.2249 -0.8668
  950MOL0     C28157   7.628   5.238   9.897  0.1948 -0.2533  0.3593
  950MOL0     C28158   7.733   5.283   9.805  1.2634  0.3937 -0.0211
  950MOL0    Cl28159   7.755   5.139   9.706 -0.1171  0.2724  0.5787
  950MOL0     C28160   7.587   5.581  10.505 -0.2836  0.2727  0.5510
  950MOL0     C28161   7.680   5.572  10.608 -0.1648  0.0045  0.6226
  950MOL0     O28162   7.671   5.880  10.829  0.7150 -0.0349  0.0292
  950MOL0     C28163   7.974   5.752  10.966 -0.4228  0.4416 -0.1203
  950MOL0     C28164   8.069   5.776  11.073 -1.0858  0.1377 -0.7988
  950MOL0     N28165   8.622   5.598  11.681 -1.0467  0.0969  0.2241
  950MOL0     N28166   8.739   5.561  11.633  0.5001 -0.4958 -0.0852
  950MOL0     C28167   9.787   6.192  11.359 -0.3263 -0.5387 -0.2864
  950MOL0     C28168   9.884   6.279  11.305 -0.4678  0.5174 -0.0310
  950MOL0     C28169  10.076   6.647  11.133  0.1728 -0.1086  0.3312
  950MOL0     C28170  10.187   6.586  11.071  0.0486 -0.6091 -1.0696
  950MOL0     C28171  10.281   6.673  11.023  0.4058  0.2291  0.0738
  950MOL0     C28172  10.280   6.812  11.040  0.3755  0.8852  0.0644
  950MOL0     O28173  10.380   6.883  10.990  0.5013 -0.9256  0.1923
  950MOL0     C28174  10.378   7.023  11.007  0.9903 -0.1451  0.0499
  950MOL0     C28175  10.522   7.080  10.989 -0.7764 -0.1915 -0.2030
  950MOL0     C28176  10.520   7.225  10.996 -0.5025 -0.8076 -0.5721
  950MOL0     C28177  10.440   7.304  10.883  0.0099  0.5777  0.2661
  950MOL0     C28178  10.383   7.431  10.941 -0.4041  0.4181  0.1746
  950MOL0     C28179  10.346   7.541  10.984  0.4003  1.0387 -0.3687
  950MOL0     C28180  10.158   6.860  11.093 -0.0480  0.6253 -0.4385
  950MOL0     C28181  10.060   6.787  11.153 -0.3009 -0.0935  0.2431
  950MOL0     C28182   9.930   6.864  11.184 -0.2800  0.3016 -0.4392
  950MOL0     H28183   9.728   6.346  11.007  1.0501 -0.6054 -1.4022
  950MOL0     H28184   9.547   6.231  11.117 -0.4578 -2.0357  0.2984
  950MOL0     H28185   9.620   5.972  11.502 -0.2121  0.8138  0.2899
  950MOL0     H28186   9.557   6.137  11.534  0.3195  1.4651 -1.0619
  950MOL0     H28187   9.397   5.911  11.404  2.7486 -1.3437 -0.9445
  950MOL0     H28188   9.340   6.070  11.443 -1.2171 -0.4551  0.1405
  950MOL0     H28189   9.402   6.036  11.686 -0.8164  0.6165  0.7619
  950MOL0     H28190   9.438   5.868  11.661 -0.5062  0.8130  2.4696
  950MOL0     H28191   9.199   5.910  11.713 -0.5272  4.2400 -0.4240
  950MOL0     H28192   9.175   5.990  11.554  1.1464 -0.5275 -4.5918
  950MOL0     H28193   9.194   5.796  11.437 -1.5398  0.3857  0.8877
  950MOL0     H28194   9.278   5.708  11.569  3.4249  1.6992 -0.7024
  950MOL0     H28195   9.069   5.698  11.699 -2.7236  0.4605  0.5651
  950MOL0     H28196   8.993   5.809  11.585  1.3791  2.1570 -0.9371
  950MOL0     H28197   9.042   5.515  11.538  0.2432 -0.5356  1.2046
  950MOL0     H28198   9.082   5.615  11.405 -1.8668  1.2297 -0.4739
  950MOL0     H28199   8.871   5.709  11.368 -1.1172  1.6179  1.4846
  950MOL0     H28200   8.850   5.546  11.394 -0.8684 -0.9263  2.1221
  950MOL0     H28201   8.685   5.849  11.486  0.0832  0.1424  1.3993
  950MOL0     H28202   8.410   5.749  11.727 -0.5702  1.7860  0.0172
  950MOL0     H28203   8.479   5.891  11.653  0.6620 -0.3005 -0.3858
  950MOL0     H28204   8.429   5.719  11.414 -0.0974 -1.8997 -0.8833
  950MOL0     H28205   8.327   5.645  11.527 -1.3186  1.3861 -1.4041
  950MOL0     H28206   8.311   5.937  11.444 -0.3733 -0.8673 -1.5497
  950MOL0     H28207   8.191   5.834  11.541  2.0998 -1.3406  1.2222
  950MOL0     H28208   8.163   5.688  11.353 -0.7066  0.0920 -1.1771
  950MOL0     H28209   8.281   5.775  11.259 -0.5931 -2.4745 -1.2475
  950MOL0     H28210   7.888   5.989  11.257 -2.1918 -1.5173  0.6113
  950MOL0     H28211   7.726   5.970  11.045  0.5455  1.7988  2.9447
  950MOL0     H28212   7.789   5.890  10.594 -1.5636  0.0634  1.1442
  950MOL0     H28213   7.654   5.888  10.381 -2.3467  1.3073  3.0571
  950MOL0     H28214   7.357   5.562  10.380 -2.1003  1.6299  1.8998
  950MOL0     H28215   7.297   5.722  10.371  2.4996  0.2177  3.3414
  950MOL0     H28216   7.204   5.604  10.172 -0.1496  2.7955 -2.3979
  950MOL0     H28217   7.307   5.731  10.127  0.6836 -0.5893 -1.1707
  950MOL0     H28218   7.415   5.449  10.168 -2.7435 -2.2211 -0.8527
  950MOL0     H28219   7.321   5.480  10.024  0.3890  1.0432  0.6276
  950MOL0     H28220   7.573   5.625  10.095  0.7250  0.4269 -1.2674
  950MOL0     H28221   7.462   5.656   9.953 -1.0205  0.7104  0.3968
  950MOL0     H28222   7.649   5.518   9.876 -1.6268 -1.0893 -2.9724
  950MOL0     H28223   7.485   5.453   9.870  2.8125  0.6825 -2.4161
  950MOL0     H28224   7.695   5.362  10.058 -1.0839 -0.9020  1.0590
  950MOL0     H28225   7.528   5.314  10.069 -0.3178 -1.4142 -1.7808
  950MOL0     H28226   7.533   5.217   9.848 -0.6951  3.5224  0.1295
  950MOL0     H28227   7.662   5.150   9.952  0.0349  0.0201  0.9064
  950MOL0     H28228   7.709   5.364   9.735  1.8765  0.1734 -0.4989
  950MOL0     H28229   7.822   5.312   9.863  1.2919  0.3321 -0.0343
  950MOL0     H28230   7.523   5.497  10.482  1.1479 -0.7130  0.0282
  950MOL0     H28231   7.686   5.491  10.680  0.6342  0.0849  0.6480
  950MOL0     H28232   8.004   5.681  10.890  0.3885 -0.0798  0.6714
  950MOL0     H28233   8.164   5.723  11.072 -1.9746 -1.5449 -0.6480
  950MOL0     H28234   9.792   6.156  11.461 -0.9509  0.1875  0.0088
  950MOL0     H28235   9.974   6.297  11.364  0.5139  0.1477 -1.3819
  950MOL0     H28236  10.203   6.480  11.052  1.0102 -0.5649 -0.5365
  950MOL0     H28237  10.377   6.638  10.987  1.7662  0.0490  3.4774
  950MOL0     H28238  10.339   7.045  11.106  0.2250 -0.9508 -0.0591
  950MOL0     H28239  10.305   7.075  10.944  0.2634  0.7400  1.5764
  950MOL0     H28240  10.566   7.048  10.894  1.1705 -1.6899  1.1177
  950MOL0     H28241  10.588   7.038  11.066  0.3212  1.9161  0.0762
  950MOL0     H28242  10.619   7.270  10.992  0.0243 -1.8400  0.3844
  950MOL0     H28243  10.483   7.248  11.097  0.8990 -1.5403  0.1351
  950MOL0     H28244  10.511   7.332  10.805  0.8484  0.0713  0.8381
  950MOL0     H28245  10.358   7.249  10.836  0.4528 -0.5025  0.7113
  950MOL0     H28246  10.296   7.630  11.016 -0.4257  0.2812  0.5357
  950MOL0     H28247  10.142   6.966  11.077  0.6394  0.5901 -1.4676
  950MOL0     H28248   9.862   6.839  11.102 -0.9078  0.2149  0.0991
  950MOL0     H28249   9.891   6.833  11.281 -0.4639  3.0744  0.4594
  950MOL0     H28250   9.946   6.972  11.191  1.2686  0.3065 -2.9585
  951MOL0     O28251   0.579   3.451   7.567 -0.1256 -0.0503  0.5725
  951MOL0     C28252   0.500   3.521   7.636 -0.4581  0.0836  0.8792
  951MOL0     O28253   0.376   3.477   7.678 -0.5310 -0.2899 -0.4055
  951MOL0     C28254   0.335   3.346   7.662 -0.7754  1.1440  0.2197
  951MOL0     C28255   0.415   3.242   7.713  0.4559  0.6422 -0.0879
  951MOL0     C28256   0.370   3.111   7.713  0.6106 -0.3522 -0.2034
  951MOL0     C28257   0.246   3.075   7.656  0.4788  0.5570  0.5823
  951MOL0     O28258   0.213   2.943   7.639 -0.0790  0.4845 -0.1110
  951MOL0     C28259   0.095   2.893   7.563  0.4474 -0.7866 -0.0932
  951MOL0     C28260   0.114   2.750   7.501 -0.6043 -0.3191 -0.3974
  951MOL0     C28261   0.212   2.768   7.391 -0.5773  0.0650 -0.5617
  951MOL0     C28262   0.237   2.639   7.317 -0.3228 -0.0246 -0.8377
  951MOL0     C28263   0.332   2.665   7.198 -0.3966 -0.0594  0.0230
  951MOL0     C28264   0.268   2.686   7.065 -0.7153 -0.2449 -0.0472
  951MOL0     C28265   0.366   2.779   6.980  0.5339  0.4338 -0.7570
  951MOL0     C28266   0.305   2.806   6.841 -0.4916  0.2908 -0.2248
  951MOL0     N28267   0.299   2.687   6.754 -0.2711 -0.0906 -0.5639
  951MOL0     C28268   0.189   2.625   6.696  1.1809 -1.1476  0.0427
  951MOL0     C28269   0.234   2.524   6.617 -1.5582  0.2660  0.1552
  951MOL0     C28270   0.152   2.429   6.530  0.3296 -0.2060  0.9778
  951MOL0     C28271   0.051   2.515   6.459  0.6790  0.2623  0.0258
  951MOL0     C28272  -0.043   2.434   6.366 -0.0314 -0.1552 -0.3214
  951MOL0     C28273  -0.120   2.527   6.275  0.6085 -0.5584 -0.5250
  951MOL0     O28274  -0.024   2.594   6.193  0.1016 -0.2482  0.0250
  951MOL0     C28275  -0.067   2.697   6.107 -0.4727  0.9245  0.2102
  951MOL0     C28276  -0.192   2.727   6.084  0.4760 -0.5305  0.0946
  951MOL0     C28277  -0.221   2.825   5.988 -0.4838  0.2661  0.5460
  951MOL0     C28278  -0.118   2.896   5.912 -0.3637 -1.0753 -0.1548
  951MOL0     C28279  -0.148   3.004   5.818  0.2564 -0.0738 -0.4349
  951MOL0     O28280  -0.044   3.074   5.749 -0.6328 -0.1877 -0.2731
  951MOL0     C28281  -0.076   3.172   5.661  0.6681 -0.8886 -0.6709
  951MOL0     C28282  -0.045   3.162   5.528  0.0910 -0.9429 -0.2933
  951MOL0     C28283  -0.095   3.250   5.431 -0.4565  0.0216  0.3062
  951MOL0     C28284  -0.147   3.377   5.473 -0.6782 -0.5369  0.2519
  951MOL0     O28285  -0.174   3.482   5.381  0.0754 -0.0423  0.4565
  951MOL0     C28286  -0.184   3.457   5.245  0.7533  0.4874  0.5606
  951MOL0     C28287  -0.036   3.473   5.200 -0.5333 -0.1406 -0.1006
  951MOL0     C28288  -0.019   3.476   5.041 -0.5943  0.0657 -0.5294
  951MOL0     C28289   0.132   3.511   5.024  0.3191 -0.0086  0.0080
  951MOL0     C28290   0.170   3.488   4.877 -0.5003  0.3556  0.5057
  951MOL0     C28291   0.319   3.462   4.853 -0.6806  0.1103 -0.3155
  951MOL0     C28292   0.403   3.586   4.873 -0.7668 -0.5097  0.1455
  951MOL0     C28293   0.453   3.623   5.013  0.1537  0.5010  0.3734
  951MOL0    Cl28294   0.552   3.487   5.081 -0.1546  0.5757 -0.7139
  951MOL0     C28295  -0.150   3.398   5.611  0.6061  0.2661 -0.5897
  951MOL0     C28296  -0.123   3.300   5.707  0.3731  0.0627  0.5245
  951MOL0     O28297  -0.266   3.023   5.794  1.0652 -0.1795 -0.0934
  951MOL0     C28298   0.017   2.872   5.957  0.7252 -0.3809  0.3156
  951MOL0     C28299   0.038   2.773   6.049  0.1003  0.1267  0.2286
  951MOL0     N28300   0.371   2.524   6.621 -0.0697 -0.0819  0.2776
  951MOL0     N28301   0.405   2.620   6.703  0.7399 -0.4497 -0.1110
  951MOL0     C28302   0.159   3.176   7.624 -0.6939 -0.4150 -1.0282
  951MOL0     C28303   0.203   3.312   7.625 -0.1458  0.6870 -0.3522
  951MOL0     C28304   0.543   3.661   7.652 -0.3366 -0.0294  0.4105
  951MOL0     C28305   0.672   3.702   7.597 -0.3487 -0.4329 -0.1759
  951MOL0     C28306   0.732   3.825   7.626  0.1448 -0.3424  0.7121
  951MOL0     C28307   0.662   3.922   7.710 -0.5142  0.7328  0.4881
  951MOL0     O28308   0.705   4.045   7.750 -0.1325 -0.3732 -1.0293
  951MOL0     C28309   0.812   4.108   7.668  0.0823 -0.2700  0.9011
  951MOL0     C28310   0.759   4.149   7.530 -0.9900  0.3400 -0.9090
  951MOL0     C28311   0.648   4.254   7.540  0.2865 -0.5723  0.6855
  951MOL0     C28312   0.603   4.307   7.406  0.1379 -0.1638  0.8559
  951MOL0     C28313   0.490   4.396   7.422 -0.0387  0.1781  0.9205
  951MOL0     C28314   0.390   4.470   7.435  0.0477  0.6713  0.8513
  951MOL0     C28315   0.536   3.888   7.767 -0.0893 -0.6586  0.3377
  951MOL0     C28316   0.480   3.753   7.743  0.0221 -0.0110  0.0770
  951MOL0     C28317   0.349   3.721   7.815 -1.1325 -0.3141  0.0933
  951MOL0     H28318   0.509   3.269   7.762  1.0179 -1.5189  0.1198
  951MOL0     H28319   0.441   3.035   7.744 -0.0265 -0.7021  0.4237
  951MOL0     H28320   0.018   2.886   7.641  1.4027  0.2734  0.9934
  951MOL0     H28321   0.074   2.968   7.486  1.2741  1.4690  1.7268
  951MOL0     H28322   0.024   2.713   7.451  0.5824 -1.7312 -1.5995
  951MOL0     H28323   0.140   2.679   7.580  1.0538  0.1844 -0.4435
  951MOL0     H28324   0.306   2.815   7.421 -1.0667  0.6473  0.0933
  951MOL0     H28325   0.175   2.841   7.317 -0.8311 -0.7124 -1.2166
  951MOL0     H28326   0.281   2.569   7.389 -0.3260  0.8653  0.0461
  951MOL0     H28327   0.139   2.602   7.285  0.2165 -1.8975 -0.4401
  951MOL0     H28328   0.369   2.765   7.223  0.2653 -0.2105 -0.3226
  951MOL0     H28329   0.414   2.592   7.191 -0.8711 -0.5254 -0.7805
  951MOL0     H28330   0.254   2.584   7.027  0.7038  0.1256 -1.6703
  951MOL0     H28331   0.169   2.733   7.064  0.9109  3.6549 -3.0758
  951MOL0     H28332   0.464   2.731   6.985  1.6262  2.6435  1.4389
  951MOL0     H28333   0.381   2.874   7.033 -1.0465 -0.4777  1.4645
  951MOL0     H28334   0.216   2.868   6.854  0.5378  1.7874 -0.0315
  951MOL0     H28335   0.372   2.872   6.785  1.5030  0.3421  2.0787
  951MOL0     H28336   0.084   2.647   6.705 -0.1696 -5.9691 -1.1643
  951MOL0     H28337   0.225   2.390   6.458 -0.9569  0.4663 -0.7508
  951MOL0     H28338   0.098   2.351   6.584 -0.5064  0.2915  0.8655
  951MOL0     H28339  -0.018   2.560   6.531  0.6561 -2.1439  1.6131
  951MOL0     H28340   0.104   2.593   6.403  1.4140  0.0203  0.3775
  951MOL0     H28341  -0.120   2.368   6.408 -2.9018  1.8252 -2.1209
  951MOL0     H28342   0.018   2.366   6.306 -2.4316 -1.8024 -1.0519
  951MOL0     H28343  -0.189   2.593   6.330  2.1986  0.0743  0.7832
  951MOL0     H28344  -0.184   2.464   6.213 -1.0424 -0.9687  1.4663
  951MOL0     H28345  -0.278   2.694   6.141  0.2661 -1.2573 -0.6189
  951MOL0     H28346  -0.325   2.855   5.981  0.0403  2.5744  1.6348
  951MOL0     H28347   0.012   3.077   5.493 -1.2802 -1.5814 -1.0902
  951MOL0     H28348  -0.070   3.230   5.327 -0.6731  0.6591  0.1256
  951MOL0     H28349  -0.211   3.354   5.218  2.4626 -0.2619  1.5357
  951MOL0     H28350  -0.250   3.533   5.202  0.6532  0.2895  0.3649
  951MOL0     H28351  -0.013   3.576   5.227  3.4625 -0.8297 -0.3321
  951MOL0     H28352   0.034   3.397   5.237 -3.1856 -2.2273  1.0095
  951MOL0     H28353  -0.057   3.388   4.989  1.9204 -0.6737 -1.2511
  951MOL0     H28354  -0.066   3.569   5.010  0.9881  1.2583  0.4256
  951MOL0     H28355   0.203   3.463   5.091  1.2656  3.5373  1.7756
  951MOL0     H28356   0.150   3.616   5.046 -1.0699  0.4168 -0.7590
  951MOL0     H28357   0.142   3.575   4.818  2.6613  2.0271  1.2280
  951MOL0     H28358   0.111   3.402   4.842 -2.0990  2.1045 -1.3271
  951MOL0     H28359   0.350   3.378   4.915 -1.5223 -0.5347 -0.7538
  951MOL0     H28360   0.323   3.433   4.748 -2.2104  2.8082 -1.2147
  951MOL0     H28361   0.346   3.670   4.831 -2.1393 -1.1381  0.6855
  951MOL0     H28362   0.497   3.570   4.818  0.4862  1.8915  1.4309
  951MOL0     H28363   0.515   3.713   5.012  0.9313  0.1863  4.2965
  951MOL0     H28364   0.375   3.633   5.090  2.2942  0.9688  2.6042
  951MOL0     H28365  -0.185   3.494   5.646 -0.7839 -0.5071  0.2363
  951MOL0     H28366  -0.144   3.305   5.813  1.4371 -1.8842  0.8891
  951MOL0     H28367   0.108   2.908   5.911  1.3511 -1.3476  0.7586
  951MOL0     H28368   0.135   2.736   6.081  0.0041  0.6977  1.2105
  951MOL0     H28369   0.052   3.166   7.611 -0.6992 -0.7951 -0.7340
  951MOL0     H28370   0.121   3.378   7.600  0.8843  1.3550 -2.1824
  951MOL0     H28371   0.725   3.627   7.540  1.4267  1.2750 -0.8958
  951MOL0     H28372   0.829   3.850   7.585  0.0760 -2.2547 -0.7315
  951MOL0     H28373   0.901   4.045   7.656  1.5909  1.3781  2.6336
  951MOL0     H28374   0.843   4.191   7.732  0.5610  0.0117  0.3119
  951MOL0     H28375   0.731   4.070   7.459  0.2761 -2.1197  1.1875
  951MOL0     H28376   0.831   4.201   7.466  0.9692  0.3541  1.1889
  951MOL0     H28377   0.683   4.335   7.605 -0.0682  0.0978  0.0526
  951MOL0     H28378   0.558   4.210   7.584 -0.3735 -2.0897 -1.9401
  951MOL0     H28379   0.690   4.365   7.376  0.3085 -1.2405 -0.9204
  951MOL0     H28380   0.593   4.228   7.331 -2.0611  1.4697 -0.7014
  951MOL0     H28381   0.307   4.537   7.449  0.0164  1.5659 -2.7744
  951MOL0     H28382   0.493   3.961   7.835  2.5401  2.4393 -1.0393
  951MOL0     H28383   0.311   3.808   7.869 -1.2142 -0.3219  0.0487
  951MOL0     H28384   0.283   3.689   7.733  2.4078 -0.4183 -2.9707
  951MOL0     H28385   0.365   3.638   7.884 -0.9962  0.9300  1.5943
  952MOL0     O28386   2.897   6.011   8.823 -0.0760 -0.9628 -0.1315
  952MOL0     C28387   2.953   6.040   8.933 -0.2242 -0.7872  0.2323
  952MOL0     O28388   3.008   6.165   8.956 -0.1163 -0.7250 -0.4569
  952MOL0     C28389   2.976   6.256   8.861  0.0585  0.2360 -0.6422
  952MOL0     C28390   3.081   6.307   8.787 -0.1844  0.2873  1.1869
  952MOL0     C28391   3.063   6.386   8.675  0.3859 -0.4879  0.1820
  952MOL0     C28392   2.933   6.433   8.651 -0.1147  0.4163 -0.0819
  952MOL0     O28393   2.890   6.531   8.569  0.7511  0.0609  0.2311
  952MOL0     C28394   2.955   6.557   8.449  0.1845 -0.0950  0.3442
  952MOL0     C28395   2.954   6.440   8.346  0.3151  0.2247 -0.3339
  952MOL0     C28396   2.821   6.373   8.330 -0.2012 -0.3699 -0.9004
  952MOL0     C28397   2.833   6.214   8.297  0.1930  0.0054 -0.5077
  952MOL0     C28398   2.783   6.129   8.419  0.2814 -0.6045  0.5653
  952MOL0     C28399   2.631   6.140   8.426 -0.2275  0.3658 -0.1522
  952MOL0     C28400   2.586   6.077   8.555  0.4178  0.0451  0.1316
  952MOL0     C28401   2.638   5.933   8.572 -0.4190  0.1847 -0.2454
  952MOL0     N28402   2.566   5.857   8.684 -0.6026  0.9526 -0.3208
  952MOL0     C28403   2.560   5.717   8.698  0.0161 -0.5540 -0.7006
  952MOL0     C28404   2.488   5.694   8.818 -0.5935  0.6104  0.5373
  952MOL0     C28405   2.463   5.566   8.878 -0.3335  0.5102 -0.0571
  952MOL0     C28406   2.573   5.501   8.964  0.0126 -0.3072 -1.0604
  952MOL0     C28407   2.521   5.379   9.042  0.0195 -0.2298 -0.7271
  952MOL0     C28408   2.497   5.243   8.962  0.3613 -0.0334 -0.5089
  952MOL0     O28409   2.493   5.127   9.043 -0.2339  0.2413 -0.4515
  952MOL0     C28410   2.420   5.019   9.000 -0.5447  0.2692  0.8887
  952MOL0     C28411   2.389   4.989   8.863 -1.0192  0.0024  0.5021
  952MOL0     C28412   2.339   4.863   8.829 -0.3207  1.3986  0.8483
  952MOL0     C28413   2.318   4.765   8.919 -0.8780  0.2600  0.2390
  952MOL0     C28414   2.276   4.628   8.891 -1.4708  0.1923 -0.5743
  952MOL0     O28415   2.271   4.541   8.990  0.2540  0.3440  1.2200
  952MOL0     C28416   2.256   4.407   8.954 -0.2928 -0.3064  0.0751
  952MOL0     C28417   2.344   4.304   8.991 -0.9555  0.1756  0.0990
  952MOL0     C28418   2.312   4.163   8.962 -0.6307  0.0507 -0.0974
  952MOL0     C28419   2.188   4.125   8.903 -0.2212  0.1626 -0.3622
  952MOL0     O28420   2.159   3.997   8.860 -0.4277  0.3471  0.1432
  952MOL0     C28421   2.268   3.920   8.801  0.0343  0.1676 -0.4567
  952MOL0     C28422   2.230   3.816   8.694 -1.3160  0.4703 -0.1465
  952MOL0     C28423   2.125   3.715   8.742  0.6664  0.6232  0.2892
  952MOL0     C28424   2.103   3.594   8.653 -0.3352  0.0283 -0.0482
  952MOL0     C28425   2.023   3.482   8.715  0.6518  1.0384  0.1343
  952MOL0     C28426   1.877   3.523   8.752  0.1061 -0.3893  0.1194
  952MOL0     C28427   1.809   3.403   8.808 -0.1293  0.6675  0.5392
  952MOL0     C28428   1.671   3.422   8.863  0.0848  0.7114  0.4018
  952MOL0    Cl28429   1.681   3.541   8.985 -0.1105 -0.2675 -0.3689
  952MOL0     C28430   2.099   4.231   8.875 -0.2972 -0.4104 -0.0970
  952MOL0     C28431   2.130   4.364   8.896  0.8199 -1.0757  0.4124
  952MOL0     O28432   2.254   4.607   8.772  0.2857  0.0058  0.0166
  952MOL0     C28433   2.362   4.794   9.053  0.5971  0.4718  0.4121
  952MOL0     C28434   2.419   4.915   9.090  0.1140  0.4518  0.9424
  952MOL0     N28435   2.473   5.814   8.879 -0.0656  0.3750 -0.4615
  952MOL0     N28436   2.512   5.910   8.800 -0.7584  0.1354 -0.6409
  952MOL0     C28437   2.832   6.386   8.726 -0.2359  0.7140  0.9485
  952MOL0     C28438   2.844   6.288   8.827  0.2245  0.1733  0.1176
  952MOL0     C28439   2.961   5.946   9.040  0.2135  0.9273  0.3834
  952MOL0     C28440   3.031   5.986   9.164  0.2622 -0.8735 -0.0103
  952MOL0     C28441   3.049   5.897   9.264 -0.1533 -0.5893 -0.5307
  952MOL0     C28442   3.016   5.766   9.253 -0.3460 -0.0300 -0.6817
  952MOL0     O28443   3.041   5.668   9.346  0.8765 -0.7800  1.1542
  952MOL0     C28444   3.001   5.705   9.479  0.8061 -0.1256 -0.2450
  952MOL0     C28445   3.033   5.587   9.572  0.0816 -1.2680  0.4296
  952MOL0     C28446   2.968   5.452   9.543  0.2479 -0.8902 -0.3872
  952MOL0     C28447   3.032   5.327   9.595 -0.5033  1.1542 -0.8166
  952MOL0     C28448   3.164   5.297   9.539 -0.0645  0.5416  0.7893
  952MOL0     C28449   3.261   5.274   9.473 -0.1238  0.5276  0.6484
  952MOL0     C28450   2.950   5.718   9.136 -0.7187 -0.1499  0.0295
  952MOL0     C28451   2.918   5.808   9.026 -0.4813 -0.9135  1.1856
  952MOL0     C28452   2.850   5.744   8.904  0.2034  0.4870  0.5829
  952MOL0     H28453   3.183   6.283   8.817  0.6652  2.6152  0.4291
  952MOL0     H28454   3.148   6.412   8.613  0.9650 -2.3614  0.1085
  952MOL0     H28455   2.904   6.643   8.404  0.3874 -0.7829 -1.2908
  952MOL0     H28456   3.057   6.579   8.481  0.3172 -2.3556  1.6942
  952MOL0     H28457   3.026   6.361   8.369 -1.2188 -1.5452 -1.2932
  952MOL0     H28458   2.983   6.485   8.251  0.6134  0.5287 -0.1004
  952MOL0     H28459   2.768   6.418   8.246  0.7504  0.8819 -0.8554
  952MOL0     H28460   2.759   6.384   8.419  1.4611 -0.6654  0.3502
  952MOL0     H28461   2.750   6.190   8.230 -2.1372 -1.8658  2.7199
  952MOL0     H28462   2.935   6.184   8.274 -0.0637 -1.1325 -0.2184
  952MOL0     H28463   2.825   6.030   8.402  4.6236  1.5290 -3.3565
  952MOL0     H28464   2.828   6.167   8.512  0.6263 -0.1418  0.2115
  952MOL0     H28465   2.607   6.246   8.418  0.7749  0.5101 -1.6043
  952MOL0     H28466   2.588   6.091   8.337 -0.5816  1.2880 -0.5014
  952MOL0     H28467   2.478   6.073   8.569  0.4361  2.2593  1.3957
  952MOL0     H28468   2.629   6.136   8.636  1.4711 -1.6317  0.8239
  952MOL0     H28469   2.627   5.883   8.475 -1.6666 -0.0215 -0.0205
  952MOL0     H28470   2.744   5.930   8.598 -0.7686  3.1169  2.0818
  952MOL0     H28471   2.586   5.637   8.630 -3.2343 -1.9427 -0.5085
  952MOL0     H28472   2.382   5.574   8.952 -0.7514 -3.6071  0.2130
  952MOL0     H28473   2.434   5.500   8.796 -1.9932  1.0873  0.0249
  952MOL0     H28474   2.653   5.459   8.902  1.9363  0.1293  1.0164
  952MOL0     H28475   2.629   5.571   9.026  0.6129  0.4263 -2.3915
  952MOL0     H28476   2.429   5.415   9.090  2.3730  2.6245  2.1006
  952MOL0     H28477   2.603   5.346   9.107 -0.2869 -2.8246 -1.5442
  952MOL0     H28478   2.580   5.231   8.893  1.4486  1.2837  0.5147
  952MOL0     H28479   2.404   5.271   8.910  0.4092  2.1823  0.4950
  952MOL0     H28480   2.387   5.064   8.784 -0.8823  1.3759  1.7506
  952MOL0     H28481   2.312   4.839   8.726  1.8904 -2.8290  1.0523
  952MOL0     H28482   2.443   4.325   9.032  0.5315 -4.3144 -0.6196
  952MOL0     H28483   2.385   4.094   9.003  0.0735  1.2564  0.7318
  952MOL0     H28484   2.342   3.987   8.755  4.6736 -1.4308  3.7876
  952MOL0     H28485   2.308   3.865   8.887  3.9127 -0.2398 -2.3250
  952MOL0     H28486   2.201   3.866   8.601  0.2700  0.1423 -0.8504
  952MOL0     H28487   2.324   3.761   8.679  0.2971  2.1854  2.7511
  952MOL0     H28488   2.141   3.691   8.848 -0.8161 -0.8760  0.2162
  952MOL0     H28489   2.027   3.762   8.750  1.2747  1.7863  1.3875
  952MOL0     H28490   2.211   3.577   8.645 -0.2733 -0.2561  1.1909
  952MOL0     H28491   2.056   3.615   8.557 -1.1367  1.3623  0.6099
  952MOL0     H28492   2.073   3.444   8.805  1.1185 -1.7806 -1.2159
  952MOL0     H28493   2.025   3.398   8.645 -0.6571  1.3753 -0.3349
  952MOL0     H28494   1.872   3.602   8.826  1.0624 -0.5355  0.3557
  952MOL0     H28495   1.829   3.559   8.660 -1.8939  0.4896  1.4347
  952MOL0     H28496   1.866   3.347   8.883  0.3634  1.1414  0.5273
  952MOL0     H28497   1.808   3.331   8.726  1.0607  0.9981  0.2091
  952MOL0     H28498   1.595   3.446   8.789 -1.7564  0.9821  2.2668
  952MOL0     H28499   1.638   3.328   8.909 -1.8971  1.3697  0.4313
  952MOL0     H28500   2.000   4.207   8.837  1.3315 -0.3591 -5.1038
  952MOL0     H28501   2.047   4.432   8.880  2.2315  0.4563 -0.8035
  952MOL0     H28502   2.376   4.711   9.121  1.8421 -2.1955 -2.8061
  952MOL0     H28503   2.462   4.929   9.188  0.6818 -1.9040  1.0886
  952MOL0     H28504   2.731   6.424   8.712 -0.8889 -0.8508  1.1976
  952MOL0     H28505   2.755   6.259   8.880 -0.4375 -0.0954 -1.0978
  952MOL0     H28506   3.075   6.085   9.170  2.0659 -1.5725 -0.8096
  952MOL0     H28507   3.099   5.925   9.357  4.0498  1.4532 -3.1187
  952MOL0     H28508   2.892   5.710   9.474  0.7303  0.5982  1.3763
  952MOL0     H28509   3.052   5.792   9.522  3.0644 -2.4460  2.1698
  952MOL0     H28510   3.005   5.619   9.672  0.2857  0.6896 -0.0939
  952MOL0     H28511   3.141   5.572   9.559  0.1745  1.0520 -2.8332
  952MOL0     H28512   2.960   5.441   9.434 -1.9020 -2.7617 -0.1042
  952MOL0     H28513   2.866   5.441   9.581 -0.3876  1.6489 -1.1324
  952MOL0     H28514   3.030   5.332   9.705 -0.4196 -2.8165 -0.5037
  952MOL0     H28515   2.973   5.240   9.564  0.8985  1.1990 -3.9248
  952MOL0     H28516   3.337   5.241   9.405  0.2979 -0.4406  1.5684
  952MOL0     H28517   2.920   5.613   9.139 -1.4240  0.0714  1.2026
  952MOL0     H28518   2.907   5.743   8.811  0.5501 -0.3351  0.7947
  952MOL0     H28519   2.841   5.637   8.922 -1.3446  0.4784 -0.0362
  952MOL0     H28520   2.753   5.792   8.888 -0.1495 -0.8352 -1.5507
  953MOL0     O28521   3.678   5.217   3.270  0.1354  0.4218  0.0776
  953MOL0     C28522   3.601   5.312   3.275  1.2393 -0.5922 -0.4806
  953MOL0     O28523   3.636   5.435   3.327 -0.6792 -0.6308  0.1473
  953MOL0     C28524   3.773   5.472   3.302 -0.9981  0.7240  0.2842
  953MOL0     C28525   3.852   5.517   3.407  0.2481  0.2245  0.5355
  953MOL0     C28526   3.986   5.565   3.387  0.1449  0.3176  0.0362
  953MOL0     C28527   4.042   5.564   3.260  0.1983  0.1710  0.8940
  953MOL0     O28528   4.171   5.607   3.256  0.4473 -0.4124 -0.3400
  953MOL0     C28529   4.245   5.593   3.133  0.3664 -0.6767 -0.6285
  953MOL0     C28530   4.395   5.640   3.171  1.4922 -0.3698 -0.7685
  953MOL0     C28531   4.491   5.580   3.070 -0.6822 -0.4747  0.1390
  953MOL0     C28532   4.633   5.633   3.084  0.0443  0.4443  0.3969
  953MOL0     C28533   4.653   5.759   2.997 -0.2563  0.0770 -0.0099
  953MOL0     C28534   4.801   5.817   3.008 -0.0930 -0.5688  0.0556
  953MOL0     C28535   4.819   5.935   2.906  0.4743 -0.5387  0.6984
  953MOL0     C28536   4.733   6.058   2.943 -0.8205 -0.0048 -0.2771
  953MOL0     N28537   4.767   6.100   3.078 -0.2982 -0.0511 -1.0609
  953MOL0     C28538   4.884   6.158   3.114 -0.4963  0.4596 -0.6863
  953MOL0     C28539   4.858   6.178   3.250  0.6653  0.8915 -0.5011
  953MOL0     C28540   4.949   6.258   3.337  0.4251  0.0252 -0.5469
  953MOL0     C28541   4.873   6.356   3.430 -0.6049 -0.3982  1.1771
  953MOL0     C28542   4.801   6.286   3.543  0.1513 -0.2173  0.0549
  953MOL0     C28543   4.804   6.385   3.671  0.6203  1.1695 -0.0310
  953MOL0     O28544   4.787   6.312   3.797 -0.0706 -0.3566  0.4013
  953MOL0     C28545   4.889   6.238   3.852 -0.6064 -0.5797 -0.5984
  953MOL0     C28546   4.874   6.104   3.890  1.1161  1.1442  0.0411
  953MOL0     C28547   4.974   6.037   3.950  1.1171 -0.1872 -0.0271
  953MOL0     C28548   5.088   6.102   3.989 -1.1096 -0.7043 -0.7120
  953MOL0     C28549   5.202   6.018   4.045  0.4591  0.5408  0.0300
  953MOL0     O28550   5.169   5.892   4.094 -0.1100  0.3555  0.1694
  953MOL0     C28551   5.264   5.810   4.149  0.4743  0.5091 -0.5844
  953MOL0     C28552   5.402   5.812   4.132  0.8086 -0.3116 -1.0598
  953MOL0     C28553   5.480   5.721   4.196  0.9830  0.9878 -0.3024
  953MOL0     C28554   5.423   5.605   4.268 -0.6123 -0.2011  0.1827
  953MOL0     O28555   5.502   5.494   4.307  0.3516 -0.1009 -0.5198
  953MOL0     C28556   5.469   5.407   4.420  0.1187 -0.0467  0.0243
  953MOL0     C28557   5.588   5.302   4.427 -0.0613  0.0600  0.2096
  953MOL0     C28558   5.551   5.197   4.532 -0.2642 -0.0994 -0.3701
  953MOL0     C28559   5.646   5.077   4.531  0.7724  0.2452  0.3961
  953MOL0     C28560   5.609   4.993   4.653 -0.4792 -0.4685  0.3395
  953MOL0     C28561   5.695   4.871   4.673  0.3934  0.2679 -0.5027
  953MOL0     C28562   5.747   4.851   4.816  0.5693 -0.5838  0.7772
  953MOL0     C28563   5.853   4.742   4.806  0.3758  0.6090  0.3184
  953MOL0    Cl28564   5.907   4.696   4.971 -0.0212 -0.2210  0.3604
  953MOL0     C28565   5.283   5.611   4.292 -0.9944 -0.8425  0.8537
  953MOL0     C28566   5.212   5.712   4.232  0.8044  0.2939  0.0695
  953MOL0     O28567   5.314   6.064   4.046  0.2992  0.3327 -0.6306
  953MOL0     C28568   5.105   6.244   3.964  1.0118 -0.5627 -0.1918
  953MOL0     C28569   4.999   6.301   3.897  0.1562 -0.4174 -0.1298
  953MOL0     N28570   4.746   6.094   3.292 -0.2793  0.0838  0.5862
  953MOL0     N28571   4.693   6.055   3.185  0.3013  0.0790 -0.4176
  953MOL0     C28572   3.959   5.507   3.145 -0.3563  0.9225 -0.5531
  953MOL0     C28573   3.830   5.474   3.174  0.4168 -0.3147  0.4687
  953MOL0     C28574   3.461   5.281   3.241  0.9904 -0.0907 -0.7697
  953MOL0     C28575   3.438   5.170   3.162  0.5082 -1.2994 -0.1208
  953MOL0     C28576   3.310   5.148   3.111 -0.8361 -0.0645 -0.1714
  953MOL0     C28577   3.205   5.232   3.158  1.0622  1.1760 -0.9749
  953MOL0     O28578   3.079   5.213   3.098 -0.1439 -0.1002 -0.2810
  953MOL0     C28579   2.979   5.153   3.179 -0.6808 -0.3833 -0.1293
  953MOL0     C28580   2.843   5.181   3.106  0.0526  0.0678 -0.3491
  953MOL0     C28581   2.856   5.148   2.949 -0.9851 -0.5018  0.4500
  953MOL0     C28582   2.725   5.112   2.871 -0.4314  1.0244 -0.2150
  953MOL0     C28583   2.651   5.008   2.941 -0.2707  0.3171  0.4021
  953MOL0     C28584   2.598   4.933   3.018  0.6073  0.0888 -1.0242
  953MOL0     C28585   3.229   5.336   3.243  0.9576  0.0097 -0.1565
  953MOL0     C28586   3.358   5.373   3.282 -0.6948  0.4412  0.2188
  953MOL0     C28587   3.375   5.478   3.389  0.0407  0.0571 -0.1532
  953MOL0     H28588   3.813   5.525   3.508 -1.2263  1.4985 -0.1021
  953MOL0     H28589   4.045   5.610   3.466  0.1497  2.1747 -0.9765
  953MOL0     H28590   4.246   5.496   3.083  0.1562 -1.1939  0.3366
  953MOL0     H28591   4.203   5.667   3.065  0.2518  0.8827  1.0518
  953MOL0     H28592   4.419   5.612   3.274  0.7294  1.6180  0.0013
  953MOL0     H28593   4.408   5.749   3.175  3.4649 -0.4703 -2.5939
  953MOL0     H28594   4.448   5.579   2.969 -0.9429 -2.3278  0.2376
  953MOL0     H28595   4.505   5.483   3.119 -0.8802  0.4803  2.1780
  953MOL0     H28596   4.656   5.657   3.189  0.4043  0.4582  0.3151
  953MOL0     H28597   4.701   5.556   3.045 -0.6168 -1.0472  2.0179
  953MOL0     H28598   4.644   5.729   2.892  1.0794 -1.0871  0.1655
  953MOL0     H28599   4.573   5.830   3.019  1.1907  1.2751  1.6702
  953MOL0     H28600   4.822   5.845   3.112 -3.5887  0.0169  0.7297
  953MOL0     H28601   4.868   5.735   2.979 -1.7302 -1.4054 -1.5711
  953MOL0     H28602   4.799   5.912   2.801 -0.2938 -1.8200  1.1069
  953MOL0     H28603   4.925   5.962   2.913  0.3054  0.0174  1.2467
  953MOL0     H28604   4.769   6.139   2.879  3.1974 -0.9231  0.5662
  953MOL0     H28605   4.628   6.028   2.938  0.0743 -3.5907 -0.1776
  953MOL0     H28606   4.960   6.209   3.056 -0.8773  0.7600 -0.9206
  953MOL0     H28607   4.991   6.185   3.406 -2.0693 -0.5879  0.4094
  953MOL0     H28608   5.025   6.312   3.279  0.7284 -0.1019 -0.2697
  953MOL0     H28609   4.938   6.431   3.476  1.6383 -1.8106  0.4903
  953MOL0     H28610   4.804   6.418   3.372  2.0817  0.6296 -1.1784
  953MOL0     H28611   4.840   6.188   3.573 -1.3312 -0.3539  1.7370
  953MOL0     H28612   4.701   6.284   3.499  0.0992 -1.3409  0.1900
  953MOL0     H28613   4.722   6.453   3.646 -0.0344 -0.7297 -3.7453
  953MOL0     H28614   4.889   6.452   3.685  1.7376 -0.3360  0.6976
  953MOL0     H28615   4.781   6.052   3.868  1.5861 -0.6728  2.0745
  953MOL0     H28616   4.956   5.930   3.942 -0.2346  0.1667 -4.1159
  953MOL0     H28617   5.459   5.885   4.076  2.9527 -0.7182  0.4688
  953MOL0     H28618   5.586   5.715   4.173  0.9168 -1.8739 -0.2945
  953MOL0     H28619   5.463   5.461   4.515 -1.0055 -1.5549  0.8525
  953MOL0     H28620   5.379   5.346   4.410  0.7231 -1.5196  2.6600
  953MOL0     H28621   5.581   5.249   4.331 -1.4744 -1.0255  0.8799
  953MOL0     H28622   5.686   5.349   4.433 -0.0160  1.2061 -4.7169
  953MOL0     H28623   5.545   5.248   4.628 -1.1358 -0.2401 -0.3399
  953MOL0     H28624   5.448   5.166   4.510 -1.7269  2.9419  1.5021
  953MOL0     H28625   5.750   5.111   4.526  0.6415  0.6147  0.1564
  953MOL0     H28626   5.622   5.014   4.445  0.0458 -0.7473  1.2917
  953MOL0     H28627   5.504   4.963   4.650 -0.9525  0.7017  2.7020
  953MOL0     H28628   5.629   5.057   4.740 -0.2502 -2.0567  1.5085
  953MOL0     H28629   5.636   4.784   4.644 -1.4720  1.6254 -0.9463
  953MOL0     H28630   5.770   4.880   4.593 -0.2775  1.4981 -1.0209
  953MOL0     H28631   5.665   4.832   4.885 -2.1467 -1.1073 -2.3575
  953MOL0     H28632   5.809   4.937   4.845 -0.6662  0.1793  1.2137
  953MOL0     H28633   5.796   4.654   4.774  1.7819 -1.1023  2.2330
  953MOL0     H28634   5.928   4.772   4.732 -1.4000 -1.6092 -2.6311
  953MOL0     H28635   5.224   5.543   4.352 -1.5803  1.3900  2.9389
  953MOL0     H28636   5.110   5.715   4.267  1.0024 -2.4942  1.1053
  953MOL0     H28637   5.194   6.296   3.999  1.1502  0.2314 -1.6392
  953MOL0     H28638   4.995   6.407   3.874 -1.6676 -0.3429  0.3845
  953MOL0     H28639   4.003   5.494   3.047  1.5668  1.2891  0.2321
  953MOL0     H28640   3.763   5.453   3.092 -1.4783  0.3661  1.7696
  953MOL0     H28641   3.520   5.118   3.113  0.1872 -2.6334  0.6929
  953MOL0     H28642   3.299   5.071   3.035 -0.2265  0.2309 -0.5694
  953MOL0     H28643   2.981   5.214   3.270 -1.6327  1.1079 -1.0735
  953MOL0     H28644   2.988   5.045   3.193 -1.3403 -0.2307  1.6873
  953MOL0     H28645   2.822   5.287   3.120  1.1170  0.2545 -0.0597
  953MOL0     H28646   2.762   5.122   3.152 -0.7853  0.7684 -0.9043
  953MOL0     H28647   2.923   5.062   2.947  0.2121  0.4120 -0.0974
  953MOL0     H28648   2.906   5.227   2.893 -0.8761 -0.9147 -0.0419
  953MOL0     H28649   2.664   5.199   2.844 -1.8036  0.1465 -0.0814
  953MOL0     H28650   2.769   5.086   2.774  0.2721  1.8530 -0.1229
  953MOL0     H28651   2.553   4.855   3.075  1.1561  0.5643  0.0889
  953MOL0     H28652   3.141   5.386   3.284 -0.1154 -2.4956  0.8073
  953MOL0     H28653   3.288   5.517   3.442  0.5797  1.0039  0.0538
  953MOL0     H28654   3.441   5.442   3.469 -2.7011 -1.7250  1.4842
  953MOL0     H28655   3.423   5.560   3.336  2.7235  0.5025  2.6731
  954MOL0     O28656   8.502   6.921   5.887 -0.3982  0.1597  0.2467
  954MOL0     C28657   8.575   6.820   5.887  0.7447 -0.2104  0.7217
  954MOL0     O28658   8.578   6.720   5.792  0.2847  0.5428  0.1026
  954MOL0     C28659   8.499   6.730   5.681  0.2688 -0.4190 -0.3106
  954MOL0     C28660   8.553   6.719   5.558  0.1811  0.6493 -0.4081
  954MOL0     C28661   8.450   6.732   5.457  0.0700  0.0974  0.0131
  954MOL0     C28662   8.313   6.723   5.467 -0.2367  0.0720  1.9254
  954MOL0     O28663   8.219   6.708   5.366  0.8101 -0.2821  0.3165
  954MOL0     C28664   8.175   6.570   5.335  0.9741  0.2391  0.4766
  954MOL0     C28665   8.128   6.563   5.185 -0.1021  0.4464 -0.7776
  954MOL0     C28666   7.994   6.640   5.170 -0.5482 -0.1142 -0.1930
  954MOL0     C28667   7.935   6.658   5.027  1.0231  0.8049  0.9516
  954MOL0     C28668   7.801   6.720   5.006  0.4460 -0.4952  0.0432
  954MOL0     C28669   7.678   6.659   5.083 -0.1187 -0.2449  1.2627
  954MOL0     C28670   7.674   6.509   5.059  0.0912 -0.7997  0.4949
  954MOL0     C28671   7.535   6.448   5.099  0.6111 -0.0836 -0.1480
  954MOL0     N28672   7.537   6.302   5.107  0.5891  0.5206 -0.7088
  954MOL0     C28673   7.571   6.237   5.225  0.2958  0.1869  0.0020
  954MOL0     C28674   7.583   6.110   5.195 -0.1399 -0.8733 -0.8623
  954MOL0     C28675   7.615   6.003   5.293 -0.1156 -0.1283  0.5747
  954MOL0     C28676   7.517   6.007   5.407  0.0752  0.7538  0.6068
  954MOL0     C28677   7.524   5.880   5.486  0.0603 -0.0275  0.0878
  954MOL0     C28678   7.644   5.881   5.592 -0.5653  0.5616 -0.1928
  954MOL0     O28679   7.639   5.998   5.667 -0.1700  0.3978  0.0190
  954MOL0     C28680   7.740   6.022   5.755 -0.5242 -0.9103 -0.2454
  954MOL0     C28681   7.856   5.948   5.756 -0.4570 -0.0503  0.6034
  954MOL0     C28682   7.968   5.978   5.838  0.4325  0.0435  0.2593
  954MOL0     C28683   7.968   6.090   5.922 -0.3923  0.7111 -0.3279
  954MOL0     C28684   8.084   6.133   6.005 -0.3288 -0.1339  0.8010
  954MOL0     O28685   8.085   6.259   6.042 -0.1273 -0.2063 -0.3748
  954MOL0     C28686   8.177   6.303   6.139  0.2419 -1.0943 -0.5232
  954MOL0     C28687   8.222   6.438   6.135  0.5878  0.0999 -0.0616
  954MOL0     C28688   8.317   6.491   6.227 -0.1296 -0.2185  0.1311
  954MOL0     C28689   8.335   6.410   6.342 -0.1001  1.1356 -0.1571
  954MOL0     O28690   8.411   6.454   6.446 -0.2512 -0.1669  0.2492
  954MOL0     C28691   8.550   6.485   6.395  1.3298  0.3189 -0.7317
  954MOL0     C28692   8.631   6.362   6.351  0.1148  0.3028  0.0835
  954MOL0     C28693   8.649   6.262   6.462  0.7725  0.2066 -0.1315
  954MOL0     C28694   8.703   6.130   6.412  0.2069 -0.2083  0.7243
  954MOL0     C28695   8.847   6.150   6.359 -0.1115  0.1115  0.2414
  954MOL0     C28696   8.913   6.019   6.338  0.7272  0.9120 -1.0911
  954MOL0     C28697   9.050   6.034   6.258 -0.3931 -0.5685  0.4488
  954MOL0     C28698   9.156   6.116   6.343  0.3195  0.6197 -0.0443
  954MOL0    Cl28699   9.188   6.059   6.502  0.1740 -0.0918  0.5219
  954MOL0     C28700   8.284   6.278   6.355  0.4945 -0.1292  0.2134
  954MOL0     C28701   8.201   6.229   6.255 -0.0707  0.3341  0.1296
  954MOL0     O28702   8.179   6.052   6.023  0.1225 -0.8339  0.2057
  954MOL0     C28703   7.837   6.163   5.922 -0.4688 -0.3779  0.4311
  954MOL0     C28704   7.725   6.133   5.844 -0.4419  0.7539 -1.1977
  954MOL0     N28705   7.550   6.102   5.061 -0.1282  0.2948 -0.0668
  954MOL0     N28706   7.513   6.214   5.012  0.4997 -0.4405  0.4117
  954MOL0     C28707   8.268   6.736   5.600 -0.0164 -0.1894  0.5923
  954MOL0     C28708   8.357   6.740   5.709 -0.6740 -1.0178  0.3656
  954MOL0     C28709   8.683   6.811   5.995 -0.1446 -0.2500  0.3664
  954MOL0     C28710   8.791   6.706   5.973  0.4873  0.5600  0.4492
  954MOL0     C28711   8.900   6.702   6.062  0.0314  0.1653  0.3173
  954MOL0     C28712   8.906   6.784   6.175  0.0891 -0.5282  0.2703
  954MOL0     O28713   9.013   6.775   6.259  0.0686  0.6431  0.3283
  954MOL0     C28714   9.022   6.644   6.319 -0.0922 -0.9485  0.4749
  954MOL0     C28715   9.023   6.656   6.471 -0.2133  0.1120 -0.3966
  954MOL0     C28716   9.058   6.533   6.542 -0.1965 -0.4189  0.1601
  954MOL0     C28717   9.082   6.540   6.696  0.3075  1.0948  0.7329
  954MOL0     C28718   8.984   6.621   6.762  0.2319  0.6380  0.2921
  954MOL0     C28719   8.889   6.687   6.802 -0.0156 -1.5417  0.2373
  954MOL0     C28720   8.802   6.870   6.206 -0.4994  0.1949 -0.6193
  954MOL0     C28721   8.682   6.870   6.127 -0.9383  0.1412  0.1225
  954MOL0     C28722   8.573   6.961   6.169  0.7420 -0.6269 -0.1876
  954MOL0     H28723   8.661   6.728   5.549  0.2054 -0.0819 -0.9617
  954MOL0     H28724   8.483   6.734   5.354 -2.1638 -1.0872 -0.8011
  954MOL0     H28725   8.265   6.515   5.364  2.2994  1.6714 -0.7647
  954MOL0     H28726   8.095   6.541   5.403  1.0294 -4.1180 -0.9988
  954MOL0     H28727   8.116   6.461   5.149 -1.2575 -0.6902  2.4529
  954MOL0     H28728   8.212   6.620   5.143  1.4823 -1.6612 -0.6424
  954MOL0     H28729   8.001   6.737   5.219 -3.6864  0.4225 -0.6412
  954MOL0     H28730   7.919   6.582   5.225  1.2135  0.6304  3.3176
  954MOL0     H28731   8.002   6.714   4.962  0.6764 -2.4811 -2.5676
  954MOL0     H28732   7.930   6.562   4.976  1.0765  2.3334 -2.1281
  954MOL0     H28733   7.808   6.825   5.033  0.3003 -0.1572 -1.1641
  954MOL0     H28734   7.786   6.721   4.897 -0.8312 -0.2090  0.2131
  954MOL0     H28735   7.681   6.684   5.189 -0.5554 -0.0002  1.2223
  954MOL0     H28736   7.594   6.708   5.032  1.8687  4.9971  2.4084
  954MOL0     H28737   7.753   6.457   5.113  1.4552 -0.7247 -1.3037
  954MOL0     H28738   7.693   6.488   4.953 -1.0826 -0.8850  0.2878
  954MOL0     H28739   7.519   6.467   5.206 -2.5015 -0.5323 -0.4533
  954MOL0     H28740   7.449   6.484   5.042 -0.7972  0.0822  1.9614
  954MOL0     H28741   7.598   6.285   5.318 -1.4976 -0.2461  0.7835
  954MOL0     H28742   7.593   5.908   5.242  0.2221  0.6084 -1.0091
  954MOL0     H28743   7.719   6.003   5.328 -0.3659 -4.8157  2.0115
  954MOL0     H28744   7.530   6.099   5.465 -0.4603  0.7367  0.7673
  954MOL0     H28745   7.415   6.020   5.368  0.5555  2.6642 -0.1288
  954MOL0     H28746   7.540   5.795   5.418 -1.2427 -1.6462  1.7222
  954MOL0     H28747   7.427   5.863   5.533 -2.0157 -2.9963 -4.4899
  954MOL0     H28748   7.738   5.868   5.539 -2.1638 -2.0059 -2.6652
  954MOL0     H28749   7.635   5.792   5.655 -0.7466  1.4157  1.0469
  954MOL0     H28750   7.862   5.850   5.710 -4.0284 -0.4500  0.7760
  954MOL0     H28751   8.057   5.917   5.826  2.2655  2.5290  0.4387
  954MOL0     H28752   8.177   6.487   6.049  1.1787 -1.8687 -1.5629
  954MOL0     H28753   8.353   6.593   6.215 -0.8034  0.4582  3.0373
  954MOL0     H28754   8.546   6.564   6.320 -3.0209  2.7338  1.6461
  954MOL0     H28755   8.612   6.520   6.479  0.1641  0.8253 -0.0649
  954MOL0     H28756   8.580   6.317   6.265 -0.0922  1.1584 -0.2559
  954MOL0     H28757   8.728   6.390   6.310  1.3017 -1.1621  1.7839
  954MOL0     H28758   8.711   6.307   6.540 -2.3753  0.6234  2.3692
  954MOL0     H28759   8.549   6.243   6.503 -0.5227  1.6612 -2.4191
  954MOL0     H28760   8.646   6.104   6.322 -0.8558  5.1976 -0.5180
  954MOL0     H28761   8.690   6.064   6.499  0.4221  2.6091  3.0540
  954MOL0     H28762   8.912   6.215   6.417  2.3397 -0.2856 -1.9002
  954MOL0     H28763   8.839   6.191   6.258 -1.6135 -1.1823 -0.2217
  954MOL0     H28764   8.933   5.978   6.437 -2.0197  4.0247  0.9823
  954MOL0     H28765   8.853   5.953   6.275 -0.5848  1.8553 -0.8837
  954MOL0     H28766   9.037   6.079   6.159 -1.9112 -3.1072 -0.6210
  954MOL0     H28767   9.110   5.944   6.241 -0.6727 -1.0137  1.7397
  954MOL0     H28768   9.244   6.127   6.279  1.5772 -0.4525  1.4421
  954MOL0     H28769   9.131   6.221   6.358 -1.0726  0.7912 -2.9238
  954MOL0     H28770   8.315   6.224   6.444  0.1015 -1.6911 -0.5525
  954MOL0     H28771   8.170   6.125   6.267  1.6123 -0.1115  0.8586
  954MOL0     H28772   7.818   6.242   5.995 -0.4146  0.5674 -0.5529
  954MOL0     H28773   7.628   6.180   5.854 -0.7268 -0.1217  0.6996
  954MOL0     H28774   8.161   6.733   5.614 -0.0192 -0.6286  0.4864
  954MOL0     H28775   8.310   6.735   5.807 -1.9198 -0.7161 -0.2006
  954MOL0     H28776   8.797   6.640   5.887  0.2267 -1.2304  1.7533
  954MOL0     H28777   8.984   6.635   6.047 -0.6029 -0.6651  0.4292
  954MOL0     H28778   9.117   6.599   6.291  1.7010  1.2651  2.4872
  954MOL0     H28779   8.939   6.585   6.281 -1.9921  0.6856  1.8569
  954MOL0     H28780   8.925   6.695   6.502 -0.8515 -0.4104 -1.6921
  954MOL0     H28781   9.097   6.734   6.490 -1.2498  0.9439  0.3911
  954MOL0     H28782   9.153   6.492   6.506 -0.1820 -0.5005  0.2904
  954MOL0     H28783   8.987   6.453   6.522 -0.8208 -0.5106  2.5144
  954MOL0     H28784   9.061   6.439   6.733 -0.0965  1.9672  3.1118
  954MOL0     H28785   9.178   6.587   6.720  0.5322  2.0040 -1.6476
  954MOL0     H28786   8.817   6.757   6.841  1.3817 -1.4153  2.8498
  954MOL0     H28787   8.801   6.927   6.299  0.6858  0.0966 -0.5334
  954MOL0     H28788   8.476   6.911   6.166 -0.7559  2.1104 -1.9100
  954MOL0     H28789   8.583   7.006   6.268 -1.4002 -2.4629  0.9501
  954MOL0     H28790   8.564   7.050   6.105 -2.5024 -0.0630  0.8535
  955MOL0     O28791   1.385   0.387   2.265  0.3318  0.1095  0.1666
  955MOL0     C28792   1.427   0.314   2.355 -0.0323  0.4759 -0.3663
  955MOL0     O28793   1.376   0.178   2.377  0.2436 -0.8111 -0.0105
  955MOL0     C28794   1.332   0.117   2.258 -0.4628  0.6233 -0.3740
  955MOL0     C28795   1.197   0.086   2.235  0.4837  0.5472  0.8558
  955MOL0     C28796   1.154   0.001   2.130 -0.5772 -0.3740 -0.4291
  955MOL0     C28797   1.251  -0.033   2.033 -0.8617  0.1480  0.4206
  955MOL0     O28798   1.219  -0.108   1.916  0.3878 -0.2986  0.2423
  955MOL0     C28799   1.257  -0.243   1.923 -0.1765  0.2251 -1.1815
  955MOL0     C28800   1.135  -0.336   1.910 -0.4865  0.2593  0.1114
  955MOL0     C28801   1.081  -0.353   1.771  0.3400  0.0953 -0.1146
  955MOL0     C28802   0.973  -0.466   1.774  0.4628 -0.8255  0.3961
  955MOL0     C28803   0.901  -0.475   1.636 -0.5352  0.9069 -0.2973
  955MOL0     C28804   0.769  -0.539   1.631 -0.6488  0.3791  0.3881
  955MOL0     C28805   0.760  -0.679   1.703 -0.2181  0.0556  0.3126
  955MOL0     C28806   0.637  -0.752   1.661 -0.5619 -0.3415  0.6715
  955MOL0     N28807   0.586  -0.853   1.753 -0.5261  0.2629  0.6593
  955MOL0     C28808   0.584  -0.991   1.743  0.8091 -0.1112  0.6287
  955MOL0     C28809   0.502  -1.045   1.844  0.1254 -0.2225 -0.0265
  955MOL0     C28810   0.521  -1.187   1.891 -0.2187 -0.2847  0.5708
  955MOL0     C28811   0.607  -1.188   2.016  0.4075  0.6071  1.3217
  955MOL0     C28812   0.537  -1.128   2.145 -0.3323 -0.6049 -0.4750
  955MOL0     C28813   0.650  -1.087   2.242 -0.2618 -0.1504 -1.9300
  955MOL0     O28814   0.599  -1.021   2.356  0.1255  0.3014 -0.0810
  955MOL0     C28815   0.534  -1.095   2.450  0.0607  0.5293 -0.8136
  955MOL0     C28816   0.524  -1.238   2.460  0.1782 -0.3871 -0.8886
  955MOL0     C28817   0.467  -1.300   2.563  0.0802  0.2344  0.1166
  955MOL0     C28818   0.402  -1.230   2.665 -0.4232  0.1679  0.1687
  955MOL0     C28819   0.346  -1.299   2.782  0.1969 -0.5273  0.4224
  955MOL0     O28820   0.362  -1.434   2.789  0.0834  0.3054 -0.1729
  955MOL0     C28821   0.295  -1.507   2.891  0.5503 -0.0389  0.7477
  955MOL0     C28822   0.358  -1.627   2.908 -0.2908  1.2249 -0.5575
  955MOL0     C28823   0.310  -1.713   3.006 -0.9695  0.4760 -0.0849
  955MOL0     C28824   0.220  -1.682   3.096 -0.2656  0.0671  0.7641
  955MOL0     O28825   0.176  -1.790   3.168 -0.0358 -0.3107  0.6043
  955MOL0     C28826   0.060  -1.789   3.254  0.1148  0.5968 -0.2746
  955MOL0     C28827   0.092  -1.777   3.403  0.2407  0.2173 -0.0993
  955MOL0     C28828   0.146  -1.913   3.454 -0.1400  0.3122 -0.1176
  955MOL0     C28829   0.177  -1.908   3.606 -0.5214 -0.1221 -0.1951
  955MOL0     C28830   0.061  -1.973   3.690 -0.6933  0.2232 -0.0113
  955MOL0     C28831   0.089  -1.958   3.849  0.0889  1.2857  1.2065
  955MOL0     C28832   0.194  -2.062   3.894  0.5881 -0.2395  1.2222
  955MOL0     C28833   0.235  -2.045   4.042  0.2906  0.6046 -0.3944
  955MOL0    Cl28834   0.368  -2.170   4.073 -0.0171  0.2416 -0.0160
  955MOL0     C28835   0.156  -1.560   3.085 -0.2060  0.0720 -0.7534
  955MOL0     C28836   0.189  -1.470   2.981 -1.3307  0.0273 -0.8373
  955MOL0     O28837   0.296  -1.225   2.866  0.0585 -0.4440  1.3454
  955MOL0     C28838   0.397  -1.093   2.647 -0.6644 -1.2026 -1.1942
  955MOL0     C28839   0.472  -1.029   2.548  0.5452  0.3310 -0.6923
  955MOL0     N28840   0.447  -0.931   1.907 -0.8608  0.4251 -0.4603
  955MOL0     N28841   0.497  -0.822   1.854 -0.2440  0.0698  0.2526
  955MOL0     C28842   1.385   0.002   2.045 -0.3811  0.4201  0.2397
  955MOL0     C28843   1.420   0.080   2.151 -0.0631 -0.3381 -1.1323
  955MOL0     C28844   1.542   0.368   2.439 -0.1056  0.5483 -0.2441
  955MOL0     C28845   1.593   0.277   2.533  0.6158 -0.5537 -0.7768
  955MOL0     C28846   1.678   0.318   2.634 -0.3098  0.3991 -0.8038
  955MOL0     C28847   1.715   0.447   2.645  0.5700 -0.8942  0.2712
  955MOL0     O28848   1.771   0.490   2.762 -1.0422  0.0962  0.2147
  955MOL0     C28849   1.905   0.525   2.769  0.2280 -0.6285 -0.4338
  955MOL0     C28850   1.996   0.430   2.709  0.4747 -0.1498  0.0469
  955MOL0     C28851   2.140   0.488   2.734 -0.5100 -0.4892  0.3189
  955MOL0     C28852   2.174   0.629   2.680  0.1391 -0.5299 -0.1268
  955MOL0     C28853   2.124   0.651   2.542 -0.6390  0.3104  0.6821
  955MOL0     C28854   2.077   0.683   2.434 -0.0470 -0.2966  0.6437
  955MOL0     C28855   1.672   0.538   2.542 -0.2006 -0.4338 -0.9148
  955MOL0     C28856   1.593   0.499   2.447  0.2562 -1.3128  1.0247
  955MOL0     C28857   1.538   0.603   2.352  1.2487 -0.3334  0.3273
  955MOL0     H28858   1.131   0.126   2.312  0.5671  0.0425  1.1914
  955MOL0     H28859   1.052  -0.038   2.125 -0.1893 -2.1115  2.5880
  955MOL0     H28860   1.338  -0.275   1.856  1.1695  0.2708  0.3641
  955MOL0     H28861   1.298  -0.264   2.022 -0.9324 -0.7205 -1.0470
  955MOL0     H28862   1.055  -0.292   1.971 -0.3179  0.0306  0.5039
  955MOL0     H28863   1.167  -0.429   1.958 -0.3004 -0.3263 -1.1322
  955MOL0     H28864   1.163  -0.387   1.707  0.6081  0.7224 -0.1167
  955MOL0     H28865   1.043  -0.255   1.739  1.5675  1.5864  2.6319
  955MOL0     H28866   1.016  -0.560   1.809 -2.0084 -1.0503  3.1920
  955MOL0     H28867   0.904  -0.437   1.854  1.4710  1.5891  0.4679
  955MOL0     H28868   0.893  -0.372   1.599  0.6778  0.7119 -1.1952
  955MOL0     H28869   0.969  -0.527   1.567 -0.2058  2.5405 -1.2691
  955MOL0     H28870   0.689  -0.471   1.661 -1.7621 -1.1578  0.9670
  955MOL0     H28871   0.757  -0.562   1.525 -1.4712  0.0117  0.5528
  955MOL0     H28872   0.762  -0.677   1.812 -1.2575 -4.6792  0.6051
  955MOL0     H28873   0.850  -0.738   1.682 -0.3395 -1.0090  2.5364
  955MOL0     H28874   0.560  -0.674   1.655 -0.0365  0.1785  0.5699
  955MOL0     H28875   0.642  -0.786   1.557  0.1257  0.6811  0.3589
  955MOL0     H28876   0.654  -1.046   1.682 -1.0885 -2.9004  0.7588
  955MOL0     H28877   0.426  -1.239   1.901  0.4945 -1.5329  1.0241
  955MOL0     H28878   0.566  -1.249   1.813 -1.2620  0.3437 -0.5677
  955MOL0     H28879   0.646  -1.288   2.037  0.3087  0.6055  1.4954
  955MOL0     H28880   0.694  -1.127   1.991 -0.3829  0.6277 -1.8606
  955MOL0     H28881   0.482  -1.209   2.195  3.1526 -2.0870  1.3377
  955MOL0     H28882   0.482  -1.037   2.121 -0.6956 -0.6209  0.2629
  955MOL0     H28883   0.735  -1.027   2.209  0.6426 -0.6981 -0.6639
  955MOL0     H28884   0.701  -1.181   2.261  4.3441  2.1009 -1.7686
  955MOL0     H28885   0.575  -1.298   2.385  0.1412 -3.4913  1.3470
  955MOL0     H28886   0.455  -1.408   2.571  1.5434 -0.2035 -2.5659
  955MOL0     H28887   0.448  -1.647   2.851 -1.4589  1.4211 -2.6034
  955MOL0     H28888   0.364  -1.806   3.020  0.0860  0.5816 -2.7507
  955MOL0     H28889  -0.011  -1.708   3.235  1.0906  1.3591 -0.7403
  955MOL0     H28890   0.004  -1.882   3.243  0.9317 -0.5348  3.5441
  955MOL0     H28891   0.157  -1.694   3.432 -1.1508  0.7226  1.7977
  955MOL0     H28892  -0.005  -1.767   3.453  0.5228 -2.0517  1.0056
  955MOL0     H28893   0.071  -1.990   3.436  0.1644  0.4862 -2.4387
  955MOL0     H28894   0.241  -1.931   3.404  1.7162  2.1809  2.4409
  955MOL0     H28895   0.195  -1.809   3.649  1.4318  0.0517 -1.3071
  955MOL0     H28896   0.271  -1.960   3.627  0.9700  2.4790  0.0237
  955MOL0     H28897   0.060  -2.081   3.670  0.1806 -0.3160  2.4994
  955MOL0     H28898  -0.034  -1.924   3.665 -0.4797  0.3882 -0.4979
  955MOL0     H28899   0.121  -1.861   3.887  1.2908  1.0365  0.8754
  955MOL0     H28900  -0.006  -1.971   3.901 -0.6563  2.8494  0.3149
  955MOL0     H28901   0.284  -2.052   3.834 -1.8352  0.0480 -2.7582
  955MOL0     H28902   0.145  -2.159   3.879 -1.2452  0.9676 -1.4068
  955MOL0     H28903   0.267  -1.941   4.058  1.5889  0.5242 -2.1766
  955MOL0     H28904   0.160  -2.058   4.121  0.3919  0.0696 -0.3827
  955MOL0     H28905   0.077  -1.525   3.150  1.2875  1.1808  0.5351
  955MOL0     H28906   0.137  -1.375   2.972  0.4170  1.1949  0.6201
  955MOL0     H28907   0.341  -1.031   2.716  1.4243  2.1003 -2.2503
  955MOL0     H28908   0.482  -0.921   2.544  4.5380  0.0922 -1.9212
  955MOL0     H28909   1.454  -0.037   1.971 -1.7842  0.2442 -1.0338
  955MOL0     H28910   1.519   0.122   2.166 -0.5485  0.2726  0.7039
  955MOL0     H28911   1.558   0.174   2.540 -1.2522  0.1806  2.4535
  955MOL0     H28912   1.691   0.243   2.712 -3.0932  0.7374  0.0965
  955MOL0     H28913   1.930   0.537   2.874 -3.9769 -2.0164  0.9362
  955MOL0     H28914   1.907   0.624   2.723  0.1559 -0.9495 -1.1588
  955MOL0     H28915   1.986   0.421   2.600  2.0551  2.0670 -0.3447
  955MOL0     H28916   1.983   0.330   2.751 -0.3649 -1.6394 -3.3738
  955MOL0     H28917   2.212   0.426   2.679  1.8379  2.0157  0.3158
  955MOL0     H28918   2.162   0.490   2.841  0.8477  0.9299  0.0510
  955MOL0     H28919   2.122   0.702   2.743 -0.1557  0.1396 -1.1294
  955MOL0     H28920   2.281   0.649   2.683  0.2504 -1.1364  0.1406
  955MOL0     H28921   2.059   0.730   2.339 -0.3486 -1.9464 -0.1595
  955MOL0     H28922   1.691   0.644   2.552  0.0543 -0.4934 -0.7469
  955MOL0     H28923   1.539   0.584   2.244 -1.6472  0.3315  0.0935
  955MOL0     H28924   1.429   0.608   2.368  1.0236 -2.9741 -0.0248
  955MOL0     H28925   1.596   0.695   2.366  1.1450  0.3800 -2.9687
  956MOL0     O28926   9.170   9.718   4.185  0.0109  0.3686  0.7921
  956MOL0     C28927   9.281   9.655   4.175  0.9129  0.9292 -0.4561
  956MOL0     O28928   9.327   9.593   4.061  0.0098  0.3865 -0.2810
  956MOL0     C28929   9.233   9.570   3.958 -0.7273  0.9481 -0.8298
  956MOL0     C28930   9.153   9.454   3.973  0.0912  0.5626  0.1260
  956MOL0     C28931   9.049   9.419   3.886 -0.4087 -0.1990  0.3983
  956MOL0     C28932   9.010   9.520   3.792 -0.7270  0.5973  0.4875
  956MOL0     O28933   8.900   9.499   3.712  1.1997  0.6056 -0.3224
  956MOL0     C28934   8.824   9.615   3.678  0.3076 -0.7001  0.3953
  956MOL0     C28935   8.728   9.657   3.787  0.6061  0.1193  0.1204
  956MOL0     C28936   8.623   9.548   3.820 -0.3810  0.2789 -0.5210
  956MOL0     C28937   8.513   9.606   3.908 -0.4965 -0.3262  0.9270
  956MOL0     C28938   8.398   9.502   3.940  0.2442  0.2054  1.1515
  956MOL0     C28939   8.316   9.563   4.053  0.9647 -0.7603 -0.6400
  956MOL0     C28940   8.215   9.473   4.119  0.1931  0.0702 -1.3786
  956MOL0     C28941   8.100   9.418   4.031  0.1860 -0.5914  0.2921
  956MOL0     N28942   7.978   9.398   4.098  0.1592  0.4046 -0.7148
  956MOL0     C28943   7.886   9.499   4.139 -0.3335 -0.0067 -0.3092
  956MOL0     C28944   7.778   9.430   4.178  0.1928  0.1214 -0.3230
  956MOL0     C28945   7.651   9.498   4.235 -0.1355  0.6520  1.0051
  956MOL0     C28946   7.680   9.578   4.360 -0.1016  0.7813  0.3329
  956MOL0     C28947   7.545   9.625   4.428  1.3398  0.4167  0.6054
  956MOL0     C28948   7.448   9.706   4.345 -0.7609  0.1063  0.3832
  956MOL0     O28949   7.333   9.705   4.429  0.2045 -0.4608  0.3452
  956MOL0     C28950   7.213   9.752   4.372 -0.8360 -1.0758 -0.4553
  956MOL0     C28951   7.102   9.670   4.399 -0.2477 -0.3725  0.0533
  956MOL0     C28952   6.972   9.716   4.361  0.3025  0.9127 -1.0603
  956MOL0     C28953   6.960   9.846   4.307 -0.1595  0.3674  0.5778
  956MOL0     C28954   6.826   9.891   4.281  0.0260  0.1328  0.5997
  956MOL0     O28955   6.734   9.875   4.384  0.8627  1.0552 -0.0923
  956MOL0     C28956   6.602   9.903   4.358 -0.4468 -0.3680  0.2274
  956MOL0     C28957   6.557  10.033   4.337 -0.0194 -1.0078 -0.1226
  956MOL0     C28958   6.419  10.065   4.330  0.0806  0.3185  0.0693
  956MOL0     C28959   6.324   9.961   4.337  0.3142 -0.5043 -0.0405
  956MOL0     O28960   6.191  10.004   4.352  0.4280  0.5049 -0.9691
  956MOL0     C28961   6.093   9.908   4.367  0.3171  0.3518  0.4722
  956MOL0     C28962   5.958   9.975   4.387  1.0907  0.1953  0.4071
  956MOL0     C28963   5.894  10.027   4.246 -0.4685 -0.3020 -0.0795
  956MOL0     C28964   5.757  10.094   4.261 -0.9766  0.1924  0.6012
  956MOL0     C28965   5.649   9.990   4.256 -1.6022 -1.1892 -0.1628
  956MOL0     C28966   5.604   9.942   4.116 -0.3020 -0.1590  0.1629
  956MOL0     C28967   5.474   9.871   4.130  0.1786  0.2523  1.4198
  956MOL0     C28968   5.477   9.721   4.139 -0.9072 -0.5760  0.2197
  956MOL0    Cl28969   5.315   9.646   4.096 -0.6213  0.2637  0.0283
  956MOL0     C28970   6.362   9.831   4.356 -0.9775  0.8701 -0.1123
  956MOL0     C28971   6.505   9.806   4.377 -0.0725  1.0102  0.2819
  956MOL0     O28972   6.802   9.954   4.181 -0.0089  0.0606  0.4882
  956MOL0     C28973   7.074   9.919   4.272 -0.7354  1.4815  1.3294
  956MOL0     C28974   7.203   9.885   4.310 -0.8411 -0.0009  0.5906
  956MOL0     N28975   7.803   9.294   4.169  0.2758 -0.5255  0.3067
  956MOL0     N28976   7.919   9.274   4.121 -0.3789  0.7501  0.4223
  956MOL0     C28977   9.098   9.631   3.769 -0.7127 -0.4976 -0.4919
  956MOL0     C28978   9.201   9.659   3.863  0.3120 -0.1777  0.4850
  956MOL0     C28979   9.343   9.621   4.306  0.8733  0.6462 -0.0051
  956MOL0     C28980   9.261   9.602   4.423 -0.5169 -0.7147  0.6712
  956MOL0     C28981   9.304   9.568   4.547  0.0387  0.1068 -1.3185
  956MOL0     C28982   9.439   9.560   4.569 -0.8462 -0.2186 -0.0446
  956MOL0     O28983   9.500   9.549   4.696 -0.7693  0.0471 -0.2599
  956MOL0     C28984   9.446   9.452   4.784  0.5132  0.0680  0.0582
  956MOL0     C28985   9.467   9.309   4.726  0.8681 -0.6238  0.6395
  956MOL0     C28986   9.476   9.199   4.828  0.1863 -0.2588 -0.3665
  956MOL0     C28987   9.350   9.165   4.898 -0.7336  0.5348  0.0162
  956MOL0     C28988   9.241   9.136   4.804 -0.4661  0.0529 -0.3993
  956MOL0     C28989   9.160   9.103   4.711 -0.7732 -0.5121 -0.5857
  956MOL0     C28990   9.517   9.569   4.451  0.1653  0.2336 -0.4988
  956MOL0     C28991   9.478   9.596   4.320  0.1182 -0.3031  0.0194
  956MOL0     C28992   9.592   9.622   4.225  0.8014 -0.3163 -0.6457
  956MOL0     H28993   9.168   9.379   4.050  0.5083  0.6791  0.1614
  956MOL0     H28994   8.990   9.328   3.895  3.1860 -2.5844  1.7675
  956MOL0     H28995   8.891   9.699   3.656  0.1329 -0.3702  1.0799
  956MOL0     H28996   8.768   9.610   3.584  0.4930  0.8824  0.1627
  956MOL0     H28997   8.671   9.738   3.739 -2.1335 -1.0533  1.1905
  956MOL0     H28998   8.775   9.682   3.882  0.2447 -1.1531  0.6539
  956MOL0     H28999   8.683   9.472   3.869 -0.2595  1.7548  1.7536
  956MOL0     H29000   8.567   9.510   3.734 -0.9415  1.5076 -0.7335
  956MOL0     H29001   8.545   9.645   4.005 -2.9383  2.2200  0.8398
  956MOL0     H29002   8.469   9.690   3.855  0.5261  1.3735  2.6526
  956MOL0     H29003   8.329   9.486   3.857 -0.2133 -0.2167  1.6047
  956MOL0     H29004   8.446   9.406   3.960 -1.1069 -0.9517 -0.7860
  956MOL0     H29005   8.380   9.603   4.132 -1.0374  1.8610 -0.2000
  956MOL0     H29006   8.269   9.650   4.007  0.7270 -0.5702 -0.0465
  956MOL0     H29007   8.179   9.540   4.198 -1.1992 -2.7635  0.5633
  956MOL0     H29008   8.256   9.387   4.174 -0.2072 -0.8434 -2.4823
  956MOL0     H29009   8.084   9.480   3.943 -3.5508  0.9135  1.8220
  956MOL0     H29010   8.138   9.322   3.995  3.4824  0.2239  1.1965
  956MOL0     H29011   7.908   9.606   4.141  4.9907 -0.8352 -0.1544
  956MOL0     H29012   7.615   9.562   4.154 -0.5825  2.0234  2.2437
  956MOL0     H29013   7.575   9.420   4.246  2.0151 -2.2667 -2.3190
  956MOL0     H29014   7.738   9.522   4.434 -0.1417  1.0302  0.5506
  956MOL0     H29015   7.750   9.658   4.335  1.9205 -0.0911  2.7791
  956MOL0     H29016   7.565   9.679   4.521 -2.0246  0.3919  1.4371
  956MOL0     H29017   7.498   9.532   4.461 -1.1405  0.8871 -1.3415
  956MOL0     H29018   7.427   9.656   4.250  1.7779 -3.4098  1.4807
  956MOL0     H29019   7.481   9.810   4.331 -0.8877  0.1329  0.2904
  956MOL0     H29020   7.118   9.593   4.474 -2.3094  1.7912  2.9441
  956MOL0     H29021   6.881   9.661   4.382  0.5766  0.9860  0.3949
  956MOL0     H29022   6.622  10.119   4.326 -0.2350 -0.8888 -0.4931
  956MOL0     H29023   6.379  10.166   4.325  0.6841  0.5216 -1.0774
  956MOL0     H29024   6.084   9.829   4.292  1.3271  2.1088 -1.5711
  956MOL0     H29025   6.109   9.856   4.462 -1.0118  2.4633  1.9581
  956MOL0     H29026   5.891   9.900   4.430 -1.0687  2.0058  0.3958
  956MOL0     H29027   5.966  10.062   4.453  2.3403  1.1206 -0.8956
  956MOL0     H29028   5.964  10.097   4.199 -0.1092 -1.0672 -0.7071
  956MOL0     H29029   5.886   9.939   4.182  1.5537  0.4668 -1.4897
  956MOL0     H29030   5.726  10.171   4.189 -3.3174 -1.3619 -0.1893
  956MOL0     H29031   5.765  10.144   4.358 -0.9976  0.6921  0.3491
  956MOL0     H29032   5.575  10.045   4.315  2.2581  2.1439  2.0580
  956MOL0     H29033   5.682   9.904   4.314  1.6538  0.6321  0.9357
  956MOL0     H29034   5.594  10.028   4.049 -0.0027  2.5285  3.2919
  956MOL0     H29035   5.672   9.871   4.069 -1.5053 -2.1323  1.2828
  956MOL0     H29036   5.404   9.897   4.051  0.2579 -1.1369  0.8595
  956MOL0     H29037   5.423   9.911   4.218 -0.9137  1.1601  0.3910
  956MOL0     H29038   5.556   9.696   4.067  2.6551  0.7637  3.3398
  956MOL0     H29039   5.512   9.699   4.239 -0.2450  0.7889  0.3118
  956MOL0     H29040   6.285   9.754   4.354 -2.7651  2.2641  4.2855
  956MOL0     H29041   6.558   9.715   4.402  2.7158  1.4079 -3.3186
  956MOL0     H29042   7.069  10.017   4.225 -0.3564  0.2474 -1.4777
  956MOL0     H29043   7.287   9.952   4.297 -3.3051  3.5879  1.6239
  956MOL0     H29044   9.100   9.719   3.706 -1.1601 -0.3388 -0.2861
  956MOL0     H29045   9.261   9.748   3.849  2.7550 -2.1409 -3.0113
  956MOL0     H29046   9.152   9.604   4.420 -0.7126 -2.2998  3.2871
  956MOL0     H29047   9.235   9.550   4.629  2.9458  0.0493  1.2972
  956MOL0     H29048   9.341   9.465   4.810  0.7012  0.9147  0.4131
  956MOL0     H29049   9.512   9.451   4.871  0.3585 -1.1235  0.1814
  956MOL0     H29050   9.559   9.309   4.667  0.7021 -0.4043  0.3737
  956MOL0     H29051   9.379   9.297   4.662 -2.0528  0.5005  4.0781
  956MOL0     H29052   9.544   9.233   4.907 -0.6152 -4.2040  2.3247
  956MOL0     H29053   9.519   9.106   4.789  1.1842 -0.2042  0.5497
  956MOL0     H29054   9.366   9.091   4.976 -0.0418  0.5947 -0.0669
  956MOL0     H29055   9.318   9.252   4.956 -0.4321  0.6431  0.0173
  956MOL0     H29056   9.092   9.072   4.634 -1.5505 -1.3748  0.4303
  956MOL0     H29057   9.622   9.547   4.468  0.2796  0.4193 -0.9532
  956MOL0     H29058   9.679   9.556   4.231  1.7501  0.9543 -0.0253
  956MOL0     H29059   9.556   9.615   4.122 -2.7691  1.5237  0.2881
  956MOL0     H29060   9.629   9.719   4.258 -3.5093  0.7262  2.0370
  957MOL0     O29061   8.677   0.035   7.110 -0.0449  0.0431 -0.0727
  957MOL0     C29062   8.793   0.070   7.136  0.8539  0.2558 -0.3619
  957MOL0     O29063   8.832   0.112   7.260  0.1031 -0.1115  0.7153
  957MOL0     C29064   8.733   0.122   7.356 -0.4926  0.2609 -0.1966
  957MOL0     C29065   8.634   0.226   7.354 -0.3058 -0.3117  0.6465
  957MOL0     C29066   8.560   0.266   7.468 -0.4520  0.1848 -0.3165
  957MOL0     C29067   8.582   0.183   7.584  0.1497 -0.1028 -0.1410
  957MOL0     O29068   8.494   0.213   7.687 -0.7236  0.0270  0.2084
  957MOL0     C29069   8.478   0.109   7.789 -0.2698 -0.1070 -0.3757
  957MOL0     C29070   8.389   0.176   7.894 -0.6243  0.2136 -0.1314
  957MOL0     C29071   8.451   0.297   7.962 -0.1604 -0.4574  0.3817
  957MOL0     C29072   8.496   0.254   8.106 -0.2789 -0.3791  0.4323
  957MOL0     C29073   8.615   0.323   8.169  0.4205 -0.6737 -0.2461
  957MOL0     C29074   8.581   0.473   8.195  0.8728  0.3661  0.0024
  957MOL0     C29075   8.705   0.554   8.244 -0.4887 -0.2382  0.1617
  957MOL0     C29076   8.745   0.570   8.392 -0.4516  0.4763 -0.3610
  957MOL0     N29077   8.878   0.628   8.428 -0.2119 -0.2968  0.6277
  957MOL0     C29078   8.960   0.691   8.341 -0.1015 -0.4973  0.7457
  957MOL0     C29079   9.071   0.712   8.416  0.2667  0.4770  0.7879
  957MOL0     C29080   9.202   0.776   8.377  0.6330 -0.2099  0.0880
  957MOL0     C29081   9.226   0.917   8.441  0.7594 -0.4360 -0.1084
  957MOL0     C29082   9.312   0.913   8.565 -0.6254 -0.9447 -0.3025
  957MOL0     C29083   9.322   1.061   8.611 -0.2775 -0.8966  1.0843
  957MOL0     O29084   9.419   1.074   8.720  0.0355 -0.0057 -0.1956
  957MOL0     C29085   9.549   1.074   8.678 -0.0580  0.1242  0.9116
  957MOL0     C29086   9.606   1.154   8.580  0.6913 -0.3945 -0.3761
  957MOL0     C29087   9.736   1.138   8.526  0.3324 -0.1877 -0.0425
  957MOL0     C29088   9.813   1.041   8.588 -0.3047  0.1222  0.0302
  957MOL0     C29089   9.958   1.027   8.560 -0.3534  0.1645  0.2296
  957MOL0     O29090  10.041   0.946   8.639 -0.1756 -0.3715  0.7069
  957MOL0     C29091  10.171   0.915   8.618  0.3815  0.3126 -0.1071
  957MOL0     C29092  10.220   0.825   8.709  0.7695  0.1210  0.3326
  957MOL0     C29093  10.344   0.772   8.695  0.3378 -0.0659  0.1838
  957MOL0     C29094  10.439   0.812   8.588  0.0880 -0.0672 -0.4256
  957MOL0     O29095  10.569   0.761   8.577  0.2105  0.9147 -0.1485
  957MOL0     C29096  10.637   0.794   8.453  0.1332  0.5465 -0.7662
  957MOL0     C29097  10.778   0.755   8.479  1.2734  0.0684  0.2743
  957MOL0     C29098  10.870   0.777   8.360 -1.1902  0.1913 -0.6985
  957MOL0     C29099  11.016   0.754   8.410  0.0386  0.8465 -0.0919
  957MOL0     C29100  11.113   0.773   8.296  0.9561 -0.9386  0.4585
  957MOL0     C29101  11.098   0.898   8.217 -0.0007 -0.3481  0.2526
  957MOL0     C29102  11.217   0.916   8.125  0.2937  0.8606 -0.4867
  957MOL0     C29103  11.214   0.838   7.986  0.6719 -0.2276 -0.1292
  957MOL0    Cl29104  11.089   0.917   7.890 -0.0779  0.1089 -0.4169
  957MOL0     C29105  10.386   0.917   8.505  0.8387 -0.0534 -0.1469
  957MOL0     C29106  10.256   0.963   8.518 -0.1397 -0.0398  0.6086
  957MOL0     O29107   9.988   1.079   8.447 -0.6740  0.3762  0.4332
  957MOL0     C29108   9.761   0.962   8.686  0.5706 -0.6864  0.0909
  957MOL0     C29109   9.630   0.977   8.731 -0.7314  0.0949 -1.2789
  957MOL0     N29110   9.048   0.681   8.548 -0.2562 -0.1938  0.2750
  957MOL0     N29111   8.932   0.622   8.555  0.4915  0.8681  0.3502
  957MOL0     C29112   8.682   0.083   7.594  0.6754  0.1597 -0.7026
  957MOL0     C29113   8.756   0.053   7.483  0.4668  0.0700  0.4981
  957MOL0     C29114   8.896   0.062   7.027  0.2744  0.4639 -0.5072
  957MOL0     C29115   9.030   0.072   7.067 -0.2514 -0.6718  0.5792
  957MOL0     C29116   9.137   0.060   6.983  0.4429 -0.0365 -0.0165
  957MOL0     C29117   9.113   0.041   6.853 -0.7306 -0.2402 -0.0642
  957MOL0     O29118   9.210   0.034   6.759 -0.1245 -0.3230  0.6614
  957MOL0     C29119   9.221  -0.092   6.683 -0.6746  0.2514 -0.3755
  957MOL0     C29120   9.358  -0.115   6.607 -0.3734  0.1208 -0.9396
  957MOL0     C29121   9.370   0.008   6.509  0.0759 -0.5159 -0.1312
  957MOL0     C29122   9.463   0.001   6.387 -0.4555  0.2545 -0.8962
  957MOL0     C29123   9.414  -0.107   6.289 -1.6512  0.8133 -0.1730
  957MOL0     C29124   9.396  -0.203   6.214 -0.3052 -0.7187  0.3056
  957MOL0     C29125   8.984   0.028   6.807 -0.0394  0.9625 -0.6351
  957MOL0     C29126   8.868   0.034   6.894 -0.4100 -0.4039 -0.2628
  957MOL0     C29127   8.727   0.022   6.843 -0.2441 -0.1086  0.1558
  957MOL0     H29128   8.626   0.292   7.268  2.9442 -1.0309 -0.3490
  957MOL0     H29129   8.481   0.340   7.474 -0.4490  0.1680 -0.0481
  957MOL0     H29130   8.427   0.019   7.754 -0.1408 -0.1805 -0.3756
  957MOL0     H29131   8.576   0.090   7.833  0.4093  2.3996 -0.6409
  957MOL0     H29132   8.347   0.107   7.967 -2.0022  0.8898 -0.2555
  957MOL0     H29133   8.298   0.201   7.838 -0.7718  1.7028  0.7316
  957MOL0     H29134   8.383   0.382   7.967 -0.1851 -0.1754 -2.9246
  957MOL0     H29135   8.537   0.334   7.905  0.4607 -1.2289  0.7837
  957MOL0     H29136   8.412   0.256   8.175  0.9039  0.1724  1.9023
  957MOL0     H29137   8.536   0.152   8.106 -0.4780 -0.5232  3.0395
  957MOL0     H29138   8.629   0.269   8.263 -0.1562  0.6352  0.6316
  957MOL0     H29139   8.707   0.311   8.112  0.7070 -1.7074  0.4093
  957MOL0     H29140   8.547   0.519   8.102  0.2836  1.7099  0.8525
  957MOL0     H29141   8.494   0.479   8.262 -0.9752  2.8687 -2.3757
  957MOL0     H29142   8.687   0.655   8.206 -0.6352 -0.8186 -1.3489
  957MOL0     H29143   8.788   0.515   8.186 -1.8896  1.2048 -3.0446
  957MOL0     H29144   8.671   0.615   8.459  1.6255  1.1163  1.6080
  957MOL0     H29145   8.766   0.468   8.425 -1.1488 -0.1720 -1.8350
  957MOL0     H29146   8.956   0.708   8.234 -3.4617 -0.7740  0.7232
  957MOL0     H29147   9.277   0.709   8.421  1.6134 -1.1779 -2.8089
  957MOL0     H29148   9.224   0.788   8.271  3.7087  0.5331  0.7159
  957MOL0     H29149   9.283   0.964   8.361 -1.7762 -1.5698 -2.8136
  957MOL0     H29150   9.127   0.962   8.456 -0.2597 -2.7751  0.6839
  957MOL0     H29151   9.410   0.878   8.533 -0.0021  0.0919  0.4028
  957MOL0     H29152   9.272   0.849   8.644 -0.5691 -1.4061 -0.6464
  957MOL0     H29153   9.221   1.096   8.638  0.6604  1.4325  1.8579
  957MOL0     H29154   9.354   1.125   8.528 -0.7654 -0.1965  1.4172
  957MOL0     H29155   9.542   1.237   8.549  1.1253  1.8848  3.9918
  957MOL0     H29156   9.766   1.202   8.444  1.1150 -2.7615 -1.8920
  957MOL0     H29157  10.157   0.798   8.793  1.1125 -0.6706  0.3373
  957MOL0     H29158  10.374   0.685   8.753  1.1446 -1.3835 -2.0736
  957MOL0     H29159  10.588   0.736   8.375 -1.5230 -1.9624  1.9351
  957MOL0     H29160  10.654   0.901   8.438  0.6665  0.4341 -0.9973
  957MOL0     H29161  10.804   0.807   8.571 -0.1374  1.0879  0.1245
  957MOL0     H29162  10.770   0.648   8.504 -0.9143 -0.0299 -0.5702
  957MOL0     H29163  10.844   0.705   8.281  2.3150 -1.2792 -0.6888
  957MOL0     H29164  10.853   0.879   8.324 -1.2501 -0.5978 -3.1603
  957MOL0     H29165  11.022   0.653   8.451  0.4161  1.3949  1.2890
  957MOL0     H29166  11.049   0.822   8.490  0.5224 -0.9015  1.2776
  957MOL0     H29167  11.088   0.702   8.217  4.3154 -0.7732 -0.8915
  957MOL0     H29168  11.214   0.753   8.331  2.0981  4.2030  0.8711
  957MOL0     H29169  11.002   0.899   8.165 -1.6981 -1.0849  3.1392
  957MOL0     H29170  11.106   0.987   8.279  2.6026  1.6870 -2.7010
  957MOL0     H29171  11.313   0.889   8.170 -0.7579  0.3284  1.5203
  957MOL0     H29172  11.234   1.018   8.090  1.1091  0.2348 -2.0652
  957MOL0     H29173  11.302   0.848   7.922 -0.6754 -2.6845 -2.6200
  957MOL0     H29174  11.186   0.732   7.995 -0.5366  0.1658  1.3031
  957MOL0     H29175  10.459   0.971   8.447  2.8348 -1.5643  0.8374
  957MOL0     H29176  10.227   1.060   8.479 -2.1222  0.5381  3.2578
  957MOL0     H29177   9.815   0.880   8.732  1.2194 -0.6083 -0.5095
  957MOL0     H29178   9.589   0.915   8.810 -0.4192  1.0567 -0.3370
  957MOL0     H29179   8.709   0.030   7.685 -2.5034  1.3521  1.0727
  957MOL0     H29180   8.823  -0.032   7.491  0.0742 -0.3873 -0.7333
  957MOL0     H29181   9.057   0.087   7.171 -0.0385  0.3760  0.3843
  957MOL0     H29182   9.242   0.065   7.011  0.6548  2.3747 -0.9838
  957MOL0     H29183   9.127  -0.108   6.629 -1.4240  1.4663  0.4971
  957MOL0     H29184   9.224  -0.164   6.765  0.6577  0.8373  0.1111
  957MOL0     H29185   9.353  -0.214   6.561 -0.4210 -0.3832  0.1071
  957MOL0     H29186   9.443  -0.108   6.677 -2.4150  3.4965  1.5179
  957MOL0     H29187   9.398   0.095   6.569 -0.1421 -1.0986  0.8284
  957MOL0     H29188   9.270   0.036   6.474  0.0972  1.1198  1.0278
  957MOL0     H29189   9.459   0.102   6.345 -2.8083  0.9446  0.8323
  957MOL0     H29190   9.570  -0.008   6.410 -1.4098 -2.0521  3.6403
  957MOL0     H29191   9.362  -0.269   6.137 -1.3093  0.7481 -0.5783
  957MOL0     H29192   8.973   0.015   6.700 -0.6507  2.2716 -0.7535
  957MOL0     H29193   8.733  -0.014   6.740  2.1919  0.2217  0.1214
  957MOL0     H29194   8.681  -0.056   6.904  0.0207  0.1417  0.6894
  957MOL0     H29195   8.678   0.120   6.851 -0.4979 -0.0139 -1.9342
  958MOL0     O29196  10.332   4.817   9.923 -0.0130  0.4335 -0.5061
  958MOL0     C29197  10.298   4.802  10.043 -0.5748  0.7861  1.3368
  958MOL0     O29198  10.305   4.901  10.139  0.2723  0.4079  0.2868
  958MOL0     C29199  10.321   5.033  10.101 -0.6088  0.1265  0.0717
  958MOL0     C29200  10.455   5.079  10.079  0.1270  0.3082  0.8900
  958MOL0     C29201  10.471   5.210  10.040  0.0868  0.0874 -0.3898
  958MOL0     C29202  10.362   5.298  10.031 -0.2191 -0.6463  0.0668
  958MOL0     O29203  10.398   5.430  10.002  0.0831 -0.3682 -0.6277
  958MOL0     C29204  10.365   5.523  10.105 -0.4734  0.1026 -0.5484
  958MOL0     C29205  10.350   5.659  10.051  0.2025 -0.2304 -0.4863
  958MOL0     C29206  10.218   5.665   9.986  0.1033 -0.3384  0.8106
  958MOL0     C29207  10.183   5.806   9.948 -0.6534  0.2786  0.6723
  958MOL0     C29208  10.084   5.801   9.830 -0.0507  0.2524  0.4826
  958MOL0     C29209   9.996   5.925   9.840 -0.6984  0.4681  0.2917
  958MOL0     C29210   9.916   5.946   9.719 -0.0850 -0.3494 -0.4635
  958MOL0     C29211   9.845   5.820   9.661 -0.0825  0.6834  0.7573
  958MOL0     N29212   9.761   5.845   9.541 -1.5596  0.0762 -0.4163
  958MOL0     C29213   9.661   5.767   9.500 -0.0084 -0.4013 -0.1886
  958MOL0     C29214   9.647   5.788   9.372 -0.4825  0.1401  0.5849
  958MOL0     C29215   9.533   5.716   9.301 -0.8096  0.3576 -0.4567
  958MOL0     C29216   9.571   5.675   9.154  0.4596  1.0133 -0.1616
  958MOL0     C29217   9.458   5.608   9.072  0.6894 -0.2008  0.3578
  958MOL0     C29218   9.519   5.581   8.939  0.4642 -0.5169  0.3154
  958MOL0     O29219   9.615   5.477   8.964 -0.1123 -0.4524  1.0521
  958MOL0     C29220   9.698   5.438   8.857  0.5905 -0.4561  0.6774
  958MOL0     C29221   9.708   5.500   8.731  0.0640  0.4767 -0.1200
  958MOL0     C29222   9.769   5.432   8.619  0.4745 -0.9304  0.0972
  958MOL0     C29223   9.845   5.319   8.642  0.3887  0.3714 -0.5241
  958MOL0     C29224   9.916   5.265   8.533 -0.8592 -0.4993 -0.1944
  958MOL0     O29225   9.940   5.131   8.547  0.2074 -0.6834  0.6211
  958MOL0     C29226  10.008   5.069   8.448 -0.1370 -0.1596 -0.6150
  958MOL0     C29227  10.145   5.073   8.449 -0.5910 -0.1998  0.7850
  958MOL0     C29228  10.219   5.002   8.361 -0.7017  0.4546 -0.3709
  958MOL0     C29229  10.162   4.924   8.260  0.0756 -0.0535 -0.4279
  958MOL0     O29230  10.220   4.842   8.169  0.0760  0.3685  0.5738
  958MOL0     C29231  10.352   4.787   8.185 -1.1492  0.4854  0.0804
  958MOL0     C29232  10.453   4.880   8.114 -0.5579 -0.3360  0.5546
  958MOL0     C29233  10.388   4.929   7.982  0.5124 -0.1169  0.6163
  958MOL0     C29234  10.377   4.825   7.867  0.2241 -0.2391 -0.0269
  958MOL0     C29235  10.394   4.893   7.733 -0.7478 -0.3888  0.2331
  958MOL0     C29236  10.295   5.017   7.724 -0.0901  0.0265 -0.9404
  958MOL0     C29237  10.303   5.084   7.581  0.4124  1.1544  0.3007
  958MOL0     C29238  10.224   5.216   7.576  0.1243  0.1456 -0.3142
  958MOL0    Cl29239  10.314   5.327   7.466  0.1901 -0.0746 -0.0548
  958MOL0     C29240  10.013   4.924   8.259 -0.6787 -0.4767  0.3955
  958MOL0     C29241   9.937   5.002   8.343 -0.1334 -0.1427 -0.0325
  958MOL0     O29242   9.961   5.337   8.438 -0.5852  0.3259 -0.2713
  958MOL0     C29243   9.844   5.259   8.773  0.0982  0.4671  0.2416
  958MOL0     C29244   9.779   5.331   8.874 -0.2919  0.0241 -0.0861
  958MOL0     N29245   9.742   5.878   9.332  0.0207 -0.1784 -0.5920
  958MOL0     N29246   9.805   5.910   9.437  0.7155  0.0724 -0.3879
  958MOL0     C29247  10.229   5.250  10.055 -0.6079  0.3628  0.3664
  958MOL0     C29248  10.217   5.120  10.088  0.6499  0.4431 -0.2294
  958MOL0     C29249  10.271   4.669  10.086  0.5953  0.4620  0.5375
  958MOL0     C29250  10.188   4.590  10.009  0.0491  0.3651 -0.9297
  958MOL0     C29251  10.129   4.476  10.064 -0.1760 -0.0332  0.4689
  958MOL0     C29252  10.178   4.420  10.181 -0.1041 -0.2390 -0.2659
  958MOL0     O29253  10.124   4.307  10.235  0.5598  0.6410 -0.1444
  958MOL0     C29254   9.999   4.250  10.200  0.2214  0.3609  1.2431
  958MOL0     C29255   9.955   4.136  10.298  0.2214  0.2162  0.1013
  958MOL0     C29256   9.955   4.172  10.445  0.0381 -0.3049 -0.2615
  958MOL0     C29257   9.832   4.245  10.486  1.0751  0.4073 -0.4777
  958MOL0     C29258   9.847   4.281  10.627 -0.4033 -0.5057 -0.1548
  958MOL0     C29259   9.865   4.305  10.748 -0.2572  0.1020  0.2693
  958MOL0     C29260  10.268   4.493  10.256 -0.8637  1.1632 -0.0661
  958MOL0     C29261  10.312   4.617  10.211 -0.2971 -1.7886 -0.2930
  958MOL0     C29262  10.388   4.704  10.307  1.1942  0.6733 -0.0098
  958MOL0     H29263  10.537   5.007  10.078  1.1215  1.1546 -4.0317
  958MOL0     H29264  10.567   5.250  10.009 -0.2930  2.6475  1.4071
  958MOL0     H29265  10.278   5.492  10.164  0.6304  0.8601  1.5834
  958MOL0     H29266  10.449   5.523  10.175  1.2978  3.3926 -2.4180
  958MOL0     H29267  10.437   5.683   9.988 -0.3762  2.5466 -0.3390
  958MOL0     H29268  10.348   5.725  10.138 -1.1444 -1.9621  0.8491
  958MOL0     H29269  10.153   5.631  10.067  0.8486  0.0132  1.5826
  958MOL0     H29270  10.209   5.604   9.896 -1.0809  2.0160 -0.7490
  958MOL0     H29271  10.144   5.856  10.037  0.0511 -0.4637  1.4145
  958MOL0     H29272  10.273   5.854   9.909 -1.1936  0.5126 -0.2985
  958MOL0     H29273  10.142   5.806   9.737 -0.7695  1.6774  0.0891
  958MOL0     H29274  10.022   5.711   9.837  0.9296 -0.5582 -0.6150
  958MOL0     H29275   9.925   5.915   9.922  0.8974  0.6256  1.7420
  958MOL0     H29276  10.047   6.021   9.849 -0.6467  1.1557 -4.5838
  958MOL0     H29277   9.966   5.999   9.636  1.7648  1.1948  1.5175
  958MOL0     H29278   9.839   6.010   9.764  0.5302 -1.3227  2.1439
  958MOL0     H29279   9.920   5.743   9.638 -0.1375  0.8755 -0.0942
  958MOL0     H29280   9.789   5.769   9.740  0.9031 -0.5031  0.7358
  958MOL0     H29281   9.612   5.691   9.560 -2.0170  0.5232 -0.5649
  958MOL0     H29282   9.502   5.627   9.357 -0.0857  0.9397  0.9269
  958MOL0     H29283   9.444   5.777   9.283 -1.2152 -0.3593 -0.9473
  958MOL0     H29284   9.607   5.763   9.101 -2.1126  1.5037 -1.2227
  958MOL0     H29285   9.648   5.599   9.173 -0.2477  0.9118  2.9373
  958MOL0     H29286   9.366   5.667   9.072 -0.3877 -1.8215  0.7459
  958MOL0     H29287   9.429   5.510   9.111 -1.1720  0.6686  1.2968
  958MOL0     H29288   9.565   5.673   8.902  0.3805  0.4177  2.3680
  958MOL0     H29289   9.436   5.544   8.880 -2.1747  1.0337  2.7900
  958MOL0     H29290   9.685   5.604   8.709  0.7367  1.0973  1.9083
  958MOL0     H29291   9.767   5.480   8.522 -3.1636  0.7400  0.8533
  958MOL0     H29292  10.191   5.135   8.524 -1.9706 -1.9980  3.2671
  958MOL0     H29293  10.326   4.988   8.376 -1.3626 -2.3245  2.7229
  958MOL0     H29294  10.374   4.769   8.291  0.3064  3.2644  0.3346
  958MOL0     H29295  10.349   4.689   8.138 -1.2666  2.5690 -4.8253
  958MOL0     H29296  10.471   4.966   8.179  3.5751 -0.9985  0.5069
  958MOL0     H29297  10.555   4.852   8.089  0.0450  2.4458 -0.5204
  958MOL0     H29298  10.290   4.975   7.997 -0.2400 -1.1155 -1.0201
  958MOL0     H29299  10.456   5.012   7.962  0.3226  0.1891  1.2102
  958MOL0     H29300  10.279   4.777   7.876  0.4067 -1.3986 -3.0790
  958MOL0     H29301  10.448   4.743   7.877 -0.3925 -0.6486  1.0518
  958MOL0     H29302  10.385   4.824   7.649 -0.5342 -0.6186  0.3960
  958MOL0     H29303  10.497   4.928   7.728 -0.2826 -1.9166 -2.2225
  958MOL0     H29304  10.190   4.993   7.746 -0.2104  1.9371  0.8634
  958MOL0     H29305  10.323   5.097   7.793  0.4067 -0.3660 -0.6874
  958MOL0     H29306  10.271   5.009   7.508  2.7486 -0.1568  0.5445
  958MOL0     H29307  10.409   5.103   7.565  1.9179 -5.8426 -0.9866
  958MOL0     H29308  10.124   5.182   7.546 -0.6546  0.8141  1.4346
  958MOL0     H29309  10.212   5.252   7.678 -0.3619 -0.5748 -0.1091
  958MOL0     H29310   9.957   4.872   8.181 -0.9821 -0.5991  0.6921
  958MOL0     H29311   9.829   5.016   8.348 -0.0943  1.7513 -2.5960
  958MOL0     H29312   9.907   5.174   8.795  3.0451  2.0295 -1.5987
  958MOL0     H29313   9.774   5.283   8.971  0.0976 -1.6846 -0.8866
  958MOL0     H29314  10.148   5.321  10.042 -1.7559 -0.6081  1.9601
  958MOL0     H29315  10.115   5.087  10.107  0.6829 -0.0682 -0.9018
  958MOL0     H29316  10.148   4.609   9.910 -1.8472  3.9950  0.3671
  958MOL0     H29317  10.053   4.426  10.004  0.5631 -1.7409  0.8941
  958MOL0     H29318  10.020   4.205  10.103  1.9654  2.3794  0.6188
  958MOL0     H29319   9.922   4.327  10.189  0.7263  1.0571  2.4327
  958MOL0     H29320  10.011   4.046  10.273 -1.2925 -0.4488 -1.0160
  958MOL0     H29321   9.854   4.114  10.262  1.1408 -2.6169 -1.0077
  958MOL0     H29322  10.051   4.219  10.467  0.0560 -0.0804 -0.7852
  958MOL0     H29323   9.949   4.078  10.499  0.6814  0.7150  1.6899
  958MOL0     H29324   9.824   4.335  10.423  1.4548 -0.4641 -1.8202
  958MOL0     H29325   9.751   4.175  10.464  0.1153  0.9418  1.2042
  958MOL0     H29326   9.853   4.340  10.849  1.5203 -0.3098  0.6597
  958MOL0     H29327  10.295   4.459  10.355  1.9389  2.3546 -0.3274
  958MOL0     H29328  10.321   4.763  10.371  3.2638  0.6391  2.3016
  958MOL0     H29329  10.447   4.643  10.375 -0.0686  1.5550  1.9816
  958MOL0     H29330  10.459   4.766  10.252 -0.7044  0.8045 -2.5299
  959MOL0     O29331   7.094   1.679   5.186  0.1224  0.1531 -0.8087
  959MOL0     C29332   7.006   1.736   5.126  0.0696  0.7414 -0.4171
  959MOL0     O29333   7.023   1.787   5.000 -0.0327 -0.2785  0.3726
  959MOL0     C29334   7.121   1.741   4.915  0.6590  0.3285 -0.4514
  959MOL0     C29335   7.177   1.612   4.904 -0.1395 -0.1001  0.4260
  959MOL0     C29336   7.282   1.591   4.810  0.4482  0.1892  0.3862
  959MOL0     C29337   7.333   1.695   4.731  0.5482  0.4278 -0.1718
  959MOL0     O29338   7.442   1.663   4.653  0.4109  1.1761  0.1537
  959MOL0     C29339   7.559   1.747   4.664  0.8686 -0.6512 -0.2260
  959MOL0     C29340   7.566   1.828   4.533 -0.1829  0.0192  0.3483
  959MOL0     C29341   7.691   1.923   4.549  0.3168  1.5494  0.2041
  959MOL0     C29342   7.647   2.053   4.485 -0.7902 -0.4906  0.1749
  959MOL0     C29343   7.759   2.150   4.466  0.4117  0.2330  0.3833
  959MOL0     C29344   7.715   2.269   4.379 -0.5717  0.2777 -0.2067
  959MOL0     C29345   7.823   2.377   4.379 -0.1934  0.5820  0.1640
  959MOL0     C29346   7.741   2.502   4.350  0.5126  0.3086 -0.0229
  959MOL0     N29347   7.682   2.555   4.475  1.3601  0.5703 -0.2862
  959MOL0     C29348   7.743   2.579   4.592 -0.7565 -0.5201 -1.0691
  959MOL0     C29349   7.635   2.612   4.671  0.2422 -0.8733 -0.4889
  959MOL0     C29350   7.641   2.677   4.811 -0.2246  0.0574 -0.4223
  959MOL0     C29351   7.738   2.606   4.909  0.6619  0.4350 -0.2157
  959MOL0     C29352   7.746   2.677   5.038 -0.0733 -0.3588 -0.1356
  959MOL0     C29353   7.841   2.606   5.124 -0.6105 -0.5299  0.1679
  959MOL0     O29354   7.979   2.618   5.076  0.8709  0.4015  0.0178
  959MOL0     C29355   8.070   2.560   5.158  0.8124  0.1202  1.0293
  959MOL0     C29356   8.044   2.493   5.277 -0.6685 -1.3539 -0.9123
  959MOL0     C29357   8.141   2.410   5.335 -0.1565  0.2869  0.9321
  959MOL0     C29358   8.268   2.395   5.273  0.2591 -0.5364  0.6660
  959MOL0     C29359   8.372   2.312   5.330 -0.4067 -0.8454  0.2577
  959MOL0     O29360   8.474   2.287   5.240 -0.3565  0.2484  0.5487
  959MOL0     C29361   8.591   2.223   5.278  0.2290 -0.2454 -0.3097
  959MOL0     C29362   8.652   2.240   5.404  1.2462 -0.4509  0.2943
  959MOL0     C29363   8.773   2.172   5.429 -0.0850  0.5058 -0.0036
  959MOL0     C29364   8.835   2.102   5.329 -0.5848  0.9919 -0.3129
  959MOL0     O29365   8.967   2.061   5.345 -0.5601 -0.3491  0.0175
  959MOL0     C29366   9.027   2.042   5.472 -0.0098  0.3191 -0.1007
  959MOL0     C29367   9.140   1.943   5.458 -0.2323 -0.5861  0.1365
  959MOL0     C29368   9.242   1.952   5.576  0.0497  0.3970  0.8283
  959MOL0     C29369   9.325   2.086   5.575  0.2098 -0.4518  0.4062
  959MOL0     C29370   9.445   2.077   5.671  0.8948  0.2097 -0.6263
  959MOL0     C29371   9.569   1.996   5.628  0.7277 -0.4918  0.2478
  959MOL0     C29372   9.654   1.958   5.748 -0.2463 -0.1619 -0.2808
  959MOL0     C29373   9.697   1.810   5.748  0.2735  0.3011 -0.2310
  959MOL0    Cl29374   9.835   1.776   5.643 -0.0422 -0.1820 -0.0859
  959MOL0     C29375   8.788   2.104   5.200  0.6043  0.2902  1.1953
  959MOL0     C29376   8.667   2.163   5.174 -0.2342  0.1712  0.2727
  959MOL0     O29377   8.367   2.287   5.448 -0.1696  1.0014 -0.6722
  959MOL0     C29378   8.290   2.461   5.149 -0.2589  0.0820  0.2454
  959MOL0     C29379   8.190   2.548   5.094  0.5859 -0.3287 -0.5375
  959MOL0     N29380   7.517   2.600   4.594 -0.1290  1.3175  0.4034
  959MOL0     N29381   7.543   2.559   4.481  0.3314  0.7263  0.2035
  959MOL0     C29382   7.267   1.818   4.737 -0.2292  0.1545  0.5432
  959MOL0     C29383   7.166   1.842   4.828  0.2268  0.0893 -0.2664
  959MOL0     C29384   6.886   1.765   5.208  0.0085  0.2330  0.1210
  959MOL0     C29385   6.898   1.762   5.351  0.1270  0.0154  0.3019
  959MOL0     C29386   6.789   1.789   5.439 -1.1846  0.3225 -0.7618
  959MOL0     C29387   6.666   1.803   5.385 -0.2151 -0.2174  0.2366
  959MOL0     O29388   6.561   1.814   5.475  0.4475  0.1060 -0.6864
  959MOL0     C29389   6.423   1.837   5.435  0.2064 -0.0641  0.2104
  959MOL0     C29390   6.353   1.874   5.560 -0.5975  0.3616 -0.2279
  959MOL0     C29391   6.361   1.771   5.684 -0.2648 -0.0015  0.1210
  959MOL0     C29392   6.323   1.628   5.641  0.2594  0.2076 -0.6842
  959MOL0     C29393   6.194   1.621   5.572  0.2721  0.6581 -0.1947
  959MOL0     C29394   6.094   1.615   5.503 -0.0274 -0.6116  0.4818
  959MOL0     C29395   6.652   1.799   5.236  0.2190  0.0533  0.1999
  959MOL0     C29396   6.756   1.783   5.152  0.1360  0.4956 -0.5423
  959MOL0     C29397   6.730   1.779   5.003  0.3933 -0.1635 -0.4898
  959MOL0     H29398   7.159   1.533   4.976  0.4018 -0.9667 -0.3660
  959MOL0     H29399   7.315   1.490   4.784  0.2643  0.3620 -0.5658
  959MOL0     H29400   7.550   1.810   4.754 -1.1454 -0.6250 -0.4057
  959MOL0     H29401   7.656   1.697   4.671  0.9393 -0.5414 -0.4186
  959MOL0     H29402   7.474   1.885   4.517  0.3430  0.2291 -2.2459
  959MOL0     H29403   7.590   1.772   4.443  3.6721 -0.4489  1.4727
  959MOL0     H29404   7.773   1.880   4.491  0.5530 -0.0195  1.6402
  959MOL0     H29405   7.734   1.937   4.648  1.0183 -2.1548  0.5649
  959MOL0     H29406   7.620   2.027   4.382  0.1601  1.5278 -0.6415
  959MOL0     H29407   7.564   2.111   4.527 -0.4780 -0.3622  0.6202
  959MOL0     H29408   7.771   2.188   4.568 -1.5664  0.8438  0.4380
  959MOL0     H29409   7.847   2.100   4.424 -1.2282 -2.4208 -0.1034
  959MOL0     H29410   7.689   2.246   4.275  0.0671  3.1620 -1.0996
  959MOL0     H29411   7.619   2.301   4.420 -1.3059 -3.3176  1.2798
  959MOL0     H29412   7.900   2.370   4.302 -1.8235 -1.8920 -1.3566
  959MOL0     H29413   7.871   2.388   4.477 -2.3959 -1.6093  1.6143
  959MOL0     H29414   7.814   2.574   4.311  0.1855 -0.3948 -2.0917
  959MOL0     H29415   7.655   2.482   4.286 -0.9758 -0.5951  2.1296
  959MOL0     H29416   7.850   2.572   4.610 -0.9481  0.1086  0.4951
  959MOL0     H29417   7.691   2.774   4.808  0.1721 -0.1158  0.4066
  959MOL0     H29418   7.542   2.687   4.858  0.2990  0.8666  0.5413
  959MOL0     H29419   7.702   2.503   4.922 -1.6025  1.0978 -0.7126
  959MOL0     H29420   7.836   2.593   4.861  1.0966  0.6141  0.6137
  959MOL0     H29421   7.646   2.690   5.081 -0.6626 -1.3217 -1.1519
  959MOL0     H29422   7.784   2.778   5.022  1.4714 -1.2392 -2.5674
  959MOL0     H29423   7.813   2.500   5.134 -3.4557  0.1572  0.3824
  959MOL0     H29424   7.823   2.660   5.217 -2.4451  1.8921 -1.4388
  959MOL0     H29425   7.957   2.529   5.330 -0.0699 -0.0828 -0.7456
  959MOL0     H29426   8.087   2.357   5.412 -2.4829 -0.2494 -0.9675
  959MOL0     H29427   8.603   2.309   5.471  1.6776  0.9666 -0.7941
  959MOL0     H29428   8.812   2.200   5.527  0.7116  2.7059 -0.8870
  959MOL0     H29429   9.071   2.136   5.508  2.7120 -0.7298 -0.4711
  959MOL0     H29430   8.947   2.008   5.539 -0.7436  0.5828 -0.8262
  959MOL0     H29431   9.100   1.841   5.468  0.2768 -0.7875  0.1480
  959MOL0     H29432   9.191   1.954   5.362 -0.5291 -1.4119 -0.1278
  959MOL0     H29433   9.195   1.932   5.673 -1.6132  0.1741  0.0035
  959MOL0     H29434   9.314   1.870   5.569 -0.3777  0.0708  0.1702
  959MOL0     H29435   9.260   2.172   5.597  1.5328  0.3580  1.3081
  959MOL0     H29436   9.357   2.100   5.471  1.0232  1.9269  0.9151
  959MOL0     H29437   9.406   2.045   5.768 -0.5921  2.1000 -0.5242
  959MOL0     H29438   9.476   2.178   5.701  0.6798 -0.0633  0.5706
  959MOL0     H29439   9.521   1.915   5.573 -2.4913  1.4825 -0.0873
  959MOL0     H29440   9.625   2.056   5.556  0.2329  0.4061  0.5880
  959MOL0     H29441   9.601   1.976   5.841  1.1604  0.8541  0.3691
  959MOL0     H29442   9.738   2.029   5.755  0.4189 -1.0988  3.0110
  959MOL0     H29443   9.735   1.790   5.849 -0.8703 -1.1452 -0.0416
  959MOL0     H29444   9.614   1.742   5.726  0.4191  0.2316 -0.5702
  959MOL0     H29445   8.834   2.056   5.114 -2.0935  0.4040 -0.3975
  959MOL0     H29446   8.625   2.156   5.074 -1.1449 -2.3398  0.7587
  959MOL0     H29447   8.381   2.447   5.092  2.2241  3.3280  2.9644
  959MOL0     H29448   8.214   2.619   5.016  0.5200  0.9994  0.6101
  959MOL0     H29449   7.317   1.901   4.688  2.0992 -1.7149 -0.4438
  959MOL0     H29450   7.122   1.941   4.819  1.5207  0.7651  0.6256
  959MOL0     H29451   6.997   1.740   5.392  0.4863 -1.8612 -1.4153
  959MOL0     H29452   6.795   1.791   5.547  1.3401 -2.5562 -0.6945
  959MOL0     H29453   6.372   1.748   5.397 -0.9156  0.7365 -0.1871
  959MOL0     H29454   6.425   1.925   5.371  0.0971  1.9856  2.8710
  959MOL0     H29455   6.246   1.879   5.538 -0.8118 -0.0264  0.6790
  959MOL0     H29456   6.375   1.975   5.595 -0.8219 -0.0278  1.0716
  959MOL0     H29457   6.290   1.807   5.759 -0.5596  1.0753 -0.6424
  959MOL0     H29458   6.459   1.763   5.732 -1.2751 -1.4406  2.0641
  959MOL0     H29459   6.400   1.587   5.575  1.1329 -0.3881  0.6821
  959MOL0     H29460   6.321   1.560   5.726  1.7372  1.1910  0.1792
  959MOL0     H29461   6.008   1.619   5.440 -0.6597  2.6238  1.3539
  959MOL0     H29462   6.553   1.817   5.194 -0.9116  1.6613  3.2383
  959MOL0     H29463   6.767   1.689   4.953 -0.2795 -0.8003  0.1458
  959MOL0     H29464   6.623   1.760   4.990  0.2090 -2.3944  3.0343
  959MOL0     H29465   6.761   1.868   4.947  0.8565 -2.4505 -4.1858
  960MOL0     O29466   8.176   5.929   1.216  0.1275  0.0431  0.0064
  960MOL0     C29467   8.085   5.849   1.220 -0.9627 -0.2185  0.6361
  960MOL0     O29468   7.985   5.845   1.313  0.1888 -0.3861 -0.2021
  960MOL0     C29469   7.929   5.970   1.350  0.7204  1.2474  0.0174
  960MOL0     C29470   7.930   6.080   1.255 -0.1130  0.4607  0.3320
  960MOL0     C29471   7.878   6.207   1.282 -0.1370 -0.1614  0.9922
  960MOL0     C29472   7.819   6.229   1.402  0.3635  0.0895 -0.0529
  960MOL0     O29473   7.769   6.355   1.429  0.3527  0.1066 -0.1266
  960MOL0     C29474   7.661   6.367   1.526  0.5051 -0.5200  0.4136
  960MOL0     C29475   7.615   6.517   1.525  0.1484 -0.5409 -0.0860
  960MOL0     C29476   7.460   6.515   1.543 -0.3794  0.1347 -0.0546
  960MOL0     C29477   7.410   6.645   1.604  0.0950 -0.0647 -0.1667
  960MOL0     C29478   7.255   6.645   1.622  0.6718 -0.2822  0.4637
  960MOL0     C29479   7.194   6.705   1.498 -0.3475  0.4083 -0.0896
  960MOL0     C29480   7.041   6.694   1.520 -0.6334 -1.2618 -0.7526
  960MOL0     C29481   6.976   6.745   1.385 -0.2386 -0.2384 -0.3647
  960MOL0     N29482   6.986   6.890   1.367  0.5262 -0.7635 -0.2487
  960MOL0     C29483   7.071   6.943   1.268  0.4294 -0.0951 -0.3359
  960MOL0     C29484   7.039   7.076   1.273 -0.9687  0.2840 -0.6661
  960MOL0     C29485   7.103   7.181   1.186  0.4190  0.3901 -0.2087
  960MOL0     C29486   6.990   7.248   1.097 -0.3449  0.1814 -0.6218
  960MOL0     C29487   7.044   7.358   0.995  0.5223  0.2151 -0.4897
  960MOL0     C29488   6.923   7.435   0.948 -0.1461 -0.3963  1.1246
  960MOL0     O29489   6.853   7.334   0.868 -0.4766 -0.5629 -0.1140
  960MOL0     C29490   6.714   7.341   0.855 -1.3021  0.9740 -0.1215
  960MOL0     C29491   6.661   7.225   0.798  0.4640  0.4032  0.6228
  960MOL0     C29492   6.528   7.215   0.773  0.2106  0.3065 -0.2896
  960MOL0     C29493   6.446   7.319   0.814 -0.4164 -0.0630 -1.0365
  960MOL0     C29494   6.291   7.307   0.793  0.2595 -0.3836  0.8263
  960MOL0     O29495   6.207   7.399   0.844  0.3662 -0.4809 -0.1083
  960MOL0     C29496   6.069   7.380   0.820  0.3300 -0.3699 -0.0051
  960MOL0     C29497   6.002   7.448   0.726 -0.6425  0.2423  0.8765
  960MOL0     C29498   5.862   7.416   0.698  0.0202 -0.0897  0.2978
  960MOL0     C29499   5.792   7.325   0.759 -0.3028  0.3525 -0.6373
  960MOL0     O29500   5.676   7.286   0.718  0.1415 -0.4344 -0.9420
  960MOL0     C29501   5.653   7.144   0.730 -0.1319 -0.1213  0.4995
  960MOL0     C29502   5.533   7.100   0.650  0.0578 -0.1247  0.7642
  960MOL0     C29503   5.550   7.144   0.500  0.1754  0.0390  0.5266
  960MOL0     C29504   5.445   7.085   0.415  0.9974 -0.1386 -0.1474
  960MOL0     C29505   5.472   7.145   0.274 -0.6955 -0.1675 -0.3484
  960MOL0     C29506   5.371   7.101   0.176 -0.0112 -0.1873 -0.4774
  960MOL0     C29507   5.389   7.171   0.043  0.7341 -0.6654  0.4816
  960MOL0     C29508   5.273   7.159  -0.061  0.2245 -0.6560  0.0226
  960MOL0    Cl29509   5.349   7.186  -0.222  0.0306 -0.1727  0.1079
  960MOL0     C29510   5.864   7.262   0.873  0.2568 -1.3786 -0.0587
  960MOL0     C29511   5.997   7.292   0.905 -0.4252  0.2645 -0.0212
  960MOL0     O29512   6.254   7.200   0.723  0.2476 -0.6208 -0.2469
  960MOL0     C29513   6.497   7.428   0.882 -0.2453 -0.4788  0.1303
  960MOL0     C29514   6.633   7.444   0.901 -0.0911  0.1061 -0.2323
  960MOL0     N29515   6.951   7.100   1.370 -0.1066  0.4755 -0.0740
  960MOL0     N29516   6.919   6.992   1.433 -0.7327  0.4419 -0.4318
  960MOL0     C29517   7.805   6.123   1.487  0.2876 -0.3649 -0.4718
  960MOL0     C29518   7.870   6.000   1.473 -0.5095  0.1082 -0.0914
  960MOL0     C29519   8.109   5.732   1.133  0.4873  0.3619 -0.9991
  960MOL0     C29520   8.087   5.603   1.182 -0.1442 -0.5577 -0.5020
  960MOL0     C29521   8.107   5.492   1.094  0.1766 -0.1069  0.3523
  960MOL0     C29522   8.138   5.512   0.959 -1.3458  1.1402 -0.3659
  960MOL0     O29523   8.168   5.407   0.874  0.0403  0.3464  0.1643
  960MOL0     C29524   8.104   5.276   0.898  0.2558  0.6761 -0.0354
  960MOL0     C29525   8.123   5.191   0.771  0.5694 -0.1335 -0.3070
  960MOL0     C29526   8.263   5.125   0.752  0.1065 -1.1567  0.2251
  960MOL0     C29527   8.322   5.059   0.879 -0.6932  0.9929 -0.0620
  960MOL0     C29528   8.465   5.012   0.848 -0.1340  0.1555 -0.4215
  960MOL0     C29529   8.582   4.979   0.822  0.1194  0.3300  0.5269
  960MOL0     C29530   8.145   5.642   0.916 -0.2646 -0.1683 -0.9967
  960MOL0     C29531   8.139   5.749   0.994 -0.4332 -0.4115  0.4557
  960MOL0     C29532   8.126   5.886   0.936 -0.2310  0.2244 -0.2910
  960MOL0     H29533   7.966   6.049   1.158  1.7466 -2.1007  1.7327
  960MOL0     H29534   7.898   6.290   1.215 -0.7562 -0.7096  0.1104
  960MOL0     H29535   7.583   6.294   1.503  3.0826 -3.1316 -0.8883
  960MOL0     H29536   7.708   6.335   1.619  0.7739 -2.8470 -0.4537
  960MOL0     H29537   7.657   6.568   1.437  1.7107  2.2562  2.0992
  960MOL0     H29538   7.660   6.562   1.614  0.5574  0.8923 -0.9806
  960MOL0     H29539   7.424   6.428   1.598 -1.5651  0.1161 -0.8271
  960MOL0     H29540   7.422   6.492   1.444  3.3892  2.7367 -2.3705
  960MOL0     H29541   7.455   6.642   1.704 -1.8518 -1.4542  0.7321
  960MOL0     H29542   7.442   6.731   1.544 -0.1852  0.2894  0.1858
  960MOL0     H29543   7.213   6.547   1.647 -2.6838  0.5722 -1.2389
  960MOL0     H29544   7.230   6.707   1.709  1.1728 -2.6432  2.3747
  960MOL0     H29545   7.229   6.808   1.488 -0.6523  0.6513  1.1191
  960MOL0     H29546   7.219   6.644   1.411  1.2182 -0.3570  0.8527
  960MOL0     H29547   7.007   6.745   1.611  1.1612 -2.5953  0.7387
  960MOL0     H29548   7.012   6.589   1.531 -0.9750 -0.8901  4.6808
  960MOL0     H29549   7.002   6.695   1.291  0.6310 -0.1891 -0.1625
  960MOL0     H29550   6.869   6.737   1.406  0.2355 -1.6035  1.9508
  960MOL0     H29551   7.133   6.889   1.198  0.2104 -2.5278  1.2299
  960MOL0     H29552   7.166   7.251   1.242  0.7377 -0.1410  0.1108
  960MOL0     H29553   7.164   7.120   1.119 -1.3344 -1.9103  0.1316
  960MOL0     H29554   6.948   7.164   1.041 -0.5310  0.2784 -0.6265
  960MOL0     H29555   6.909   7.286   1.160 -0.5081  0.0542 -0.7552
  960MOL0     H29556   7.093   7.304   0.914  2.4814 -1.6568  1.8115
  960MOL0     H29557   7.115   7.415   1.055  2.6433 -1.6320 -1.1143
  960MOL0     H29558   6.950   7.512   0.875 -1.8878 -0.7037  0.1053
  960MOL0     H29559   6.861   7.477   1.027 -0.8514  5.0139 -1.8513
  960MOL0     H29560   6.724   7.148   0.754  1.4342  0.3597  2.0151
  960MOL0     H29561   6.477   7.129   0.730 -0.3084  1.0493 -1.2154
  960MOL0     H29562   6.046   7.517   0.655  1.0829 -1.2447  0.4207
  960MOL0     H29563   5.827   7.467   0.609  0.5377 -1.4625 -0.7280
  960MOL0     H29564   5.740   7.083   0.703  1.3242  1.8497  0.5336
  960MOL0     H29565   5.632   7.102   0.828  1.5898 -1.1000  0.4916
  960MOL0     H29566   5.520   6.992   0.655  2.7065 -0.4940  1.2680
  960MOL0     H29567   5.451   7.151   0.701  1.1633  1.7952  0.7340
  960MOL0     H29568   5.552   7.253   0.490 -0.0791  0.3334  3.0924
  960MOL0     H29569   5.642   7.098   0.464 -0.5239  0.4281 -1.9695
  960MOL0     H29570   5.352   7.124   0.458  1.8322  0.7426  0.8816
  960MOL0     H29571   5.435   6.976   0.425  0.3783  0.0184  1.1980
  960MOL0     H29572   5.563   7.099   0.236 -0.9543  1.0918 -2.6504
  960MOL0     H29573   5.482   7.253   0.281  0.9007 -0.1711 -1.8430
  960MOL0     H29574   5.388   6.994   0.161 -0.1307 -0.4916  1.3501
  960MOL0     H29575   5.267   7.120   0.201  0.6018  0.1961  2.0234
  960MOL0     H29576   5.478   7.128  -0.003 -0.1467  0.2716 -2.3510
  960MOL0     H29577   5.404   7.279   0.052 -0.0139 -0.4677 -0.4004
  960MOL0     H29578   5.228   7.060  -0.056  1.4801 -1.3193 -1.1379
  960MOL0     H29579   5.204   7.233  -0.019  0.8706 -1.8483  3.6093
  960MOL0     H29580   5.810   7.185   0.926 -0.0492 -1.6861 -0.7971
  960MOL0     H29581   6.048   7.237   0.983  0.9053  0.4362 -0.7497
  960MOL0     H29582   6.441   7.517   0.910  3.1218  1.9623 -0.2168
  960MOL0     H29583   6.670   7.541   0.932  0.0971 -0.1430  0.3417
  960MOL0     H29584   7.737   6.138   1.570  1.7342 -1.5276  0.9859
  960MOL0     H29585   7.864   5.920   1.545  0.1999  0.3089  0.2062
  960MOL0     H29586   8.053   5.586   1.283  0.3061 -2.8326 -0.6862
  960MOL0     H29587   8.088   5.392   1.130  2.7579 -1.0196 -0.6043
  960MOL0     H29588   7.996   5.289   0.911 -0.1172 -0.0799 -2.0954
  960MOL0     H29589   8.135   5.225   0.990 -0.9928  1.8004  1.0609
  960MOL0     H29590   8.101   5.250   0.681  1.9702 -0.3573 -0.8185
  960MOL0     H29591   8.049   5.110   0.767 -2.3498  2.4017 -2.0808
  960MOL0     H29592   8.332   5.204   0.722  0.1038 -0.4393  2.0068
  960MOL0     H29593   8.269   5.048   0.674 -0.2293 -1.7277  0.7453
  960MOL0     H29594   8.329   5.129   0.963  3.2442 -1.0169  1.5435
  960MOL0     H29595   8.261   4.978   0.920  0.1854  1.0484  1.4512
  960MOL0     H29596   8.675   4.929   0.807 -1.8299 -3.9890  1.2890
  960MOL0     H29597   8.174   5.636   0.811 -1.0128 -4.7376 -1.1424
  960MOL0     H29598   8.108   5.878   0.829 -0.4634 -1.6353 -0.1428
  960MOL0     H29599   8.052   5.953   0.980  0.4141  0.7346  0.0427
  960MOL0     H29600   8.222   5.938   0.944 -1.2575  2.6563 -2.3032
  961MOL0     O29601   7.950   9.521   5.456  1.1387  0.3607 -0.1244
  961MOL0     C29602   7.895   9.524   5.569  0.3504 -0.2098 -0.0944
  961MOL0     O29603   7.965   9.546   5.689 -0.7593  0.6811  0.3788
  961MOL0     C29604   8.101   9.574   5.686  1.0620  0.2306  0.1031
  961MOL0     C29605   8.151   9.700   5.695 -0.2584 -0.4322 -0.1642
  961MOL0     C29606   8.284   9.721   5.728 -0.8527 -0.3500 -0.6514
  961MOL0     C29607   8.380   9.623   5.734 -0.0686  0.6143 -0.7533
  961MOL0     O29608   8.507   9.630   5.765 -0.1645  0.3995 -0.7779
  961MOL0     C29609   8.591   9.710   5.674  0.1426  0.7552  0.9986
  961MOL0     C29610   8.619   9.848   5.729  0.5049 -1.0197 -0.1330
  961MOL0     C29611   8.756   9.913   5.678  0.1787  0.5457  0.0826
  961MOL0     C29612   8.875   9.913   5.777 -0.0209  0.2284 -0.3218
  961MOL0     C29613   8.865  10.034   5.876 -0.3434 -0.1282  0.2144
  961MOL0     C29614   8.954  10.025   5.995  0.1667 -1.1279 -0.7016
  961MOL0     C29615   8.974  10.163   6.059 -0.0350 -0.5668 -1.0712
  961MOL0     C29616   9.097  10.240   6.005  0.4664 -0.2561  0.3025
  961MOL0     N29617   9.106  10.366   6.080  0.3252 -0.5870 -0.5487
  961MOL0     C29618   9.126  10.383   6.213  0.1106  1.3116  0.3703
  961MOL0     C29619   9.089  10.506   6.235  0.1256  0.7076  0.4378
  961MOL0     C29620   9.078  10.567   6.377  0.8836 -0.4628  0.7100
  961MOL0     C29621   9.214  10.551   6.452 -0.6641 -1.0125 -0.1438
  961MOL0     C29622   9.211  10.454   6.578 -0.5301  0.4780  0.0444
  961MOL0     C29623   9.335  10.427   6.662 -0.5759 -0.2016 -1.1691
  961MOL0     O29624   9.448  10.366   6.596 -0.5340  0.4725  0.2533
  961MOL0     C29625   9.426  10.265   6.503 -0.9162  0.6319 -0.6459
  961MOL0     C29626   9.487  10.283   6.380 -0.1636  0.4634  0.0016
  961MOL0     C29627   9.464  10.203   6.267  0.6382  0.0932  0.0918
  961MOL0     C29628   9.384  10.087   6.283  1.1505 -0.3955  0.1137
  961MOL0     C29629   9.357  10.005   6.162  0.1378  0.1791  0.0447
  961MOL0     O29630   9.286   9.895   6.179 -0.4322  0.1013  0.3673
  961MOL0     C29631   9.240   9.817   6.078  0.0090 -0.1395  0.3117
  961MOL0     C29632   9.125   9.746   6.104  0.7159  0.4252  0.6037
  961MOL0     C29633   9.050   9.674   6.010 -0.3113  0.2110 -0.4917
  961MOL0     C29634   9.097   9.663   5.880  0.3556 -0.6262  0.6951
  961MOL0     O29635   9.025   9.585   5.786  0.2666 -0.5679  0.3223
  961MOL0     C29636   9.082   9.569   5.651 -0.8136 -0.0312 -0.2405
  961MOL0     C29637   9.014   9.461   5.564 -0.3047 -0.5842  0.8516
  961MOL0     C29638   9.077   9.475   5.419 -0.5002 -0.5915  0.2935
  961MOL0     C29639   8.994   9.576   5.328 -0.2335  0.0343 -0.1347
  961MOL0     C29640   8.875   9.508   5.258  0.2737  0.5848 -0.4643
  961MOL0     C29641   8.921   9.424   5.143 -0.4299  0.7716 -0.3250
  961MOL0     C29642   8.808   9.383   5.053  0.4844  0.7733  0.1864
  961MOL0     C29643   8.840   9.274   4.950  0.4035  0.0889  0.3072
  961MOL0    Cl29644   8.699   9.186   4.901  0.2244  0.6157 -0.7759
  961MOL0     C29645   9.217   9.738   5.847 -0.5832 -0.0740  0.0287
  961MOL0     C29646   9.295   9.807   5.945  0.6516  0.2426 -0.6161
  961MOL0     O29647   9.400  10.051   6.060 -1.0867 -0.1087  0.8154
  961MOL0     C29648   9.325  10.060   6.410  0.3442  0.1543 -0.4245
  961MOL0     C29649   9.340  10.163   6.512 -0.3718 -0.1884 -0.6072
  961MOL0     N29650   9.049  10.567   6.112 -0.0419 -0.4716 -0.8919
  961MOL0     N29651   9.051  10.476   6.023 -0.2952 -0.4802  0.0029
  961MOL0     C29652   8.325   9.497   5.719  0.1653  0.8374  0.0581
  961MOL0     C29653   8.193   9.469   5.686  0.5622  0.5200  0.5827
  961MOL0     C29654   7.742   9.501   5.579 -1.1806  0.1970  0.3850
  961MOL0     C29655   7.696   9.471   5.710 -1.0697 -0.3972 -0.9589
  961MOL0     C29656   7.551   9.467   5.727  0.1449  0.3539  0.9837
  961MOL0     C29657   7.466   9.507   5.627 -0.2104 -0.6837 -0.1443
  961MOL0     O29658   7.327   9.505   5.655 -0.7559 -0.1630  0.0365
  961MOL0     C29659   7.230   9.527   5.552  0.0782 -0.0737 -0.0669
  961MOL0     C29660   7.088   9.537   5.608 -0.0868 -0.0093  0.0817
  961MOL0     C29661   7.065   9.613   5.740 -0.1429  0.5298  1.0148
  961MOL0     C29662   7.114   9.759   5.718  0.5414  0.8204 -0.1411
  961MOL0     C29663   7.074   9.842   5.830 -0.3331  0.0221 -0.6251
  961MOL0     C29664   7.040   9.908   5.926  0.4225 -0.6529 -0.0102
  961MOL0     C29665   7.512   9.524   5.497  2.1460 -0.4126  0.4339
  961MOL0     C29666   7.651   9.527   5.472  0.0424 -0.3908  1.0945
  961MOL0     C29667   7.693   9.548   5.336 -0.1775  0.1880  0.4598
  961MOL0     H29668   8.082   9.781   5.671  0.1299 -0.0769 -0.1026
  961MOL0     H29669   8.295   9.826   5.755 -3.7081 -0.4953  1.5516
  961MOL0     H29670   8.678   9.644   5.666 -1.1229 -1.0550  1.4838
  961MOL0     H29671   8.553   9.711   5.571  0.4953 -0.1288  0.8489
  961MOL0     H29672   8.625   9.843   5.838  2.5289 -1.3408 -0.2310
  961MOL0     H29673   8.535   9.917   5.713  0.0306 -1.3456  0.8748
  961MOL0     H29674   8.743  10.016   5.643  2.6749  1.3191  1.1869
  961MOL0     H29675   8.778   9.850   5.590 -0.6294  1.6239 -0.9172
  961MOL0     H29676   8.874   9.818   5.832  1.2440  0.0094 -0.6595
  961MOL0     H29677   8.969   9.913   5.723  0.4880 -1.8375  0.4663
  961MOL0     H29678   8.894  10.121   5.817 -0.9087  1.6949  2.4575
  961MOL0     H29679   8.759  10.043   5.905 -0.9300 -1.9624 -1.2035
  961MOL0     H29680   8.907   9.963   6.072  0.1173 -0.0392  0.1610
  961MOL0     H29681   9.044   9.982   5.952 -0.5672 -0.2444 -3.3019
  961MOL0     H29682   9.007  10.146   6.162  3.6909  1.0335 -1.8665
  961MOL0     H29683   8.881  10.222   6.060  1.2527  1.5485 -0.1005
  961MOL0     H29684   9.184  10.174   6.016  0.1207 -1.6865 -3.8250
  961MOL0     H29685   9.087  10.270   5.901  1.8335 -2.1880 -0.4482
  961MOL0     H29686   9.170  10.322   6.292  1.7087  2.1623  0.1650
  961MOL0     H29687   9.060  10.673   6.358  1.3985 -0.6724 -1.0947
  961MOL0     H29688   9.003  10.531   6.448  1.0408 -2.5633 -0.1128
  961MOL0     H29689   9.284  10.511   6.378 -0.4682  1.7508 -1.5732
  961MOL0     H29690   9.239  10.649   6.492  0.9656 -2.0033  1.3908
  961MOL0     H29691   9.166  10.356   6.558  1.0892  0.2101 -2.7060
  961MOL0     H29692   9.129  10.501   6.633  0.2994  1.9526  0.0701
  961MOL0     H29693   9.308  10.356   6.742 -0.2057 -1.1839 -1.8940
  961MOL0     H29694   9.370  10.521   6.704 -2.4898  0.7852 -1.6668
  961MOL0     H29695   9.552  10.369   6.373  1.0703 -0.4888 -0.7652
  961MOL0     H29696   9.526  10.239   6.185 -0.8346  1.3572 -0.5255
  961MOL0     H29697   9.099   9.750   6.209  3.5557 -3.0444  1.6363
  961MOL0     H29698   8.966   9.614   6.043  2.2242 -1.9250  2.7698
  961MOL0     H29699   9.071   9.664   5.597 -3.3213 -1.5745 -2.7525
  961MOL0     H29700   9.184   9.533   5.663 -1.5366 -1.3807  2.5863
  961MOL0     H29701   9.037   9.361   5.603  0.8064 -0.3469  0.8287
  961MOL0     H29702   8.907   9.484   5.561 -0.1531  0.0960  0.6360
  961MOL0     H29703   9.181   9.506   5.434 -0.3453 -1.5635  1.3715
  961MOL0     H29704   9.085   9.375   5.378  1.2893 -0.8390  1.1695
  961MOL0     H29705   9.054   9.623   5.249 -0.4215  1.3598  0.4926
  961MOL0     H29706   8.946   9.649   5.393 -0.9490 -2.5698  2.4859
  961MOL0     H29707   8.807   9.589   5.228 -0.0258  2.1600  3.7849
  961MOL0     H29708   8.826   9.434   5.321 -0.4638  1.9595  0.6558
  961MOL0     H29709   8.990   9.484   5.084  0.1912 -0.4735 -0.8948
  961MOL0     H29710   8.972   9.334   5.180 -1.8451  0.2159  0.3834
  961MOL0     H29711   8.781   9.478   5.007  3.3542  1.0796 -1.1169
  961MOL0     H29712   8.722   9.343   5.107 -0.7116  1.0524 -1.4516
  961MOL0     H29713   8.890   9.314   4.862  1.4212 -0.3238  0.6831
  961MOL0     H29714   8.910   9.211   5.005  1.6628  0.5682 -0.7048
  961MOL0     H29715   9.251   9.729   5.744  1.2370 -3.8731  0.7667
  961MOL0     H29716   9.378   9.871   5.917  1.9067 -1.1361 -0.1817
  961MOL0     H29717   9.267   9.974   6.440  0.3344  0.7600  1.4928
  961MOL0     H29718   9.317  10.135   6.615  1.5286  1.1324  0.2653
  961MOL0     H29719   8.403   9.422   5.728  2.1940  2.7797 -0.3665
  961MOL0     H29720   8.173   9.365   5.663 -0.3731  0.4207  1.7787
  961MOL0     H29721   7.757   9.452   5.798  0.1018 -1.0207 -1.8683
  961MOL0     H29722   7.517   9.422   5.819 -0.8488 -0.2466  0.3381
  961MOL0     H29723   7.230   9.442   5.483  0.7174 -0.1071 -0.0382
  961MOL0     H29724   7.260   9.614   5.493  2.2106 -0.5122  0.2691
  961MOL0     H29725   7.051   9.435   5.626 -1.6497  0.9189  2.5946
  961MOL0     H29726   7.022   9.587   5.536  0.9010  2.2526  0.6588
  961MOL0     H29727   7.120   9.575   5.827  1.5312 -1.3906 -0.7643
  961MOL0     H29728   6.960   9.619   5.770  0.6884  5.0880  3.9162
  961MOL0     H29729   7.223   9.764   5.705  1.0161 -1.6163  2.1021
  961MOL0     H29730   7.061   9.792   5.628  1.0188 -1.9687 -1.5555
  961MOL0     H29731   7.036   9.964   6.017 -0.8754  0.6497 -0.8365
  961MOL0     H29732   7.438   9.533   5.419  2.0841 -1.1328  0.4034
  961MOL0     H29733   7.780   9.613   5.318  0.6927 -1.1548 -0.3958
  961MOL0     H29734   7.736   9.452   5.307  0.8135 -0.2130  3.0803
  961MOL0     H29735   7.613   9.586   5.271  0.4216  0.4223 -0.1590
  962MOL0     O29736   4.736   8.323   8.402  0.2102 -0.0342  0.2195
  962MOL0     C29737   4.817   8.338   8.314 -0.0860 -0.2842  0.3466
  962MOL0     O29738   4.799   8.314   8.175 -0.2085 -0.5842 -0.1605
  962MOL0     C29739   4.690   8.240   8.130 -0.4774  0.1791  0.5596
  962MOL0     C29740   4.648   8.254   8.002  0.4915 -0.5483  0.0123
  962MOL0     C29741   4.536   8.188   7.947 -0.3872 -0.8304 -0.2208
  962MOL0     C29742   4.465   8.103   8.029  0.2189 -0.0008  0.7553
  962MOL0     O29743   4.362   8.032   7.971  0.2241  0.6170 -0.1882
  962MOL0     C29744   4.235   8.106   7.947 -0.0780  0.0005 -0.1152
  962MOL0     C29745   4.118   8.016   7.892 -0.6168 -0.2724 -0.3888
  962MOL0     C29746   4.060   7.945   8.014  0.1341 -0.9088  0.2594
  962MOL0     C29747   3.968   7.834   7.954  0.1193  0.4007 -0.6784
  962MOL0     C29748   3.920   7.733   8.065  0.4692  0.2585 -0.6810
  962MOL0     C29749   3.982   7.595   8.080  0.0882 -0.4640 -0.2828
  962MOL0     C29750   3.898   7.490   8.160 -0.4432 -0.3599  0.1491
  962MOL0     C29751   3.807   7.403   8.078  1.3857  0.2252 -0.1508
  962MOL0     N29752   3.878   7.303   8.002 -0.0856  0.4929 -0.4419
  962MOL0     C29753   3.939   7.315   7.876 -0.2129 -0.2447 -0.4215
  962MOL0     C29754   3.958   7.178   7.844  0.8128 -0.0423  0.1415
  962MOL0     C29755   4.031   7.120   7.724 -0.4301 -0.0525 -0.0032
  962MOL0     C29756   4.183   7.145   7.748  0.3309  0.5099 -0.2510
  962MOL0     C29757   4.245   7.058   7.870  0.1598  0.2516  0.7571
  962MOL0     C29758   4.242   6.912   7.833  0.1529  0.7660 -0.1738
  962MOL0     O29759   4.320   6.901   7.716 -0.4668  0.5487 -0.0473
  962MOL0     C29760   4.282   6.783   7.654  0.1395 -0.6313  0.2970
  962MOL0     C29761   4.258   6.784   7.515  0.4268 -0.6247  0.3762
  962MOL0     C29762   4.216   6.676   7.431  0.3547 -0.4972 -0.7242
  962MOL0     C29763   4.198   6.549   7.493 -0.3165  0.3177 -0.2944
  962MOL0     C29764   4.162   6.423   7.418  0.2316  0.4518 -0.4768
  962MOL0     O29765   4.147   6.434   7.284 -0.3164 -0.2145  0.9819
  962MOL0     C29766   4.107   6.318   7.220  0.5071  0.1629 -0.2593
  962MOL0     C29767   3.977   6.266   7.217  0.9732  0.4199 -0.4503
  962MOL0     C29768   3.938   6.161   7.140  0.6880 -0.3422 -0.2040
  962MOL0     C29769   4.041   6.090   7.078 -0.9973 -0.6106  0.2297
  962MOL0     O29770   4.033   5.978   6.999  0.7994  0.0759 -0.1504
  962MOL0     C29771   3.924   5.881   6.999 -0.0698 -0.4713  0.2207
  962MOL0     C29772   3.841   5.901   6.877  0.1368 -0.2660 -0.3968
  962MOL0     C29773   3.758   6.037   6.875 -0.0754 -0.1438 -0.0679
  962MOL0     C29774   3.660   6.024   6.753  0.1409  0.0063 -0.2071
  962MOL0     C29775   3.573   6.143   6.768 -0.0418 -0.8523 -0.1519
  962MOL0     C29776   3.450   6.139   6.672  0.0984 -0.0021  0.9622
  962MOL0     C29777   3.353   6.255   6.681 -0.2089  0.4177 -0.1657
  962MOL0     C29778   3.418   6.390   6.644  0.5468 -0.3295 -0.5697
  962MOL0    Cl29779   3.291   6.501   6.609  0.8177  0.1753 -0.0814
  962MOL0     C29780   4.173   6.138   7.085 -0.4551  0.4822  0.0965
  962MOL0     C29781   4.210   6.246   7.158 -0.5789  0.3612 -0.4027
  962MOL0     O29782   4.144   6.320   7.478 -0.7079  0.3389 -0.0265
  962MOL0     C29783   4.235   6.537   7.625 -0.3023 -0.4692 -0.8394
  962MOL0     C29784   4.276   6.650   7.701  0.5964  1.5486 -0.1880
  962MOL0     N29785   3.912   7.086   7.948 -0.0148 -0.0522 -0.0457
  962MOL0     N29786   3.871   7.175   8.037 -0.2295  0.3100 -0.3260
  962MOL0     C29787   4.509   8.084   8.158  0.0708 -0.1996  0.0847
  962MOL0     C29788   4.611   8.156   8.212  0.4562  0.4960  0.2547
  962MOL0     C29789   4.954   8.391   8.355 -0.1928  0.1526 -0.3454
  962MOL0     C29790   5.028   8.446   8.247  0.2058  0.2744  0.3003
  962MOL0     C29791   5.162   8.478   8.252  0.4452  0.5767 -0.2219
  962MOL0     C29792   5.225   8.477   8.380 -0.5639  0.3008 -0.1890
  962MOL0     O29793   5.352   8.517   8.400 -0.1577 -0.0654  0.2517
  962MOL0     C29794   5.443   8.513   8.284  0.1498  0.0306 -0.8015
  962MOL0     C29795   5.486   8.373   8.244 -0.7556 -0.6533  0.7125
  962MOL0     C29796   5.600   8.317   8.331  0.0801  0.6945  0.7929
  962MOL0     C29797   5.552   8.220   8.442  0.0828 -0.0447  0.7282
  962MOL0     C29798   5.491   8.089   8.388  0.5854 -1.5353 -0.9894
  962MOL0     C29799   5.447   7.993   8.318 -0.2649 -0.6180 -0.1097
  962MOL0     C29800   5.143   8.432   8.491 -0.5210 -0.2820 -0.1133
  962MOL0     C29801   5.012   8.391   8.482 -0.7154  0.5407 -0.3309
  962MOL0     C29802   4.932   8.347   8.612  0.2287 -0.0089 -0.0374
  962MOL0     H29803   4.711   8.326   7.950 -3.7245  3.0569 -0.6333
  962MOL0     H29804   4.510   8.203   7.843  0.1016 -0.5104 -0.2975
  962MOL0     H29805   4.195   8.150   8.039  1.3706  1.6403 -0.2026
  962MOL0     H29806   4.255   8.182   7.871  0.1611 -1.4539 -1.5527
  962MOL0     H29807   4.166   7.953   7.816  1.1925  1.0730 -0.4229
  962MOL0     H29808   4.036   8.068   7.842 -1.0851  0.6407  1.2314
  962MOL0     H29809   3.996   8.012   8.071 -0.4137 -2.0000  0.9586
  962MOL0     H29810   4.130   7.898   8.083  1.4012 -2.5147 -1.9881
  962MOL0     H29811   3.881   7.876   7.902 -1.1080  0.2814  1.1784
  962MOL0     H29812   4.026   7.769   7.888 -1.1129  0.5978 -2.0270
  962MOL0     H29813   3.934   7.783   8.161  0.8712  1.0385 -1.1345
  962MOL0     H29814   3.817   7.715   8.031  1.5066 -1.0020 -3.5025
  962MOL0     H29815   3.979   7.557   7.977 -2.2042  0.5530 -0.6567
  962MOL0     H29816   4.082   7.611   8.122  0.8460 -3.2147 -0.8367
  962MOL0     H29817   3.840   7.549   8.231 -1.0054 -0.4309 -0.2436
  962MOL0     H29818   3.987   7.439   8.198 -0.1003  0.5774  0.6352
  962MOL0     H29819   3.743   7.359   8.155  1.8400  3.3615  2.2517
  962MOL0     H29820   3.751   7.463   8.006 -1.1732 -2.4577 -0.5503
  962MOL0     H29821   3.978   7.401   7.821 -1.5329  1.7288  1.5382
  962MOL0     H29822   3.994   7.017   7.719 -1.2484  0.2151  0.3876
  962MOL0     H29823   3.996   7.185   7.643  0.1408  4.5526  3.0488
  962MOL0     H29824   4.238   7.119   7.656 -1.2140 -0.4817 -0.9370
  962MOL0     H29825   4.195   7.252   7.766 -1.7934  0.9575 -1.1427
  962MOL0     H29826   4.206   7.084   7.969  0.4339 -1.4453  1.3358
  962MOL0     H29827   4.353   7.069   7.870  0.3711 -0.8590 -2.3340
  962MOL0     H29828   4.143   6.867   7.817  1.5873 -2.4799 -0.7270
  962MOL0     H29829   4.276   6.850   7.917 -4.0621  0.2989  1.4741
  962MOL0     H29830   4.263   6.883   7.470 -0.9497 -0.4127  0.6487
  962MOL0     H29831   4.191   6.699   7.328 -0.4787 -0.1481 -0.4544
  962MOL0     H29832   3.898   6.321   7.265  0.0390  0.4198 -1.9217
  962MOL0     H29833   3.836   6.124   7.144 -0.1768  1.9353  0.5507
  962MOL0     H29834   3.965   5.780   7.000 -2.5088 -1.5671 -0.9583
  962MOL0     H29835   3.865   5.893   7.091  0.0641 -3.1794  0.7293
  962MOL0     H29836   3.908   5.898   6.790 -2.0671 -3.7252 -2.2455
  962MOL0     H29837   3.768   5.819   6.870 -2.0827  1.7307 -2.3718
  962MOL0     H29838   3.707   6.048   6.971  2.9488 -1.6214  1.8600
  962MOL0     H29839   3.831   6.117   6.857 -1.4363  1.4902  1.3432
  962MOL0     H29840   3.602   5.931   6.755  5.2920 -3.6519  0.8625
  962MOL0     H29841   3.714   6.013   6.659  0.9606 -2.2165  0.4467
  962MOL0     H29842   3.623   6.239   6.753 -1.0043 -0.5302 -1.4263
  962MOL0     H29843   3.533   6.151   6.870  1.1034  4.1989  0.1782
  962MOL0     H29844   3.483   6.125   6.568  0.6392 -2.3495  1.3860
  962MOL0     H29845   3.383   6.058   6.705 -0.1699 -0.7679 -1.2718
  962MOL0     H29846   3.306   6.267   6.779 -0.8965  1.4423 -0.6003
  962MOL0     H29847   3.263   6.249   6.619  0.0015 -3.6588 -0.3325
  962MOL0     H29848   3.478   6.423   6.729 -1.3882  2.1656 -0.0494
  962MOL0     H29849   3.478   6.389   6.552 -0.1980 -3.3782 -1.1117
  962MOL0     H29850   4.244   6.077   7.030  0.4637  3.1683 -1.9170
  962MOL0     H29851   4.311   6.285   7.154  1.0341 -3.4744 -0.4285
  962MOL0     H29852   4.229   6.441   7.675  0.8556 -1.8200 -3.1197
  962MOL0     H29853   4.291   6.617   7.803 -0.6457  0.2291 -0.4105
  962MOL0     H29854   4.452   8.020   8.224 -0.2660  1.7729  1.8231
  962MOL0     H29855   4.624   8.144   8.319  1.5280  2.6176  0.4157
  962MOL0     H29856   5.006   8.454   8.141  0.2155 -1.0161  0.1868
  962MOL0     H29857   5.221   8.500   8.164  0.6840 -1.4145 -0.6168
  962MOL0     H29858   5.527   8.570   8.323 -0.5638  0.4996  0.0731
  962MOL0     H29859   5.418   8.567   8.192  0.3002  0.8502 -0.3697
  962MOL0     H29860   5.533   8.385   8.145  2.7210 -1.2243  2.1386
  962MOL0     H29861   5.402   8.303   8.239  0.3595 -2.2366  2.8355
  962MOL0     H29862   5.662   8.392   8.380  1.5204 -1.0935  1.8746
  962MOL0     H29863   5.657   8.256   8.261  1.6355  0.3766  2.2746
  962MOL0     H29864   5.637   8.188   8.502 -1.4161 -0.1283  2.9335
  962MOL0     H29865   5.488   8.292   8.495  2.6263  4.5063 -1.7595
  962MOL0     H29866   5.400   7.908   8.273  1.7942 -1.4673 -0.7645
  962MOL0     H29867   5.190   8.426   8.589  1.2199 -0.8622 -0.9348
  962MOL0     H29868   5.006   8.314   8.685 -0.3799 -0.8228  0.2263
  962MOL0     H29869   4.869   8.427   8.652 -0.7540 -0.5555 -0.4603
  962MOL0     H29870   4.876   8.255   8.594 -1.0911  0.7307  0.1460
  963MOL0     O29871   1.138   4.646   9.979  0.1614 -0.1323  0.5623
  963MOL0     C29872   1.211   4.687   9.890  0.0728 -1.1215  0.2029
  963MOL0     O29873   1.202   4.663   9.759 -0.6692  0.0347 -0.8242
  963MOL0     C29874   1.123   4.566   9.721  0.1425 -0.3072  0.1745
  963MOL0     C29875   1.017   4.581   9.635  0.9018 -0.9043 -0.4337
  963MOL0     C29876   0.930   4.485   9.606 -0.4093  0.4659  0.2300
  963MOL0     C29877   0.961   4.350   9.655  0.2449  0.4803  0.0084
  963MOL0     O29878   0.873   4.252   9.639  0.2674 -0.2279 -0.7376
  963MOL0     C29879   0.809   4.245   9.507 -0.7627  0.1245 -0.2437
  963MOL0     C29880   0.753   4.107   9.480 -0.0059  0.2807 -0.0376
  963MOL0     C29881   0.674   4.047   9.600  1.3030 -0.2487 -0.3713
  963MOL0     C29882   0.634   3.902   9.584 -0.6126 -0.1175  0.9154
  963MOL0     C29883   0.549   3.851   9.701  0.1187  1.0390 -0.2090
  963MOL0     C29884   0.537   3.701   9.697  0.5057  1.2500 -0.2833
  963MOL0     C29885   0.424   3.640   9.607 -1.2559 -0.2635 -0.1075
  963MOL0     C29886   0.467   3.515   9.522 -0.8959 -0.8705 -0.4755
  963MOL0     N29887   0.466   3.387   9.590 -0.0792 -0.1155  0.4539
  963MOL0     C29888   0.564   3.351   9.680  0.1954  0.1623 -0.1482
  963MOL0     C29889   0.503   3.246   9.739  0.1610 -0.8985 -0.1197
  963MOL0     C29890   0.556   3.156   9.848 -0.3748 -0.5719  0.6738
  963MOL0     C29891   0.478   3.025   9.871  0.3414 -0.5814 -0.1141
  963MOL0     C29892   0.539   2.907   9.803  0.3736  0.0024 -0.6296
  963MOL0     C29893   0.659   2.852   9.878 -0.5849  0.0656  0.9553
  963MOL0     O29894   0.731   2.760   9.791  0.2089  0.3462  0.1353
  963MOL0     C29895   0.838   2.705   9.851 -1.6676  0.8455 -0.5735
  963MOL0     C29896   0.887   2.597   9.781  0.0472 -0.3739  0.9249
  963MOL0     C29897   1.011   2.533   9.808  0.1430  1.1052 -0.2090
  963MOL0     C29898   1.084   2.587   9.914 -0.8926  1.1389  0.7610
  963MOL0     C29899   1.217   2.513   9.955  0.2470  0.2165 -0.0960
  963MOL0     O29900   1.255   2.408   9.880 -0.2172  0.1808 -0.3591
  963MOL0     C29901   1.388   2.348   9.890  0.2919 -0.4725  0.6409
  963MOL0     C29902   1.484   2.352   9.992 -0.6199  0.6022  0.3933
  963MOL0     C29903   1.612   2.314   9.976 -0.4725 -0.4320  0.1419
  963MOL0     C29904   1.652   2.255   9.854  0.5609  0.7656  0.4841
  963MOL0     O29905   1.783   2.207   9.844 -0.1526  0.6440  0.4928
  963MOL0     C29906   1.860   2.145   9.949  0.1994 -0.7442  0.5734
  963MOL0     C29907   1.966   2.052   9.892  0.2233 -0.3603  0.4486
  963MOL0     C29908   1.970   2.057   9.738 -0.7519  0.6384  0.1572
  963MOL0     C29909   2.100   2.003   9.681 -0.8590  0.3108 -0.3730
  963MOL0     C29910   2.099   1.851   9.705 -0.2836  1.0098  0.2963
  963MOL0     C29911   2.244   1.801   9.691 -1.3202  0.8006  0.2781
  963MOL0     C29912   2.329   1.834   9.828 -0.3327 -0.3148  0.6739
  963MOL0     C29913   2.431   1.717   9.869  0.9691 -0.5336  1.3518
  963MOL0    Cl29914   2.515   1.748  10.031 -0.3061 -0.5708  0.0052
  963MOL0     C29915   1.563   2.234   9.749  0.8470 -0.5436 -0.1353
  963MOL0     C29916   1.426   2.275   9.771 -0.9082  0.2248 -0.9836
  963MOL0     O29917   1.281   2.572  10.047 -0.0194  0.2361  0.5300
  963MOL0     C29918   1.040   2.701   9.987 -0.2509  0.5740 -0.2363
  963MOL0     C29919   0.922   2.764   9.954  0.5952  0.9084  0.6615
  963MOL0     N29920   0.375   3.238   9.700  1.0673  1.1170  1.3793
  963MOL0     N29921   0.358   3.307   9.594 -0.3177  0.3639  0.6005
  963MOL0     C29922   1.079   4.325   9.732 -0.3070 -0.2245  1.0413
  963MOL0     C29923   1.161   4.433   9.767  0.3404 -0.6813 -0.2927
  963MOL0     C29924   1.316   4.785   9.931 -0.5857 -0.1077  0.5764
  963MOL0     C29925   1.389   4.871   9.842 -0.6708  0.4117  0.3745
  963MOL0     C29926   1.474   4.967   9.889 -0.0603 -1.2411  1.0558
  963MOL0     C29927   1.511   4.983  10.020 -0.2076  0.1818 -0.7728
  963MOL0     O29928   1.615   5.056  10.077 -0.5809 -0.4813 -0.1253
  963MOL0     C29929   1.721   5.058   9.971 -0.5149  0.7013 -1.0332
  963MOL0     C29930   1.851   5.091  10.035  0.1082 -0.5324  0.6854
  963MOL0     C29931   1.908   4.982  10.122  0.0567  0.0478 -1.1973
  963MOL0     C29932   2.032   5.032  10.203  0.4644  0.6846  0.4589
  963MOL0     C29933   2.124   5.110  10.134 -0.3785 -0.8078  0.1908
  963MOL0     C29934   2.208   5.191  10.097  0.6145 -1.2499 -0.4237
  963MOL0     C29935   1.450   4.895  10.110  0.4300 -0.3293 -0.0537
  963MOL0     C29936   1.351   4.807  10.077  0.6094  0.3368  0.6615
  963MOL0     C29937   1.310   4.726  10.192 -0.2011  0.3216  0.4874
  963MOL0     H29938   0.995   4.681   9.600 -1.8636 -1.5184 -0.6487
  963MOL0     H29939   0.832   4.504   9.564 -0.2976  2.1245  0.6673
  963MOL0     H29940   0.726   4.316   9.512 -0.0101  0.9544  1.0304
  963MOL0     H29941   0.886   4.267   9.433 -0.1066  1.3396  0.7542
  963MOL0     H29942   0.832   4.040   9.445 -0.9535  0.8169 -3.6123
  963MOL0     H29943   0.684   4.121   9.396 -1.8846 -2.3250  0.9316
  963MOL0     H29944   0.579   4.097   9.620  1.9313 -0.0458  2.4686
  963MOL0     H29945   0.735   4.063   9.689  1.5568 -1.2590 -0.3596
  963MOL0     H29946   0.564   3.885   9.501 -0.6503 -4.3031  1.5821
  963MOL0     H29947   0.725   3.845   9.565 -1.5664 -1.0718 -1.1506
  963MOL0     H29948   0.614   3.862   9.788 -1.0089 -0.8985  0.9389
  963MOL0     H29949   0.453   3.899   9.719 -0.3784 -0.5967  1.8820
  963MOL0     H29950   0.631   3.646   9.693  1.0767  1.8702  2.5168
  963MOL0     H29951   0.499   3.689   9.799 -1.5174  3.9064 -0.6029
  963MOL0     H29952   0.362   3.711   9.553 -1.8341  1.0686  2.1664
  963MOL0     H29953   0.346   3.602   9.674 -1.3875  1.8707  1.0320
  963MOL0     H29954   0.400   3.504   9.436  1.1219 -1.9695 -2.0069
  963MOL0     H29955   0.569   3.528   9.485  1.1159 -1.5518  4.1376
  963MOL0     H29956   0.663   3.394   9.687  0.0641  0.3738  0.4790
  963MOL0     H29957   0.663   3.136   9.833 -0.1868  0.6159  0.2397
  963MOL0     H29958   0.554   3.218   9.938 -1.5729  0.4248  0.0033
  963MOL0     H29959   0.477   2.999   9.977 -6.4963  0.3761  0.4880
  963MOL0     H29960   0.375   3.040   9.837  1.2698  0.8211 -2.5788
  963MOL0     H29961   0.554   2.926   9.696  0.3010  1.6105 -0.3890
  963MOL0     H29962   0.464   2.830   9.822  1.0611 -0.2604  1.1503
  963MOL0     H29963   0.633   2.808   9.975  3.8898  0.9691  2.7903
  963MOL0     H29964   0.719   2.936   9.913  0.3250  0.6530 -1.8039
  963MOL0     H29965   0.846   2.535   9.702  0.7427  1.0981 -0.6508
  963MOL0     H29966   1.036   2.443   9.753  1.1180 -0.3961  2.5095
  963MOL0     H29967   1.467   2.401  10.087 -1.0322 -0.0641  0.6666
  963MOL0     H29968   1.692   2.329  10.048 -1.4156  4.7083  0.4385
  963MOL0     H29969   1.909   2.231   9.994  2.5189 -0.9906 -1.3226
  963MOL0     H29970   1.796   2.101  10.026  2.1824 -0.0274  2.7615
  963MOL0     H29971   2.061   2.091   9.931 -0.6873  1.3077  1.1076
  963MOL0     H29972   1.950   1.951   9.930 -2.3013  0.5948  2.1252
  963MOL0     H29973   1.892   2.001   9.686  0.7305 -3.3737  1.8614
  963MOL0     H29974   1.977   2.159   9.699 -1.0396  0.1420 -1.2326
  963MOL0     H29975   2.175   2.055   9.741 -0.4889  1.4850 -1.7814
  963MOL0     H29976   2.122   2.024   9.576 -0.6900  0.8852 -0.2291
  963MOL0     H29977   2.034   1.802   9.632  0.8171  0.3310 -0.2538
  963MOL0     H29978   2.071   1.823   9.807  0.6104 -1.5711 -0.1073
  963MOL0     H29979   2.225   1.694   9.683 -0.4827  0.6916 -0.3480
  963MOL0     H29980   2.294   1.843   9.604  0.7305  0.4435  1.2339
  963MOL0     H29981   2.269   1.843   9.919 -0.2877  1.8335  0.5376
  963MOL0     H29982   2.388   1.925   9.813 -0.7898  0.6495  3.8867
  963MOL0     H29983   2.362   1.633   9.880  1.4811 -1.4131 -1.3021
  963MOL0     H29984   2.501   1.708   9.786  0.8239  1.1426  1.0000
  963MOL0     H29985   1.590   2.185   9.656  1.6236 -0.5445  0.0913
  963MOL0     H29986   1.347   2.262   9.698 -0.3901  0.2415 -1.5552
  963MOL0     H29987   1.115   2.727  10.061  1.6351 -0.7944 -1.5729
  963MOL0     H29988   0.885   2.856   9.998 -1.6721 -0.1097  1.0449
  963MOL0     H29989   1.113   4.229   9.771  1.4908  0.0628  0.2814
  963MOL0     H29990   1.255   4.414   9.817  1.2849  1.1829 -1.2708
  963MOL0     H29991   1.391   4.869   9.733  0.3441 -0.0644  0.3898
  963MOL0     H29992   1.511   5.041   9.820 -1.0574  0.1198  1.9282
  963MOL0     H29993   1.707   5.126   9.887 -2.1214  0.5204 -0.9432
  963MOL0     H29994   1.738   4.957   9.932 -1.3787  1.3294 -3.1364
  963MOL0     H29995   1.838   5.174  10.106 -1.1708 -1.0349  1.0647
  963MOL0     H29996   1.928   5.127   9.966 -0.4165 -1.5829 -0.4694
  963MOL0     H29997   1.928   4.884  10.077 -0.8285 -1.8947  2.2900
  963MOL0     H29998   1.843   4.945  10.202  2.0254 -0.1865  0.3780
  963MOL0     H29999   1.997   5.099  10.282 -4.8557  0.0758 -0.9856
  963MOL0     H30000   2.085   4.947  10.246  0.1601  0.0540 -0.3905
  963MOL0     H30001   2.274   5.273  10.077  0.4932 -0.7602  1.0691
  963MOL0     H30002   1.489   4.875  10.209  5.7003 -0.3353 -1.8220
  963MOL0     H30003   1.201   4.720  10.208 -0.1430 -2.2452  0.3557
  963MOL0     H30004   1.342   4.621  10.191  1.1772  0.7337  0.2503
  963MOL0     H30005   1.355   4.758  10.287 -2.0311 -0.0650  1.5543
  964MOL0     O30006   3.251   5.196   7.860 -0.5557  0.1033 -0.0761
  964MOL0     C30007   3.224   5.151   7.748 -0.2849  0.5368  0.4208
  964MOL0     O30008   3.194   5.216   7.638 -0.8924 -0.1712  0.3270
  964MOL0     C30009   3.235   5.343   7.638  0.7279  0.1954 -0.2426
  964MOL0     C30010   3.359   5.375   7.577  0.1357  0.0626  1.2669
  964MOL0     C30011   3.404   5.500   7.546 -0.0747  0.3153  0.1124
  964MOL0     C30012   3.324   5.613   7.578  0.1980  0.6131 -0.1305
  964MOL0     O30013   3.377   5.747   7.568  0.1531  0.6367 -0.7842
  964MOL0     C30014   3.289   5.865   7.578 -0.3525  0.1184 -0.6199
  964MOL0     C30015   3.374   5.991   7.600 -0.2174 -0.1351  0.3831
  964MOL0     C30016   3.307   6.117   7.554 -0.2592 -0.1780 -0.4525
  964MOL0     C30017   3.403   6.235   7.573 -0.2441  0.5179 -0.5059
  964MOL0     C30018   3.344   6.361   7.516  0.1381 -0.2507  0.2080
  964MOL0     C30019   3.448   6.475   7.529  0.2831  0.7362  0.6018
  964MOL0     C30020   3.384   6.610   7.499  0.7149  0.0253 -0.3552
  964MOL0     C30021   3.322   6.629   7.359  0.0763 -0.6323 -1.2575
  964MOL0     N30022   3.243   6.753   7.355  0.8331  0.1910 -0.7115
  964MOL0     C30023   3.299   6.874   7.337  0.3151 -0.4279  0.3979
  964MOL0     C30024   3.204   6.969   7.364  0.0568  0.3245 -0.0483
  964MOL0     C30025   3.222   7.117   7.341  0.1752  0.1333 -0.0099
  964MOL0     C30026   3.268   7.150   7.199 -0.7165  0.0046 -0.6695
  964MOL0     C30027   3.222   7.275   7.142 -0.2105  0.2123 -0.1021
  964MOL0     C30028   3.278   7.406   7.215  0.0511 -0.5101 -0.1670
  964MOL0     O30029   3.219   7.541   7.188 -0.4998 -0.1800 -0.1175
  964MOL0     C30030   3.312   7.634   7.189 -0.0284 -0.7942  0.0449
  964MOL0     C30031   3.394   7.671   7.300  1.1376 -0.1662  0.3938
  964MOL0     C30032   3.486   7.788   7.296 -0.2237  0.5174 -0.1872
  964MOL0     C30033   3.497   7.854   7.178 -1.4251 -0.3062  0.2498
  964MOL0     C30034   3.573   7.983   7.168 -0.2154 -0.2118  0.9934
  964MOL0     O30035   3.624   8.030   7.050 -1.0791 -0.6098 -0.1784
  964MOL0     C30036   3.749   8.083   7.054 -0.1056  0.1798 -0.3883
  964MOL0     C30037   3.856   8.020   6.987  0.5980  0.5972 -0.5524
  964MOL0     C30038   3.988   8.054   7.010  0.4495 -0.4257  0.1143
  964MOL0     C30039   4.023   8.152   7.106 -0.2193 -0.8913 -0.4586
  964MOL0     O30040   4.159   8.188   7.116  0.2538  0.2149 -0.0432
  964MOL0     C30041   4.196   8.291   7.202 -0.6704  0.4692  0.5205
  964MOL0     C30042   4.174   8.434   7.136  0.2054 -0.0802 -1.0205
  964MOL0     C30043   4.146   8.544   7.226  0.2944 -0.2089 -0.3182
  964MOL0     C30044   4.092   8.671   7.158 -0.2016  0.7114 -0.9010
  964MOL0     C30045   4.211   8.746   7.089 -0.2869 -0.2550  0.0259
  964MOL0     C30046   4.166   8.881   7.032  0.5062  0.8702 -0.7202
  964MOL0     C30047   4.144   8.973   7.139  0.3970 -0.9120 -0.4237
  964MOL0     C30048   4.147   9.108   7.064  1.2142 -0.3089  0.8351
  964MOL0    Cl30049   4.308   9.165   7.017 -0.1833  0.0282  0.4069
  964MOL0     C30050   3.915   8.223   7.166 -0.6219  0.1228 -0.3050
  964MOL0     C30051   3.784   8.192   7.132  0.6130 -0.1080  0.7052
  964MOL0     O30052   3.599   8.036   7.280 -0.1606 -0.1586  0.2791
  964MOL0     C30053   3.429   7.810   7.068  0.6044 -0.4772 -0.6788
  964MOL0     C30054   3.336   7.707   7.072 -0.6125  0.1554  0.4780
  964MOL0     N30055   3.086   6.910   7.409 -0.0604 -0.0608 -0.1522
  964MOL0     N30056   3.115   6.779   7.403 -0.2180 -0.5596  0.6424
  964MOL0     C30057   3.195   5.577   7.634 -0.1996 -0.4743  0.1406
  964MOL0     C30058   3.156   5.450   7.673  0.2562 -0.1433  0.0764
  964MOL0     C30059   3.211   5.007   7.741 -0.6185 -0.6375  0.0082
  964MOL0     C30060   3.168   4.954   7.620 -0.5075  0.2205 -0.4651
  964MOL0     C30061   3.151   4.819   7.604  0.8994 -1.2692  0.0922
  964MOL0     C30062   3.161   4.733   7.711 -0.0614 -0.0163 -0.9533
  964MOL0     O30063   3.113   4.601   7.714  0.2354 -0.4331  0.2241
  964MOL0     C30064   3.066   4.539   7.594  1.4065 -0.2728 -0.1974
  964MOL0     C30065   3.033   4.391   7.629  0.2144 -0.0937  0.1901
  964MOL0     C30066   2.933   4.366   7.743  1.9938 -0.1572 -0.5873
  964MOL0     C30067   2.894   4.215   7.758 -0.2305  0.1926  0.3051
  964MOL0     C30068   2.845   4.188   7.890  0.7219  0.2564 -0.0125
  964MOL0     C30069   2.799   4.159   7.995  0.2086 -0.6002 -0.7723
  964MOL0     C30070   3.210   4.781   7.833 -0.5526 -0.4979  0.2572
  964MOL0     C30071   3.244   4.917   7.845 -0.1524 -0.7710 -0.0822
  964MOL0     C30072   3.295   4.970   7.982  0.1890 -0.0713 -0.0887
  964MOL0     H30073   3.429   5.294   7.561 -0.9962 -0.6723 -0.2368
  964MOL0     H30074   3.502   5.523   7.505 -0.1706  1.1102  0.3119
  964MOL0     H30075   3.239   5.874   7.481 -0.3244  0.7948 -0.5763
  964MOL0     H30076   3.210   5.871   7.654  0.8705  1.5032  0.5986
  964MOL0     H30077   3.467   5.975   7.544  0.1461 -2.2932  1.4968
  964MOL0     H30078   3.401   5.998   7.706  2.9713  0.3582 -0.3332
  964MOL0     H30079   3.217   6.131   7.616 -1.3831 -3.2113 -1.2141
  964MOL0     H30080   3.280   6.110   7.449  2.9558  0.1109 -1.4014
  964MOL0     H30081   3.446   6.253   7.672 -2.6971 -0.0763  0.7394
  964MOL0     H30082   3.489   6.218   7.507  1.5149 -1.3099  2.0659
  964MOL0     H30083   3.306   6.342   7.415  0.6392  0.7293 -0.1748
  964MOL0     H30084   3.254   6.374   7.575 -0.7199  1.1768 -1.3369
  964MOL0     H30085   3.473   6.483   7.635 -0.0017 -0.3826  0.7725
  964MOL0     H30086   3.534   6.452   7.467  0.1603 -1.1681  1.0637
  964MOL0     H30087   3.450   6.690   7.533  2.3794 -1.5883  0.3808
  964MOL0     H30088   3.296   6.616   7.562  1.1838 -0.5366  0.3647
  964MOL0     H30089   3.400   6.632   7.282 -0.2227 -1.0240 -1.5781
  964MOL0     H30090   3.246   6.555   7.335  0.0758 -0.9579 -0.3003
  964MOL0     H30091   3.399   6.902   7.306  0.7909  0.4032  2.4800
  964MOL0     H30092   3.139   7.183   7.368  0.0342  0.7672 -1.8648
  964MOL0     H30093   3.303   7.147   7.410 -2.1518  0.3130  2.8262
  964MOL0     H30094   3.370   7.121   7.172 -0.6532  0.6694 -1.1522
  964MOL0     H30095   3.211   7.074   7.145  2.0245 -0.7493 -2.7677
  964MOL0     H30096   3.113   7.288   7.138 -0.2257 -0.2151 -1.9397
  964MOL0     H30097   3.252   7.269   7.037 -2.8395 -0.9200 -0.8782
  964MOL0     H30098   3.386   7.404   7.197  0.1263  0.3696  0.1401
  964MOL0     H30099   3.265   7.391   7.323 -1.5469 -2.5637 -0.5801
  964MOL0     H30100   3.386   7.614   7.392 -2.7335  2.4598  1.9247
  964MOL0     H30101   3.544   7.817   7.383 -1.1296 -0.0495  0.6239
  964MOL0     H30102   3.829   7.950   6.909  3.0532 -0.4866 -0.4911
  964MOL0     H30103   4.060   8.007   6.944  1.1127  0.0027  0.5051
  964MOL0     H30104   4.148   8.277   7.299 -2.3387  1.3345 -0.1314
  964MOL0     H30105   4.302   8.285   7.229 -0.1768  0.3559 -1.3062
  964MOL0     H30106   4.260   8.454   7.072  1.0977  0.2116  0.2229
  964MOL0     H30107   4.089   8.427   7.068  1.2022 -4.0951 -2.1108
  964MOL0     H30108   4.071   8.516   7.300  0.2766 -2.5859 -1.1378
  964MOL0     H30109   4.233   8.568   7.288 -0.8102 -0.3851  1.3438
  964MOL0     H30110   4.044   8.732   7.236  1.4301 -1.9914  2.4821
  964MOL0     H30111   4.031   8.633   7.075  0.9599 -0.4038 -1.2746
  964MOL0     H30112   4.256   8.678   7.015  1.8780  1.3570 -0.2568
  964MOL0     H30113   4.287   8.750   7.168 -1.0250 -0.0541  0.7330
  964MOL0     H30114   4.254   8.913   6.976  0.9789 -0.2754 -0.6531
  964MOL0     H30115   4.078   8.865   6.968 -0.7154 -1.1931  1.3233
  964MOL0     H30116   4.224   8.957   7.213  1.5707 -1.1639 -1.7054
  964MOL0     H30117   4.048   8.957   7.189 -0.4524  1.7813 -1.0697
  964MOL0     H30118   4.070   9.102   6.987 -0.3187 -1.3460  2.3973
  964MOL0     H30119   4.107   9.185   7.130  0.6013  0.1207 -0.0216
  964MOL0     H30120   3.940   8.300   7.238  1.3926 -0.0585 -0.7603
  964MOL0     H30121   3.709   8.248   7.188  1.7024  1.6896  0.4499
  964MOL0     H30122   3.449   7.850   6.969  0.8235 -1.6724 -1.1428
  964MOL0     H30123   3.281   7.687   6.980  0.9733 -0.5205 -0.3671
  964MOL0     H30124   3.130   5.659   7.662 -1.2224 -0.2511 -2.5799
  964MOL0     H30125   3.064   5.414   7.716 -1.2505  1.1396 -1.9009
  964MOL0     H30126   3.154   5.013   7.530  0.3211  1.7219  0.3414
  964MOL0     H30127   3.113   4.790   7.506 -1.0360 -1.4223  0.8449
  964MOL0     H30128   3.150   4.541   7.524  0.9497  1.7938 -0.7641
  964MOL0     H30129   2.986   4.587   7.537  1.2288 -1.2610 -0.8052
  964MOL0     H30130   3.125   4.338   7.656  0.7430 -1.7775 -4.1846
  964MOL0     H30131   3.003   4.334   7.541  2.8734  0.3464 -1.1215
  964MOL0     H30132   2.833   4.402   7.717  1.8256 -1.7491 -2.3688
  964MOL0     H30133   2.972   4.409   7.836  0.0570 -0.5236  0.4661
  964MOL0     H30134   2.813   4.199   7.686  1.9497  0.0170 -2.2450
  964MOL0     H30135   2.979   4.154   7.724 -0.5249  0.7363 -1.4944
  964MOL0     H30136   2.752   4.140   8.089  2.9004  3.5457  1.7075
  964MOL0     H30137   3.228   4.706   7.909 -1.4788 -0.0901  0.8980
  964MOL0     H30138   3.337   4.884   8.035 -1.7707  0.2634  2.1689
  964MOL0     H30139   3.380   5.039   7.976  0.1264 -0.1030 -1.5929
  964MOL0     H30140   3.210   5.012   8.037 -0.6096  1.9280 -2.6589
  965MOL0     O30141   6.026   1.591   2.571  0.5009  0.1575  0.0358
  965MOL0     C30142   6.054   1.662   2.471 -0.6939 -0.4885 -0.1698
  965MOL0     O30143   6.184   1.689   2.420  0.2215 -0.1832 -0.6249
  965MOL0     C30144   6.283   1.617   2.476  0.0541 -0.3796 -0.4464
  965MOL0     C30145   6.309   1.616   2.610  1.3494  0.0616 -1.1691
  965MOL0     C30146   6.385   1.528   2.691 -0.6432 -0.2107  0.8619
  965MOL0     C30147   6.470   1.446   2.613 -0.1266  0.3534  0.1582
  965MOL0     O30148   6.544   1.352   2.682 -0.2532  0.5882 -0.4196
  965MOL0     C30149   6.661   1.287   2.622  0.6464  0.3290  0.0978
  965MOL0     C30150   6.777   1.381   2.578  0.0831  0.2676 -0.4496
  965MOL0     C30151   6.839   1.467   2.695  0.9658  0.0298  0.4078
  965MOL0     C30152   6.971   1.530   2.658  0.4335 -0.2586 -0.1695
  965MOL0     C30153   6.943   1.655   2.560 -0.1322 -0.9123  0.2730
  965MOL0     C30154   7.069   1.737   2.557 -0.0250 -0.6596  0.3446
  965MOL0     C30155   7.056   1.851   2.443  0.2760  0.4624  0.0069
  965MOL0     C30156   7.167   1.953   2.425 -0.6171 -0.2793 -0.4889
  965MOL0     N30157   7.304   1.907   2.368  0.0828 -0.1889 -0.4111
  965MOL0     C30158   7.322   1.860   2.242 -0.3662  0.2946 -0.8091
  965MOL0     C30159   7.448   1.815   2.245  0.4121 -0.1333 -0.4410
  965MOL0     C30160   7.527   1.762   2.121 -0.4827 -0.7051 -0.0215
  965MOL0     C30161   7.672   1.731   2.152 -0.1288 -0.1764  0.1485
  965MOL0     C30162   7.749   1.861   2.156 -0.9041  0.0753  0.4405
  965MOL0     C30163   7.896   1.837   2.179 -0.3171 -1.3001 -0.2063
  965MOL0     O30164   7.959   1.968   2.188  0.2841 -0.1406  0.4663
  965MOL0     C30165   8.087   1.972   2.235 -1.1356 -0.3881  0.3089
  965MOL0     C30166   8.155   2.092   2.206  1.0627 -0.9041 -0.7548
  965MOL0     C30167   8.281   2.122   2.269  0.1496  0.6280  0.1846
  965MOL0     C30168   8.351   2.024   2.340  0.0567  0.2471 -1.0409
  965MOL0     C30169   8.483   2.041   2.392  0.2330 -0.2009  0.4719
  965MOL0     O30170   8.524   1.951   2.485  0.1570  0.2915  0.2750
  965MOL0     C30171   8.646   1.957   2.538  0.4331  0.6604  0.2384
  965MOL0     C30172   8.751   1.913   2.460  0.4076  0.0523 -0.1474
  965MOL0     C30173   8.886   1.933   2.498  0.0648  0.3485 -0.1610
  965MOL0     C30174   8.912   1.984   2.628 -0.5550 -0.3653  0.8707
  965MOL0     O30175   9.038   1.983   2.670  0.2942  0.4135  0.1107
  965MOL0     C30176   9.067   2.011   2.798  1.5981 -1.1168 -0.5810
  965MOL0     C30177   9.218   2.006   2.818  0.8206 -1.1162  0.5189
  965MOL0     C30178   9.298   2.128   2.760 -0.0740  0.3128  0.1528
  965MOL0     C30179   9.442   2.079   2.773  0.5889 -0.0410 -0.2073
  965MOL0     C30180   9.529   2.189   2.731 -0.6677  0.3368 -0.3814
  965MOL0     C30181   9.676   2.180   2.785 -0.0929  0.1014 -0.4570
  965MOL0     C30182   9.795   2.234   2.691 -0.5490 -0.2059 -0.3715
  965MOL0     C30183   9.932   2.232   2.754  0.4542 -0.2421 -0.5673
  965MOL0    Cl30184   9.923   2.276   2.936  0.3817  0.9401  0.3612
  965MOL0     C30185   8.802   2.017   2.712  0.3208  0.1827 -0.7781
  965MOL0     C30186   8.675   2.010   2.663 -0.8610 -0.2543  0.1035
  965MOL0     O30187   8.535   2.148   2.367  0.3089 -0.6002 -0.4744
  965MOL0     C30188   8.288   1.895   2.354 -1.0724 -0.1988 -0.8984
  965MOL0     C30189   8.160   1.872   2.312  0.7763 -0.7215 -0.2618
  965MOL0     N30190   7.505   1.830   2.373 -1.5085  0.5894 -0.1741
  965MOL0     N30191   7.411   1.885   2.439  0.1450 -0.3785 -0.7102
  965MOL0     C30192   6.467   1.444   2.475 -0.7099 -0.9080  0.6767
  965MOL0     C30193   6.369   1.535   2.403 -0.2014  0.7662 -0.1865
  965MOL0     C30194   5.953   1.740   2.412 -0.3508  0.3157  0.1182
  965MOL0     C30195   5.949   1.750   2.274  0.0864 -0.7696  0.2309
  965MOL0     C30196   5.846   1.827   2.215  0.0424  0.8315  0.5895
  965MOL0     C30197   5.751   1.902   2.288  0.7163  0.1903 -1.2160
  965MOL0     O30198   5.650   1.976   2.247  0.2197  0.4810 -0.2312
  965MOL0     C30199   5.651   2.009   2.109  0.2018  0.5010 -0.6569
  965MOL0     C30200   5.550   2.112   2.095  0.1122  1.0230 -0.2248
  965MOL0     C30201   5.597   2.251   2.161 -1.0891  0.0024 -0.3298
  965MOL0     C30202   5.507   2.362   2.160  0.6328 -1.0070 -0.2273
  965MOL0     C30203   5.426   2.373   2.036 -0.0097  0.1112  0.0800
  965MOL0     C30204   5.372   2.371   1.928  0.0454 -0.6614  0.6660
  965MOL0     C30205   5.777   1.894   2.426 -0.3226 -0.3814  0.3596
  965MOL0     C30206   5.870   1.817   2.494  0.3541  0.0454 -0.5216
  965MOL0     C30207   5.861   1.814   2.651  0.1694  0.2845 -0.1422
  965MOL0     H30208   6.259   1.697   2.662 -2.1055 -2.5958  0.0988
  965MOL0     H30209   6.384   1.536   2.799  0.0956  0.6083  0.8276
  965MOL0     H30210   6.707   1.223   2.698  0.1916  0.3016  0.3504
  965MOL0     H30211   6.629   1.225   2.538  0.4344  0.3337  0.1762
  965MOL0     H30212   6.756   1.454   2.499  0.2946  3.3207  2.1199
  965MOL0     H30213   6.860   1.320   2.543  0.6298  1.5006 -1.3866
  965MOL0     H30214   6.859   1.401   2.780  1.4580 -1.0595 -0.5228
  965MOL0     H30215   6.765   1.533   2.740 -0.1065 -1.9328  1.6508
  965MOL0     H30216   7.024   1.560   2.749  0.2142  0.3121 -0.2235
  965MOL0     H30217   7.041   1.458   2.615 -0.9648 -0.3443 -2.5115
  965MOL0     H30218   6.915   1.608   2.466 -0.2633  0.6621 -0.4988
  965MOL0     H30219   6.859   1.718   2.590 -1.7255 -4.0468  3.0518
  965MOL0     H30220   7.071   1.800   2.646 -3.0810 -1.4343  1.0800
  965MOL0     H30221   7.162   1.680   2.545  0.1465 -0.6021  1.3515
  965MOL0     H30222   6.969   1.914   2.467 -0.7576 -0.3525 -1.3974
  965MOL0     H30223   7.035   1.799   2.349  0.0862  0.6809 -0.0712
  965MOL0     H30224   7.129   2.038   2.368  0.6072  1.7491  1.5178
  965MOL0     H30225   7.190   1.993   2.524  3.1680 -0.6578 -1.0423
  965MOL0     H30226   7.250   1.870   2.161  2.8940  0.8670 -3.8522
  965MOL0     H30227   7.472   1.674   2.087  1.1742 -1.3459 -1.1304
  965MOL0     H30228   7.515   1.840   2.045 -1.8370  0.5626  1.3989
  965MOL0     H30229   7.680   1.677   2.247 -1.3915 -4.0200 -1.7019
  965MOL0     H30230   7.714   1.657   2.083  3.1358 -1.9636  3.6603
  965MOL0     H30231   7.702   1.922   2.233 -1.0409 -0.5540  0.8628
  965MOL0     H30232   7.735   1.899   2.054 -0.9380  0.7049  0.6730
  965MOL0     H30233   7.945   1.778   2.101  0.3969  0.5365 -1.2192
  965MOL0     H30234   7.908   1.785   2.274  3.2068  0.2415  0.3546
  965MOL0     H30235   8.095   2.172   2.164 -1.5527 -2.4818 -0.2394
  965MOL0     H30236   8.338   2.202   2.223  1.0211 -0.1759 -0.1620
  965MOL0     H30237   8.739   1.862   2.365  2.2412  0.4378 -0.6232
  965MOL0     H30238   8.970   1.903   2.435  1.8164  1.9258  1.3008
  965MOL0     H30239   9.033   2.114   2.814 -0.4373 -1.3512 -2.8189
  965MOL0     H30240   9.010   1.950   2.868 -1.1635  2.3335  0.4656
  965MOL0     H30241   9.245   1.993   2.923 -0.2994 -1.5123  0.7732
  965MOL0     H30242   9.250   1.914   2.768 -2.5756 -1.3928 -1.3809
  965MOL0     H30243   9.269   2.139   2.655 -2.5912  0.6948  0.8215
  965MOL0     H30244   9.278   2.218   2.818  1.5631 -0.3445  1.8382
  965MOL0     H30245   9.457   1.989   2.712  1.1405 -1.0705  1.3729
  965MOL0     H30246   9.465   2.051   2.876  1.1483 -3.7032 -1.1849
  965MOL0     H30247   9.496   2.285   2.772 -1.2404 -0.7316  1.8117
  965MOL0     H30248   9.544   2.196   2.623  1.0589 -0.2902 -0.2093
  965MOL0     H30249   9.662   2.250   2.868  0.7930 -0.1742 -0.0561
  965MOL0     H30250   9.712   2.085   2.826  1.7210  0.8579 -0.1600
  965MOL0     H30251   9.779   2.336   2.654 -0.6811  0.0967  0.4955
  965MOL0     H30252   9.796   2.167   2.604 -1.0899  0.9147 -1.2881
  965MOL0     H30253   9.974   2.131   2.754  0.5062 -0.2272 -1.3925
  965MOL0     H30254   9.992   2.299   2.691 -2.1661  3.1739  0.2681
  965MOL0     H30255   8.818   2.050   2.814 -3.7429  0.8445 -0.1730
  965MOL0     H30256   8.589   2.050   2.717 -0.5322 -0.7033  0.9807
  965MOL0     H30257   8.344   1.812   2.397  0.3868  1.1024 -0.1878
  965MOL0     H30258   8.116   1.775   2.333 -0.0439 -0.6779 -1.6749
  965MOL0     H30259   6.516   1.369   2.415  3.8544  0.0373  2.8313
  965MOL0     H30260   6.358   1.526   2.295 -0.4300  0.4776 -0.1391
  965MOL0     H30261   6.027   1.705   2.214  1.0670  1.3092 -0.1384
  965MOL0     H30262   5.844   1.836   2.107 -0.6112 -1.2683  0.3695
  965MOL0     H30263   5.623   1.922   2.049 -0.0040  0.0795  0.0280
  965MOL0     H30264   5.746   2.049   2.075  0.7566  0.4675  0.7711
  965MOL0     H30265   5.457   2.069   2.134  0.6297 -0.0249 -0.1039
  965MOL0     H30266   5.543   2.131   1.987  0.8147 -0.3481 -0.5365
  965MOL0     H30267   5.687   2.280   2.105 -0.1102 -0.8780  0.7470
  965MOL0     H30268   5.634   2.228   2.261  0.4630 -1.4287 -1.1884
  965MOL0     H30269   5.441   2.368   2.247 -0.9350 -0.9849 -1.3679
  965MOL0     H30270   5.567   2.453   2.174 -2.4755  1.1648  0.0514
  965MOL0     H30271   5.326   2.378   1.831 -3.5472  0.7739  2.2838
  965MOL0     H30272   5.712   1.961   2.483  0.1372  1.0374 -0.7226
  965MOL0     H30273   5.955   1.835   2.704 -0.4681  2.8056  0.0998
  965MOL0     H30274   5.780   1.873   2.694 -1.0710 -1.4587  0.0339
  965MOL0     H30275   5.830   1.712   2.677  4.8195 -1.8645 -1.8599
  966MOL0     O30276  11.411   7.409   5.126 -0.6952  0.1211  0.1655
  966MOL0     C30277  11.445   7.352   5.022 -0.1099 -0.5105  0.6352
  966MOL0     O30278  11.358   7.307   4.923 -0.7588  0.1882 -0.4072
  966MOL0     C30279  11.224   7.303   4.946 -0.9249  0.2379  0.3897
  966MOL0     C30280  11.175   7.248   5.063 -1.0820  0.7035  0.0826
  966MOL0     C30281  11.038   7.227   5.083  0.7724  0.7616 -0.4363
  966MOL0     C30282  10.942   7.293   4.995 -0.1157  0.3148  0.0617
  966MOL0     O30283  10.802   7.290   5.017  0.0332  0.3665  0.7199
  966MOL0     C30284  10.744   7.258   5.141  0.0914  0.0402 -0.4193
  966MOL0     C30285  10.592   7.274   5.137 -0.2246 -0.4552 -0.4783
  966MOL0     C30286  10.554   7.421   5.151  0.6538 -0.9554 -0.3013
  966MOL0     C30287  10.392   7.436   5.158  0.0989  0.0676 -0.1257
  966MOL0     C30288  10.340   7.575   5.114 -0.4740  0.5100 -0.8544
  966MOL0     C30289  10.190   7.590   5.149  0.5375 -0.4906  0.2117
  966MOL0     C30290  10.078   7.519   5.075  0.2136 -1.3312  0.3866
  966MOL0     C30291  10.071   7.580   4.929 -1.0159  0.2651  0.6112
  966MOL0     N30292  10.011   7.716   4.923  0.2949 -0.0869  0.8826
  966MOL0     C30293   9.871   7.731   4.927 -0.2635 -0.6382 -0.0876
  966MOL0     C30294   9.856   7.864   4.959  0.2543 -0.3373 -0.0167
  966MOL0     C30295   9.717   7.923   4.990 -0.4452 -0.2133 -0.8571
  966MOL0     C30296   9.668   8.043   4.907 -0.3374  0.5703 -0.0925
  966MOL0     C30297   9.692   8.033   4.758  0.5608  0.4476  1.1323
  966MOL0     C30298   9.650   8.174   4.695  0.3993  1.1927 -0.6898
  966MOL0     O30299   9.712   8.177   4.570 -0.7083  0.0686 -0.9436
  966MOL0     C30300   9.641   8.225   4.464 -0.5864  0.7583  0.1525
  966MOL0     C30301   9.567   8.338   4.477  0.6822  0.2468 -0.2359
  966MOL0     C30302   9.501   8.401   4.366 -0.3914  0.8842  0.1607
  966MOL0     C30303   9.528   8.360   4.241 -0.9031 -0.0641  0.5067
  966MOL0     C30304   9.462   8.423   4.124 -0.3099  0.2554 -0.5829
  966MOL0     O30305   9.492   8.381   3.998 -0.9958 -0.2405 -0.2686
  966MOL0     C30306   9.419   8.442   3.900 -0.0976  0.0371 -0.6963
  966MOL0     C30307   9.284   8.423   3.881 -0.0512  0.3238  0.1390
  966MOL0     C30308   9.219   8.473   3.774 -0.4024 -0.1822  0.9826
  966MOL0     C30309   9.274   8.559   3.687 -0.3308  0.1016  0.7061
  966MOL0     O30310   9.201   8.627   3.595 -0.3504  0.3029  0.2175
  966MOL0     C30311   9.095   8.705   3.650  0.1253 -0.2985 -0.2064
  966MOL0     C30312   9.157   8.821   3.725 -0.2999 -0.6110 -0.3824
  966MOL0     C30313   9.256   8.899   3.631  0.2226 -0.4650 -0.5320
  966MOL0     C30314   9.308   9.031   3.694  0.2069 -0.5938  0.8917
  966MOL0     C30315   9.405   9.127   3.613 -0.8731 -0.2338  0.7528
  966MOL0     C30316   9.531   9.074   3.554 -0.9821  0.3655  0.3264
  966MOL0     C30317   9.616   9.019   3.667 -0.8653 -0.0519 -0.4527
  966MOL0     C30318   9.744   8.960   3.621  0.4384  1.1819  0.3337
  966MOL0    Cl30319   9.834   9.092   3.530  0.1434 -0.4049  0.2638
  966MOL0     C30320   9.415   8.581   3.702  0.5548 -0.1850  0.7171
  966MOL0     C30321   9.487   8.517   3.806 -0.0108  0.0135 -0.2824
  966MOL0     O30322   9.373   8.503   4.153  0.1617  0.2273 -0.2148
  966MOL0     C30323   9.621   8.256   4.225 -0.0760  0.7003  0.3711
  966MOL0     C30324   9.670   8.189   4.334 -0.1487  0.1475 -0.0568
  966MOL0     N30325   9.976   7.923   4.985  0.6200  0.3345  0.1112
  966MOL0     N30326  10.068   7.836   4.958  0.4921 -0.0457 -1.0447
  966MOL0     C30327  10.992   7.338   4.872  0.1575 -0.4338 -0.2469
  966MOL0     C30328  11.130   7.344   4.850  0.2153 -0.9748 -1.1095
  966MOL0     C30329  11.597   7.352   4.993 -0.3863 -0.6228  0.6529
  966MOL0     C30330  11.649   7.361   4.859 -0.5920  0.2060  0.4237
  966MOL0     C30331  11.790   7.347   4.833  0.7281 -0.3585  0.1474
  966MOL0     C30332  11.883   7.333   4.934  0.1424 -0.0637  0.5619
  966MOL0     O30333  12.017   7.334   4.922  0.4873  0.6604  0.5280
  966MOL0     C30334  12.062   7.271   4.800 -0.6844 -0.1857  0.8996
  966MOL0     C30335  12.221   7.263   4.803 -1.0643  0.6293 -0.7329
  966MOL0     C30336  12.261   7.191   4.663 -0.7839 -0.3515 -0.6239
  966MOL0     C30337  12.266   7.272   4.529 -0.3394  0.4584 -0.3046
  966MOL0     C30338  12.133   7.273   4.474 -0.6987 -0.3337 -0.3682
  966MOL0     C30339  12.028   7.291   4.438  0.2588  0.8866  1.0859
  966MOL0     C30340  11.831   7.341   5.066 -0.3001  1.1785 -1.3729
  966MOL0     C30341  11.696   7.350   5.098  0.2423  0.7270 -0.4230
  966MOL0     C30342  11.665   7.332   5.240 -0.2222  0.2241  0.0161
  966MOL0     H30343  11.245   7.227   5.143 -1.7265  3.0373  1.3592
  966MOL0     H30344  11.004   7.184   5.176  1.3266  1.6953  0.2260
  966MOL0     H30345  10.766   7.154   5.169 -0.6410  0.4239  1.7887
  966MOL0     H30346  10.779   7.333   5.213  0.2036 -0.1195 -0.3070
  966MOL0     H30347  10.540   7.223   5.219  1.8132 -0.2611  1.0256
  966MOL0     H30348  10.555   7.244   5.039 -0.6705  2.1346 -1.1890
  966MOL0     H30349  10.606   7.491   5.085 -0.6974  1.7948  1.3718
  966MOL0     H30350  10.567   7.454   5.254 -1.8416 -1.0687  0.1014
  966MOL0     H30351  10.339   7.368   5.092 -1.0029  1.4696 -0.7424
  966MOL0     H30352  10.361   7.430   5.263  0.5608  1.0701  0.0789
  966MOL0     H30353  10.400   7.644   5.175 -0.6848 -0.4784  0.5358
  966MOL0     H30354  10.355   7.590   5.007  2.0868  0.9588 -0.4938
  966MOL0     H30355  10.168   7.569   5.254  0.7744  1.1174  0.6165
  966MOL0     H30356  10.164   7.696   5.140 -0.7259 -0.9792 -3.0223
  966MOL0     H30357   9.985   7.534   5.131  0.1260 -1.6074  0.3140
  966MOL0     H30358  10.095   7.411   5.070  1.6039 -1.4163  3.7859
  966MOL0     H30359  10.167   7.589   4.876 -0.7681  1.6189  1.2408
  966MOL0     H30360  10.020   7.511   4.861  0.1171  0.1970 -0.2041
  966MOL0     H30361   9.793   7.657   4.914  0.2930 -1.1507 -0.5884
  966MOL0     H30362   9.648   7.838   4.987  0.1548 -0.7033 -3.9448
  966MOL0     H30363   9.722   7.964   5.091  2.1538  0.3699 -1.1602
  966MOL0     H30364   9.562   8.062   4.926 -0.8776 -3.0228  1.2779
  966MOL0     H30365   9.722   8.129   4.946 -2.6644  1.2823  1.8301
  966MOL0     H30366   9.628   7.963   4.703  3.4838 -0.5212 -1.3103
  966MOL0     H30367   9.798   8.018   4.736  1.0215 -0.6771  3.7095
  966MOL0     H30368   9.687   8.256   4.758 -0.8485  0.2869  1.3207
  966MOL0     H30369   9.543   8.192   4.683 -0.1197 -0.4390  1.0127
  966MOL0     H30370   9.553   8.390   4.571 -0.1877  1.1193 -0.8327
  966MOL0     H30371   9.437   8.484   4.393  0.5484  0.8887  2.6317
  966MOL0     H30372   9.229   8.383   3.965 -2.2923  2.7776 -0.0295
  966MOL0     H30373   9.112   8.456   3.775 -0.2707 -1.0641  1.5321
  966MOL0     H30374   9.049   8.752   3.563  1.6942  3.9929  1.0305
  966MOL0     H30375   9.016   8.647   3.700 -2.4632  0.3690 -3.2151
  966MOL0     H30376   9.087   8.889   3.773  1.0600 -0.5445  1.6196
  966MOL0     H30377   9.212   8.780   3.810 -0.6551  0.6035  0.4494
  966MOL0     H30378   9.348   8.839   3.624  0.2078 -0.6434  0.6556
  966MOL0     H30379   9.190   8.921   3.547 -2.0171 -1.4016  0.8996
  966MOL0     H30380   9.356   9.009   3.790 -1.4992 -0.0308  1.9149
  966MOL0     H30381   9.215   9.088   3.697  1.9065  2.6260 -1.2926
  966MOL0     H30382   9.436   9.208   3.680  2.6278  1.0777 -2.1008
  966MOL0     H30383   9.344   9.170   3.533  2.1865  0.1431 -1.5682
  966MOL0     H30384   9.521   9.004   3.471  1.6328 -1.2864  1.2825
  966MOL0     H30385   9.588   9.159   3.516 -2.4693  1.6222  0.7966
  966MOL0     H30386   9.564   8.936   3.715  0.8737  0.1928  2.0727
  966MOL0     H30387   9.636   9.098   3.740  1.2220  0.1659 -1.1976
  966MOL0     H30388   9.800   8.924   3.708 -0.8236 -1.3100  0.2230
  966MOL0     H30389   9.716   8.865   3.574 -0.8601  0.6747  2.0299
  966MOL0     H30390   9.472   8.639   3.631  0.0689  1.3194  1.5109
  966MOL0     H30391   9.592   8.541   3.819 -0.3303  2.2576 -1.3010
  966MOL0     H30392   9.657   8.221   4.128  0.1307 -1.7233  1.2474
  966MOL0     H30393   9.735   8.103   4.323 -0.9813 -0.5503  0.3430
  966MOL0     H30394  10.921   7.366   4.795 -1.5214 -0.6144  1.1412
  966MOL0     H30395  11.157   7.384   4.753  1.1983 -0.0708 -0.4931
  966MOL0     H30396  11.587   7.381   4.772 -1.1039  1.9107  1.1299
  966MOL0     H30397  11.833   7.352   4.734 -1.2004 -0.1351 -0.7348
  966MOL0     H30398  12.043   7.337   4.715  2.2576 -1.1869 -0.6971
  966MOL0     H30399  12.016   7.174   4.784  2.2276 -1.9570  2.3510
  966MOL0     H30400  12.244   7.200   4.889 -0.1280  2.2361  0.2398
  966MOL0     H30401  12.268   7.361   4.815 -0.8342  0.3575  0.7675
  966MOL0     H30402  12.191   7.108   4.647 -1.2174  0.0357 -0.7782
  966MOL0     H30403  12.355   7.140   4.685 -0.0743  1.6365  1.2288
  966MOL0     H30404  12.291   7.377   4.548 -1.0258  0.7588 -0.9821
  966MOL0     H30405  12.334   7.224   4.458 -1.7502 -1.8394 -0.2174
  966MOL0     H30406  11.928   7.318   4.410  1.0532  2.7065 -0.1555
  966MOL0     H30407  11.902   7.328   5.147  0.0107 -0.7680 -1.9062
  966MOL0     H30408  11.655   7.427   5.293  2.7311  0.5483  0.1530
  966MOL0     H30409  11.570   7.280   5.248  0.1130 -0.7456 -1.7829
  966MOL0     H30410  11.738   7.274   5.297 -0.9804 -1.7687 -0.9400
  967MOL0     O30411  10.614   6.820  10.289  0.2187 -0.0351 -0.9471
  967MOL0     C30412  10.602   6.700  10.286  0.9963  0.9801 -0.0168
  967MOL0     O30413  10.507   6.625  10.361 -0.0780 -1.0822 -1.3947
  967MOL0     C30414  10.428   6.694  10.443 -0.1043  0.3085 -0.4718
  967MOL0     C30415  10.473   6.720  10.570  1.7588 -0.5157 -0.3389
  967MOL0     C30416  10.380   6.780  10.659  0.1206  0.9588  0.4196
  967MOL0     C30417  10.253   6.823  10.618 -0.0372 -1.8114 -0.0974
  967MOL0     O30418  10.175   6.889  10.716  0.7539  0.1548 -0.1433
  967MOL0     C30419  10.102   7.006  10.674 -0.0818  0.9233 -0.4522
  967MOL0     C30420  10.002   7.048  10.781 -0.3977  0.3409  0.6320
  967MOL0     C30421   9.932   7.173  10.748  0.4110 -0.6033  0.0993
  967MOL0     C30422  10.015   7.294  10.761  0.1624  0.4015 -0.3844
  967MOL0     C30423   9.943   7.420  10.785  0.0033  0.3712  0.0154
  967MOL0     C30424  10.028   7.540  10.754 -0.6301 -0.2643 -0.0397
  967MOL0     C30425   9.947   7.667  10.805 -1.1965 -0.3673  0.1971
  967MOL0     C30426  10.043   7.785  10.808  0.4754  1.0108  0.3812
  967MOL0     N30427  10.055   7.851  10.678 -1.7586 -0.2093  0.1666
  967MOL0     C30428   9.956   7.894  10.589  0.0021  0.3552 -0.6528
  967MOL0     C30429  10.027   7.944  10.487 -0.2962  0.2962 -0.0456
  967MOL0     C30430   9.972   8.000  10.363 -0.1786  0.2172 -0.1889
  967MOL0     C30431   9.951   8.151  10.368  0.8374  0.0875 -0.6940
  967MOL0     C30432   9.840   8.196  10.271  0.8201 -0.6552 -0.6328
  967MOL0     C30433   9.851   8.344  10.253 -0.0170 -0.4743  0.2346
  967MOL0     O30434   9.731   8.411  10.205  0.2436 -0.5464  0.4507
  967MOL0     C30435   9.646   8.460  10.301  0.2661 -0.5322 -0.3304
  967MOL0     C30436   9.562   8.559  10.265  0.2692 -0.2110  0.7462
  967MOL0     C30437   9.456   8.614  10.345  0.2023 -0.5368  0.4091
  967MOL0     C30438   9.433   8.548  10.481 -0.0358 -0.5452  0.6171
  967MOL0     C30439   9.317   8.596  10.567 -0.0178 -0.1337  0.1790
  967MOL0     O30440   9.262   8.723  10.539  0.2409  0.5701  0.3381
  967MOL0     C30441   9.159   8.774  10.612 -0.2352  0.4490  0.4937
  967MOL0     C30442   9.115   8.893  10.576  0.1198 -0.1241  0.2540
  967MOL0     C30443   9.014   8.968  10.634 -0.0183 -0.1760 -0.3641
  967MOL0     C30444   8.960   8.920  10.741 -0.6518  0.0877  0.1611
  967MOL0     O30445   8.876   8.998  10.808 -0.4895 -0.1555 -0.5091
  967MOL0     C30446   8.895   9.036  10.943 -0.3833 -0.2877  0.3690
  967MOL0     C30447   8.841   9.177  10.983 -0.8424  0.0390  0.8246
  967MOL0     C30448   8.848   9.187  11.139 -0.4375 -0.2834 -0.8578
  967MOL0     C30449   8.763   9.305  11.187 -0.2945 -0.2553 -1.5566
  967MOL0     C30450   8.782   9.314  11.342  0.8163  0.7219 -0.3639
  967MOL0     C30451   8.771   9.455  11.381 -0.5068 -0.7377 -0.0281
  967MOL0     C30452   8.785   9.484  11.530 -0.4519  0.6093  0.0637
  967MOL0     C30453   8.937   9.476  11.569  0.3362 -0.6233  0.9042
  967MOL0    Cl30454   8.942   9.488  11.742  0.2159 -0.2703 -0.0336
  967MOL0     C30455   8.986   8.784  10.779 -0.8562  0.0051  0.2181
  967MOL0     C30456   9.089   8.710  10.721  0.1863 -0.0897  0.7396
  967MOL0     O30457   9.292   8.524  10.660  0.2095 -0.3796 -0.3468
  967MOL0     C30458   9.527   8.450  10.518  0.2918  0.0500 -0.5155
  967MOL0     C30459   9.632   8.406  10.435  0.7228  0.0222  0.3312
  967MOL0     N30460  10.166   7.928  10.513  0.3625  0.0427 -0.1091
  967MOL0     N30461  10.182   7.884  10.633  0.0858  0.3284 -0.2769
  967MOL0     C30462  10.207   6.785  10.493 -0.6543 -0.5241 -0.3477
  967MOL0     C30463  10.292   6.713  10.413  0.3443  0.7288  0.7071
  967MOL0     C30464  10.692   6.623  10.193  0.8670 -0.7274  0.1013
  967MOL0     C30465  10.825   6.658  10.190 -0.4812 -0.9251 -0.3002
  967MOL0     C30466  10.918   6.600  10.110  1.2118  0.5207  0.2205
  967MOL0     C30467  10.880   6.500  10.020  1.4524  0.7310  0.0937
  967MOL0     O30468  10.987   6.443   9.954  0.7264  0.2176 -0.2834
  967MOL0     C30469  10.950   6.343   9.863  0.5171 -0.5694 -0.7518
  967MOL0     C30470  10.946   6.213   9.933 -0.2140 -0.0881  0.1122
  967MOL0     C30471  10.908   6.093   9.844 -0.7050  0.3639  0.6122
  967MOL0     C30472  10.901   5.962   9.916  0.7619  0.8405  0.1383
  967MOL0     C30473  10.774   5.954   9.992 -0.5467 -0.2805 -0.0041
  967MOL0     C30474  10.670   5.959  10.055 -0.1023 -0.4769  0.8647
  967MOL0     C30475  10.740   6.474  10.011  0.0824  1.1086 -0.0079
  967MOL0     C30476  10.646   6.528  10.098  0.7131 -0.0901  0.0017
  967MOL0     C30477  10.516   6.469  10.112  0.5930 -0.6044  0.1469
  967MOL0     H30478  10.574   6.688  10.595  2.2445  1.2608  0.1490
  967MOL0     H30479  10.412   6.802  10.761  0.1301  2.5459  0.1036
  967MOL0     H30480  10.170   7.091  10.667  0.8563  0.4751  2.0808
  967MOL0     H30481  10.035   6.989  10.590  0.8915  0.7261 -1.2071
  967MOL0     H30482  10.058   7.066  10.873 -1.1585  0.5033  1.0695
  967MOL0     H30483   9.931   6.966  10.791  2.2245 -2.2025 -0.2217
  967MOL0     H30484   9.851   7.187  10.820  1.2933  0.1182  0.9702
  967MOL0     H30485   9.890   7.183  10.647 -2.1019  0.6245  1.1865
  967MOL0     H30486  10.098   7.281  10.831  1.4897  0.3394 -1.9201
  967MOL0     H30487  10.066   7.289  10.664 -2.3737 -3.9501 -1.7300
  967MOL0     H30488   9.853   7.428  10.724 -1.2809  1.8691  1.9535
  967MOL0     H30489   9.897   7.419  10.885  0.5242  0.2826  0.2595
  967MOL0     H30490  10.124   7.532  10.806 -0.9302 -2.5870  0.2831
  967MOL0     H30491  10.047   7.539  10.646 -1.6777  0.2453 -0.2374
  967MOL0     H30492   9.898   7.650  10.901 -2.5899  0.1464 -0.4025
  967MOL0     H30493   9.865   7.684  10.735 -0.8463  0.2994 -0.0644
  967MOL0     H30494  10.009   7.859  10.882 -1.0763  1.6934 -0.9503
  967MOL0     H30495  10.144   7.749  10.830  0.8514  0.4625 -2.0267
  967MOL0     H30496   9.849   7.882  10.605  0.0139 -0.1907 -0.9537
  967MOL0     H30497  10.032   7.970  10.277  1.6233  0.1624  1.0259
  967MOL0     H30498   9.873   7.957  10.342 -0.7125  1.1128  0.4446
  967MOL0     H30499   9.917   8.175  10.469  0.5317 -1.5754 -0.3827
  967MOL0     H30500  10.048   8.197  10.347  0.0270  1.8676 -0.7708
  967MOL0     H30501   9.742   8.185  10.317 -0.1281 -0.8736 -2.6101
  967MOL0     H30502   9.838   8.135  10.180 -2.0361 -0.5054 -0.7402
  967MOL0     H30503   9.928   8.357  10.176 -0.4527 -2.6430 -0.6321
  967MOL0     H30504   9.876   8.388  10.350 -1.6271 -0.2787  0.5893
  967MOL0     H30505   9.567   8.601  10.165  0.4562  2.5908  1.8196
  967MOL0     H30506   9.389   8.695  10.319 -0.7669 -1.6459 -0.6932
  967MOL0     H30507   9.162   8.941  10.491 -1.2405  1.4927  0.3584
  967MOL0     H30508   8.989   9.068  10.600 -1.5474  0.0548  1.2345
  967MOL0     H30509   8.847   8.958  11.002  2.1126 -1.4196  1.0287
  967MOL0     H30510   9.003   9.027  10.960 -0.6626 -1.0132  1.9252
  967MOL0     H30511   8.905   9.246  10.928 -0.3821 -2.4638 -2.0355
  967MOL0     H30512   8.739   9.187  10.947 -0.2807  0.9522 -0.5960
  967MOL0     H30513   8.819   9.092  11.184  1.0103  0.0931  0.9931
  967MOL0     H30514   8.953   9.205  11.165 -1.1156  1.7351  0.7493
  967MOL0     H30515   8.659   9.282  11.163 -0.4552 -0.9783 -0.2679
  967MOL0     H30516   8.782   9.398  11.133 -2.7512 -1.0535 -4.0292
  967MOL0     H30517   8.871   9.265  11.383  1.5093  1.1049 -1.3690
  967MOL0     H30518   8.700   9.255  11.381  2.9225 -2.9296 -1.0150
  967MOL0     H30519   8.854   9.503  11.328  0.3414 -0.7333  1.2636
  967MOL0     H30520   8.678   9.503  11.349 -0.1085 -1.4839 -2.4463
  967MOL0     H30521   8.733   9.407  11.587 -3.3508 -0.3410 -3.4980
  967MOL0     H30522   8.736   9.579  11.551 -1.1517 -0.0000  1.2382
  967MOL0     H30523   8.971   9.377  11.538 -0.8438 -0.1751 -2.1014
  967MOL0     H30524   9.003   9.553  11.529  1.3274 -0.9847  1.7645
  967MOL0     H30525   8.942   8.739  10.867  0.6190 -0.3796  0.7882
  967MOL0     H30526   9.098   8.611  10.764 -0.0468  0.4431  2.0680
  967MOL0     H30527   9.519   8.407  10.617  1.0048 -1.0534 -0.9212
  967MOL0     H30528   9.680   8.318  10.478  0.7783 -0.1756 -0.1257
  967MOL0     H30529  10.106   6.809  10.463 -1.4692 -3.5931 -0.4068
  967MOL0     H30530  10.255   6.680  10.317  1.8959  1.7000 -0.2586
  967MOL0     H30531  10.866   6.726  10.264 -1.4989  0.7384 -1.1942
  967MOL0     H30532  11.021   6.632  10.119  1.1562  0.3188  1.7885
  967MOL0     H30533  11.026   6.330   9.785 -0.9177  0.3288 -2.3637
  967MOL0     H30534  10.859   6.374   9.811 -1.3123 -0.7220  2.1562
  967MOL0     H30535  10.877   6.220  10.017  0.1823 -0.3670  0.4687
  967MOL0     H30536  11.047   6.198   9.972 -0.5257 -0.5541  0.7610
  967MOL0     H30537  10.984   6.088   9.766  1.2778 -3.8724  2.5036
  967MOL0     H30538  10.812   6.120   9.799  0.7661  0.5346 -2.6551
  967MOL0     H30539  10.917   5.879   9.846  0.6516 -1.3111  2.5248
  967MOL0     H30540  10.983   5.960   9.988  0.0572  2.0248  1.0041
  967MOL0     H30541  10.571   5.948  10.093 -0.4072 -1.3830 -0.1422
  967MOL0     H30542  10.707   6.388   9.952  1.3315 -1.4364  2.7196
  967MOL0     H30543  10.442   6.531  10.163  1.6008  0.5359  0.2646
  967MOL0     H30544  10.467   6.460  10.014 -0.3997 -4.0346  0.8380
  967MOL0     H30545  10.512   6.372  10.162 -3.2828  0.3319  2.0289
  968MOL0     O30546   8.818   6.457   1.176 -0.6364 -0.3741  0.1662
  968MOL0     C30547   8.841   6.372   1.263 -1.1246 -0.0488  0.5307
  968MOL0     O30548   8.814   6.244   1.259  0.0644 -0.2070 -0.2813
  968MOL0     C30549   8.799   6.179   1.138  0.3778 -0.0504  0.3198
  968MOL0     C30550   8.700   6.229   1.050 -0.2594  0.8937  0.4930
  968MOL0     C30551   8.681   6.161   0.933  0.2052  0.4074 -0.2402
  968MOL0     C30552   8.734   6.029   0.915  0.2424  0.1014  0.0974
  968MOL0     O30553   8.670   5.962   0.813 -0.0905 -0.2866 -0.4581
  968MOL0     C30554   8.637   5.829   0.835 -0.0393  0.7131 -0.3529
  968MOL0     C30555   8.546   5.780   0.716  0.4837 -0.7186  0.3211
  968MOL0     C30556   8.519   5.627   0.738 -0.2904 -0.7317 -0.5918
  968MOL0     C30557   8.474   5.563   0.605 -0.4862  0.5539  1.4978
  968MOL0     C30558   8.325   5.574   0.571 -0.8194  0.2199 -0.8327
  968MOL0     C30559   8.272   5.451   0.494  0.3221  0.3369  0.1554
  968MOL0     C30560   8.329   5.436   0.349  0.1172  0.3109  0.5049
  968MOL0     C30561   8.239   5.350   0.258  0.6589 -0.4330 -0.7533
  968MOL0     N30562   8.284   5.368   0.124  0.1911 -0.2622  0.4226
  968MOL0     C30563   8.404   5.336   0.067 -0.7170  0.5163  1.0799
  968MOL0     C30564   8.406   5.383  -0.060 -0.1167  0.1946  0.4583
  968MOL0     C30565   8.527   5.400  -0.150  0.4356  1.0897 -0.7307
  968MOL0     C30566   8.491   5.466  -0.281 -0.5786 -0.5056  0.8210
  968MOL0     C30567   8.606   5.473  -0.378  0.2351 -0.5808  0.3012
  968MOL0     C30568   8.727   5.542  -0.327 -0.0731  1.7619 -0.8571
  968MOL0     O30569   8.679   5.666  -0.275  0.3909 -0.2653 -0.1270
  968MOL0     C30570   8.674   5.776  -0.357  0.2639  0.9389  0.4121
  968MOL0     C30571   8.635   5.898  -0.303  0.6598 -0.3437  0.3450
  968MOL0     C30572   8.613   6.003  -0.392  0.7336  1.0915  0.5336
  968MOL0     C30573   8.644   5.999  -0.528 -0.0206  0.7147 -0.8791
  968MOL0     C30574   8.661   6.117  -0.612  0.1580 -0.2767  0.4189
  968MOL0     O30575   8.649   6.237  -0.550 -0.0819  0.1514  0.0361
  968MOL0     C30576   8.605   6.344  -0.616  1.4070  0.2311 -0.2393
  968MOL0     C30577   8.472   6.383  -0.653 -0.1888  0.3899 -0.4476
  968MOL0     C30578   8.450   6.498  -0.735  0.5692 -0.6230  0.2985
  968MOL0     C30579   8.568   6.566  -0.778  0.8029  0.5691 -0.4421
  968MOL0     O30580   8.546   6.668  -0.868  0.6108 -0.4993  0.1600
  968MOL0     C30581   8.638   6.718  -0.963  0.2541 -0.0496  0.7672
  968MOL0     C30582   8.624   6.632  -1.090  0.3733  0.6366 -0.2629
  968MOL0     C30583   8.490   6.652  -1.164  0.2863 -0.0743  0.2088
  968MOL0     C30584   8.486   6.555  -1.278 -0.3361 -0.6108  0.0074
  968MOL0     C30585   8.354   6.605  -1.355 -0.0287  0.5814  0.6856
  968MOL0     C30586   8.312   6.496  -1.455  0.9426 -0.5407  0.3732
  968MOL0     C30587   8.207   6.547  -1.563 -0.5206  1.0929 -0.1312
  968MOL0     C30588   8.077   6.579  -1.507 -0.4310  0.1770 -1.5515
  968MOL0    Cl30589   8.001   6.433  -1.424 -0.1354  0.7375  0.3034
  968MOL0     C30590   8.697   6.535  -0.729  0.2557 -0.1869  0.5561
  968MOL0     C30591   8.712   6.425  -0.647 -0.1449  0.0012  0.7468
  968MOL0     O30592   8.668   6.100  -0.742  0.4927 -0.6889 -0.2657
  968MOL0     C30593   8.696   5.879  -0.575 -0.1484  0.4434  0.0760
  968MOL0     C30594   8.705   5.770  -0.494  0.6621 -0.0573  0.6522
  968MOL0     N30595   8.286   5.435  -0.078 -0.6712  0.5461  0.5611
  968MOL0     N30596   8.211   5.416   0.020 -0.0176  0.1822 -1.0378
  968MOL0     C30597   8.823   5.972   1.004  0.2636 -0.2178  0.3795
  968MOL0     C30598   8.851   6.050   1.120 -0.1029  0.0846 -0.3796
  968MOL0     C30599   8.887   6.416   1.393  0.0637 -0.6922  0.4456
  968MOL0     C30600   8.870   6.332   1.497  0.7403  0.5897 -0.4969
  968MOL0     C30601   8.893   6.363   1.635  0.1760  0.3073  0.0951
  968MOL0     C30602   8.943   6.486   1.669  0.4372  0.7592 -0.0099
  968MOL0     O30603   8.972   6.515   1.800  1.1574 -0.3316 -0.1647
  968MOL0     C30604   8.872   6.605   1.866 -0.2630 -0.2339 -0.1919
  968MOL0     C30605   8.736   6.551   1.885  0.2418 -1.1048  0.5619
  968MOL0     C30606   8.737   6.427   1.977  0.5529  0.1698  0.1009
  968MOL0     C30607   8.597   6.388   2.006  0.6101 -0.2822  0.2551
  968MOL0     C30608   8.568   6.239   1.970 -0.1393 -0.2923 -0.4357
  968MOL0     C30609   8.531   6.126   1.955  0.1827 -0.3520 -0.7145
  968MOL0     C30610   8.961   6.581   1.563  0.2450 -0.7184  0.1465
  968MOL0     C30611   8.927   6.551   1.428  0.2456  0.2901  0.1026
  968MOL0     C30612   8.954   6.656   1.321  0.3476 -0.7550  0.0973
  968MOL0     H30613   8.652   6.325   1.066 -0.5595  0.6638  0.9898
  968MOL0     H30614   8.616   6.202   0.856  0.9840  2.3739  0.0738
  968MOL0     H30615   8.726   5.767   0.850  0.1034  0.7292 -1.1025
  968MOL0     H30616   8.584   5.823   0.930 -2.8268  0.4207 -1.8378
  968MOL0     H30617   8.590   5.807   0.619 -2.4409  1.4667 -0.5437
  968MOL0     H30618   8.451   5.834   0.716  1.0578  0.3661 -1.0837
  968MOL0     H30619   8.445   5.601   0.814  0.0749 -0.9181 -0.2981
  968MOL0     H30620   8.617   5.587   0.765  0.6240  3.0421  2.4828
  968MOL0     H30621   8.534   5.614   0.528 -0.2007  1.7601  2.4940
  968MOL0     H30622   8.502   5.457   0.608 -1.5840  0.2597  1.5059
  968MOL0     H30623   8.279   5.570   0.670  1.5766  2.7686  0.5355
  968MOL0     H30624   8.302   5.669   0.523  0.9537  1.4777  0.6702
  968MOL0     H30625   8.285   5.365   0.560 -0.6728 -0.4718 -0.6660
  968MOL0     H30626   8.166   5.461   0.470  0.2340  1.7967  1.0352
  968MOL0     H30627   8.434   5.403   0.354  0.3368  0.8115 -0.5920
  968MOL0     H30628   8.325   5.532   0.296 -0.6923 -1.2376 -2.4451
  968MOL0     H30629   8.251   5.244   0.285 -3.8896 -0.1802  3.5401
  968MOL0     H30630   8.135   5.382   0.268  1.7262  2.5632  3.2510
  968MOL0     H30631   8.488   5.293   0.121 -0.9886  0.8667  1.7887
  968MOL0     H30632   8.601   5.452  -0.089  0.6402  0.8051 -0.7279
  968MOL0     H30633   8.575   5.303  -0.171  3.6205  1.8227  2.2105
  968MOL0     H30634   8.408   5.406  -0.319 -0.9310 -2.9972  4.9325
  968MOL0     H30635   8.448   5.566  -0.269 -0.0750 -0.3950  1.8234
  968MOL0     H30636   8.574   5.515  -0.474 -1.6466 -0.2051  1.0482
  968MOL0     H30637   8.640   5.371  -0.401 -0.6199 -0.2553 -2.8756
  968MOL0     H30638   8.812   5.543  -0.395 -0.0418 -0.3061 -0.9051
  968MOL0     H30639   8.770   5.472  -0.254 -3.1393  0.9865  0.3869
  968MOL0     H30640   8.641   5.917  -0.196  0.6928  2.6120 -0.0853
  968MOL0     H30641   8.588   6.103  -0.361  0.3958  0.4839  2.3236
  968MOL0     H30642   8.384   6.322  -0.634 -0.1810  0.8415  1.1896
  968MOL0     H30643   8.351   6.532  -0.765  0.2717 -1.0679  0.7756
  968MOL0     H30644   8.606   6.818  -0.993  0.7343 -0.1245 -0.0046
  968MOL0     H30645   8.739   6.736  -0.926  1.6389  3.8399 -3.9165
  968MOL0     H30646   8.707   6.646  -1.159  0.3898  2.0688  0.0190
  968MOL0     H30647   8.620   6.524  -1.072  1.2280  0.5018 -0.8362
  968MOL0     H30648   8.405   6.642  -1.097  1.4127 -2.2144  1.4239
  968MOL0     H30649   8.494   6.754  -1.204 -0.9189  0.3628  1.1574
  968MOL0     H30650   8.471   6.450  -1.251 -2.0453 -0.4787 -0.2980
  968MOL0     H30651   8.572   6.569  -1.344  0.6305  0.2578  1.4088
  968MOL0     H30652   8.364   6.698  -1.413 -1.7017 -0.4629 -1.4333
  968MOL0     H30653   8.274   6.620  -1.282 -0.6055  0.1605  0.1489
  968MOL0     H30654   8.394   6.464  -1.520  1.3721  0.7304  0.2465
  968MOL0     H30655   8.269   6.413  -1.398 -0.9112 -1.2382 -1.8935
  968MOL0     H30656   8.192   6.466  -1.635  2.0663  1.5139 -1.2667
  968MOL0     H30657   8.243   6.635  -1.619  2.6914 -1.2668 -2.1546
  968MOL0     H30658   8.095   6.656  -1.431  3.6539  1.7949 -3.8875
  968MOL0     H30659   8.008   6.620  -1.582 -0.6208  1.6575 -0.6148
  968MOL0     H30660   8.787   6.590  -0.755 -0.2256  0.7213  0.7949
  968MOL0     H30661   8.814   6.394  -0.626  0.3373 -3.3550 -4.5995
  968MOL0     H30662   8.733   5.861  -0.676  1.6020 -3.6126  1.2778
  968MOL0     H30663   8.746   5.686  -0.550  1.7270  1.1174 -0.3867
  968MOL0     H30664   8.859   5.870   0.992 -2.2713 -1.3005  1.1369
  968MOL0     H30665   8.915   6.009   1.197 -0.0736  1.3005  0.2519
  968MOL0     H30666   8.834   6.231   1.481 -0.0488  0.7154  0.4333
  968MOL0     H30667   8.872   6.300   1.721 -1.6931 -0.9668 -1.2024
  968MOL0     H30668   8.873   6.698   1.809 -1.7090 -0.0972 -0.0498
  968MOL0     H30669   8.900   6.631   1.968 -0.4992  0.0555 -0.2011
  968MOL0     H30670   8.698   6.522   1.786 -2.1848  1.3315  0.6554
  968MOL0     H30671   8.672   6.629   1.927  0.4213 -1.2083  1.0342
  968MOL0     H30672   8.788   6.439   2.073  1.3109 -0.2831 -0.2415
  968MOL0     H30673   8.792   6.341   1.938  0.0423 -0.6857  1.2094
  968MOL0     H30674   8.582   6.396   2.114  0.1014  1.2917  0.0883
  968MOL0     H30675   8.529   6.453   1.950 -0.7528 -1.1119  0.9058
  968MOL0     H30676   8.493   6.028   1.977  1.4710 -0.0368  3.9830
  968MOL0     H30677   9.001   6.680   1.582 -2.6847  0.5342  0.2692
  968MOL0     H30678   8.859   6.696   1.284 -0.0367 -3.0449 -1.6406
  968MOL0     H30679   9.010   6.736   1.370 -0.2997 -0.6535  0.6884
  968MOL0     H30680   9.009   6.625   1.232  0.6146  1.1845 -0.4456
  969MOL0     O30681   1.994   3.389   7.482  0.1809 -0.0043 -0.0573
  969MOL0     C30682   1.913   3.415   7.396  0.5009 -0.4709 -0.0165
  969MOL0     O30683   1.838   3.327   7.324  0.2703 -0.7557 -0.1555
  969MOL0     C30684   1.826   3.197   7.351  0.2549  0.1298 -0.9353
  969MOL0     C30685   1.709   3.142   7.398 -0.2054  0.6612  0.5892
  969MOL0     C30686   1.687   3.003   7.420  0.0345 -0.3583 -0.6894
  969MOL0     C30687   1.794   2.916   7.389 -0.3599 -0.4187  0.6409
  969MOL0     O30688   1.775   2.789   7.435 -0.5158  0.7787  0.4273
  969MOL0     C30689   1.880   2.691   7.431 -0.3825  0.4264  0.2479
  969MOL0     C30690   1.820   2.552   7.437  0.1687  0.3654 -0.6554
  969MOL0     C30691   1.929   2.444   7.418 -0.2905  1.5222 -0.4106
  969MOL0     C30692   1.890   2.296   7.392 -0.1186  1.1490 -0.6093
  969MOL0     C30693   2.012   2.197   7.373 -0.7314  0.6811  0.4610
  969MOL0     C30694   1.975   2.042   7.350 -0.4027 -0.1161 -0.0459
  969MOL0     C30695   1.957   1.965   7.480  0.3070 -0.4098 -0.3425
  969MOL0     C30696   1.896   1.824   7.439 -0.8229 -0.1766 -0.4362
  969MOL0     N30697   1.848   1.753   7.555 -0.1718 -0.4808  0.3806
  969MOL0     C30698   1.725   1.761   7.614 -0.1029 -0.4777 -0.8999
  969MOL0     C30699   1.725   1.659   7.712 -0.7942 -0.0423  0.4969
  969MOL0     C30700   1.607   1.626   7.792 -0.2990  0.9805  0.4663
  969MOL0     C30701   1.505   1.558   7.694 -0.2205  0.8434 -0.6014
  969MOL0     C30702   1.533   1.414   7.662 -0.3030  0.3564 -0.1156
  969MOL0     C30703   1.560   1.321   7.781  0.1049  0.3276  0.2161
  969MOL0     O30704   1.580   1.182   7.752  0.3088  0.0558  0.6756
  969MOL0     C30705   1.476   1.088   7.766 -0.5292  0.9119 -0.5323
  969MOL0     C30706   1.477   0.983   7.674 -0.0837 -0.0386  0.0609
  969MOL0     C30707   1.372   0.885   7.681 -0.2077  0.1391  0.2158
  969MOL0     C30708   1.265   0.903   7.768  0.0107  0.4172 -0.2951
  969MOL0     C30709   1.154   0.811   7.767  0.3083  0.6086 -1.0266
  969MOL0     O30710   1.048   0.850   7.836  0.0437  0.5177  0.7601
  969MOL0     C30711   0.945   0.768   7.878 -0.1039 -0.2704  0.5723
  969MOL0     C30712   0.809   0.794   7.831 -0.5376  0.4630  0.3863
  969MOL0     C30713   0.708   0.726   7.895  0.3416 -0.0243  0.8110
  969MOL0     C30714   0.723   0.632   7.995 -0.5447 -0.2086  0.3391
  969MOL0     O30715   0.619   0.551   8.032 -0.1489  0.4267  0.4829
  969MOL0     C30716   0.611   0.433   7.957 -0.3064 -0.0259  0.1469
  969MOL0     C30717   0.481   0.379   7.997 -0.6212  0.0725 -0.9472
  969MOL0     C30718   0.364   0.416   7.906  0.7353  0.5803 -0.4256
  969MOL0     C30719   0.230   0.366   7.966 -0.4039 -0.1746  0.3015
  969MOL0     C30720   0.107   0.432   7.916 -0.2234  0.0908  0.5500
  969MOL0     C30721  -0.017   0.349   7.923 -0.3286 -0.7121 -1.1503
  969MOL0     C30722  -0.134   0.450   7.918 -0.2749  0.1500  0.0417
  969MOL0     C30723  -0.244   0.393   8.008  0.0807 -0.1573  0.4636
  969MOL0    Cl30724  -0.289   0.226   7.935 -0.3537  0.2257  0.0222
  969MOL0     C30725   0.858   0.619   8.049  0.9028 -0.1236 -0.9975
  969MOL0     C30726   0.965   0.682   7.982  0.6915  0.3869 -0.9839
  969MOL0     O30727   1.160   0.705   7.708 -0.0490 -0.3727 -0.1578
  969MOL0     C30728   1.276   1.004   7.866 -0.8657  0.9000 -0.1388
  969MOL0     C30729   1.389   1.087   7.869  0.0107 -0.4946  0.1806
  969MOL0     N30730   1.844   1.594   7.701 -0.3489  0.0549 -0.0917
  969MOL0     N30731   1.919   1.649   7.613  0.3338 -0.4578  0.7321
  969MOL0     C30732   1.918   2.966   7.333  0.8488 -0.0925  0.0034
  969MOL0     C30733   1.921   3.109   7.312 -0.3352 -0.3926 -0.0810
  969MOL0     C30734   1.902   3.560   7.357 -0.1697  0.0969 -0.0450
  969MOL0     C30735   1.933   3.660   7.451 -0.3261  1.4833 -0.3700
  969MOL0     C30736   1.933   3.793   7.420 -0.5036  0.2238 -0.2170
  969MOL0     C30737   1.890   3.835   7.301 -0.5849  0.1204 -0.7472
  969MOL0     O30738   1.881   3.974   7.290 -0.6503  0.4976  0.8792
  969MOL0     C30739   1.998   4.047   7.252 -0.7391 -1.0795 -0.2541
  969MOL0     C30740   1.958   4.199   7.274 -0.3629  1.0633 -0.1727
  969MOL0     C30741   1.876   4.237   7.150 -0.1838  0.2323 -0.1665
  969MOL0     C30742   1.961   4.286   7.036 -0.8912 -0.5542  0.6205
  969MOL0     C30743   1.880   4.331   6.923 -0.0324  0.1236 -1.0336
  969MOL0     C30744   1.816   4.391   6.843  0.1273 -0.9822  0.2620
  969MOL0     C30745   1.852   3.743   7.204 -0.7794 -0.6104  0.3981
  969MOL0     C30746   1.858   3.606   7.230  0.1234  0.0468  0.5599
  969MOL0     C30747   1.827   3.509   7.121  0.1762  0.4024 -0.2874
  969MOL0     H30748   1.639   3.216   7.433  0.9244  2.0971 -0.0759
  969MOL0     H30749   1.602   2.962   7.473 -1.1182  1.4344 -1.0712
  969MOL0     H30750   1.931   2.686   7.334 -2.5261 -2.2424 -0.8809
  969MOL0     H30751   1.955   2.710   7.508 -0.1377  1.9973 -0.3369
  969MOL0     H30752   1.742   2.541   7.361 -1.0222 -1.1872  0.7064
  969MOL0     H30753   1.767   2.533   7.531  1.9916 -0.6583  0.2149
  969MOL0     H30754   1.989   2.430   7.508 -0.7157  0.7187 -0.2421
  969MOL0     H30755   2.001   2.461   7.338  0.8619 -0.4459  0.1291
  969MOL0     H30756   1.824   2.261   7.471 -0.5736  1.9342 -0.6305
  969MOL0     H30757   1.833   2.284   7.299  1.5311 -1.7687 -1.3866
  969MOL0     H30758   2.066   2.235   7.285  3.0202 -4.2928  0.1932
  969MOL0     H30759   2.088   2.193   7.451  1.2772  2.0862 -1.2913
  969MOL0     H30760   1.886   2.044   7.285 -1.3338 -1.5245  1.1335
  969MOL0     H30761   2.050   1.986   7.294 -0.0862 -0.5848  0.8468
  969MOL0     H30762   1.890   2.021   7.544 -0.7477 -2.6338  0.6133
  969MOL0     H30763   2.053   1.952   7.531  0.8068 -1.8556 -1.5288
  969MOL0     H30764   1.812   1.843   7.371 -0.2349  2.2642 -0.5569
  969MOL0     H30765   1.958   1.761   7.375 -0.1844 -0.8215  0.7803
  969MOL0     H30766   1.646   1.828   7.580 -1.2816 -1.5068 -0.2906
  969MOL0     H30767   1.630   1.562   7.877 -1.9611 -0.0956  0.1446
  969MOL0     H30768   1.561   1.721   7.821  1.0088  2.6455 -2.3774
  969MOL0     H30769   1.416   1.567   7.756  0.3940 -0.4495  0.5094
  969MOL0     H30770   1.485   1.609   7.599 -0.8747  0.3994 -0.7048
  969MOL0     H30771   1.622   1.423   7.599 -2.8556  0.2265 -4.1079
  969MOL0     H30772   1.455   1.363   7.604  0.3176 -3.0478  1.7641
  969MOL0     H30773   1.496   1.345   7.867 -0.0010  1.6222 -0.2031
  969MOL0     H30774   1.660   1.352   7.814 -0.4909  1.6369  0.8879
  969MOL0     H30775   1.557   0.974   7.601  1.5749  2.2704  1.4512
  969MOL0     H30776   1.379   0.807   7.606 -0.7032 -0.9116  1.2373
  969MOL0     H30777   0.796   0.854   7.742 -1.0201 -3.4975 -2.4660
  969MOL0     H30778   0.611   0.742   7.849  0.9892 -2.3589 -1.6416
  969MOL0     H30779   0.613   0.456   7.850  1.6952 -1.5775 -0.2107
  969MOL0     H30780   0.700   0.373   7.981  2.1177  1.8180 -3.4038
  969MOL0     H30781   0.488   0.270   7.995 -0.3516  0.0496  0.2663
  969MOL0     H30782   0.461   0.400   8.103  0.8146  0.5843 -0.7528
  969MOL0     H30783   0.356   0.525   7.902  1.1488  0.6984  1.1838
  969MOL0     H30784   0.383   0.378   7.806  2.2627  0.8122 -0.2478
  969MOL0     H30785   0.248   0.383   8.072  1.7565 -1.0837  0.1224
  969MOL0     H30786   0.217   0.262   7.934 -0.7769 -0.5490  1.6162
  969MOL0     H30787   0.107   0.443   7.807 -1.8789 -3.3653  0.0773
  969MOL0     H30788   0.091   0.527   7.967 -1.8532  1.2177 -1.8430
  969MOL0     H30789  -0.015   0.273   7.844  2.1586 -0.4975 -1.3622
  969MOL0     H30790  -0.015   0.295   8.018 -1.9467 -1.8964 -1.7405
  969MOL0     H30791  -0.171   0.463   7.816  0.7981  1.1668 -0.2301
  969MOL0     H30792  -0.105   0.551   7.946 -0.7998 -0.2023  2.0360
  969MOL0     H30793  -0.208   0.394   8.111  0.3720  0.7510  0.3581
  969MOL0     H30794  -0.336   0.452   8.003  0.3554  0.1667 -1.2219
  969MOL0     H30795   0.883   0.576   8.146 -0.0679 -0.9229 -1.0882
  969MOL0     H30796   1.065   0.689   8.024 -0.1625  0.5114  1.1812
  969MOL0     H30797   1.205   0.992   7.948  2.1383  0.6687  2.6315
  969MOL0     H30798   1.399   1.160   7.949 -3.3830 -1.0873  1.3192
  969MOL0     H30799   1.999   2.901   7.298  2.0796  1.1458  0.4451
  969MOL0     H30800   2.007   3.162   7.271 -1.8681  1.3989 -1.1118
  969MOL0     H30801   1.970   3.633   7.549  0.7869  1.0076 -0.9060
  969MOL0     H30802   1.969   3.855   7.502 -2.4729 -0.1837  1.0270
  969MOL0     H30803   2.016   4.022   7.147 -0.5410 -0.6168 -0.3330
  969MOL0     H30804   2.088   4.022   7.309  0.0615 -3.0280 -2.2303
  969MOL0     H30805   2.041   4.270   7.273  0.5384  0.1103 -3.0079
  969MOL0     H30806   1.904   4.206   7.369 -0.2171 -0.4799  0.0495
  969MOL0     H30807   1.804   4.319   7.157  1.3985  1.7117 -0.6139
  969MOL0     H30808   1.806   4.159   7.119 -1.1523  1.7477 -1.9759
  969MOL0     H30809   2.029   4.364   7.073  1.7614 -2.1074 -0.6233
  969MOL0     H30810   2.025   4.212   6.987  1.1421  1.9965 -0.8105
  969MOL0     H30811   1.773   4.446   6.761  2.1305 -0.3109 -0.4098
  969MOL0     H30812   1.828   3.780   7.105  0.7549 -1.3415 -0.2782
  969MOL0     H30813   1.892   3.421   7.120  1.1579  1.1098 -0.7446
  969MOL0     H30814   1.721   3.481   7.129  0.6830 -1.4165  0.6740
  969MOL0     H30815   1.864   3.552   7.028  0.0489  0.8960 -0.1138
  970MOL0     O30816   7.040   0.554   2.560 -0.4481 -0.0300 -0.5725
  970MOL0     C30817   6.989   0.510   2.455  0.6866 -0.5138  0.0464
  970MOL0     O30818   7.055   0.451   2.354  0.1252  0.9333  0.6664
  970MOL0     C30819   7.184   0.404   2.355 -0.4542  0.5846 -0.5954
  970MOL0     C30820   7.208   0.265   2.357  0.1190  0.1426  0.1432
  970MOL0     C30821   7.346   0.216   2.352  0.2146 -0.7706  0.0961
  970MOL0     C30822   7.446   0.308   2.357  0.0326 -0.2579  0.6904
  970MOL0     O30823   7.567   0.243   2.341 -0.1312 -0.1139  0.5429
  970MOL0     C30824   7.658   0.272   2.448  0.2785 -0.0300  0.3505
  970MOL0     C30825   7.726   0.133   2.498 -0.3830  1.1775  0.0418
  970MOL0     C30826   7.876   0.146   2.546  0.1315  0.2891 -0.2463
  970MOL0     C30827   7.978   0.128   2.428 -0.5784 -0.4333 -0.3597
  970MOL0     C30828   8.132   0.135   2.454 -0.0878 -0.0742 -0.4072
  970MOL0     C30829   8.172   0.246   2.558  0.8957 -0.0807 -1.0391
  970MOL0     C30830   8.330   0.261   2.539 -0.0860 -0.4000 -0.5951
  970MOL0     C30831   8.406   0.386   2.590 -0.3061  0.6499  0.1427
  970MOL0     N30832   8.547   0.393   2.546  0.6430  0.1872  0.7147
  970MOL0     C30833   8.636   0.492   2.560 -0.3076  0.7727 -0.0546
  970MOL0     C30834   8.745   0.454   2.489 -0.4293  0.0309 -0.3906
  970MOL0     C30835   8.869   0.547   2.485 -0.2099 -0.6511  0.8278
  970MOL0     C30836   8.887   0.596   2.331  0.6063  0.7895 -0.5860
  970MOL0     C30837   9.013   0.682   2.327  0.6028  0.0269 -0.8721
  970MOL0     C30838   9.034   0.749   2.192 -0.8436 -0.1062 -0.4888
  970MOL0     O30839   9.160   0.829   2.196  0.0027 -0.3681  0.3921
  970MOL0     C30840   9.200   0.888   2.082  0.2335  0.0569  0.0272
  970MOL0     C30841   9.119   0.901   1.971  0.7584  0.4504  0.1198
  970MOL0     C30842   9.159   0.966   1.855 -0.0883  0.2625 -0.2084
  970MOL0     C30843   9.291   0.998   1.828  0.1577  0.0730  0.0155
  970MOL0     C30844   9.349   1.048   1.704 -0.4888 -0.5790  0.8211
  970MOL0     O30845   9.469   1.108   1.706 -0.2326 -0.3552  0.9607
  970MOL0     C30846   9.524   1.137   1.579  1.2827  0.2636  0.1977
  970MOL0     C30847   9.560   1.266   1.561  0.3382 -0.0211 -0.1629
  970MOL0     C30848   9.610   1.307   1.437  1.0908  0.2575  0.1513
  970MOL0     C30849   9.623   1.212   1.330  0.1139 -0.5587  0.5317
  970MOL0     O30850   9.670   1.254   1.214  0.7105  0.4923  0.0586
  970MOL0     C30851   9.683   1.174   1.093  0.2633 -0.3378 -0.1429
  970MOL0     C30852   9.731   1.263   0.986  0.2785 -0.5260  0.0695
  970MOL0     C30853   9.753   1.183   0.859 -0.7483 -0.0458  0.1345
  970MOL0     C30854   9.812   1.277   0.750  0.9154 -0.0194 -0.6060
  970MOL0     C30855   9.844   1.194   0.622 -0.3736 -0.1612 -0.6618
  970MOL0     C30856   9.994   1.217   0.585 -0.2911 -0.1765  0.4932
  970MOL0     C30857  10.088   1.151   0.692 -0.1274 -0.0392  0.2551
  970MOL0     C30858  10.210   1.226   0.700 -0.5832 -0.5387 -0.3786
  970MOL0    Cl30859  10.172   1.394   0.751 -0.0672  0.0307 -0.1367
  970MOL0     C30860   9.599   1.072   1.362  0.4003  1.0015  0.3788
  970MOL0     C30861   9.541   1.040   1.481  0.3984 -0.3376 -1.0514
  970MOL0     O30862   9.283   1.027   1.606  0.4271 -0.2825 -0.0288
  970MOL0     C30863   9.377   0.972   1.934 -1.1936  0.3080 -0.1142
  970MOL0     C30864   9.337   0.919   2.063  0.9005  0.6921 -0.0918
  970MOL0     N30865   8.730   0.325   2.452  0.0080 -0.2918 -1.4046
  970MOL0     N30866   8.616   0.289   2.491 -0.1350 -0.1524  1.3358
  970MOL0     C30867   7.423   0.441   2.375 -0.5058  0.5972  0.6360
  970MOL0     C30868   7.294   0.487   2.358  0.7533 -0.3871  0.7361
  970MOL0     C30869   6.852   0.573   2.431  0.1358 -0.3588  0.2886
  970MOL0     C30870   6.804   0.563   2.299 -0.1301  0.0476  0.3656
  970MOL0     C30871   6.679   0.613   2.262 -1.2193  0.4739  0.7050
  970MOL0     C30872   6.599   0.685   2.352 -0.0017 -0.0812  0.0438
  970MOL0     O30873   6.481   0.743   2.309 -0.5804 -0.1045  0.1673
  970MOL0     C30874   6.414   0.680   2.195 -0.2511 -0.7058  0.4682
  970MOL0     C30875   6.285   0.744   2.169  0.2118  0.5360 -0.9825
  970MOL0     C30876   6.234   0.743   2.030  0.2525  0.4302  0.3531
  970MOL0     C30877   6.109   0.829   2.002 -0.3079 -0.0642 -0.1740
  970MOL0     C30878   6.029   0.864   2.117  0.3325  0.3003 -0.2580
  970MOL0     C30879   5.971   0.902   2.216 -1.0992 -0.8584 -0.4469
  970MOL0     C30880   6.651   0.696   2.483 -0.1527 -0.4097 -0.2111
  970MOL0     C30881   6.773   0.640   2.521  0.9582  0.8916 -0.3208
  970MOL0     C30882   6.798   0.653   2.666 -0.1672 -0.1113  0.1319
  970MOL0     H30883   7.124   0.197   2.364  1.4593 -1.5019  1.0795
  970MOL0     H30884   7.358   0.108   2.346  1.3962 -0.5958 -1.5106
  970MOL0     H30885   7.731   0.345   2.412 -0.3362  1.2733  1.6629
  970MOL0     H30886   7.608   0.312   2.536 -0.8343 -1.5633  0.4622
  970MOL0     H30887   7.727   0.064   2.413  0.9525  3.0833 -1.5896
  970MOL0     H30888   7.665   0.096   2.581 -0.6132  1.7152  0.1217
  970MOL0     H30889   7.892   0.073   2.626  0.5755 -0.4382 -0.9771
  970MOL0     H30890   7.891   0.244   2.592 -0.8652  0.5493 -0.4565
  970MOL0     H30891   7.960   0.030   2.384 -0.0458 -1.5535  1.7638
  970MOL0     H30892   7.961   0.207   2.354 -0.0185  0.5084  0.4929
  970MOL0     H30893   8.159   0.036   2.491 -2.4727 -1.2246 -1.5048
  970MOL0     H30894   8.187   0.158   2.363 -0.8218  1.3705 -0.5099
  970MOL0     H30895   8.120   0.342   2.550 -0.3510 -0.5645  0.6818
  970MOL0     H30896   8.141   0.204   2.654 -0.9313 -2.1796 -2.4345
  970MOL0     H30897   8.362   0.248   2.435  2.2417 -3.3750  0.3455
  970MOL0     H30898   8.369   0.174   2.592 -1.8892 -1.3506 -0.7295
  970MOL0     H30899   8.347   0.475   2.565  1.2841  1.3027 -1.4673
  970MOL0     H30900   8.403   0.368   2.698 -1.7841  2.5647  0.4664
  970MOL0     H30901   8.620   0.580   2.621  0.8870  0.6849  0.4031
  970MOL0     H30902   8.853   0.628   2.556 -1.0498  1.2909 -1.4233
  970MOL0     H30903   8.945   0.482   2.528 -0.1780 -0.1343  1.5725
  970MOL0     H30904   8.913   0.516   2.261  1.3852  0.9911 -0.5325
  970MOL0     H30905   8.795   0.641   2.293  0.4920  1.5166  0.5011
  970MOL0     H30906   9.100   0.618   2.344 -0.8246 -2.4900 -2.3443
  970MOL0     H30907   8.997   0.753   2.408 -2.7937  0.6903 -1.9474
  970MOL0     H30908   8.947   0.808   2.160  1.4361  1.8397 -3.7708
  970MOL0     H30909   9.056   0.683   2.108 -0.1955  2.6634 -2.6705
  970MOL0     H30910   9.012   0.885   1.965  0.1906  3.3729  0.8759
  970MOL0     H30911   9.085   1.001   1.784 -1.0290  1.1604  1.1720
  970MOL0     H30912   9.531   1.343   1.632  1.8637 -0.8406  1.4344
  970MOL0     H30913   9.628   1.412   1.416 -0.4194  0.6999  0.9477
  970MOL0     H30914   9.759   1.099   1.116 -0.8004 -1.3299  0.2674
  970MOL0     H30915   9.595   1.114   1.069 -0.2808 -0.3283  1.6442
  970MOL0     H30916   9.656   1.339   0.958 -1.5090 -2.1035  0.3386
  970MOL0     H30917   9.813   1.321   1.027 -0.5331  2.9909 -2.7671
  970MOL0     H30918   9.838   1.118   0.879  2.4317  3.6306 -0.2367
  970MOL0     H30919   9.664   1.123   0.837 -0.1719 -0.9156  0.1382
  970MOL0     H30920   9.884   1.345   0.797 -4.6306  5.4790  1.3387
  970MOL0     H30921   9.733   1.348   0.724 -0.6249 -2.4935 -3.2755
  970MOL0     H30922   9.779   1.222   0.539  0.5764  3.0090 -0.4908
  970MOL0     H30923   9.829   1.088   0.646  1.4891 -0.8621 -2.3188
  970MOL0     H30924   9.999   1.169   0.487 -2.6711  0.5710 -0.0557
  970MOL0     H30925  10.004   1.325   0.575 -1.1305 -0.1223  0.1639
  970MOL0     H30926  10.099   1.048   0.657 -1.6511 -0.6247  1.4006
  970MOL0     H30927  10.039   1.147   0.790  0.2821  3.1553  0.6991
  970MOL0     H30928  10.249   1.179   0.791 -0.5826  0.7097  0.2890
  970MOL0     H30929  10.262   1.223   0.604  1.1871  1.6011  0.4320
  970MOL0     H30930   9.611   0.993   1.288 -1.1594  0.0871  1.0488
  970MOL0     H30931   9.529   0.937   1.514 -0.2295  0.7304  2.4060
  970MOL0     H30932   9.483   0.980   1.910 -0.6632 -2.6803  0.8084
  970MOL0     H30933   9.412   0.898   2.138 -1.3961 -2.0330  1.6509
  970MOL0     H30934   7.510   0.505   2.388  1.4995 -1.7414 -0.3131
  970MOL0     H30935   7.273   0.594   2.354  1.9624 -0.1720 -2.3788
  970MOL0     H30936   6.861   0.502   2.230 -0.5924  0.0600 -0.0354
  970MOL0     H30937   6.645   0.595   2.160  1.7203 -0.9697 -0.1271
  970MOL0     H30938   6.400   0.574   2.215  0.7934 -1.5113 -2.5872
  970MOL0     H30939   6.475   0.697   2.106  0.0765  0.3861  0.8797
  970MOL0     H30940   6.298   0.849   2.196 -0.4793  0.1753  0.8802
  970MOL0     H30941   6.212   0.689   2.228  5.8658 -7.0657  0.4425
  970MOL0     H30942   6.216   0.639   2.003  0.2036  0.5451 -0.0696
  970MOL0     H30943   6.314   0.773   1.961  1.9118 -2.6342  0.7495
  970MOL0     H30944   6.149   0.917   1.951  0.3679  0.4254  1.1854
  970MOL0     H30945   6.054   0.771   1.926  0.2669 -0.7946 -0.0530
  970MOL0     H30946   5.925   0.943   2.304  1.1239 -4.0930  2.4208
  970MOL0     H30947   6.583   0.746   2.551 -0.7870 -0.5988 -0.6980
  970MOL0     H30948   6.802   0.557   2.718 -0.4326  0.7598  1.8250
  970MOL0     H30949   6.890   0.711   2.679  0.2096 -0.8524  0.8201
  970MOL0     H30950   6.719   0.705   2.722 -0.3986 -1.1733  0.8099
  971MOL0     O30951   5.459   5.485   1.353 -0.1303 -0.1541 -0.2788
  971MOL0     C30952   5.557   5.543   1.328 -0.3839 -0.4142  0.2689
  971MOL0     O30953   5.608   5.549   1.201  0.1203 -0.2947 -0.2593
  971MOL0     C30954   5.548   5.468   1.103 -1.0075 -0.5498 -0.3371
  971MOL0     C30955   5.416   5.471   1.060  0.7304 -0.2173 -0.8993
  971MOL0     C30956   5.359   5.383   0.972 -0.3116  0.5278  0.3206
  971MOL0     C30957   5.427   5.272   0.923  0.3506  0.4634  0.4586
  971MOL0     O30958   5.368   5.175   0.845  0.1644  0.3012  0.0957
  971MOL0     C30959   5.230   5.198   0.790  0.3448 -0.6296 -0.2463
  971MOL0     C30960   5.176   5.081   0.711  0.1349  0.5667 -0.6250
  971MOL0     C30961   5.278   5.015   0.619 -0.1041  0.5754 -0.4478
  971MOL0     C30962   5.215   4.892   0.555  0.4173 -0.4229 -0.1085
  971MOL0     C30963   5.307   4.820   0.453  0.9448 -0.3874 -0.5260
  971MOL0     C30964   5.204   4.726   0.387 -1.1300  0.4739 -0.5767
  971MOL0     C30965   5.261   4.661   0.261 -0.3888  0.4429 -0.6812
  971MOL0     C30966   5.392   4.567   0.279  0.8816 -0.2758  0.2381
  971MOL0     N30967   5.461   4.534   0.151  0.6585 -0.0667  0.1584
  971MOL0     C30968   5.545   4.619   0.075  0.2010 -0.1671  0.9040
  971MOL0     C30969   5.583   4.547  -0.032  0.6451  0.5519  1.0734
  971MOL0     C30970   5.651   4.587  -0.152  0.3409 -0.3695 -0.2908
  971MOL0     C30971   5.795   4.595  -0.117 -1.4344  0.0246  0.3211
  971MOL0     C30972   5.871   4.472  -0.127 -0.6533  0.5548  0.5356
  971MOL0     C30973   6.017   4.483  -0.105 -0.2965  0.4487 -0.4340
  971MOL0     O30974   6.060   4.347  -0.082  0.7423 -0.1096  0.6987
  971MOL0     C30975   6.195   4.321  -0.051  0.0287 -0.0567  0.2292
  971MOL0     C30976   6.304   4.416  -0.039  0.1328  0.3956 -0.3421
  971MOL0     C30977   6.433   4.374  -0.027  0.0434 -0.8750 -0.9501
  971MOL0     C30978   6.474   4.237  -0.016  0.4374 -0.2035  0.3658
  971MOL0     C30979   6.614   4.198   0.018  0.2774 -0.0759 -0.2900
  971MOL0     O30980   6.715   4.273  -0.029  0.4734  0.3647  0.5531
  971MOL0     C30981   6.852   4.245  -0.008  0.3555 -0.5613  0.0647
  971MOL0     C30982   6.950   4.312  -0.080 -0.4558 -0.6556 -0.5159
  971MOL0     C30983   7.084   4.285  -0.079 -0.6977 -0.4266  0.2576
  971MOL0     C30984   7.131   4.187   0.010  0.0761  1.1795  0.1652
  971MOL0     O30985   7.258   4.144  -0.004 -0.0155 -0.7463  0.2873
  971MOL0     C30986   7.331   4.120   0.126  0.2193  0.5284  1.3490
  971MOL0     C30987   7.485   4.123   0.116 -0.5057 -0.4455  0.3453
  971MOL0     C30988   7.538   4.090   0.259 -0.7407  0.0061 -0.5471
  971MOL0     C30989   7.688   4.064   0.256  0.5410  1.4292 -1.0317
  971MOL0     C30990   7.728   4.005   0.396  0.5029  0.9692  0.2682
  971MOL0     C30991   7.719   4.105   0.518 -0.1516 -0.2795 -0.9687
  971MOL0     C30992   7.804   4.058   0.632  0.0197  0.9558 -1.0576
  971MOL0     C30993   7.750   3.928   0.699 -0.4038 -0.9105  1.2550
  971MOL0    Cl30994   7.877   3.854   0.798 -0.1404  0.5021 -0.0926
  971MOL0     C30995   7.040   4.134   0.105  0.4034  0.3741 -0.1262
  971MOL0     C30996   6.904   4.165   0.093  0.2676 -0.2384  0.1834
  971MOL0     O30997   6.626   4.088   0.070  0.0764  0.2947  0.0830
  971MOL0     C30998   6.375   4.142  -0.028 -0.1261  0.0959  0.3308
  971MOL0     C30999   6.239   4.189  -0.043  1.4333  0.9254 -0.0252
  971MOL0     N31000   5.518   4.423  -0.018 -0.7304  0.1490 -0.4355
  971MOL0     N31001   5.447   4.416   0.088  0.2469 -0.4128  0.2369
  971MOL0     C31002   5.561   5.264   0.962 -0.0417  0.0584  0.1693
  971MOL0     C31003   5.621   5.365   1.046  0.1825  0.0272 -0.3716
  971MOL0     C31004   5.651   5.591   1.445 -1.0883 -0.1544  0.3007
  971MOL0     C31005   5.789   5.622   1.401  0.1612  0.3579 -0.4640
  971MOL0     C31006   5.884   5.657   1.491 -0.0529  0.2819 -0.5112
  971MOL0     C31007   5.858   5.668   1.623 -0.4031 -0.0560 -0.3426
  971MOL0     O31008   5.974   5.693   1.699 -0.1372  0.2147 -0.2576
  971MOL0     C31009   5.971   5.701   1.843 -0.4022  0.3969 -0.3968
  971MOL0     C31010   5.906   5.830   1.903 -0.9147  0.8904  0.9469
  971MOL0     C31011   5.884   5.829   2.053 -0.3530 -0.6598  0.0007
  971MOL0     C31012   5.788   5.723   2.104  0.6241 -0.3840 -0.8140
  971MOL0     C31013   5.656   5.749   2.053  0.6677  0.4378 -0.0177
  971MOL0     C31014   5.543   5.723   2.012 -0.1877  0.1575  0.4410
  971MOL0     C31015   5.728   5.640   1.670  0.4046 -1.2357 -0.4851
  971MOL0     C31016   5.622   5.606   1.582  0.4773  0.5175  0.2125
  971MOL0     C31017   5.481   5.591   1.625 -0.9533 -0.6452  0.3641
  971MOL0     H31018   5.369   5.562   1.096  1.7146  0.2967 -0.8681
  971MOL0     H31019   5.252   5.393   0.956 -0.6186 -1.5444  0.7963
  971MOL0     H31020   5.164   5.219   0.874  1.1757 -1.6438  0.6972
  971MOL0     H31021   5.218   5.288   0.729 -2.1702 -1.5346 -1.1970
  971MOL0     H31022   5.094   5.118   0.649  0.2573 -0.8287 -1.6797
  971MOL0     H31023   5.128   5.011   0.780 -2.1519  1.4297 -1.2493
  971MOL0     H31024   5.362   4.977   0.677  0.3555 -0.0766 -1.5284
  971MOL0     H31025   5.302   5.087   0.540 -0.0060 -0.6672 -1.5749
  971MOL0     H31026   5.201   4.826   0.641  3.1363  1.2017  1.7200
  971MOL0     H31027   5.123   4.921   0.504  1.2470  0.4147 -1.1628
  971MOL0     H31028   5.348   4.887   0.378  2.5077  0.7899  1.3076
  971MOL0     H31029   5.384   4.757   0.499  0.6138 -0.1879  0.3290
  971MOL0     H31030   5.174   4.653   0.461  0.1043  0.3641 -0.1566
  971MOL0     H31031   5.111   4.772   0.352 -1.2429 -1.5740 -3.3421
  971MOL0     H31032   5.271   4.741   0.186 -4.2619  2.1141  0.3300
  971MOL0     H31033   5.185   4.595   0.220  0.0622 -1.3994  1.3159
  971MOL0     H31034   5.466   4.625   0.336 -1.1855  2.7022  0.1435
  971MOL0     H31035   5.382   4.481   0.345 -0.6043 -1.8853 -1.9308
  971MOL0     H31036   5.554   4.724   0.103 -0.4915  1.2584 -3.5068
  971MOL0     H31037   5.632   4.514  -0.232  1.0720  0.1826 -0.9778
  971MOL0     H31038   5.610   4.684  -0.180  2.4182  0.8649  0.7256
  971MOL0     H31039   5.846   4.658  -0.189 -0.7639 -0.7971  0.0585
  971MOL0     H31040   5.825   4.634  -0.019 -0.0687  0.0045 -0.0697
  971MOL0     H31041   5.864   4.423  -0.224  1.3057  1.2745  0.0012
  971MOL0     H31042   5.833   4.404  -0.050 -0.3014  0.0790  0.2931
  971MOL0     H31043   6.035   4.554  -0.023 -3.7926 -1.1376  1.9653
  971MOL0     H31044   6.074   4.507  -0.195 -0.9579  1.3322 -0.6233
  971MOL0     H31045   6.276   4.520  -0.039  1.5116  0.7842 -0.4562
  971MOL0     H31046   6.500   4.458  -0.017 -0.7872 -0.0354 -2.1736
  971MOL0     H31047   6.909   4.371  -0.161  0.9305  0.6877 -0.3010
  971MOL0     H31048   7.154   4.327  -0.150 -1.2283 -2.3395 -1.5003
  971MOL0     H31049   7.304   4.203   0.192 -1.9247  0.7091  0.3338
  971MOL0     H31050   7.301   4.021   0.161  1.5751  0.2973  1.9102
  971MOL0     H31051   7.527   4.049   0.047 -0.5910 -1.8994  1.7977
  971MOL0     H31052   7.523   4.221   0.085  2.9504 -2.0163 -0.8739
  971MOL0     H31053   7.509   4.156   0.341  0.6398  0.2220 -0.2071
  971MOL0     H31054   7.489   3.996   0.289  2.2886 -1.4530  0.2650
  971MOL0     H31055   7.733   4.164   0.253  0.8838  1.4406  1.7470
  971MOL0     H31056   7.708   4.013   0.162 -1.3536  0.2744 -0.8378
  971MOL0     H31057   7.827   3.964   0.373 -0.0881 -0.3860  0.0298
  971MOL0     H31058   7.672   3.913   0.414  1.1064  0.2849 -1.1815
  971MOL0     H31059   7.756   4.201   0.483 -0.4592  0.6483  1.1016
  971MOL0     H31060   7.613   4.123   0.540 -0.6204 -1.2918 -2.2160
  971MOL0     H31061   7.825   4.139   0.703 -2.7809 -0.2407  1.3774
  971MOL0     H31062   7.899   4.028   0.588 -0.7757 -2.2136 -0.8880
  971MOL0     H31063   7.659   3.959   0.751 -1.6526  2.2666 -2.3585
  971MOL0     H31064   7.732   3.856   0.619  0.0418 -0.0286  0.3347
  971MOL0     H31065   7.068   4.062   0.181  0.3942 -0.0839 -0.5538
  971MOL0     H31066   6.845   4.111   0.166  1.4986 -0.3401  1.1193
  971MOL0     H31067   6.395   4.039   0.001  3.6071  0.4260 -0.5835
  971MOL0     H31068   6.164   4.110  -0.044  2.5912 -0.2191  0.4258
  971MOL0     H31069   5.615   5.171   0.946  0.4828  0.3398  0.2580
  971MOL0     H31070   5.726   5.354   1.069  0.5221 -0.4419 -2.0374
  971MOL0     H31071   5.818   5.608   1.297 -0.8702 -0.2201 -0.6831
  971MOL0     H31072   5.988   5.678   1.468  1.0516 -0.1725  3.4589
  971MOL0     H31073   6.070   5.697   1.889 -0.8862 -2.3304  0.5931
  971MOL0     H31074   5.922   5.608   1.872 -1.3905  0.0984 -2.7995
  971MOL0     H31075   5.811   5.851   1.852 -1.9310 -1.4361  1.7579
  971MOL0     H31076   5.972   5.910   1.867  0.2156 -1.2405 -2.1781
  971MOL0     H31077   5.840   5.927   2.074 -1.0830 -0.9551 -0.1365
  971MOL0     H31078   5.982   5.820   2.102 -1.3596 -0.9666  2.0398
  971MOL0     H31079   5.838   5.627   2.087  0.4963 -0.3994 -1.1032
  971MOL0     H31080   5.776   5.740   2.212 -2.8566  2.7020 -1.4735
  971MOL0     H31081   5.457   5.692   1.956  0.8854 -2.9779  0.3096
  971MOL0     H31082   5.712   5.639   1.777  0.7397 -2.5702 -0.4382
  971MOL0     H31083   5.479   5.595   1.734 -0.5112 -1.9839  0.4429
  971MOL0     H31084   5.423   5.668   1.574  2.6297  2.1857  0.1474
  971MOL0     H31085   5.450   5.490   1.594  0.4241 -0.9464 -0.1253
  972MOL0     O31086   5.323  10.986   0.765 -0.3474 -0.2440 -0.1598
  972MOL0     C31087   5.344  11.011   0.647  0.2683  0.4632 -0.6078
  972MOL0     O31088   5.472  10.982   0.584  1.0035 -0.3259 -0.4216
  972MOL0     C31089   5.582  10.926   0.642 -0.5873 -0.0279  0.3230
  972MOL0     C31090   5.684  10.943   0.560 -0.4268  0.7722 -0.4733
  972MOL0     C31091   5.811  10.894   0.589 -0.0119 -0.3164 -0.7024
  972MOL0     C31092   5.834  10.826   0.709  0.3552 -0.3313  0.3946
  972MOL0     O31093   5.954  10.770   0.736  0.5525  0.3067  0.1024
  972MOL0     C31094   6.046  10.753   0.634 -0.2719  1.3322 -0.1919
  972MOL0     C31095   6.176  10.682   0.685 -0.5740  0.1157  0.1317
  972MOL0     C31096   6.135  10.541   0.746 -0.3702 -0.2036 -1.0416
  972MOL0     C31097   6.122  10.438   0.635  0.9129  0.9508 -0.1912
  972MOL0     C31098   6.070  10.301   0.675 -0.0823 -0.1034 -0.0739
  972MOL0     C31099   6.164  10.215   0.751 -1.0079  0.1911 -0.5478
  972MOL0     C31100   6.290  10.178   0.670  0.4097 -1.4076 -0.4432
  972MOL0     C31101   6.366  10.065   0.725  0.2552 -0.0746  0.3120
  972MOL0     N31102   6.496  10.045   0.650 -0.1508 -0.1976 -0.1756
  972MOL0     C31103   6.623  10.067   0.701 -0.5513 -0.5164 -0.6851
  972MOL0     C31104   6.707  10.057   0.595  0.1869 -0.5701  0.0323
  972MOL0     C31105   6.851  10.089   0.591 -0.1497 -0.2874 -0.1655
  972MOL0     C31106   6.930   9.969   0.640  0.4133  1.4519 -0.3594
  972MOL0     C31107   7.077   9.951   0.608 -0.5021 -0.1808 -0.0946
  972MOL0     C31108   7.125   9.810   0.573 -0.4866 -0.1692 -0.0097
  972MOL0     O31109   7.270   9.813   0.576 -0.0741  0.4381 -0.1065
  972MOL0     C31110   7.341   9.714   0.508 -1.2596  0.1841 -0.5500
  972MOL0     C31111   7.280   9.611   0.439 -0.3461 -0.1783  1.3014
  972MOL0     C31112   7.353   9.530   0.352 -0.8837  0.3229 -0.2072
  972MOL0     C31113   7.491   9.527   0.366 -0.2161 -0.1725 -0.5590
  972MOL0     C31114   7.580   9.416   0.298  0.7001  0.2817  0.1159
  972MOL0     O31115   7.715   9.443   0.275  0.3405  0.0159 -0.1921
  972MOL0     C31116   7.784   9.367   0.187 -0.0210 -0.1798  0.1941
  972MOL0     C31117   7.926   9.375   0.188 -1.4620  0.5110 -0.2784
  972MOL0     C31118   8.007   9.298   0.101 -0.0628  0.3465 -0.3953
  972MOL0     C31119   7.946   9.217   0.004  0.4004 -0.4412  0.5776
  972MOL0     O31120   8.013   9.113  -0.068  0.6348 -0.2558 -0.0375
  972MOL0     C31121   8.134   9.150  -0.126 -0.6544 -0.0742 -0.1625
  972MOL0     C31122   8.163   9.036  -0.234  0.8086  0.6313  0.2083
  972MOL0     C31123   8.310   9.043  -0.257 -0.0295 -0.8264 -0.2179
  972MOL0     C31124   8.349   8.959  -0.381 -0.4763 -0.5256 -0.3877
  972MOL0     C31125   8.510   8.944  -0.394  1.0598  0.0112 -0.3234
  972MOL0     C31126   8.576   8.895  -0.261  0.4405 -0.2738 -0.1103
  972MOL0     C31127   8.523   8.758  -0.217 -0.0336 -1.0026  0.9916
  972MOL0     C31128   8.506   8.743  -0.068  0.6238  0.3610  0.1543
  972MOL0    Cl31129   8.656   8.742   0.013  0.2781  0.2371  0.0379
  972MOL0     C31130   7.805   9.235  -0.024  0.5555  0.4808 -1.7782
  972MOL0     C31131   7.729   9.313   0.072  0.0621 -0.3252 -0.0427
  972MOL0     O31132   7.514   9.314   0.264 -0.4867 -0.6690  0.0117
  972MOL0     C31133   7.558   9.616   0.454 -0.2430 -0.1020 -0.3154
  972MOL0     C31134   7.488   9.717   0.514 -0.4398  0.1706 -0.3192
  972MOL0     N31135   6.625  10.031   0.484 -0.4952  0.3185  0.7267
  972MOL0     N31136   6.506  10.019   0.521  0.6055  0.4674 -0.3522
  972MOL0     C31137   5.733  10.824   0.803 -0.1139  0.0246 -0.3349
  972MOL0     C31138   5.609  10.880   0.767  1.3744 -0.5123  0.1734
  972MOL0     C31139   5.229  11.087   0.574  0.6249 -1.2799 -0.4766
  972MOL0     C31140   5.101  11.101   0.639  0.0843  0.3990  0.7580
  972MOL0     C31141   4.990  11.157   0.568 -0.3325  0.0159 -0.5690
  972MOL0     C31142   4.999  11.216   0.435  0.0935 -0.4839 -0.1850
  972MOL0     O31143   4.882  11.275   0.373 -0.2589  0.4450  0.0954
  972MOL0     C31144   4.798  11.347   0.471  0.8347 -0.6485  0.1266
  972MOL0     C31145   4.870  11.485   0.492 -0.5882  0.0727  0.1649
  972MOL0     C31146   4.882  11.572   0.364 -0.1228  0.1645 -0.2809
  972MOL0     C31147   4.991  11.681   0.375  0.2232  1.0428 -0.4863
  972MOL0     C31148   5.122  11.628   0.365 -0.6708  0.2271 -0.2456
  972MOL0     C31149   5.235  11.571   0.350 -0.3663  0.0750 -0.5704
  972MOL0     C31150   5.126  11.204   0.380 -0.0580  0.0389  0.0394
  972MOL0     C31151   5.233  11.136   0.446  0.0270  0.3497  0.0403
  972MOL0     C31152   5.339  11.088   0.348 -0.3378 -0.2973 -0.4644
  972MOL0     H31153   5.669  10.993   0.465  0.1091  1.5401 -0.1569
  972MOL0     H31154   5.890  10.903   0.514  1.3628 -3.6762  0.1644
  972MOL0     H31155   5.996  10.677   0.573  1.7686 -3.2249  3.1574
  972MOL0     H31156   6.064  10.844   0.577  0.1968  0.9735 -0.6345
  972MOL0     H31157   6.226  10.748   0.755 -0.8638 -0.0759  0.5245
  972MOL0     H31158   6.239  10.662   0.598 -2.4320  0.0553 -1.2771
  972MOL0     H31159   6.043  10.547   0.804 -0.1239  0.4030 -0.7129
  972MOL0     H31160   6.217  10.512   0.812 -1.7642 -0.4782  0.6315
  972MOL0     H31161   6.042  10.467   0.566  2.2152 -2.6079 -3.6250
  972MOL0     H31162   6.212  10.435   0.573  0.5457 -0.3871 -0.7034
  972MOL0     H31163   5.984  10.322   0.740  0.8046 -1.4102  1.6244
  972MOL0     H31164   6.038  10.260   0.579 -1.6868 -0.1589  0.4561
  972MOL0     H31165   6.184  10.257   0.851 -1.0194 -1.9847  0.4130
  972MOL0     H31166   6.108  10.125   0.775 -1.7402  0.8782  0.4004
  972MOL0     H31167   6.366  10.257   0.674 -0.9047 -0.0725 -0.9252
  972MOL0     H31168   6.271  10.149   0.567 -0.5340 -0.2411 -0.6216
  972MOL0     H31169   6.387  10.084   0.831 -0.7327 -2.1905  0.9367
  972MOL0     H31170   6.311   9.971   0.720 -0.1127  0.1581 -0.1010
  972MOL0     H31171   6.649  10.095   0.803  2.2719  1.3618 -1.7780
  972MOL0     H31172   6.876  10.104   0.486 -2.9161 -2.0669 -1.2082
  972MOL0     H31173   6.873  10.175   0.654  1.5553 -1.1172  0.4236
  972MOL0     H31174   6.920   9.972   0.749 -2.4805 -0.3949 -0.4576
  972MOL0     H31175   6.885   9.875   0.604 -0.4077  2.5374 -2.3281
  972MOL0     H31176   7.141  10.010   0.674 -4.1777  1.3850  2.4331
  972MOL0     H31177   7.084  10.001   0.511  1.0413  0.3480  0.2764
  972MOL0     H31178   7.079   9.789   0.476 -1.2212 -1.0715  0.5084
  972MOL0     H31179   7.083   9.740   0.646  1.2426 -1.2115  0.0490
  972MOL0     H31180   7.173   9.598   0.441 -0.2537 -2.2790 -1.2154
  972MOL0     H31181   7.303   9.461   0.285 -0.4351  0.5789 -0.8117
  972MOL0     H31182   7.962   9.427   0.276 -1.4927  1.3530 -0.7519
  972MOL0     H31183   8.116   9.300   0.104 -0.0068  0.7599 -1.9140
  972MOL0     H31184   8.134   9.249  -0.173  0.8973 -0.5429 -1.2596
  972MOL0     H31185   8.218   9.151  -0.055  1.8867  1.0574 -2.9398
  972MOL0     H31186   8.126   8.939  -0.200  0.6069  0.1242 -1.3878
  972MOL0     H31187   8.109   9.066  -0.324 -0.2805 -2.6608 -0.3561
  972MOL0     H31188   8.335   9.149  -0.269 -3.8300  0.2609  0.4353
  972MOL0     H31189   8.366   9.005  -0.171  2.4030  1.4265 -0.6694
  972MOL0     H31190   8.312   8.998  -0.476 -1.9532 -1.1885 -0.1111
  972MOL0     H31191   8.289   8.868  -0.375 -1.1990 -0.0388 -0.1738
  972MOL0     H31192   8.546   9.040  -0.430 -3.8578  1.4138 -2.2927
  972MOL0     H31193   8.528   8.876  -0.478 -0.5857 -1.0466  0.1232
  972MOL0     H31194   8.682   8.890  -0.287  0.6070 -2.0236  0.7317
  972MOL0     H31195   8.578   8.963  -0.176 -0.7415 -3.2585  2.4845
  972MOL0     H31196   8.589   8.674  -0.244  2.8385  1.5072 -0.3565
  972MOL0     H31197   8.426   8.747  -0.266 -0.1282  1.0608  0.6293
  972MOL0     H31198   8.450   8.830  -0.032  0.6313 -0.4416  2.2013
  972MOL0     H31199   8.450   8.652  -0.047 -0.9031  1.1176 -0.4244
  972MOL0     H31200   7.757   9.170  -0.096  1.7942  0.5402 -2.6927
  972MOL0     H31201   7.623   9.318   0.047  0.2945  0.9960 -0.8195
  972MOL0     H31202   7.662   9.607   0.481 -0.4275 -1.5956 -0.0193
  972MOL0     H31203   7.524   9.785   0.591 -3.2886 -1.9608  3.1602
  972MOL0     H31204   5.747  10.768   0.895 -1.5556  1.1417  0.5992
  972MOL0     H31205   5.524  10.856   0.830  3.3471  1.2844  3.8235
  972MOL0     H31206   5.074  11.063   0.737 -0.8844 -1.3629 -0.1423
  972MOL0     H31207   4.894  11.148   0.619 -0.4225  0.8856 -0.5681
  972MOL0     H31208   4.774  11.300   0.567  0.2465  0.9283  0.7771
  972MOL0     H31209   4.698  11.352   0.428  0.3594 -1.5426  1.0704
  972MOL0     H31210   4.969  11.449   0.521 -1.3529 -2.2238  0.1715
  972MOL0     H31211   4.814  11.536   0.571  0.7534  1.5315  0.2069
  972MOL0     H31212   4.794  11.632   0.339 -0.2501  0.0265 -0.1685
  972MOL0     H31213   4.884  11.506   0.277 -0.8333 -0.1376 -0.0789
  972MOL0     H31214   4.977  11.756   0.297  0.3137  1.8242  0.2338
  972MOL0     H31215   4.972  11.733   0.469 -1.5642 -0.2303 -0.0846
  972MOL0     H31216   5.320  11.511   0.325  1.1640  2.2286 -0.9346
  972MOL0     H31217   5.130  11.229   0.275 -2.4827  1.8341  0.2854
  972MOL0     H31218   5.302  11.106   0.247  1.3124  1.9228 -0.7574
  972MOL0     H31219   5.437  11.132   0.370  0.1901 -0.5033 -2.2628
  972MOL0     H31220   5.352  10.981   0.362  1.6669  0.1577  1.7607
  973MOL0     O31221   4.996   4.431   1.168 -0.4239 -0.5061  0.0638
  973MOL0     C31222   4.979   4.519   1.253 -0.3110 -0.3550  0.1414
  973MOL0     O31223   5.080   4.587   1.322  0.4221  1.0912 -0.0922
  973MOL0     C31224   5.212   4.555   1.320  0.0623  0.3978 -0.4350
  973MOL0     C31225   5.298   4.660   1.352  0.1388  0.6401 -0.5528
  973MOL0     C31226   5.438   4.636   1.372  0.6626  0.3209  0.7831
  973MOL0     C31227   5.487   4.507   1.366 -1.1709 -0.0582  0.3143
  973MOL0     O31228   5.620   4.494   1.383 -0.0534  0.2421  0.1130
  973MOL0     C31229   5.688   4.387   1.320  0.3641  0.6672 -0.9151
  973MOL0     C31230   5.803   4.345   1.411  0.6510 -0.1675 -0.1402
  973MOL0     C31231   5.891   4.241   1.336 -0.0798 -0.1396  0.3541
  973MOL0     C31232   6.018   4.205   1.425 -0.6645 -0.2590 -0.1674
  973MOL0     C31233   6.084   4.083   1.367 -0.4536  0.0904  0.3319
  973MOL0     C31234   6.229   4.060   1.420  0.7915 -0.7650  0.4288
  973MOL0     C31235   6.330   4.156   1.340  0.6798  0.1336  0.2501
  973MOL0     C31236   6.481   4.119   1.352 -0.1717  0.5852 -0.2837
  973MOL0     N31237   6.558   4.212   1.430 -0.2459 -0.3424 -0.6158
  973MOL0     C31238   6.702   4.231   1.406 -0.2964  0.0431  0.2498
  973MOL0     C31239   6.747   4.298   1.516 -0.4392  0.5523 -0.4703
  973MOL0     C31240   6.892   4.326   1.538 -0.0787 -0.6526 -0.5766
  973MOL0     C31241   6.955   4.247   1.649  0.1074 -0.1621  0.3515
  973MOL0     C31242   7.090   4.198   1.631 -0.3919  0.4664 -0.3025
  973MOL0     C31243   7.141   4.139   1.766  1.0900 -0.4355  1.0321
  973MOL0     O31244   7.250   4.055   1.744 -0.4487 -0.6869  0.3810
  973MOL0     C31245   7.383   4.093   1.771 -0.3025 -0.3603  0.2427
  973MOL0     C31246   7.484   4.033   1.692 -0.0356  0.8419  0.2802
  973MOL0     C31247   7.615   4.084   1.706  0.9053  0.0820  0.5571
  973MOL0     C31248   7.650   4.169   1.807  0.3020  0.1859  0.0853
  973MOL0     C31249   7.799   4.205   1.832  0.2851 -1.2345  0.5059
  973MOL0     O31250   7.839   4.263   1.955  0.6572 -0.0094  0.0494
  973MOL0     C31251   7.971   4.291   1.980  0.4193  0.3986  0.0190
  973MOL0     C31252   8.002   4.395   2.069 -0.3394 -0.2219 -0.1485
  973MOL0     C31253   8.131   4.421   2.095 -0.0444 -0.9551 -0.6343
  973MOL0     C31254   8.239   4.351   2.040 -0.3223  1.6675  0.7395
  973MOL0     O31255   8.358   4.393   2.079  0.8521  0.2443  0.3173
  973MOL0     C31256   8.470   4.335   2.025 -0.3710  0.3043  1.2634
  973MOL0     C31257   8.597   4.385   2.106  0.7583  0.6999 -0.1906
  973MOL0     C31258   8.730   4.384   2.031 -0.4076 -0.0903  0.6414
  973MOL0     C31259   8.746   4.240   1.960  0.9191  0.8012  0.3469
  973MOL0     C31260   8.892   4.239   1.921 -0.0077  0.2290 -1.3411
  973MOL0     C31261   8.909   4.100   1.841  0.4250  0.3813 -0.4551
  973MOL0     C31262   9.033   4.080   1.760 -0.0239  1.1801 -0.0857
  973MOL0     C31263   9.168   4.064   1.835  0.8100  0.4845  0.4243
  973MOL0    Cl31264   9.154   3.894   1.905  0.4598  0.0677 -0.1384
  973MOL0     C31265   8.201   4.242   1.956 -0.8875 -0.4130 -0.8485
  973MOL0     C31266   8.071   4.199   1.942  0.7613  0.0075  0.6909
  973MOL0     O31267   7.862   4.217   1.728  0.2735  0.4681 -0.8893
  973MOL0     C31268   7.549   4.233   1.890  0.2885 -0.1935  0.4267
  973MOL0     C31269   7.417   4.199   1.862  0.1902  0.0169 -0.3575
  973MOL0     N31270   6.638   4.315   1.604 -0.4883  0.3058 -0.3876
  973MOL0     N31271   6.526   4.259   1.556 -0.8405 -0.4102  0.2005
  973MOL0     C31272   5.399   4.405   1.351  0.0058  0.3473  0.1114
  973MOL0     C31273   5.262   4.424   1.329  0.8581 -1.0876 -0.0494
  973MOL0     C31274   4.838   4.565   1.271 -0.3154  0.4040  0.8167
  973MOL0     C31275   4.821   4.670   1.366 -0.1973  0.1961  0.5561
  973MOL0     C31276   4.697   4.713   1.396 -0.2984 -0.1319 -0.8003
  973MOL0     C31277   4.591   4.662   1.326  0.5466  0.1234  0.5328
  973MOL0     O31278   4.468   4.713   1.354 -0.1014  0.0493  0.6852
  973MOL0     C31279   4.347   4.660   1.297 -0.2901  0.4401 -0.2085
  973MOL0     C31280   4.214   4.728   1.356 -0.8893  0.1923  1.2110
  973MOL0     C31281   4.221   4.884   1.366  0.5982  0.3290 -0.9173
  973MOL0     C31282   4.301   4.973   1.261  1.1603  0.3478  2.0857
  973MOL0     C31283   4.256   4.966   1.120 -0.2515  0.2448 -0.5573
  973MOL0     C31284   4.226   4.989   1.008 -0.3636 -0.7603 -0.7968
  973MOL0     C31285   4.609   4.578   1.214  0.4617  0.0087 -0.1534
  973MOL0     C31286   4.727   4.514   1.192  0.1601  0.1726  0.1405
  973MOL0     C31287   4.742   4.418   1.072  0.4752 -0.1313 -1.1890
  973MOL0     H31288   5.261   4.759   1.378  2.9995  1.7331 -0.1712
  973MOL0     H31289   5.494   4.725   1.401  0.6919  1.2731 -1.9256
  973MOL0     H31290   5.633   4.300   1.282  2.4946  0.5744 -4.1737
  973MOL0     H31291   5.737   4.437   1.236  0.1357  1.5464 -0.5302
  973MOL0     H31292   5.772   4.312   1.510  1.7087 -0.0873  0.2280
  973MOL0     H31293   5.875   4.424   1.435  1.2137 -1.1960  1.7658
  973MOL0     H31294   5.926   4.287   1.244  0.0207  0.3589  0.6376
  973MOL0     H31295   5.832   4.149   1.329 -2.7434  1.4429  0.5963
  973MOL0     H31296   6.089   4.288   1.427 -0.7705 -0.1717  0.1441
  973MOL0     H31297   5.988   4.184   1.528  1.0310  0.0048  0.4098
  973MOL0     H31298   6.025   3.991   1.376  0.6004 -0.5043  1.7351
  973MOL0     H31299   6.092   4.109   1.261 -0.4872  1.9740  0.7500
  973MOL0     H31300   6.242   4.071   1.528  2.6907  0.1071  0.1487
  973MOL0     H31301   6.277   3.963   1.402  1.7715  0.0830 -2.0086
  973MOL0     H31302   6.296   4.257   1.366  0.3934 -0.1837  1.1508
  973MOL0     H31303   6.320   4.137   1.233  1.6960  0.4678  0.0810
  973MOL0     H31304   6.487   4.015   1.386 -0.1059 -0.3938 -3.0561
  973MOL0     H31305   6.523   4.119   1.251 -2.4189 -0.7524 -1.2935
  973MOL0     H31306   6.762   4.197   1.322  2.6980  1.5807  1.6402
  973MOL0     H31307   6.950   4.315   1.446  1.1094 -0.4708  0.1298
  973MOL0     H31308   6.913   4.431   1.560 -2.3373  0.0012 -1.2172
  973MOL0     H31309   6.976   4.321   1.726  0.6807 -0.8890  0.9149
  973MOL0     H31310   6.884   4.170   1.682 -2.3405  0.5996 -2.7235
  973MOL0     H31311   7.167   4.264   1.591  1.6818 -1.1959  0.7335
  973MOL0     H31312   7.091   4.122   1.552  1.1207  0.1524 -0.0155
  973MOL0     H31313   7.056   4.082   1.803 -0.6310  1.3226 -0.0068
  973MOL0     H31314   7.156   4.221   1.837  2.1867 -0.5732  0.9785
  973MOL0     H31315   7.460   3.951   1.625 -1.5429  0.6801  0.9871
  973MOL0     H31316   7.700   4.033   1.662  1.1714 -1.3433  2.5476
  973MOL0     H31317   7.926   4.451   2.122  0.8366  0.2361  1.1188
  973MOL0     H31318   8.160   4.494   2.170 -2.1775 -2.2957  1.6407
  973MOL0     H31319   8.467   4.226   2.017 -2.0015  0.3813  0.2810
  973MOL0     H31320   8.470   4.366   1.920 -2.0926 -0.0761  1.1237
  973MOL0     H31321   8.573   4.486   2.143  0.8847  0.3293  0.9582
  973MOL0     H31322   8.610   4.322   2.195 -2.4541 -2.7607 -1.9243
  973MOL0     H31323   8.735   4.459   1.952 -1.9623 -0.9765 -0.3551
  973MOL0     H31324   8.815   4.400   2.098  0.4610 -1.3625 -0.1145
  973MOL0     H31325   8.684   4.235   1.870  4.0979  0.3582 -1.9991
  973MOL0     H31326   8.722   4.157   2.026 -5.6651  2.0227  0.1747
  973MOL0     H31327   8.945   4.223   2.015 -0.7868 -3.3711 -1.3682
  973MOL0     H31328   8.918   4.332   1.870 -0.4091  2.3681  2.0820
  973MOL0     H31329   8.887   4.011   1.901 -1.3881  1.7693  1.0741
  973MOL0     H31330   8.828   4.098   1.768 -1.2943 -2.5948  1.2975
  973MOL0     H31331   9.046   4.168   1.696 -3.6575  1.1868 -1.0443
  973MOL0     H31332   9.019   3.992   1.697 -1.3784  0.0480  1.6695
  973MOL0     H31333   9.264   4.065   1.783  0.7003 -1.2799  0.1006
  973MOL0     H31334   9.168   4.139   1.914 -0.2102  2.7184 -1.5628
  973MOL0     H31335   8.281   4.180   1.917 -0.4058  1.6505 -3.3964
  973MOL0     H31336   8.043   4.111   1.885 -0.5180  2.2592 -2.4258
  973MOL0     H31337   7.568   4.313   1.961 -0.1946 -0.0880  0.4396
  973MOL0     H31338   7.330   4.233   1.916 -0.4448 -1.8823 -0.0899
  973MOL0     H31339   5.432   4.302   1.345  1.5522  0.8083  0.0237
  973MOL0     H31340   5.197   4.338   1.319 -1.3297  0.7573 -3.0666
  973MOL0     H31341   4.907   4.702   1.423 -0.1075  1.4431 -0.2489
  973MOL0     H31342   4.672   4.784   1.474  1.0740 -1.3021  0.7888
  973MOL0     H31343   4.346   4.554   1.325 -2.4933  0.6471  0.6344
  973MOL0     H31344   4.338   4.673   1.188 -0.2737  1.8076 -0.0593
  973MOL0     H31345   4.191   4.695   1.458 -2.3940  0.5451  1.0164
  973MOL0     H31346   4.127   4.705   1.293 -0.1346  2.6831 -0.9490
  973MOL0     H31347   4.271   4.901   1.462 -3.5830  4.5064  0.9476
  973MOL0     H31348   4.122   4.931   1.370  0.4609 -0.0082 -0.1237
  973MOL0     H31349   4.291   5.079   1.283 -0.9136  0.3275  1.4628
  973MOL0     H31350   4.408   4.950   1.270  0.7434 -1.5562  2.8230
  973MOL0     H31351   4.193   5.006   0.908 -0.1186 -2.1909 -1.1484
  973MOL0     H31352   4.523   4.534   1.163 -0.9830  1.9696  0.4603
  973MOL0     H31353   4.821   4.456   1.006 -0.3212 -0.4143 -2.3481
  973MOL0     H31354   4.781   4.321   1.104  0.7062 -0.3067 -1.9716
  973MOL0     H31355   4.648   4.409   1.015 -1.5782  1.2413  1.7140
  974MOL0     O31356  11.387   8.112   4.450  0.3929 -0.1271 -0.3497
  974MOL0     C31357  11.499   8.076   4.417 -0.7324  0.1237 -0.3771
  974MOL0     O31358  11.602   8.087   4.493  0.0707  0.0362 -0.0550
  974MOL0     C31359  11.597   8.128   4.626  0.0705  0.0525 -1.1014
  974MOL0     C31360  11.508   8.062   4.713 -0.2683  0.7072  0.2958
  974MOL0     C31361  11.500   8.125   4.840 -0.2434  0.0239  0.0791
  974MOL0     C31362  11.581   8.232   4.884  0.0912 -0.0157  0.3107
  974MOL0     O31363  11.593   8.292   5.002  0.9140  0.7521 -0.3806
  974MOL0     C31364  11.544   8.222   5.122 -0.3447 -1.2498  0.1503
  974MOL0     C31365  11.590   8.276   5.254 -0.6989  0.7041  0.5987
  974MOL0     C31366  11.756   8.275   5.263  0.6027 -0.3268  1.5014
  974MOL0     C31367  11.810   8.302   5.399  0.6604  0.8739  0.4006
  974MOL0     C31368  11.963   8.291   5.406  0.9524 -0.6368 -1.0263
  974MOL0     C31369  12.045   8.408   5.342  0.1279  0.0904 -0.3184
  974MOL0     C31370  11.980   8.544   5.363 -0.2356 -0.6879 -0.5309
  974MOL0     C31371  12.082   8.653   5.336 -0.5609 -0.3187 -0.4313
  974MOL0     N31372  12.146   8.643   5.207 -0.3758  0.1324 -0.0639
  974MOL0     C31373  12.268   8.681   5.168 -0.2660 -0.3217 -0.2784
  974MOL0     C31374  12.259   8.733   5.044  0.5236 -0.4012  0.4205
  974MOL0     C31375  12.362   8.784   4.957  0.2790  0.0240  0.1082
  974MOL0     C31376  12.295   8.870   4.848  0.3559  0.4955  0.6457
  974MOL0     C31377  12.402   8.886   4.735  0.7113 -0.1081 -0.1928
  974MOL0     C31378  12.360   8.994   4.627  0.5641  0.5575 -0.7149
  974MOL0     O31379  12.421   8.981   4.502 -0.3909  0.2845 -0.2089
  974MOL0     C31380  12.551   9.009   4.486 -0.8623 -0.6693  0.0400
  974MOL0     C31381  12.613   8.972   4.369 -0.0890 -0.1657  0.0304
  974MOL0     C31382  12.749   8.998   4.337  0.5480 -0.3811 -0.2483
  974MOL0     C31383  12.834   9.045   4.442  0.6916  0.0108 -0.3353
  974MOL0     C31384  12.985   9.044   4.426 -0.0531 -0.3973 -0.3255
  974MOL0     O31385  13.029   8.983   4.311 -0.0941 -0.3607 -0.3388
  974MOL0     C31386  13.157   8.944   4.304  0.8225 -0.5343 -0.9718
  974MOL0     C31387  13.192   8.814   4.307 -0.7910 -0.0693  0.2450
  974MOL0     C31388  13.322   8.771   4.275 -0.1310 -0.0049 -0.4285
  974MOL0     C31389  13.422   8.863   4.258  0.0207  0.2112 -1.0386
  974MOL0     O31390  13.556   8.824   4.235 -0.3862 -0.2031  0.5743
  974MOL0     C31391  13.656   8.921   4.247 -0.7706  0.7812  0.4671
  974MOL0     C31392  13.786   8.836   4.246 -0.7776  0.1794  0.2359
  974MOL0     C31393  13.836   8.804   4.101  0.1879 -0.1452 -0.0196
  974MOL0     C31394  13.964   8.885   4.059  1.1546 -0.3168  0.5179
  974MOL0     C31395  13.932   9.032   4.024 -0.4210 -0.1118 -0.1571
  974MOL0     C31396  13.891   9.057   3.879  0.2954 -1.0407  0.1502
  974MOL0     C31397  13.906   9.210   3.853 -0.3529 -0.7854 -0.0832
  974MOL0     C31398  13.836   9.256   3.729  1.1688  0.1617 -1.0081
  974MOL0    Cl31399  13.893   9.414   3.681 -0.1833  0.7018  0.0416
  974MOL0     C31400  13.385   9.003   4.269  0.8069 -0.3981  0.0170
  974MOL0     C31401  13.251   9.040   4.286 -0.4918  0.2810 -0.0919
  974MOL0     O31402  13.048   9.112   4.507 -1.1862  0.4776 -0.1995
  974MOL0     C31403  12.774   9.095   4.565 -0.0852  0.1730  1.0216
  974MOL0     C31404  12.634   9.076   4.580 -0.5727  0.2539  0.4030
  974MOL0     N31405  12.116   8.738   5.015 -0.3384  0.0924  0.7149
  974MOL0     N31406  12.059   8.662   5.106  0.1004  0.5815 -0.7788
  974MOL0     C31407  11.668   8.291   4.792 -0.1725 -0.2400  0.3034
  974MOL0     C31408  11.664   8.251   4.658 -0.1463  0.7142 -0.3266
  974MOL0     C31409  11.522   8.008   4.289  0.7080  0.3661  0.2792
  974MOL0     C31410  11.620   7.914   4.277  0.1767  1.1907  0.8769
  974MOL0     C31411  11.629   7.826   4.164  0.5382  0.1557  0.4221
  974MOL0     C31412  11.540   7.832   4.060 -0.4734  0.5472  0.7078
  974MOL0     O31413  11.551   7.743   3.952 -0.5486 -1.0125 -0.4314
  974MOL0     C31414  11.431   7.709   3.890 -0.5279  0.6258 -0.7567
  974MOL0     C31415  11.452   7.602   3.790  0.1017  0.1870  0.4530
  974MOL0     C31416  11.568   7.620   3.684  0.4011 -0.2900 -0.7322
  974MOL0     C31417  11.569   7.747   3.606 -0.3213  0.3065 -0.7207
  974MOL0     C31418  11.628   7.723   3.476 -0.7205 -0.5539 -0.6981
  974MOL0     C31419  11.673   7.692   3.368 -0.1321 -0.3648 -0.1120
  974MOL0     C31420  11.439   7.942   4.064 -0.2659  0.6614  0.0369
  974MOL0     C31421  11.432   8.026   4.178 -0.6159  0.2705  0.3090
  974MOL0     C31422  11.335   8.137   4.165 -0.0940 -0.3831  0.7256
  974MOL0     H31423  11.445   7.980   4.680 -0.0107 -0.2545  2.1069
  974MOL0     H31424  11.433   8.079   4.911 -0.9092 -2.2742 -1.9217
  974MOL0     H31425  11.434   8.225   5.121 -0.3195  1.1429 -0.6618
  974MOL0     H31426  11.573   8.117   5.131  0.9758 -1.0975 -1.8174
  974MOL0     H31427  11.543   8.219   5.334 -1.7840  0.6079 -0.0853
  974MOL0     H31428  11.545   8.374   5.268 -0.6506  0.7756  0.2807
  974MOL0     H31429  11.795   8.345   5.188 -1.7497  0.7223  1.1479
  974MOL0     H31430  11.784   8.178   5.223 -1.9971 -0.3141 -0.6342
  974MOL0     H31431  11.772   8.396   5.441  1.6325  0.5032  2.2113
  974MOL0     H31432  11.773   8.227   5.469  1.4892  3.1435  3.4771
  974MOL0     H31433  11.995   8.293   5.510 -2.7730  2.1383  0.2824
  974MOL0     H31434  11.982   8.191   5.367  0.6148 -1.5868  1.1624
  974MOL0     H31435  12.149   8.404   5.374 -0.3950  0.0195  1.4699
  974MOL0     H31436  12.034   8.393   5.234 -0.9778 -0.1829 -0.1859
  974MOL0     H31437  11.942   8.558   5.465 -0.4731  0.7878 -0.7965
  974MOL0     H31438  11.892   8.554   5.300 -1.2456  1.8492  1.1337
  974MOL0     H31439  12.044   8.756   5.339 -1.0845 -0.5313  1.5651
  974MOL0     H31440  12.164   8.646   5.408 -1.1598  0.9020  0.4084
  974MOL0     H31441  12.351   8.669   5.237  2.3650 -1.2401 -3.3570
  974MOL0     H31442  12.425   8.852   5.015  1.2542 -0.4713 -0.3354
  974MOL0     H31443  12.424   8.702   4.918 -1.9847 -0.5501 -2.6108
  974MOL0     H31444  12.209   8.827   4.794  1.8335 -1.6938 -0.1358
  974MOL0     H31445  12.256   8.963   4.890 -0.5558  0.7084 -0.5773
  974MOL0     H31446  12.404   8.797   4.672  2.5370 -1.0052  1.0293
  974MOL0     H31447  12.501   8.911   4.774  0.2762 -1.0352  1.6031
  974MOL0     H31448  12.371   9.092   4.673  1.1406 -0.4028  1.3219
  974MOL0     H31449  12.254   8.972   4.609  0.3490 -0.0348  1.0643
  974MOL0     H31450  12.546   8.933   4.292  2.5045 -0.8430 -2.0035
  974MOL0     H31451  12.790   8.965   4.242 -1.7546  1.0800 -1.8717
  974MOL0     H31452  13.118   8.735   4.316  0.8594 -1.6527  0.4115
  974MOL0     H31453  13.334   8.663   4.270 -2.3046 -0.2719 -1.3069
  974MOL0     H31454  13.644   8.999   4.171  0.7703  0.0720 -0.5524
  974MOL0     H31455  13.640   8.973   4.342 -2.2814 -0.2587  0.8306
  974MOL0     H31456  13.860   8.904   4.289  0.9809 -3.6640  4.0069
  974MOL0     H31457  13.765   8.746   4.305  1.7725 -0.5043  0.2357
  974MOL0     H31458  13.863   8.699   4.081  0.5863 -0.2212  0.8723
  974MOL0     H31459  13.755   8.827   4.032  0.6839 -1.1260 -0.9678
  974MOL0     H31460  14.022   8.835   3.980  0.5298  0.5355 -0.4936
  974MOL0     H31461  14.030   8.897   4.145  1.3516  1.5327  0.1384
  974MOL0     H31462  14.033   9.071   4.032 -0.0164 -1.3099  0.9983
  974MOL0     H31463  13.877   9.083   4.104 -0.6001  0.4786 -0.6479
  974MOL0     H31464  13.965   9.004   3.818  0.4805 -3.6940  2.4599
  974MOL0     H31465  13.786   9.030   3.862  0.7328 -2.4427 -0.4300
  974MOL0     H31466  14.014   9.229   3.844 -0.4254  1.0510  1.9473
  974MOL0     H31467  13.875   9.279   3.932 -1.0527 -0.0801 -0.9579
  974MOL0     H31468  13.854   9.184   3.649 -1.2074 -2.4897  0.6331
  974MOL0     H31469  13.731   9.256   3.760  1.4202 -0.2080 -0.1087
  974MOL0     H31470  13.456   9.086   4.264  0.1695  0.2208  0.9761
  974MOL0     H31471  13.219   9.144   4.298  1.2643  0.8258  0.1076
  974MOL0     H31472  12.840   9.126   4.646  2.1656 -0.4474 -0.4813
  974MOL0     H31473  12.589   9.109   4.673  0.2635 -0.6421  1.1447
  974MOL0     H31474  11.721   8.379   4.829 -1.0880  0.8499 -0.8478
  974MOL0     H31475  11.728   8.298   4.584 -0.3681 -0.1169 -1.0610
  974MOL0     H31476  11.701   7.905   4.348 -0.0535  0.5853  1.0717
  974MOL0     H31477  11.707   7.750   4.162  0.2852 -0.0965 -0.7586
  974MOL0     H31478  11.386   7.797   3.842 -1.0979 -0.2398 -1.8535
  974MOL0     H31479  11.358   7.680   3.965  2.3494 -3.3121  0.8334
  974MOL0     H31480  11.352   7.587   3.749  0.8571 -1.9138 -0.7851
  974MOL0     H31481  11.470   7.506   3.841  0.0078 -0.5005 -0.7752
  974MOL0     H31482  11.557   7.537   3.614 -2.4983 -1.0684  0.4792
  974MOL0     H31483  11.669   7.602   3.723 -0.1201  0.1018  0.8734
  974MOL0     H31484  11.467   7.780   3.585 -0.7680 -0.8953 -0.5208
  974MOL0     H31485  11.610   7.833   3.658  0.5151 -0.5054  0.0046
  974MOL0     H31486  11.726   7.680   3.276  0.5739  1.5233  0.0096
  974MOL0     H31487  11.396   7.974   3.969 -0.0268  1.7585  0.2813
  974MOL0     H31488  11.289   8.135   4.065  1.3355 -3.1888  0.0316
  974MOL0     H31489  11.254   8.113   4.235  1.2660 -0.9463  2.1560
  974MOL0     H31490  11.384   8.231   4.192  0.8777 -0.9217  0.8359
  975MOL0     O31491  10.260   5.803   5.002  0.4405 -0.0746 -0.0575
  975MOL0     C31492  10.375   5.823   5.032  0.1693 -0.1052 -0.0598
  975MOL0     O31493  10.460   5.726   5.052 -0.0332 -0.2383  0.0518
  975MOL0     C31494  10.418   5.592   5.048  0.3168 -0.3244  0.4591
  975MOL0     C31495  10.357   5.527   4.932 -0.9839 -0.2082  0.2746
  975MOL0     C31496  10.327   5.388   4.933  0.1654 -1.1498  0.2382
  975MOL0     C31497  10.343   5.309   5.043  0.6205  0.2260  0.3342
  975MOL0     O31498  10.313   5.180   5.033  0.1853  0.2470  0.5868
  975MOL0     C31499  10.325   5.079   5.140  0.6782 -0.7525  1.2487
  975MOL0     C31500  10.184   5.039   5.182 -1.0259  0.0519  0.1827
  975MOL0     C31501  10.110   4.963   5.068 -0.1318 -0.6279 -0.9485
  975MOL0     C31502  10.014   4.870   5.158 -0.3242 -0.3019 -0.0968
  975MOL0     C31503   9.921   4.796   5.061 -0.8261  0.1812 -0.2536
  975MOL0     C31504   9.828   4.688   5.134 -0.1782 -0.2416 -0.4966
  975MOL0     C31505   9.683   4.728   5.096  0.1627 -0.2222  0.4220
  975MOL0     C31506   9.578   4.615   5.129 -0.6057 -0.0065 -0.4600
  975MOL0     N31507   9.538   4.629   5.273 -0.1088 -0.5241  0.3373
  975MOL0     C31508   9.553   4.533   5.371  0.0183  0.7266  0.5566
  975MOL0     C31509   9.520   4.591   5.483  1.7002 -0.3354  0.0421
  975MOL0     C31510   9.525   4.517   5.616  0.0399  0.5450 -0.6345
  975MOL0     C31511   9.648   4.567   5.694 -0.3702 -1.2239  0.1300
  975MOL0     C31512   9.704   4.466   5.799 -0.0661 -0.1070 -0.4387
  975MOL0     C31513   9.584   4.405   5.881 -0.2302  0.2068  0.5839
  975MOL0     O31514   9.512   4.507   5.948  1.2230  0.3266 -0.0439
  975MOL0     C31515   9.547   4.561   6.064  0.4611  0.6870 -0.4602
  975MOL0     C31516   9.504   4.683   6.116  0.1361  0.9434  0.0780
  975MOL0     C31517   9.528   4.728   6.240  1.1095 -0.1302  0.7781
  975MOL0     C31518   9.596   4.651   6.334  0.7159 -0.3541  0.6291
  975MOL0     C31519   9.612   4.699   6.471 -0.0595 -0.8279  1.2538
  975MOL0     O31520   9.647   4.610   6.566 -0.0185  0.4422  0.1566
  975MOL0     C31521   9.673   4.665   6.689  0.2587 -0.0541 -0.0886
  975MOL0     C31522   9.593   4.632   6.797 -0.5778 -0.3792  0.8092
  975MOL0     C31523   9.626   4.680   6.924  0.6648 -0.1820  0.5524
  975MOL0     C31524   9.740   4.756   6.949 -0.1965 -0.7249  0.0054
  975MOL0     O31525   9.777   4.781   7.076 -0.2246  0.5859 -0.0715
  975MOL0     C31526   9.800   4.917   7.110 -0.0029  0.1726  0.8398
  975MOL0     C31527   9.819   4.938   7.263 -0.1746 -0.4019  0.5019
  975MOL0     C31528   9.833   5.087   7.316 -0.0218  0.0351  0.7462
  975MOL0     C31529   9.850   5.085   7.466  0.4094 -0.5421  0.1972
  975MOL0     C31530   9.840   5.234   7.524  1.5929  0.3817 -0.3919
  975MOL0     C31531   9.839   5.245   7.681 -0.3626  0.5691  0.1008
  975MOL0     C31532   9.863   5.396   7.712  1.1565  0.8372  0.1214
  975MOL0     C31533   9.840   5.444   7.853  0.4844  0.4790 -0.2201
  975MOL0    Cl31534   9.960   5.369   7.963  0.4712  0.1735  0.1470
  975MOL0     C31535   9.819   4.796   6.843 -0.4450 -0.9945 -0.0762
  975MOL0     C31536   9.783   4.748   6.711  0.3638  0.1757  0.4090
  975MOL0     O31537   9.595   4.815   6.488  0.4402  0.4228  0.4917
  975MOL0     C31538   9.628   4.524   6.297 -0.1662 -0.9212 -0.0633
  975MOL0     C31539   9.608   4.479   6.165 -0.2922  0.7999  0.0915
  975MOL0     N31540   9.494   4.720   5.453 -0.1791 -0.1557  0.8404
  975MOL0     N31541   9.490   4.742   5.331 -0.1115  0.2274  0.9034
  975MOL0     C31542  10.381   5.370   5.164 -0.3336  0.5357 -0.4289
  975MOL0     C31543  10.421   5.511   5.163  0.2792 -0.1624  0.7016
  975MOL0     C31544  10.429   5.960   5.024 -0.9638  0.5414  0.0437
  975MOL0     C31545  10.330   6.059   5.010 -0.1655  0.1758  1.1965
  975MOL0     C31546  10.364   6.192   4.999  0.0373 -0.5183  0.1851
  975MOL0     C31547  10.496   6.237   5.006  0.3957 -0.2639  0.1318
  975MOL0     O31548  10.536   6.372   4.998 -0.1031 -1.0387 -0.3615
  975MOL0     C31549  10.428   6.470   5.025 -0.2113  0.5437 -0.0133
  975MOL0     C31550  10.368   6.462   5.172  0.0040  0.2695  0.3510
  975MOL0     C31551  10.267   6.570   5.196  0.0950 -0.7520 -0.7864
  975MOL0     C31552  10.175   6.532   5.314 -0.2371 -0.6813  0.0632
  975MOL0     C31553  10.254   6.529   5.437  0.0653 -1.5310 -0.2936
  975MOL0     C31554  10.310   6.546   5.549  0.2600 -0.2183  0.5038
  975MOL0     C31555  10.599   6.145   5.016  0.2476  0.0468  0.5174
  975MOL0     C31556  10.569   6.001   5.025 -0.1233  0.2188 -0.3686
  975MOL0     C31557  10.680   5.898   5.012 -0.3597 -0.4738 -0.0729
  975MOL0     H31558  10.338   5.581   4.840 -2.4510 -0.3235  0.4942
  975MOL0     H31559  10.293   5.343   4.840 -0.3010 -2.4095  0.9940
  975MOL0     H31560  10.367   4.993   5.088  0.1156  0.1645 -0.8374
  975MOL0     H31561  10.394   5.100   5.222  2.7287  1.8222 -0.9324
  975MOL0     H31562  10.124   5.120   5.225 -2.5154 -0.8954 -0.0504
  975MOL0     H31563  10.194   4.967   5.264  1.2491  0.5387  0.3940
  975MOL0     H31564  10.173   4.903   5.003 -0.6113 -1.2947 -0.8080
  975MOL0     H31565  10.058   5.028   4.997 -0.3590 -1.2994 -1.4017
  975MOL0     H31566  10.056   4.791   5.222  0.2741 -1.2849 -1.6403
  975MOL0     H31567   9.948   4.929   5.222 -0.2465  1.0173 -1.1882
  975MOL0     H31568   9.858   4.860   4.999 -2.3594 -0.5935  0.4705
  975MOL0     H31569   9.982   4.737   4.992 -1.8558  0.0479 -1.0677
  975MOL0     H31570   9.859   4.591   5.095 -1.3875 -1.1384  0.6636
  975MOL0     H31571   9.839   4.696   5.242 -3.5751 -0.1144 -0.0335
  975MOL0     H31572   9.674   4.724   4.987  1.4397 -2.8098  0.3460
  975MOL0     H31573   9.664   4.830   5.132  0.8269  0.4719 -1.1010
  975MOL0     H31574   9.483   4.624   5.076  0.0229 -1.5481 -1.9421
  975MOL0     H31575   9.619   4.516   5.111 -0.1299 -0.6557  3.3231
  975MOL0     H31576   9.586   4.431   5.351  1.4690  1.1563  0.5864
  975MOL0     H31577   9.433   4.537   5.672  1.0857  0.7627  1.0806
  975MOL0     H31578   9.525   4.411   5.590 -1.8887  0.6414 -1.2258
  975MOL0     H31579   9.721   4.586   5.615 -1.8593  2.7705 -0.5238
  975MOL0     H31580   9.627   4.668   5.729  6.0384  0.4711  0.3149
  975MOL0     H31581   9.784   4.501   5.865  0.2759 -2.3168  0.4144
  975MOL0     H31582   9.751   4.384   5.743  3.1140  2.2209 -1.4724
  975MOL0     H31583   9.612   4.324   5.949 -1.2137 -1.1309 -0.5243
  975MOL0     H31584   9.517   4.356   5.809  3.1785 -2.9361 -0.7895
  975MOL0     H31585   9.447   4.754   6.057  0.2204  1.4757  0.6279
  975MOL0     H31586   9.478   4.821   6.264  0.6679 -0.2035  0.1593
  975MOL0     H31587   9.511   4.562   6.783 -1.1811  0.5607 -0.4886
  975MOL0     H31588   9.570   4.650   7.012 -1.6979  1.2193 -0.3954
  975MOL0     H31589   9.896   4.950   7.068 -0.7047  0.5916 -0.4495
  975MOL0     H31590   9.718   4.982   7.082  1.2886 -0.1722 -5.0933
  975MOL0     H31591   9.732   4.893   7.311  0.3637 -1.4447  0.5315
  975MOL0     H31592   9.913   4.888   7.290  0.2862 -1.0004 -1.9818
  975MOL0     H31593   9.928   5.130   7.280  0.9653 -1.6766  1.1791
  975MOL0     H31594   9.752   5.153   7.285 -1.5807 -0.8417  2.7753
  975MOL0     H31595   9.943   5.039   7.499  1.0287  0.6304  0.1084
  975MOL0     H31596   9.759   5.031   7.494 -2.1825  2.8293 -1.0242
  975MOL0     H31597   9.750   5.283   7.485  0.6038  0.1824  1.5441
  975MOL0     H31598   9.925   5.287   7.480  0.0708  0.2510 -3.8038
  975MOL0     H31599   9.739   5.220   7.718 -0.3546  2.5770  1.6373
  975MOL0     H31600   9.924   5.189   7.720  1.5953  3.0825 -0.2838
  975MOL0     H31601   9.796   5.458   7.652 -0.5421  0.5580  1.6380
  975MOL0     H31602   9.968   5.418   7.690  0.9370  0.7638 -1.0698
  975MOL0     H31603   9.839   5.552   7.839 -0.0291  0.1224 -3.5562
  975MOL0     H31604   9.741   5.407   7.881  0.1142  0.4442 -1.5151
  975MOL0     H31605   9.911   4.853   6.849 -0.6968 -0.4695 -0.9289
  975MOL0     H31606   9.839   4.780   6.624  2.3072 -0.1649  1.4813
  975MOL0     H31607   9.677   4.461   6.371  1.3664  1.7054  1.3377
  975MOL0     H31608   9.625   4.373   6.156 -2.7388  0.2818  0.8810
  975MOL0     H31609  10.384   5.316   5.258  0.4426 -0.4698 -1.0078
  975MOL0     H31610  10.427   5.549   5.264  0.9826 -0.1359  0.6546
  975MOL0     H31611  10.224   6.044   4.998 -0.0697 -0.2298  0.8252
  975MOL0     H31612  10.287   6.265   4.975  1.4630  0.7753 -0.6273
  975MOL0     H31613  10.349   6.468   4.950 -1.4374 -1.1345  1.2395
  975MOL0     H31614  10.470   6.570   5.012 -0.5567  0.6075 -0.6601
  975MOL0     H31615  10.448   6.472   5.246  0.2137  1.8495 -0.0696
  975MOL0     H31616  10.311   6.369   5.182  2.8002 -1.6121 -0.1090
  975MOL0     H31617  10.206   6.592   5.108 -2.0213  0.8128  0.9708
  975MOL0     H31618  10.320   6.662   5.223 -0.6628 -0.2948 -0.8371
  975MOL0     H31619  10.089   6.600   5.327 -1.5856 -1.2923 -4.0269
  975MOL0     H31620  10.132   6.432   5.309 -1.0447 -0.3615  0.3504
  975MOL0     H31621  10.359   6.564   5.642  3.5884 -1.7430 -0.8250
  975MOL0     H31622  10.701   6.182   5.019  0.3534 -0.1078 -0.8190
  975MOL0     H31623  10.662   5.843   4.919  0.1747  1.8684 -1.6503
  975MOL0     H31624  10.777   5.949   5.009 -1.2449  1.2733 -0.2360
  975MOL0     H31625  10.668   5.828   5.095 -0.9847 -0.3054 -0.0127
  976MOL0     O31626   6.754   5.865   1.940 -0.7451  0.1833 -0.2604
  976MOL0     C31627   6.629   5.865   1.935  0.1999 -0.2595 -0.6562
  976MOL0     O31628   6.559   5.767   1.874 -0.4112 -0.2861 -0.4357
  976MOL0     C31629   6.635   5.660   1.825 -0.2124 -0.1556  0.1553
  976MOL0     C31630   6.674   5.652   1.691 -0.1901  0.1231  0.1743
  976MOL0     C31631   6.739   5.535   1.647  0.9744 -0.1294 -0.4393
  976MOL0     C31632   6.791   5.443   1.733  0.2622  0.5643  0.7393
  976MOL0     O31633   6.873   5.349   1.679  0.3679 -0.3079 -0.2836
  976MOL0     C31634   6.977   5.303   1.770  0.6516 -0.1299  0.3012
  976MOL0     C31635   7.097   5.286   1.684  0.6617 -0.6913 -0.8005
  976MOL0     C31636   7.236   5.283   1.760  0.3037  0.6518  1.2889
  976MOL0     C31637   7.284   5.134   1.769 -0.3020  0.3166 -0.1837
  976MOL0     C31638   7.436   5.103   1.813 -0.3815 -0.7028 -0.0248
  976MOL0     C31639   7.453   4.955   1.799  0.0590 -0.3291 -0.3036
  976MOL0     C31640   7.598   4.910   1.835  0.0600  0.2165  0.3638
  976MOL0     C31641   7.679   4.934   1.694  0.0942  0.2154 -0.6302
  976MOL0     N31642   7.810   4.874   1.700 -0.6387  1.0070  0.7194
  976MOL0     C31643   7.842   4.739   1.712 -0.4716  0.6842  0.0509
  976MOL0     C31644   7.974   4.740   1.754  0.2391 -0.5143  0.1078
  976MOL0     C31645   8.048   4.616   1.808  0.2437  0.5300  0.8557
  976MOL0     C31646   8.143   4.554   1.707 -0.1022 -0.3295 -0.3749
  976MOL0     C31647   8.247   4.642   1.652 -0.6368 -0.1356  0.3596
  976MOL0     C31648   8.310   4.594   1.522  0.4535  0.5568 -0.4888
  976MOL0     O31649   8.396   4.483   1.548 -0.0587  0.0814  0.2180
  976MOL0     C31650   8.527   4.468   1.508 -0.5001 -0.6554 -0.1401
  976MOL0     C31651   8.607   4.376   1.570 -0.1225 -0.3062  0.9664
  976MOL0     C31652   8.742   4.347   1.527 -0.6142  0.1708  0.0287
  976MOL0     C31653   8.803   4.427   1.424  0.3033  0.0845  0.5550
  976MOL0     C31654   8.941   4.401   1.393  0.2695  0.4080 -0.7496
  976MOL0     O31655   9.017   4.337   1.488 -0.3222 -0.2922  0.4830
  976MOL0     C31656   9.149   4.305   1.466  0.9358 -0.3306  0.4784
  976MOL0     C31657   9.245   4.335   1.556  0.6501 -0.7446 -0.1654
  976MOL0     C31658   9.376   4.287   1.537  0.2424 -0.4784  0.5373
  976MOL0     C31659   9.419   4.244   1.417 -0.6878 -0.3602  0.6097
  976MOL0     O31660   9.559   4.221   1.417 -0.0448  0.0886 -0.3365
  976MOL0     C31661   9.623   4.184   1.288 -0.1979  0.2473 -0.6323
  976MOL0     C31662   9.777   4.212   1.294 -0.5914 -0.3398  0.8229
  976MOL0     C31663   9.807   4.352   1.356  0.7869 -0.4908 -0.0687
  976MOL0     C31664   9.730   4.472   1.307  1.3316 -0.2047  0.0064
  976MOL0     C31665   9.795   4.522   1.178 -0.5494 -0.7795  0.3984
  976MOL0     C31666   9.720   4.641   1.111 -0.1888 -0.5830 -0.0097
  976MOL0     C31667   9.764   4.661   0.962  0.3093  0.3229 -0.2619
  976MOL0     C31668   9.910   4.716   0.951  0.1607 -0.2300 -0.3167
  976MOL0    Cl31669   9.968   4.720   0.780  0.3342 -0.0391  0.1415
  976MOL0     C31670   9.323   4.243   1.317 -0.8400 -0.1561 -0.7210
  976MOL0     C31671   9.195   4.261   1.343  1.0982 -0.2562  0.2341
  976MOL0     O31672   8.989   4.456   1.289  0.1820 -0.2048  0.3093
  976MOL0     C31673   8.716   4.518   1.357  0.3464  0.7409  0.5411
  976MOL0     C31674   8.584   4.536   1.404 -0.7139 -0.3592  0.7446
  976MOL0     N31675   8.012   4.875   1.756 -0.4567  0.7504 -0.3104
  976MOL0     N31676   7.917   4.948   1.732  0.3340 -0.5422  0.0377
  976MOL0     C31677   6.752   5.448   1.868  0.4040 -0.0431  0.5196
  976MOL0     C31678   6.674   5.555   1.908 -0.1830 -0.0843 -0.6637
  976MOL0     C31679   6.552   5.969   2.018 -0.5809  0.7340 -0.0773
  976MOL0     C31680   6.416   5.944   2.053 -1.2602 -0.1340 -1.1433
  976MOL0     C31681   6.344   6.031   2.143 -0.0013  0.7888  1.2478
  976MOL0     C31682   6.403   6.151   2.186  0.1664 -0.4069 -0.5687
  976MOL0     O31683   6.326   6.245   2.259 -0.1010  0.1698  0.4154
  976MOL0     C31684   6.187   6.218   2.308  0.1347 -0.3828  1.3385
  976MOL0     C31685   6.136   6.323   2.406 -0.5290  0.2890 -0.7195
  976MOL0     C31686   6.210   6.452   2.389 -0.1458 -0.5258 -0.3025
  976MOL0     C31687   6.280   6.488   2.523  0.5250  0.2408  0.1313
  976MOL0     C31688   6.414   6.432   2.511 -0.0233  0.2993 -0.9697
  976MOL0     C31689   6.517   6.369   2.494 -0.3812 -0.7478  0.2911
  976MOL0     C31690   6.535   6.176   2.151  0.3447 -0.7688  0.4176
  976MOL0     C31691   6.614   6.092   2.078  1.0744  0.9048  0.4731
  976MOL0     C31692   6.765   6.132   2.049 -0.0435  0.4417 -0.8597
  976MOL0     H31693   6.642   5.714   1.607  0.4650 -1.7144 -1.5058
  976MOL0     H31694   6.780   5.526   1.548  0.9926  3.2373 -0.8633
  976MOL0     H31695   6.995   5.379   1.846 -1.5982  0.2050  0.5551
  976MOL0     H31696   6.952   5.210   1.823  1.1618 -0.2107  0.4122
  976MOL0     H31697   7.106   5.378   1.626 -0.4326  2.0326  2.9089
  976MOL0     H31698   7.082   5.202   1.617  0.6749 -0.0614 -1.6079
  976MOL0     H31699   7.239   5.331   1.858  1.3909 -0.7851  2.0065
  976MOL0     H31700   7.299   5.344   1.695 -0.7007  0.5696  0.2168
  976MOL0     H31701   7.221   5.073   1.834  0.0357 -1.4751 -1.4452
  976MOL0     H31702   7.282   5.085   1.671  4.0088 -1.2107  0.2589
  976MOL0     H31703   7.512   5.154   1.752 -0.7670 -0.4445 -0.2882
  976MOL0     H31704   7.453   5.138   1.916 -0.0275  1.4785 -0.7680
  976MOL0     H31705   7.389   4.902   1.870  0.3385  1.7998  1.6675
  976MOL0     H31706   7.418   4.909   1.706 -1.9493 -0.3268  0.3985
  976MOL0     H31707   7.597   4.805   1.865  2.7699  0.1452  0.4857
  976MOL0     H31708   7.643   4.978   1.908  0.3455  1.1807 -0.6733
  976MOL0     H31709   7.610   4.882   1.627  1.4463 -0.9324 -1.1889
  976MOL0     H31710   7.688   5.042   1.678 -0.3831  0.6874  1.8748
  976MOL0     H31711   7.783   4.648   1.705 -1.5830  1.4678 -1.2458
  976MOL0     H31712   8.100   4.658   1.895 -0.3251  4.3749 -0.4917
  976MOL0     H31713   7.975   4.540   1.837 -0.1335  0.0255 -1.2701
  976MOL0     H31714   8.198   4.474   1.758 -1.8008 -1.6002 -0.4812
  976MOL0     H31715   8.084   4.511   1.626  0.5370  1.8412 -2.1019
  976MOL0     H31716   8.327   4.648   1.726 -3.7409 -3.6083  4.4450
  976MOL0     H31717   8.214   4.745   1.632  1.5601  0.7340  0.8849
  976MOL0     H31718   8.366   4.671   1.470 -1.2757  0.9069 -1.9124
  976MOL0     H31719   8.231   4.555   1.458  2.5004 -4.0779 -0.6189
  976MOL0     H31720   8.571   4.335   1.664  0.7856 -0.2047  1.3758
  976MOL0     H31721   8.797   4.263   1.568 -0.4147 -0.0796 -0.7256
  976MOL0     H31722   9.212   4.381   1.649 -1.3473 -1.1262 -0.6286
  976MOL0     H31723   9.445   4.289   1.621 -0.4692  1.3131  1.1263
  976MOL0     H31724   9.600   4.080   1.262 -2.5081  0.8048 -1.1266
  976MOL0     H31725   9.576   4.247   1.211  0.6681 -0.1367 -1.4966
  976MOL0     H31726   9.839   4.134   1.339  0.8759 -1.5703 -2.9869
  976MOL0     H31727   9.807   4.211   1.189  1.1559  1.7580  1.2208
  976MOL0     H31728   9.806   4.344   1.465  3.9437  0.3679  0.1244
  976MOL0     H31729   9.912   4.373   1.332  1.0125  0.0187  1.2703
  976MOL0     H31730   9.743   4.539   1.392  1.8110 -0.1218 -0.1252
  976MOL0     H31731   9.623   4.452   1.298  1.5950 -2.3783  1.0266
  976MOL0     H31732   9.813   4.437   1.112 -1.0164 -1.7556  1.4915
  976MOL0     H31733   9.896   4.559   1.198  0.5177 -1.4528 -2.9601
  976MOL0     H31734   9.618   4.603   1.104  0.0625 -1.2273 -0.2385
  976MOL0     H31735   9.724   4.738   1.162 -1.4871 -0.2080 -0.5736
  976MOL0     H31736   9.688   4.736   0.939 -0.2039  0.6063  2.0482
  976MOL0     H31737   9.751   4.579   0.892 -2.0102  1.4527 -1.2485
  976MOL0     H31738   9.908   4.812   1.004 -4.0703 -0.8198  0.9763
  976MOL0     H31739   9.978   4.647   1.002  0.1314  0.5250  0.7716
  976MOL0     H31740   9.342   4.229   1.211  0.7040 -1.6596 -0.2884
  976MOL0     H31741   9.116   4.236   1.273  0.4972 -1.5611  1.3303
  976MOL0     H31742   8.739   4.585   1.275 -4.1428  1.5348 -0.3004
  976MOL0     H31743   8.527   4.613   1.353  1.6560 -0.0595 -1.7065
  976MOL0     H31744   6.781   5.371   1.939  3.4533  1.0299  0.5639
  976MOL0     H31745   6.651   5.552   2.014 -0.7309 -0.0345 -0.7793
  976MOL0     H31746   6.362   5.850   2.038  0.3946 -1.6836  1.7530
  976MOL0     H31747   6.240   6.012   2.164  0.2371 -1.2146  0.8110
  976MOL0     H31748   6.174   6.117   2.347  0.0954 -0.5511  0.8874
  976MOL0     H31749   6.126   6.227   2.218 -0.2436  3.3821  1.7899
  976MOL0     H31750   6.125   6.281   2.507 -0.2499  2.1439  0.1154
  976MOL0     H31751   6.032   6.341   2.376 -1.3802 -1.7797  0.7736
  976MOL0     H31752   6.137   6.534   2.382 -1.6538 -1.9209 -2.0874
  976MOL0     H31753   6.270   6.458   2.298 -1.2461 -0.8045 -1.0745
  976MOL0     H31754   6.290   6.596   2.536  1.2137  0.4054 -1.5561
  976MOL0     H31755   6.224   6.464   2.614  3.1228 -1.1556  1.4793
  976MOL0     H31756   6.612   6.330   2.462 -0.4614  1.1552 -2.5792
  976MOL0     H31757   6.586   6.265   2.187  1.0370 -1.5583  1.4655
  976MOL0     H31758   6.841   6.053   2.049 -0.5082 -0.0260 -1.5895
  976MOL0     H31759   6.773   6.184   1.953  0.4245  1.1866 -0.4246
  976MOL0     H31760   6.794   6.203   2.126 -3.2130 -0.4408  1.3565
  977MOL0     O31761  10.489   0.426   3.955  0.2450 -0.4284  0.4566
  977MOL0     C31762  10.420   0.493   4.038 -0.2149 -0.3663  0.9700
  977MOL0     O31763  10.476   0.579   4.136  0.7186  0.3189 -0.0779
  977MOL0     C31764  10.605   0.604   4.121 -0.1106  0.2381  0.0027
  977MOL0     C31765  10.685   0.545   4.215 -0.3526 -0.8215 -0.0481
  977MOL0     C31766  10.825   0.577   4.212  0.3126  0.0458  0.4345
  977MOL0     C31767  10.886   0.648   4.107  0.0470  0.5718  1.0029
  977MOL0     O31768  11.018   0.665   4.099  1.3552 -0.3178 -0.5839
  977MOL0     C31769  11.089   0.668   4.222  0.2423 -0.5765 -0.6117
  977MOL0     C31770  11.226   0.722   4.185 -0.3371 -0.4573 -0.0549
  977MOL0     C31771  11.302   0.638   4.083  0.7087  0.6634  0.4371
  977MOL0     C31772  11.421   0.713   4.041  0.4589  0.5886  0.3356
  977MOL0     C31773  11.517   0.616   3.976 -0.7780 -0.8349  0.0366
  977MOL0     C31774  11.633   0.704   3.947 -0.9383 -0.4046  0.8045
  977MOL0     C31775  11.721   0.638   3.841 -0.4007 -0.7180  0.1276
  977MOL0     C31776  11.824   0.741   3.788  0.4688 -0.1467  0.1016
  977MOL0     N31777  11.928   0.765   3.884  0.5011  0.1314 -0.4891
  977MOL0     C31778  12.009   0.664   3.924  0.3797  0.0791 -0.9174
  977MOL0     C31779  12.089   0.716   4.023 -0.6716  0.1275  0.4785
  977MOL0     C31780  12.172   0.634   4.115  0.3792  0.8669 -0.0200
  977MOL0     C31781  12.112   0.650   4.264  0.3001  0.1032 -0.1910
  977MOL0     C31782  12.193   0.743   4.347  0.2800 -0.7803 -0.5273
  977MOL0     C31783  12.331   0.698   4.377  0.4580 -0.5213  0.5766
  977MOL0     O31784  12.383   0.788   4.467 -0.5757 -0.4760 -0.0269
  977MOL0     C31785  12.518   0.776   4.486  0.5602 -0.0818 -0.1409
  977MOL0     C31786  12.565   0.861   4.584  0.1632 -0.5294 -0.3756
  977MOL0     C31787  12.700   0.878   4.619  0.9734  0.4708  0.1380
  977MOL0     C31788  12.788   0.787   4.562  1.2976 -0.3332 -0.3614
  977MOL0     C31789  12.932   0.800   4.590  0.3026  0.9159  0.4576
  977MOL0     O31790  13.010   0.707   4.517  0.4439 -0.0318  0.1451
  977MOL0     C31791  13.138   0.672   4.555 -0.2611  0.2612 -0.8890
  977MOL0     C31792  13.234   0.755   4.617 -0.4671 -0.6462 -0.0639
  977MOL0     C31793  13.363   0.704   4.662 -0.1333 -0.2782  0.1230
  977MOL0     C31794  13.394   0.570   4.635 -0.4376  0.0688  0.2408
  977MOL0     O31795  13.520   0.527   4.676  0.6707  0.3133  0.1939
  977MOL0     C31796  13.579   0.422   4.593 -1.3805 -0.0681  0.4015
  977MOL0     C31797  13.726   0.406   4.626 -1.3159  0.3150 -0.1993
  977MOL0     C31798  13.745   0.297   4.728 -0.4760 -0.5924 -0.1324
  977MOL0     C31799  13.839   0.337   4.840 -0.0194 -0.1170  0.2320
  977MOL0     C31800  13.845   0.242   4.958  0.7884  0.3370 -0.4285
  977MOL0     C31801  13.713   0.224   5.034 -0.7730  0.0888 -0.0391
  977MOL0     C31802  13.724   0.186   5.187  0.3871 -0.2960 -0.1976
  977MOL0     C31803  13.583   0.142   5.222  0.1367 -0.9576 -0.7249
  977MOL0    Cl31804  13.557  -0.034   5.198 -0.0958  0.1926 -0.1542
  977MOL0     C31805  13.303   0.492   4.556 -0.1502  0.1788 -0.6995
  977MOL0     C31806  13.181   0.541   4.522  0.3529  0.0830 -0.2202
  977MOL0     O31807  12.964   0.869   4.686 -0.0500 -0.0876 -0.2020
  977MOL0     C31808  12.737   0.691   4.474  0.5143 -0.2163 -0.8879
  977MOL0     C31809  12.607   0.681   4.438  0.0669  0.1465  1.8549
  977MOL0     N31810  12.079   0.856   4.015 -0.1059 -0.1080 -0.3466
  977MOL0     N31811  11.972   0.883   3.932 -0.4021  0.5707  0.6820
  977MOL0     C31812  10.801   0.701   4.006  0.3253 -0.5939 -0.4216
  977MOL0     C31813  10.662   0.672   4.010 -0.2350  0.3333 -0.2102
  977MOL0     C31814  10.277   0.459   4.040  0.0639 -1.0885  0.3057
  977MOL0     C31815  10.214   0.439   4.167 -0.9356 -0.5441 -0.9112
  977MOL0     C31816  10.072   0.431   4.178 -0.1572  0.3220 -0.0288
  977MOL0     C31817   9.995   0.440   4.063 -0.3103  1.7173 -0.3873
  977MOL0     O31818   9.863   0.429   4.061  0.1761 -0.4628 -0.5291
  977MOL0     C31819   9.793   0.464   4.175  0.0383 -1.2468  0.1758
  977MOL0     C31820   9.763   0.337   4.253  0.3888 -0.4622 -0.5039
  977MOL0     C31821   9.674   0.249   4.163  0.0903  0.2893 -0.1853
  977MOL0     C31822   9.624   0.123   4.238 -0.0885  0.1841  0.0122
  977MOL0     C31823   9.524   0.053   4.167  0.1165  0.0932  0.3115
  977MOL0     C31824   9.430   0.013   4.106  0.0606  0.2510  0.3135
  977MOL0     C31825  10.061   0.442   3.942 -0.0947  0.5224 -0.3622
  977MOL0     C31826  10.198   0.467   3.926 -0.1771 -0.8307  0.5072
  977MOL0     C31827  10.244   0.514   3.798 -0.4148 -0.3669  0.8684
  977MOL0     H31828  10.647   0.484   4.296 -1.0872  1.5818  1.5477
  977MOL0     H31829  10.884   0.536   4.293  0.8422  0.0494  0.0506
  977MOL0     H31830  11.037   0.725   4.300  3.0358  0.0900  0.9270
  977MOL0     H31831  11.092   0.565   4.259 -1.3850  0.3264  2.4347
  977MOL0     H31832  11.284   0.743   4.275 -1.5077  1.6164  0.2726
  977MOL0     H31833  11.222   0.815   4.128  0.2185 -1.1369 -1.2402
  977MOL0     H31834  11.235   0.604   4.004 -1.5044  0.4538  2.2744
  977MOL0     H31835  11.325   0.553   4.147 -0.9948  0.5438  0.9343
  977MOL0     H31836  11.392   0.791   3.971 -1.1523 -1.4598 -1.4418
  977MOL0     H31837  11.455   0.764   4.132  0.5469 -1.6083  1.6174
  977MOL0     H31838  11.544   0.536   4.045  0.3144  1.3670  2.3588
  977MOL0     H31839  11.469   0.577   3.885 -3.1992  2.7471 -0.4495
  977MOL0     H31840  11.599   0.796   3.898  1.1357  0.2607  0.5055
  977MOL0     H31841  11.691   0.730   4.036  2.2789 -0.7955 -0.9940
  977MOL0     H31842  11.667   0.616   3.748 -0.4546  0.2971 -0.0951
  977MOL0     H31843  11.763   0.548   3.886  1.7483  0.6003  0.9028
  977MOL0     H31844  11.869   0.702   3.696 -0.4970  0.2181 -0.5422
  977MOL0     H31845  11.774   0.834   3.759 -0.8747 -1.0609 -0.6764
  977MOL0     H31846  11.999   0.563   3.885  0.0299  0.1919 -1.1287
  977MOL0     H31847  12.171   0.532   4.078  0.5211 -0.2661  2.8291
  977MOL0     H31848  12.275   0.671   4.113  0.7715 -0.2397 -0.9560
  977MOL0     H31849  12.008   0.682   4.262 -0.1359 -1.1795  0.6478
  977MOL0     H31850  12.107   0.547   4.301  2.1813 -0.6647 -1.8733
  977MOL0     H31851  12.136   0.746   4.441 -3.6863  0.3089 -2.7256
  977MOL0     H31852  12.186   0.848   4.318 -3.3565 -0.1571  1.8868
  977MOL0     H31853  12.396   0.702   4.288  1.0060  0.4436  1.0016
  977MOL0     H31854  12.335   0.593   4.408 -0.9169 -1.0983 -1.0231
  977MOL0     H31855  12.492   0.920   4.637  0.6789 -2.7883  3.2255
  977MOL0     H31856  12.725   0.961   4.684 -1.1031  1.8135 -0.7099
  977MOL0     H31857  13.207   0.858   4.640  1.9158 -0.0852  0.5737
  977MOL0     H31858  13.430   0.772   4.713  0.5554 -1.8740  1.4510
  977MOL0     H31859  13.529   0.325   4.603 -2.1320  0.4372  1.7641
  977MOL0     H31860  13.574   0.444   4.486  0.0374  0.0482  0.3503
  977MOL0     H31861  13.782   0.380   4.535 -2.3131  1.2200 -1.0956
  977MOL0     H31862  13.775   0.501   4.650 -0.3970  0.1206 -1.1841
  977MOL0     H31863  13.652   0.286   4.785  0.4508 -3.0282  1.0606
  977MOL0     H31864  13.781   0.205   4.683  3.8073  2.3072 -3.5097
  977MOL0     H31865  13.819   0.437   4.881  0.6532  1.0407 -2.0917
  977MOL0     H31866  13.937   0.338   4.792 -1.2594 -0.1120 -2.4240
  977MOL0     H31867  13.902   0.261   5.049 -2.1656  0.5527  1.4797
  977MOL0     H31868  13.878   0.144   4.922  0.4597  0.2757 -0.5610
  977MOL0     H31869  13.660   0.320   5.036  0.5430  0.8279  0.4252
  977MOL0     H31870  13.650   0.148   4.987  0.5077  0.2337 -2.1359
  977MOL0     H31871  13.754   0.265   5.256  1.8394 -0.9538 -0.0531
  977MOL0     H31872  13.797   0.106   5.196  0.0832 -0.3886  1.8026
  977MOL0     H31873  13.574   0.154   5.331  1.0259  0.8688 -0.8144
  977MOL0     H31874  13.501   0.197   5.175 -0.4599 -1.2290 -0.0279
  977MOL0     H31875  13.331   0.392   4.524  1.8833 -0.9360  3.7279
  977MOL0     H31876  13.108   0.477   4.473 -2.8958  2.1308  1.5097
  977MOL0     H31877  12.800   0.614   4.431  1.6445  0.5190 -0.6151
  977MOL0     H31878  12.581   0.608   4.361  1.3361  1.4165  0.1513
  977MOL0     H31879  10.840   0.752   3.917 -0.3107  0.4886 -0.0995
  977MOL0     H31880  10.593   0.701   3.931 -0.5379 -2.7666 -1.2382
  977MOL0     H31881  10.272   0.437   4.259  2.0425 -0.8571 -2.6789
  977MOL0     H31882  10.036   0.414   4.279 -1.0797  2.3170  0.0123
  977MOL0     H31883   9.701   0.521   4.157  0.7445 -0.4595 -1.1176
  977MOL0     H31884   9.849   0.543   4.227 -2.0593  0.6553 -0.2858
  977MOL0     H31885   9.699   0.365   4.337  1.4770 -1.0224  0.5356
  977MOL0     H31886   9.846   0.278   4.293  1.5144 -0.4665 -2.6961
  977MOL0     H31887   9.739   0.216   4.082  1.5412  2.2333  0.1013
  977MOL0     H31888   9.589   0.302   4.118  1.0445  1.7267 -0.3522
  977MOL0     H31889   9.702   0.050   4.261  0.6929  1.7993  3.0476
  977MOL0     H31890   9.578   0.150   4.334 -0.7122  3.4880 -1.0887
  977MOL0     H31891   9.335  -0.014   4.064  0.3225 -1.0133  0.5097
  977MOL0     H31892  10.008   0.463   3.850  4.5278  1.2916 -3.1659
  977MOL0     H31893  10.268   0.419   3.750 -2.4211  0.0089 -1.0276
  977MOL0     H31894  10.161   0.548   3.735  0.1281 -1.5847 -0.5483
  977MOL0     H31895  10.327   0.584   3.805  2.5808 -3.7605  2.7321
  978MOL0     O31896   0.833   7.366  10.023  0.0680 -0.1946  0.9365
  978MOL0     C31897   0.891   7.450  10.085  0.9458 -0.1647  0.6214
  978MOL0     O31898   1.017   7.461  10.098  0.1986 -0.5380  0.1460
  978MOL0     C31899   1.101   7.379  10.021  0.0556 -0.7734 -0.0491
  978MOL0     C31900   1.197   7.299  10.083  0.2795 -0.4617  0.5593
  978MOL0     C31901   1.277   7.215  10.011 -0.2342 -0.2147  0.2045
  978MOL0     C31902   1.248   7.192   9.873  0.8038 -0.5267 -0.3062
  978MOL0     O31903   1.314   7.100   9.803 -0.4360  0.0799  0.8948
  978MOL0     C31904   1.250   6.972   9.824  0.8349  0.0191  0.2056
  978MOL0     C31905   1.330   6.861   9.745  0.3834  0.1766  0.1158
  978MOL0     C31906   1.444   6.808   9.822 -1.1352  0.4951  0.7355
  978MOL0     C31907   1.392   6.696   9.921  0.0314  0.6088 -0.5216
  978MOL0     C31908   1.504   6.678  10.029  0.6761  0.4575 -0.9805
  978MOL0     C31909   1.420   6.609  10.142 -1.1452 -0.0874  0.4250
  978MOL0     C31910   1.502   6.559  10.257 -0.7712 -0.2248 -0.2999
  978MOL0     C31911   1.415   6.501  10.374  0.4525  0.1123  0.6031
  978MOL0     N31912   1.502   6.486  10.492 -0.7279  0.7083  0.2543
  978MOL0     C31913   1.598   6.390  10.503 -0.1401 -0.1747 -0.2930
  978MOL0     C31914   1.644   6.401  10.629 -0.8575 -0.9703 -0.3926
  978MOL0     C31915   1.738   6.296  10.694  0.2149 -0.3532  0.1178
  978MOL0     C31916   1.707   6.263  10.839 -0.6354  0.1662 -0.4992
  978MOL0     C31917   1.814   6.166  10.905 -0.0104  0.2925  0.0536
  978MOL0     C31918   1.773   6.130  11.047 -0.1465 -0.1689 -0.0475
  978MOL0     O31919   1.855   6.018  11.087  0.1078 -0.1391  0.4240
  978MOL0     C31920   1.870   6.015  11.223 -0.0887  0.2776 -0.8184
  978MOL0     C31921   1.758   6.020  11.306  0.2050 -1.2028  0.2343
  978MOL0     C31922   1.766   6.037  11.445  0.0912 -0.2165  0.5944
  978MOL0     C31923   1.892   6.040  11.505  0.2448  1.4206 -0.5192
  978MOL0     C31924   1.915   6.053  11.649 -0.8088  0.0863  0.3673
  978MOL0     O31925   1.831   6.129  11.721  0.1256 -0.2567  0.2887
  978MOL0     C31926   1.845   6.158  11.851 -0.3062  0.4410 -0.3912
  978MOL0     C31927   1.970   6.187  11.905 -0.7376 -0.9950 -0.6296
  978MOL0     C31928   1.978   6.235  12.042  0.2761 -0.2109  0.2121
  978MOL0     C31929   1.864   6.256  12.116 -0.8957 -0.1817  0.1060
  978MOL0     O31930   1.907   6.310  12.241  0.3040  0.3333  0.5086
  978MOL0     C31931   1.872   6.232  12.352 -1.1792  0.5050 -0.3414
  978MOL0     C31932   1.999   6.184  12.413 -0.2212  0.5168  0.6966
  978MOL0     C31933   2.091   6.304  12.456 -0.2542  0.4685 -0.3940
  978MOL0     C31934   2.175   6.271  12.587  0.1683  0.3933 -0.9334
  978MOL0     C31935   2.099   6.274  12.720 -1.7288  0.3777  0.3465
  978MOL0     C31936   2.202   6.300  12.837  0.8638 -0.5308  1.1193
  978MOL0     C31937   2.127   6.297  12.971 -0.8307  0.9654  0.2361
  978MOL0     C31938   2.229   6.312  13.081  0.1644 -0.4102  0.1418
  978MOL0    Cl31939   2.340   6.453  13.051  0.1909 -0.1805  0.1064
  978MOL0     C31940   1.742   6.212  12.066  0.1999  0.2190  0.3058
  978MOL0     C31941   1.724   6.178  11.928  0.1390  0.2367 -0.4538
  978MOL0     O31942   2.011   5.999  11.700 -0.9382 -0.4114  0.6094
  978MOL0     C31943   2.008   6.029  11.425  0.3804 -0.1538 -0.3634
  978MOL0     C31944   1.996   6.023  11.288 -0.7369  0.9445 -0.0236
  978MOL0     N31945   1.585   6.511  10.683 -1.2477 -0.6959  0.1278
  978MOL0     N31946   1.517   6.570  10.597  0.3049  0.1066 -0.0375
  978MOL0     C31947   1.155   7.275   9.807 -1.0371  0.2582  0.8039
  978MOL0     C31948   1.084   7.371   9.880  0.8608 -0.3635 -0.2402
  978MOL0     C31949   0.819   7.561  10.143 -0.7331  0.9932  0.2711
  978MOL0     C31950   0.871   7.694  10.149  0.3913  1.2303 -0.0365
  978MOL0     C31951   0.805   7.807  10.193  0.5258 -0.3623 -0.1510
  978MOL0     C31952   0.671   7.796  10.240  0.9811 -0.3613 -0.0674
  978MOL0     O31953   0.592   7.893  10.304  0.8474 -0.6269  1.0027
  978MOL0     C31954   0.459   7.913  10.247  0.8835  0.7578  0.5530
  978MOL0     C31955   0.445   8.065  10.239 -0.2706  0.5800 -0.4785
  978MOL0     C31956   0.528   8.125  10.128  0.0559 -0.1400 -0.3714
  978MOL0     C31957   0.528   8.280  10.150 -0.4127  0.5990  0.2937
  978MOL0     C31958   0.425   8.340  10.071 -0.1881  0.3780  0.4157
  978MOL0     C31959   0.363   8.409   9.996  0.9554 -0.2601  0.1404
  978MOL0     C31960   0.616   7.673  10.240 -0.2929  0.3441 -0.5301
  978MOL0     C31961   0.686   7.551  10.203 -0.8004  0.2759  0.3855
  978MOL0     C31962   0.609   7.425  10.188  0.1834  1.1191 -0.8030
  978MOL0     H31963   1.213   7.315  10.189  4.9120  0.9767 -0.1491
  978MOL0     H31964   1.357   7.154  10.052  0.5072  1.2236  0.9437
  978MOL0     H31965   1.250   6.957   9.932  1.4579  1.8694  0.5010
  978MOL0     H31966   1.150   6.974   9.780  0.2285 -1.9517  1.4157
  978MOL0     H31967   1.364   6.905   9.651  0.5116 -1.2563 -0.5311
  978MOL0     H31968   1.258   6.779   9.731  0.5112 -0.0394  0.6815
  978MOL0     H31969   1.495   6.887   9.878  0.8046 -0.8354  0.9544
  978MOL0     H31970   1.522   6.767   9.757 -2.0409 -0.0225 -0.0524
  978MOL0     H31971   1.291   6.710   9.961 -1.2445 -1.0524 -2.8692
  978MOL0     H31972   1.385   6.597   9.875 -1.6378  0.3723  0.1880
  978MOL0     H31973   1.589   6.614  10.002  0.9446 -2.0584  4.4002
  978MOL0     H31974   1.550   6.769  10.068 -0.1468  1.1300 -1.5606
  978MOL0     H31975   1.348   6.681  10.182 -1.0646 -1.0243  2.3982
  978MOL0     H31976   1.368   6.527  10.092  2.2149 -0.7320 -2.4291
  978MOL0     H31977   1.559   6.645  10.293  0.5761 -1.3241  0.2654
  978MOL0     H31978   1.580   6.490  10.224  1.0491  0.5475  2.0946
  978MOL0     H31979   1.343   6.579  10.401 -0.3014 -0.3884  0.0409
  978MOL0     H31980   1.366   6.408  10.345  1.0285  0.8004 -2.9695
  978MOL0     H31981   1.643   6.325  10.429 -1.4949 -2.4550  0.7685
  978MOL0     H31982   1.733   6.203  10.638  0.6285  0.3624 -1.1384
  978MOL0     H31983   1.833   6.350  10.698 -0.5524  1.0807  4.0459
  978MOL0     H31984   1.704   6.352  10.903  2.6024  1.0775 -1.4268
  978MOL0     H31985   1.610   6.212  10.835 -1.3588  1.4784 -0.3420
  978MOL0     H31986   1.916   6.204  10.900  1.2933 -2.9026  0.1660
  978MOL0     H31987   1.806   6.080  10.837 -0.9230  0.1678  0.3072
  978MOL0     H31988   1.666   6.110  11.052 -0.0205 -1.0140 -0.5926
  978MOL0     H31989   1.797   6.222  11.103 -1.8874 -0.5494  1.4233
  978MOL0     H31990   1.662   6.015  11.255  1.1278 -0.7239 -1.6430
  978MOL0     H31991   1.677   6.045  11.506  0.6802 -0.7492  1.5587
  978MOL0     H31992   2.062   6.191  11.849  0.3262  1.5322  1.1397
  978MOL0     H31993   2.074   6.254  12.089  0.0417 -1.1450  1.0998
  978MOL0     H31994   1.817   6.288  12.428 -0.2279 -1.9730  2.3652
  978MOL0     H31995   1.822   6.138  12.328  0.3371 -1.0187  2.0329
  978MOL0     H31996   1.989   6.121  12.502 -1.5688 -1.7776 -0.9637
  978MOL0     H31997   2.056   6.132  12.336  1.9829  2.0821  1.1597
  978MOL0     H31998   2.165   6.321  12.378  0.4222  1.6945  0.4921
  978MOL0     H31999   2.038   6.399  12.469 -1.1272  0.1241 -1.2825
  978MOL0     H32000   2.258   6.341  12.589  0.9695 -0.5142  1.5977
  978MOL0     H32001   2.223   6.173  12.577  1.7055  1.0048  0.1554
  978MOL0     H32002   2.064   6.171  12.719 -0.8005  0.0559 -0.1081
  978MOL0     H32003   2.019   6.348  12.709 -0.8971  0.9011 -3.3854
  978MOL0     H32004   2.282   6.226  12.841  0.9157 -0.7177 -1.4550
  978MOL0     H32005   2.250   6.396  12.817  3.0677 -1.6197  0.8243
  978MOL0     H32006   2.084   6.197  12.982  2.7729 -0.8338 -0.4150
  978MOL0     H32007   2.046   6.370  12.981 -0.8435  1.1469 -1.0831
  978MOL0     H32008   2.179   6.325  13.177  2.4144  0.6603  1.2420
  978MOL0     H32009   2.281   6.218  13.105  0.7583  0.0961  0.8759
  978MOL0     H32010   1.654   6.234  12.126  1.1304  2.0779  1.0783
  978MOL0     H32011   1.623   6.151  11.900 -0.4647 -1.4177  2.7819
  978MOL0     H32012   2.098   6.017  11.484 -1.1084 -3.1138  1.5494
  978MOL0     H32013   2.084   6.023  11.225 -2.7409  0.4398 -3.0218
  978MOL0     H32014   1.130   7.264   9.702  0.2800 -0.0854  0.5075
  978MOL0     H32015   1.001   7.428   9.841  0.3269 -0.7664  0.2831
  978MOL0     H32016   0.976   7.699  10.124  0.3221  2.7934 -0.0588
  978MOL0     H32017   0.858   7.901  10.196 -1.0587  0.5616 -0.0902
  978MOL0     H32018   0.373   7.878  10.303  2.0708  2.2289  3.5098
  978MOL0     H32019   0.457   7.870  10.146 -0.3873  0.3946  0.7127
  978MOL0     H32020   0.476   8.097  10.339 -0.6164 -1.1366  0.2001
  978MOL0     H32021   0.344   8.100  10.217 -0.7108 -0.2496  0.1828
  978MOL0     H32022   0.500   8.097  10.026  0.1952 -0.4744 -0.3208
  978MOL0     H32023   0.635   8.102  10.127  0.4678  1.5984 -1.4777
  978MOL0     H32024   0.530   8.297  10.258  3.6783 -1.3456  0.7108
  978MOL0     H32025   0.618   8.328  10.112 -0.0958 -0.7558 -0.7434
  978MOL0     H32026   0.294   8.456   9.929 -2.4809 -3.9334  0.6554
  978MOL0     H32027   0.513   7.666  10.273 -0.7316  2.9043 -1.1329
  978MOL0     H32028   0.528   7.425  10.261 -1.6264  1.7282 -2.7258
  978MOL0     H32029   0.571   7.416  10.086 -1.3146  0.5270 -0.2171
  978MOL0     H32030   0.672   7.340  10.214 -0.4335  1.4986  2.4154
  979MOL0     O32031  10.071   7.511   0.208 -0.3112  0.0331 -0.2204
  979MOL0     C32032  10.093   7.451   0.317  0.9817  0.0011  0.7678
  979MOL0     O32033  10.011   7.428   0.418  0.2629  0.0473 -0.6553
  979MOL0     C32034   9.884   7.475   0.427 -0.0099  0.4595 -0.2468
  979MOL0     C32035   9.786   7.464   0.328 -0.5410  0.1173 -0.3279
  979MOL0     C32036   9.652   7.511   0.343  0.0794  0.5334  0.0914
  979MOL0     C32037   9.608   7.572   0.462  0.2790 -0.7471 -0.2440
  979MOL0     O32038   9.481   7.604   0.491 -0.1536  0.2588 -0.2796
  979MOL0     C32039   9.373   7.537   0.418 -0.4490  0.2989 -0.0243
  979MOL0     C32040   9.327   7.619   0.290 -0.3309  0.5075  0.0549
  979MOL0     C32041   9.220   7.547   0.197 -0.3892  0.2864 -0.1844
  979MOL0     C32042   9.222   7.615   0.059  0.1525 -0.3879  0.6729
  979MOL0     C32043   9.096   7.579  -0.022 -0.8650  0.4776  0.3968
  979MOL0     C32044   9.109   7.437  -0.082  0.0923  0.1984  0.2404
  979MOL0     C32045   8.974   7.388  -0.133 -0.1326  0.4026 -0.0596
  979MOL0     C32046   8.993   7.277  -0.233  0.0377 -0.2671 -1.2775
  979MOL0     N32047   9.058   7.160  -0.177  1.0039 -0.1951  0.3100
  979MOL0     C32048   9.193   7.142  -0.151  0.0323  0.6513  0.7912
  979MOL0     C32049   9.201   7.035  -0.066  0.1854 -0.6338 -0.7969
  979MOL0     C32050   9.327   6.974  -0.002 -0.4918  0.1410  0.3310
  979MOL0     C32051   9.310   6.935   0.148  0.5769 -0.0523 -0.4979
  979MOL0     C32052   9.231   7.030   0.240  0.6574  0.1684 -0.2007
  979MOL0     C32053   9.258   7.179   0.207 -0.4047 -0.0615  0.1889
  979MOL0     O32054   9.390   7.215   0.180 -0.1884 -0.2014  0.0552
  979MOL0     C32055   9.488   7.185   0.268  0.3941 -0.4097  0.2928
  979MOL0     C32056   9.461   7.166   0.405 -0.0733  0.2945 -0.0362
  979MOL0     C32057   9.568   7.138   0.492 -0.2498 -0.7112 -0.2847
  979MOL0     C32058   9.701   7.106   0.431  0.2742  0.1348 -0.0245
  979MOL0     C32059   9.813   7.071   0.516  0.7041  0.5645 -0.4970
  979MOL0     O32060   9.789   7.075   0.657 -0.3890  0.4554  0.1840
  979MOL0     C32061   9.902   7.035   0.733  0.2372  0.5449  0.3350
  979MOL0     C32062   9.944   6.904   0.732  0.1902  0.4577 -0.6842
  979MOL0     C32063  10.055   6.864   0.806 -0.1814  0.1107 -0.2084
  979MOL0     C32064  10.134   6.950   0.880  0.4127 -0.3438 -0.7897
  979MOL0     O32065  10.247   6.915   0.947  0.2244 -0.4474  0.1812
  979MOL0     C32066  10.373   6.911   0.868  0.3996 -0.7709 -0.0171
  979MOL0     C32067  10.476   6.850   0.970  0.2915  0.6507  0.2838
  979MOL0     C32068  10.611   6.877   0.913  0.6744  0.5931  0.9812
  979MOL0     C32069  10.643   6.805   0.781 -0.4339  0.9741 -0.0376
  979MOL0     C32070  10.788   6.771   0.745  0.9508 -0.0398  0.1874
  979MOL0     C32071  10.837   6.740   0.608  0.6924 -0.5283  0.2238
  979MOL0     C32072  10.980   6.684   0.581 -0.4591  0.2636  0.3133
  979MOL0     C32073  11.009   6.637   0.434  0.4915  0.4441 -0.9842
  979MOL0    Cl32074  11.182   6.592   0.429  0.4286  0.1322 -0.2485
  979MOL0     C32075  10.091   7.087   0.877 -0.0703  0.2684 -0.7087
  979MOL0     C32076   9.984   7.128   0.800 -0.9174  1.3271 -0.5602
  979MOL0     O32077   9.920   7.052   0.461  0.0499  0.5621  0.0638
  979MOL0     C32078   9.721   7.126   0.293  0.5928 -0.1204 -0.3626
  979MOL0     C32079   9.616   7.176   0.216  1.2153  0.1975 -0.2151
  979MOL0     N32080   9.072   6.979  -0.069  0.0951 -0.3780 -0.0806
  979MOL0     N32081   8.989   7.058  -0.119  0.1597  0.1270  0.5658
  979MOL0     C32082   9.704   7.585   0.564  0.1012  0.7426 -0.5570
  979MOL0     C32083   9.843   7.544   0.549  0.6415 -0.2196  0.6469
  979MOL0     C32084  10.225   7.385   0.323 -0.5724  0.4349 -0.4662
  979MOL0     C32085  10.282   7.336   0.204  0.1446  0.1727 -0.7335
  979MOL0     C32086  10.396   7.263   0.200 -0.9882  0.0425  0.7236
  979MOL0     C32087  10.458   7.226   0.320 -0.3385  0.1338  0.0232
  979MOL0     O32088  10.575   7.160   0.312 -0.7274  0.6420 -0.5011
  979MOL0     C32089  10.570   7.024   0.366 -1.0046  0.3001 -0.2128
  979MOL0     C32090  10.460   6.945   0.291 -0.9957  0.6222 -0.6230
  979MOL0     C32091  10.401   6.829   0.386  0.6908 -0.2066  0.0923
  979MOL0     C32092  10.286   6.858   0.484 -0.3150 -0.2004  0.1488
  979MOL0     C32093  10.240   6.725   0.538  0.6825  0.1842 -0.0255
  979MOL0     C32094  10.170   6.630   0.568  0.2230  0.1727  0.1112
  979MOL0     C32095  10.400   7.272   0.435 -0.4596 -0.5691  0.2189
  979MOL0     C32096  10.282   7.345   0.446 -0.6328  0.3179 -0.3758
  979MOL0     C32097  10.240   7.386   0.589  1.5632  0.1857 -0.3168
  979MOL0     H32098   9.813   7.402   0.243  1.7880 -0.5341  0.7940
  979MOL0     H32099   9.581   7.496   0.262  1.5003  0.0581 -1.1178
  979MOL0     H32100   9.394   7.432   0.395 -0.6755 -0.1310  1.6269
  979MOL0     H32101   9.283   7.537   0.480 -1.5249 -1.1178 -1.4778
  979MOL0     H32102   9.415   7.652   0.234 -1.0057 -0.1616 -1.4578
  979MOL0     H32103   9.280   7.710   0.326  0.7302  0.9264  0.4376
  979MOL0     H32104   9.128   7.541   0.256  1.3541 -3.2766  2.5374
  979MOL0     H32105   9.253   7.443   0.188 -0.5537  0.1908  0.2731
  979MOL0     H32106   9.216   7.723   0.073 -0.1699 -0.7839  4.6076
  979MOL0     H32107   9.314   7.601   0.001  0.3406 -2.0502  1.3204
  979MOL0     H32108   9.012   7.588   0.048  0.1189  0.6996  1.5789
  979MOL0     H32109   9.071   7.649  -0.101  0.3936 -0.5661 -0.9835
  979MOL0     H32110   9.179   7.454  -0.164  0.1120  2.6522  0.6856
  979MOL0     H32111   9.146   7.363  -0.011 -2.0794 -1.6111 -0.4000
  979MOL0     H32112   8.920   7.473  -0.176 -0.4500  2.3371  3.7114
  979MOL0     H32113   8.916   7.358  -0.045  0.5060  0.6031  0.4332
  979MOL0     H32114   8.898   7.232  -0.263  1.7937 -3.7719 -2.0847
  979MOL0     H32115   9.048   7.316  -0.320 -1.5642  1.5282 -1.5656
  979MOL0     H32116   9.273   7.211  -0.176  1.7307 -0.9971  1.4908
  979MOL0     H32117   9.339   6.890  -0.070 -0.6656  0.9128 -0.6746
  979MOL0     H32118   9.412   7.043  -0.010 -1.5359  1.3365 -0.8100
  979MOL0     H32119   9.261   6.838   0.153  0.8557 -0.1552  0.5602
  979MOL0     H32120   9.407   6.922   0.197  1.3886  3.3978 -0.9588
  979MOL0     H32121   9.240   7.013   0.348 -0.0848  0.2052 -0.1260
  979MOL0     H32122   9.126   7.013   0.213  0.9644  0.5957 -1.7899
  979MOL0     H32123   9.215   7.238   0.289 -0.5384 -0.8008  0.6554
  979MOL0     H32124   9.196   7.215   0.124 -0.3056 -0.2723  0.0222
  979MOL0     H32125   9.367   7.187   0.456 -0.7531  1.0108 -1.4901
  979MOL0     H32126   9.559   7.135   0.600  2.2227 -1.2008 -0.0344
  979MOL0     H32127   9.877   6.831   0.685 -1.2039 -1.4295  3.7105
  979MOL0     H32128  10.085   6.760   0.806  1.2110  0.4467 -2.7403
  979MOL0     H32129  10.358   6.839   0.787 -4.2369 -1.7867  1.4162
  979MOL0     H32130  10.412   7.005   0.827 -0.5339 -0.3543  0.0187
  979MOL0     H32131  10.471   6.890   1.072  2.9734  2.2420 -0.0970
  979MOL0     H32132  10.460   6.742   0.973  0.3361  0.5271 -1.9529
  979MOL0     H32133  10.626   6.986   0.908  1.1998  0.4784 -2.1293
  979MOL0     H32134  10.683   6.838   0.985  0.2943 -0.4609  0.7974
  979MOL0     H32135  10.599   6.871   0.705 -0.3408  1.2430  0.1380
  979MOL0     H32136  10.598   6.707   0.764 -0.5399  1.5109 -3.6223
  979MOL0     H32137  10.822   6.681   0.797  1.0120 -1.9935 -2.9655
  979MOL0     H32138  10.846   6.856   0.782 -1.8312  3.0154 -1.9052
  979MOL0     H32139  10.779   6.671   0.546  2.5768 -2.3848  0.4301
  979MOL0     H32140  10.826   6.837   0.559 -2.5319  1.0830  3.6075
  979MOL0     H32141  10.984   6.615   0.665 -3.7541  0.4231  0.7333
  979MOL0     H32142  11.046   6.765   0.613 -1.4387  0.1966  2.7548
  979MOL0     H32143  10.953   6.547   0.408  1.0829 -0.9073  1.9831
  979MOL0     H32144  10.996   6.724   0.369  2.9567  5.5612  4.4080
  979MOL0     H32145  10.141   7.158   0.941 -1.8446  3.9844 -3.0784
  979MOL0     H32146   9.957   7.232   0.789 -0.9135  1.6580  2.0157
  979MOL0     H32147   9.813   7.102   0.241  1.7249  1.7820  0.6360
  979MOL0     H32148   9.634   7.199   0.112  3.5734  0.2278  0.1599
  979MOL0     H32149   9.661   7.639   0.647 -1.0687  2.4457 -2.1817
  979MOL0     H32150   9.900   7.573   0.637 -1.8941  3.7141  1.2756
  979MOL0     H32151  10.237   7.357   0.107 -0.7809  1.3993 -0.0660
  979MOL0     H32152  10.442   7.230   0.108 -3.2048  1.7036 -1.0768
  979MOL0     H32153  10.554   7.020   0.474  1.3388 -1.3170  0.1641
  979MOL0     H32154  10.672   6.983   0.358 -0.7207  0.8616  0.4776
  979MOL0     H32155  10.503   6.897   0.203  0.3726 -1.2219  0.9611
  979MOL0     H32156  10.377   7.007   0.256 -1.6612  0.7415  1.0687
  979MOL0     H32157  10.473   6.776   0.450  1.2682 -0.6589 -0.8991
  979MOL0     H32158  10.362   6.757   0.313  0.4855  1.9515 -2.0561
  979MOL0     H32159  10.317   6.924   0.566  0.8245 -0.1904 -0.2786
  979MOL0     H32160  10.208   6.912   0.429 -0.0881  0.8013  0.7722
  979MOL0     H32161  10.104   6.545   0.577  0.8101 -0.2079  1.0336
  979MOL0     H32162  10.450   7.241   0.526 -1.7975 -1.5260  0.6612
  979MOL0     H32163  10.163   7.317   0.623  0.2681  1.5620 -0.3747
  979MOL0     H32164  10.315   7.364   0.666  1.7897  0.8098 -0.3471
  979MOL0     H32165  10.208   7.491   0.591  0.1580 -0.2263  2.1379
  980MOL0     O32166   7.966   5.737   0.579  0.7363 -1.3190  1.3184
  980MOL0     C32167   8.001   5.774   0.472  0.3312 -0.0980  0.2998
  980MOL0     O32168   8.062   5.890   0.437 -0.3664  0.3884 -0.4328
  980MOL0     C32169   8.097   5.974   0.538 -0.9336  0.0081 -0.3762
  980MOL0     C32170   7.991   6.052   0.600 -0.2020  0.5861 -0.8034
  980MOL0     C32171   8.022   6.145   0.715 -0.4730  0.0639 -0.5830
  980MOL0     C32172   8.161   6.146   0.754 -0.1428 -0.3042 -0.4579
  980MOL0     O32173   8.181   6.214   0.874 -0.6046  0.4227 -0.2947
  980MOL0     C32174   8.277   6.322   0.883  0.3665  0.4940 -0.7279
  980MOL0     C32175   8.222   6.426   0.977  0.2778 -0.0435 -0.0497
  980MOL0     C32176   8.240   6.387   1.124 -1.1903 -0.2141 -0.0545
  980MOL0     C32177   8.136   6.485   1.199 -0.6423  0.4036 -0.2304
  980MOL0     C32178   8.146   6.452   1.347  0.2993  1.0565 -0.6355
  980MOL0     C32179   8.069   6.551   1.435 -0.7155  0.1780 -0.4829
  980MOL0     C32180   8.113   6.535   1.573  0.0120 -1.2941  0.0705
  980MOL0     C32181   8.043   6.645   1.660  0.4341 -0.6981  0.0350
  980MOL0     N32182   7.983   6.604   1.787 -0.5480 -0.1690 -0.9139
  980MOL0     C32183   7.918   6.490   1.803 -0.7624 -0.1756 -0.0552
  980MOL0     C32184   7.874   6.493   1.932  0.0905 -0.1003 -0.4924
  980MOL0     C32185   7.796   6.386   1.986 -0.3750  0.4310 -0.2545
  980MOL0     C32186   7.671   6.436   2.058  0.5391  0.0538  0.1661
  980MOL0     C32187   7.635   6.322   2.159 -0.1656 -0.8827  0.1213
  980MOL0     C32188   7.710   6.318   2.290  0.0588 -0.9421 -0.8831
  980MOL0     O32189   7.674   6.446   2.356 -0.7369 -0.1764  0.4306
  980MOL0     C32190   7.777   6.492   2.434  0.4751 -0.0694  1.2180
  980MOL0     C32191   7.881   6.554   2.368 -0.5255 -0.6489  0.3548
  980MOL0     C32192   7.997   6.584   2.440  0.7490  0.2938  0.1104
  980MOL0     C32193   8.001   6.568   2.584 -0.3739 -0.0033 -0.4533
  980MOL0     C32194   8.124   6.619   2.661  0.5252  0.3643  0.8714
  980MOL0     O32195   8.238   6.636   2.592 -0.6089 -0.3442  0.8664
  980MOL0     C32196   8.349   6.703   2.630 -0.8870 -0.2136  0.3377
  980MOL0     C32197   8.463   6.687   2.542 -0.8435 -0.0163  1.0545
  980MOL0     C32198   8.588   6.764   2.550 -1.0497 -1.1585 -0.0008
  980MOL0     C32199   8.597   6.868   2.644  0.6910  0.4899  0.4100
  980MOL0     O32200   8.697   6.961   2.665  0.7127 -0.4339 -1.5501
  980MOL0     C32201   8.825   6.920   2.625  0.3685 -0.6855 -0.2434
  980MOL0     C32202   8.928   7.032   2.639  0.3801 -0.3235  0.3532
  980MOL0     C32203   9.074   6.989   2.637 -0.0245 -0.3393 -0.4787
  980MOL0     C32204   9.163   7.107   2.681  0.6787 -0.1950  0.7148
  980MOL0     C32205   9.310   7.070   2.653 -0.6057  0.6082 -0.2077
  980MOL0     C32206   9.412   7.155   2.723 -0.4740 -0.5586  0.1128
  980MOL0     C32207   9.407   7.304   2.684 -0.0856  0.6684 -0.1024
  980MOL0     C32208   9.517   7.368   2.754 -0.2465 -0.3386  0.1659
  980MOL0    Cl32209   9.510   7.545   2.740 -0.2204  0.0272  0.1640
  980MOL0     C32210   8.485   6.887   2.729  0.5013  0.3607  0.0201
  980MOL0     C32211   8.371   6.806   2.727  0.3540  0.0007 -0.3461
  980MOL0     O32212   8.112   6.636   2.781 -0.5819 -0.4149  0.4023
  980MOL0     C32213   7.889   6.508   2.644  0.0172  0.0250  0.6394
  980MOL0     C32214   7.774   6.465   2.576 -0.0219  0.9306  0.1192
  980MOL0     N32215   7.927   6.612   1.988 -0.1516  0.9401 -0.6633
  980MOL0     N32216   8.004   6.670   1.906 -0.1831 -0.2202 -0.3357
  980MOL0     C32217   8.262   6.072   0.691  0.1986  0.3209 -0.4554
  980MOL0     C32218   8.228   5.993   0.585  0.3632 -0.4242 -0.2313
  980MOL0     C32219   7.957   5.694   0.354 -0.0494  0.0595  0.6137
  980MOL0     C32220   7.973   5.751   0.222 -0.7022 -0.0574  0.0520
  980MOL0     C32221   7.937   5.685   0.106  0.1346  0.6808 -0.2710
  980MOL0     C32222   7.893   5.550   0.110 -0.5296 -0.4799 -0.1993
  980MOL0     O32223   7.851   5.490  -0.011  0.3947 -0.1117  0.1356
  980MOL0     C32224   7.892   5.552  -0.135  0.2005  0.4860  0.3421
  980MOL0     C32225   7.842   5.447  -0.248 -0.4740  0.6605 -0.1788
  980MOL0     C32226   7.908   5.312  -0.236 -0.7750 -0.3751  0.7813
  980MOL0     C32227   7.851   5.220  -0.340 -0.0913 -0.5627  0.4384
  980MOL0     C32228   7.736   5.141  -0.295  0.0178  0.0762  0.1756
  980MOL0     C32229   7.653   5.072  -0.241 -0.1928 -0.8811  0.5534
  980MOL0     C32230   7.876   5.491   0.239 -1.2979 -0.4863  0.1929
  980MOL0     C32231   7.908   5.558   0.358 -0.4219 -0.3383 -0.7498
  980MOL0     C32232   7.894   5.476   0.481  0.2498  0.0717  0.0772
  980MOL0     H32233   7.887   6.029   0.582 -0.1159  0.3597 -1.0104
  980MOL0     H32234   7.938   6.187   0.770 -1.3280  0.3685 -2.0763
  980MOL0     H32235   8.369   6.282   0.925 -1.4447 -0.3456  2.7944
  980MOL0     H32236   8.293   6.371   0.786 -3.1720  0.4456 -1.4547
  980MOL0     H32237   8.116   6.440   0.954 -0.0720  0.6743  1.8007
  980MOL0     H32238   8.270   6.523   0.963  3.0802 -0.9543  2.4364
  980MOL0     H32239   8.345   6.404   1.152 -0.9850 -1.1976 -0.1977
  980MOL0     H32240   8.221   6.283   1.149  1.9957 -0.8642  0.1159
  980MOL0     H32241   8.185   6.582   1.194 -0.0147  0.0505 -1.3091
  980MOL0     H32242   8.032   6.491   1.165 -2.1762  1.2516  4.0529
  980MOL0     H32243   8.118   6.348   1.365 -1.7337  1.0094 -3.4173
  980MOL0     H32244   8.251   6.444   1.378  0.2052 -0.1627 -0.5819
  980MOL0     H32245   8.088   6.653   1.399 -0.2025  1.2022  2.4046
  980MOL0     H32246   7.962   6.531   1.425 -0.6815 -0.0339 -0.4327
  980MOL0     H32247   8.222   6.537   1.579  0.2185  5.3491  2.0601
  980MOL0     H32248   8.074   6.435   1.592  2.2020 -1.9615  1.2997
  980MOL0     H32249   8.113   6.729   1.666  1.4943 -1.6158  0.9157
  980MOL0     H32250   7.960   6.696   1.610  0.0898  2.2889  3.2923
  980MOL0     H32251   7.891   6.416   1.728 -1.7432  1.2439 -1.1559
  980MOL0     H32252   7.759   6.329   1.900 -0.0230  2.2883 -1.6840
  980MOL0     H32253   7.853   6.315   2.047 -2.1228 -1.1473 -0.3621
  980MOL0     H32254   7.686   6.525   2.119  1.4260  0.1523 -0.1804
  980MOL0     H32255   7.592   6.444   1.983  2.3715 -1.4299 -2.0559
  980MOL0     H32256   7.637   6.227   2.105  0.0705 -0.4527 -0.6347
  980MOL0     H32257   7.530   6.331   2.190  0.0178  1.1426  0.3023
  980MOL0     H32258   7.816   6.321   2.261  0.1782  0.3932 -0.3918
  980MOL0     H32259   7.682   6.231   2.351 -1.0087  1.2277  1.9373
  980MOL0     H32260   7.872   6.571   2.262  0.1712 -2.4195 -0.0253
  980MOL0     H32261   8.079   6.623   2.381 -2.5838  1.7082 -4.1294
  980MOL0     H32262   8.448   6.617   2.460 -2.3852  0.0559  1.2436
  980MOL0     H32263   8.673   6.744   2.485 -0.4806 -1.0701  0.7111
  980MOL0     H32264   8.855   6.840   2.693  0.6323  1.2956  2.0754
  980MOL0     H32265   8.833   6.892   2.519  0.6675  0.0102 -0.4129
  980MOL0     H32266   8.888   7.098   2.561  0.5336 -0.6976 -0.0425
  980MOL0     H32267   8.910   7.086   2.733 -0.4246  0.4855 -0.2485
  980MOL0     H32268   9.110   6.899   2.687 -0.2443 -0.1057  0.1048
  980MOL0     H32269   9.090   6.977   2.529 -1.0694 -0.1587 -0.6630
  980MOL0     H32270   9.154   7.132   2.787 -1.9302  2.1663  0.0667
  980MOL0     H32271   9.137   7.196   2.624  2.3670 -0.1114  0.0216
  980MOL0     H32272   9.329   7.091   2.547  3.3027 -0.5553  0.0934
  980MOL0     H32273   9.335   6.963   2.658 -1.4756  0.2268 -2.6646
  980MOL0     H32274   9.391   7.156   2.831 -0.8842 -2.9710  0.1040
  980MOL0     H32275   9.516   7.128   2.702 -0.8146 -0.7998 -1.3361
  980MOL0     H32276   9.315   7.356   2.712 -0.3042  1.7309 -2.5537
  980MOL0     H32277   9.416   7.311   2.575 -1.4484  0.3030 -0.2539
  980MOL0     H32278   9.513   7.337   2.859 -4.6447 -1.1481 -0.0478
  980MOL0     H32279   9.613   7.339   2.711 -0.6156 -0.5045 -0.5684
  980MOL0     H32280   8.478   6.964   2.804 -3.4488  2.1571 -1.8924
  980MOL0     H32281   8.287   6.841   2.785  1.1041 -1.0599  1.4649
  980MOL0     H32282   7.894   6.485   2.750 -1.3499  1.2953  1.0059
  980MOL0     H32283   7.682   6.434   2.626 -0.0869  2.3568  0.9432
  980MOL0     H32284   8.365   6.071   0.725  0.5280 -1.6924 -1.3500
  980MOL0     H32285   8.306   5.939   0.534 -0.6827 -2.4893  0.2380
  980MOL0     H32286   8.003   5.855   0.210  0.9289 -0.7191 -2.1680
  980MOL0     H32287   7.934   5.741   0.014  0.2948  0.1277 -0.6171
  980MOL0     H32288   7.999   5.578  -0.140  0.2631 -0.0532 -2.2709
  980MOL0     H32289   7.829   5.642  -0.135  2.1293  1.9093  0.8402
  980MOL0     H32290   7.881   5.488  -0.342  1.4495 -3.6530 -1.5073
  980MOL0     H32291   7.734   5.426  -0.244 -0.7372  1.5323 -1.7994
  980MOL0     H32292   7.887   5.265  -0.140 -2.8484  1.0412  1.0904
  980MOL0     H32293   8.015   5.317  -0.259 -1.4916  1.5117 -3.2026
  980MOL0     H32294   7.817   5.276  -0.427  2.0130 -0.5879 -0.4372
  980MOL0     H32295   7.936   5.157  -0.367 -0.2164  0.3495 -2.3660
  980MOL0     H32296   7.576   5.025  -0.183 -0.7530  0.3004  0.7898
  980MOL0     H32297   7.824   5.397   0.231  0.2014 -1.3141 -0.1984
  980MOL0     H32298   7.859   5.377   0.449 -1.7409  1.0908 -1.1269
  980MOL0     H32299   7.987   5.470   0.537 -0.5345  0.7934  1.5381
  980MOL0     H32300   7.819   5.511   0.553 -0.1895  0.4130 -0.5354
  981MOL0     O32301   5.740   9.473   9.440  0.4859  0.3627  0.6924
  981MOL0     C32302   5.694   9.375   9.502 -0.0415 -0.6155  0.0387
  981MOL0     O32303   5.577   9.380   9.574  0.3394 -0.4118 -0.3077
  981MOL0     C32304   5.529   9.501   9.616 -0.6261  0.3956 -0.5758
  981MOL0     C32305   5.388   9.513   9.621 -0.5427  0.8102 -0.2644
  981MOL0     C32306   5.336   9.617   9.694  0.1360  0.0410 -0.4134
  981MOL0     C32307   5.414   9.731   9.735 -0.1727 -0.4993  0.5664
  981MOL0     O32308   5.352   9.835   9.791  0.1041 -1.2677  0.0168
  981MOL0     C32309   5.365   9.950   9.711 -0.1959 -0.0592 -0.7327
  981MOL0     C32310   5.294  10.071   9.768 -0.5861 -0.0313 -0.7124
  981MOL0     C32311   5.308  10.201   9.696 -0.8390 -0.2875  0.2751
  981MOL0     C32312   5.222  10.300   9.776  0.2796  1.0932 -0.4324
  981MOL0     C32313   5.209  10.434   9.714  0.6388 -0.6253  0.7547
  981MOL0     C32314   5.148  10.537   9.815  0.5262 -0.0992  0.0317
  981MOL0     C32315   5.168  10.675   9.775  0.5266 -0.5060  0.2415
  981MOL0     C32316   5.075  10.742   9.675 -0.9150 -0.1868 -0.4190
  981MOL0     N32317   5.126  10.874   9.647  0.0435  0.0403  0.3944
  981MOL0     C32318   5.170  10.976   9.731  0.0552  0.6759 -0.3022
  981MOL0     C32319   5.215  11.069   9.639  0.0207 -1.5372  0.6995
  981MOL0     C32320   5.274  11.211   9.669 -0.1688 -0.3850  0.8543
  981MOL0     C32321   5.420  11.232   9.625  0.1591 -0.3651 -0.0457
  981MOL0     C32322   5.445  11.386   9.634  0.3892 -0.2872 -0.3567
  981MOL0     C32323   5.390  11.464   9.762  0.1791 -0.0717  0.7964
  981MOL0     O32324   5.451  11.415   9.876  0.8343  0.1720  0.2843
  981MOL0     C32325   5.590  11.391   9.887 -0.9278 -0.3243 -0.1830
  981MOL0     C32326   5.701  11.479   9.845  1.0735 -0.6424 -0.5902
  981MOL0     C32327   5.830  11.444   9.856 -0.5567  0.6745  1.2745
  981MOL0     C32328   5.865  11.314   9.912  0.1011  0.4692 -0.6002
  981MOL0     C32329   6.003  11.270   9.911 -0.6548  0.2741 -0.9211
  981MOL0     O32330   6.035  11.139   9.916 -0.2563  0.6530  0.4619
  981MOL0     C32331   6.168  11.095   9.926  0.4668 -0.4971  0.2809
  981MOL0     C32332   6.209  11.008  10.021 -1.0704 -0.3115  0.3034
  981MOL0     C32333   6.345  10.992  10.050 -0.3367  0.5293  0.4905
  981MOL0     C32334   6.447  11.062   9.974  0.4901  0.1431 -0.2274
  981MOL0     O32335   6.571  11.028  10.019 -1.1102 -0.5904 -0.0406
  981MOL0     C32336   6.667  11.048   9.915  0.8176  0.3430 -0.2785
  981MOL0     C32337   6.806  11.026   9.993 -0.3760  0.6262 -0.4551
  981MOL0     C32338   6.926  11.027   9.898 -0.6844  0.0425 -0.4193
  981MOL0     C32339   7.060  11.021   9.966 -0.2219  0.1049 -0.4997
  981MOL0     C32340   7.177  11.010   9.873 -0.2023  0.5744  0.3215
  981MOL0     C32341   7.305  10.997   9.964  0.2999 -0.0476  0.4208
  981MOL0     C32342   7.435  11.015   9.876  0.2314  1.1675  0.0110
  981MOL0     C32343   7.557  11.073   9.957 -0.3407  0.3873  0.1056
  981MOL0    Cl32344   7.713  11.066   9.879 -0.1015  0.1673 -0.2778
  981MOL0     C32345   6.404  11.136   9.864 -0.4824 -0.2102 -0.0892
  981MOL0     C32346   6.266  11.153   9.838  0.1759  0.1448 -0.7193
  981MOL0     O32347   6.088  11.358   9.913  0.2788 -0.2334  0.2576
  981MOL0     C32348   5.765  11.230   9.959  0.3001  0.6026 -0.5091
  981MOL0     C32349   5.628  11.270   9.945  0.1822  0.3369  0.3303
  981MOL0     N32350   5.186  11.030   9.513  1.2275 -0.2776  0.4063
  981MOL0     N32351   5.131  10.914   9.510 -0.5216 -0.0582  0.2596
  981MOL0     C32352   5.552   9.714   9.730 -0.5705 -0.0831  0.1600
  981MOL0     C32353   5.608   9.600   9.676  0.7727  0.6470  0.2370
  981MOL0     C32354   5.770   9.246   9.497 -0.7353 -0.6151 -0.2997
  981MOL0     C32355   5.731   9.151   9.590 -0.7518 -0.2935 -0.8996
  981MOL0     C32356   5.788   9.024   9.600  0.1247  0.0536  0.1255
  981MOL0     C32357   5.878   8.985   9.494  0.0597 -0.6929 -0.2195
  981MOL0     O32358   5.939   8.865   9.475  0.1082  0.3662  0.3365
  981MOL0     C32359   5.919   8.762   9.567 -1.2374 -0.4556  0.5813
  981MOL0     C32360   6.046   8.672   9.548 -0.5178 -0.2713 -0.9069
  981MOL0     C32361   6.066   8.540   9.637  0.0595 -0.1764  0.2600
  981MOL0     C32362   5.935   8.462   9.660  0.7290 -1.1550  0.5154
  981MOL0     C32363   5.959   8.324   9.707  0.5588 -1.1023  0.3529
  981MOL0     C32364   5.999   8.216   9.751 -0.4198 -0.7553  0.0836
  981MOL0     C32365   5.917   9.083   9.404 -0.1208 -0.3100 -1.1219
  981MOL0     C32366   5.867   9.209   9.395  1.2139  0.0201 -0.3519
  981MOL0     C32367   5.909   9.290   9.285  0.0026 -0.3711  0.6588
  981MOL0     H32368   5.336   9.427   9.578  2.2621  0.1447 -2.6169
  981MOL0     H32369   5.232   9.602   9.720  0.5119  0.1796  1.2493
  981MOL0     H32370   5.469   9.981   9.699 -0.7653  1.3434 -2.7563
  981MOL0     H32371   5.326   9.929   9.611 -3.5715 -0.2203  0.4896
  981MOL0     H32372   5.338  10.084   9.868  0.8525 -2.1002 -1.0214
  981MOL0     H32373   5.191  10.034   9.774 -1.2909  1.8671 -0.1480
  981MOL0     H32374   5.267  10.184   9.596 -0.0340 -1.8142  0.1862
  981MOL0     H32375   5.413  10.233   9.696 -0.8064 -0.3370  1.4510
  981MOL0     H32376   5.126  10.249   9.788  0.5512 -0.3113 -3.4341
  981MOL0     H32377   5.265  10.315   9.875  0.2301  0.6084 -0.3356
  981MOL0     H32378   5.310  10.463   9.680  0.6083 -1.1663  0.1891
  981MOL0     H32379   5.145  10.421   9.627  1.8114  2.9668 -0.8574
  981MOL0     H32380   5.042  10.512   9.817  0.6117 -0.4430  0.5686
  981MOL0     H32381   5.199  10.530   9.912 -0.5276 -0.2308  0.5963
  981MOL0     H32382   5.270  10.701   9.745  0.8116 -0.5314  1.1505
  981MOL0     H32383   5.155  10.734   9.866  2.1758  0.3023 -0.0018
  981MOL0     H32384   5.074  10.681   9.583  1.4688 -0.5563 -0.2776
  981MOL0     H32385   4.971  10.736   9.707 -1.4297  0.3043 -1.9285
  981MOL0     H32386   5.159  10.966   9.838  0.7810 -1.5521 -0.3769
  981MOL0     H32387   5.207  11.274   9.610 -0.5339 -1.5275  0.0251
  981MOL0     H32388   5.258  11.229   9.776 -4.6109 -0.6855  0.4250
  981MOL0     H32389   5.497  11.177   9.681  2.4361  2.7110  0.1624
  981MOL0     H32390   5.428  11.191   9.524 -1.1099  0.5196 -0.5221
  981MOL0     H32391   5.401  11.432   9.544  1.1769  0.8251 -0.1950
  981MOL0     H32392   5.553  11.403   9.634  1.2885 -4.7943  0.3296
  981MOL0     H32393   5.284  11.470   9.787  0.0057  1.5687 -0.1666
  981MOL0     H32394   5.407  11.572   9.753 -0.8791  0.3378  3.0669
  981MOL0     H32395   5.676  11.576   9.805  1.4516 -0.2583  0.0873
  981MOL0     H32396   5.909  11.506   9.816 -2.1130  1.9246  0.0111
  981MOL0     H32397   6.142  10.948  10.081 -0.1861 -2.1364 -0.4641
  981MOL0     H32398   6.363  10.921  10.130  0.1440 -5.5814 -4.2337
  981MOL0     H32399   6.662  10.980   9.829  0.4002 -0.2733  0.2240
  981MOL0     H32400   6.667  11.150   9.875 -1.5190  0.5512  0.1526
  981MOL0     H32401   6.809  11.107  10.066 -0.6554 -0.4333  0.7811
  981MOL0     H32402   6.811  10.929  10.045  3.4835  0.2978 -1.1872
  981MOL0     H32403   6.919  10.943   9.828  0.8140 -0.1301 -0.3770
  981MOL0     H32404   6.908  11.121   9.844  0.3972  0.5375  0.0516
  981MOL0     H32405   7.049  10.938  10.036 -2.7467  0.7667 -0.0259
  981MOL0     H32406   7.063  11.119  10.015  0.1969  0.1084 -0.5229
  981MOL0     H32407   7.173  11.099   9.810  0.3075  0.2595 -0.1695
  981MOL0     H32408   7.175  10.918   9.813 -2.2371  0.5088  0.4146
  981MOL0     H32409   7.299  11.084  10.029 -1.2844 -1.2099  1.9354
  981MOL0     H32410   7.312  10.903  10.020  0.8823 -0.4841 -0.3524
  981MOL0     H32411   7.413  11.079   9.791 -1.0012 -1.7807 -2.0753
  981MOL0     H32412   7.462  10.917   9.835  1.5603  1.1246  0.9054
  981MOL0     H32413   7.527  11.173   9.989 -3.6790 -0.5808  0.3845
  981MOL0     H32414   7.566  11.010  10.046 -0.1223 -2.1395 -1.6230
  981MOL0     H32415   6.480  11.169   9.795 -0.5922  1.2109  0.4400
  981MOL0     H32416   6.255  11.211   9.747  1.8047  0.1741 -0.9334
  981MOL0     H32417   5.785  11.125   9.982 -1.3726 -0.0048 -1.6168
  981MOL0     H32418   5.546  11.206   9.978 -1.6053  2.2975 -0.0705
  981MOL0     H32419   5.613   9.782   9.788 -2.6463  1.3624  0.7463
  981MOL0     H32420   5.715   9.582   9.677  0.0960 -6.1772  2.3581
  981MOL0     H32421   5.665   9.174   9.673  2.9995  0.4039  2.2398
  981MOL0     H32422   5.757   8.958   9.680 -0.3158  1.5264  1.2099
  981MOL0     H32423   5.831   8.700   9.548 -0.5602 -0.2960 -4.1954
  981MOL0     H32424   5.919   8.796   9.671 -0.9512  1.4147 -0.0043
  981MOL0     H32425   6.128   8.738   9.576 -1.2154 -0.1673  1.0817
  981MOL0     H32426   6.072   8.650   9.444  3.8367  2.7773 -0.7069
  981MOL0     H32427   6.119   8.551   9.732  4.7651  0.4281 -2.1629
  981MOL0     H32428   6.133   8.487   9.569 -0.0059  2.1886 -1.7871
  981MOL0     H32429   5.888   8.523   9.738 -0.9221 -3.8523  1.7615
  981MOL0     H32430   5.868   8.461   9.574  0.0807  2.7437  0.7962
  981MOL0     H32431   6.044   8.126   9.789  1.8092  0.0496 -0.5102
  981MOL0     H32432   5.993   9.047   9.336  0.0854  0.0494 -1.0811
  981MOL0     H32433   5.824   9.287   9.216 -0.9123 -2.3302  1.7844
  981MOL0     H32434   5.911   9.394   9.318 -2.3470 -0.4163  1.1527
  981MOL0     H32435   5.999   9.260   9.231 -0.4757 -0.0561 -0.3504
  982MOL0     O32436   4.803   5.023   1.594  0.0205  0.1668  0.4544
  982MOL0     C32437   4.723   5.050   1.681  0.7022  0.0965 -0.6167
  982MOL0     O32438   4.743   5.012   1.810  0.4276  0.8600  0.6491
  982MOL0     C32439   4.872   5.010   1.861  0.3798  0.4400 -0.4633
  982MOL0     C32440   4.971   5.101   1.824 -0.3530 -0.5585  0.0390
  982MOL0     C32441   5.089   5.100   1.896 -0.1040 -0.1647  0.2185
  982MOL0     C32442   5.111   5.008   1.998 -0.3163 -0.0993  0.3473
  982MOL0     O32443   5.239   5.015   2.058  0.8605  0.0137  0.4500
  982MOL0     C32444   5.292   4.891   2.112 -0.0465 -0.4399  0.1388
  982MOL0     C32445   5.438   4.912   2.133 -0.2659 -0.1851 -0.2310
  982MOL0     C32446   5.490   4.821   2.247 -0.8993  0.7818 -0.2776
  982MOL0     C32447   5.638   4.867   2.280  0.5784 -0.0634 -0.6181
  982MOL0     C32448   5.708   4.777   2.385  0.2272 -0.0456 -0.0723
  982MOL0     C32449   5.850   4.836   2.411  0.0720  0.2694  0.0222
  982MOL0     C32450   5.926   4.761   2.535 -0.1764 -1.6931  0.1189
  982MOL0     C32451   5.890   4.818   2.671  0.4420  0.5611 -0.6768
  982MOL0     N32452   6.004   4.804   2.760  0.7283  0.0758 -0.6502
  982MOL0     C32453   6.009   4.716   2.867 -0.0604 -1.3242  0.4273
  982MOL0     C32454   6.105   4.766   2.946  0.0268 -1.0704 -0.1171
  982MOL0     C32455   6.147   4.691   3.073  0.0207  0.3996 -0.6638
  982MOL0     C32456   6.281   4.729   3.148  0.5665 -0.2529 -0.1454
  982MOL0     C32457   6.412   4.678   3.090  0.4442  0.1096  0.4377
  982MOL0     C32458   6.531   4.695   3.191  0.6942  0.1677  0.7179
  982MOL0     O32459   6.509   4.631   3.318  0.1048  0.2258  0.3733
  982MOL0     C32460   6.607   4.602   3.409  1.3024  1.4943 -1.1500
  982MOL0     C32461   6.745   4.605   3.380  1.1030 -0.1999 -0.2582
  982MOL0     C32462   6.844   4.562   3.471  0.1864  0.5269  0.3456
  982MOL0     C32463   6.801   4.524   3.600 -0.5894  0.0459  0.8853
  982MOL0     C32464   6.916   4.524   3.688 -1.0214  0.3081 -0.2403
  982MOL0     O32465   7.040   4.575   3.647  0.5422 -0.0730  0.6704
  982MOL0     C32466   7.162   4.523   3.695 -0.4475 -0.2996 -0.2577
  982MOL0     C32467   7.271   4.594   3.665 -0.8041 -0.7622 -0.6137
  982MOL0     C32468   7.405   4.554   3.692 -0.5478  0.4232 -0.0218
  982MOL0     C32469   7.438   4.423   3.743 -0.6004 -0.8340 -0.7201
  982MOL0     O32470   7.569   4.378   3.766 -0.1026 -0.2237  0.5271
  982MOL0     C32471   7.674   4.465   3.798 -0.1426 -0.1241 -0.1078
  982MOL0     C32472   7.750   4.404   3.925 -0.2143 -0.5087  1.1927
  982MOL0     C32473   7.855   4.501   3.987  0.7871  0.6062  0.9282
  982MOL0     C32474   7.788   4.612   4.073  0.2535 -0.3954  0.1640
  982MOL0     C32475   7.905   4.689   4.144  0.8605  0.8549  0.2821
  982MOL0     C32476   7.851   4.817   4.197 -0.3428 -0.0379  0.6601
  982MOL0     C32477   7.969   4.891   4.270 -0.0048 -0.0836 -0.8992
  982MOL0     C32478   7.931   4.956   4.408  0.0317  0.1661  1.3880
  982MOL0    Cl32479   7.820   4.864   4.519 -0.1468 -0.2279  0.2713
  982MOL0     C32480   7.323   4.343   3.764  1.0601 -0.4250 -0.6411
  982MOL0     C32481   7.199   4.395   3.744 -0.3906 -0.3838  0.5096
  982MOL0     O32482   6.896   4.457   3.792  0.3750 -0.2687  0.2593
  982MOL0     C32483   6.665   4.518   3.630 -0.0606  0.6413  0.0744
  982MOL0     C32484   6.571   4.569   3.543  0.4826  0.0606  0.8763
  982MOL0     N32485   6.170   4.868   2.885  0.8091 -0.2418 -0.1835
  982MOL0     N32486   6.112   4.894   2.776  0.7768 -0.1778  0.2553
  982MOL0     C32487   5.018   4.921   2.030 -0.3469  0.4877 -0.0448
  982MOL0     C32488   4.892   4.922   1.967  0.1923 -0.4322  0.5224
  982MOL0     C32489   4.588   5.094   1.650 -0.9274 -0.5769 -0.9346
  982MOL0     C32490   4.479   5.025   1.713 -0.2247  0.8724  1.1539
  982MOL0     C32491   4.352   5.055   1.667  0.5498 -0.1773 -0.1184
  982MOL0     C32492   4.322   5.161   1.589  0.1156  0.3894  0.6800
  982MOL0     O32493   4.189   5.183   1.556  0.0726  0.1415 -0.4020
  982MOL0     C32494   4.168   5.298   1.466  1.0707 -0.4716  0.1760
  982MOL0     C32495   4.020   5.300   1.445 -0.2773  0.9952  0.2554
  982MOL0     C32496   3.972   5.177   1.355  0.4414  0.2892  0.0938
  982MOL0     C32497   3.825   5.172   1.307 -1.1057  0.3814 -0.2751
  982MOL0     C32498   3.837   5.074   1.199 -0.2924 -0.6169  0.7044
  982MOL0     C32499   3.845   5.000   1.103 -0.2028 -0.6033 -0.3418
  982MOL0     C32500   4.427   5.230   1.528 -0.2004  0.5263  0.2332
  982MOL0     C32501   4.556   5.202   1.565  0.3132 -0.1662  0.1462
  982MOL0     C32502   4.660   5.305   1.512 -0.0923  0.3119 -0.0724
  982MOL0     H32503   4.939   5.169   1.746  0.1276 -1.7674 -1.2524
  982MOL0     H32504   5.165   5.170   1.863 -2.7431  3.0785  0.5648
  982MOL0     H32505   5.247   4.874   2.210 -0.9555  0.8748 -0.0192
  982MOL0     H32506   5.283   4.808   2.042 -0.8446  0.2944 -0.6562
  982MOL0     H32507   5.444   5.017   2.160 -1.8987  0.3881 -1.8856
  982MOL0     H32508   5.506   4.886   2.050 -0.5781  1.1788 -0.9383
  982MOL0     H32509   5.498   4.714   2.226  2.6550  0.7180  0.7044
  982MOL0     H32510   5.428   4.843   2.334 -0.7362 -2.3878  0.7649
  982MOL0     H32511   5.690   4.859   2.184 -0.5231  2.7335 -1.5728
  982MOL0     H32512   5.642   4.971   2.315  1.3387 -0.0763 -0.6471
  982MOL0     H32513   5.656   4.780   2.481  0.7876  2.7274  0.2194
  982MOL0     H32514   5.718   4.677   2.341 -0.5559  0.2743 -1.0054
  982MOL0     H32515   5.909   4.845   2.319  0.9931  2.0341  0.7380
  982MOL0     H32516   5.822   4.939   2.436 -1.2174 -0.1577  0.4304
  982MOL0     H32517   6.028   4.796   2.519 -1.1361  2.3807  1.6283
  982MOL0     H32518   5.923   4.652   2.527  0.6242 -2.0804  3.6012
  982MOL0     H32519   5.856   4.922   2.668 -0.2641  0.4312  1.3460
  982MOL0     H32520   5.812   4.757   2.716  1.9062 -0.0411  1.2078
  982MOL0     H32521   5.941   4.633   2.885 -0.1909 -0.9372  1.8640
  982MOL0     H32522   6.065   4.708   3.143 -1.0819  2.6641 -2.3298
  982MOL0     H32523   6.138   4.583   3.058 -0.3230 -0.0446  2.2838
  982MOL0     H32524   6.280   4.839   3.148 -1.0285 -0.2321 -0.8935
  982MOL0     H32525   6.263   4.701   3.252 -2.9466  3.8395  0.6793
  982MOL0     H32526   6.433   4.734   2.998 -2.1161 -0.2067 -0.4238
  982MOL0     H32527   6.409   4.572   3.063  1.9075 -0.2353  1.4967
  982MOL0     H32528   6.546   4.802   3.204 -1.7465  0.5746  0.6747
  982MOL0     H32529   6.614   4.644   3.140 -0.6781 -1.7328  0.2350
  982MOL0     H32530   6.768   4.643   3.281 -1.6905 -0.3667 -1.0659
  982MOL0     H32531   6.946   4.572   3.435  0.0461  1.9327  0.2953
  982MOL0     H32532   7.249   4.686   3.612 -3.6439 -1.1367 -0.2467
  982MOL0     H32533   7.488   4.617   3.663  2.0404 -2.8125 -0.2644
  982MOL0     H32534   7.739   4.482   3.711 -0.7552  1.4157 -0.2804
  982MOL0     H32535   7.634   4.559   3.836  3.2006  1.7643 -0.8453
  982MOL0     H32536   7.672   4.382   3.999 -0.6466  0.6325  1.0945
  982MOL0     H32537   7.806   4.312   3.907 -0.5476 -0.2980 -1.1550
  982MOL0     H32538   7.930   4.453   4.049 -0.5584 -1.9991  0.6867
  982MOL0     H32539   7.911   4.556   3.910  0.2553 -0.2965 -0.1442
  982MOL0     H32540   7.724   4.568   4.149 -1.0732 -1.7520 -1.6386
  982MOL0     H32541   7.723   4.674   4.011 -0.2610 -0.9058  0.1774
  982MOL0     H32542   7.990   4.707   4.077  1.3581 -1.3431  0.2518
  982MOL0     H32543   7.945   4.634   4.230 -0.5930 -0.3022  0.2437
  982MOL0     H32544   7.819   4.892   4.124 -1.7633 -1.8111 -0.6075
  982MOL0     H32545   7.756   4.794   4.246 -0.8728 -1.0877 -0.8282
  982MOL0     H32546   8.005   4.959   4.192 -0.6296 -1.2858 -2.2846
  982MOL0     H32547   8.059   4.829   4.275  0.0184 -0.0856 -1.3306
  982MOL0     H32548   8.018   5.000   4.457  0.6605  2.5234 -1.5485
  982MOL0     H32549   7.877   5.050   4.390 -0.4704 -0.1550  1.1966
  982MOL0     H32550   7.346   4.238   3.779  4.1729  0.4286  1.5950
  982MOL0     H32551   7.120   4.321   3.747  1.6851 -2.7510  2.7007
  982MOL0     H32552   6.628   4.471   3.721 -1.1354  1.0853 -0.1170
  982MOL0     H32553   6.467   4.561   3.573  0.0880  0.7485 -0.2669
  982MOL0     H32554   5.046   4.860   2.115  0.7445  2.9234  1.4740
  982MOL0     H32555   4.822   4.843   1.993  0.3431 -0.8946 -0.4357
  982MOL0     H32556   4.498   4.941   1.779  0.9286 -2.7801 -3.3084
  982MOL0     H32557   4.269   5.000   1.709 -0.3621  1.1457 -0.1230
  982MOL0     H32558   4.219   5.279   1.371 -0.0441  0.8479 -0.7290
  982MOL0     H32559   4.203   5.393   1.509  0.6950  0.4857 -1.5369
  982MOL0     H32560   3.996   5.393   1.393  0.1197 -0.6673 -3.2360
  982MOL0     H32561   3.958   5.306   1.535  0.3224  2.1237  0.6060
  982MOL0     H32562   3.989   5.088   1.416  0.0418 -1.8482 -2.7065
  982MOL0     H32563   4.037   5.170   1.268  0.4662 -2.3347  0.2392
  982MOL0     H32564   3.756   5.133   1.382 -1.2982  1.7893  0.3223
  982MOL0     H32565   3.780   5.266   1.273  1.4114  0.6663 -3.3086
  982MOL0     H32566   3.855   4.940   1.015 -0.6800  2.0292 -2.3100
  982MOL0     H32567   4.412   5.320   1.469  1.8200  1.0076  0.3872
  982MOL0     H32568   4.709   5.276   1.419 -2.6181 -3.5493 -0.4012
  982MOL0     H32569   4.614   5.398   1.477 -0.0104  1.1912  2.0082
  982MOL0     H32570   4.726   5.329   1.596 -1.0344  0.3922  0.6619
  983MOL0     O32571   4.302   0.212   8.835 -0.0384 -0.4407 -0.6577
  983MOL0     C32572   4.387   0.302   8.821  0.6746 -0.1412  0.5782
  983MOL0     O32573   4.516   0.290   8.861 -0.4583  0.2143 -0.2113
  983MOL0     C32574   4.544   0.177   8.935 -0.4499  0.1826 -0.2820
  983MOL0     C32575   4.489   0.134   9.057  0.2320  0.5962 -0.2158
  983MOL0     C32576   4.536   0.022   9.110  0.1627 -0.1998 -0.7921
  983MOL0     C32577   4.630  -0.062   9.040  0.6544  0.4557  0.1022
  983MOL0     O32578   4.693  -0.179   9.075  0.3809 -0.3124 -0.4983
  983MOL0     C32579   4.710  -0.226   9.213 -0.4140  0.2787  0.2204
  983MOL0     C32580   4.794  -0.359   9.202  0.9040 -1.0729  0.4875
  983MOL0     C32581   4.827  -0.414   9.345 -0.6587 -0.4591  0.0514
  983MOL0     C32582   4.703  -0.471   9.419 -0.9362  0.2701 -0.0013
  983MOL0     C32583   4.738  -0.517   9.557  0.2195 -0.3571 -0.8130
  983MOL0     C32584   4.737  -0.399   9.656  0.4881 -0.6429 -0.6935
  983MOL0     C32585   4.791  -0.443   9.791 -0.3891  0.0437 -0.5920
  983MOL0     C32586   4.781  -0.313   9.868 -0.8320  0.5903 -0.8924
  983MOL0     N32587   4.802  -0.334  10.010  0.4142  0.1344  0.1524
  983MOL0     C32588   4.709  -0.381  10.102 -0.5734 -0.6697 -0.3219
  983MOL0     C32589   4.767  -0.358  10.221 -0.2181  0.1991 -0.0398
  983MOL0     C32590   4.745  -0.418  10.361  0.0158 -0.6935 -0.0330
  983MOL0     C32591   4.596  -0.405  10.395  0.6279 -1.3566  0.6997
  983MOL0     C32592   4.561  -0.260  10.407  0.4956  0.1419 -0.6467
  983MOL0     C32593   4.426  -0.242  10.473  0.5021 -0.5136  0.2730
  983MOL0     O32594   4.313  -0.306  10.404 -0.1840 -0.2532 -0.7926
  983MOL0     C32595   4.262  -0.229  10.306 -0.6869 -0.3577  0.3361
  983MOL0     C32596   4.219  -0.095  10.318 -0.2836  0.8053  0.5890
  983MOL0     C32597   4.156  -0.031  10.205 -0.2041 -0.2490 -0.4935
  983MOL0     C32598   4.131  -0.095  10.079 -1.0113  0.1473 -0.6896
  983MOL0     C32599   4.071  -0.024   9.961 -0.1534  0.6091  0.3365
  983MOL0     O32600   4.032   0.100   9.991 -0.0130 -0.2939 -0.5840
  983MOL0     C32601   3.971   0.180   9.896  0.1705 -0.1691 -0.7534
  983MOL0     C32602   4.053   0.275   9.839  0.1522 -0.4766  0.4569
  983MOL0     C32603   4.000   0.363   9.754  0.3422 -0.2743  0.1523
  983MOL0     C32604   3.858   0.341   9.708 -0.1503  0.3491 -0.1524
  983MOL0     O32605   3.816   0.415   9.599  0.5535 -0.3725 -0.8492
  983MOL0     C32606   3.671   0.451   9.578  0.2297  0.7431 -0.3126
  983MOL0     C32607   3.629   0.441   9.435  0.1073  0.3377 -0.0414
  983MOL0     C32608   3.493   0.509   9.400  0.8714  0.2928  0.3948
  983MOL0     C32609   3.375   0.440   9.467  0.8960  0.1267  0.1201
  983MOL0     C32610   3.259   0.531   9.488 -0.1683  0.1020 -0.1166
  983MOL0     C32611   3.188   0.572   9.361 -0.3689 -0.6867 -0.5295
  983MOL0     C32612   3.036   0.606   9.382  0.0829 -0.0632  0.1831
  983MOL0     C32613   2.950   0.487   9.361  0.2747 -0.6287 -0.1502
  983MOL0    Cl32614   2.785   0.539   9.415  0.0540 -0.1408  0.2075
  983MOL0     C32615   3.789   0.242   9.766  0.7953 -0.5452 -0.5304
  983MOL0     C32616   3.847   0.158   9.854 -0.5668  0.1668 -0.5551
  983MOL0     O32617   4.040  -0.090   9.869 -0.0846 -0.9152  0.6603
  983MOL0     C32618   4.167  -0.236  10.075  0.1006 -0.7614 -0.5018
  983MOL0     C32619   4.227  -0.291  10.186 -0.6283 -0.1514 -0.2056
  983MOL0     N32620   4.879  -0.278  10.194 -0.2455  0.3988  0.0815
  983MOL0     N32621   4.906  -0.274  10.074  0.1764 -0.8682  1.3275
  983MOL0     C32622   4.657  -0.027   8.915  0.0498  0.7498 -0.0475
  983MOL0     C32623   4.625   0.092   8.860 -0.0017  0.5400  0.8007
  983MOL0     C32624   4.340   0.419   8.735 -0.2201 -0.6692  0.0093
  983MOL0     C32625   4.432   0.526   8.735 -0.7439 -0.2864 -0.3354
  983MOL0     C32626   4.412   0.633   8.658  0.0477 -0.2125  0.5259
  983MOL0     C32627   4.298   0.645   8.575 -0.2861 -0.0590  0.4476
  983MOL0     O32628   4.287   0.752   8.491 -0.6879  0.1937 -0.7482
  983MOL0     C32629   4.350   0.878   8.533 -0.1571 -0.0280 -0.2519
  983MOL0     C32630   4.298   0.937   8.658  2.1748  0.1513 -0.8403
  983MOL0     C32631   4.143   0.955   8.652  0.1250 -0.4444 -0.7524
  983MOL0     C32632   4.101   1.006   8.786 -1.1081  0.1628  0.2039
  983MOL0     C32633   4.151   1.135   8.815 -0.6264 -0.9634  0.4561
  983MOL0     C32634   4.194   1.252   8.834 -0.9043  0.1893  0.4396
  983MOL0     C32635   4.205   0.546   8.581 -0.8748  0.0918  0.3914
  983MOL0     C32636   4.223   0.436   8.659 -0.2486  0.2903 -0.2745
  983MOL0     C32637   4.124   0.320   8.631  0.2959 -0.0431  0.6976
  983MOL0     H32638   4.419   0.203   9.103 -0.6459 -1.4021  1.5742
  983MOL0     H32639   4.501  -0.012   9.207  1.4172 -2.8095 -1.1852
  983MOL0     H32640   4.756  -0.153   9.280  0.8554  0.1296 -0.4591
  983MOL0     H32641   4.614  -0.257   9.256 -0.3458 -0.5172 -0.1797
  983MOL0     H32642   4.882  -0.333   9.142 -0.2011  1.5571 -0.1518
  983MOL0     H32643   4.751  -0.439   9.142 -0.5449 -0.2244  0.3421
  983MOL0     H32644   4.863  -0.333   9.410 -3.3278  1.1060 -0.2641
  983MOL0     H32645   4.912  -0.482   9.333  0.8121  1.5630 -1.8714
  983MOL0     H32646   4.629  -0.391   9.430  0.7479  1.7151  1.4742
  983MOL0     H32647   4.659  -0.559   9.371 -0.4784 -1.7643  3.0229
  983MOL0     H32648   4.668  -0.595   9.587 -1.7524  2.5689  3.0721
  983MOL0     H32649   4.833  -0.571   9.558 -0.6207 -1.9262  0.7783
  983MOL0     H32650   4.786  -0.305   9.626  1.1328  0.3134  2.8851
  983MOL0     H32651   4.637  -0.357   9.673  0.7451  1.6478 -3.9143
  983MOL0     H32652   4.891  -0.484   9.776 -0.7831 -0.8695 -0.8121
  983MOL0     H32653   4.734  -0.523   9.840  0.9100  0.5537  1.9214
  983MOL0     H32654   4.867  -0.250   9.841 -0.4607  1.3444  1.7434
  983MOL0     H32655   4.683  -0.265   9.859 -0.6287  1.5152  1.2466
  983MOL0     H32656   4.616  -0.436  10.091 -1.3633  0.3379  0.9735
  983MOL0     H32657   4.784  -0.520  10.355  2.9462  0.3855 -1.1535
  983MOL0     H32658   4.797  -0.367  10.443 -3.8745  0.6160  1.8234
  983MOL0     H32659   4.542  -0.461  10.318  0.2731 -1.7195  1.1969
  983MOL0     H32660   4.567  -0.455  10.488 -1.3555  0.3593  1.0739
  983MOL0     H32661   4.542  -0.209  10.312  1.7944  0.7024 -0.6208
  983MOL0     H32662   4.635  -0.211  10.470 -1.2276  0.5459  1.1359
  983MOL0     H32663   4.409  -0.135  10.479  2.1489 -0.1129 -1.1725
  983MOL0     H32664   4.437  -0.275  10.577  1.2814 -2.0258 -0.2479
  983MOL0     H32665   4.243  -0.044  10.411  0.7415  0.8809  0.2967
  983MOL0     H32666   4.122   0.071  10.215  2.2147  0.4024  2.8015
  983MOL0     H32667   4.152   0.287   9.882  1.6626  0.7795 -3.0407
  983MOL0     H32668   4.055   0.448   9.715  0.9914 -1.2712 -1.2232
  983MOL0     H32669   3.613   0.385   9.643 -1.3636  1.2851 -1.1507
  983MOL0     H32670   3.658   0.556   9.605  2.3770  0.4765  2.2432
  983MOL0     H32671   3.703   0.476   9.363  0.6285  0.1323  0.3928
  983MOL0     H32672   3.617   0.336   9.407 -1.0309  0.5291 -0.3474
  983MOL0     H32673   3.513   0.612   9.433  1.7496  0.5431 -0.8330
  983MOL0     H32674   3.484   0.512   9.291  1.0582  5.1022  0.2706
  983MOL0     H32675   3.402   0.398   9.564  0.2773 -2.6410 -0.8348
  983MOL0     H32676   3.345   0.353   9.410  1.8621 -1.3152  1.7140
  983MOL0     H32677   3.296   0.619   9.541  1.2001 -0.0599 -0.7405
  983MOL0     H32678   3.187   0.475   9.548 -0.2655 -0.3303 -0.6300
  983MOL0     H32679   3.253   0.652   9.323  1.9607 -2.9639 -1.5928
  983MOL0     H32680   3.196   0.501   9.278 -1.4295 -0.5582 -0.7488
  983MOL0     H32681   3.021   0.674   9.298 -1.0833 -0.1732  0.2846
  983MOL0     H32682   3.012   0.657   9.476 -0.9515 -1.1424  0.5289
  983MOL0     H32683   2.955   0.448   9.259  1.4586 -2.1886  0.4724
  983MOL0     H32684   2.980   0.404   9.424 -0.4741 -1.6663 -1.1034
  983MOL0     H32685   3.694   0.205   9.728 -0.5584  0.6178  1.5426
  983MOL0     H32686   3.791   0.078   9.900  0.9667  1.3527  3.8554
  983MOL0     H32687   4.157  -0.297   9.986  1.2748 -0.5293 -0.8050
  983MOL0     H32688   4.254  -0.394  10.162 -1.3567  0.5456 -5.2299
  983MOL0     H32689   4.723  -0.082   8.849 -0.2008 -0.1559  0.4432
  983MOL0     H32690   4.662   0.113   8.760 -0.8255 -0.7381  0.1965
  983MOL0     H32691   4.528   0.521   8.786 -0.4476 -2.8867 -1.0265
  983MOL0     H32692   4.500   0.696   8.657  0.0654 -0.2372 -0.5070
  983MOL0     H32693   4.331   0.952   8.454  1.8396 -0.6084 -1.3418
  983MOL0     H32694   4.456   0.866   8.556 -0.0450  1.4889  0.1867
  983MOL0     H32695   4.356   1.020   8.700  1.0565 -0.3338  1.8602
  983MOL0     H32696   4.319   0.867   8.739  3.0848  0.4626 -0.7948
  983MOL0     H32697   4.091   0.861   8.632  1.4180 -2.0496  2.6419
  983MOL0     H32698   4.120   1.026   8.572  1.4579 -0.1559 -0.9024
  983MOL0     H32699   3.992   1.005   8.796 -1.2454 -4.3991  0.2308
  983MOL0     H32700   4.129   0.943   8.871 -0.4588 -2.2689 -1.7293
  983MOL0     H32701   4.232   1.350   8.856  0.7051 -0.5607  1.1431
  983MOL0     H32702   4.118   0.559   8.518 -1.1630  2.4925  1.1808
  983MOL0     H32703   4.172   0.228   8.595 -1.1668 -1.0009  1.1433
  983MOL0     H32704   4.066   0.297   8.720 -2.4175  2.8350 -0.1640
  983MOL0     H32705   4.063   0.348   8.544  2.7237  3.3560 -0.1228
  984MOL0     O32706   0.465   4.689   5.273  0.0151  0.6559 -0.3754
  984MOL0     C32707   0.441   4.646   5.385 -0.0604  0.3983  0.5531
  984MOL0     O32708   0.423   4.515   5.422  0.4830 -0.3972 -0.2772
  984MOL0     C32709   0.485   4.414   5.362 -0.0947 -0.4093  0.3436
  984MOL0     C32710   0.591   4.434   5.270  0.8219 -0.0380  0.4802
  984MOL0     C32711   0.651   4.322   5.203  0.3642  0.1239  0.1742
  984MOL0     C32712   0.605   4.194   5.221  0.6388  0.3614  0.1357
  984MOL0     O32713   0.656   4.084   5.158 -0.2415 -0.0268  0.4695
  984MOL0     C32714   0.787   4.086   5.102 -1.0620 -0.0317  0.1644
  984MOL0     C32715   0.809   3.961   5.022  0.1774 -0.5405  0.4458
  984MOL0     C32716   0.804   3.839   5.103  0.4581  0.3559  0.2301
  984MOL0     C32717   0.839   3.722   5.016 -0.8625 -1.0095  0.2532
  984MOL0     C32718   0.875   3.605   5.109 -0.0516 -0.4137 -0.0479
  984MOL0     C32719   0.940   3.495   5.023  0.0565 -0.5004  0.1603
  984MOL0     C32720   1.064   3.424   5.072  0.0146  0.2276 -0.4727
  984MOL0     C32721   1.190   3.496   5.026  0.4351  0.2198  0.1561
  984MOL0     N32722   1.208   3.624   5.094  0.0057  0.3598 -0.0935
  984MOL0     C32723   1.224   3.652   5.230  0.2571  0.6815  0.4269
  984MOL0     C32724   1.235   3.787   5.244  0.0279  0.8265 -0.3530
  984MOL0     C32725   1.259   3.864   5.370  0.7904 -0.6083  0.6657
  984MOL0     C32726   1.128   3.927   5.424 -0.3661 -0.8630 -0.1457
  984MOL0     C32727   1.011   3.837   5.447 -0.2450 -0.5886  0.6193
  984MOL0     C32728   0.886   3.901   5.500 -0.8979 -0.0420  0.9332
  984MOL0     O32729   0.907   3.933   5.642 -0.1830 -0.4574  0.1584
  984MOL0     C32730   0.812   4.013   5.709 -0.3564 -0.2614  0.2473
  984MOL0     C32731   0.848   4.101   5.810  0.2077 -0.8248 -0.1314
  984MOL0     C32732   0.770   4.194   5.873  0.3588 -0.3848 -0.2197
  984MOL0     C32733   0.639   4.210   5.839  0.0048  0.2233 -0.7246
  984MOL0     C32734   0.556   4.315   5.894 -0.0390 -0.1277 -1.3480
  984MOL0     O32735   0.607   4.402   5.998 -0.4286  0.1154  0.4198
  984MOL0     C32736   0.549   4.530   6.021 -0.4459  0.9749 -0.3942
  984MOL0     C32737   0.511   4.617   5.918  0.7259  0.4624 -0.6740
  984MOL0     C32738   0.501   4.749   5.946  0.6008  0.2884  0.2707
  984MOL0     C32739   0.507   4.795   6.079  0.2501  0.1861  0.8963
  984MOL0     O32740   0.492   4.929   6.115 -0.0969  0.4568  0.2000
  984MOL0     C32741   0.422   5.020   6.027 -0.8726 -0.0688  0.2702
  984MOL0     C32742   0.418   5.150   6.103 -0.0167 -0.7259  0.3743
  984MOL0     C32743   0.314   5.138   6.221  0.2533  0.8818  0.6672
  984MOL0     C32744   0.361   5.054   6.335  0.5816  0.1528  1.2269
  984MOL0     C32745   0.306   5.099   6.465  0.0650 -0.1916 -0.1757
  984MOL0     C32746   0.351   5.232   6.528 -0.5742  0.1079  0.2743
  984MOL0     C32747   0.320   5.220   6.679 -0.1424 -0.1858 -0.0779
  984MOL0     C32748   0.362   5.356   6.739 -1.0134 -0.7934 -0.0029
  984MOL0    Cl32749   0.312   5.375   6.914 -0.2787  0.0981 -0.2573
  984MOL0     C32750   0.536   4.706   6.180  0.0640  0.3241 -0.0858
  984MOL0     C32751   0.568   4.580   6.150  0.0570 -0.4597  0.2356
  984MOL0     O32752   0.444   4.331   5.848 -0.5616  0.4377  0.0758
  984MOL0     C32753   0.602   4.128   5.727  0.9509 -0.2719 -1.2855
  984MOL0     C32754   0.685   4.035   5.663 -0.1242 -0.3540 -0.2430
  984MOL0     N32755   1.213   3.836   5.109  1.1066 -0.6677 -1.1674
  984MOL0     N32756   1.188   3.743   5.032 -0.4357  0.2337  0.1226
  984MOL0     C32757   0.498   4.179   5.306  0.2714  0.2278  0.2360
  984MOL0     C32758   0.444   4.284   5.375  0.1194  1.0251  0.2181
  984MOL0     C32759   0.411   4.756   5.474  0.7741 -0.2097  0.1099
  984MOL0     C32760   0.486   4.879   5.455  0.1365 -0.8698  0.0175
  984MOL0     C32761   0.452   4.994   5.528 -0.5899 -0.1430  0.0782
  984MOL0     C32762   0.355   4.986   5.624  0.3117  0.8306  0.4332
  984MOL0     O32763   0.292   5.093   5.691  0.4246  0.2860  0.4768
  984MOL0     C32764   0.337   5.230   5.659 -1.1449 -1.1671 -0.3478
  984MOL0     C32765   0.275   5.324   5.753 -0.2805 -0.0593 -0.6567
  984MOL0     C32766   0.129   5.338   5.723  0.3888  0.0226 -0.7067
  984MOL0     C32767   0.055   5.439   5.819 -0.3420  0.2931  0.7381
  984MOL0     C32768   0.072   5.568   5.753 -0.1059  0.5068 -0.3997
  984MOL0     C32769   0.091   5.674   5.701  0.4734  0.4670 -0.4817
  984MOL0     C32770   0.297   4.863   5.646  0.1049 -0.1599 -0.7003
  984MOL0     C32771   0.323   4.755   5.578  0.1936  0.5113  0.2482
  984MOL0     C32772   0.244   4.629   5.624 -0.1868 -0.1292  1.1939
  984MOL0     H32773   0.639   4.531   5.263 -0.9077  1.0590  2.7125
  984MOL0     H32774   0.751   4.335   5.162  1.0440 -0.0476  1.7334
  984MOL0     H32775   0.795   4.158   5.019 -1.3127 -0.8906 -0.6270
  984MOL0     H32776   0.868   4.100   5.174  1.2584 -1.3665 -2.0180
  984MOL0     H32777   0.908   3.975   4.978  0.9112 -1.0899  1.8450
  984MOL0     H32778   0.742   3.953   4.936  1.3639  0.0474 -0.5648
  984MOL0     H32779   0.702   3.827   5.140  1.0085 -2.6468  1.0919
  984MOL0     H32780   0.878   3.854   5.183  2.3588 -0.7601 -1.2341
  984MOL0     H32781   0.777   3.708   4.927 -0.6769  1.2947 -0.3030
  984MOL0     H32782   0.933   3.759   4.973 -1.9107  1.3028 -0.2455
  984MOL0     H32783   0.954   3.632   5.179  4.7457 -1.0341 -4.6253
  984MOL0     H32784   0.795   3.547   5.156 -0.8468  1.4985  1.1054
  984MOL0     H32785   0.868   3.415   5.003  2.0889 -2.6255  0.8497
  984MOL0     H32786   0.968   3.525   4.922 -3.1469  1.6234 -0.2138
  984MOL0     H32787   1.082   3.330   5.019 -0.4287  2.0349 -4.1373
  984MOL0     H32788   1.056   3.401   5.179 -0.4084  0.7815 -0.3842
  984MOL0     H32789   1.273   3.428   5.049 -0.5483 -1.5890 -1.3515
  984MOL0     H32790   1.193   3.516   4.918 -1.2351  1.8868  0.3574
  984MOL0     H32791   1.233   3.584   5.313 -0.2250  0.8991  0.6624
  984MOL0     H32792   1.295   3.799   5.451 -1.1935 -0.0531  2.0814
  984MOL0     H32793   1.336   3.937   5.345  1.3060 -0.4362  2.6016
  984MOL0     H32794   1.156   3.961   5.523 -0.8163 -0.3719 -0.1808
  984MOL0     H32795   1.097   4.013   5.364 -0.7359 -0.6710  0.3103
  984MOL0     H32796   1.044   3.763   5.520  1.4872 -0.6824 -0.2051
  984MOL0     H32797   0.988   3.783   5.354  0.9308  1.8402 -1.2104
  984MOL0     H32798   0.805   3.829   5.485 -1.3906  0.5464  0.6989
  984MOL0     H32799   0.870   3.991   5.440  1.1719 -1.2721 -1.6731
  984MOL0     H32800   0.939   4.080   5.866 -0.7125 -0.8879  1.3739
  984MOL0     H32801   0.818   4.239   5.959  1.8889 -3.2629  0.5662
  984MOL0     H32802   0.494   4.583   5.817  0.7681 -1.1033 -0.1895
  984MOL0     H32803   0.479   4.821   5.868  1.6032  1.0514  0.6693
  984MOL0     H32804   0.478   5.030   5.933 -0.8103  1.3573  0.4386
  984MOL0     H32805   0.324   4.980   6.000 -0.6002  1.0185 -2.7300
  984MOL0     H32806   0.513   5.182   6.146 -1.1423  1.7983  1.2065
  984MOL0     H32807   0.396   5.238   6.042 -0.3286  0.9511  2.7550
  984MOL0     H32808   0.282   5.233   6.265 -1.1088  0.2913  1.0092
  984MOL0     H32809   0.222   5.098   6.177  1.5616 -1.2495 -0.2918
  984MOL0     H32810   0.470   5.062   6.325  0.4235  0.8996 -0.1877
  984MOL0     H32811   0.336   4.949   6.319  2.7823 -0.0650 -1.8830
  984MOL0     H32812   0.338   5.025   6.539  1.0200  1.9807  1.6728
  984MOL0     H32813   0.197   5.106   6.460  0.1186  0.2475 -1.0044
  984MOL0     H32814   0.459   5.245   6.518 -0.1298 -1.9014  1.7238
  984MOL0     H32815   0.297   5.315   6.482 -0.0909 -0.4526 -1.4034
  984MOL0     H32816   0.360   5.132   6.729 -0.4165 -0.2688  0.0018
  984MOL0     H32817   0.210   5.217   6.680 -0.2937  2.2623 -1.3131
  984MOL0     H32818   0.470   5.368   6.729 -1.2854  1.9406 -0.3039
  984MOL0     H32819   0.328   5.436   6.673  2.1365  0.6133 -0.0865
  984MOL0     H32820   0.558   4.748   6.278 -0.1638  1.7036 -0.6029
  984MOL0     H32821   0.597   4.518   6.234  0.9159  2.1423  1.9861
  984MOL0     H32822   0.501   4.136   5.688  1.0052  4.0371 -1.0129
  984MOL0     H32823   0.656   3.982   5.573 -0.9936 -0.0097 -0.1769
  984MOL0     H32824   0.462   4.077   5.316  2.1147 -0.8874 -2.9816
  984MOL0     H32825   0.361   4.263   5.442  0.8249 -1.0361  0.5460
  984MOL0     H32826   0.565   4.885   5.381 -1.0106  1.1278 -1.1458
  984MOL0     H32827   0.505   5.080   5.489  0.7607 -1.8920 -2.1689
  984MOL0     H32828   0.311   5.251   5.555  1.1022  1.3812 -0.5076
  984MOL0     H32829   0.444   5.239   5.680 -1.3614  2.2446 -0.1753
  984MOL0     H32830   0.323   5.423   5.750  0.0332 -0.2135 -0.7769
  984MOL0     H32831   0.277   5.291   5.857  3.5014  0.1453 -0.5141
  984MOL0     H32832   0.084   5.238   5.720  1.6816 -0.5975 -0.0128
  984MOL0     H32833   0.129   5.384   5.624  2.9862  1.5077 -0.1085
  984MOL0     H32834  -0.048   5.406   5.833 -0.8266  0.4948 -1.9187
  984MOL0     H32835   0.115   5.437   5.911  2.3039 -0.4856 -0.8720
  984MOL0     H32836   0.135   5.763   5.661  0.2930  1.7749  1.9967
  984MOL0     H32837   0.221   4.860   5.724  1.1581  2.1976  0.5212
  984MOL0     H32838   0.282   4.526   5.628 -0.9725 -0.4051  3.5496
  984MOL0     H32839   0.193   4.652   5.718 -1.6809  3.5304 -0.3207
  984MOL0     H32840   0.157   4.627   5.558 -1.1733 -1.5445  2.4582
  985MOL0     O32841   9.295  11.423   8.413  0.1977 -0.6721  0.0325
  985MOL0     C32842   9.265  11.325   8.480  0.5509 -0.0682 -0.0985
  985MOL0     O32843   9.146  11.308   8.541 -0.3561  0.1438  0.4635
  985MOL0     C32844   9.047  11.403   8.540 -0.7596 -0.1727  0.2602
  985MOL0     C32845   9.039  11.504   8.635  0.7436  0.5167  0.5831
  985MOL0     C32846   8.940  11.603   8.622  0.2793 -0.4086 -0.8566
  985MOL0     C32847   8.850  11.609   8.512 -0.3056 -0.0859 -0.0093
  985MOL0     O32848   8.733  11.691   8.504 -0.7412  0.1702  0.8546
  985MOL0     C32849   8.685  11.735   8.627  0.7398 -0.1408  0.0058
  985MOL0     C32850   8.525  11.758   8.610 -1.0312  0.2321 -0.5762
  985MOL0     C32851   8.468  11.608   8.604 -0.2766 -0.3385  0.4978
  985MOL0     C32852   8.330  11.626   8.549 -0.1732 -0.5428 -0.6397
  985MOL0     C32853   8.262  11.491   8.564  0.7690  0.5970  0.4236
  985MOL0     C32854   8.127  11.497   8.491  0.3353  0.6875  0.5639
  985MOL0     C32855   8.033  11.389   8.540  0.1484 -0.5216  0.7260
  985MOL0     C32856   7.892  11.425   8.471 -0.8198 -0.6023  0.4181
  985MOL0     N32857   7.777  11.336   8.509  0.3641  0.5525 -0.2616
  985MOL0     C32858   7.736  11.299   8.634  0.0408  0.2913 -0.3358
  985MOL0     C32859   7.621  11.233   8.622 -0.0980  0.1894 -0.3081
  985MOL0     C32860   7.529  11.192   8.740 -0.8517  0.4060 -0.1508
  985MOL0     C32861   7.535  11.040   8.778 -0.4355  0.2954  0.4520
  985MOL0     C32862   7.675  10.980   8.786 -0.2806  0.0534 -0.7330
  985MOL0     C32863   7.757  11.023   8.909 -0.2095  0.5745 -0.8001
  985MOL0     O32864   7.882  10.946   8.940 -0.2044 -0.4920 -0.2307
  985MOL0     C32865   7.985  10.940   8.850  0.5341  0.9709 -0.4609
  985MOL0     C32866   8.032  11.061   8.788  1.1856 -0.7834 -0.4423
  985MOL0     C32867   8.149  11.059   8.697 -0.0185  0.6988 -0.6530
  985MOL0     C32868   8.225  10.939   8.671  0.6985  0.1279 -0.0488
  985MOL0     C32869   8.330  10.928   8.568 -0.0545 -1.3384  0.6147
  985MOL0     O32870   8.378  11.041   8.495  1.0310  0.1029 -0.0878
  985MOL0     C32871   8.475  11.009   8.408  0.2573  0.6541  0.2418
  985MOL0     C32872   8.463  10.915   8.300 -0.5608  0.4132 -0.1574
  985MOL0     C32873   8.561  10.899   8.204  0.2248 -0.0927  0.0763
  985MOL0     C32874   8.675  10.986   8.205 -0.2344  0.6908  0.5053
  985MOL0     O32875   8.777  10.979   8.109  0.5272  0.5459 -0.2851
  985MOL0     C32876   8.775  10.863   8.022 -0.5569  0.0056 -1.0716
  985MOL0     C32877   8.902  10.863   7.934  0.6890  0.1971  0.0382
  985MOL0     C32878   8.901  10.750   7.825  0.9137 -0.4757  0.2449
  985MOL0     C32879   8.936  10.609   7.887  1.0573  0.1453  0.4340
  985MOL0     C32880   8.946  10.503   7.779 -0.9477  0.6595  0.4230
  985MOL0     C32881   9.095  10.475   7.723  0.2412 -0.4324 -0.2365
  985MOL0     C32882   9.095  10.346   7.643 -0.0039 -0.6816  0.6887
  985MOL0     C32883   9.243  10.307   7.614  0.2399  0.7448 -1.6009
  985MOL0    Cl32884   9.322  10.419   7.486  0.1485 -0.4638  0.5774
  985MOL0     C32885   8.681  11.074   8.307  0.1911 -0.2377 -0.0031
  985MOL0     C32886   8.585  11.084   8.411  0.2048 -0.3800 -0.8020
  985MOL0     O32887   8.371  10.815   8.549 -0.2080 -0.9583 -0.2140
  985MOL0     C32888   8.188  10.838   8.754  1.1538  0.3760 -0.3679
  985MOL0     C32889   8.079  10.835   8.838  0.4478 -0.3267 -0.5256
  985MOL0     N32890   7.584  11.235   8.492  0.2933  0.1268 -0.1336
  985MOL0     N32891   7.684  11.266   8.425 -0.2746 -0.1187 -0.4308
  985MOL0     C32892   8.870  11.510   8.418 -0.6491 -0.0948 -0.5173
  985MOL0     C32893   8.965  11.405   8.437 -0.1631 -0.3217 -0.3445
  985MOL0     C32894   9.361  11.215   8.519  0.2500 -0.3322  0.8568
  985MOL0     C32895   9.326  11.135   8.629  0.2193  1.1506  0.3871
  985MOL0     C32896   9.405  11.020   8.662  0.1045  0.7272 -0.1684
  985MOL0     C32897   9.524  10.993   8.603  0.1684  0.5693  0.8387
  985MOL0     O32898   9.599  10.886   8.645 -0.3679 -0.3633  0.3569
  985MOL0     C32899   9.686  10.936   8.746  0.7115 -0.7407  0.0778
  985MOL0     C32900   9.826  10.914   8.698 -0.0532 -0.2766  0.5480
  985MOL0     C32901   9.938  10.978   8.779 -0.0478 -0.1983 -1.1576
  985MOL0     C32902   9.946  10.931   8.932  0.0967 -0.8071 -0.5653
  985MOL0     C32903   9.879  11.040   9.003 -0.8396  0.1696  0.3693
  985MOL0     C32904   9.823  11.129   9.066 -0.0705 -0.9573  0.0720
  985MOL0     C32905   9.569  11.087   8.497 -0.0586 -0.9085 -0.4409
  985MOL0     C32906   9.480  11.186   8.454 -0.6325 -0.6013  1.1974
  985MOL0     C32907   9.500  11.239   8.311 -0.0913  0.0421 -0.1871
  985MOL0     H32908   9.099  11.510   8.726  1.9733  0.7959 -0.2332
  985MOL0     H32909   8.940  11.664   8.711  2.1047 -3.4209  1.3710
  985MOL0     H32910   8.699  11.670   8.714 -1.2861  0.4967  0.8686
  985MOL0     H32911   8.739  11.828   8.649 -0.7777  0.8214 -0.1951
  985MOL0     H32912   8.481  11.821   8.532 -1.0634  1.7483  0.6084
  985MOL0     H32913   8.483  11.806   8.700 -0.8910  3.6158 -2.1471
  985MOL0     H32914   8.478  11.571   8.706  0.3480  2.6927  1.6344
  985MOL0     H32915   8.523  11.539   8.539 -0.0956 -0.7817  1.1107
  985MOL0     H32916   8.271  11.708   8.591  0.5535 -1.9955  3.6332
  985MOL0     H32917   8.337  11.644   8.441  1.3045 -2.9671 -1.0253
  985MOL0     H32918   8.316  11.403   8.526 -4.9173 -2.3670 -2.1060
  985MOL0     H32919   8.248  11.479   8.672  1.8189  0.9931  0.6163
  985MOL0     H32920   8.075  11.592   8.507  1.3880  1.5384 -0.9066
  985MOL0     H32921   8.143  11.484   8.384  1.3366  2.0189  0.5241
  985MOL0     H32922   8.015  11.406   8.646  0.5632  3.2734  0.3228
  985MOL0     H32923   8.072  11.287   8.531 -0.8076 -1.1542  3.0448
  985MOL0     H32924   7.866  11.524   8.509  1.6605  0.3079 -0.0231
  985MOL0     H32925   7.915  11.428   8.364  0.4588  0.9517  0.6925
  985MOL0     H32926   7.784  11.324   8.728  0.0239 -0.3867 -0.1406
  985MOL0     H32927   7.573  11.240   8.828  2.9608 -2.7831  0.0228
  985MOL0     H32928   7.429  11.225   8.713 -0.8693 -0.1003 -0.7448
  985MOL0     H32929   7.482  11.022   8.872  0.7056 -2.1040  0.7044
  985MOL0     H32930   7.469  10.993   8.704  0.8641 -0.3177 -0.3444
  985MOL0     H32931   7.739  10.987   8.698  2.9528  0.2325  1.4624
  985MOL0     H32932   7.649  10.875   8.803 -2.2860  0.8721  1.8683
  985MOL0     H32933   7.692  11.036   8.995 -1.1166 -0.8458 -1.2523
  985MOL0     H32934   7.798  11.124   8.895  0.0132  0.5551 -0.3112
  985MOL0     H32935   7.990  11.157   8.814  3.0389 -0.2947  0.9167
  985MOL0     H32936   8.173  11.140   8.630  0.5472 -0.2407 -1.6189
  985MOL0     H32937   8.372  10.856   8.290 -0.6598  0.2871  1.2440
  985MOL0     H32938   8.546  10.826   8.126  0.2342  0.7177 -0.7042
  985MOL0     H32939   8.777  10.774   8.085 -0.6619  0.1421 -0.8771
  985MOL0     H32940   8.683  10.872   7.963 -2.6019  1.2137  2.0874
  985MOL0     H32941   8.915  10.952   7.872  0.9469 -2.3464 -3.9854
  985MOL0     H32942   8.987  10.849   8.002 -1.0714 -1.4270  2.0269
  985MOL0     H32943   8.808  10.761   7.768  2.5368  4.7639 -2.0781
  985MOL0     H32944   8.983  10.769   7.756  0.3248 -0.4720 -0.4587
  985MOL0     H32945   8.853  10.582   7.953  2.1241  0.3011  1.9173
  985MOL0     H32946   9.031  10.613   7.942  0.8679  1.0237  0.7012
  985MOL0     H32947   8.889  10.544   7.695 -1.6400  0.7290  0.9131
  985MOL0     H32948   8.902  10.410   7.815  0.6692  0.3128  1.6079
  985MOL0     H32949   9.125  10.568   7.675 -1.7758  0.2342 -0.3302
  985MOL0     H32950   9.164  10.455   7.806  1.8157  1.0843 -1.1115
  985MOL0     H32951   9.053  10.355   7.542  0.6961 -0.6330  0.3988
  985MOL0     H32952   9.039  10.273   7.702 -1.9347  0.4715  0.3711
  985MOL0     H32953   9.305  10.306   7.704 -0.0400 -0.0644 -1.4058
  985MOL0     H32954   9.241  10.200   7.590  0.6566  0.9676 -2.6660
  985MOL0     H32955   8.755  11.153   8.295 -0.5824  0.3008 -1.4819
  985MOL0     H32956   8.593  11.162   8.485  3.0131 -0.0156 -1.4078
  985MOL0     H32957   8.239  10.744   8.741 -5.0050 -3.4254 -0.9432
  985MOL0     H32958   8.064  10.742   8.892 -0.3041 -1.2843 -2.2912
  985MOL0     H32959   8.809  11.492   8.330  2.8624 -1.6064 -2.8477
  985MOL0     H32960   8.973  11.330   8.359 -1.0309 -0.5196 -0.2481
  985MOL0     H32961   9.244  11.159   8.696  2.4734  3.6753  2.4521
  985MOL0     H32962   9.370  10.958   8.744  1.6036  2.0442  1.5529
  985MOL0     H32963   9.671  10.883   8.841  1.2107 -0.7190  0.1759
  985MOL0     H32964   9.668  11.038   8.778 -0.5160 -1.0873  0.5325
  985MOL0     H32965   9.841  10.944   8.594 -3.9996  2.0190  0.4525
  985MOL0     H32966   9.836  10.805   8.691 -2.6992 -0.5923  0.2823
  985MOL0     H32967   9.927  11.087   8.780  0.0059 -0.1952 -0.3236
  985MOL0     H32968  10.030  10.965   8.720 -0.7749 -0.3234 -2.3033
  985MOL0     H32969   9.882  10.843   8.944 -0.3827 -0.1978  1.8400
  985MOL0     H32970  10.050  10.922   8.965 -0.3050  1.4639  1.5930
  985MOL0     H32971   9.776  11.210   9.118 -0.0655 -1.9143  1.6421
  985MOL0     H32972   9.647  11.051   8.431  1.5247 -2.4719  2.0804
  985MOL0     H32973   9.588  11.187   8.271  1.2295  0.0702  2.5083
  985MOL0     H32974   9.406  11.227   8.256 -0.3035  0.7287  0.0175
  985MOL0     H32975   9.514  11.347   8.308 -3.2400  0.5090 -1.4411
  986MOL0     O32976   3.661   0.337   5.073  0.3639 -1.0653 -0.8304
  986MOL0     C32977   3.715   0.347   5.182 -0.0863  0.9281 -0.1405
  986MOL0     O32978   3.714   0.457   5.258  0.9421 -0.3441  0.4493
  986MOL0     C32979   3.607   0.548   5.241 -0.0034 -0.5376 -0.6474
  986MOL0     C32980   3.473   0.536   5.199 -0.6434 -0.3235  0.8589
  986MOL0     C32981   3.393   0.645   5.185 -0.6251 -0.3217  0.4412
  986MOL0     C32982   3.432   0.769   5.232 -0.5480 -0.2743  1.5656
  986MOL0     O32983   3.364   0.884   5.199 -0.0912  0.0033  0.6820
  986MOL0     C32984   3.229   0.874   5.238 -0.2287  1.1630 -0.2316
  986MOL0     C32985   3.173   1.013   5.267  0.8819 -1.3038 -0.0303
  986MOL0     C32986   3.233   1.073   5.391  0.2656  0.0242 -0.7369
  986MOL0     C32987   3.154   1.179   5.448  0.6427 -0.3080  0.9268
  986MOL0     C32988   3.241   1.237   5.567 -0.6047  0.6294  0.9420
  986MOL0     C32989   3.157   1.357   5.617  0.2318  0.1719 -0.4841
  986MOL0     C32990   3.213   1.442   5.731  0.2134 -0.5580  0.1957
  986MOL0     C32991   3.105   1.506   5.809 -0.0107 -0.1442  0.6565
  986MOL0     N32992   3.064   1.409   5.916 -0.1412 -0.0892  1.1738
  986MOL0     C32993   3.080   1.429   6.050 -0.5801 -0.0824  0.1022
  986MOL0     C32994   3.013   1.321   6.098 -0.1909 -1.0429  0.1310
  986MOL0     C32995   2.990   1.282   6.239  0.3682 -0.1674 -0.2764
  986MOL0     C32996   2.855   1.316   6.315  0.3003  0.0661  1.0433
  986MOL0     C32997   2.820   1.465   6.316  0.2616 -0.7134 -0.1480
  986MOL0     C32998   2.664   1.469   6.333  0.3585  0.7258 -1.1527
  986MOL0     O32999   2.647   1.597   6.390  0.4644  0.2253 -0.0532
  986MOL0     C33000   2.619   1.593   6.521  0.3087 -0.3125 -0.4936
  986MOL0     C33001   2.689   1.514   6.620  0.3070  0.1903  0.2374
  986MOL0     C33002   2.664   1.547   6.753  0.8190 -0.7519  0.0810
  986MOL0     C33003   2.572   1.654   6.793  0.0332  1.1232  0.2109
  986MOL0     C33004   2.550   1.669   6.936 -0.6139 -0.2307 -0.1085
  986MOL0     O33005   2.459   1.764   6.980 -0.0503 -0.2647  0.0943
  986MOL0     C33006   2.410   1.745   7.109  0.0967 -0.4260 -0.0975
  986MOL0     C33007   2.490   1.778   7.218 -0.4833  0.4406 -0.1750
  986MOL0     C33008   2.437   1.760   7.350 -0.6288  0.2890 -0.7729
  986MOL0     C33009   2.302   1.713   7.370  1.4380  0.4582  0.3094
  986MOL0     O33010   2.240   1.701   7.491 -0.3934  0.3358 -0.3852
  986MOL0     C33011   2.338   1.652   7.594 -0.0964  0.5349  0.3171
  986MOL0     C33012   2.263   1.612   7.719  0.2333  0.0260 -0.3221
  986MOL0     C33013   2.367   1.549   7.816 -0.6452 -0.8370 -0.3223
  986MOL0     C33014   2.314   1.496   7.958 -0.8600  0.9962 -0.7501
  986MOL0     C33015   2.416   1.405   8.024  0.4658 -0.8002 -0.4131
  986MOL0     C33016   2.359   1.376   8.163 -0.3358  0.1136 -0.3775
  986MOL0     C33017   2.438   1.290   8.251 -0.1842  1.3596  0.4954
  986MOL0     C33018   2.359   1.252   8.374 -0.0438  0.6398  0.3397
  986MOL0    Cl33019   2.399   1.344   8.513  0.2141 -0.2265  0.5414
  986MOL0     C33020   2.220   1.694   7.256  0.2138  0.6918  0.8208
  986MOL0     C33021   2.278   1.710   7.125 -0.5283 -0.1382 -0.5166
  986MOL0     O33022   2.615   1.606   7.008 -0.8491  0.5603  0.0738
  986MOL0     C33023   2.505   1.732   6.693  0.1602  0.3650  0.1286
  986MOL0     C33024   2.520   1.694   6.555 -0.4105  0.5409 -0.0868
  986MOL0     N33025   2.971   1.246   6.003  0.0845 -0.6235  0.5098
  986MOL0     N33026   2.971   1.315   5.896 -0.6073  0.2804 -0.2691
  986MOL0     C33027   3.562   0.786   5.278 -0.1807  0.4925  0.9670
  986MOL0     C33028   3.648   0.680   5.280  0.0953  0.3963 -0.4206
  986MOL0     C33029   3.811   0.235   5.215 -0.4179 -0.2667 -0.3480
  986MOL0     C33030   3.859   0.227   5.350  0.1191 -0.6656  0.4050
  986MOL0     C33031   3.930   0.118   5.401  0.4361 -0.0393 -0.7778
  986MOL0     C33032   3.963   0.016   5.315  0.1353  0.8936 -0.1112
  986MOL0     O33033   4.050  -0.080   5.364 -0.5302 -0.6967  0.6689
  986MOL0     C33034   4.166  -0.098   5.286 -0.6047 -0.4531  0.3315
  986MOL0     C33035   4.255  -0.198   5.357 -0.5464 -0.2134  0.2435
  986MOL0     C33036   4.211  -0.340   5.320 -0.0874  0.2768 -0.2676
  986MOL0     C33037   4.295  -0.440   5.402 -0.3853  0.0036 -1.0742
  986MOL0     C33038   4.264  -0.460   5.547 -1.4822  0.6732 -1.0696
  986MOL0     C33039   4.257  -0.487   5.671  0.1636 -0.0569 -0.2283
  986MOL0     C33040   3.912   0.011   5.183 -1.1084 -0.7746  0.1274
  986MOL0     C33041   3.843   0.124   5.134  0.2642  0.5359 -0.6591
  986MOL0     C33042   3.810   0.128   4.982 -0.3493  0.9305 -0.0282
  986MOL0     H33043   3.432   0.441   5.166  0.6217 -0.4716 -0.3931
  986MOL0     H33044   3.297   0.628   5.138 -0.6700 -4.5554  1.6659
  986MOL0     H33045   3.176   0.830   5.153 -0.9722  0.9080  0.3547
  986MOL0     H33046   3.225   0.806   5.324 -0.4073 -3.2950 -3.4272
  986MOL0     H33047   3.065   1.016   5.286  1.0535  0.1562  0.8336
  986MOL0     H33048   3.204   1.069   5.178 -1.1518  0.0234  0.0319
  986MOL0     H33049   3.339   1.091   5.370  0.6637 -3.0191 -1.9064
  986MOL0     H33050   3.227   0.996   5.468 -1.3218 -1.4407 -2.2234
  986MOL0     H33051   3.123   1.257   5.378  2.6006  1.5574  1.9783
  986MOL0     H33052   3.071   1.128   5.498 -0.5325  0.1851 -0.4673
  986MOL0     H33053   3.260   1.166   5.647 -1.7156 -2.3950 -1.2925
  986MOL0     H33054   3.333   1.285   5.532 -0.2672 -1.1785 -0.8126
  986MOL0     H33055   3.128   1.424   5.536 -1.7290 -2.5429 -2.2196
  986MOL0     H33056   3.068   1.307   5.656  3.5929 -3.6436  3.2831
  986MOL0     H33057   3.279   1.518   5.689 -0.6616  0.5861  0.8396
  986MOL0     H33058   3.269   1.390   5.810  0.4088  0.0833  0.4879
  986MOL0     H33059   3.136   1.596   5.863 -1.9222 -1.0272  3.4746
  986MOL0     H33060   3.020   1.527   5.743  1.3016 -0.6637 -1.2629
  986MOL0     H33061   3.132   1.515   6.089  0.0727  0.6821 -2.2590
  986MOL0     H33062   2.985   1.173   6.236 -3.0196 -0.1167 -0.1795
  986MOL0     H33063   3.072   1.320   6.301 -0.8452  1.9448  0.1668
  986MOL0     H33064   2.780   1.265   6.254  0.1997 -1.0424  2.0591
  986MOL0     H33065   2.848   1.275   6.416 -0.0187 -1.0570  0.5745
  986MOL0     H33066   2.845   1.506   6.218  2.3564 -1.1327  0.1573
  986MOL0     H33067   2.874   1.519   6.395  1.3474 -0.4752 -1.0284
  986MOL0     H33068   2.624   1.386   6.393 -2.1200  0.5858 -2.8283
  986MOL0     H33069   2.603   1.469   6.242 -2.4194 -1.9350  0.4951
  986MOL0     H33070   2.763   1.439   6.595  0.6510  0.2883  0.9349
  986MOL0     H33071   2.694   1.465   6.817 -3.2186 -2.2475  0.3756
  986MOL0     H33072   2.591   1.817   7.207 -0.5892  0.6480 -0.4447
  986MOL0     H33073   2.488   1.802   7.436 -0.5371 -0.0896 -0.6419
  986MOL0     H33074   2.384   1.565   7.548 -0.1050  0.3613  0.6346
  986MOL0     H33075   2.419   1.717   7.630 -1.0888  0.4829  2.8357
  986MOL0     H33076   2.226   1.705   7.764  1.8287  0.4659  0.1304
  986MOL0     H33077   2.180   1.545   7.694  1.4938 -1.6263 -0.1985
  986MOL0     H33078   2.405   1.463   7.761  2.3173 -0.9502  1.6520
  986MOL0     H33079   2.444   1.625   7.835 -2.0801  0.9758 -1.3878
  986MOL0     H33080   2.217   1.447   7.943 -0.6865 -0.7307  2.7615
  986MOL0     H33081   2.295   1.583   8.021 -0.0382 -0.7275  2.0653
  986MOL0     H33082   2.509   1.462   8.034  0.0237  0.2285 -1.8884
  986MOL0     H33083   2.438   1.314   7.967  0.1164 -2.3081  1.7149
  986MOL0     H33084   2.349   1.468   8.221 -0.9342  1.2361 -2.1733
  986MOL0     H33085   2.253   1.354   8.146 -0.1767  0.2597 -1.6580
  986MOL0     H33086   2.532   1.331   8.289  0.5728 -2.1932  2.9090
  986MOL0     H33087   2.467   1.197   8.203  0.3840  1.2866  0.9760
  986MOL0     H33088   2.251   1.263   8.363 -0.2429 -0.7964  0.6539
  986MOL0     H33089   2.372   1.146   8.398 -1.4375  0.1729 -0.8319
  986MOL0     H33090   2.116   1.662   7.263  0.5247 -0.6887 -0.4773
  986MOL0     H33091   2.223   1.701   7.032 -0.3272 -3.5636 -0.4305
  986MOL0     H33092   2.451   1.822   6.719 -0.9897 -0.3515  0.3142
  986MOL0     H33093   2.479   1.759   6.479 -0.4430 -1.7194 -2.1251
  986MOL0     H33094   3.595   0.889   5.289 -1.9186  1.0700  1.1526
  986MOL0     H33095   3.750   0.695   5.315 -0.5452 -0.3206  1.9197
  986MOL0     H33096   3.830   0.299   5.425 -0.0855 -0.7870  0.4429
  986MOL0     H33097   3.969   0.114   5.502  0.9415 -0.1113 -0.9722
  986MOL0     H33098   4.231  -0.010   5.290 -0.4564 -0.4441 -1.3679
  986MOL0     H33099   4.146  -0.106   5.178  3.4638  5.2631 -1.3193
  986MOL0     H33100   4.251  -0.175   5.464 -0.4440 -2.4033  0.7709
  986MOL0     H33101   4.359  -0.182   5.326 -1.0503  1.9281 -0.4781
  986MOL0     H33102   4.224  -0.361   5.213 -4.0403 -2.2177 -0.4496
  986MOL0     H33103   4.108  -0.354   5.352 -0.4197 -0.7843 -1.7192
  986MOL0     H33104   4.292  -0.544   5.367 -0.1290 -1.1987  2.1307
  986MOL0     H33105   4.397  -0.401   5.403 -0.2551 -0.2648  1.4749
  986MOL0     H33106   4.264  -0.495   5.777  1.6686 -0.0258 -0.3093
  986MOL0     H33107   3.953  -0.069   5.122  0.8275 -0.7409  1.3224
  986MOL0     H33108   3.873   0.063   4.920  0.5333  1.5713  0.1794
  986MOL0     H33109   3.707   0.097   4.968 -0.4021  0.5459  1.0958
  986MOL0     H33110   3.815   0.226   4.934 -1.0429  0.3813 -1.2723
  987MOL0     O33111   2.351   9.497   0.906 -0.4729 -0.6417 -0.4494
  987MOL0     C33112   2.467   9.467   0.876 -0.2364 -0.5027 -0.6644
  987MOL0     O33113   2.509   9.354   0.827  0.1797  0.0094  0.7173
  987MOL0     C33114   2.436   9.236   0.840 -0.6370 -0.2199  0.6472
  987MOL0     C33115   2.361   9.209   0.956 -0.0626  0.1301 -0.0500
  987MOL0     C33116   2.315   9.085   0.978 -0.7265  1.3151  1.2176
  987MOL0     C33117   2.328   8.987   0.872  0.5978 -0.1783  0.0540
  987MOL0     O33118   2.290   8.851   0.881 -0.1132 -0.3890  0.7460
  987MOL0     C33119   2.242   8.801   1.001  0.0160 -0.0115 -0.7071
  987MOL0     C33120   2.245   8.646   0.994  1.2419 -0.3863  0.4958
  987MOL0     C33121   2.385   8.593   0.968 -0.6523  0.3392 -0.2790
  987MOL0     C33122   2.400   8.477   0.871 -0.0686 -0.3014  0.1862
  987MOL0     C33123   2.539   8.412   0.905  0.4390 -0.1418  0.1598
  987MOL0     C33124   2.653   8.489   0.830 -0.3286 -0.4146 -0.6919
  987MOL0     C33125   2.793   8.450   0.879  0.6421 -0.0062 -0.2163
  987MOL0     C33126   2.835   8.313   0.836 -0.0459  0.2165 -0.0651
  987MOL0     N33127   2.978   8.291   0.866  0.1383  0.3151 -0.3164
  987MOL0     C33128   3.035   8.237   0.974 -0.1893  1.2269  0.0145
  987MOL0     C33129   3.164   8.229   0.952 -0.2678  0.2311 -0.9009
  987MOL0     C33130   3.251   8.147   1.046  0.4012  0.1445 -0.4977
  987MOL0     C33131   3.346   8.061   0.960  0.1602  0.9404  0.2955
  987MOL0     C33132   3.430   7.969   1.035  0.9892 -0.1093  0.5904
  987MOL0     C33133   3.524   8.049   1.128 -0.7630  1.4844  0.5604
  987MOL0     O33134   3.591   7.940   1.191  0.2587  0.5599 -0.1378
  987MOL0     C33135   3.669   7.965   1.300 -0.6250  0.2475 -0.7436
  987MOL0     C33136   3.664   8.086   1.369  0.4913  0.0015  0.2219
  987MOL0     C33137   3.751   8.118   1.468  0.3495  1.0957 -0.1328
  987MOL0     C33138   3.842   8.017   1.522  0.1135  1.5873  0.1988
  987MOL0     C33139   3.930   8.040   1.638 -0.3416 -0.2721  0.2810
  987MOL0     O33140   3.989   7.926   1.685  0.7424 -0.8857  0.4327
  987MOL0     C33141   4.052   7.933   1.804  0.3517 -0.2922  0.4984
  987MOL0     C33142   4.187   7.900   1.798  0.3493  0.5312 -0.0240
  987MOL0     C33143   4.265   7.905   1.912  0.2413 -0.4987  0.9548
  987MOL0     C33144   4.202   7.940   2.035  0.2243 -0.2137 -0.3610
  987MOL0     O33145   4.256   7.943   2.165  0.6266  0.7618  0.5286
  987MOL0     C33146   4.398   7.942   2.187 -0.0028  0.2447  0.3544
  987MOL0     C33147   4.448   8.079   2.191  0.1174 -0.0723  0.6460
  987MOL0     C33148   4.588   8.089   2.242  0.2316 -0.0406  1.0987
  987MOL0     C33149   4.691   7.998   2.161  0.3040  0.3547  0.1912
  987MOL0     C33150   4.846   8.047   2.183 -0.1099  0.0381  0.5336
  987MOL0     C33151   4.873   8.059   2.333  0.2914  0.3547  0.3001
  987MOL0     C33152   5.022   8.094   2.345 -0.2230 -0.1676  0.2478
  987MOL0     C33153   5.086   8.078   2.485  1.2028  0.2774  0.5536
  987MOL0    Cl33154   5.064   7.909   2.549  0.1506 -0.6925  0.7039
  987MOL0     C33155   4.072   7.974   2.042  0.8944  0.3084  0.2534
  987MOL0     C33156   3.992   7.971   1.924  0.6195 -0.1073 -0.5401
  987MOL0     O33157   3.936   8.157   1.681  0.2446  1.4079 -0.7899
  987MOL0     C33158   3.835   7.883   1.457 -0.0915 -0.5653  0.6907
  987MOL0     C33159   3.758   7.869   1.341 -0.6939  0.1257 -0.0229
  987MOL0     N33160   3.194   8.284   0.829  0.7804  0.4145 -0.2022
  987MOL0     N33161   3.079   8.327   0.780  1.0208 -0.3855  0.0938
  987MOL0     C33162   2.392   9.020   0.750 -0.2314 -1.0284 -0.6535
  987MOL0     C33163   2.450   9.144   0.734 -0.0789  0.5658  0.7319
  987MOL0     C33164   2.580   9.555   0.905 -0.1332  0.6488  0.7778
  987MOL0     C33165   2.689   9.564   0.808 -0.1289  0.2292  0.2769
  987MOL0     C33166   2.806   9.630   0.833  0.2244  0.4961 -0.8208
  987MOL0     C33167   2.807   9.705   0.947  0.0347 -0.6351  0.9436
  987MOL0     O33168   2.918   9.778   0.974  0.1313  0.0229  0.2212
  987MOL0     C33169   2.920   9.875   1.078 -0.1167 -1.3515  0.7218
  987MOL0     C33170   3.032   9.974   1.035  0.0065 -0.0717  0.0673
  987MOL0     C33171   3.026  10.126   1.085 -1.0669  0.0929  0.7787
  987MOL0     C33172   3.021  10.130   1.235  0.2392  0.3042  0.2984
  987MOL0     C33173   2.905  10.079   1.303 -0.2913 -0.2496 -0.3203
  987MOL0     C33174   2.810  10.030   1.362 -1.5547  0.3278  1.2566
  987MOL0     C33175   2.706   9.692   1.036  0.0509  0.4711 -0.4635
  987MOL0     C33176   2.587   9.613   1.029 -0.2072  0.1965  1.1636
  987MOL0     C33177   2.482   9.603   1.143 -0.2098 -0.0126  1.0342
  987MOL0     H33178   2.367   9.276   1.041  4.0287 -0.3496  0.2428
  987MOL0     H33179   2.270   9.071   1.076  0.4933 -0.8473  1.5347
  987MOL0     H33180   2.311   8.839   1.077 -2.1657  1.4227  0.6613
  987MOL0     H33181   2.142   8.840   1.023  1.0590  1.5345  1.6720
  987MOL0     H33182   2.177   8.612   0.915 -0.7222  0.6614  1.6542
  987MOL0     H33183   2.207   8.598   1.084  1.8491 -0.5605  0.6608
  987MOL0     H33184   2.419   8.557   1.065  3.1852  0.3579 -1.4546
  987MOL0     H33185   2.463   8.663   0.936 -0.1112 -0.8478 -1.6563
  987MOL0     H33186   2.320   8.403   0.882 -0.0724 -1.4088 -4.8332
  987MOL0     H33187   2.389   8.519   0.770 -0.1651 -3.0054 -1.0377
  987MOL0     H33188   2.555   8.399   1.012 -0.9041  4.7900  1.2031
  987MOL0     H33189   2.537   8.311   0.863 -2.9961  0.7147 -2.1844
  987MOL0     H33190   2.658   8.462   0.724  2.4980  2.8914 -1.5769
  987MOL0     H33191   2.622   8.594   0.833 -4.0446 -1.3489 -1.3092
  987MOL0     H33192   2.794   8.476   0.986 -3.5782 -0.0262  0.0163
  987MOL0     H33193   2.866   8.519   0.836  1.9408 -1.0072  0.3120
  987MOL0     H33194   2.768   8.244   0.889 -1.2112 -0.7784 -2.6677
  987MOL0     H33195   2.820   8.295   0.729 -3.5378  0.9044  0.1874
  987MOL0     H33196   2.972   8.192   1.050 -2.8122  0.4236 -2.4428
  987MOL0     H33197   3.304   8.220   1.108  1.4974 -0.7387 -0.3571
  987MOL0     H33198   3.198   8.090   1.122 -0.1513  0.8912 -0.3112
  987MOL0     H33199   3.286   7.996   0.895  0.0277  0.4901  0.8573
  987MOL0     H33200   3.411   8.122   0.897 -0.4999  2.0918  0.6831
  987MOL0     H33201   3.497   7.929   0.957  2.6299  1.9948  0.8346
  987MOL0     H33202   3.366   7.896   1.085  1.0491 -1.0598 -0.6650
  987MOL0     H33203   3.457   8.105   1.193 -0.3640 -0.6398  2.9534
  987MOL0     H33204   3.600   8.108   1.076  0.2911  2.3906  3.0158
  987MOL0     H33205   3.594   8.164   1.340 -0.4946 -1.4387 -1.4131
  987MOL0     H33206   3.739   8.215   1.515  0.8905  1.8306 -1.4518
  987MOL0     H33207   4.225   7.879   1.699 -0.5516  0.8156 -0.4390
  987MOL0     H33208   4.367   7.871   1.894  0.1270  0.0478 -0.9364
  987MOL0     H33209   4.405   7.883   2.280 -1.9551 -2.3590 -1.0172
  987MOL0     H33210   4.453   7.891   2.108 -1.0908 -3.3999  1.7477
  987MOL0     H33211   4.439   8.127   2.093 -3.5226  1.1808  1.4157
  987MOL0     H33212   4.390   8.140   2.262  0.2236 -1.2027  1.7449
  987MOL0     H33213   4.625   8.191   2.229 -0.8838  0.2536  0.0354
  987MOL0     H33214   4.575   8.064   2.347  0.8939  1.4837  1.5850
  987MOL0     H33215   4.670   7.999   2.054 -3.2661  0.8664  0.7794
  987MOL0     H33216   4.666   7.898   2.197 -1.1077  0.7928  0.4942
  987MOL0     H33217   4.881   8.135   2.128  2.0403 -0.1473  1.5306
  987MOL0     H33218   4.898   7.959   2.146 -2.1926 -1.4744  1.0381
  987MOL0     H33219   4.801   8.132   2.372  2.8148  3.5010 -0.4657
  987MOL0     H33220   4.854   7.961   2.378 -2.5492  0.8757  0.3888
  987MOL0     H33221   5.039   8.196   2.309 -0.1334 -1.1553 -2.8549
  987MOL0     H33222   5.076   8.029   2.276  3.2141  1.9564  0.6412
  987MOL0     H33223   5.193   8.100   2.475  1.7561 -2.8233 -2.1686
  987MOL0     H33224   5.046   8.149   2.557  2.1056 -0.7631  2.1428
  987MOL0     H33225   4.025   7.989   2.139 -1.5149  0.2754 -0.8374
  987MOL0     H33226   3.885   7.990   1.923  0.3804 -1.4183 -1.3249
  987MOL0     H33227   3.888   7.805   1.512 -1.5412 -1.9438  0.1892
  987MOL0     H33228   3.782   7.776   1.291  0.3031  0.0149  0.6398
  987MOL0     H33229   2.390   8.946   0.670  2.9320 -1.9121 -0.0487
  987MOL0     H33230   2.503   9.176   0.646  1.8431  0.2133  1.7081
  987MOL0     H33231   2.687   9.507   0.715 -1.6162  0.2876  0.2419
  987MOL0     H33232   2.897   9.631   0.773  0.5072  3.5123 -0.5006
  987MOL0     H33233   2.943   9.831   1.176 -0.9027  0.2121  1.6300
  987MOL0     H33234   2.822   9.923   1.083  0.2221 -0.7356  1.6428
  987MOL0     H33235   3.037   9.976   0.925  0.4540 -1.2899  0.0568
  987MOL0     H33236   3.122   9.929   1.075  0.0039 -0.5105 -0.4057
  987MOL0     H33237   2.937  10.177   1.048 -1.4478 -0.1958  1.2768
  987MOL0     H33238   3.123  10.160   1.046 -0.8187 -2.2634 -0.8656
  987MOL0     H33239   3.119  10.105   1.275  0.3740 -1.4536 -0.9901
  987MOL0     H33240   3.009  10.236   1.261  1.7569  0.2566  1.3118
  987MOL0     H33241   2.716   9.996   1.398 -1.8155 -1.3293 -0.7947
  987MOL0     H33242   2.711   9.752   1.127 -1.2898  1.1976 -0.8426
  987MOL0     H33243   2.456   9.499   1.166  3.0390 -1.2195 -0.1981
  987MOL0     H33244   2.515   9.645   1.239  0.1230 -1.7608  1.7444
  987MOL0     H33245   2.389   9.652   1.112  0.0392  1.1514  2.0322
  988MOL0     O33246   0.331   9.616  10.575 -0.1697  0.4953 -0.2766
  988MOL0     C33247   0.251   9.624  10.667 -0.1883  0.6954 -0.5047
  988MOL0     O33248   0.250   9.732  10.751 -0.3659  0.4031 -0.1984
  988MOL0     C33249   0.322   9.843  10.701 -0.1026  0.4166  0.1970
  988MOL0     C33250   0.465   9.842  10.689 -0.5897 -0.5142  0.1533
  988MOL0     C33251   0.536   9.955  10.656  0.2474 -0.1935  0.3900
  988MOL0     C33252   0.461  10.067  10.611  0.0809  0.3391 -0.1980
  988MOL0     O33253   0.540  10.175  10.581 -0.0173 -0.1811  0.1446
  988MOL0     C33254   0.498  10.282  10.503 -0.2371 -0.9991 -0.0910
  988MOL0     C33255   0.611  10.397  10.506  0.7177  0.2624  0.7389
  988MOL0     C33256   0.654  10.418  10.653  0.1149  0.1547 -0.4730
  988MOL0     C33257   0.726  10.545  10.678 -0.0594 -0.5202  0.0347
  988MOL0     C33258   0.871  10.556  10.613  0.2004 -0.6962 -0.0136
  988MOL0     C33259   0.923  10.708  10.606 -0.0140 -0.0487  0.9128
  988MOL0     C33260   0.923  10.780  10.739 -0.0432 -0.7077 -0.3621
  988MOL0     C33261   1.003  10.709  10.835  0.0871  0.6692 -0.0833
  988MOL0     N33262   1.026  10.782  10.959 -0.0899  0.1204 -0.6653
  988MOL0     C33263   0.929  10.802  11.048  0.6940  0.0169  0.5411
  988MOL0     C33264   0.984  10.843  11.159 -0.7999 -0.1186 -0.8695
  988MOL0     C33265   0.896  10.880  11.280  0.7810  0.3668  0.3391
  988MOL0     C33266   0.896  10.788  11.402  0.0517  0.4513  0.4900
  988MOL0     C33267   0.847  10.862  11.524 -0.8208  0.2084  0.3395
  988MOL0     C33268   0.952  10.946  11.604 -0.2817  0.0386 -0.2517
  988MOL0     O33269   0.889  11.035  11.695  0.4283 -1.0666 -0.8621
  988MOL0     C33270   0.953  11.149  11.741 -0.7326 -0.3207  0.1290
  988MOL0     C33271   0.886  11.251  11.802  0.0172  0.2542 -0.3674
  988MOL0     C33272   0.945  11.361  11.868 -0.6974 -0.6863 -0.6500
  988MOL0     C33273   1.081  11.379  11.854 -0.6760  0.9625  0.1140
  988MOL0     C33274   1.148  11.492  11.911 -0.2097  0.1761  0.3866
  988MOL0     O33275   1.077  11.565  11.998 -0.1499 -0.0348 -0.2717
  988MOL0     C33276   1.136  11.639  12.094  0.9014  0.3102 -0.3905
  988MOL0     C33277   1.063  11.743  12.158 -0.0400 -0.0810 -0.5384
  988MOL0     C33278   1.108  11.812  12.274 -0.1435 -0.0261 -0.0485
  988MOL0     C33279   1.241  11.779  12.320  0.4305 -0.5172  0.2121
  988MOL0     O33280   1.289  11.864  12.415  0.0481  0.3296 -0.6022
  988MOL0     C33281   1.279  12.008  12.413  0.0740 -0.3455 -0.3090
  988MOL0     C33282   1.239  12.057  12.549  0.0264  0.8988 -0.7756
  988MOL0     C33283   1.257  12.213  12.563  0.6517  0.7761 -0.4954
  988MOL0     C33284   1.136  12.292  12.534 -0.2580  1.0363  0.8841
  988MOL0     C33285   1.130  12.407  12.632 -0.1648  0.6918 -0.4229
  988MOL0     C33286   1.010  12.504  12.607 -1.2863 -0.0543  0.1837
  988MOL0     C33287   1.025  12.638  12.683  0.1480  0.3451  0.0262
  988MOL0     C33288   1.017  12.622  12.833  0.6668  1.1965 -0.2374
  988MOL0    Cl33289   1.025  12.791  12.911 -0.0203  0.4174  0.3490
  988MOL0     C33290   1.318  11.678  12.257 -0.5329  1.2279  0.1007
  988MOL0     C33291   1.268  11.611  12.140 -0.4210  0.3219 -0.5189
  988MOL0     O33292   1.261  11.511  11.876 -0.1035 -0.6857 -0.2629
  988MOL0     C33293   1.158  11.270  11.794  1.6405 -0.4854 -0.5632
  988MOL0     C33294   1.086  11.168  11.732  0.3537 -0.5084 -0.5195
  988MOL0     N33295   1.121  10.846  11.132  0.3190  0.0631 -0.5305
  988MOL0     N33296   1.151  10.812  11.015  0.1683  1.1444  0.2351
  988MOL0     C33297   0.325  10.070  10.616  0.4904 -0.2684 -0.9862
  988MOL0     C33298   0.262   9.971  10.678  0.3394  0.4490 -0.2494
  988MOL0     C33299   0.155   9.518  10.691 -0.9377 -0.0156 -0.0509
  988MOL0     C33300   0.085   9.519  10.805  0.5088 -0.5389 -0.6625
  988MOL0     C33301  -0.006   9.419  10.849 -0.3537  0.3488  0.7308
  988MOL0     C33302  -0.016   9.314  10.768  0.4765  0.3362 -0.3104
  988MOL0     O33303  -0.088   9.211  10.819 -0.0552  0.1838  0.0970
  988MOL0     C33304  -0.197   9.167  10.748  0.6635  0.1554  0.2319
  988MOL0     C33305  -0.315   9.251  10.774  0.4036  0.1084 -0.4178
  988MOL0     C33306  -0.369   9.242  10.914 -0.1936  0.8149  0.5083
  988MOL0     C33307  -0.508   9.300  10.923 -0.0967  0.2949 -0.5039
  988MOL0     C33308  -0.503   9.446  10.898  0.2963 -0.2731 -0.1429
  988MOL0     C33309  -0.489   9.557  10.847 -0.3634 -0.1563 -0.2754
  988MOL0     C33310   0.054   9.304  10.648 -0.5153  0.6498 -0.9569
  988MOL0     C33311   0.139   9.407  10.607 -0.9754 -0.1855 -0.5982
  988MOL0     C33312   0.200   9.394  10.465 -0.4238  0.2208 -0.1352
  988MOL0     H33313   0.506   9.742  10.699 -1.2695 -0.7164  1.0023
  988MOL0     H33314   0.644   9.955  10.645 -0.0170  1.8554 -4.2308
  988MOL0     H33315   0.494  10.244  10.400  1.7194 -0.4125 -0.4373
  988MOL0     H33316   0.404  10.328  10.532  0.3402  1.6521 -2.0451
  988MOL0     H33317   0.565  10.476  10.446  1.9988 -0.3057 -1.0636
  988MOL0     H33318   0.690  10.362  10.439  1.3306  0.6827  1.2359
  988MOL0     H33319   0.716  10.334  10.684 -0.6880 -0.5532 -0.7375
  988MOL0     H33320   0.561  10.422  10.710 -0.2275  2.7861 -1.0751
  988MOL0     H33321   0.669  10.631  10.639 -0.1956 -0.3888  0.5152
  988MOL0     H33322   0.752  10.566  10.782 -0.4713  0.4961 -0.0505
  988MOL0     H33323   0.940  10.481  10.651  1.4457 -0.1574 -1.1268
  988MOL0     H33324   0.865  10.522  10.509  3.3404 -1.6453  0.0195
  988MOL0     H33325   1.024  10.698  10.564 -0.6419  1.4568 -1.1214
  988MOL0     H33326   0.861  10.756  10.529  3.3890 -0.4819 -2.4137
  988MOL0     H33327   0.825  10.772  10.788 -0.9717 -1.5626 -2.2189
  988MOL0     H33328   0.961  10.882  10.728  0.8261 -0.7574  1.8735
  988MOL0     H33329   0.948  10.619  10.864 -0.4257  1.0912  0.2703
  988MOL0     H33330   1.100  10.675  10.795  0.9429  1.5739  1.1597
  988MOL0     H33331   0.823  10.790  11.027  0.5675  1.2093  0.4380
  988MOL0     H33332   0.935  10.977  11.314  1.5653  0.7982 -1.6560
  988MOL0     H33333   0.794  10.891  11.245  1.1945 -0.4789 -1.1899
  988MOL0     H33334   0.823  10.712  11.371  2.2949 -0.8080 -2.1468
  988MOL0     H33335   0.997  10.746  11.401  0.6100  1.7049 -1.3690
  988MOL0     H33336   0.802  10.789  11.592  0.9278 -0.1139  1.1969
  988MOL0     H33337   0.769  10.926  11.484  0.6492 -0.1321 -3.4304
  988MOL0     H33338   1.017  11.003  11.538  2.3718  0.2188  2.3097
  988MOL0     H33339   1.010  10.867  11.654 -0.2277  0.4113  0.2839
  988MOL0     H33340   0.778  11.246  11.808 -0.1279  0.4209 -2.3094
  988MOL0     H33341   0.878  11.431  11.917  0.8702 -0.9274  2.0899
  988MOL0     H33342   0.960  11.766  12.133 -0.0515 -0.0260 -0.4387
  988MOL0     H33343   1.048  11.890  12.320 -0.5751 -0.5780  0.3438
  988MOL0     H33344   1.379  12.045  12.391  0.4152 -0.1263  1.4552
  988MOL0     H33345   1.210  12.043  12.336  0.3845 -0.0626 -0.4570
  988MOL0     H33346   1.137  12.020  12.565 -0.7190  1.3124 -3.8998
  988MOL0     H33347   1.307  11.999  12.612  1.0257  0.6908 -2.0156
  988MOL0     H33348   1.291  12.225  12.666  1.0719 -2.2710 -0.1815
  988MOL0     H33349   1.346  12.236  12.502  1.0819 -2.6756 -1.3835
  988MOL0     H33350   1.041  12.238  12.533  0.2457  0.1288  0.6735
  988MOL0     H33351   1.147  12.344  12.438  0.3413 -1.9776 -0.8119
  988MOL0     H33352   1.225  12.461  12.626 -0.1484  0.5767 -1.3438
  988MOL0     H33353   1.119  12.368  12.734  1.9723  0.6258 -0.1723
  988MOL0     H33354   1.007  12.524  12.500 -0.7021  2.4959  0.5847
  988MOL0     H33355   0.917  12.453  12.634 -0.9453 -0.5362  0.4635
  988MOL0     H33356   0.944  12.706  12.658 -0.2284 -0.5010 -1.1373
  988MOL0     H33357   1.118  12.689  12.657 -1.6856  3.9276 -0.0801
  988MOL0     H33358   0.919  12.590  12.867  1.4436  1.5086  2.5529
  988MOL0     H33359   1.098  12.572  12.888 -0.6831  0.0926  0.8183
  988MOL0     H33360   1.415  11.654  12.300 -0.5576  1.7613  0.4638
  988MOL0     H33361   1.329  11.531  12.099  0.2070 -0.0560  1.0564
  988MOL0     H33362   1.266  11.263  11.781  1.6498 -0.7237 -0.3600
  988MOL0     H33363   1.149  11.086  11.699  0.2898  0.0566 -2.1437
  988MOL0     H33364   0.263  10.151  10.580 -1.1019 -2.2301 -2.8693
  988MOL0     H33365   0.156   9.965  10.701  0.9631 -0.0613  3.1313
  988MOL0     H33366   0.092   9.600  10.877  2.9271 -1.9563  0.8359
  988MOL0     H33367  -0.074   9.417  10.933 -2.7388 -0.9566 -1.1049
  988MOL0     H33368  -0.223   9.066  10.780 -2.1086 -0.2980 -2.9566
  988MOL0     H33369  -0.175   9.169  10.641  1.8614  0.7718  0.4667
  988MOL0     H33370  -0.397   9.222  10.709 -1.1061 -1.9601  2.1859
  988MOL0     H33371  -0.285   9.355  10.757 -0.4204  0.1665 -1.6174
  988MOL0     H33372  -0.297   9.294  10.978  2.7581 -0.7347 -1.3061
  988MOL0     H33373  -0.384   9.137  10.943  0.3122  0.7332  0.4835
  988MOL0     H33374  -0.567   9.255  10.843 -0.4896 -1.7533  0.8510
  988MOL0     H33375  -0.549   9.275  11.022 -0.2059 -1.4457 -0.9414
  988MOL0     H33376  -0.453   9.650  10.807  1.5112 -0.0003  1.6061
  988MOL0     H33377   0.026   9.234  10.571 -0.2518  0.0453 -0.5151
  988MOL0     H33378   0.196   9.294  10.420 -2.7205  0.0961  0.1850
  988MOL0     H33379   0.143   9.458  10.397 -1.2138  1.8753  1.9497
  988MOL0     H33380   0.306   9.421  10.461 -1.0933  3.0100 -1.3836
  989MOL0     O33381   4.165   4.407   1.525 -0.1147 -0.5172 -0.0605
  989MOL0     C33382   4.149   4.356   1.637  0.5560 -0.7156  0.7456
  989MOL0     O33383   4.253   4.330   1.721 -0.1066 -0.0434 -0.3248
  989MOL0     C33384   4.380   4.367   1.706  0.4457  0.7740  0.4612
  989MOL0     C33385   4.480   4.301   1.771 -0.1808  0.0135 -0.8033
  989MOL0     C33386   4.612   4.346   1.776 -0.3762  1.7206  1.0905
  989MOL0     C33387   4.644   4.468   1.720 -0.2369 -0.1377  0.4984
  989MOL0     O33388   4.777   4.500   1.733  0.4744  0.1660  0.7486
  989MOL0     C33389   4.823   4.632   1.740 -0.7255 -0.7732 -0.4574
  989MOL0     C33390   4.972   4.637   1.711 -0.3513  0.4068 -0.3962
  989MOL0     C33391   5.056   4.595   1.828 -0.0303  0.2713  0.8600
  989MOL0     C33392   5.192   4.543   1.773 -0.3648  0.4185 -0.0696
  989MOL0     C33393   5.277   4.500   1.892 -0.3646  0.3350 -0.4480
  989MOL0     C33394   5.414   4.454   1.824 -0.4677 -0.5781  0.2598
  989MOL0     C33395   5.512   4.382   1.919 -0.5462  0.0502  0.3836
  989MOL0     C33396   5.585   4.483   2.009 -0.4040 -0.6977  0.5802
  989MOL0     N33397   5.673   4.416   2.091  0.2317 -0.2309 -0.7805
  989MOL0     C33398   5.660   4.418   2.226 -0.8708  0.8235 -0.5099
  989MOL0     C33399   5.737   4.311   2.262 -0.2888  0.8479 -0.4723
  989MOL0     C33400   5.753   4.265   2.410 -0.7058 -0.4156  0.5697
  989MOL0     C33401   5.889   4.298   2.462  0.1632  0.0697 -0.7366
  989MOL0     C33402   5.925   4.244   2.607  0.0425 -1.0346 -0.5768
  989MOL0     C33403   5.894   4.358   2.711  0.3807  0.2239  0.4171
  989MOL0     O33404   5.959   4.336   2.838 -0.1957 -0.3107 -0.6094
  989MOL0     C33405   6.097   4.345   2.840  1.0885  0.3134 -0.2969
  989MOL0     C33406   6.157   4.271   2.940 -0.0776 -0.2109 -0.2731
  989MOL0     C33407   6.293   4.252   2.943  0.5028 -0.3564 -0.0522
  989MOL0     C33408   6.368   4.337   2.856  0.7043  0.8929 -0.3412
  989MOL0     C33409   6.512   4.341   2.860 -0.0159  0.0047  0.7950
  989MOL0     O33410   6.576   4.462   2.829  0.4859 -0.2457  0.2982
  989MOL0     C33411   6.711   4.470   2.826  0.1746 -0.9884 -0.7984
  989MOL0     C33412   6.767   4.518   2.709 -0.1347  0.9538  1.3616
  989MOL0     C33413   6.907   4.514   2.700 -0.3765 -0.5447  0.2495
  989MOL0     C33414   6.983   4.492   2.812  0.1991 -0.5941 -0.5684
  989MOL0     O33415   7.113   4.516   2.814 -0.1376 -0.0394  0.9271
  989MOL0     C33416   7.201   4.449   2.725 -0.0266 -0.1245  0.0940
  989MOL0     C33417   7.346   4.495   2.754 -0.5379 -0.0956  0.1327
  989MOL0     C33418   7.431   4.459   2.641  0.3547 -0.1536  0.0880
  989MOL0     C33419   7.569   4.502   2.665  0.1566  0.0669  0.6360
  989MOL0     C33420   7.658   4.441   2.548  0.6241 -0.0639 -0.3168
  989MOL0     C33421   7.805   4.469   2.562 -0.7297 -0.2758 -0.8108
  989MOL0     C33422   7.889   4.377   2.462  0.4182 -0.0626  0.2814
  989MOL0     C33423   8.031   4.413   2.454 -0.3242 -0.7909  0.8324
  989MOL0    Cl33424   8.094   4.413   2.621 -0.2410 -0.0785  0.1804
  989MOL0     C33425   6.924   4.451   2.935  0.1260 -1.2380 -0.6110
  989MOL0     C33426   6.788   4.434   2.934  0.3590  0.1282 -0.7137
  989MOL0     O33427   6.567   4.232   2.863 -0.3407 -0.8084 -0.2226
  989MOL0     C33428   6.304   4.413   2.756 -0.3268 -0.5204 -0.0649
  989MOL0     C33429   6.167   4.412   2.746 -0.3420 -0.0067 -0.0600
  989MOL0     N33430   5.816   4.263   2.165 -0.2522  0.1892  0.2617
  989MOL0     N33431   5.771   4.318   2.054  0.3555 -0.0832  0.3679
  989MOL0     C33432   4.545   4.548   1.659 -0.4138  1.3829 -0.1930
  989MOL0     C33433   4.421   4.493   1.641 -0.0629 -0.3253 -0.6533
  989MOL0     C33434   4.011   4.323   1.688 -0.1905  0.5305  0.0147
  989MOL0     C33435   3.993   4.227   1.791  0.1395 -0.0625 -0.0550
  989MOL0     C33436   3.865   4.184   1.828  0.2229  0.1082  0.1632
  989MOL0     C33437   3.741   4.232   1.767 -0.6927  0.4381 -0.1879
  989MOL0     O33438   3.606   4.209   1.803  0.5403 -0.2540 -0.4271
  989MOL0     C33439   3.586   4.132   1.919  0.1229 -0.1617 -0.7176
  989MOL0     C33440   3.440   4.128   1.959 -0.9895 -0.3756  0.5576
  989MOL0     C33441   3.398   4.043   2.083  0.2694 -0.3948  0.0750
  989MOL0     C33442   3.396   3.898   2.039 -0.5352 -0.4878 -0.4668
  989MOL0     C33443   3.264   3.850   2.001 -0.5632  0.5625 -0.1687
  989MOL0     C33444   3.158   3.798   1.973 -0.0888 -0.2285  0.4346
  989MOL0     C33445   3.761   4.332   1.676  0.7630  0.0207 -0.9490
  989MOL0     C33446   3.888   4.378   1.636  0.0694  0.5337 -0.1382
  989MOL0     C33447   3.893   4.479   1.523  0.6502 -0.7161  0.1358
  989MOL0     H33448   4.447   4.210   1.821  3.1167  1.3499  4.6512
  989MOL0     H33449   4.696   4.296   1.824 -0.2146  0.2715 -0.5701
  989MOL0     H33450   4.779   4.693   1.661  1.6836  2.4096  0.4633
  989MOL0     H33451   4.794   4.679   1.834 -1.9040 -1.4359 -0.4680
  989MOL0     H33452   5.006   4.737   1.683  2.0935 -0.1849  0.1322
  989MOL0     H33453   4.996   4.565   1.632 -0.2994 -1.8083  1.5328
  989MOL0     H33454   5.012   4.508   1.876 -0.8556 -1.1814 -2.2640
  989MOL0     H33455   5.076   4.679   1.896  4.1829  0.6851 -0.5541
  989MOL0     H33456   5.175   4.461   1.703 -2.3929 -0.9132  1.8580
  989MOL0     H33457   5.242   4.622   1.715  0.0984  2.1184  2.4902
  989MOL0     H33458   5.315   4.581   1.955 -0.4805  1.2559 -1.5333
  989MOL0     H33459   5.231   4.414   1.942 -1.2612  0.0504 -1.7196
  989MOL0     H33460   5.387   4.396   1.735  2.9205  0.3185 -1.5312
  989MOL0     H33461   5.471   4.538   1.784  2.1798 -1.7997  1.2485
  989MOL0     H33462   5.579   4.319   1.860  0.9422  1.5438  0.4181
  989MOL0     H33463   5.458   4.310   1.981  3.3295 -4.5482 -1.0188
  989MOL0     H33464   5.647   4.548   1.946 -0.9117 -0.7253  0.0375
  989MOL0     H33465   5.520   4.542   2.074 -3.5797 -1.3870 -1.7490
  989MOL0     H33466   5.594   4.472   2.294 -0.4227  2.2086 -1.1332
  989MOL0     H33467   5.679   4.312   2.475  0.1839  0.9490  0.6437
  989MOL0     H33468   5.739   4.156   2.411  0.8654 -0.6443  0.1789
  989MOL0     H33469   5.969   4.248   2.406  1.6785 -1.7898  2.7737
  989MOL0     H33470   5.910   4.405   2.463  0.5275  0.0031  0.9168
  989MOL0     H33471   6.028   4.210   2.612 -0.7596 -3.6644 -0.5549
  989MOL0     H33472   5.861   4.162   2.639 -0.2468 -0.3209  0.7330
  989MOL0     H33473   5.785   4.370   2.719  0.1392 -1.0915 -0.4735
  989MOL0     H33474   5.925   4.456   2.674  0.6051  0.5500  1.4619
  989MOL0     H33475   6.089   4.227   3.012  1.1080  0.2675  1.1877
  989MOL0     H33476   6.338   4.174   3.003  1.5925 -0.8150 -1.3923
  989MOL0     H33477   6.713   4.549   2.621 -1.9328  0.8858  2.3939
  989MOL0     H33478   6.951   4.536   2.603  0.9285 -0.7995  0.7600
  989MOL0     H33479   7.202   4.340   2.719  0.5498 -0.0691 -3.9834
  989MOL0     H33480   7.164   4.475   2.625 -1.5200 -1.5591  0.2333
  989MOL0     H33481   7.360   4.604   2.762 -0.2980 -0.1382  0.3363
  989MOL0     H33482   7.390   4.444   2.840 -1.5494 -1.9061 -0.3923
  989MOL0     H33483   7.415   4.353   2.619 -3.6531  0.7091 -2.2140
  989MOL0     H33484   7.402   4.513   2.550 -3.5397 -1.0108  0.6589
  989MOL0     H33485   7.602   4.462   2.762  2.0899  0.7758  0.3220
  989MOL0     H33486   7.579   4.611   2.675  1.7815 -0.0554  0.6699
  989MOL0     H33487   7.626   4.482   2.453 -0.4189 -0.2777 -0.0664
  989MOL0     H33488   7.643   4.332   2.549  1.8748 -0.2653  1.2302
  989MOL0     H33489   7.825   4.573   2.534  0.2128 -1.2090 -4.1038
  989MOL0     H33490   7.837   4.450   2.665  2.9060  0.0216 -1.7336
  989MOL0     H33491   7.847   4.386   2.362  0.0148 -0.3069  0.4274
  989MOL0     H33492   7.875   4.272   2.488  0.2693  0.1936  1.2831
  989MOL0     H33493   8.088   4.334   2.404  0.0850 -0.6720  1.1004
  989MOL0     H33494   8.041   4.509   2.403  1.0093 -1.3703 -0.0635
  989MOL0     H33495   6.989   4.423   3.018 -0.4120 -0.2339  0.1802
  989MOL0     H33496   6.746   4.398   3.028  1.5050 -1.8369 -0.8964
  989MOL0     H33497   6.357   4.484   2.692 -0.6807  1.7369  2.0021
  989MOL0     H33498   6.116   4.477   2.675 -2.4034  4.1055  4.6092
  989MOL0     H33499   4.560   4.648   1.619 -2.3504  2.7102  2.1534
  989MOL0     H33500   4.348   4.552   1.585 -0.8245 -3.1646 -2.9108
  989MOL0     H33501   4.070   4.179   1.850 -0.1557  1.5250  1.7185
  989MOL0     H33502   3.864   4.101   1.899 -0.6593  0.0198  0.0649
  989MOL0     H33503   3.642   4.156   2.010 -1.4911 -4.7864  1.8431
  989MOL0     H33504   3.623   4.031   1.900  0.2687 -0.4898  1.1189
  989MOL0     H33505   3.383   4.107   1.868 -0.8013  0.4620  0.2324
  989MOL0     H33506   3.413   4.231   1.982 -1.8693 -0.4516 -0.1261
  989MOL0     H33507   3.309   4.082   2.133  0.5065 -0.5487  0.6268
  989MOL0     H33508   3.476   4.043   2.160 -1.3400 -2.1223  1.8059
  989MOL0     H33509   3.474   3.871   1.966 -1.0486 -4.1283  0.1409
  989MOL0     H33510   3.442   3.842   2.122 -0.4442  2.1423  1.3719
  989MOL0     H33511   3.061   3.762   1.944  0.0612 -0.5709  0.3538
  989MOL0     H33512   3.679   4.377   1.621 -1.0043 -2.1665 -0.2326
  989MOL0     H33513   3.900   4.439   1.422  0.7171 -0.8859  0.2082
  989MOL0     H33514   3.800   4.536   1.514  1.1525 -0.1317 -1.6866
  989MOL0     H33515   3.973   4.547   1.553  3.0472 -1.2621 -4.2729
  990MOL0     O33516   0.311   0.663   0.178  0.1218 -0.1757  0.4107
  990MOL0     C33517   0.421   0.613   0.209  0.0183  0.7438  0.4068
  990MOL0     O33518   0.533   0.698   0.231 -0.5838  0.0559  0.6138
  990MOL0     C33519   0.532   0.830   0.210  0.6027  0.0876  0.0976
  990MOL0     C33520   0.460   0.920   0.283  0.9441  1.5791 -0.1376
  990MOL0     C33521   0.457   1.054   0.245 -0.5979  0.1629  0.0467
  990MOL0     C33522   0.546   1.103   0.144 -0.3451 -0.7480  0.0162
  990MOL0     O33523   0.553   1.234   0.102  0.2020  0.1738 -0.3862
  990MOL0     C33524   0.462   1.329   0.157  0.6064  0.4557  0.4501
  990MOL0     C33525   0.498   1.462   0.103 -0.8264 -0.1745 -0.5091
  990MOL0     C33526   0.646   1.509   0.118  0.6423  0.4016 -0.3195
  990MOL0     C33527   0.666   1.653   0.078 -0.6239 -0.1860  0.3755
  990MOL0     C33528   0.668   1.662  -0.073 -0.4767 -0.3344  0.7525
  990MOL0     C33529   0.719   1.803  -0.110 -0.5393 -0.4570  0.4573
  990MOL0     C33530   0.703   1.838  -0.257 -0.4584  0.6041 -1.2397
  990MOL0     C33531   0.822   1.784  -0.339 -0.1671  0.1600  0.6730
  990MOL0     N33532   0.921   1.885  -0.350  0.4444  0.9865 -0.1881
  990MOL0     C33533   1.039   1.893  -0.275 -0.1851  0.1528 -0.1817
  990MOL0     C33534   1.114   1.994  -0.336  0.2311 -0.2352 -0.1003
  990MOL0     C33535   1.255   2.034  -0.303  0.5439  0.1161 -0.4078
  990MOL0     C33536   1.333   2.061  -0.434 -0.6354 -0.3640 -0.4758
  990MOL0     C33537   1.382   1.919  -0.484 -0.1986  0.5179 -0.3305
  990MOL0     C33538   1.464   1.924  -0.616  1.1543  0.2375  0.1001
  990MOL0     O33539   1.597   1.958  -0.583  0.1248  0.2815 -0.0530
  990MOL0     C33540   1.646   2.085  -0.615  0.3455  0.3963  0.6827
  990MOL0     C33541   1.593   2.168  -0.717  0.6781  0.7460  1.2745
  990MOL0     C33542   1.626   2.300  -0.738  0.0613  0.0153  0.1203
  990MOL0     C33543   1.742   2.344  -0.678 -0.5492 -0.2734 -0.2874
  990MOL0     C33544   1.795   2.472  -0.713  0.8085 -1.2054 -1.0524
  990MOL0     O33545   1.780   2.516  -0.849 -0.1447  0.8849 -0.1204
  990MOL0     C33546   1.840   2.635  -0.885  0.8661 -0.0433 -0.1758
  990MOL0     C33547   1.973   2.664  -0.893 -0.4958  0.3327  0.3053
  990MOL0     C33548   2.023   2.787  -0.930 -0.2790  0.6188  0.5897
  990MOL0     C33549   1.929   2.886  -0.959 -0.1165 -0.2945  0.0558
  990MOL0     O33550   1.960   3.016  -0.989 -0.3663 -0.7450 -0.5129
  990MOL0     C33551   2.090   3.059  -0.952  0.1054  0.2445  1.1642
  990MOL0     C33552   2.109   3.201  -0.988  0.7968 -1.0203 -0.4692
  990MOL0     C33553   2.249   3.257  -0.967 -0.0801 -0.3152  0.1956
  990MOL0     C33554   2.347   3.222  -1.082  0.2068  0.0093  1.2185
  990MOL0     C33555   2.472   3.313  -1.090 -0.4469  0.6807  0.2772
  990MOL0     C33556   2.556   3.261  -1.212  0.5287  0.3315 -0.0677
  990MOL0     C33557   2.705   3.307  -1.228 -1.5057 -0.0182  0.4948
  990MOL0     C33558   2.809   3.292  -1.115  0.2841  0.2819  0.7163
  990MOL0    Cl33559   2.857   3.121  -1.123 -0.1943  0.0242  0.0525
  990MOL0     C33560   1.795   2.860  -0.961 -0.0370  0.1876 -0.2251
  990MOL0     C33561   1.752   2.736  -0.917  1.1188  1.4728  0.1051
  990MOL0     O33562   1.855   2.537  -0.628  0.6462 -0.2839 -0.1281
  990MOL0     C33563   1.800   2.269  -0.569 -0.1232  0.1659  0.4369
  990MOL0     C33564   1.743   2.141  -0.532  0.7460 -0.3162 -0.7758
  990MOL0     N33565   1.042   2.044  -0.442  0.4375 -0.4833 -0.5126
  990MOL0     N33566   0.925   1.981  -0.444  0.1057  0.2021  0.4468
  990MOL0     C33567   0.634   1.020   0.078 -0.0497  0.1508  0.2090
  990MOL0     C33568   0.625   0.879   0.108  0.9775 -0.2132 -0.4763
  990MOL0     C33569   0.445   0.467   0.220 -0.4890 -0.2033  0.0663
  990MOL0     C33570   0.568   0.421   0.266 -0.7953 -0.9533  0.0483
  990MOL0     C33571   0.604   0.291   0.266 -0.8459 -0.1009  0.0061
  990MOL0     C33572   0.514   0.196   0.219 -0.1016 -0.1241  1.0056
  990MOL0     O33573   0.559   0.066   0.204 -0.1508 -0.0127 -0.2743
  990MOL0     C33574   0.471  -0.038   0.169 -0.1785 -0.6630 -0.0316
  990MOL0     C33575   0.557  -0.152   0.117 -0.3117 -0.0979 -0.0455
  990MOL0     C33576   0.615  -0.135  -0.025  0.1292  0.1669 -0.2822
  990MOL0     C33577   0.654  -0.273  -0.087 -0.6345  0.7191  0.1735
  990MOL0     C33578   0.539  -0.368  -0.099 -0.8387  0.6883 -0.3112
  990MOL0     C33579   0.463  -0.466  -0.108  0.6627 -0.7290  1.5094
  990MOL0     C33580   0.387   0.238   0.193  0.0579  0.5983 -0.3072
  990MOL0     C33581   0.347   0.371   0.180 -0.3810  0.4417  1.2880
  990MOL0     C33582   0.215   0.404   0.118  1.2790  0.4313  0.7382
  990MOL0     H33583   0.409   0.881   0.371 -1.2044 -1.3102 -2.4880
  990MOL0     H33584   0.393   1.128   0.293 -0.3503  1.1951 -1.1662
  990MOL0     H33585   0.360   1.290   0.147  0.4671  0.5396  1.4538
  990MOL0     H33586   0.468   1.342   0.265  0.7772  0.0502  0.4924
  990MOL0     H33587   0.440   1.538   0.156 -1.3156  0.3131 -1.7134
  990MOL0     H33588   0.467   1.463  -0.002 -0.8406  1.9432 -0.5350
  990MOL0     H33589   0.701   1.437   0.056 -2.7465 -0.5761 -2.5096
  990MOL0     H33590   0.681   1.516   0.221  1.2065  0.6772 -0.5230
  990MOL0     H33591   0.593   1.715   0.130 -1.4624 -1.2391  0.4767
  990MOL0     H33592   0.762   1.681   0.123 -0.8072 -1.3150  1.5479
  990MOL0     H33593   0.721   1.580  -0.120 -1.8661 -1.2510  0.7122
  990MOL0     H33594   0.564   1.649  -0.106 -0.6215 -3.2976  2.1118
  990MOL0     H33595   0.650   1.872  -0.059 -2.3671 -1.5233 -0.4983
  990MOL0     H33596   0.818   1.814  -0.063 -1.2114  2.5306  1.4066
  990MOL0     H33597   0.690   1.946  -0.260 -2.8902  0.3513 -2.1628
  990MOL0     H33598   0.614   1.802  -0.310  0.5714 -0.9453 -2.0128
  990MOL0     H33599   0.865   1.690  -0.301 -0.5908  0.2319  1.3450
  990MOL0     H33600   0.789   1.769  -0.442 -3.9557 -0.4247  1.8424
  990MOL0     H33601   1.072   1.840  -0.186  3.0907  1.8160 -0.2705
  990MOL0     H33602   1.253   2.128  -0.245  0.1880 -2.0669  3.4825
  990MOL0     H33603   1.294   1.952  -0.242 -1.4961 -2.7104 -2.6637
  990MOL0     H33604   1.276   2.112  -0.513  1.1171  2.3880 -0.1090
  990MOL0     H33605   1.416   2.128  -0.410  0.4601 -1.1586 -1.8298
  990MOL0     H33606   1.298   1.854  -0.510  0.3108  1.1222 -4.0909
  990MOL0     H33607   1.445   1.872  -0.408 -1.2383  0.0916  0.2829
  990MOL0     H33608   1.401   1.984  -0.684 -0.2370  0.6190  1.6636
  990MOL0     H33609   1.474   1.826  -0.662 -0.2792  0.8858 -1.7453
  990MOL0     H33610   1.512   2.131  -0.778  1.4514  0.2203  0.5352
  990MOL0     H33611   1.580   2.367  -0.811 -2.5414  1.0768  2.5358
  990MOL0     H33612   2.036   2.578  -0.874 -3.6645 -2.5550 -1.1354
  990MOL0     H33613   2.130   2.806  -0.936 -0.3645  0.7914 -0.9407
  990MOL0     H33614   2.110   3.048  -0.845 -0.2536 -1.7076  1.0669
  990MOL0     H33615   2.164   3.012  -1.018 -0.8938  3.0984 -2.2924
  990MOL0     H33616   2.066   3.208  -1.088 -1.5000 -0.4177  0.4785
  990MOL0     H33617   2.035   3.253  -0.926  1.1027 -0.0479 -0.9058
  990MOL0     H33618   2.238   3.366  -0.964  2.5092  0.0339 -0.9489
  990MOL0     H33619   2.276   3.213  -0.871 -0.9318  0.9444  1.0531
  990MOL0     H33620   2.289   3.209  -1.174 -2.1838 -0.1434  2.6342
  990MOL0     H33621   2.378   3.118  -1.069 -0.5523 -0.6380 -1.5141
  990MOL0     H33622   2.532   3.307  -0.999 -2.1319  3.3431  1.7297
  990MOL0     H33623   2.450   3.420  -1.101 -0.9594  0.8422  2.3056
  990MOL0     H33624   2.557   3.152  -1.214 -2.0576  0.2525 -0.2272
  990MOL0     H33625   2.507   3.298  -1.302  0.4582 -2.4858 -1.2641
  990MOL0     H33626   2.698   3.411  -1.262 -1.4380  0.3864  1.6855
  990MOL0     H33627   2.737   3.249  -1.316 -1.1193 -2.8316  2.3706
  990MOL0     H33628   2.893   3.361  -1.129 -0.5393  1.6969  2.4472
  990MOL0     H33629   2.778   3.328  -1.017 -0.6984 -1.0711  0.9306
  990MOL0     H33630   1.723   2.940  -0.979  0.6249  0.7270 -0.5114
  990MOL0     H33631   1.645   2.728  -0.908  0.7424  4.1985 -0.9562
  990MOL0     H33632   1.886   2.304  -0.513  0.9992 -1.0289 -0.4834
  990MOL0     H33633   1.794   2.093  -0.448  1.8555  1.4945 -0.3606
  990MOL0     H33634   0.702   1.062   0.005 -2.5227  3.0950 -0.5882
  990MOL0     H33635   0.702   0.817   0.064  0.3049 -0.6213 -1.0967
  990MOL0     H33636   0.644   0.493   0.292 -0.9480 -0.5999 -0.4705
  990MOL0     H33637   0.697   0.263   0.314  0.7506  4.4174  0.0891
  990MOL0     H33638   0.401  -0.013   0.089  0.5598 -1.6698 -1.0309
  990MOL0     H33639   0.418  -0.074   0.258  0.8015  3.2490  2.3382
  990MOL0     H33640   0.491  -0.239   0.125  0.8742 -0.8615  2.9327
  990MOL0     H33641   0.641  -0.163   0.187 -1.8109  1.5936  2.1606
  990MOL0     H33642   0.711  -0.083  -0.029  1.4670 -2.1297 -0.0676
  990MOL0     H33643   0.543  -0.079  -0.086  0.5111 -0.3492 -1.2187
  990MOL0     H33644   0.705  -0.266  -0.183  0.9385  1.4919  1.0395
  990MOL0     H33645   0.732  -0.309  -0.021  2.7039  4.3456 -1.4188
  990MOL0     H33646   0.399  -0.546  -0.139 -1.6314  1.7801 -0.6653
  990MOL0     H33647   0.311   0.163   0.171 -1.6196  1.4264  2.2695
  990MOL0     H33648   0.226   0.458   0.024 -1.8351 -1.9276 -1.2147
  990MOL0     H33649   0.157   0.311   0.113  0.8844  0.7283 -1.6337
  990MOL0     H33650   0.155   0.470   0.181 -0.8626 -0.1379 -0.5616
  991MOL0     O33651   5.288   6.226   7.077  0.2671  0.0292 -0.1647
  991MOL0     C33652   5.354   6.128   7.046  0.4518 -0.4692 -0.3451
  991MOL0     O33653   5.341   6.015   7.124 -0.8672  0.1007  1.4253
  991MOL0     C33654   5.223   5.991   7.191  0.8931 -0.8156  0.6360
  991MOL0     C33655   5.181   6.065   7.299  0.2493 -0.0384 -0.0287
  991MOL0     C33656   5.052   6.057   7.333  0.9008  0.8038 -0.3250
  991MOL0     C33657   4.955   5.967   7.276  0.3290  0.9369 -0.2193
  991MOL0     O33658   4.817   5.972   7.294  0.5608  0.3660 -0.1835
  991MOL0     C33659   4.768   6.052   7.402  0.2017 -0.2739 -0.4318
  991MOL0     C33660   4.660   6.147   7.354 -0.6811 -0.0948 -0.8371
  991MOL0     C33661   4.646   6.271   7.457  0.9171 -0.0911  0.5681
  991MOL0     C33662   4.533   6.361   7.410 -0.5557 -0.7466 -0.6633
  991MOL0     C33663   4.545   6.510   7.448  0.6984  0.6980 -0.8193
  991MOL0     C33664   4.671   6.576   7.389  0.0651 -0.8719  0.4179
  991MOL0     C33665   4.662   6.728   7.407 -0.5383  0.2158  0.3159
  991MOL0     C33666   4.655   6.756   7.556 -0.1063  0.1337 -0.3110
  991MOL0     N33667   4.662   6.897   7.599 -1.0946 -0.5661 -0.3341
  991MOL0     C33668   4.581   7.000   7.566 -0.6487 -0.2365  0.6596
  991MOL0     C33669   4.617   7.119   7.623  0.1710  0.0759 -0.1485
  991MOL0     C33670   4.542   7.246   7.624 -0.7915 -0.2101 -0.2786
  991MOL0     C33671   4.619   7.330   7.523 -0.4299 -0.0635  0.1382
  991MOL0     C33672   4.520   7.428   7.444 -0.1114 -0.3584 -0.6709
  991MOL0     C33673   4.501   7.568   7.512  0.0846 -0.9972  0.7402
  991MOL0     O33674   4.418   7.653   7.421 -0.2583  0.4209 -0.5571
  991MOL0     C33675   4.426   7.787   7.448 -0.2208 -0.9791 -0.2205
  991MOL0     C33676   4.392   7.841   7.571  0.7217  0.4359 -0.0222
  991MOL0     C33677   4.400   7.972   7.597 -0.1977  0.1113  0.4407
  991MOL0     C33678   4.432   8.065   7.490  0.7215 -0.9025 -0.8051
  991MOL0     C33679   4.414   8.213   7.517 -0.0004 -0.1180  0.0351
  991MOL0     O33680   4.470   8.289   7.424  0.0592 -0.2096  1.1942
  991MOL0     C33681   4.488   8.422   7.431  0.0239 -0.2839  0.0413
  991MOL0     C33682   4.478   8.508   7.542  0.6969 -0.1549 -0.3563
  991MOL0     C33683   4.508   8.650   7.530  0.0467 -0.7950  0.1959
  991MOL0     C33684   4.556   8.707   7.406  0.3631  0.4646 -0.2347
  991MOL0     O33685   4.592   8.836   7.385 -0.7177  0.3377 -0.4638
  991MOL0     C33686   4.639   8.906   7.509  0.0681  0.5204 -0.3346
  991MOL0     C33687   4.769   8.844   7.563  1.1121 -0.0140  0.3119
  991MOL0     C33688   4.817   8.902   7.692  0.8251 -0.5733  0.7181
  991MOL0     C33689   4.922   8.803   7.754  0.0816  0.0457  0.7098
  991MOL0     C33690   4.969   8.870   7.880  0.6662  0.5348 -0.2499
  991MOL0     C33691   5.107   8.825   7.929  0.3290 -0.3776 -0.0954
  991MOL0     C33692   5.222   8.875   7.835  0.2754 -0.1929 -0.6510
  991MOL0     C33693   5.365   8.854   7.896 -0.1616  0.4679  0.4535
  991MOL0    Cl33694   5.407   8.671   7.915 -0.1870 -0.2950 -0.3116
  991MOL0     C33695   4.557   8.618   7.299 -1.1257  0.2815 -0.0783
  991MOL0     C33696   4.525   8.484   7.310 -0.0456  0.8506 -0.0296
  991MOL0     O33697   4.362   8.243   7.620 -0.9331 -0.9628  1.0192
  991MOL0     C33698   4.476   8.015   7.370 -0.0043  0.0050  0.3667
  991MOL0     C33699   4.485   7.876   7.359  0.3140  0.2572  0.3127
  991MOL0     N33700   4.744   7.089   7.686  0.2745  0.0460  0.9303
  991MOL0     N33701   4.771   6.958   7.667  0.4573 -0.5366 -0.1900
  991MOL0     C33702   5.004   5.884   7.176  1.1190  0.5565  0.1255
  991MOL0     C33703   5.138   5.898   7.132  0.7181  0.1747 -0.0696
  991MOL0     C33704   5.461   6.135   6.937  0.1802 -0.4453 -0.7269
  991MOL0     C33705   5.581   6.074   6.969  0.4305  0.7867 -0.0785
  991MOL0     C33706   5.681   6.076   6.879 -0.1448  0.2186  0.3979
  991MOL0     C33707   5.678   6.136   6.754 -0.3947 -0.9506  0.4381
  991MOL0     O33708   5.777   6.142   6.657 -0.3415 -0.0870 -0.9000
  991MOL0     C33709   5.763   6.030   6.570  0.5230  0.4933  0.2127
  991MOL0     C33710   5.834   5.895   6.624 -0.0192 -0.4813 -1.1347
  991MOL0     C33711   5.989   5.927   6.631  0.9325  0.4418  0.0711
  991MOL0     C33712   6.050   5.829   6.732 -0.0783 -0.0642  0.1395
  991MOL0     C33713   6.034   5.864   6.875  0.4493 -0.5637  0.6218
  991MOL0     C33714   5.995   5.876   6.989 -0.3729 -0.2028 -1.1752
  991MOL0     C33715   5.552   6.198   6.726  0.2548  0.2470 -0.9475
  991MOL0     C33716   5.445   6.190   6.816  0.2642 -0.1678  0.0647
  991MOL0     C33717   5.305   6.251   6.773 -0.4263  0.6537 -0.2981
  991MOL0     H33718   5.236   6.148   7.342 -1.1595  0.2784  1.2240
  991MOL0     H33719   5.014   6.133   7.401 -0.1983  0.4379 -0.5151
  991MOL0     H33720   4.716   5.979   7.464 -0.3180 -1.0175 -1.6892
  991MOL0     H33721   4.831   6.097   7.479  1.4225  1.2623 -2.2459
  991MOL0     H33722   4.574   6.080   7.349  0.3492 -1.3519 -4.1032
  991MOL0     H33723   4.689   6.172   7.252 -1.4560  1.0476 -0.7837
  991MOL0     H33724   4.739   6.328   7.466  1.0788  0.1201 -1.7984
  991MOL0     H33725   4.603   6.236   7.551 -1.7518  1.0785 -0.1111
  991MOL0     H33726   4.517   6.360   7.302  1.4726  2.3512 -1.1128
  991MOL0     H33727   4.444   6.321   7.460  1.0309 -2.7672  0.7292
  991MOL0     H33728   4.456   6.553   7.401 -0.2014 -2.1894 -1.9430
  991MOL0     H33729   4.558   6.523   7.555  3.7979 -1.6306 -0.7956
  991MOL0     H33730   4.761   6.536   7.437  0.1736 -1.6065 -0.3716
  991MOL0     H33731   4.684   6.566   7.281  0.2552  1.2317  0.2095
  991MOL0     H33732   4.585   6.779   7.348 -2.8345 -3.8195 -0.5381
  991MOL0     H33733   4.754   6.771   7.365 -2.1082  1.8733 -1.6460
  991MOL0     H33734   4.555   6.730   7.591 -0.3159 -2.2401 -2.3851
  991MOL0     H33735   4.744   6.711   7.602 -0.9834 -0.7246  0.5941
  991MOL0     H33736   4.494   6.993   7.502  1.9920  1.1513 -3.4467
  991MOL0     H33737   4.440   7.216   7.596  0.2234 -3.2107 -1.2577
  991MOL0     H33738   4.546   7.303   7.717  0.5807  1.7337 -1.4523
  991MOL0     H33739   4.698   7.393   7.565  1.5494 -0.6850 -2.4137
  991MOL0     H33740   4.660   7.266   7.444  0.6149  0.7691 -0.0143
  991MOL0     H33741   4.427   7.372   7.434  0.8150 -2.1002 -0.0589
  991MOL0     H33742   4.556   7.433   7.341 -1.0744  0.9631 -0.9623
  991MOL0     H33743   4.596   7.612   7.543  0.2013  0.0363 -0.9198
  991MOL0     H33744   4.447   7.544   7.603  0.0250  1.6586  1.4857
  991MOL0     H33745   4.356   7.765   7.640 -1.6464  0.9986 -0.5731
  991MOL0     H33746   4.378   8.008   7.697 -3.2119  3.2970 -1.1607
  991MOL0     H33747   4.428   8.465   7.629 -2.2282  0.0909 -1.8106
  991MOL0     H33748   4.505   8.706   7.623 -0.6993 -2.1625  1.0195
  991MOL0     H33749   4.653   9.011   7.484 -0.2761  0.4959 -0.6446
  991MOL0     H33750   4.563   8.908   7.587 -2.2474 -0.9388 -2.3802
  991MOL0     H33751   4.759   8.736   7.576 -0.7006  0.1107  0.2329
  991MOL0     H33752   4.855   8.862   7.498  1.3429 -1.9859  0.0002
  991MOL0     H33753   4.853   9.004   7.675  1.4380 -0.9438 -0.2958
  991MOL0     H33754   4.739   8.902   7.768 -0.8142  1.3530 -0.8342
  991MOL0     H33755   5.006   8.784   7.686 -0.8114 -1.0272 -0.1440
  991MOL0     H33756   4.874   8.708   7.777  1.8054 -1.4616 -1.5076
  991MOL0     H33757   4.896   8.864   7.961  2.5796 -1.8981  1.4533
  991MOL0     H33758   4.990   8.976   7.867  3.2296 -0.0199 -1.2743
  991MOL0     H33759   5.123   8.873   8.025  0.7421  2.0295 -1.2875
  991MOL0     H33760   5.112   8.715   7.932 -1.0874 -0.4644 -0.0439
  991MOL0     H33761   5.214   8.979   7.802 -0.2055  0.1593  0.5122
  991MOL0     H33762   5.218   8.812   7.745  2.9698  1.5786 -2.1531
  991MOL0     H33763   5.443   8.904   7.837 -0.5964  1.7578  0.9380
  991MOL0     H33764   5.361   8.905   7.993 -0.5589 -0.5245  0.9796
  991MOL0     H33765   4.586   8.660   7.203  0.6340  1.1671  0.7941
  991MOL0     H33766   4.555   8.427   7.223  0.9925  2.7643 -0.9914
  991MOL0     H33767   4.502   8.079   7.287 -1.2929  2.7580  1.9507
  991MOL0     H33768   4.526   7.822   7.274  1.6206 -0.8198  1.5833
  991MOL0     H33769   4.947   5.825   7.105  2.3185 -3.0167  1.8831
  991MOL0     H33770   5.173   5.834   7.051 -1.6566 -3.1245  1.2958
  991MOL0     H33771   5.586   6.027   7.066 -0.0270  2.3567  0.7378
  991MOL0     H33772   5.767   6.011   6.897  0.3400  0.9532  0.8045
  991MOL0     H33773   5.808   6.054   6.473 -0.8354 -0.5241 -0.7076
  991MOL0     H33774   5.660   6.025   6.536  0.9897  2.1772 -1.6938
  991MOL0     H33775   5.807   5.803   6.573  1.0359 -0.5587 -1.5768
  991MOL0     H33776   5.796   5.884   6.726 -0.6244  0.6299 -1.2148
  991MOL0     H33777   5.992   6.030   6.667 -2.7303  0.3441  1.1128
  991MOL0     H33778   6.038   5.913   6.534  0.2897  0.8862 -0.3237
  991MOL0     H33779   6.002   5.732   6.711  0.1743  0.1928 -1.8492
  991MOL0     H33780   6.156   5.809   6.714  0.6002  1.1866  2.4832
  991MOL0     H33781   5.965   5.875   7.092  0.8979  0.2846 -0.7829
  991MOL0     H33782   5.528   6.247   6.632 -2.5291  0.0233 -0.4600
  991MOL0     H33783   5.300   6.275   6.667 -2.7170 -0.7589 -0.5832
  991MOL0     H33784   5.217   6.191   6.797 -0.4036  0.1855 -1.3634
  991MOL0     H33785   5.304   6.351   6.819  2.2378  1.8800 -2.6263
  992MOL0     O33786   8.120   3.957   5.788 -0.0107  0.2361  0.8433
  992MOL0     C33787   8.101   4.027   5.685  0.0590 -0.0645 -1.1470
  992MOL0     O33788   8.201   4.094   5.622 -0.2240  0.5693  0.4060
  992MOL0     C33789   8.330   4.083   5.659 -1.1871  0.4825  0.4321
  992MOL0     C33790   8.384   4.127   5.789  0.3898 -0.4832 -0.2467
  992MOL0     C33791   8.520   4.129   5.807 -1.4011  0.2138  0.5331
  992MOL0     C33792   8.605   4.079   5.702 -0.0977 -0.6267 -0.1262
  992MOL0     O33793   8.733   4.102   5.710 -0.1168  0.1306 -0.7010
  992MOL0     C33794   8.803   4.001   5.795  0.0689  0.7233  0.1188
  992MOL0     C33795   8.952   4.040   5.788 -0.3865  0.5179  0.4260
  992MOL0     C33796   9.029   3.916   5.841 -0.9353 -0.4570  0.4045
  992MOL0     C33797   9.049   3.906   5.995  0.2283  0.8520  0.3417
  992MOL0     C33798   9.089   3.760   6.038  0.3959  0.0841 -0.3097
  992MOL0     C33799   9.104   3.726   6.190 -0.0794  0.5627  0.5465
  992MOL0     C33800   9.233   3.790   6.249  0.2209 -0.0215 -0.1179
  992MOL0     C33801   9.185   3.906   6.336 -0.4894 -0.1944 -0.0624
  992MOL0     N33802   9.307   3.963   6.399  0.9271 -0.2576  0.6406
  992MOL0     C33803   9.383   3.904   6.486 -0.0598  0.5089 -0.2230
  992MOL0     C33804   9.491   3.986   6.507  0.7003  0.3295  0.3958
  992MOL0     C33805   9.614   3.961   6.601  0.1224  0.0633 -0.1510
  992MOL0     C33806   9.710   3.852   6.552 -0.4158  0.8983 -0.5428
  992MOL0     C33807   9.767   3.858   6.410 -0.4204 -0.1973  1.0428
  992MOL0     C33808   9.710   3.737   6.337 -0.5032  0.2440 -0.4520
  992MOL0     O33809   9.736   3.725   6.192  0.1454  0.2927  1.1725
  992MOL0     C33810   9.644   3.764   6.100 -0.3165 -0.0931 -0.0839
  992MOL0     C33811   9.559   3.875   6.123 -0.8860  0.4404  0.1970
  992MOL0     C33812   9.489   3.934   6.028  0.2746  0.2768  0.7974
  992MOL0     C33813   9.484   3.884   5.896 -0.2015 -0.0438 -0.2626
  992MOL0     C33814   9.413   3.967   5.785 -0.2087 -0.2140  0.2161
  992MOL0     O33815   9.360   4.091   5.825  0.3164 -0.1607  0.9355
  992MOL0     C33816   9.293   4.173   5.737  0.0922 -0.4077  0.1284
  992MOL0     C33817   9.283   4.164   5.600 -0.1464  0.1095  0.0309
  992MOL0     C33818   9.222   4.260   5.524  0.3452  0.1019  0.2580
  992MOL0     C33819   9.174   4.380   5.585  0.7084  0.2582 -0.6630
  992MOL0     O33820   9.118   4.485   5.512 -0.0554 -0.0557  0.3310
  992MOL0     C33821   9.136   4.495   5.377 -0.0477 -0.5620 -0.1989
  992MOL0     C33822   9.082   4.628   5.327 -0.3059 -1.5442  0.2746
  992MOL0     C33823   8.948   4.604   5.257  0.3943  0.3438  0.1524
  992MOL0     C33824   8.888   4.738   5.219  0.1825  0.9617  0.6640
  992MOL0     C33825   8.745   4.708   5.176  0.6606  0.8691  0.1635
  992MOL0     C33826   8.678   4.834   5.139  0.5592 -0.2401 -0.0240
  992MOL0     C33827   8.540   4.856   5.198 -0.0841  1.1736  0.2215
  992MOL0     C33828   8.442   4.775   5.126  0.0676 -0.6420  0.5004
  992MOL0    Cl33829   8.267   4.834   5.174  0.2972  0.0780  0.2615
  992MOL0     C33830   9.165   4.380   5.725  0.2740  0.6744 -0.2233
  992MOL0     C33831   9.236   4.287   5.804  0.0078  0.5894 -0.3817
  992MOL0     O33832   9.403   3.914   5.678 -0.3310  0.7585  0.3315
  992MOL0     C33833   9.559   3.766   5.872  0.8445  0.5854  0.5217
  992MOL0     C33834   9.641   3.709   5.972  0.1589 -0.5297 -0.1848
  992MOL0     N33835   9.482   4.095   6.423 -0.1055 -1.2007 -0.2078
  992MOL0     N33836   9.379   4.069   6.353  0.5325 -0.2275 -0.5002
  992MOL0     C33837   8.559   4.038   5.576  0.2879  0.1232 -1.0887
  992MOL0     C33838   8.420   4.032   5.561  0.3113 -0.4362  0.5456
  992MOL0     C33839   7.960   4.059   5.649  0.1019  0.3064 -0.0078
  992MOL0     C33840   7.943   4.164   5.555 -0.0198 -0.1701  0.2701
  992MOL0     C33841   7.814   4.205   5.517  0.4239 -0.0784  0.7406
  992MOL0     C33842   7.695   4.144   5.558 -0.1431 -0.0971 -0.4928
  992MOL0     O33843   7.572   4.193   5.518  0.3600  0.2013  0.6617
  992MOL0     C33844   7.455   4.124   5.559 -0.2910 -0.3374 -0.0540
  992MOL0     C33845   7.334   4.198   5.496  0.0538 -0.5829 -0.6172
  992MOL0     C33846   7.317   4.347   5.536  0.4576  0.2583  0.6359
  992MOL0     C33847   7.188   4.398   5.461 -0.4570  0.0697 -0.1403
  992MOL0     C33848   7.206   4.545   5.444 -0.7644  0.9078 -0.4232
  992MOL0     C33849   7.227   4.661   5.426  1.1705  0.2749 -0.5204
  992MOL0     C33850   7.717   4.033   5.648 -0.0645  0.0628 -0.8218
  992MOL0     C33851   7.846   3.993   5.698  0.4724 -0.6869 -0.2203
  992MOL0     C33852   7.850   3.865   5.784  0.3745  0.6737  0.4482
  992MOL0     H33853   8.315   4.164   5.865 -0.3926 -3.9190  0.9072
  992MOL0     H33854   8.565   4.187   5.887 -0.4344  0.7174 -0.3358
  992MOL0     H33855   8.762   4.009   5.896  0.8975 -0.4327  0.5702
  992MOL0     H33856   8.786   3.899   5.759 -0.5591  0.8908 -0.0731
  992MOL0     H33857   8.980   4.125   5.851 -1.1018  1.0287  0.0674
  992MOL0     H33858   8.980   4.059   5.684  0.1526 -2.6845 -0.1149
  992MOL0     H33859   9.125   3.917   5.789 -1.2403  0.8564 -0.1563
  992MOL0     H33860   8.985   3.822   5.805  1.9027 -2.8013  2.5190
  992MOL0     H33861   9.127   3.980   6.017  0.8819  2.3884 -5.5718
  992MOL0     H33862   8.955   3.925   6.048 -0.1402  0.7252 -0.2687
  992MOL0     H33863   9.006   3.708   5.990  0.5047  0.9267 -1.4679
  992MOL0     H33864   9.180   3.722   5.992  1.5639  3.6084 -1.2819
  992MOL0     H33865   9.015   3.761   6.243 -1.0966  0.7982 -1.2632
  992MOL0     H33866   9.090   3.618   6.206 -1.2540  0.7622  1.0041
  992MOL0     H33867   9.298   3.827   6.169  1.2333  1.1199  1.1796
  992MOL0     H33868   9.276   3.715   6.316  0.2516  0.3607  0.2953
  992MOL0     H33869   9.113   3.978   6.295 -1.2278  0.4268  2.2015
  992MOL0     H33870   9.141   3.853   6.421  2.5281 -0.8655  1.2387
  992MOL0     H33871   9.375   3.805   6.530  1.4259  1.5080  2.5194
  992MOL0     H33872   9.663   4.058   6.611 -0.1378 -0.0044  2.5629
  992MOL0     H33873   9.586   3.949   6.706 -0.0146  1.8615  0.0535
  992MOL0     H33874   9.798   3.863   6.617 -0.8026  0.2481  0.0947
  992MOL0     H33875   9.662   3.756   6.572 -0.8032  0.8785 -1.5038
  992MOL0     H33876   9.874   3.837   6.404 -0.3655  0.3722 -2.0169
  992MOL0     H33877   9.750   3.944   6.344 -0.5379 -2.0388 -1.5055
  992MOL0     H33878   9.603   3.728   6.360  0.3113 -4.4220  2.9670
  992MOL0     H33879   9.759   3.649   6.381  0.7630  1.1046 -0.1075
  992MOL0     H33880   9.542   3.914   6.223  2.1617 -1.8424  1.7771
  992MOL0     H33881   9.427   4.018   6.060 -0.3002 -0.4320  1.5699
  992MOL0     H33882   9.318   4.083   5.537  1.7393  1.2791 -0.5424
  992MOL0     H33883   9.219   4.250   5.416  0.3826  1.1132  0.1534
  992MOL0     H33884   9.241   4.490   5.347  0.0261  0.6959 -0.2278
  992MOL0     H33885   9.079   4.412   5.335 -2.1336  0.2439  0.8987
  992MOL0     H33886   9.059   4.688   5.415  2.0885  0.3945 -0.3198
  992MOL0     H33887   9.147   4.678   5.254 -2.9686  0.4450 -0.9186
  992MOL0     H33888   8.960   4.547   5.165 -0.6466  1.2864 -0.5880
  992MOL0     H33889   8.873   4.544   5.310 -0.6341 -0.2917 -1.9421
  992MOL0     H33890   8.953   4.775   5.140 -1.3487  1.4584 -0.4045
  992MOL0     H33891   8.886   4.805   5.306 -2.0177  2.5458 -0.5408
  992MOL0     H33892   8.692   4.675   5.266 -0.2807 -1.8738 -1.2885
  992MOL0     H33893   8.745   4.629   5.100  1.9551  1.2298 -0.2303
  992MOL0     H33894   8.726   4.919   5.189  2.1362 -1.2352  0.2127
  992MOL0     H33895   8.673   4.854   5.032 -0.6593  1.1282  0.2558
  992MOL0     H33896   8.509   4.961   5.187  0.2265  1.5338  2.2690
  992MOL0     H33897   8.539   4.832   5.305  0.7070  0.0545 -0.0098
  992MOL0     H33898   8.444   4.802   5.020  0.2596 -1.1030  0.3873
  992MOL0     H33899   8.456   4.668   5.141  3.4566 -0.7362 -2.1896
  992MOL0     H33900   9.108   4.466   5.761 -0.0360  0.4644 -0.2029
  992MOL0     H33901   9.215   4.282   5.911 -2.5263 -4.8075 -0.8150
  992MOL0     H33902   9.562   3.723   5.772  0.2545  0.0352  0.7364
  992MOL0     H33903   9.703   3.621   5.952 -2.0623 -2.8424  2.3200
  992MOL0     H33904   8.635   4.006   5.505  0.3695  3.0119 -2.4396
  992MOL0     H33905   8.374   3.993   5.471 -2.1601 -0.3507  1.6703
  992MOL0     H33906   8.029   4.207   5.504  0.9404  0.5005  2.3366
  992MOL0     H33907   7.814   4.285   5.443 -0.4258 -1.2219 -0.5574
  992MOL0     H33908   7.444   4.113   5.667  1.8844 -5.4797 -0.0626
  992MOL0     H33909   7.458   4.024   5.515  1.0454 -0.6834  0.7856
  992MOL0     H33910   7.241   4.144   5.514  0.2352 -0.1699  1.8540
  992MOL0     H33911   7.350   4.195   5.387  1.2344 -2.3694 -0.4484
  992MOL0     H33912   7.402   4.405   5.501  0.5684  0.0469  0.5532
  992MOL0     H33913   7.306   4.350   5.645 -3.5115 -5.0857  0.7986
  992MOL0     H33914   7.165   4.345   5.367 -3.6829 -5.0285  3.0044
  992MOL0     H33915   7.100   4.377   5.523  0.1756 -0.2696  0.6618
  992MOL0     H33916   7.221   4.767   5.416 -1.5767  0.1108 -1.5218
  992MOL0     H33917   7.629   3.977   5.679  1.0351 -0.9095  0.6303
  992MOL0     H33918   7.757   3.811   5.802  1.8074 -2.5399 -1.0167
  992MOL0     H33919   7.905   3.789   5.728 -0.3312 -0.8355  1.7193
  992MOL0     H33920   7.902   3.887   5.878 -2.0536  0.6721  1.8733
  993MOL0     O33921   1.752   2.262   2.827  0.3727  0.0846  0.0202
  993MOL0     C33922   1.740   2.283   2.949 -0.3290  0.0865 -0.5584
  993MOL0     O33923   1.842   2.346   3.031 -0.2305  0.0759  0.2672
  993MOL0     C33924   1.953   2.391   2.961  0.4152  0.1527 -0.0628
  993MOL0     C33925   1.981   2.534   2.972 -0.0202  0.5064 -0.0387
  993MOL0     C33926   2.088   2.584   2.902  0.8342 -0.9267  0.5688
  993MOL0     C33927   2.177   2.504   2.828 -0.4723 -0.3341 -0.4594
  993MOL0     O33928   2.262   2.579   2.748  0.1890 -0.0501 -0.4812
  993MOL0     C33929   2.318   2.514   2.635 -0.2674  0.0422  0.4186
  993MOL0     C33930   2.401   2.613   2.559  0.3197  0.1002 -0.1165
  993MOL0     C33931   2.518   2.683   2.631 -1.0926  0.5826 -0.4571
  993MOL0     C33932   2.461   2.812   2.707 -0.1918 -0.8002 -0.1782
  993MOL0     C33933   2.581   2.912   2.717  0.1694 -0.0772 -0.1011
  993MOL0     C33934   2.535   3.043   2.789 -1.1456 -0.4003 -1.3883
  993MOL0     C33935   2.628   3.164   2.763 -0.7144 -0.7319  0.0891
  993MOL0     C33936   2.569   3.287   2.815  1.1187  0.1203  0.1354
  993MOL0     N33937   2.544   3.273   2.958  0.8034  0.1841  0.2221
  993MOL0     C33938   2.641   3.248   3.049 -0.0027  0.1548 -0.4351
  993MOL0     C33939   2.576   3.258   3.173  0.2767 -0.8183  0.1968
  993MOL0     C33940   2.626   3.237   3.313 -0.4308  0.1527  1.0963
  993MOL0     C33941   2.573   3.107   3.368  0.3780  0.4916 -0.7571
  993MOL0     C33942   2.583   3.096   3.520 -0.3043  0.0094 -0.5799
  993MOL0     C33943   2.544   2.955   3.574 -0.1122  0.2308 -0.8576
  993MOL0     O33944   2.622   2.854   3.515  0.2414  0.2571 -0.3166
  993MOL0     C33945   2.746   2.828   3.565  0.1993  0.7326 -0.6765
  993MOL0     C33946   2.818   2.903   3.661  0.2034  0.5313  0.0057
  993MOL0     C33947   2.918   2.836   3.726 -0.2554  1.0534 -0.0615
  993MOL0     C33948   2.956   2.703   3.695 -0.4245  0.3397  0.4041
  993MOL0     C33949   3.062   2.641   3.775  0.2328 -0.2509 -0.0199
  993MOL0     O33950   3.113   2.527   3.724 -0.3646 -0.0518  0.5623
  993MOL0     C33951   3.193   2.439   3.798 -0.7183  0.6603 -0.1499
  993MOL0     C33952   3.304   2.388   3.734 -0.5038 -0.5595 -0.6646
  993MOL0     C33953   3.377   2.283   3.801  0.4550 -0.4300  0.4660
  993MOL0     C33954   3.348   2.249   3.930 -0.3838 -0.2515 -0.1251
  993MOL0     O33955   3.440   2.158   3.981  0.1047  0.3080 -0.1453
  993MOL0     C33956   3.485   2.169   4.116  0.2811 -0.8280 -0.7128
  993MOL0     C33957   3.570   2.053   4.159 -0.7235 -0.1245  0.2014
  993MOL0     C33958   3.505   1.916   4.170  0.2861  0.5428 -0.2330
  993MOL0     C33959   3.612   1.815   4.207  0.1909 -0.0613 -0.3850
  993MOL0     C33960   3.564   1.676   4.267  0.1147  0.4067  0.8743
  993MOL0     C33961   3.525   1.572   4.163 -0.1513  0.5910 -0.2928
  993MOL0     C33962   3.635   1.524   4.068 -0.2681  0.5428 -0.0227
  993MOL0     C33963   3.598   1.396   3.995  0.2359 -0.2665 -0.0903
  993MOL0    Cl33964   3.701   1.354   3.856  0.7041 -0.7883  0.1252
  993MOL0     C33965   3.226   2.290   3.992 -0.0445 -0.0901  0.3950
  993MOL0     C33966   3.152   2.379   3.924  0.1276  0.5457  0.4131
  993MOL0     O33967   3.081   2.685   3.887  0.3490 -0.4860 -0.1021
  993MOL0     C33968   2.888   2.635   3.593  0.2094  0.1213 -0.4500
  993MOL0     C33969   2.779   2.699   3.532 -0.2342  1.0914  0.5727
  993MOL0     N33970   2.442   3.277   3.147 -0.6086  0.5955  0.7009
  993MOL0     N33971   2.424   3.278   3.021  0.1861  0.0205 -0.0982
  993MOL0     C33972   2.156   2.367   2.833  0.0012 -0.1488 -0.2732
  993MOL0     C33973   2.047   2.314   2.898 -0.2929  0.4684  0.6083
  993MOL0     C33974   1.621   2.232   3.012  0.0880  0.0298  0.8956
  993MOL0     C33975   1.506   2.239   2.936 -0.3315 -0.3679 -0.3814
  993MOL0     C33976   1.397   2.164   2.983  0.3584 -0.7308 -0.2220
  993MOL0     C33977   1.389   2.094   3.096  0.0159  0.2537 -0.5314
  993MOL0     O33978   1.275   2.028   3.136  0.1441  0.4874  0.5843
  993MOL0     C33979   1.289   1.914   3.219  0.0181  0.2269  0.2509
  993MOL0     C33980   1.191   1.809   3.215  0.2598  0.0403 -0.4590
  993MOL0     C33981   1.050   1.858   3.183 -0.0984  1.0173 -0.4622
  993MOL0     C33982   0.968   1.734   3.144  0.4072 -0.9723  0.3592
  993MOL0     C33983   0.881   1.746   3.027  1.6224 -0.3389  1.1011
  993MOL0     C33984   0.807   1.772   2.933 -0.2602  0.6266  0.3071
  993MOL0     C33985   1.511   2.098   3.178 -0.1854 -0.3166 -0.8769
  993MOL0     C33986   1.628   2.163   3.136  0.3189 -0.1526  0.3346
  993MOL0     C33987   1.755   2.149   3.211  0.1153  0.2612  0.1178
  993MOL0     H33988   1.910   2.603   3.019  1.4486  2.8861 -1.1227
  993MOL0     H33989   2.084   2.692   2.891 -2.3464 -1.0974 -1.0214
  993MOL0     H33990   2.383   2.430   2.661  0.6786 -0.3382 -2.7630
  993MOL0     H33991   2.236   2.474   2.574  2.0611 -1.3452 -2.0146
  993MOL0     H33992   2.334   2.692   2.525 -0.3880 -0.6998 -0.5901
  993MOL0     H33993   2.453   2.555   2.482  2.5161 -3.2765  3.5205
  993MOL0     H33994   2.585   2.715   2.550 -2.4545  0.0128 -1.8790
  993MOL0     H33995   2.581   2.622   2.696 -3.9187 -1.5105  0.5572
  993MOL0     H33996   2.373   2.856   2.659 -1.5720 -1.0413  2.0011
  993MOL0     H33997   2.419   2.783   2.804  0.8707 -1.1487  0.1924
  993MOL0     H33998   2.674   2.870   2.757  1.4513  1.1646 -1.6333
  993MOL0     H33999   2.609   2.947   2.617  2.6306  1.5407  1.0324
  993MOL0     H34000   2.430   3.057   2.762 -2.3847 -3.7825  1.0016
  993MOL0     H34001   2.529   3.021   2.896  0.8580 -0.3626 -1.2375
  993MOL0     H34002   2.650   3.173   2.656 -2.1613 -0.3937 -0.2074
  993MOL0     H34003   2.725   3.142   2.808  1.1253  1.9768 -2.1884
  993MOL0     H34004   2.629   3.375   2.787 -3.1341  3.1389 -0.4738
  993MOL0     H34005   2.469   3.292   2.771  1.4245  1.3919 -0.4577
  993MOL0     H34006   2.745   3.220   3.035 -0.1621  0.4067 -2.5387
  993MOL0     H34007   2.735   3.229   3.302 -0.6431 -1.8244 -0.1107
  993MOL0     H34008   2.603   3.323   3.376  0.5311 -0.6126  2.5643
  993MOL0     H34009   2.469   3.099   3.336  0.5836  0.5772 -1.4506
  993MOL0     H34010   2.625   3.022   3.323 -0.0910  0.4357 -1.1982
  993MOL0     H34011   2.521   3.164   3.579 -0.5658 -1.3796  0.7927
  993MOL0     H34012   2.689   3.116   3.539 -0.6558  1.0816  0.3667
  993MOL0     H34013   2.441   2.932   3.546  0.2822 -1.8156 -0.7865
  993MOL0     H34014   2.561   2.950   3.682  4.3588  2.8507 -1.1573
  993MOL0     H34015   2.790   3.002   3.695  3.0708  1.9475 -1.4500
  993MOL0     H34016   2.968   2.889   3.807 -1.2405  0.5139  0.9303
  993MOL0     H34017   3.334   2.440   3.643 -1.0021  1.8608  0.4783
  993MOL0     H34018   3.460   2.236   3.750 -0.8957  0.0712 -2.3750
  993MOL0     H34019   3.544   2.259   4.136 -0.2707 -0.6804  0.2971
  993MOL0     H34020   3.399   2.177   4.182 -1.5473  0.7264 -3.0924
  993MOL0     H34021   3.645   2.052   4.080 -2.0359  1.5911 -1.1708
  993MOL0     H34022   3.624   2.071   4.253  0.5416 -1.6253 -0.2187
  993MOL0     H34023   3.422   1.920   4.241 -1.7894 -0.6307 -2.4189
  993MOL0     H34024   3.455   1.893   4.076  0.9843 -1.1443 -0.2271
  993MOL0     H34025   3.688   1.857   4.273  1.6505 -1.3306 -1.1911
  993MOL0     H34026   3.668   1.803   4.113  2.6391  3.2764  0.4130
  993MOL0     H34027   3.470   1.697   4.320 -1.0382  0.3897 -1.0748
  993MOL0     H34028   3.638   1.629   4.332  1.2302 -3.2830 -2.6354
  993MOL0     H34029   3.500   1.486   4.225  2.6202 -1.1162 -1.3654
  993MOL0     H34030   3.432   1.600   4.113 -2.5279 -2.1164  2.2273
  993MOL0     H34031   3.727   1.502   4.122 -2.0183 -3.2229  1.8098
  993MOL0     H34032   3.664   1.601   3.995 -1.2237  1.5412  0.6191
  993MOL0     H34033   3.602   1.312   4.064 -0.0495  0.5195  0.9140
  993MOL0     H34034   3.499   1.397   3.949  1.1468 -2.5636 -2.3342
  993MOL0     H34035   3.190   2.260   4.089 -3.3337  2.3569  0.0955
  993MOL0     H34036   3.057   2.418   3.960 -0.4017  1.1015 -1.4899
  993MOL0     H34037   2.908   2.531   3.568 -1.4418 -0.2499 -0.3119
  993MOL0     H34038   2.716   2.650   3.459 -1.5428  2.3500  0.8211
  993MOL0     H34039   2.229   2.304   2.782  1.6683 -0.4656  2.3060
  993MOL0     H34040   2.034   2.206   2.894  1.8622  0.1658  0.4677
  993MOL0     H34041   1.513   2.289   2.840  0.2710  1.5541  0.5894
  993MOL0     H34042   1.317   2.150   2.911 -0.9578 -2.8483  1.5105
  993MOL0     H34043   1.300   1.948   3.322  0.9330 -3.2483  1.4401
  993MOL0     H34044   1.387   1.875   3.188  0.8798  1.8054  0.8945
  993MOL0     H34045   1.179   1.758   3.311 -2.0861 -0.6122 -1.0293
  993MOL0     H34046   1.225   1.734   3.142 -0.7329  0.8631 -1.8217
  993MOL0     H34047   1.053   1.925   3.097 -1.6666  2.5630  0.6320
  993MOL0     H34048   1.009   1.921   3.262  1.0067  4.4099 -2.3679
  993MOL0     H34049   1.043   1.661   3.112  3.3180  1.8396  0.2627
  993MOL0     H34050   0.908   1.731   3.235 -1.9056  5.0870 -0.5078
  993MOL0     H34051   0.746   1.784   2.846  0.0809  4.2216  0.3968
  993MOL0     H34052   1.502   2.039   3.269  2.1042  1.4763  0.6114
  993MOL0     H34053   1.782   2.246   3.255 -2.7971  0.5817  1.4587
  993MOL0     H34054   1.725   2.074   3.285 -1.4671  0.2389 -0.5060
  993MOL0     H34055   1.833   2.100   3.152 -0.3851 -1.1218  0.5627
  994MOL0     O34056   1.449  10.098   4.874 -0.1662 -0.5648 -0.0062
  994MOL0     C34057   1.546  10.170   4.878 -0.7690 -1.4873 -0.2160
  994MOL0     O34058   1.561  10.283   4.951 -0.1517 -0.4528 -0.4004
  994MOL0     C34059   1.445  10.324   5.013 -0.6702  0.5557 -1.2468
  994MOL0     C34060   1.425  10.292   5.147 -0.7634 -1.0467  0.5230
  994MOL0     C34061   1.305  10.331   5.206 -0.1746  0.4019 -1.0895
  994MOL0     C34062   1.209  10.414   5.135 -0.1167  0.1449 -0.5845
  994MOL0     O34063   1.083  10.433   5.186 -0.6429  0.7325 -0.2980
  994MOL0     C34064   1.003  10.314   5.161  0.4417 -0.1409  0.1005
  994MOL0     C34065   0.852  10.341   5.163 -0.9952  0.4092  0.1382
  994MOL0     C34066   0.803  10.389   5.302  0.4539 -0.2339 -0.8109
  994MOL0     C34067   0.805  10.293   5.415  0.0901  0.2437 -0.7268
  994MOL0     C34068   0.739  10.343   5.546 -0.4741 -0.3579  1.0731
  994MOL0     C34069   0.585  10.345   5.549 -1.0885 -0.6466 -0.0346
  994MOL0     C34070   0.523  10.374   5.689 -0.2755  0.8063 -0.8106
  994MOL0     C34071   0.495  10.246   5.761  0.1845  0.3313 -0.4726
  994MOL0     N34072   0.494  10.273   5.900  0.0039 -0.1033 -0.9726
  994MOL0     C34073   0.385  10.297   5.984 -0.3137  0.3068 -0.5409
  994MOL0     C34074   0.433  10.292   6.106 -0.5884  0.2852  0.2912
  994MOL0     C34075   0.357  10.292   6.234  0.0443  0.0831 -0.1529
  994MOL0     C34076   0.381  10.176   6.323  0.8465 -0.8805 -0.6147
  994MOL0     C34077   0.307  10.060   6.265  0.4963  0.4103  0.2860
  994MOL0     C34078   0.336   9.932   6.345  0.5359  0.1462  0.8249
  994MOL0     O34079   0.413   9.841   6.268  0.1247 -0.0280 -0.3143
  994MOL0     C34080   0.547   9.845   6.245 -0.7035 -0.0698 -0.0555
  994MOL0     C34081   0.586   9.756   6.155  0.6540  1.2165 -0.1369
  994MOL0     C34082   0.725   9.745   6.132  0.1730  0.3696  0.1662
  994MOL0     C34083   0.807   9.839   6.181 -0.5765  1.2862 -1.1816
  994MOL0     C34084   0.953   9.850   6.143  0.2385 -0.2159  0.8720
  994MOL0     O34085   1.038   9.907   6.231 -0.4168  0.6713  0.4650
  994MOL0     C34086   1.171   9.926   6.200  0.3558 -0.7417  0.6845
  994MOL0     C34087   1.233  10.041   6.242  0.7380  0.4564 -0.2619
  994MOL0     C34088   1.361  10.077   6.201  0.4262  0.1306 -0.4201
  994MOL0     C34089   1.447   9.991   6.130  0.3559  0.2574 -0.2475
  994MOL0     O34090   1.577  10.017   6.105  0.5185  0.1659 -0.2186
  994MOL0     C34091   1.613  10.140   6.032  1.0393 -0.4722 -0.0032
  994MOL0     C34092   1.603  10.128   5.884 -0.1209 -0.8881 -0.2550
  994MOL0     C34093   1.455  10.104   5.832 -0.0890 -1.1922 -0.3153
  994MOL0     C34094   1.382  10.236   5.817  0.3449  0.0629 -0.2349
  994MOL0     C34095   1.241  10.236   5.778 -0.7585 -0.1913 -0.6101
  994MOL0     C34096   1.149  10.172   5.882  1.0406  0.1215 -0.1147
  994MOL0     C34097   1.009  10.179   5.832 -0.2994  0.9316 -0.4583
  994MOL0     C34098   0.924  10.104   5.931  0.5003 -0.0406 -0.5088
  994MOL0    Cl34099   0.926  10.189   6.087 -0.3077 -0.0854 -0.0726
  994MOL0     C34100   1.393   9.866   6.109 -0.0454 -0.1783 -0.6660
  994MOL0     C34101   1.258   9.833   6.133 -0.3225 -0.9455 -1.0189
  994MOL0     O34102   0.985   9.792   6.031 -0.3200 -0.8477  0.0872
  994MOL0     C34103   0.767   9.930   6.270  0.2410  0.1168 -0.1229
  994MOL0     C34104   0.639   9.935   6.308  0.6735 -0.3015 -0.1573
  994MOL0     N34105   0.568  10.261   6.098 -0.4022 -0.0572 -0.6460
  994MOL0     N34106   0.605  10.268   5.978  0.4470  0.0988  0.1693
  994MOL0     C34107   1.240  10.464   5.014 -0.3745  0.5854 -0.5097
  994MOL0     C34108   1.355  10.420   4.950  0.6203  0.5117  0.1667
  994MOL0     C34109   1.671  10.119   4.823  0.3598 -0.6131  0.1832
  994MOL0     C34110   1.730   9.997   4.875  0.4125  0.6275  0.5683
  994MOL0     C34111   1.856   9.958   4.834  0.5547  0.0894 -0.0804
  994MOL0     C34112   1.936  10.034   4.751 -0.1863  0.1279  0.5070
  994MOL0     O34113   2.068  10.012   4.715 -0.3516 -0.1604 -0.4052
  994MOL0     C34114   2.134   9.895   4.755  0.1457  0.5599  1.4378
  994MOL0     C34115   2.087   9.759   4.693 -0.0632 -0.4085  0.6333
  994MOL0     C34116   2.097   9.763   4.534 -0.8968  0.6280 -1.0142
  994MOL0     C34117   2.037   9.635   4.473 -0.4103 -1.3825  0.3015
  994MOL0     C34118   1.897   9.630   4.502 -0.1284  0.2589 -0.9194
  994MOL0     C34119   1.778   9.626   4.524 -0.4931 -0.5414 -0.2829
  994MOL0     C34120   1.881  10.149   4.696  0.2365  0.1184 -1.1744
  994MOL0     C34121   1.748  10.194   4.730 -0.4876 -0.1314  0.4589
  994MOL0     C34122   1.699  10.316   4.668 -1.1846  0.0603 -0.0080
  994MOL0     H34123   1.502  10.238   5.202  0.6426  2.3674  2.2867
  994MOL0     H34124   1.276  10.306   5.308  1.0493  0.4605 -0.7016
  994MOL0     H34125   1.026  10.272   5.063 -0.0803  1.3517 -0.7011
  994MOL0     H34126   1.022  10.236   5.235 -3.5020 -1.4750 -0.0626
  994MOL0     H34127   0.801  10.250   5.130 -1.6077  1.4209 -1.8662
  994MOL0     H34128   0.838  10.414   5.083  3.9379 -1.0492 -2.4123
  994MOL0     H34129   0.701  10.426   5.294  1.2663  2.5315  0.1961
  994MOL0     H34130   0.867  10.474   5.330  2.3327 -1.0931 -2.2629
  994MOL0     H34131   0.777  10.192   5.381  0.3059  0.2496 -0.9259
  994MOL0     H34132   0.912  10.280   5.431 -0.2024 -0.9245  0.4443
  994MOL0     H34133   0.776  10.277   5.625 -0.8583 -1.1816  0.5797
  994MOL0     H34134   0.788  10.436   5.576  4.4243 -1.8944 -1.1748
  994MOL0     H34135   0.561  10.426   5.480  1.5221 -0.4769 -0.8399
  994MOL0     H34136   0.546  10.246   5.521  2.1008 -1.6317 -1.4219
  994MOL0     H34137   0.426  10.424   5.683 -0.5472  0.6798  1.5800
  994MOL0     H34138   0.598  10.434   5.742  0.4933 -1.3896  0.7481
  994MOL0     H34139   0.392  10.211   5.748  0.4104 -0.1391 -1.0314
  994MOL0     H34140   0.570  10.169   5.739 -0.6394  0.2618 -3.5754
  994MOL0     H34141   0.278  10.301   5.968 -0.5779 -0.8403  0.7823
  994MOL0     H34142   0.373  10.383   6.293  2.0064 -0.6475  0.5166
  994MOL0     H34143   0.250  10.292   6.209 -0.3082 -0.0121  1.2393
  994MOL0     H34144   0.487  10.150   6.332  1.7893  2.9748  2.3812
  994MOL0     H34145   0.345  10.208   6.422 -1.5807 -1.2747 -1.3086
  994MOL0     H34146   0.326  10.052   6.158 -0.3850  0.3243  0.1301
  994MOL0     H34147   0.200  10.078   6.276 -0.0644 -2.7912  1.3348
  994MOL0     H34148   0.241   9.879   6.358 -0.5193  1.9932  0.9505
  994MOL0     H34149   0.380   9.946   6.445  0.8636 -0.1993  0.7331
  994MOL0     H34150   0.511   9.697   6.103 -1.0143  2.3083  0.9294
  994MOL0     H34151   0.762   9.656   6.081 -2.0507  0.5132 -1.8905
  994MOL0     H34152   1.175  10.100   6.313  2.3730 -1.3076  2.7173
  994MOL0     H34153   1.409  10.170   6.230  0.8828 -0.6499  1.4500
  994MOL0     H34154   1.555  10.228   6.060 -0.2199 -0.3129 -2.8419
  994MOL0     H34155   1.712  10.174   6.065 -0.7719  2.2141  3.3031
  994MOL0     H34156   1.650  10.207   5.825  2.8152 -3.5338 -1.7802
  994MOL0     H34157   1.650  10.035   5.851  1.0153  0.4544 -2.6477
  994MOL0     H34158   1.455  10.045   5.739 -1.0925 -3.3065  0.9309
  994MOL0     H34159   1.398  10.027   5.886 -2.1001  0.1771 -0.3592
  994MOL0     H34160   1.428  10.301   5.742  0.3688  3.6993  2.6487
  994MOL0     H34161   1.382  10.300   5.905 -3.0564  2.3967 -1.7259
  994MOL0     H34162   1.241  10.181   5.683  1.9065 -1.0834 -0.1644
  994MOL0     H34163   1.213  10.341   5.760 -0.9327  0.1511  1.4571
  994MOL0     H34164   1.180  10.067   5.881 -0.0323 -0.2003 -0.5711
  994MOL0     H34165   1.151  10.224   5.978 -2.6546 -0.4569  0.4265
  994MOL0     H34166   1.003  10.125   5.736 -0.6539  0.2767 -0.0780
  994MOL0     H34167   0.977  10.282   5.817  0.9235  1.3093 -0.5052
  994MOL0     H34168   0.820  10.098   5.898  0.4538 -0.1872 -0.3355
  994MOL0     H34169   0.951   9.998   5.938  0.7968 -0.5473 -5.5046
  994MOL0     H34170   1.457   9.779   6.096  0.5155  0.1790 -0.3426
  994MOL0     H34171   1.208   9.739   6.113  0.5105 -1.7296  0.4136
  994MOL0     H34172   0.840   9.994   6.319 -0.5480 -0.1159  1.3928
  994MOL0     H34173   0.612  10.001   6.389 -0.6898 -0.5484 -0.3868
  994MOL0     H34174   1.160  10.523   4.970 -3.0098 -1.7135  0.8719
  994MOL0     H34175   1.383  10.463   4.854 -1.7360  2.1167  0.1130
  994MOL0     H34176   1.670   9.928   4.933  2.0383 -0.5889  0.8543
  994MOL0     H34177   1.893   9.866   4.876 -3.2054 -0.8261  1.6633
  994MOL0     H34178   2.111   9.893   4.862 -1.2850  1.3304  1.1663
  994MOL0     H34179   2.241   9.907   4.736  0.0690 -0.9235 -0.1654
  994MOL0     H34180   1.981   9.747   4.719 -0.3451 -0.1608 -0.3339
  994MOL0     H34181   2.154   9.682   4.731  1.7206  2.1626  3.0599
  994MOL0     H34182   2.205   9.760   4.520 -0.8077 -0.7642 -0.1488
  994MOL0     H34183   2.040   9.849   4.495 -0.8384  0.4932 -1.4046
  994MOL0     H34184   2.051   9.642   4.364 -1.8366 -0.0007  0.1707
  994MOL0     H34185   2.094   9.549   4.510  2.0606  0.2015  0.4260
  994MOL0     H34186   1.674   9.620   4.551 -0.3954  0.0336  0.2324
  994MOL0     H34187   1.939  10.211   4.628 -1.1074 -1.2724 -3.7283
  994MOL0     H34188   1.742  10.325   4.568 -1.9859 -3.0367 -0.7350
  994MOL0     H34189   1.591  10.301   4.656 -0.8150 -0.9785 -2.7003
  994MOL0     H34190   1.723  10.403   4.729 -1.0926 -1.7549  2.7278
  995MOL0     O34191   8.190   5.954  10.654  0.2198  0.1952 -0.5221
  995MOL0     C34192   8.229   5.958  10.771 -0.6668  0.2328 -0.3178
  995MOL0     O34193   8.324   5.884  10.822 -0.3579  0.0806 -0.4890
  995MOL0     C34194   8.380   5.787  10.750 -0.5528  0.5658 -0.7046
  995MOL0     C34195   8.450   5.809  10.627  1.4363 -0.7262  1.1094
  995MOL0     C34196   8.491   5.703  10.550  0.3737 -0.8611 -0.2036
  995MOL0     C34197   8.493   5.570  10.597  0.7062 -0.2105  0.1873
  995MOL0     O34198   8.540   5.472  10.519  0.2446 -0.1080 -0.0231
  995MOL0     C34199   8.541   5.485  10.382  0.8169  0.3207 -0.0759
  995MOL0     C34200   8.536   5.342  10.327  0.4338 -0.5573  0.5212
  995MOL0     C34201   8.658   5.256  10.362  0.2067  0.2827  0.0836
  995MOL0     C34202   8.787   5.314  10.311 -0.0638  0.4374 -0.2552
  995MOL0     C34203   8.901   5.221  10.297 -0.0008  0.5018 -0.2573
  995MOL0     C34204   9.028   5.301  10.274 -0.5370  0.0237  0.5472
  995MOL0     C34205   9.133   5.225  10.199 -0.2732 -0.9138  0.6087
  995MOL0     C34206   9.265   5.282  10.225  1.2350  0.1340 -0.5826
  995MOL0     N34207   9.385   5.216  10.181  0.9414  0.3349  0.6779
  995MOL0     C34208   9.466   5.117  10.249  0.0330 -0.2783 -0.6050
  995MOL0     C34209   9.583   5.116  10.179 -0.2136 -0.6677 -0.5710
  995MOL0     C34210   9.693   5.025  10.213  0.4883 -0.0419  0.0624
  995MOL0     C34211   9.828   5.072  10.174 -0.1497  0.1641 -0.3059
  995MOL0     C34212   9.875   5.182  10.279  0.6594 -0.1191 -0.4244
  995MOL0     C34213   9.932   5.134  10.411  0.3034  0.0372 -0.5417
  995MOL0     O34214   9.895   5.235  10.507  0.0335 -1.0953 -0.0145
  995MOL0     C34215   9.952   5.367  10.503  0.3354  0.0485 -0.1329
  995MOL0     C34216  10.065   5.395  10.431  0.0324  0.1407 -0.6108
  995MOL0     C34217  10.112   5.526  10.424 -0.2398 -0.0031 -0.1715
  995MOL0     C34218  10.047   5.632  10.493  0.1765  0.1922 -0.2110
  995MOL0     C34219  10.107   5.771  10.488 -0.4169  0.4655  0.1530
  995MOL0     O34220  10.214   5.789  10.408  0.6525 -0.1424 -0.7207
  995MOL0     C34221  10.293   5.910  10.421  0.5131 -0.2971 -0.1019
  995MOL0     C34222  10.287   6.008  10.313 -0.2562  0.7012  0.9993
  995MOL0     C34223  10.377   6.117  10.312  0.0073  0.0759 -0.0935
  995MOL0     C34224  10.477   6.134  10.411  0.1331 -0.5965  1.0052
  995MOL0     O34225  10.552   6.252  10.386 -0.4379  0.3827 -0.6779
  995MOL0     C34226  10.660   6.280  10.481 -0.2282  0.1417  0.3328
  995MOL0     C34227  10.794   6.230  10.425  0.1592 -0.1877  0.0251
  995MOL0     C34228  10.801   6.084  10.431 -0.1527  0.4571 -0.0039
  995MOL0     C34229  10.954   6.044  10.421  0.2279 -0.3391  0.8580
  995MOL0     C34230  11.027   6.114  10.309  0.1048  1.2421 -0.2322
  995MOL0     C34231  11.166   6.043  10.304  0.3342  0.6222  0.7795
  995MOL0     C34232  11.265   6.127  10.228 -0.4985  0.3083 -0.3604
  995MOL0     C34233  11.396   6.040  10.209 -0.5121 -0.6388  0.3016
  995MOL0    Cl34234  11.386   5.910  10.081 -0.4029 -0.6362 -0.6407
  995MOL0     C34235  10.478   6.041  10.513 -0.7274  0.2488 -0.3438
  995MOL0     C34236  10.394   5.928  10.515 -0.1966  0.3924  0.2938
  995MOL0     O34237  10.056   5.853  10.564 -0.7863  0.1622 -0.2154
  995MOL0     C34238   9.947   5.599  10.585 -0.5308  0.7004 -0.5366
  995MOL0     C34239   9.905   5.469  10.588  0.2386  0.6050  0.6228
  995MOL0     N34240   9.576   5.212  10.078 -0.5325  0.9661  0.1074
  995MOL0     N34241   9.458   5.275  10.078  0.1559  0.7285 -0.7726
  995MOL0     C34242   8.429   5.545  10.718 -0.0700  0.1600  0.0763
  995MOL0     C34243   8.375   5.645  10.796  0.5446 -0.4183 -0.5595
  995MOL0     C34244   8.199   6.087  10.846 -0.6580  0.1466 -0.0508
  995MOL0     C34245   8.272   6.104  10.969  0.3829  0.9566  0.3348
  995MOL0     C34246   8.232   6.194  11.064  0.0465 -0.1143  1.0287
  995MOL0     C34247   8.122   6.278  11.038 -0.3257  0.5631  0.1669
  995MOL0     O34248   8.097   6.379  11.123  0.3890 -0.0985 -0.2024
  995MOL0     C34249   7.992   6.340  11.210  0.5794  0.6738  0.3303
  995MOL0     C34250   8.046   6.254  11.329 -0.5231 -0.0939  0.5524
  995MOL0     C34251   7.931   6.235  11.431 -0.3797 -0.1014 -0.0023
  995MOL0     C34252   7.959   6.126  11.539 -0.1207  1.4214 -0.8684
  995MOL0     C34253   8.084   6.140  11.618  0.1804 -1.0565  1.2260
  995MOL0     C34254   8.186   6.144  11.678 -0.7018 -0.0993  0.3217
  995MOL0     C34255   8.050   6.271  10.919 -0.3983  0.5519 -0.0266
  995MOL0     C34256   8.074   6.166  10.827 -0.2116  0.9579  0.7601
  995MOL0     C34257   7.967   6.135  10.728  0.8966 -0.0750  0.3205
  995MOL0     H34258   8.454   5.909  10.585  0.9344 -0.7802  0.9270
  995MOL0     H34259   8.531   5.734  10.454 -0.6987 -1.9556 -1.0387
  995MOL0     H34260   8.447   5.531  10.348 -0.1215 -0.0352  1.8604
  995MOL0     H34261   8.630   5.534  10.342 -0.0601  1.7051 -0.4297
  995MOL0     H34262   8.524   5.355  10.219  0.0355  2.5960  0.8306
  995MOL0     H34263   8.448   5.284  10.356  2.3722 -3.6589  0.5784
  995MOL0     H34264   8.635   5.163  10.310  0.7282 -0.8436  1.7563
  995MOL0     H34265   8.660   5.241  10.470  0.7996  1.9018  0.3287
  995MOL0     H34266   8.757   5.363  10.218 -2.7726 -3.0700 -1.4787
  995MOL0     H34267   8.811   5.399  10.376 -2.8982 -0.5821  2.4050
  995MOL0     H34268   8.917   5.151  10.379  1.0106 -3.5492 -3.5922
  995MOL0     H34269   8.882   5.159  10.209 -0.2559  3.0250 -2.1149
  995MOL0     H34270   9.009   5.380  10.200  2.2999 -0.5901 -0.9704
  995MOL0     H34271   9.061   5.325  10.375 -0.9794  0.1098  0.6738
  995MOL0     H34272   9.106   5.233  10.094  0.4748 -1.8168  0.3295
  995MOL0     H34273   9.142   5.121  10.233  1.5691 -0.6252  1.1094
  995MOL0     H34274   9.256   5.376  10.169 -1.9463 -0.8131 -1.9100
  995MOL0     H34275   9.278   5.318  10.328 -0.4560  1.6315 -0.8279
  995MOL0     H34276   9.454   5.064  10.343  0.4522 -0.8695 -0.8778
  995MOL0     H34277   9.689   5.013  10.322 -0.7690 -0.9616 -0.0658
  995MOL0     H34278   9.671   4.933  10.159  0.6780 -1.8378  2.8257
  995MOL0     H34279   9.903   4.994  10.162  0.4643  0.0786  3.0332
  995MOL0     H34280   9.818   5.133  10.084  1.0007  1.5007  0.4310
  995MOL0     H34281   9.787   5.244  10.295  0.6222 -0.5840  1.3807
  995MOL0     H34282   9.947   5.251  10.234 -1.8563  0.5435 -3.7537
  995MOL0     H34283  10.040   5.114  10.417  0.3420  0.0126 -1.2033
  995MOL0     H34284   9.884   5.039  10.437  0.5751 -0.6730 -2.4537
  995MOL0     H34285  10.132   5.330  10.375  0.7047  1.5668 -1.5245
  995MOL0     H34286  10.205   5.543  10.370  1.0959  0.1995  2.0360
  995MOL0     H34287  10.207   5.986  10.243 -1.2958  0.0542  2.3332
  995MOL0     H34288  10.375   6.179  10.223  0.6874 -4.6588 -3.8643
  995MOL0     H34289  10.682   6.386  10.495  1.2870  0.0604 -1.1101
  995MOL0     H34290  10.638   6.233  10.578 -1.9593  0.4951  0.1397
  995MOL0     H34291  10.822   6.269  10.327  2.5323 -3.5372 -0.8006
  995MOL0     H34292  10.867   6.263  10.499  0.3732  1.6771 -0.9554
  995MOL0     H34293  10.765   6.043  10.526  0.9386 -1.5095 -0.3648
  995MOL0     H34294  10.741   6.039  10.352 -0.0199 -0.4054  0.3651
  995MOL0     H34295  10.965   5.942  10.383  1.6951  0.4441 -0.9413
  995MOL0     H34296  11.011   6.072  10.511  0.3878 -3.0968  1.7115
  995MOL0     H34297  11.054   6.216  10.336  7.1580 -0.9024  3.4492
  995MOL0     H34298  10.983   6.107  10.210 -0.7163 -1.8188  0.2344
  995MOL0     H34299  11.214   6.031  10.402  1.8206  1.9155  0.2451
  995MOL0     H34300  11.156   5.942  10.263 -1.2876  0.7648  0.7508
  995MOL0     H34301  11.288   6.217  10.286  0.9164 -0.3763  0.2004
  995MOL0     H34302  11.226   6.152  10.129  1.0228  2.8868 -0.3918
  995MOL0     H34303  11.474   6.113  10.186  0.7965 -1.2511  2.5517
  995MOL0     H34304  11.427   5.994  10.303  1.6921 -1.5014 -0.7690
  995MOL0     H34305  10.547   6.053  10.596 -1.4390 -1.2778  0.5187
  995MOL0     H34306  10.414   5.853  10.591  1.8929  0.2654 -0.3078
  995MOL0     H34307   9.896   5.668  10.652  1.8259  1.1448  0.9227
  995MOL0     H34308   9.822   5.434  10.649  0.3938 -2.3838 -0.6620
  995MOL0     H34309   8.420   5.442  10.751 -1.2056  0.7660  1.7729
  995MOL0     H34310   8.327   5.624  10.890  1.5105  0.0299  0.0539
  995MOL0     H34311   8.364   6.050  10.990 -0.3082 -2.1196 -3.3343
  995MOL0     H34312   8.298   6.215  11.148 -0.7937  2.9685  1.0508
  995MOL0     H34313   7.912   6.288  11.156  2.2858  1.4267 -3.2404
  995MOL0     H34314   7.938   6.425  11.252 -0.8393  1.0197 -2.0421
  995MOL0     H34315   8.131   6.313  11.366 -0.5156 -1.8843  3.7502
  995MOL0     H34316   8.081   6.162  11.280  0.5701 -0.1280  1.3411
  995MOL0     H34317   7.840   6.218  11.373  1.0589 -0.5851 -2.2397
  995MOL0     H34318   7.912   6.332  11.478  3.5461  1.7490 -1.7505
  995MOL0     H34319   7.874   6.130  11.607  0.8683 -2.8777  0.9525
  995MOL0     H34320   7.958   6.024  11.500  0.8950  1.5308 -1.2240
  995MOL0     H34321   8.269   6.158  11.745 -2.0154  4.9010  1.3534
  995MOL0     H34322   7.969   6.340  10.899 -1.2759 -0.8071 -1.3791
  995MOL0     H34323   7.872   6.165  10.773  0.7133 -0.6974  0.3509
  995MOL0     H34324   7.975   6.185  10.631 -2.6410  1.3174  0.6060
  995MOL0     H34325   7.949   6.029  10.709 -4.0357  0.2534  1.8502
  996MOL0     O34326   0.690   7.740  10.897  0.0897  0.7830 -0.5755
  996MOL0     C34327   0.597   7.672  10.939 -0.1935 -1.0105 -0.7259
  996MOL0     O34328   0.462   7.696  10.906 -0.3871  0.0235  0.3031
  996MOL0     C34329   0.435   7.795  10.817  0.2814 -0.2201  0.0832
  996MOL0     C34330   0.320   7.866  10.835 -0.4990 -0.7740  0.6526
  996MOL0     C34331   0.288   7.972  10.751 -0.1537 -0.4329 -0.1253
  996MOL0     C34332   0.367   8.012  10.649 -0.5237 -0.3045 -0.5452
  996MOL0     O34333   0.339   8.123  10.561  0.3424  0.5067 -0.3659
  996MOL0     C34334   0.206   8.175  10.567  0.9524  0.1631 -0.6378
  996MOL0     C34335   0.183   8.278  10.455  0.8757  0.2593  0.0953
  996MOL0     C34336   0.085   8.383  10.506 -0.8933  0.1864 -0.3427
  996MOL0     C34337   0.058   8.463  10.381 -0.2005 -0.1465  0.4341
  996MOL0     C34338  -0.054   8.425  10.294 -0.0840  0.6061  0.6117
  996MOL0     C34339  -0.101   8.537  10.210 -0.7478 -0.2268 -0.1294
  996MOL0     C34340  -0.194   8.502  10.098 -0.0978 -0.3175 -0.4357
  996MOL0     C34341  -0.314   8.424  10.128 -0.3129 -0.1609 -0.0902
  996MOL0     N34342  -0.401   8.402  10.011  0.0977 -0.8476  1.1036
  996MOL0     C34343  -0.488   8.488   9.951  0.0289  0.4266  0.6530
  996MOL0     C34344  -0.550   8.415   9.847  0.0524 -0.0624  0.3013
  996MOL0     C34345  -0.659   8.481   9.770 -0.0235 -0.0598 -0.4954
  996MOL0     C34346  -0.778   8.382   9.774  0.3923 -0.0917  0.3427
  996MOL0     C34347  -0.881   8.413   9.662  0.4996 -0.4707 -0.0836
  996MOL0     C34348  -0.965   8.282   9.639 -0.8261 -0.5566 -0.7880
  996MOL0     O34349  -1.036   8.292   9.512 -0.3643 -0.0214 -0.4480
  996MOL0     C34350  -1.152   8.365   9.514 -0.1180  0.4839  0.2741
  996MOL0     C34351  -1.214   8.392   9.388 -1.1394  0.6280  0.3745
  996MOL0     C34352  -1.334   8.458   9.369 -0.3309  0.2198 -0.3428
  996MOL0     C34353  -1.382   8.526   9.484  0.7259 -0.1509  0.5243
  996MOL0     C34354  -1.507   8.601   9.470  0.2082 -0.3558 -0.0351
  996MOL0     O34355  -1.550   8.626   9.346  0.0878 -0.1647  0.1823
  996MOL0     C34356  -1.678   8.659   9.332  0.0563 -0.7510 -0.7008
  996MOL0     C34357  -1.706   8.751   9.232 -0.9965  0.3244  0.4801
  996MOL0     C34358  -1.832   8.792   9.191 -0.6792  1.2067 -0.1611
  996MOL0     C34359  -1.937   8.733   9.263 -0.3246 -0.6265  0.0512
  996MOL0     O34360  -2.067   8.777   9.260  0.2678 -0.0041 -0.5614
  996MOL0     C34361  -2.114   8.864   9.160 -0.6367 -0.7471 -1.1335
  996MOL0     C34362  -2.263   8.905   9.198  0.0893  0.5366  0.8420
  996MOL0     C34363  -2.357   8.780   9.220 -1.1654 -0.9957 -0.6639
  996MOL0     C34364  -2.486   8.796   9.151  0.0824  0.3396  0.0914
  996MOL0     C34365  -2.588   8.890   9.226 -0.5802  0.0778 -0.3342
  996MOL0     C34366  -2.728   8.849   9.174 -0.4021  0.5798 -0.1866
  996MOL0     C34367  -2.847   8.912   9.245 -0.4941  0.8835 -0.5727
  996MOL0     C34368  -2.864   8.862   9.392  0.4737  0.1594 -0.1406
  996MOL0    Cl34369  -2.979   8.952   9.489  0.3588 -0.0789  0.2792
  996MOL0     C34370  -1.919   8.647   9.366  0.3793  0.8879 -0.3270
  996MOL0     C34371  -1.787   8.606   9.399  0.3976  0.2359  0.7627
  996MOL0     O34372  -1.557   8.643   9.570 -0.5031  0.1612  0.0012
  996MOL0     C34373  -1.315   8.511   9.615  0.8613  0.9143  0.0394
  996MOL0     C34374  -1.207   8.425   9.627  0.2872  0.1431  0.5248
  996MOL0     N34375  -0.487   8.291   9.842  0.2993 -0.2844 -0.6700
  996MOL0     N34376  -0.402   8.286   9.943  0.9116 -0.3162  0.7084
  996MOL0     C34377   0.491   7.941  10.632  0.6365 -0.2901 -0.2202
  996MOL0     C34378   0.521   7.834  10.716 -0.5058  0.5635  0.1856
  996MOL0     C34379   0.620   7.553  11.022  0.1141 -0.6909 -0.5563
  996MOL0     C34380   0.514   7.512  11.107 -0.4739 -0.3372  0.0744
  996MOL0     C34381   0.541   7.398  11.188  0.2872 -0.9279 -0.2852
  996MOL0     C34382   0.660   7.322  11.182  0.4141 -0.7029 -0.3652
  996MOL0     O34383   0.691   7.221  11.266 -0.0127  0.2816 -0.1528
  996MOL0     C34384   0.583   7.135  11.304 -0.4042  0.2662  0.7948
  996MOL0     C34385   0.635   7.018  11.388  0.7439  0.1000  0.6360
  996MOL0     C34386   0.540   6.900  11.386  0.3679  0.1706  0.5517
  996MOL0     C34387   0.601   6.778  11.445  0.2374 -0.8757 -0.2988
  996MOL0     C34388   0.498   6.671  11.427  0.0748 -0.1747 -0.6559
  996MOL0     C34389   0.404   6.597  11.406  0.1987 -0.4452  0.1428
  996MOL0     C34390   0.756   7.365  11.093 -0.6272  0.1874  0.4059
  996MOL0     C34391   0.739   7.472  11.014 -0.7364  0.2425  0.2119
  996MOL0     C34392   0.856   7.507  10.918 -0.8313 -0.3204 -0.6281
  996MOL0     H34393   0.252   7.840  10.916 -1.0013 -1.5313 -0.0071
  996MOL0     H34394   0.206   8.037  10.777 -0.9817 -0.9883 -1.2453
  996MOL0     H34395   0.131   8.096  10.552  1.7210 -0.7652  0.2386
  996MOL0     H34396   0.202   8.235  10.658  0.8985 -0.1476 -0.4328
  996MOL0     H34397   0.141   8.227  10.367 -2.2637 -0.2070  1.6975
  996MOL0     H34398   0.278   8.319  10.423 -0.0367  3.3601  1.0492
  996MOL0     H34399   0.131   8.454  10.576  1.4409  0.0018 -1.6092
  996MOL0     H34400  -0.005   8.335  10.547  0.1202 -0.3316  1.3727
  996MOL0     H34401   0.039   8.567  10.409  2.0194 -0.0294  1.7181
  996MOL0     H34402   0.143   8.477  10.314 -0.8683 -1.7537 -0.8089
  996MOL0     H34403  -0.028   8.338  10.233 -0.5593  0.9494 -0.0985
  996MOL0     H34404  -0.138   8.398  10.359  0.1560  2.1165  1.5999
  996MOL0     H34405  -0.150   8.615  10.269  1.0963 -0.2730  1.5551
  996MOL0     H34406  -0.013   8.592  10.177  0.0941 -0.8621  0.9894
  996MOL0     H34407  -0.150   8.432  10.025  0.0533  0.3022 -0.9502
  996MOL0     H34408  -0.222   8.598  10.054  0.4991  0.1096  0.1153
  996MOL0     H34409  -0.293   8.326  10.172  0.7389  2.4174  6.3798
  996MOL0     H34410  -0.354   8.481  10.213  3.0543  2.2717  0.0726
  996MOL0     H34411  -0.504   8.588   9.990 -2.3820 -0.4035  2.0010
  996MOL0     H34412  -0.681   8.583   9.800  0.2932 -0.0675 -0.2281
  996MOL0     H34413  -0.634   8.502   9.665 -0.7072 -1.8667 -1.0596
  996MOL0     H34414  -0.751   8.281   9.742 -2.1142 -0.4721 -0.8603
  996MOL0     H34415  -0.813   8.361   9.875 -0.4712  0.8747  0.2684
  996MOL0     H34416  -0.831   8.440   9.568 -0.7162 -3.9153 -1.9115
  996MOL0     H34417  -0.948   8.493   9.694  0.7851 -0.3471  0.2078
  996MOL0     H34418  -1.034   8.255   9.720 -2.4749 -0.2031 -2.0152
  996MOL0     H34419  -0.896   8.197   9.637  1.6119  0.7881  4.6476
  996MOL0     H34420  -1.158   8.350   9.305  0.4493  4.4337 -0.6831
  996MOL0     H34421  -1.376   8.461   9.269 -0.0669  1.5751 -0.4340
  996MOL0     H34422  -1.624   8.786   9.170 -2.3110 -0.2346 -1.6911
  996MOL0     H34423  -1.836   8.873   9.118  0.3026  2.9815  1.6480
  996MOL0     H34424  -2.051   8.953   9.153 -2.9014  1.2470  1.5689
  996MOL0     H34425  -2.119   8.807   9.066  0.3130 -0.0309 -1.6345
  996MOL0     H34426  -2.268   8.967   9.288 -0.6900 -0.9693  1.8796
  996MOL0     H34427  -2.294   8.974   9.119  0.6584  1.7986  1.6839
  996MOL0     H34428  -2.302   8.695   9.179  4.6299  0.9650  1.9247
  996MOL0     H34429  -2.361   8.751   9.325  3.2893 -1.1478 -0.3452
  996MOL0     H34430  -2.508   8.689   9.161  1.2906  0.1560  0.9282
  996MOL0     H34431  -2.483   8.820   9.044 -0.5715  1.0944  0.2330
  996MOL0     H34432  -2.591   8.998   9.207 -0.4005 -0.3706 -3.4317
  996MOL0     H34433  -2.577   8.866   9.332 -1.8006 -2.0930 -0.6438
  996MOL0     H34434  -2.719   8.876   9.068  3.7719  2.7807  0.5331
  996MOL0     H34435  -2.730   8.740   9.181  4.3663  0.0046 -3.3439
  996MOL0     H34436  -2.939   8.879   9.197 -1.5287 -3.3089  3.6019
  996MOL0     H34437  -2.851   9.021   9.240 -0.4789  0.9706  1.0194
  996MOL0     H34438  -2.892   8.756   9.388  0.5141  0.1723 -1.1360
  996MOL0     H34439  -2.771   8.870   9.449 -0.8771 -1.5286  2.4935
  996MOL0     H34440  -2.003   8.624   9.432 -1.3121  0.6321 -2.4715
  996MOL0     H34441  -1.761   8.539   9.479  2.8934  0.6690  0.3902
  996MOL0     H34442  -1.358   8.547   9.708  1.4740 -0.6687  0.9725
  996MOL0     H34443  -1.160   8.417   9.724 -0.5972  0.4087  0.9878
  996MOL0     H34444   0.552   7.976  10.549  0.6506 -1.2128 -0.6062
  996MOL0     H34445   0.606   7.776  10.683 -0.8042  0.4285 -0.3568
  996MOL0     H34446   0.420   7.566  11.107  1.8237  4.0937  0.0361
  996MOL0     H34447   0.458   7.362  11.249 -1.0101  0.7363 -1.0054
  996MOL0     H34448   0.540   7.098  11.211 -0.0734 -0.0707  0.7727
  996MOL0     H34449   0.507   7.187  11.363 -1.2727  1.6211 -1.3890
  996MOL0     H34450   0.669   7.062  11.483  2.2503  5.7052 -2.0959
  996MOL0     H34451   0.730   6.977  11.352 -0.3935 -0.0658 -2.3807
  996MOL0     H34452   0.514   6.861  11.288  0.1134 -2.0639  1.4504
  996MOL0     H34453   0.446   6.926  11.436  1.2189  0.6069  1.9859
  996MOL0     H34454   0.692   6.746  11.393  0.8304 -2.2830  1.4944
  996MOL0     H34455   0.625   6.805  11.548 -1.5330  2.6068 -0.6504
  996MOL0     H34456   0.311   6.550  11.384 -0.7529  0.8028  1.2838
  996MOL0     H34457   0.855   7.321  11.092 -1.2150 -1.3741  2.7061
  996MOL0     H34458   0.894   7.608  10.936 -3.5075  0.7358 -0.4702
  996MOL0     H34459   0.946   7.452  10.948 -0.4105  1.2545  1.2299
  996MOL0     H34460   0.828   7.484  10.815  1.8726  1.6906 -1.9416
  997MOL0     O34461  11.380   1.160   9.048 -1.0578 -0.4797 -0.1223
  997MOL0     C34462  11.325   1.127   8.948  0.1852  0.2879  0.0946
  997MOL0     O34463  11.213   1.182   8.900 -0.3792 -0.8950  0.4964
  997MOL0     C34464  11.166   1.293   8.969  0.6533 -0.4028  1.5197
  997MOL0     C34465  11.027   1.286   9.002 -0.2736  0.0573 -0.2082
  997MOL0     C34466  10.967   1.382   9.082  0.5941  0.2325  0.3669
  997MOL0     C34467  11.042   1.494   9.126  0.2449 -0.4290  0.3643
  997MOL0     O34468  10.980   1.579   9.212  0.2315  0.0520 -0.2108
  997MOL0     C34469  10.996   1.709   9.163  0.8887 -0.8040 -1.0746
  997MOL0     C34470  10.889   1.802   9.221 -0.1678  0.7770  0.2746
  997MOL0     C34471  10.891   1.940   9.162 -0.3011 -0.7217 -0.6001
  997MOL0     C34472  10.764   2.013   9.220 -0.7596 -0.3655  0.6718
  997MOL0     C34473  10.767   2.165   9.199 -0.2240  0.1191  0.2445
  997MOL0     C34474  10.818   2.210   9.055  0.0317  0.1968 -0.7423
  997MOL0     C34475  10.837   2.358   9.051 -0.8905 -0.0412  0.4835
  997MOL0     C34476  10.713   2.450   9.049 -0.1462  0.6090 -0.8248
  997MOL0     N34477  10.642   2.445   8.922  0.2872  0.2366 -0.3304
  997MOL0     C34478  10.515   2.391   8.904  0.2428 -0.3626 -0.6684
  997MOL0     C34479  10.481   2.425   8.781 -0.0908 -0.2382 -0.1868
  997MOL0     C34480  10.350   2.397   8.722  0.5676  0.8585  0.1865
  997MOL0     C34481  10.237   2.467   8.790 -0.1386  0.3765  0.0863
  997MOL0     C34482  10.250   2.618   8.771  0.1798 -0.2642 -0.6431
  997MOL0     C34483  10.333   2.688   8.886  0.7816  0.1862  0.9647
  997MOL0     O34484  10.287   2.639   9.016 -0.1247  0.2937 -0.1262
  997MOL0     C34485  10.377   2.631   9.120  0.5664  0.0409  0.1935
  997MOL0     C34486  10.468   2.728   9.144 -0.0927 -1.6164 -0.7811
  997MOL0     C34487  10.573   2.725   9.241 -0.3607 -0.0943  0.4646
  997MOL0     C34488  10.590   2.604   9.305 -1.1607 -0.0125  0.7363
  997MOL0     C34489  10.705   2.586   9.403  0.7885 -0.2687  0.4404
  997MOL0     O34490  10.776   2.703   9.423 -0.4362  0.8443  0.0385
  997MOL0     C34491  10.893   2.680   9.499  1.3826 -0.5065  0.5886
  997MOL0     C34492  10.933   2.778   9.583 -0.2581 -0.4923 -0.9492
  997MOL0     C34493  11.059   2.765   9.650  0.5409 -0.5080 -0.4183
  997MOL0     C34494  11.134   2.649   9.642  0.5810  0.3478 -0.0521
  997MOL0     O34495  11.252   2.610   9.709  0.0732  0.0738  0.3689
  997MOL0     C34496  11.241   2.619   9.855 -0.0204  0.0150  0.1879
  997MOL0     C34497  11.287   2.496   9.929 -0.0632  0.6381  0.8679
  997MOL0     C34498  11.439   2.477   9.963 -0.1324  0.4720 -0.4175
  997MOL0     C34499  11.532   2.459   9.842  0.0448 -1.1064  0.6249
  997MOL0     C34500  11.648   2.361   9.873  0.1347 -0.1734 -0.7345
  997MOL0     C34501  11.735   2.395   9.994  0.2442  0.1920 -0.7681
  997MOL0     C34502  11.787   2.537   9.998  0.2233 -0.0104 -0.3350
  997MOL0     C34503  11.915   2.555  10.072  0.4878  0.3533 -0.6138
  997MOL0    Cl34504  12.055   2.493   9.982 -0.7108 -0.2449  0.4564
  997MOL0     C34505  11.098   2.550   9.547 -0.1481 -0.2623  0.3982
  997MOL0     C34506  10.978   2.569   9.470 -0.6189  0.1090  0.1246
  997MOL0     O34507  10.727   2.479   9.463 -0.3686  0.9274 -0.1578
  997MOL0     C34508  10.493   2.506   9.287  0.9423 -0.2147  0.2970
  997MOL0     C34509  10.378   2.517   9.203 -0.9590 -0.2914 -0.5168
  997MOL0     N34510  10.587   2.488   8.719 -0.4088 -0.2680  0.8895
  997MOL0     N34511  10.684   2.511   8.813 -0.6265  0.1107  0.6464
  997MOL0     C34512  11.168   1.509   9.086  0.3862  0.2539  0.7997
  997MOL0     C34513  11.236   1.416   9.002  0.6359 -0.3857 -0.3918
  997MOL0     C34514  11.373   1.004   8.874  0.1861 -0.3806  0.2307
  997MOL0     C34515  11.387   0.886   8.937  0.5077 -0.7982  0.8449
  997MOL0     C34516  11.402   0.774   8.856  0.7357 -0.3719 -0.7726
  997MOL0     C34517  11.434   0.784   8.721  0.3182  0.2515  0.5906
  997MOL0     O34518  11.460   0.673   8.647  0.5996 -0.0386  0.2450
  997MOL0     C34519  11.594   0.634   8.643  0.3935 -0.6097 -0.4847
  997MOL0     C34520  11.661   0.610   8.777 -0.0250 -0.7925 -0.3362
  997MOL0     C34521  11.608   0.473   8.834 -0.0646 -0.2196  0.8005
  997MOL0     C34522  11.713   0.376   8.879  0.0525  0.6232 -0.0218
  997MOL0     C34523  11.794   0.437   8.977 -0.2199 -0.7486 -0.1091
  997MOL0     C34524  11.871   0.493   9.053 -0.1041 -0.0615 -0.7482
  997MOL0     C34525  11.449   0.905   8.662 -0.4843 -0.0186 -0.5012
  997MOL0     C34526  11.403   1.019   8.736 -0.3498  0.1580 -0.4431
  997MOL0     C34527  11.379   1.150   8.666 -0.7428  0.3388 -0.2257
  997MOL0     H34528  10.969   1.198   8.977 -0.0937  0.8347 -4.0021
  997MOL0     H34529  10.866   1.383   9.121  1.1127  1.4295  1.7587
  997MOL0     H34530  11.097   1.743   9.187 -0.1059  0.3611  1.9436
  997MOL0     H34531  10.983   1.718   9.055  4.2806 -2.5367 -1.7686
  997MOL0     H34532  10.903   1.804   9.330  2.8293  2.0174 -0.0375
  997MOL0     H34533  10.789   1.766   9.196  0.8886 -0.4752 -2.5708
  997MOL0     H34534  10.897   1.941   9.053  1.8506  0.4211 -0.5218
  997MOL0     H34535  10.982   1.986   9.203 -0.3315 -1.3918  0.2524
  997MOL0     H34536  10.673   1.984   9.167 -0.9112  0.7881  0.2554
  997MOL0     H34537  10.755   1.993   9.327 -0.3066 -0.8573  0.6201
  997MOL0     H34538  10.663   2.199   9.203  0.3418  2.2457 -1.0673
  997MOL0     H34539  10.828   2.219   9.272  0.2551 -2.0870  1.5607
  997MOL0     H34540  10.918   2.170   9.036  1.3118  3.3377 -1.1643
  997MOL0     H34541  10.743   2.176   8.983 -1.7805 -1.0583  1.6196
  997MOL0     H34542  10.900   2.395   8.969 -1.4318 -0.0657  0.0545
  997MOL0     H34543  10.898   2.374   9.140 -0.0446  0.8245 -0.2218
  997MOL0     H34544  10.654   2.400   9.126  2.0858 -4.7017 -2.1040
  997MOL0     H34545  10.743   2.550   9.083  0.8704 -0.0854  0.4464
  997MOL0     H34546  10.442   2.343   8.968  1.0009 -4.0363 -2.3137
  997MOL0     H34547  10.342   2.400   8.613  2.3231 -3.2808 -0.2537
  997MOL0     H34548  10.336   2.292   8.750  1.0509  1.0161  1.0531
  997MOL0     H34549  10.140   2.434   8.753 -0.8763  2.2308  0.2873
  997MOL0     H34550  10.251   2.437   8.895  2.2552 -0.5517 -0.4264
  997MOL0     H34551  10.151   2.664   8.769  1.3945  2.5908 -0.1715
  997MOL0     H34552  10.288   2.627   8.669  1.1134 -2.2171 -0.5081
  997MOL0     H34553  10.325   2.796   8.873  1.1313 -0.0026 -1.1994
  997MOL0     H34554  10.437   2.659   8.865  0.0220 -0.5526 -2.2444
  997MOL0     H34555  10.456   2.822   9.092 -0.3705  0.1353  2.1880
  997MOL0     H34556  10.641   2.809   9.246 -3.1953  2.3576  0.4795
  997MOL0     H34557  10.866   2.862   9.598  1.5558  0.5870  2.2059
  997MOL0     H34558  11.088   2.847   9.716  1.7142 -2.4999  1.6682
  997MOL0     H34559  11.288   2.712   9.889  1.8682 -0.4682 -0.9740
  997MOL0     H34560  11.135   2.623   9.883 -0.6119 -3.8866 -0.8945
  997MOL0     H34561  11.228   2.492  10.021  0.9803  1.3652  1.5795
  997MOL0     H34562  11.269   2.408   9.866  1.3552 -0.1631  1.5493
  997MOL0     H34563  11.482   2.555  10.028  2.2867 -0.8006 -0.3735
  997MOL0     H34564  11.449   2.389  10.026 -0.3186 -0.6844 -1.9482
  997MOL0     H34565  11.580   2.552   9.809 -0.6611  0.4957  3.7510
  997MOL0     H34566  11.467   2.425   9.761 -1.5121 -0.4439  1.5711
  997MOL0     H34567  11.703   2.336   9.782  2.2512  1.0169  0.1632
  997MOL0     H34568  11.597   2.270   9.905 -1.7048  1.1047  0.1816
  997MOL0     H34569  11.673   2.368  10.080  1.0731 -0.1781 -0.2720
  997MOL0     H34570  11.826   2.334   9.993  1.9974  2.6296 -0.5507
  997MOL0     H34571  11.715   2.603  10.048  1.4479  3.2080 -2.4672
  997MOL0     H34572  11.793   2.576   9.896 -2.4768  0.1064 -0.5214
  997MOL0     H34573  11.930   2.662  10.086  1.0629  0.4147 -1.6098
  997MOL0     H34574  11.912   2.508  10.171 -2.2670 -1.7384 -1.5390
  997MOL0     H34575  11.179   2.479   9.542 -2.2308 -3.0051  2.2865
  997MOL0     H34576  10.967   2.504   9.384  1.4091 -0.4035  0.1878
  997MOL0     H34577  10.517   2.417   9.345  0.3776 -0.7189 -0.2271
  997MOL0     H34578  10.298   2.444   9.198 -1.2504 -0.2189  1.9530
  997MOL0     H34579  11.226   1.590   9.129 -1.1829 -0.3585  4.4309
  997MOL0     H34580  11.343   1.419   8.983  1.0618  0.6202  1.8214
  997MOL0     H34581  11.375   0.893   9.045 -0.6315 -0.3617  0.7023
  997MOL0     H34582  11.413   0.681   8.911  2.4881 -0.1548 -0.7025
  997MOL0     H34583  11.647   0.717   8.595  0.0767  2.8046  4.2987
  997MOL0     H34584  11.585   0.538   8.591  0.1855 -2.8126  3.2352
  997MOL0     H34585  11.635   0.684   8.853 -0.8948 -1.0867 -0.3311
  997MOL0     H34586  11.767   0.613   8.750 -0.7640  4.1368 -3.9678
  997MOL0     H34587  11.539   0.437   8.757  1.3423  0.2508 -0.7432
  997MOL0     H34588  11.532   0.487   8.911 -2.5512 -1.1841 -1.3175
  997MOL0     H34589  11.679   0.278   8.912  0.9715  0.6011  0.9009
  997MOL0     H34590  11.791   0.350   8.807  0.0121 -1.5186  0.6441
  997MOL0     H34591  11.938   0.522   9.130  0.0717 -0.1397 -0.8714
  997MOL0     H34592  11.472   0.912   8.556 -0.6880 -1.1126 -0.6236
  997MOL0     H34593  11.273   1.170   8.646 -0.0407  3.3873 -1.4562
  997MOL0     H34594  11.406   1.241   8.720 -2.8998  0.6339  0.4642
  997MOL0     H34595  11.428   1.142   8.568  0.9171  2.5618  0.3525
  998MOL0     O34596   8.891   6.667  10.934 -0.5169 -0.1472  0.5879
  998MOL0     C34597   8.917   6.688  11.056 -0.8115  0.0376  0.1982
  998MOL0     O34598   8.828   6.748  11.145 -0.7377  0.6129  0.4858
  998MOL0     C34599   8.709   6.786  11.102  0.5386 -0.6594  0.2189
  998MOL0     C34600   8.608   6.703  11.045 -0.2710  0.1649 -0.0485
  998MOL0     C34601   8.480   6.737  11.018 -0.4202  0.0189  0.0905
  998MOL0     C34602   8.435   6.872  11.040  0.0306  0.3309  0.6456
  998MOL0     O34603   8.313   6.930  11.021 -0.1984  0.7516  0.5133
  998MOL0     C34604   8.206   6.863  10.949  0.5407 -0.0547 -0.6069
  998MOL0     C34605   8.154   6.736  11.019 -0.7693  0.1146 -0.5134
  998MOL0     C34606   8.018   6.685  10.965 -0.0639 -1.3904  0.1177
  998MOL0     C34607   8.034   6.650  10.811  0.4290 -0.0312 -0.0707
  998MOL0     C34608   7.901   6.611  10.730 -0.3298 -0.0894 -0.9368
  998MOL0     C34609   7.941   6.529  10.605 -0.6788  0.2132  0.2607
  998MOL0     C34610   8.021   6.598  10.485 -0.0175  0.6444  0.1248
  998MOL0     C34611   7.981   6.746  10.477 -0.0871  0.1799  0.2826
  998MOL0     N34612   8.016   6.802  10.348  0.2391 -0.3620 -0.5387
  998MOL0     C34613   8.133   6.867  10.323  0.1464  0.1215  0.1088
  998MOL0     C34614   8.119   6.935  10.207 -0.2002  0.2286  0.3515
  998MOL0     C34615   8.216   7.017  10.129 -0.5795 -0.7334  0.6401
  998MOL0     C34616   8.227   7.172  10.179  0.0884  0.4290 -0.0488
  998MOL0     C34617   8.312   7.276  10.105 -0.6256  0.8772  0.0644
  998MOL0     C34618   8.307   7.292   9.953  0.3652  0.0147 -0.1261
  998MOL0     O34619   8.383   7.414   9.931  0.6199  0.3565  0.5999
  998MOL0     C34620   8.519   7.396   9.953  0.1693 -0.1957  0.0096
  998MOL0     C34621   8.583   7.506  10.031  0.3707 -0.3941  0.2667
  998MOL0     C34622   8.710   7.508  10.068 -0.4188 -0.3536  0.6995
  998MOL0     C34623   8.790   7.386  10.044 -0.2743 -0.5196 -0.4031
  998MOL0     C34624   8.926   7.371  10.102  0.2479  0.9726 -1.4079
  998MOL0     O34625   8.986   7.247  10.067 -0.0509  0.0653 -0.2905
  998MOL0     C34626   9.112   7.216  10.107 -1.0992 -0.5395 -0.0150
  998MOL0     C34627   9.139   7.077  10.130  1.2131  0.2816  0.0441
  998MOL0     C34628   9.272   7.037  10.146 -0.9007  0.1987  0.3383
  998MOL0     C34629   9.379   7.120  10.173  0.4034 -0.1366 -0.2459
  998MOL0     O34630   9.507   7.079  10.204  0.7150 -0.3267  0.2083
  998MOL0     C34631   9.521   6.970  10.300 -1.0847  0.0827  0.1539
  998MOL0     C34632   9.530   7.008  10.449  0.6178 -0.0305  0.0182
  998MOL0     C34633   9.627   7.127  10.492  0.1151  0.3239  1.0202
  998MOL0     C34634   9.561   7.223  10.600  0.3069  0.1740 -0.4073
  998MOL0     C34635   9.539   7.158  10.732  0.2516 -0.5286  0.0601
  998MOL0     C34636   9.502   7.255  10.851 -0.0672  0.4262  0.5177
  998MOL0     C34637   9.578   7.218  10.976 -0.5392 -0.1408 -0.7058
  998MOL0     C34638   9.502   7.254  11.106  0.3367  0.3198  0.0216
  998MOL0    Cl34639   9.582   7.177  11.255 -0.0075 -0.3832  0.5230
  998MOL0     C34640   9.357   7.260  10.149  0.1967  0.1971  0.4113
  998MOL0     C34641   9.227   7.301  10.111  0.8465 -0.4741 -0.2434
  998MOL0     O34642   8.973   7.447  10.185  0.0452 -0.8810  0.5863
  998MOL0     C34643   8.737   7.288   9.960 -0.9454  0.0281 -0.7223
  998MOL0     C34644   8.604   7.289   9.922  0.4924  1.3068  0.3021
  998MOL0     N34645   7.993   6.900  10.167 -0.3056  0.6306  0.6636
  998MOL0     N34646   7.927   6.835  10.259  0.6449 -0.4566 -0.5619
  998MOL0     C34647   8.536   6.952  11.089  0.3547 -0.2728 -0.8881
  998MOL0     C34648   8.667   6.917  11.119  0.8186  0.6143  0.3290
  998MOL0     C34649   9.047   6.646  11.117 -0.7777 -0.4428  0.2150
  998MOL0     C34650   9.075   6.691  11.246 -0.9652 -0.2388 -1.1065
  998MOL0     C34651   9.185   6.646  11.314 -0.1983 -0.2860 -0.5769
  998MOL0     C34652   9.286   6.578  11.247 -0.7151 -0.2533  0.4272
  998MOL0     O34653   9.389   6.527  11.321  0.1170  0.2852  0.5044
  998MOL0     C34654   9.521   6.574  11.296  0.1151  0.0294 -0.8549
  998MOL0     C34655   9.576   6.644  11.426  0.3446 -0.3518 -0.2172
  998MOL0     C34656   9.543   6.579  11.559 -0.1767  0.8779  0.8872
  998MOL0     C34657   9.612   6.444  11.561 -1.1392  0.8387  0.7098
  998MOL0     C34658   9.590   6.358  11.677 -0.9592 -0.1073 -0.5081
  998MOL0     C34659   9.561   6.287  11.771  0.6844 -0.8198  0.9361
  998MOL0     C34660   9.263   6.541  11.112 -0.2794  0.7049 -0.1312
  998MOL0     C34661   9.138   6.554  11.061  0.4052  0.0694 -0.1488
  998MOL0     C34662   9.118   6.475  10.934  0.7294 -0.8214 -0.3002
  998MOL0     H34663   8.647   6.605  11.020  2.6550  1.7825 -2.4926
  998MOL0     H34664   8.418   6.659  10.975 -0.1227 -0.3972  0.4065
  998MOL0     H34665   8.132   6.943  10.942  0.4728  0.2098  2.2878
  998MOL0     H34666   8.234   6.835  10.847 -0.3513 -1.7694 -0.4122
  998MOL0     H34667   8.144   6.767  11.123 -1.8611  0.3432 -0.6835
  998MOL0     H34668   8.225   6.652  11.019  0.2668  0.9649 -0.2282
  998MOL0     H34669   7.940   6.761  10.978 -0.8207 -1.9931 -0.7644
  998MOL0     H34670   7.974   6.593  11.004 -0.5555 -1.7294 -1.1841
  998MOL0     H34671   8.084   6.731  10.757  0.9498 -0.8957 -0.9312
  998MOL0     H34672   8.099   6.562  10.805  1.8056  0.7995  1.8494
  998MOL0     H34673   7.831   6.551  10.788  0.6742 -1.8176 -1.4448
  998MOL0     H34674   7.858   6.709  10.706  1.9494  1.5123  1.0872
  998MOL0     H34675   7.996   6.441  10.638 -0.2448  0.1644 -0.5681
  998MOL0     H34676   7.843   6.509  10.560  0.0114  0.7923 -1.6233
  998MOL0     H34677   7.996   6.552  10.389  1.9705 -1.1854  0.4291
  998MOL0     H34678   8.127   6.581  10.505 -0.1714  0.6833  1.0515
  998MOL0     H34679   7.874   6.756  10.496  0.0993  0.9880  0.9774
  998MOL0     H34680   8.041   6.796  10.554 -1.9988  0.6875  1.5147
  998MOL0     H34681   8.231   6.854  10.369  1.8262  0.1790 -3.1087
  998MOL0     H34682   8.314   6.968  10.124  0.5000  1.0984  2.4030
  998MOL0     H34683   8.179   7.025  10.027 -0.0280  3.8118  0.5751
  998MOL0     H34684   8.127   7.213  10.168  0.0703  0.7127  1.1043
  998MOL0     H34685   8.255   7.178  10.284  0.8122  2.4554 -0.3174
  998MOL0     H34686   8.418   7.262  10.127 -0.5767 -5.5959 -2.1355
  998MOL0     H34687   8.273   7.372  10.137 -0.0151  1.8250 -1.8541
  998MOL0     H34688   8.200   7.299   9.930  0.4757  1.4111 -0.3097
  998MOL0     H34689   8.354   7.204   9.909  3.9287  1.3909  0.5770
  998MOL0     H34690   8.529   7.592  10.067  1.1117  0.4229 -0.5219
  998MOL0     H34691   8.741   7.590  10.132 -3.9878  0.3104  1.8305
  998MOL0     H34692   9.060   7.005  10.111 -1.2758  1.9500  3.0234
  998MOL0     H34693   9.300   6.932  10.138  2.3869  0.9408  0.5387
  998MOL0     H34694   9.443   6.893  10.304 -0.2733 -0.6752  2.8636
  998MOL0     H34695   9.614   6.916  10.282 -1.7118 -1.4344  1.2868
  998MOL0     H34696   9.431   7.028  10.492  1.3419  0.5013  1.5013
  998MOL0     H34697   9.565   6.921  10.504 -3.3231 -0.8032  1.7232
  998MOL0     H34698   9.721   7.084  10.526  1.3518  2.3101  0.3051
  998MOL0     H34699   9.654   7.189  10.406  0.0589  0.6203  1.2138
  998MOL0     H34700   9.467   7.262  10.561  0.1278  1.8690  1.5561
  998MOL0     H34701   9.627   7.308  10.620  0.9771 -0.7810  1.7168
  998MOL0     H34702   9.627   7.100  10.760 -0.4003 -0.5393  2.3378
  998MOL0     H34703   9.457   7.086  10.725 -0.7742  0.6466 -0.6584
  998MOL0     H34704   9.527   7.354  10.810 -1.3730 -0.1077 -1.6861
  998MOL0     H34705   9.397   7.240  10.876 -0.0895 -1.2451 -0.4474
  998MOL0     H34706   9.679   7.260  10.981 -0.4790 -0.0580 -2.1588
  998MOL0     H34707   9.588   7.110  10.983  0.9725  0.0449  0.6836
  998MOL0     H34708   9.511   7.362  11.126  3.4264  0.2524 -0.4466
  998MOL0     H34709   9.397   7.232  11.089  1.0832 -1.2017 -3.3941
  998MOL0     H34710   9.438   7.331  10.159 -0.0677  0.9695 -2.2965
  998MOL0     H34711   9.235   7.405  10.081 -0.8076 -0.2418  0.0669
  998MOL0     H34712   8.803   7.208   9.927  0.9579  0.4250  1.8367
  998MOL0     H34713   8.563   7.213   9.856  1.1188  0.2893  1.0560
  998MOL0     H34714   8.505   7.055  11.103  1.1165 -0.3367  1.9311
  998MOL0     H34715   8.741   6.989  11.153  3.8875 -3.0625  2.2106
  998MOL0     H34716   9.006   6.757  11.296  0.8035  1.7873 -1.1669
  998MOL0     H34717   9.201   6.672  11.419 -0.2563  0.2631 -0.6989
  998MOL0     H34718   9.522   6.648  11.216 -0.0638  0.3575 -0.5561
  998MOL0     H34719   9.585   6.489  11.269  0.4147 -0.0647  0.1102
  998MOL0     H34720   9.527   6.742  11.421  0.1409 -0.4492 -0.1426
  998MOL0     H34721   9.684   6.656  11.428  0.6484 -2.5479 -1.0241
  998MOL0     H34722   9.435   6.571  11.572 -0.2429 -1.6697 -0.4505
  998MOL0     H34723   9.583   6.645  11.636  0.3169  0.9539  0.5694
  998MOL0     H34724   9.569   6.387  11.478  1.7765 -1.3986  0.5753
  998MOL0     H34725   9.718   6.438  11.536 -1.5048 -0.3057 -0.7023
  998MOL0     H34726   9.532   6.222  11.852 -1.1118  1.7490  2.5234
  998MOL0     H34727   9.346   6.488  11.064 -0.8152 -0.7296  0.4724
  998MOL0     H34728   9.088   6.534  10.847  0.2276 -1.1761 -0.3733
  998MOL0     H34729   9.199   6.404  10.917 -0.7919 -2.5721 -0.5531
  998MOL0     H34730   9.027   6.418  10.954 -1.0521  1.2839 -1.9780
  999MOL0     O34731   9.482   9.537   6.422  0.1503  0.7834 -0.1900
  999MOL0     C34732   9.385   9.613   6.421 -0.5303 -0.0344 -0.8072
  999MOL0     O34733   9.389   9.737   6.471  0.0407 -0.3450 -0.1401
  999MOL0     C34734   9.494   9.779   6.560  1.5340  0.1986 -0.1030
  999MOL0     C34735   9.574   9.884   6.522 -0.0698 -0.9559 -0.1908
  999MOL0     C34736   9.680   9.924   6.593  0.3189  0.7518  0.6323
  999MOL0     C34737   9.700   9.851   6.715  1.2628 -0.0751 -0.4286
  999MOL0     O34738   9.791   9.882   6.820  0.2724 -0.7477  0.2772
  999MOL0     C34739   9.885   9.990   6.819  0.0616  0.2532 -0.0637
  999MOL0     C34740  10.004   9.954   6.896  0.4838 -0.9168  0.2183
  999MOL0     C34741  10.108  10.073   6.870  0.6338 -0.0053 -0.1683
  999MOL0     C34742  10.244  10.031   6.921 -0.6104 -0.6603  0.0498
  999MOL0     C34743  10.332  10.167   6.939  0.6616 -0.3589  0.9037
  999MOL0     C34744  10.482  10.139   6.961 -0.1712 -0.5027  0.6127
  999MOL0     C34745  10.499  10.072   7.094 -0.2687  0.6074 -0.3501
  999MOL0     C34746  10.643  10.049   7.116  0.2686  0.2025  0.2662
  999MOL0     N34747  10.726  10.159   7.138  0.1459 -0.3218  0.1403
  999MOL0     C34748  10.807  10.234   7.056  0.0233 -0.3975  0.6497
  999MOL0     C34749  10.864  10.316   7.142  0.0114  0.8739 -0.0054
  999MOL0     C34750  10.971  10.413   7.121 -0.0669 -0.2507 -0.1441
  999MOL0     C34751  10.934  10.521   7.022  0.1599 -0.1477 -0.0620
  999MOL0     C34752  10.990  10.665   7.058 -1.5029  0.4030  0.2641
  999MOL0     C34753  11.140  10.648   7.041 -0.1724  0.2569 -1.4862
  999MOL0     O34754  11.196  10.755   7.124  0.8932 -0.0244 -0.5963
  999MOL0     C34755  11.301  10.835   7.084 -0.0499 -0.8695 -0.1448
  999MOL0     C34756  11.397  10.800   6.993 -1.1101  0.2227  0.7336
  999MOL0     C34757  11.486  10.894   6.940 -0.2978  0.9247  0.2019
  999MOL0     C34758  11.485  11.030   6.985  1.1543  0.0381  0.3919
  999MOL0     C34759  11.559  11.133   6.923 -0.7488 -0.2482 -0.4877
  999MOL0     O34760  11.655  11.093   6.832 -0.1482 -0.2172  0.0937
  999MOL0     C34761  11.759  11.179   6.801 -0.8368  0.5127 -0.8183
  999MOL0     C34762  11.761  11.270   6.698  0.8145  0.6102  0.2766
  999MOL0     C34763  11.873  11.341   6.663 -0.6696 -0.6779  0.0427
  999MOL0     C34764  11.990  11.336   6.742  0.2150 -0.3161 -1.0504
  999MOL0     O34765  12.084  11.423   6.698  0.5765 -0.1115 -0.4946
  999MOL0     C34766  12.228  11.393   6.697 -0.4390 -0.2025  0.3600
  999MOL0     C34767  12.313  11.487   6.614  0.6182  0.1879  0.1679
  999MOL0     C34768  12.284  11.492   6.460 -0.4391 -0.0198  0.1960
  999MOL0     C34769  12.363  11.399   6.374 -0.5063 -1.3588 -0.3842
  999MOL0     C34770  12.342  11.404   6.225  0.5509  0.8172 -0.0011
  999MOL0     C34771  12.367  11.543   6.162 -0.4482 -0.8478 -0.8338
  999MOL0     C34772  12.391  11.542   6.011 -0.1977  0.2241  0.3593
  999MOL0     C34773  12.498  11.431   5.969  0.7899  0.7352 -1.2391
  999MOL0    Cl34774  12.575  11.468   5.815  0.0905  0.3292  0.0469
  999MOL0     C34775  11.991  11.250   6.856  0.4577  1.2333  0.6388
  999MOL0     C34776  11.883  11.161   6.872  0.5211  0.5232 -1.3993
  999MOL0     O34777  11.524  11.251   6.939  0.0133 -0.2295  0.2771
  999MOL0     C34778  11.397  11.057   7.087  0.8460  0.3912 -0.2560
  999MOL0     C34779  11.297  10.967   7.130 -0.5422  0.0732  0.1057
  999MOL0     N34780  10.824  10.299   7.275 -0.5634 -0.6870  0.2402
  999MOL0     N34781  10.740  10.207   7.265  0.5468  0.3849  0.6654
  999MOL0     C34782   9.618   9.739   6.751 -0.1303  0.4842  1.1705
  999MOL0     C34783   9.512   9.710   6.672 -0.3746 -0.4896  0.7111
  999MOL0     C34784   9.262   9.556   6.385  0.0818 -0.0183  0.7223
  999MOL0     C34785   9.259   9.464   6.281 -0.2780  0.1013 -0.1289
  999MOL0     C34786   9.161   9.371   6.254  0.1042  0.0738 -0.7631
  999MOL0     C34787   9.038   9.399   6.311  0.2845  0.3180  0.0012
  999MOL0     O34788   8.922   9.330   6.288 -0.1417 -0.0445 -0.1234
  999MOL0     C34789   8.871   9.363   6.157 -0.2248 -0.0801 -0.4641
  999MOL0     C34790   8.763   9.260   6.113  0.7160 -0.4740 -0.1199
  999MOL0     C34791   8.630   9.325   6.065 -0.5361  0.4410 -0.2855
  999MOL0     C34792   8.627   9.371   5.920  0.0526 -0.7625  0.1969
  999MOL0     C34793   8.617   9.244   5.843 -0.9757  0.0206  0.8474
  999MOL0     C34794   8.615   9.134   5.790 -0.1217  0.7436  0.4390
  999MOL0     C34795   9.016   9.510   6.388 -0.4961 -0.4322 -0.0112
  999MOL0     C34796   9.130   9.588   6.426 -0.2174  0.2297 -0.2286
  999MOL0     C34797   9.109   9.694   6.531 -0.6999  0.1526  1.0333
  999MOL0     H34798   9.569   9.944   6.432 -1.5306  2.4312  1.9597
  999MOL0     H34799   9.744  10.001   6.550 -1.6707  0.8975 -2.3245
  999MOL0     H34800   9.911   9.998   6.713  0.6275 -0.4579  0.0122
  999MOL0     H34801   9.835  10.082   6.852  1.0400  0.6326  0.3708
  999MOL0     H34802  10.043   9.861   6.855 -0.4427 -1.0563 -0.3692
  999MOL0     H34803   9.975   9.938   7.000 -4.4837 -2.2477 -1.1215
  999MOL0     H34804  10.068  10.168   6.907 -2.3809  0.4703 -4.0647
  999MOL0     H34805  10.112  10.090   6.762  1.0115  0.9078 -0.0188
  999MOL0     H34806  10.243   9.996   7.025 -2.8776  2.1377  1.1172
  999MOL0     H34807  10.293   9.962   6.852  2.3247 -0.0755  1.3697
  999MOL0     H34808  10.325  10.221   6.844  2.2929 -1.9141 -0.1866
  999MOL0     H34809  10.299  10.219   7.029  5.1182  2.3676  1.2509
  999MOL0     H34810  10.508  10.074   6.877 -2.6168 -0.6844 -0.0900
  999MOL0     H34811  10.550  10.224   6.961  0.5070 -1.0191  1.9662
  999MOL0     H34812  10.453   9.974   7.112  0.0566  0.6381  0.7485
  999MOL0     H34813  10.456  10.132   7.174 -1.9352  0.1636 -0.8641
  999MOL0     H34814  10.649   9.995   7.211  3.7410  1.6610  1.0405
  999MOL0     H34815  10.687   9.983   7.041 -0.5160  0.2814 -0.2700
  999MOL0     H34816  10.836  10.212   6.953 -2.7614 -1.7382  0.0280
  999MOL0     H34817  11.026  10.437   7.213 -1.2011 -1.1423  0.7916
  999MOL0     H34818  11.040  10.353   7.062 -0.1443  1.5238 -2.1522
  999MOL0     H34819  10.960  10.485   6.922 -2.0224 -1.8496 -0.0859
  999MOL0     H34820  10.826  10.533   7.015  0.3250  0.3394 -3.6159
  999MOL0     H34821  10.965  10.693   7.161  0.5023  2.0412  0.3501
  999MOL0     H34822  10.954  10.742   6.989 -1.1900  0.1159 -0.2277
  999MOL0     H34823  11.161  10.661   6.934 -2.1881  2.1137 -1.7396
  999MOL0     H34824  11.181  10.558   7.087  1.6499  1.0298 -1.5053
  999MOL0     H34825  11.409  10.702   6.948 -0.0832  0.4165  0.5533
  999MOL0     H34826  11.548  10.864   6.856 -2.0253 -1.2924 -0.3937
  999MOL0     H34827  11.666  11.285   6.647 -0.1149 -3.1220  0.6393
  999MOL0     H34828  11.877  11.403   6.574  2.1828  1.0137  1.1988
  999MOL0     H34829  12.267  11.377   6.798 -0.0568  1.3942  0.4876
  999MOL0     H34830  12.236  11.293   6.654  0.1160 -1.4948  3.2074
  999MOL0     H34831  12.301  11.583   6.663  3.0477 -0.5772  2.5214
  999MOL0     H34832  12.420  11.469   6.627  0.1309 -4.1462 -0.3528
  999MOL0     H34833  12.179  11.478   6.435  0.0747 -1.5709 -1.3040
  999MOL0     H34834  12.308  11.593   6.426 -1.5753  0.2239  0.0709
  999MOL0     H34835  12.354  11.297   6.413 -3.1491  0.6816  5.3740
  999MOL0     H34836  12.467  11.428   6.392 -1.1798 -0.1096  1.7192
  999MOL0     H34837  12.240  11.375   6.199  0.4808  1.9190 -1.0415
  999MOL0     H34838  12.413  11.328   6.191 -1.1090  0.0359 -1.9267
  999MOL0     H34839  12.289  11.611   6.198 -0.8915 -1.2863 -0.9644
  999MOL0     H34840  12.461  11.583   6.201 -1.7559  0.1957  1.4842
  999MOL0     H34841  12.442  11.635   5.984 -0.1686  0.2876  0.6341
  999MOL0     H34842  12.300  11.537   5.949 -0.1988  4.1356 -0.2061
  999MOL0     H34843  12.576  11.424   6.045  0.9526 -0.4093 -1.4939
  999MOL0     H34844  12.463  11.328   5.956 -0.0225  1.0924 -2.0264
  999MOL0     H34845  12.076  11.244   6.922  0.7282 -2.1546  0.1848
  999MOL0     H34846  11.894  11.082   6.946  1.5561  1.6397 -0.3142
  999MOL0     H34847  11.402  11.158   7.128  1.1686  0.1008  0.4255
  999MOL0     H34848  11.230  11.000   7.209 -2.0546 -0.5754 -0.8886
  999MOL0     H34849   9.611   9.702   6.853 -2.5437  0.0889  0.9199
  999MOL0     H34850   9.436   9.638   6.702 -1.6201  0.2944 -0.4661
  999MOL0     H34851   9.345   9.457   6.216 -0.4788  1.5263 -0.5873
  999MOL0     H34852   9.162   9.288   6.185 -0.0276 -0.4732 -0.1245
  999MOL0     H34853   8.946   9.376   6.079 -0.7041  2.6966 -0.5686
  999MOL0     H34854   8.825   9.462   6.167  1.4065  0.6737 -0.1146
  999MOL0     H34855   8.741   9.193   6.196 -0.5997  0.9383  0.7150
  999MOL0     H34856   8.822   9.205   6.039  0.9327  2.0712 -2.0130
  999MOL0     H34857   8.600   9.414   6.122  0.4225  3.6551 -4.2980
  999MOL0     H34858   8.553   9.251   6.088 -1.5722  1.3153 -0.8164
  999MOL0     H34859   8.535   9.428   5.903  1.3207  2.4506  2.9318
  999MOL0     H34860   8.721   9.423   5.897  1.4105 -3.3004 -0.3828
  999MOL0     H34861   8.640   9.036   5.754  1.8938  1.0531  0.8450
  999MOL0     H34862   8.920   9.532   6.432 -1.2569 -1.6671 -0.9729
  999MOL0     H34863   9.166   9.681   6.623 -2.9943 -1.4954  2.3143
  999MOL0     H34864   9.134   9.787   6.479 -3.8106 -0.3302 -1.6911
  999MOL0     H34865   9.001   9.693   6.552 -1.3082 -1.4205 -1.7003
 1000MOL0     O34866   4.163   6.821   3.950  0.1417 -0.0617 -0.5342
 1000MOL0     C34867   4.235   6.864   3.866  0.2838  0.2960  0.2467
 1000MOL0     O34868   4.362   6.822   3.839  0.6501 -0.2014  0.0549
 1000MOL0     C34869   4.443   6.755   3.925  0.5007  0.1678  0.4290
 1000MOL0     C34870   4.453   6.787   4.060  0.2779  0.5205 -0.4795
 1000MOL0     C34871   4.563   6.737   4.133  0.4774  0.1037  1.2273
 1000MOL0     C34872   4.647   6.641   4.074  0.2299 -0.4637 -0.3665
 1000MOL0     O34873   4.757   6.616   4.149 -0.2522 -0.7134 -0.2618
 1000MOL0     C34874   4.789   6.474   4.157 -0.2012  0.4310  0.7784
 1000MOL0     C34875   4.901   6.455   4.258 -0.0832  0.2307  0.0067
 1000MOL0     C34876   4.903   6.306   4.303 -0.5086  0.5405 -0.2770
 1000MOL0     C34877   5.036   6.270   4.359 -0.5939  0.8581 -0.6805
 1000MOL0     C34878   5.058   6.122   4.382 -0.7536  0.5805 -0.1432
 1000MOL0     C34879   5.186   6.087   4.467  1.7741 -0.5955 -0.0239
 1000MOL0     C34880   5.310   6.107   4.401 -0.1939  1.7614  0.3150
 1000MOL0     C34881   5.417   6.054   4.504  0.2020  0.3893 -0.3894
 1000MOL0     N34882   5.543   6.099   4.448  0.6701 -0.2453 -0.2323
 1000MOL0     C34883   5.623   6.012   4.383  0.3684  0.2196  0.5430
 1000MOL0     C34884   5.731   6.074   4.362 -0.6154  0.0996 -0.3962
 1000MOL0     C34885   5.854   6.008   4.296  0.6540  0.0903  0.1650
 1000MOL0     C34886   5.955   5.953   4.404 -0.0975  0.5878  0.4190
 1000MOL0     C34887   6.075   6.044   4.435 -1.0189  0.1646  0.1734
 1000MOL0     C34888   6.035   6.147   4.543 -1.2170  0.1989  0.3270
 1000MOL0     O34889   5.990   6.098   4.679 -0.3002  0.2825 -0.1719
 1000MOL0     C34890   6.076   6.045   4.775 -0.3387 -0.5390 -0.3304
 1000MOL0     C34891   6.201   5.997   4.748  0.6169 -0.0756 -0.3610
 1000MOL0     C34892   6.289   5.953   4.850 -0.4990  1.0108  0.1559
 1000MOL0     C34893   6.251   5.944   4.981  0.9600  0.4723  0.3675
 1000MOL0     C34894   6.335   5.877   5.081  0.5901  0.0637  0.5314
 1000MOL0     O34895   6.461   5.854   5.061 -0.2061  0.0465  0.5743
 1000MOL0     C34896   6.536   5.810   5.161 -0.0149 -0.6303 -0.2039
 1000MOL0     C34897   6.563   5.676   5.176  0.6139 -0.2302  0.3487
 1000MOL0     C34898   6.643   5.617   5.278 -0.9522  0.0520  0.6631
 1000MOL0     C34899   6.690   5.713   5.367 -0.2037 -0.4927  0.2388
 1000MOL0     O34900   6.776   5.695   5.467 -0.4045 -0.1540 -0.1126
 1000MOL0     C34901   6.894   5.620   5.438  0.1079  0.6740  0.3254
 1000MOL0     C34902   6.983   5.661   5.557  0.1627  0.3275  0.3641
 1000MOL0     C34903   6.991   5.811   5.558 -0.2196 -0.9399 -0.1005
 1000MOL0     C34904   7.125   5.857   5.614  0.4514  0.8810 -0.0164
 1000MOL0     C34905   7.142   6.011   5.603 -0.6535 -0.0442 -0.1539
 1000MOL0     C34906   7.224   6.059   5.725 -0.7321 -0.8853 -0.7435
 1000MOL0     C34907   7.209   6.212   5.743  0.2431  0.1532 -0.2218
 1000MOL0     C34908   7.351   6.273   5.778 -0.3131 -0.4973  0.1513
 1000MOL0    Cl34909   7.463   6.253   5.640 -0.3758  0.5639 -0.1712
 1000MOL0     C34910   6.666   5.851   5.355 -0.4875 -0.5295  0.2515
 1000MOL0     C34911   6.595   5.897   5.249 -0.2899  0.4196 -0.6788
 1000MOL0     O34912   6.263   5.823   5.169  0.0219 -0.8528  0.6485
 1000MOL0     C34913   6.113   5.983   5.012 -0.3743 -0.0479 -0.5530
 1000MOL0     C34914   6.036   6.042   4.912  0.4015 -0.2188 -0.2357
 1000MOL0     N34915   5.728   6.200   4.422  0.2504 -0.8008  0.1383
 1000MOL0     N34916   5.615   6.209   4.475  0.8063 -0.3535  0.5602
 1000MOL0     C34917   4.627   6.599   3.947 -0.0939 -0.8362  0.0335
 1000MOL0     C34918   4.527   6.659   3.871  0.7456  1.1649 -0.7332
 1000MOL0     C34919   4.175   6.965   3.772  0.8651 -0.2874  0.0901
 1000MOL0     C34920   4.203   6.949   3.634 -0.7154 -0.8236  0.3482
 1000MOL0     C34921   4.151   7.030   3.536  0.1441  0.5241 -0.0236
 1000MOL0     C34922   4.066   7.134   3.561 -0.4511 -1.3604 -1.0937
 1000MOL0     O34923   4.014   7.220   3.464  0.0885 -0.1218 -0.2908
 1000MOL0     C34924   3.890   7.180   3.409 -0.8638 -0.0469  1.2182
 1000MOL0     C34925   3.922   7.085   3.294  0.0306  0.3121  0.9916
 1000MOL0     C34926   3.974   7.153   3.172  1.0696  0.0527  0.5016
 1000MOL0     C34927   4.035   7.069   3.063  0.3982 -0.6063  0.5152
 1000MOL0     C34928   3.952   6.982   2.985  0.0043 -0.0231  0.6899
 1000MOL0     C34929   3.888   6.921   2.902 -0.0593 -0.0961  0.4597
 1000MOL0     C34930   4.043   7.159   3.700  0.1846  0.3428  0.1908
 1000MOL0     C34931   4.094   7.073   3.811  0.1705 -0.0573  0.8561
 1000MOL0     C34932   4.074   7.104   3.956  0.4309 -0.1784 -0.4623
 1000MOL0     H34933   4.392   6.858   4.115  0.3256 -0.2832  0.6464
 1000MOL0     H34934   4.584   6.760   4.237  0.1691  0.1594  1.2767
 1000MOL0     H34935   4.700   6.420   4.190 -0.5645 -0.4474 -1.4587
 1000MOL0     H34936   4.823   6.438   4.060  1.0890 -0.8151  1.6464
 1000MOL0     H34937   4.882   6.515   4.347  0.6604 -1.8951  1.7006
 1000MOL0     H34938   4.995   6.485   4.210  0.3667 -1.1906 -0.0647
 1000MOL0     H34939   4.878   6.243   4.218  1.0561  0.5259 -0.7531
 1000MOL0     H34940   4.828   6.287   4.381 -0.4166  0.4877 -0.2019
 1000MOL0     H34941   5.114   6.319   4.300  0.5712 -0.9640 -0.7413
 1000MOL0     H34942   5.038   6.314   4.459  1.4296  1.1540 -0.8165
 1000MOL0     H34943   4.976   6.084   4.444  0.1921 -0.0881  0.7326
 1000MOL0     H34944   5.051   6.066   4.288  0.9114  0.1857 -0.0578
 1000MOL0     H34945   5.189   6.144   4.560  0.4732 -0.2446 -0.1737
 1000MOL0     H34946   5.175   5.986   4.507 -1.5143 -1.2325 -2.0742
 1000MOL0     H34947   5.319   6.210   4.366  0.0872  1.0000 -1.9998
 1000MOL0     H34948   5.298   6.055   4.305 -1.6113  0.2797  1.2309
 1000MOL0     H34949   5.401   6.102   4.601  0.6100  0.2427 -0.2461
 1000MOL0     H34950   5.424   5.947   4.522 -0.3887  0.4060 -0.0468
 1000MOL0     H34951   5.605   5.911   4.348 -3.2877 -0.0880  2.8417
 1000MOL0     H34952   5.801   5.933   4.237  0.5420  1.5932 -1.7656
 1000MOL0     H34953   5.897   6.080   4.225  3.2401 -0.9797  0.5376
 1000MOL0     H34954   5.918   5.916   4.499 -1.9979 -1.8980 -1.1797
 1000MOL0     H34955   5.997   5.869   4.347  0.1574  1.3835 -0.6169
 1000MOL0     H34956   6.113   6.103   4.351  1.0070  0.8232  1.4749
 1000MOL0     H34957   6.165   5.989   4.464 -0.8083  1.0524  1.2655
 1000MOL0     H34958   5.958   6.214   4.504  2.4654  3.2404 -2.5432
 1000MOL0     H34959   6.121   6.213   4.557  0.5561 -1.7805 -0.6403
 1000MOL0     H34960   6.246   6.001   4.649 -0.1708  0.2202 -0.7176
 1000MOL0     H34961   6.384   5.905   4.828 -0.7289  0.4943  0.2797
 1000MOL0     H34962   6.515   5.619   5.097 -1.2897  3.6548 -1.6087
 1000MOL0     H34963   6.665   5.511   5.286  1.6915  0.1826 -2.5698
 1000MOL0     H34964   6.877   5.512   5.444  1.0157  0.5368  0.6688
 1000MOL0     H34965   6.944   5.650   5.345  2.6119 -1.4953  0.8593
 1000MOL0     H34966   6.944   5.629   5.654  0.9395  0.9341  0.8920
 1000MOL0     H34967   7.077   5.606   5.552  2.5904  3.5852  4.2724
 1000MOL0     H34968   6.978   5.839   5.453  0.7781 -1.7242 -0.4421
 1000MOL0     H34969   6.915   5.854   5.624  0.9175  1.9360 -0.5204
 1000MOL0     H34970   7.201   5.803   5.557 -1.1381 -0.4820 -0.9126
 1000MOL0     H34971   7.126   5.822   5.718 -1.4361  1.7124  0.3219
 1000MOL0     H34972   7.043   6.051   5.627  0.0977  0.3027  2.6925
 1000MOL0     H34973   7.174   6.017   5.499 -1.6867 -2.4580 -0.6946
 1000MOL0     H34974   7.183   6.015   5.815  2.4627  1.8793  2.3794
 1000MOL0     H34975   7.329   6.028   5.724 -1.1136 -2.5839  2.4642
 1000MOL0     H34976   7.130   6.231   5.816  0.4889 -0.3813  0.1982
 1000MOL0     H34977   7.179   6.264   5.652 -3.2268 -0.2578  0.5736
 1000MOL0     H34978   7.354   6.378   5.809 -1.9054 -0.5442  0.5710
 1000MOL0     H34979   7.388   6.221   5.866  1.0933  2.5749  1.5209
 1000MOL0     H34980   6.703   5.917   5.433  2.0479 -0.9474 -0.4974
 1000MOL0     H34981   6.576   6.004   5.236  0.4790  0.5916 -0.4424
 1000MOL0     H34982   6.075   5.989   5.114 -1.7272 -1.6628 -0.9107
 1000MOL0     H34983   5.945   6.097   4.932  0.4590  0.3299 -1.3907
 1000MOL0     H34984   4.701   6.542   3.892  0.5684 -0.5369  0.5937
 1000MOL0     H34985   4.525   6.644   3.764 -2.1328 -1.7464 -0.4347
 1000MOL0     H34986   4.255   6.858   3.605  0.6517  0.8407 -2.8727
 1000MOL0     H34987   4.178   7.007   3.433 -0.5783 -3.4283  0.5129
 1000MOL0     H34988   3.840   7.268   3.368  1.0962 -0.5731 -2.7899
 1000MOL0     H34989   3.826   7.127   3.480 -1.1129 -1.6834 -0.1614
 1000MOL0     H34990   3.824   7.046   3.266 -0.1915 -0.3985  2.6043
 1000MOL0     H34991   3.994   7.006   3.317 -0.4714 -0.5858 -0.3748
 1000MOL0     H34992   4.044   7.229   3.208 -0.9806  1.5841  1.4572
 1000MOL0     H34993   3.900   7.217   3.123  1.6896 -0.9297 -1.8499
 1000MOL0     H34994   4.099   7.134   3.004  1.3661  0.7896  2.9602
 1000MOL0     H34995   4.103   7.003   3.118 -0.9444 -0.3676  2.5637
 1000MOL0     H34996   3.818   6.875   2.836  2.2905 -0.6759 -1.7835
 1000MOL0     H34997   3.982   7.249   3.709  0.0521  0.1138  1.9082
 1000MOL0     H34998   4.043   7.208   3.974  0.2045  0.1004 -2.2749
 1000MOL0     H34999   3.989   7.041   3.984 -1.8260  1.6918 -2.6167
 1000MOL0     H35000   4.162   7.079   4.016 -0.2765  0.2530  0.7921
 1001MOL0     O35001   6.345  10.754   1.023  0.8648  0.0136  0.3233
 1001MOL0     C35002   6.315  10.638   1.055  0.8576 -0.1472  0.6747
 1001MOL0     O35003   6.199  10.596   1.115 -0.2136 -0.5320 -0.6452
 1001MOL0     C35004   6.104  10.691   1.125 -0.2795 -0.8584 -0.7434
 1001MOL0     C35005   6.024  10.682   1.248 -1.2646 -1.0482  0.0062
 1001MOL0     C35006   5.918  10.774   1.274 -0.3221 -1.3037  0.5889
 1001MOL0     C35007   5.896  10.880   1.175 -0.1915 -0.1881  0.2587
 1001MOL0     O35008   5.794  10.965   1.182  0.6552  0.6727 -0.2211
 1001MOL0     C35009   5.673  10.893   1.185  0.4170  0.5689 -0.1009
 1001MOL0     C35010   5.575  10.985   1.130 -0.2531 -1.3909 -0.1435
 1001MOL0     C35011   5.434  10.920   1.147  0.6618  0.2167 -0.5401
 1001MOL0     C35012   5.329  11.031   1.115  0.4739 -0.2469 -0.1044
 1001MOL0     C35013   5.178  10.986   1.103 -0.5635 -0.4374  0.2410
 1001MOL0     C35014   5.098  11.111   1.075 -0.5885 -0.2045  0.4872
 1001MOL0     C35015   4.947  11.090   1.054 -0.7171 -0.8147  0.6852
 1001MOL0     C35016   4.865  11.210   1.094  0.1528 -0.3258  0.4325
 1001MOL0     N35017   4.894  11.323   1.005  1.0592  0.7220  0.4404
 1001MOL0     C35018   5.010  11.398   1.000 -0.1147  0.2434 -0.7194
 1001MOL0     C35019   4.991  11.455   0.881  0.0340 -1.9954 -1.3329
 1001MOL0     C35020   5.089  11.558   0.826  0.4339  0.0132 -0.0083
 1001MOL0     C35021   5.200  11.503   0.738 -0.4368  0.4203 -0.0588
 1001MOL0     C35022   5.290  11.413   0.815 -0.7204 -0.0819  0.0673
 1001MOL0     C35023   5.421  11.379   0.754  1.2561  0.4506 -0.3637
 1001MOL0     O35024   5.508  11.336   0.861 -0.0622 -0.4384  0.3594
 1001MOL0     C35025   5.638  11.306   0.830 -0.6787  0.3185  0.2480
 1001MOL0     C35026   5.724  11.286   0.939  0.8662 -0.1243 -0.3597
 1001MOL0     C35027   5.859  11.244   0.917  0.3718 -0.0857 -0.1769
 1001MOL0     C35028   5.908  11.216   0.788  0.6563  0.2299 -0.6850
 1001MOL0     C35029   6.053  11.171   0.762  0.4960  0.4502  0.4523
 1001MOL0     O35030   6.145  11.184   0.859 -0.7181  0.4450  0.3139
 1001MOL0     C35031   6.275  11.144   0.835 -0.2908  0.8992  0.0189
 1001MOL0     C35032   6.333  11.041   0.914  0.4216 -0.0060  0.1610
 1001MOL0     C35033   6.461  11.006   0.885  0.4256  0.4306  0.2541
 1001MOL0     C35034   6.534  11.065   0.782 -0.0574  0.4828  0.5138
 1001MOL0     O35035   6.668  11.028   0.764  0.1443 -0.5525  0.1129
 1001MOL0     C35036   6.777  11.112   0.703 -0.6396  0.0375  0.2682
 1001MOL0     C35037   6.905  11.086   0.772 -1.1622  0.8201  0.5108
 1001MOL0     C35038   6.971  10.953   0.729 -0.1457  0.1000  0.7736
 1001MOL0     C35039   7.032  10.953   0.586 -0.7963 -0.5170 -0.0362
 1001MOL0     C35040   7.097  10.813   0.561  0.0590 -0.0131  0.9229
 1001MOL0     C35041   7.174  10.816   0.427 -0.2578 -1.1070  0.9404
 1001MOL0     C35042   7.222  10.675   0.390  0.0266 -0.3243 -0.9816
 1001MOL0     C35043   7.319  10.669   0.275 -0.7935  0.1403  0.5969
 1001MOL0    Cl35044   7.476  10.756   0.316  0.4990  0.0086 -0.4772
 1001MOL0     C35045   6.480  11.164   0.698 -0.4490 -1.0784 -0.0568
 1001MOL0     C35046   6.343  11.199   0.724 -0.0966 -0.1362  0.1746
 1001MOL0     O35047   6.076  11.125   0.646 -0.6370  0.6720 -0.5423
 1001MOL0     C35048   5.832  11.259   0.682  0.9427 -0.3874 -0.8320
 1001MOL0     C35049   5.700  11.298   0.701  0.4879  1.1236  0.6827
 1001MOL0     N35050   4.881  11.422   0.814  0.1177 -0.4210  0.3247
 1001MOL0     N35051   4.814  11.348   0.894  0.4137  0.7119  0.6572
 1001MOL0     C35052   5.961  10.871   1.050 -0.4847 -0.9753 -0.0674
 1001MOL0     C35053   6.068  10.784   1.030  0.4048 -0.1484 -0.1709
 1001MOL0     C35054   6.421  10.530   1.037  0.0451 -0.3731  0.4616
 1001MOL0     C35055   6.421  10.436   1.137 -0.3287 -0.1593  0.2821
 1001MOL0     C35056   6.517  10.355   1.140 -0.0373  0.4727 -0.2562
 1001MOL0     C35057   6.623  10.344   1.056 -0.5653  0.2196  0.2562
 1001MOL0     O35058   6.689  10.220   1.059  0.1895  0.8018 -0.0911
 1001MOL0     C35059   6.808  10.193   0.971  0.6750 -0.5615  0.1978
 1001MOL0     C35060   6.942  10.250   1.034  0.2073 -0.8556  0.3558
 1001MOL0     C35061   7.061  10.188   0.956 -0.8715 -0.1052 -0.3317
 1001MOL0     C35062   7.188  10.268   0.973 -0.2355 -1.2054 -0.3294
 1001MOL0     C35063   7.220  10.261   1.113  0.4854  0.6797  0.6901
 1001MOL0     C35064   7.263  10.242   1.220 -0.4982 -0.3302  0.4871
 1001MOL0     C35065   6.630  10.439   0.955 -1.5595  0.5947  0.5511
 1001MOL0     C35066   6.529  10.536   0.944 -0.3334  0.1306  0.0706
 1001MOL0     C35067   6.538  10.626   0.828 -0.0663  1.1033  0.0372
 1001MOL0     H35068   6.060  10.607   1.317  2.3220  0.4878  0.0070
 1001MOL0     H35069   5.865  10.764   1.368  1.4496 -0.8726  1.6797
 1001MOL0     H35070   5.673  10.805   1.121 -3.3977 -0.2583  0.8301
 1001MOL0     H35071   5.646  10.858   1.285  0.1423 -0.1543 -0.4216
 1001MOL0     H35072   5.594  10.992   1.023 -0.3333 -0.9592 -0.1329
 1001MOL0     H35073   5.598  11.084   1.172  0.9027 -0.5608 -2.5043
 1001MOL0     H35074   5.412  10.877   1.245  0.4623  0.0806 -0.6434
 1001MOL0     H35075   5.414  10.844   1.071  1.1301 -0.4071 -0.0473
 1001MOL0     H35076   5.334  11.105   1.196  1.3627 -3.2078  2.8050
 1001MOL0     H35077   5.355  11.083   1.023  1.0971  1.4837  1.0049
 1001MOL0     H35078   5.176  10.912   1.022  1.7387 -0.1790 -0.1388
 1001MOL0     H35079   5.145  10.939   1.197  2.0130 -2.5996  0.2130
 1001MOL0     H35080   5.105  11.168   1.168 -0.3333 -1.9147  1.5658
 1001MOL0     H35081   5.144  11.183   1.006 -1.1703 -0.6606 -0.4010
 1001MOL0     H35082   4.919  11.001   1.111 -2.0735  0.8991  2.8584
 1001MOL0     H35083   4.922  11.064   0.951 -0.3774 -1.2891  0.7231
 1001MOL0     H35084   4.758  11.187   1.092  0.2606 -1.0541  1.5604
 1001MOL0     H35085   4.883  11.226   1.201 -1.9234  1.1031  0.6344
 1001MOL0     H35086   5.089  11.400   1.074 -1.5153 -4.4171  1.3079
 1001MOL0     H35087   5.035  11.621   0.755  1.2637 -0.9303 -1.5132
 1001MOL0     H35088   5.135  11.625   0.900 -0.4160 -0.8510  1.3444
 1001MOL0     H35089   5.148  11.450   0.658  0.6952 -1.5270  0.4405
 1001MOL0     H35090   5.260  11.580   0.687 -0.1308 -0.8527 -1.7034
 1001MOL0     H35091   5.240  11.319   0.841 -2.8574  1.7707  3.4051
 1001MOL0     H35092   5.311  11.467   0.908  0.0414 -1.4811  0.7435
 1001MOL0     H35093   5.473  11.465   0.711  1.2187 -0.9272 -3.4349
 1001MOL0     H35094   5.420  11.296   0.683 -0.7565  0.2411 -0.1459
 1001MOL0     H35095   5.674  11.298   1.034 -1.5353  0.0218 -1.5683
 1001MOL0     H35096   5.919  11.233   1.007  0.0067  1.1351  0.2417
 1001MOL0     H35097   6.272  11.002   0.995 -0.9285  3.7339  1.1380
 1001MOL0     H35098   6.504  10.924   0.942  1.5558 -0.6249 -1.9845
 1001MOL0     H35099   6.770  11.106   0.594 -0.9436  2.5526  0.1083
 1001MOL0     H35100   6.749  11.214   0.729 -1.6045 -0.5306  1.6015
 1001MOL0     H35101   6.975  11.168   0.750  1.5181 -1.3734  0.4087
 1001MOL0     H35102   6.889  11.082   0.880 -3.8151  0.4398  0.1651
 1001MOL0     H35103   7.040  10.922   0.808  2.3942 -0.9240 -1.6973
 1001MOL0     H35104   6.891  10.879   0.717  1.5699 -1.4644 -2.2580
 1001MOL0     H35105   7.111  11.026   0.567 -1.0573 -0.5333 -1.2897
 1001MOL0     H35106   6.952  10.973   0.514 -0.5948 -1.4880 -0.5517
 1001MOL0     H35107   7.024  10.733   0.549 -1.1917  1.4299 -2.6527
 1001MOL0     H35108   7.167  10.799   0.644  2.3129  0.0622 -0.8457
 1001MOL0     H35109   7.099  10.860   0.361  0.5216 -0.3692  0.5195
 1001MOL0     H35110   7.261  10.882   0.433 -0.3030 -0.4683 -2.8341
 1001MOL0     H35111   7.136  10.620   0.351 -4.1620  0.6366  5.3295
 1001MOL0     H35112   7.269  10.629   0.478 -1.4429  4.0468  2.4652
 1001MOL0     H35113   7.337  10.561   0.271 -4.7820 -0.6878  1.0450
 1001MOL0     H35114   7.270  10.716   0.190  1.0996  0.6025 -0.2754
 1001MOL0     H35115   6.539  11.210   0.619  1.3688  1.4289  2.5315
 1001MOL0     H35116   6.288  11.272   0.666  2.7735  1.1382 -1.1329
 1001MOL0     H35117   5.883  11.266   0.586  3.7831 -1.8338  0.4381
 1001MOL0     H35118   5.654  11.325   0.606  1.8140  0.1846 -0.2587
 1001MOL0     H35119   5.933  10.943   0.974  2.8630  1.5883  0.8837
 1001MOL0     H35120   6.121  10.771   0.936  0.6562 -3.3549  0.3205
 1001MOL0     H35121   6.351  10.436   1.220  1.4636  2.8782  1.9893
 1001MOL0     H35122   6.525  10.290   1.227  0.7383 -1.5647 -1.7884
 1001MOL0     H35123   6.797  10.247   0.876 -2.4287 -1.3999 -0.0097
 1001MOL0     H35124   6.817  10.085   0.958  0.9701 -0.7520  1.7214
 1001MOL0     H35125   6.940  10.233   1.142  0.3323  2.3481  0.9413
 1001MOL0     H35126   6.936  10.359   1.027  2.8910 -0.5895  1.1812
 1001MOL0     H35127   7.041  10.172   0.849 -2.6553 -2.9339  0.3293
 1001MOL0     H35128   7.069  10.094   1.011 -4.0194  1.8818  4.0521
 1001MOL0     H35129   7.268  10.218   0.917  0.8607  0.7139 -0.5653
 1001MOL0     H35130   7.186  10.374   0.947  1.2469 -1.0452  0.1371
 1001MOL0     H35131   7.301  10.232   1.320  0.3672 -1.3417  0.0729
 1001MOL0     H35132   6.711  10.428   0.884 -0.4185 -2.4630  2.1613
 1001MOL0     H35133   6.638  10.670   0.820  1.0643 -0.9883  1.6462
 1001MOL0     H35134   6.517  10.561   0.742  1.4990 -1.6682  1.6025
 1001MOL0     H35135   6.467  10.709   0.839 -0.6660  0.5211  0.6204
 1002MOL0     O35136   6.628   0.175   9.542  0.3547  0.7463 -0.3411
 1002MOL0     C35137   6.646   0.275   9.612  0.1250 -0.1276  0.9882
 1002MOL0     O35138   6.756   0.294   9.697  0.1175  0.7275 -0.3707
 1002MOL0     C35139   6.854   0.192   9.708  0.7454  0.5588  0.9059
 1002MOL0     C35140   6.955   0.240   9.786  0.3919  1.2143 -0.2810
 1002MOL0     C35141   7.057   0.158   9.824 -0.1811 -0.6952  0.2314
 1002MOL0     C35142   7.069   0.032   9.759  0.3560 -0.4884 -0.4026
 1002MOL0     O35143   7.170  -0.053   9.784 -0.2109  0.0243 -0.4567
 1002MOL0     C35144   7.298   0.002   9.762 -0.8932  0.1987 -0.2964
 1002MOL0     C35145   7.390  -0.114   9.719  0.6485  0.0784  0.1222
 1002MOL0     C35146   7.534  -0.056   9.701 -1.0028  0.5144 -0.2321
 1002MOL0     C35147   7.623  -0.157   9.624  0.3085  0.0114 -0.1058
 1002MOL0     C35148   7.769  -0.109   9.626 -0.0134  0.1765  0.0507
 1002MOL0     C35149   7.866  -0.189   9.546 -1.2455 -0.3571  0.8832
 1002MOL0     C35150   8.003  -0.120   9.523  0.3476 -0.0072 -0.5611
 1002MOL0     C35151   8.120  -0.217   9.499  0.0124  0.0050  0.8485
 1002MOL0     N35152   8.149  -0.287   9.613  0.4184  0.7150 -1.2818
 1002MOL0     C35153   8.180  -0.246   9.741  0.1542  0.0886 -0.1203
 1002MOL0     C35154   8.165  -0.360   9.821  0.1481 -0.7466  0.7862
 1002MOL0     C35155   8.183  -0.353   9.968  0.0948  0.6441 -0.4625
 1002MOL0     C35156   8.072  -0.283  10.049 -0.5303  0.5406  0.4454
 1002MOL0     C35157   7.969  -0.379  10.107  0.7460 -0.2431  0.2112
 1002MOL0     C35158   8.020  -0.466  10.218  0.2872 -0.3406  0.8206
 1002MOL0     O35159   7.924  -0.567  10.249  0.0510  0.8842  0.0837
 1002MOL0     C35160   7.809  -0.521  10.298  0.8898  0.7374 -0.1981
 1002MOL0     C35161   7.709  -0.613  10.269  0.5127  0.7414 -0.1739
 1002MOL0     C35162   7.576  -0.585  10.281  0.7144 -0.1698  0.6841
 1002MOL0     C35163   7.539  -0.469  10.357 -0.1620 -0.0742  0.5015
 1002MOL0     C35164   7.395  -0.448  10.383  1.2197 -0.1941  0.8735
 1002MOL0     O35165   7.309  -0.541  10.340 -0.4383  0.5913 -0.0896
 1002MOL0     C35166   7.177  -0.531  10.369  1.1598  0.5825  0.4074
 1002MOL0     C35167   7.088  -0.434  10.312 -0.1728  0.4880  0.5856
 1002MOL0     C35168   6.954  -0.413  10.347  0.2938 -0.4107  0.2773
 1002MOL0     C35169   6.900  -0.514  10.434 -0.1092  0.4098 -0.0300
 1002MOL0     O35170   6.765  -0.522  10.466 -0.7117  0.0776  1.2412
 1002MOL0     C35171   6.679  -0.439  10.393  0.0276 -0.1508  0.0037
 1002MOL0     C35172   6.526  -0.454  10.421  0.5022  0.2449 -0.8387
 1002MOL0     C35173   6.443  -0.336  10.355  0.1988 -0.2047  0.5635
 1002MOL0     C35174   6.288  -0.356  10.378  0.0601 -0.3840 -0.4239
 1002MOL0     C35175   6.201  -0.249  10.307 -0.1486 -0.7746 -0.0304
 1002MOL0     C35176   6.251  -0.099  10.342 -0.0782  1.0942  0.2884
 1002MOL0     C35177   6.147   0.007  10.350  1.1634  0.3822  0.1169
 1002MOL0     C35178   6.100   0.054  10.214  0.0105  0.4849  0.1273
 1002MOL0    Cl35179   6.001   0.203  10.241 -0.4926 -0.1712  0.1786
 1002MOL0     C35180   6.981  -0.623  10.469  0.1765  0.1311 -1.0724
 1002MOL0     C35181   7.115  -0.631  10.436  0.6138  0.3572  1.3183
 1002MOL0     O35182   7.361  -0.337  10.428 -0.4048  0.1448  0.9737
 1002MOL0     C35183   7.646  -0.382  10.397 -0.2434  0.6427 -0.0481
 1002MOL0     C35184   7.777  -0.406  10.374  0.1983  0.1365  0.0184
 1002MOL0     N35185   8.138  -0.463   9.735  0.4031 -0.5221  0.1593
 1002MOL0     N35186   8.116  -0.416   9.621 -0.1749  0.1880  0.6622
 1002MOL0     C35187   6.974  -0.012   9.677  0.0727 -0.0184 -0.5518
 1002MOL0     C35188   6.865   0.071   9.648 -1.3886  0.5847 -0.5723
 1002MOL0     C35189   6.551   0.388   9.622  0.7401 -0.6534 -0.1055
 1002MOL0     C35190   6.534   0.461   9.740  1.0199  1.2889 -0.8784
 1002MOL0     C35191   6.441   0.560   9.757 -0.5683  0.4197 -0.3964
 1002MOL0     C35192   6.360   0.587   9.654 -0.3745  0.2248 -0.1873
 1002MOL0     O35193   6.270   0.688   9.684  0.0737  0.2777 -0.1312
 1002MOL0     C35194   6.144   0.705   9.614 -0.7312  0.6614 -0.2901
 1002MOL0     C35195   6.040   0.787   9.694  0.7057  0.0552 -0.2701
 1002MOL0     C35196   6.111   0.913   9.760  0.1638  0.1780 -0.2333
 1002MOL0     C35197   6.008   1.024   9.794 -1.4408  0.0759 -0.4801
 1002MOL0     C35198   6.061   1.136   9.872 -0.3622  0.0620 -0.4559
 1002MOL0     C35199   6.090   1.237   9.937 -0.2198 -0.1905  0.3096
 1002MOL0     C35200   6.356   0.509   9.533 -0.1513  0.3683 -0.2020
 1002MOL0     C35201   6.464   0.421   9.508  0.4046  0.0872 -0.9217
 1002MOL0     C35202   6.469   0.360   9.365  0.1043 -0.1382  0.2334
 1002MOL0     H35203   6.948   0.337   9.834 -1.4978 -0.2007  2.6188
 1002MOL0     H35204   7.125   0.182   9.904  1.1700 -1.8894 -0.5211
 1002MOL0     H35205   7.302   0.093   9.702 -1.0300  0.4132  0.0141
 1002MOL0     H35206   7.333   0.036   9.860  1.8810 -3.7150  0.3046
 1002MOL0     H35207   7.345  -0.177   9.641 -2.4144 -0.9855  2.5337
 1002MOL0     H35208   7.398  -0.179   9.806  1.5323 -1.7504 -1.2513
 1002MOL0     H35209   7.570  -0.023   9.799 -0.3776  3.1093 -1.2475
 1002MOL0     H35210   7.533   0.035   9.640  1.3290  2.2225  2.0423
 1002MOL0     H35211   7.619  -0.250   9.682 -1.0514 -0.3196 -0.6998
 1002MOL0     H35212   7.580  -0.173   9.525 -1.7523  1.0026  0.5630
 1002MOL0     H35213   7.781  -0.005   9.592  2.9905 -0.0702  0.0710
 1002MOL0     H35214   7.804  -0.094   9.729 -1.2495 -1.2505  0.7006
 1002MOL0     H35215   7.879  -0.283   9.599  2.5798  0.5841  1.9376
 1002MOL0     H35216   7.833  -0.219   9.446 -3.8511  0.1838  1.4956
 1002MOL0     H35217   8.034  -0.065   9.612  0.5875  2.6858 -2.1923
 1002MOL0     H35218   7.984  -0.063   9.432 -1.9531  1.2875  0.6251
 1002MOL0     H35219   8.078  -0.282   9.423 -0.1010  1.4081 -0.3268
 1002MOL0     H35220   8.210  -0.162   9.469  0.9868  0.3784  4.0353
 1002MOL0     H35221   8.203  -0.145   9.773  0.6176 -0.2799  0.7459
 1002MOL0     H35222   8.186  -0.454  10.012 -0.2269  0.3627 -1.0699
 1002MOL0     H35223   8.281  -0.315   9.997  0.4067 -0.4460 -0.0325
 1002MOL0     H35224   8.112  -0.237  10.140  2.0684  0.8178 -0.7617
 1002MOL0     H35225   8.023  -0.214   9.980 -1.1278  1.7522  1.9997
 1002MOL0     H35226   7.932  -0.438  10.023  1.1371  1.6290 -1.3457
 1002MOL0     H35227   7.886  -0.314  10.138  2.1509  1.3193  0.9038
 1002MOL0     H35228   8.056  -0.406  10.302  0.9847  1.7512 -0.8808
 1002MOL0     H35229   8.096  -0.529  10.172 -0.1257 -0.9010  0.9014
 1002MOL0     H35230   7.739  -0.699  10.210  3.9496  1.4926  0.2971
 1002MOL0     H35231   7.498  -0.649  10.243 -2.2058  2.5273  1.6733
 1002MOL0     H35232   7.130  -0.375  10.231  0.5633 -1.0529 -0.2084
 1002MOL0     H35233   6.901  -0.330  10.302  1.9513  0.9552  0.7116
 1002MOL0     H35234   6.704  -0.334  10.413 -0.8136 -0.0542  0.6122
 1002MOL0     H35235   6.689  -0.450  10.284  0.7388  0.9470 -0.0611
 1002MOL0     H35236   6.486  -0.547  10.379 -2.4255  1.0982 -0.1854
 1002MOL0     H35237   6.505  -0.450  10.528  2.4619 -2.6901 -0.2194
 1002MOL0     H35238   6.473  -0.238  10.391  1.2268 -0.5750  0.7605
 1002MOL0     H35239   6.461  -0.331  10.247 -2.4381 -0.8006  0.0261
 1002MOL0     H35240   6.262  -0.354  10.485  2.1274  0.2965  0.1254
 1002MOL0     H35241   6.256  -0.455  10.344  0.5779 -0.8900  0.4839
 1002MOL0     H35242   6.098  -0.266  10.339 -0.2224  2.8869  2.3422
 1002MOL0     H35243   6.197  -0.256  10.198 -1.3920  1.4299 -0.1971
 1002MOL0     H35244   6.314  -0.111  10.431  0.8649 -4.9355 -0.7578
 1002MOL0     H35245   6.323  -0.071  10.265 -1.2048 -0.3907 -1.3971
 1002MOL0     H35246   6.192   0.089  10.408  1.2758  2.2633 -2.4697
 1002MOL0     H35247   6.055  -0.030  10.396  0.2669  4.5137  2.1334
 1002MOL0     H35248   6.182   0.075  10.145  0.1016 -2.3032 -0.7384
 1002MOL0     H35249   6.033  -0.015  10.161  0.5148  1.2785 -1.6228
 1002MOL0     H35250   6.931  -0.698  10.530 -1.3079  0.9763 -1.1976
 1002MOL0     H35251   7.178  -0.711  10.474 -1.0867 -2.0226 -0.5324
 1002MOL0     H35252   7.621  -0.293  10.454  0.8139  0.4886  0.6933
 1002MOL0     H35253   7.860  -0.345  10.408 -0.4684  0.3921  1.2254
 1002MOL0     H35254   6.987  -0.112   9.638 -0.3108 -0.9976  1.6448
 1002MOL0     H35255   6.786   0.020   9.593  1.1491 -2.8501 -1.3951
 1002MOL0     H35256   6.588   0.418   9.824  1.1130  0.4217 -1.3635
 1002MOL0     H35257   6.455   0.610   9.853  0.0626 -0.3466 -0.0747
 1002MOL0     H35258   6.097   0.608   9.596 -1.1435  0.6355  0.8791
 1002MOL0     H35259   6.159   0.751   9.516 -2.2411  1.4730 -0.1709
 1002MOL0     H35260   5.999   0.729   9.777 -2.8008  0.5284 -1.5087
 1002MOL0     H35261   5.963   0.820   9.624 -0.9518 -2.2203  0.3870
 1002MOL0     H35262   6.202   0.945   9.709  0.5580  0.5174  0.6727
 1002MOL0     H35263   6.147   0.869   9.854 -2.0408  0.5672  0.8586
 1002MOL0     H35264   5.959   1.054   9.702 -1.8870  1.5731  0.2200
 1002MOL0     H35265   5.944   0.977   9.869 -1.3603  2.4275  1.1491
 1002MOL0     H35266   6.149   1.298  10.003  0.6138 -1.4436  0.7494
 1002MOL0     H35267   6.292   0.538   9.450  0.1471  0.3105 -0.4524
 1002MOL0     H35268   6.394   0.401   9.297  0.4018  0.4159  0.2354
 1002MOL0     H35269   6.566   0.374   9.317 -1.3062 -0.2548 -2.8410
 1002MOL0     H35270   6.462   0.252   9.381  3.4764 -0.5239 -0.2935
 1003MOL0     O35271   3.333   3.334   0.006 -0.9487 -0.2568  0.4429
 1003MOL0     C35272   3.266   3.348  -0.099  0.4613  0.9213  0.5436
 1003MOL0     O35273   3.320   3.365  -0.222 -0.5423  0.3675  0.8954
 1003MOL0     C35274   3.439   3.431  -0.220 -0.0764 -0.1822  0.1972
 1003MOL0     C35275   3.462   3.573  -0.210 -1.2329 -0.3869  0.7640
 1003MOL0     C35276   3.593   3.621  -0.196 -0.0360 -0.5399  0.3487
 1003MOL0     C35277   3.708   3.536  -0.210  0.0647 -0.9219 -0.1679
 1003MOL0     O35278   3.841   3.569  -0.211  0.0235  1.4265  0.5436
 1003MOL0     C35279   3.900   3.691  -0.239  0.1366 -1.2885  0.4684
 1003MOL0     C35280   4.038   3.674  -0.305  0.5044 -0.5370 -0.1966
 1003MOL0     C35281   4.146   3.628  -0.192  0.1144 -0.4620  0.5016
 1003MOL0     C35282   4.285   3.603  -0.254 -0.3023 -0.9144 -1.0392
 1003MOL0     C35283   4.372   3.509  -0.162 -0.1009 -0.6513 -0.8736
 1003MOL0     C35284   4.500   3.483  -0.233  0.8488 -0.3510 -0.1666
 1003MOL0     C35285   4.587   3.375  -0.172 -0.3236 -0.0802 -0.5618
 1003MOL0     C35286   4.647   3.426  -0.042 -0.6015 -0.5741  0.3311
 1003MOL0     N35287   4.712   3.327   0.041  0.4222 -0.1434  0.5765
 1003MOL0     C35288   4.640   3.237   0.111 -0.5862  0.2442 -0.7249
 1003MOL0     C35289   4.727   3.146   0.174 -0.0891 -0.1829  0.3464
 1003MOL0     C35290   4.684   3.028   0.265 -0.3607  0.1327 -0.1427
 1003MOL0     C35291   4.673   2.899   0.192  0.0635 -0.3036 -1.0974
 1003MOL0     C35292   4.612   2.796   0.288 -0.1975  0.1807 -0.6088
 1003MOL0     C35293   4.603   2.666   0.215  1.1843 -0.0770  0.0069
 1003MOL0     O35294   4.584   2.555   0.306  0.0510  0.2007  0.5678
 1003MOL0     C35295   4.444   2.520   0.322 -0.3980  0.1077 -0.6109
 1003MOL0     C35296   4.327   2.599   0.318 -0.0022 -0.6700 -0.1431
 1003MOL0     C35297   4.200   2.544   0.349 -0.2751  0.3987  0.4007
 1003MOL0     C35298   4.189   2.414   0.398 -0.0673  0.2788  0.1709
 1003MOL0     C35299   4.054   2.363   0.452  0.8323 -1.4421  1.2184
 1003MOL0     O35300   4.059   2.234   0.500 -0.5976 -0.2424 -1.2683
 1003MOL0     C35301   3.945   2.177   0.544  1.1517 -0.5390  0.6804
 1003MOL0     C35302   3.963   2.085   0.647  0.1581  0.3967  0.2759
 1003MOL0     C35303   3.856   2.009   0.698  0.3032  0.0225  0.0374
 1003MOL0     C35304   3.729   2.041   0.656 -0.2401 -0.7770  0.6504
 1003MOL0     O35305   3.631   1.959   0.709 -0.8516  0.0492  0.2025
 1003MOL0     C35306   3.515   2.029   0.756  0.6917 -0.1397  0.2452
 1003MOL0     C35307   3.468   1.949   0.872  0.0336 -0.0141  0.4411
 1003MOL0     C35308   3.333   1.987   0.927 -0.4636 -0.5904  0.1571
 1003MOL0     C35309   3.294   1.913   1.049 -0.2275 -0.1966 -0.2693
 1003MOL0     C35310   3.355   1.982   1.171  0.8188 -0.1281  0.6641
 1003MOL0     C35311   3.350   1.879   1.291  0.2286  0.4724  0.8371
 1003MOL0     C35312   3.474   1.788   1.292  0.0726  0.1537 -0.5140
 1003MOL0     C35313   3.448   1.651   1.346 -0.6077  0.5232  0.7756
 1003MOL0    Cl35314   3.323   1.573   1.246  0.2308  0.0703  0.3141
 1003MOL0     C35315   3.703   2.125   0.550  0.0874  0.0519  0.5897
 1003MOL0     C35316   3.814   2.196   0.493  0.0013  0.2884 -1.1486
 1003MOL0     O35317   3.956   2.435   0.431  0.1069  0.5435 -0.4373
 1003MOL0     C35318   4.304   2.337   0.407  0.9892  0.0264  0.6786
 1003MOL0     C35319   4.426   2.391   0.363  0.4416 -1.3235  0.4940
 1003MOL0     N35320   4.846   3.186   0.127 -0.4682  0.4963 -0.6300
 1003MOL0     N35321   4.841   3.289   0.048  0.2682 -0.0688 -0.4853
 1003MOL0     C35322   3.688   3.402  -0.236  0.1217  0.1298 -0.0601
 1003MOL0     C35323   3.558   3.348  -0.229  0.6285 -0.1605 -0.0560
 1003MOL0     C35324   3.117   3.349  -0.094  0.0416  0.0584  0.4324
 1003MOL0     C35325   3.044   3.388  -0.204 -0.2713  0.3984  0.6126
 1003MOL0     C35326   2.905   3.409  -0.188 -0.0039  0.1806 -0.1616
 1003MOL0     C35327   2.832   3.373  -0.078 -1.0634  0.1070  0.4829
 1003MOL0     O35328   2.694   3.389  -0.078 -0.5562 -0.2234 -0.3183
 1003MOL0     C35329   2.614   3.319   0.013 -0.1174  0.4338 -0.0471
 1003MOL0     C35330   2.462   3.326  -0.019  0.8382  0.0103  0.2451
 1003MOL0     C35331   2.411   3.470  -0.034 -0.3111 -0.8316  0.2536
 1003MOL0     C35332   2.439   3.572   0.073 -0.3939 -0.3019  1.1006
 1003MOL0     C35333   2.376   3.523   0.194 -1.6424 -0.0567 -0.6999
 1003MOL0     C35334   2.331   3.497   0.304  1.1966 -0.4581  0.2612
 1003MOL0     C35335   2.901   3.302   0.019  0.6463 -0.0146  0.1056
 1003MOL0     C35336   3.041   3.298   0.019 -0.1323 -0.2318 -0.7476
 1003MOL0     C35337   3.098   3.214   0.132 -1.3172  0.4730 -0.7369
 1003MOL0     H35338   3.373   3.634  -0.207 -2.2135 -1.7797  0.7181
 1003MOL0     H35339   3.616   3.721  -0.160  2.9555 -1.1445  0.3728
 1003MOL0     H35340   3.844   3.751  -0.312  1.5901  0.5178  0.7812
 1003MOL0     H35341   3.910   3.743  -0.143 -0.0034 -3.0778  1.4963
 1003MOL0     H35342   4.065   3.765  -0.360 -3.0615  2.1342  2.0237
 1003MOL0     H35343   4.030   3.591  -0.376  1.6790 -1.8930  1.2006
 1003MOL0     H35344   4.125   3.541  -0.129  1.1667 -0.1221  1.3460
 1003MOL0     H35345   4.154   3.718  -0.130  0.7002  1.1198 -1.7361
 1003MOL0     H35346   4.273   3.551  -0.350  1.6422 -2.2470 -0.6150
 1003MOL0     H35347   4.350   3.691  -0.253 -3.6332  1.8125  2.0542
 1003MOL0     H35348   4.386   3.545  -0.059 -1.4970  0.3386 -0.9907
 1003MOL0     H35349   4.313   3.417  -0.155 -0.9281 -0.2034 -1.6665
 1003MOL0     H35350   4.470   3.450  -0.334 -0.9847  2.1786 -0.5305
 1003MOL0     H35351   4.546   3.580  -0.253  1.9455 -0.6985  0.5677
 1003MOL0     H35352   4.662   3.326  -0.235  1.2750  0.9754  0.4374
 1003MOL0     H35353   4.509   3.299  -0.158 -3.1186  2.1789 -2.7835
 1003MOL0     H35354   4.720   3.502  -0.072 -1.9634 -0.0659 -1.9642
 1003MOL0     H35355   4.575   3.476   0.023  1.0523  0.8192  1.1718
 1003MOL0     H35356   4.534   3.237   0.132  0.0895  0.2008  3.7155
 1003MOL0     H35357   4.745   3.011   0.354 -0.3064  2.1432  0.2490
 1003MOL0     H35358   4.588   3.064   0.302 -0.5808  0.1481 -0.7171
 1003MOL0     H35359   4.608   2.904   0.104 -0.3197 -1.9079 -0.9358
 1003MOL0     H35360   4.775   2.874   0.162  1.2232  2.3907  0.2195
 1003MOL0     H35361   4.516   2.829   0.327 -0.4585 -1.9318  0.7377
 1003MOL0     H35362   4.682   2.794   0.373 -4.1480 -0.6700  2.9483
 1003MOL0     H35363   4.666   2.657   0.126 -0.5173 -0.6673 -1.1706
 1003MOL0     H35364   4.514   2.652   0.154  1.3788 -1.3956 -0.0134
 1003MOL0     H35365   4.323   2.703   0.285  2.9770 -0.5573 -0.4596
 1003MOL0     H35366   4.113   2.606   0.331 -1.2610 -1.2514 -0.9548
 1003MOL0     H35367   4.062   2.055   0.678  1.3553 -3.0067 -5.3291
 1003MOL0     H35368   3.887   1.933   0.769 -0.1104  0.3969  0.6216
 1003MOL0     H35369   3.535   2.127   0.800  3.5732 -1.2667  1.7336
 1003MOL0     H35370   3.438   2.028   0.679  0.4681 -1.1871  0.4655
 1003MOL0     H35371   3.462   1.842   0.849 -2.7705 -0.5858  3.1486
 1003MOL0     H35372   3.537   1.966   0.955  0.3937 -0.7702  0.3098
 1003MOL0     H35373   3.343   2.095   0.937  1.1081 -0.7922  1.1941
 1003MOL0     H35374   3.268   1.965   0.842 -2.5765 -1.6822  1.9475
 1003MOL0     H35375   3.341   1.814   1.049  0.2328  0.0161  0.0492
 1003MOL0     H35376   3.185   1.918   1.046 -0.1938  1.2835 -4.1093
 1003MOL0     H35377   3.287   2.065   1.194  0.7431 -0.3931  1.4021
 1003MOL0     H35378   3.457   2.016   1.150  1.0783 -1.0775  0.3631
 1003MOL0     H35379   3.341   1.946   1.377  0.0798 -1.4865  2.4213
 1003MOL0     H35380   3.265   1.811   1.280  1.3594 -0.8120 -0.2998
 1003MOL0     H35381   3.549   1.832   1.359 -0.1609  1.8904 -1.3374
 1003MOL0     H35382   3.512   1.775   1.190 -1.5723 -4.2960 -0.7764
 1003MOL0     H35383   3.538   1.589   1.342 -0.6853  0.4608 -2.1234
 1003MOL0     H35384   3.422   1.664   1.451 -0.5212 -1.6695  1.1222
 1003MOL0     H35385   3.600   2.147   0.522  0.4448  1.1401  0.0583
 1003MOL0     H35386   3.782   2.262   0.414 -0.9205  1.1029 -0.1210
 1003MOL0     H35387   4.290   2.229   0.418  0.5681 -0.3327 -2.5419
 1003MOL0     H35388   4.516   2.330   0.360  0.8543 -0.6811 -2.2964
 1003MOL0     H35389   3.770   3.331  -0.248 -0.0498 -0.6363  2.5630
 1003MOL0     H35390   3.551   3.240  -0.238 -1.7301 -0.1988  1.4243
 1003MOL0     H35391   3.092   3.408  -0.299 -2.9626 -0.8921 -1.1590
 1003MOL0     H35392   2.844   3.449  -0.269  0.1477 -2.0597 -1.4548
 1003MOL0     H35393   2.635   3.371   0.107  0.8281  1.9114 -1.0320
 1003MOL0     H35394   2.659   3.219   0.010 -0.1701  0.4343 -1.2391
 1003MOL0     H35395   2.411   3.271   0.061  0.0027 -0.9857 -0.9343
 1003MOL0     H35396   2.460   3.269  -0.112  2.1938 -1.8865  1.2956
 1003MOL0     H35397   2.305   3.448  -0.051  0.8340 -6.7320 -1.3443
 1003MOL0     H35398   2.459   3.510  -0.124 -1.5550  0.9128  0.3143
 1003MOL0     H35399   2.546   3.589   0.091 -0.1593 -1.1879  0.5590
 1003MOL0     H35400   2.401   3.670   0.042  0.0274 -0.3509  0.3995
 1003MOL0     H35401   2.270   3.474   0.389  2.3277 -1.1203  0.9317
 1003MOL0     H35402   2.851   3.262   0.106  0.0293 -2.9279 -1.4613
 1003MOL0     H35403   3.031   3.142   0.181 -0.1065 -1.0248 -1.1966
 1003MOL0     H35404   3.178   3.154   0.087 -1.3156 -2.6843  2.9418
 1003MOL0     H35405   3.143   3.279   0.208  0.5480 -0.0203 -1.3588
 1004MOL0     O35406   8.146   8.598  11.285  0.8696  0.3033  0.2532
 1004MOL0     C35407   8.044   8.559  11.222 -0.7108  0.3022  0.1162
 1004MOL0     O35408   8.030   8.570  11.088 -0.2795  0.0320 -0.3204
 1004MOL0     C35409   8.138   8.605  11.003 -0.3390  0.9885  0.3615
 1004MOL0     C35410   8.098   8.665  10.883 -0.3224 -0.2791  0.0183
 1004MOL0     C35411   8.196   8.711  10.786 -0.3959  0.4463 -0.2932
 1004MOL0     C35412   8.333   8.690  10.811  0.9848  1.0683 -0.1003
 1004MOL0     O35413   8.420   8.746  10.724 -0.6154 -1.1496  0.1623
 1004MOL0     C35414   8.543   8.681  10.691 -1.0871  0.9404 -0.6617
 1004MOL0     C35415   8.573   8.731  10.546 -0.4941 -0.5342 -1.1045
 1004MOL0     C35416   8.602   8.885  10.553  0.7567  1.1518  1.0526
 1004MOL0     C35417   8.626   8.933  10.416  0.4629 -0.4056 -0.9842
 1004MOL0     C35418   8.657   9.084  10.434 -0.2163  0.0837 -0.6524
 1004MOL0     C35419   8.696   9.147  10.303  0.2466  0.0773  0.0330
 1004MOL0     C35420   8.727   9.294  10.305 -0.1478  0.8413  0.4084
 1004MOL0     C35421   8.845   9.327  10.397 -0.6852 -0.6473  0.3031
 1004MOL0     N35422   8.973   9.282  10.336  0.4002  0.3860 -0.1216
 1004MOL0     C35423   9.040   9.349  10.231  0.9995  0.5267  0.2192
 1004MOL0     C35424   9.159   9.285  10.231  1.1535  0.8257  0.8445
 1004MOL0     C35425   9.279   9.310  10.144 -0.4355 -0.1725 -0.0099
 1004MOL0     C35426   9.421   9.306  10.207  1.3086 -0.2824  0.4387
 1004MOL0     C35427   9.529   9.302  10.106 -0.6330 -0.1453  0.1306
 1004MOL0     C35428   9.667   9.345  10.153  0.3650  0.3074 -0.1428
 1004MOL0     O35429   9.770   9.313  10.052  0.8582  0.1259 -0.0575
 1004MOL0     C35430   9.819   9.185  10.040 -0.2808  0.4260  0.6655
 1004MOL0     C35431   9.942   9.169   9.990 -0.2271 -0.3331  0.4586
 1004MOL0     C35432  10.009   9.048   9.981 -0.3897 -0.7128  0.1112
 1004MOL0     C35433   9.958   8.929  10.035  0.2487 -0.5222  0.7934
 1004MOL0     C35434  10.042   8.808  10.038  0.4067  0.4304  0.6308
 1004MOL0     O35435   9.993   8.705  10.114 -0.2322 -0.0984  0.2139
 1004MOL0     C35436  10.053   8.589  10.078 -0.0908  0.1940 -0.7113
 1004MOL0     C35437  10.168   8.552  10.144 -0.0858  1.0980 -0.1793
 1004MOL0     C35438  10.235   8.431  10.114 -0.6714 -0.6659 -0.0009
 1004MOL0     C35439  10.194   8.369   9.995 -0.7136 -0.2274  0.4698
 1004MOL0     O35440  10.260   8.266   9.948 -0.6899 -0.0895  0.4586
 1004MOL0     C35441  10.260   8.143  10.025 -0.2124  0.1428 -0.9697
 1004MOL0     C35442  10.349   8.041   9.950 -0.3840  0.7815  0.0353
 1004MOL0     C35443  10.497   8.041   9.989  0.2797 -0.0838 -0.4779
 1004MOL0     C35444  10.578   7.964   9.876  0.0916  0.0087 -0.6496
 1004MOL0     C35445  10.732   7.960   9.932  0.7094 -0.2866  0.5291
 1004MOL0     C35446  10.840   7.897   9.834 -0.4943  0.6619  0.2070
 1004MOL0     C35447  10.986   7.916   9.865  0.2541  0.9082  0.0955
 1004MOL0     C35448  11.082   7.902   9.749 -0.1225  0.0276 -0.7677
 1004MOL0    Cl35449  11.095   7.734   9.689 -0.0354  0.4046 -0.2807
 1004MOL0     C35450  10.078   8.407   9.927 -0.2078  0.8839 -0.1010
 1004MOL0     C35451  10.006   8.515   9.971 -0.0323  0.5746  0.3194
 1004MOL0     O35452  10.137   8.807   9.968  0.5331 -0.6283  0.2675
 1004MOL0     C35453   9.840   8.943  10.100  0.6973  0.2717 -0.0172
 1004MOL0     C35454   9.775   9.066  10.112  0.7201 -0.2289  0.2972
 1004MOL0     N35455   9.159   9.181  10.325 -0.2197 -0.0671  0.1727
 1004MOL0     N35456   9.047   9.182  10.376  0.2498  0.1775 -0.1958
 1004MOL0     C35457   8.377   8.613  10.922 -0.0204 -0.7988  0.1870
 1004MOL0     C35458   8.276   8.572  11.017  0.1697 -0.3038  0.1968
 1004MOL0     C35459   7.943   8.483  11.295  0.2947 -0.5624 -0.1678
 1004MOL0     C35460   7.834   8.417  11.225 -0.2696 -0.4425 -0.2723
 1004MOL0     C35461   7.724   8.364  11.286 -0.1026  0.1113 -0.2831
 1004MOL0     C35462   7.715   8.369  11.427  0.7725 -0.5086  0.0147
 1004MOL0     O35463   7.599   8.299  11.473 -1.2384  0.0238  0.9427
 1004MOL0     C35464   7.565   8.290  11.610 -0.3542 -0.6391 -0.3587
 1004MOL0     C35465   7.505   8.420  11.649  0.6079 -0.6936  0.3827
 1004MOL0     C35466   7.445   8.430  11.792  0.5723  0.4489 -0.0363
 1004MOL0     C35467   7.310   8.356  11.806  0.3984 -0.7897 -0.6132
 1004MOL0     C35468   7.195   8.409  11.734  0.7286  0.1395  0.7291
 1004MOL0     C35469   7.099   8.438  11.673  0.0053 -0.2990  0.1817
 1004MOL0     C35470   7.821   8.423  11.496  0.0568 -0.8586  0.8239
 1004MOL0     C35471   7.933   8.479  11.437  0.4545 -0.2607  0.1145
 1004MOL0     C35472   8.025   8.530  11.534  0.4051 -0.2201 -0.1948
 1004MOL0     H35473   7.995   8.697  10.871 -0.3490  0.6712  2.3682
 1004MOL0     H35474   8.165   8.761  10.695 -3.4555  3.9650  2.3483
 1004MOL0     H35475   8.627   8.702  10.757  1.3069  2.3114 -3.8830
 1004MOL0     H35476   8.528   8.573  10.701 -4.0621  1.3028 -0.0535
 1004MOL0     H35477   8.486   8.730  10.479  0.0162  2.7487 -2.0131
 1004MOL0     H35478   8.657   8.676  10.504 -1.3426 -1.9194 -1.0346
 1004MOL0     H35479   8.689   8.911  10.615  2.3934 -1.8055  0.1513
 1004MOL0     H35480   8.510   8.939  10.580  2.3281  3.7516  1.6031
 1004MOL0     H35481   8.711   8.877  10.377  0.1652 -0.6225 -1.3390
 1004MOL0     H35482   8.546   8.899  10.350  1.6144 -3.2613 -1.0292
 1004MOL0     H35483   8.567   9.136  10.468  1.3218  2.6241 -0.1596
 1004MOL0     H35484   8.732   9.095  10.513  0.2637 -1.9458 -0.7830
 1004MOL0     H35485   8.777   9.090  10.257 -1.7653 -3.3371  0.3891
 1004MOL0     H35486   8.608   9.139  10.238  0.7551 -1.4333 -0.5145
 1004MOL0     H35487   8.631   9.340  10.332 -1.3020 -0.6122 -1.0711
 1004MOL0     H35488   8.752   9.327  10.204  2.0151 -2.4420 -0.2768
 1004MOL0     H35489   8.850   9.435  10.381  1.8586 -0.8012 -0.4869
 1004MOL0     H35490   8.840   9.295  10.501  1.0591  1.1029  0.9863
 1004MOL0     H35491   9.012   9.443  10.183  0.0680  1.2579  2.1211
 1004MOL0     H35492   9.281   9.232  10.066 -2.7392 -1.8754  1.4939
 1004MOL0     H35493   9.271   9.405  10.090  1.5150 -0.7470 -1.4420
 1004MOL0     H35494   9.443   9.387  10.278  0.7550 -0.3813  0.7356
 1004MOL0     H35495   9.430   9.207  10.253 -1.0526 -2.0875 -2.5767
 1004MOL0     H35496   9.498   9.366  10.023 -0.0689 -2.1593 -1.7091
 1004MOL0     H35497   9.529   9.200  10.066  0.4634 -1.6998  3.6928
 1004MOL0     H35498   9.686   9.294  10.248  0.2508 -0.5591 -0.5758
 1004MOL0     H35499   9.677   9.453  10.167 -0.6870  0.4795 -0.6920
 1004MOL0     H35500   9.985   9.261   9.951  1.0790 -2.0722 -2.6296
 1004MOL0     H35501  10.103   9.048   9.928  0.9891  3.9330  1.9880
 1004MOL0     H35502  10.201   8.610  10.229  0.8949 -2.3028  1.9812
 1004MOL0     H35503  10.318   8.386  10.167 -0.3582 -0.8643 -0.6509
 1004MOL0     H35504  10.312   8.170  10.117 -0.0166  2.4518 -1.6891
 1004MOL0     H35505  10.156   8.119  10.049 -0.4375  1.0449 -0.9961
 1004MOL0     H35506  10.316   7.942   9.985  1.5860 -0.4753 -1.4492
 1004MOL0     H35507  10.344   8.038   9.841  0.2607 -0.2212  0.0139
 1004MOL0     H35508  10.533   8.143  10.003 -1.2131  0.3915  0.0654
 1004MOL0     H35509  10.505   7.994  10.087 -3.4010 -0.0170 -0.0252
 1004MOL0     H35510  10.559   8.029   9.789  0.2836 -0.3509 -0.9590
 1004MOL0     H35511  10.540   7.864   9.854 -1.0622 -0.2935  2.2423
 1004MOL0     H35512  10.725   7.901  10.023  1.6707  2.2721  2.3893
 1004MOL0     H35513  10.760   8.064   9.951  0.5275 -0.1131 -0.1366
 1004MOL0     H35514  10.825   7.790   9.822  0.0299  0.3433  2.0922
 1004MOL0     H35515  10.825   7.922   9.728 -1.7161 -1.0918 -0.0811
 1004MOL0     H35516  11.011   7.854   9.951 -1.7197 -0.3519 -0.1757
 1004MOL0     H35517  10.997   8.020   9.900  0.4429  0.0241  2.9227
 1004MOL0     H35518  11.061   7.972   9.668 -0.6700  2.1855  1.1093
 1004MOL0     H35519  11.180   7.923   9.793  0.1252  1.1374 -1.8006
 1004MOL0     H35520  10.056   8.338   9.846  1.9088  0.1143 -0.1028
 1004MOL0     H35521   9.908   8.541   9.933 -0.3136 -0.4488  0.2896
 1004MOL0     H35522   9.787   8.857  10.141 -0.4618 -0.6036 -3.0432
 1004MOL0     H35523   9.691   9.064  10.181  1.0612 -1.4221  0.7072
 1004MOL0     H35524   8.484   8.598  10.932  0.8961  4.6309  1.6437
 1004MOL0     H35525   8.304   8.519  11.107 -0.1051  4.0511  3.1018
 1004MOL0     H35526   7.845   8.411  11.117 -1.2983 -0.8423 -0.3696
 1004MOL0     H35527   7.655   8.316  11.218 -1.2480 -1.9046  2.1063
 1004MOL0     H35528   7.648   8.271  11.678  1.0224  0.5994 -1.6197
 1004MOL0     H35529   7.494   8.208  11.622  2.4141 -2.8856  2.2905
 1004MOL0     H35530   7.422   8.446  11.583  1.2939  3.1091  0.7771
 1004MOL0     H35531   7.578   8.501  11.648 -1.1249  0.9874  1.5772
 1004MOL0     H35532   7.427   8.536  11.813 -2.4320  0.0164  0.0752
 1004MOL0     H35533   7.511   8.382  11.865  0.0340  0.2975  0.3588
 1004MOL0     H35534   7.320   8.249  11.785 -1.8651 -1.2995  0.5791
 1004MOL0     H35535   7.284   8.367  11.911  0.0508 -1.4129 -0.6287
 1004MOL0     H35536   7.004   8.455  11.625  1.2391 -2.1772 -3.2413
 1004MOL0     H35537   7.813   8.414  11.604  0.3327  1.2263  1.0438
 1004MOL0     H35538   8.128   8.501  11.512  1.3197  2.8315 -0.4201
 1004MOL0     H35539   8.037   8.639  11.525 -0.5966 -0.1251 -0.5171
 1004MOL0     H35540   8.010   8.492  11.636 -0.1241  0.9553  0.1876
 1005MOL0     O35541   2.218   3.625   8.038 -0.6061  0.0530 -0.8603
 1005MOL0     C35542   2.308   3.543   8.053  0.8196 -0.0270  0.6584
 1005MOL0     O35543   2.358   3.469   7.947 -0.4390 -0.7669  0.7947
 1005MOL0     C35544   2.362   3.539   7.822 -0.2155 -0.1175 -0.7736
 1005MOL0     C35545   2.286   3.482   7.722 -0.0555 -0.9971  0.1656
 1005MOL0     C35546   2.290   3.549   7.591 -0.0132 -0.0448  0.2354
 1005MOL0     C35547   2.360   3.669   7.582  0.0016  0.0451  0.6437
 1005MOL0     O35548   2.382   3.740   7.465  0.6265 -0.6774 -0.9586
 1005MOL0     C35549   2.315   3.723   7.344  0.4701 -0.0341 -0.3303
 1005MOL0     C35550   2.401   3.615   7.266  0.3676 -0.0254  0.2093
 1005MOL0     C35551   2.356   3.615   7.111  0.1569  0.1435  0.0603
 1005MOL0     C35552   2.212   3.564   7.088  1.0665  0.2647 -0.4042
 1005MOL0     C35553   2.165   3.600   6.947 -0.0426  0.8900 -0.6135
 1005MOL0     C35554   2.258   3.546   6.841  0.7546  0.6023  0.2674
 1005MOL0     C35555   2.305   3.401   6.832 -0.4333 -0.9192 -0.6497
 1005MOL0     C35556   2.353   3.366   6.695  0.4646 -0.8398  0.2073
 1005MOL0     N35557   2.386   3.224   6.685 -0.3201 -0.2722  0.7877
 1005MOL0     C35558   2.473   3.153   6.759  0.1176 -0.4165  0.9013
 1005MOL0     C35559   2.465   3.032   6.703 -0.7104 -0.2199 -0.2397
 1005MOL0     C35560   2.514   2.910   6.762  0.3246 -0.8671  0.6843
 1005MOL0     C35561   2.415   2.855   6.870  0.1758  0.2725 -0.4568
 1005MOL0     C35562   2.284   2.808   6.818  0.3758  0.1284  0.0440
 1005MOL0     C35563   2.283   2.699   6.710  0.2914 -0.7516  0.3094
 1005MOL0     O35564   2.182   2.590   6.727 -0.6532 -0.1937  0.1901
 1005MOL0     C35565   2.053   2.617   6.691  0.3382 -0.2776 -0.6457
 1005MOL0     C35566   1.962   2.512   6.706 -0.4224  0.5867  1.2863
 1005MOL0     C35567   1.820   2.525   6.687 -1.0842 -0.1216 -0.5875
 1005MOL0     C35568   1.765   2.650   6.661  0.2480  1.0474  0.6763
 1005MOL0     C35569   1.625   2.650   6.627 -0.8478 -1.3700  0.4489
 1005MOL0     O35570   1.575   2.775   6.600  0.1670  0.4289  1.1335
 1005MOL0     C35571   1.460   2.778   6.523 -0.8698 -1.0893  0.1214
 1005MOL0     C35572   1.345   2.819   6.583  0.3507  0.5328 -0.1508
 1005MOL0     C35573   1.229   2.825   6.507 -0.9209 -0.3806  0.5543
 1005MOL0     C35574   1.233   2.805   6.362 -0.0202 -0.7002  0.0931
 1005MOL0     O35575   1.122   2.837   6.288  0.4914 -0.8192  0.2055
 1005MOL0     C35576   1.051   2.961   6.309  0.1552  0.9794 -0.4608
 1005MOL0     C35577   1.009   3.005   6.168  0.0908 -0.2137 -0.1505
 1005MOL0     C35578   1.120   3.017   6.070 -0.7738 -0.1772  0.0310
 1005MOL0     C35579   1.082   3.080   5.928  0.5763  0.3921  0.5120
 1005MOL0     C35580   1.196   3.077   5.821  0.8009 -0.6439  0.0758
 1005MOL0     C35581   1.186   3.217   5.758  0.0938  0.3834  0.2340
 1005MOL0     C35582   1.249   3.228   5.620 -0.2659  0.0934  0.3714
 1005MOL0     C35583   1.245   3.368   5.565  1.1827  0.0919 -0.0347
 1005MOL0    Cl35584   1.076   3.443   5.531 -0.0185 -0.2025  0.0043
 1005MOL0     C35585   1.349   2.774   6.302 -0.5891  0.6114 -0.7603
 1005MOL0     C35586   1.461   2.755   6.385 -0.6246 -1.0689  0.2418
 1005MOL0     O35587   1.560   2.548   6.619 -0.4098 -0.3631 -0.3879
 1005MOL0     C35588   1.850   2.762   6.649 -0.2292  0.0366  0.3100
 1005MOL0     C35589   1.989   2.748   6.661 -0.5676  0.6759  0.7806
 1005MOL0     N35590   2.384   3.029   6.599  0.3367  0.1338 -0.5256
 1005MOL0     N35591   2.330   3.145   6.591 -0.1158 -0.1660  0.2866
 1005MOL0     C35592   2.429   3.728   7.685  0.5395 -0.1945 -0.0188
 1005MOL0     C35593   2.437   3.658   7.804  0.3058 -0.3032 -0.5823
 1005MOL0     C35594   2.336   3.473   8.188  0.6140  0.7323 -0.3739
 1005MOL0     C35595   2.340   3.329   8.186 -0.7041  0.1531  0.3736
 1005MOL0     C35596   2.374   3.249   8.297  0.5443 -0.5080  0.7755
 1005MOL0     C35597   2.382   3.320   8.418 -0.0198 -0.5447 -1.1578
 1005MOL0     O35598   2.384   3.253   8.538 -0.0750 -1.0380  0.4442
 1005MOL0     C35599   2.251   3.225   8.593 -0.3301 -0.4494  1.4131
 1005MOL0     C35600   2.232   3.090   8.655 -0.4315 -0.0872 -0.2147
 1005MOL0     C35601   2.357   3.066   8.745  0.8187  0.1416 -0.0137
 1005MOL0     C35602   2.323   2.944   8.837  0.4925 -0.7313  0.3701
 1005MOL0     C35603   2.437   2.911   8.925  0.3708  0.1474  0.6325
 1005MOL0     C35604   2.528   2.862   8.988 -0.2084  0.7030  0.1489
 1005MOL0     C35605   2.377   3.464   8.428  0.6779 -0.5811  0.2644
 1005MOL0     C35606   2.354   3.544   8.315  0.5043  0.7239 -0.3370
 1005MOL0     C35607   2.337   3.691   8.331  0.7844 -0.2755  0.7988
 1005MOL0     H35608   2.222   3.397   7.741  0.4647 -1.7475 -1.2957
 1005MOL0     H35609   2.234   3.509   7.507 -0.1441 -2.6091  1.4487
 1005MOL0     H35610   2.215   3.685   7.364  0.9036 -1.7549 -1.2149
 1005MOL0     H35611   2.299   3.815   7.287  2.9873  1.5111  1.2538
 1005MOL0     H35612   2.377   3.518   7.311 -1.2514 -1.5031 -3.3950
 1005MOL0     H35613   2.510   3.629   7.269  0.3630  0.7251 -1.7828
 1005MOL0     H35614   2.424   3.543   7.064 -1.7091 -2.3610  1.0146
 1005MOL0     H35615   2.360   3.721   7.082 -2.2989  0.5668  1.0724
 1005MOL0     H35616   2.193   3.458   7.109 -1.5308  0.5789 -0.8538
 1005MOL0     H35617   2.147   3.619   7.156  0.6459  0.2069 -0.7560
 1005MOL0     H35618   2.067   3.552   6.940  0.2913  0.3544 -2.1789
 1005MOL0     H35619   2.156   3.707   6.926  0.8023  1.2438  0.7326
 1005MOL0     H35620   2.212   3.572   6.745  2.0127  2.5853  0.1575
 1005MOL0     H35621   2.345   3.612   6.852 -0.3578  2.3851 -1.0039
 1005MOL0     H35622   2.234   3.326   6.868 -0.4667 -0.8461 -0.5616
 1005MOL0     H35623   2.388   3.401   6.903 -0.5753 -1.7449 -0.4738
 1005MOL0     H35624   2.265   3.381   6.632  1.2799 -0.9671 -0.9793
 1005MOL0     H35625   2.431   3.433   6.658  0.3424  0.7828  2.6829
 1005MOL0     H35626   2.525   3.186   6.848 -0.1046 -0.8833  1.2112
 1005MOL0     H35627   2.531   2.836   6.684 -2.2042 -1.0998  0.2527
 1005MOL0     H35628   2.611   2.920   6.811  0.3860  0.9923  0.2756
 1005MOL0     H35629   2.451   2.771   6.930 -0.5214 -0.5131 -1.1063
 1005MOL0     H35630   2.398   2.936   6.941 -0.3889  0.3163 -0.6356
 1005MOL0     H35631   2.220   2.890   6.783 -3.6006 -3.3253 -1.5476
 1005MOL0     H35632   2.243   2.763   6.908  1.2014 -1.6477 -0.4214
 1005MOL0     H35633   2.375   2.640   6.709 -0.0726 -1.3436  0.8878
 1005MOL0     H35634   2.278   2.744   6.611 -1.6829  0.2648  0.8229
 1005MOL0     H35635   1.999   2.417   6.744 -2.0026 -0.6002 -0.0372
 1005MOL0     H35636   1.762   2.437   6.711  1.2726 -1.7577 -0.5007
 1005MOL0     H35637   1.353   2.831   6.690  1.6858 -1.5567  0.0375
 1005MOL0     H35638   1.133   2.855   6.547 -0.7018  1.1304  0.0411
 1005MOL0     H35639   0.962   2.955   6.372  0.7090  0.0652  0.2513
 1005MOL0     H35640   1.123   3.037   6.341  0.4279  0.8284 -0.7133
 1005MOL0     H35641   0.939   2.931   6.128  1.3631 -1.1173 -0.7571
 1005MOL0     H35642   0.958   3.102   6.166 -0.8374 -0.6631  1.0399
 1005MOL0     H35643   1.201   3.077   6.113 -2.0577  2.0125 -0.4472
 1005MOL0     H35644   1.158   2.917   6.046  0.8704  0.1244  1.2297
 1005MOL0     H35645   1.050   3.180   5.959 -0.7124 -0.9224  3.8131
 1005MOL0     H35646   0.991   3.031   5.894 -1.5397  2.4663  2.8071
 1005MOL0     H35647   1.183   2.994   5.751  0.8720 -0.9569  0.4276
 1005MOL0     H35648   1.296   3.075   5.866  1.3580 -0.8357 -1.1152
 1005MOL0     H35649   1.083   3.255   5.753 -0.2688 -0.6797 -0.8339
 1005MOL0     H35650   1.234   3.290   5.823 -1.5821  2.8482 -1.1126
 1005MOL0     H35651   1.189   3.174   5.545 -0.7946  1.6284 -0.3489
 1005MOL0     H35652   1.354   3.198   5.629 -0.9658 -1.9940  3.3549
 1005MOL0     H35653   1.298   3.430   5.638  3.7666 -1.7109 -0.2658
 1005MOL0     H35654   1.307   3.364   5.475  0.8909 -0.5341 -0.2145
 1005MOL0     H35655   1.352   2.751   6.196 -0.9720 -3.3378 -0.0806
 1005MOL0     H35656   1.550   2.709   6.342 -0.7498 -1.4183  0.3548
 1005MOL0     H35657   1.797   2.856   6.638 -0.7462 -0.5168 -2.5736
 1005MOL0     H35658   2.048   2.838   6.650 -1.0070  0.8793  0.0342
 1005MOL0     H35659   2.493   3.816   7.682 -2.4095  2.0622 -1.3475
 1005MOL0     H35660   2.477   3.705   7.894 -0.7425  1.1670 -0.8403
 1005MOL0     H35661   2.334   3.275   8.092  0.6261 -0.1937  0.4625
 1005MOL0     H35662   2.370   3.141   8.305 -1.9563 -0.7628 -1.9190
 1005MOL0     H35663   2.176   3.252   8.519  1.7969  1.1384 -0.3149
 1005MOL0     H35664   2.228   3.291   8.678 -1.8922  0.5212  0.2825
 1005MOL0     H35665   2.238   3.013   8.577  2.6836  0.1370 -0.3242
 1005MOL0     H35666   2.139   3.085   8.711 -0.8626 -1.2424 -0.9976
 1005MOL0     H35667   2.388   3.157   8.797 -3.3671 -0.1403  3.4707
 1005MOL0     H35668   2.437   3.030   8.679 -1.8887 -0.8121 -3.0126
 1005MOL0     H35669   2.228   2.961   8.889  0.2440 -1.0679  0.0274
 1005MOL0     H35670   2.313   2.849   8.783 -0.9108 -0.8191  0.7645
 1005MOL0     H35671   2.595   2.815   9.056 -1.9416  1.4585  2.5172
 1005MOL0     H35672   2.401   3.517   8.520  0.5692  0.5771 -0.3569
 1005MOL0     H35673   2.425   3.736   8.378 -1.7084  1.4421  4.2217
 1005MOL0     H35674   2.330   3.737   8.232  0.5687 -3.0067 -0.5640
 1005MOL0     H35675   2.251   3.711   8.395  1.2536 -0.6825  1.5732
 1006MOL0     O35676   7.978   5.186   4.697  0.1519 -0.0951 -0.3554
 1006MOL0     C35677   7.898   5.197   4.791 -0.1662  0.7451  0.7570
 1006MOL0     O35678   7.757   5.235   4.777 -0.1325  0.1293 -1.0130
 1006MOL0     C35679   7.708   5.232   4.652  1.0321 -0.0398  0.7372
 1006MOL0     C35680   7.637   5.112   4.623  0.6065 -0.0310  0.2341
 1006MOL0     C35681   7.580   5.083   4.503 -0.4641 -0.2959  0.4473
 1006MOL0     C35682   7.585   5.182   4.397 -0.3003  1.0801  0.4932
 1006MOL0     O35683   7.515   5.153   4.277 -0.4491 -0.1902  0.1211
 1006MOL0     C35684   7.501   5.262   4.186  0.6321  0.5056 -0.0966
 1006MOL0     C35685   7.383   5.350   4.231  0.5620  0.1715 -0.0085
 1006MOL0     C35686   7.330   5.448   4.135  0.1954 -1.1141  0.5422
 1006MOL0     C35687   7.239   5.390   4.020  0.1075 -0.0731  0.0397
 1006MOL0     C35688   7.223   5.498   3.914 -0.7790  1.4614 -0.4018
 1006MOL0     C35689   7.127   5.455   3.804  0.1781  0.4353 -1.2476
 1006MOL0     C35690   7.150   5.536   3.679  0.2901  0.1680  0.5720
 1006MOL0     C35691   7.103   5.685   3.686 -0.2979 -0.0817  0.9708
 1006MOL0     N35692   7.181   5.762   3.585 -0.0024 -0.0234 -0.3632
 1006MOL0     C35693   7.312   5.819   3.611  0.0190  0.8211  0.0715
 1006MOL0     C35694   7.337   5.886   3.495  0.6588  0.1679  0.5871
 1006MOL0     C35695   7.456   5.961   3.463  0.6517  0.4651  1.0954
 1006MOL0     C35696   7.493   5.916   3.324 -0.9171 -0.0572 -0.0452
 1006MOL0     C35697   7.654   5.927   3.307 -0.1092 -0.1860 -0.9857
 1006MOL0     C35698   7.706   5.860   3.185 -0.7566 -0.3264 -0.4526
 1006MOL0     O35699   7.844   5.846   3.180 -0.5008  0.2727 -0.1156
 1006MOL0     C35700   7.913   5.783   3.075 -0.3240 -1.2235  0.0826
 1006MOL0     C35701   8.054   5.782   3.090  0.2881  0.3604  0.5065
 1006MOL0     C35702   8.136   5.735   2.984 -0.2524 -0.2328  0.7147
 1006MOL0     C35703   8.077   5.685   2.864 -0.5651  0.6833 -0.5674
 1006MOL0     C35704   8.161   5.621   2.757  0.2199 -0.9898 -0.2405
 1006MOL0     O35705   8.287   5.599   2.788  0.1952 -0.0928 -0.0083
 1006MOL0     C35706   8.363   5.560   2.686 -0.6860 -0.3256 -0.2936
 1006MOL0     C35707   8.352   5.432   2.636  0.3174  0.0205  0.0871
 1006MOL0     C35708   8.421   5.389   2.525 -0.8601  0.5821 -0.2769
 1006MOL0     C35709   8.517   5.472   2.455  0.2888  0.5788 -1.1951
 1006MOL0     O35710   8.600   5.435   2.355  0.6146 -0.6558  0.1406
 1006MOL0     C35711   8.661   5.316   2.354 -0.6138  0.7067  0.0906
 1006MOL0     C35712   8.694   5.282   2.208 -0.1544 -0.0687  0.2041
 1006MOL0     C35713   8.778   5.147   2.211  0.2336 -0.7369 -0.4174
 1006MOL0     C35714   8.757   5.074   2.084 -0.2272  0.2510 -0.7557
 1006MOL0     C35715   8.844   4.949   2.070 -0.8362 -0.5956  0.6855
 1006MOL0     C35716   8.864   4.917   1.932 -0.6010 -0.0407  0.4166
 1006MOL0     C35717   8.938   4.790   1.906  0.6104  0.3185  0.2705
 1006MOL0     C35718   8.955   4.771   1.754 -0.1747 -1.2727  0.9790
 1006MOL0    Cl35719   9.071   4.646   1.741  0.0695  0.3190  0.1126
 1006MOL0     C35720   8.527   5.601   2.510 -0.2318 -0.3109  0.4808
 1006MOL0     C35721   8.453   5.642   2.625 -0.6619 -1.3047 -0.3311
 1006MOL0     O35722   8.112   5.598   2.647  0.2049  0.2456  0.6221
 1006MOL0     C35723   7.936   5.695   2.848 -0.1577 -0.1942  0.0600
 1006MOL0     C35724   7.849   5.739   2.955 -0.1004 -1.0198  0.4758
 1006MOL0     N35725   7.231   5.873   3.410  0.7450 -0.2459 -0.3994
 1006MOL0     N35726   7.136   5.797   3.463  0.3071 -0.5336 -0.0354
 1006MOL0     C35727   7.653   5.305   4.426 -0.6234 -0.0461  0.7752
 1006MOL0     C35728   7.717   5.328   4.548  0.0524 -0.0950  1.3668
 1006MOL0     C35729   7.947   5.167   4.926 -0.3944 -0.0152 -0.0058
 1006MOL0     C35730   7.869   5.189   5.040 -0.6112  0.7032  0.1140
 1006MOL0     C35731   7.914   5.175   5.165  0.1836  0.1036 -0.8051
 1006MOL0     C35732   8.050   5.161   5.193  1.3910 -1.0170 -0.6981
 1006MOL0     O35733   8.104   5.158   5.319 -0.5345  0.5280 -0.5354
 1006MOL0     C35734   8.027   5.098   5.428 -0.5146 -0.4804  0.2925
 1006MOL0     C35735   8.056   4.950   5.424  0.4289 -0.4598 -1.2163
 1006MOL0     C35736   8.190   4.912   5.481 -0.8271  0.6409 -1.1071
 1006MOL0     C35737   8.229   4.946   5.626  0.5355 -0.3630  0.1315
 1006MOL0     C35738   8.135   4.884   5.717 -1.9837 -0.2591 -0.5450
 1006MOL0     C35739   8.041   4.814   5.743  0.2674 -0.1667  0.3926
 1006MOL0     C35740   8.130   5.135   5.083  0.0361 -0.3960 -0.4291
 1006MOL0     C35741   8.082   5.120   4.951  0.7120  0.3582 -0.2284
 1006MOL0     C35742   8.169   5.055   4.849 -0.9391 -0.4895  0.4481
 1006MOL0     H35743   7.629   5.033   4.698  1.4846 -0.1288  0.2381
 1006MOL0     H35744   7.537   4.987   4.476 -0.2600  0.1470 -1.5894
 1006MOL0     H35745   7.591   5.321   4.165 -0.2434  2.0620  0.3719
 1006MOL0     H35746   7.466   5.203   4.101 -1.9541 -2.9907  3.0580
 1006MOL0     H35747   7.406   5.387   4.331 -0.8535 -0.8298  0.7377
 1006MOL0     H35748   7.300   5.281   4.251  2.0180 -0.9663  2.6028
 1006MOL0     H35749   7.414   5.500   4.086 -0.9714  1.6825  1.3595
 1006MOL0     H35750   7.264   5.528   4.169 -0.6086 -1.1427 -0.8427
 1006MOL0     H35751   7.286   5.300   3.980  1.0292 -0.2743  1.4953
 1006MOL0     H35752   7.143   5.351   4.056  0.0398  2.6947  3.3579
 1006MOL0     H35753   7.192   5.590   3.964 -1.4592  1.8250 -1.4410
 1006MOL0     H35754   7.320   5.506   3.864 -0.2475  1.9510  0.6951
 1006MOL0     H35755   7.134   5.348   3.779  3.3395  0.0841  0.6113
 1006MOL0     H35756   7.028   5.474   3.848 -0.0905  0.0304 -1.6639
 1006MOL0     H35757   7.105   5.499   3.586 -0.5186  3.6259 -0.5659
 1006MOL0     H35758   7.258   5.527   3.660 -0.0893 -2.3391 -0.7920
 1006MOL0     H35759   6.998   5.676   3.659 -0.5277  1.2732  1.3459
 1006MOL0     H35760   7.116   5.733   3.783  0.8172  0.3822  0.6140
 1006MOL0     H35761   7.370   5.823   3.703  0.4900  0.8217 -0.2230
 1006MOL0     H35762   7.452   6.070   3.459  3.9939  0.6876  0.7317
 1006MOL0     H35763   7.540   5.944   3.531  1.2814  1.8154  0.6974
 1006MOL0     H35764   7.468   5.814   3.293  0.0524 -0.4994  0.5771
 1006MOL0     H35765   7.436   5.982   3.257 -1.2466  0.6092  0.8657
 1006MOL0     H35766   7.685   5.864   3.391 -0.9270 -0.6966 -1.0547
 1006MOL0     H35767   7.682   6.033   3.310  0.5101 -0.2995 -2.0687
 1006MOL0     H35768   7.667   5.929   3.109 -3.0166  1.6383  2.2516
 1006MOL0     H35769   7.655   5.765   3.174 -1.0573 -0.0534 -1.5438
 1006MOL0     H35770   8.094   5.824   3.181  0.5489 -0.3326  0.7163
 1006MOL0     H35771   8.244   5.734   2.994 -0.0151  0.4362 -1.3587
 1006MOL0     H35772   8.284   5.364   2.686 -1.1168  1.0032 -0.4441
 1006MOL0     H35773   8.403   5.285   2.499 -0.6887  0.7125 -0.9572
 1006MOL0     H35774   8.748   5.330   2.418  0.2371  3.8026 -1.5587
 1006MOL0     H35775   8.593   5.241   2.396 -1.4249  1.6233  0.4590
 1006MOL0     H35776   8.605   5.283   2.145  0.6276 -0.5008 -0.9323
 1006MOL0     H35777   8.765   5.355   2.167  1.7303 -2.1046 -0.3244
 1006MOL0     H35778   8.882   5.173   2.230  0.5652 -1.9263 -0.4945
 1006MOL0     H35779   8.745   5.081   2.292  0.6031  2.1103  2.2035
 1006MOL0     H35780   8.772   5.136   1.994 -4.0372 -0.1470 -1.8455
 1006MOL0     H35781   8.653   5.041   2.076 -0.2847  0.8066 -3.2749
 1006MOL0     H35782   8.786   4.870   2.118 -0.4559  0.7641  3.6499
 1006MOL0     H35783   8.940   4.965   2.120 -1.0447  3.1698  0.1598
 1006MOL0     H35784   8.767   4.915   1.880 -0.7884  4.1184  0.2814
 1006MOL0     H35785   8.920   5.003   1.893 -0.1884 -0.5261 -0.0706
 1006MOL0     H35786   8.874   4.706   1.936 -1.2174  2.5344  3.1481
 1006MOL0     H35787   9.031   4.783   1.964 -0.9807 -3.5387  2.8266
 1006MOL0     H35788   8.867   4.723   1.711  1.6821 -2.2106 -2.1112
 1006MOL0     H35789   8.992   4.853   1.692  0.2117 -1.8798  0.3880
 1006MOL0     H35790   8.611   5.659   2.473  0.9441 -3.4540 -2.1235
 1006MOL0     H35791   8.476   5.740   2.667 -1.4320 -1.3471  0.2190
 1006MOL0     H35792   7.884   5.670   2.756 -1.7893  2.2421  0.2345
 1006MOL0     H35793   7.743   5.735   2.936  0.0456 -0.5989 -0.4944
 1006MOL0     H35794   7.645   5.393   4.362  2.1249 -1.2793 -1.5161
 1006MOL0     H35795   7.759   5.427   4.559 -0.1549  0.1599  0.0176
 1006MOL0     H35796   7.766   5.221   5.028 -0.4111  0.7642 -1.8584
 1006MOL0     H35797   7.840   5.208   5.238 -2.3077  0.6495 -3.4028
 1006MOL0     H35798   7.920   5.120   5.437 -0.3023 -0.2639  2.9339
 1006MOL0     H35799   8.070   5.135   5.521  3.1286 -1.4847 -0.8212
 1006MOL0     H35800   8.051   4.919   5.320  0.4057 -3.6492 -0.3639
 1006MOL0     H35801   7.976   4.899   5.479  2.9204 -1.7101  1.5250
 1006MOL0     H35802   8.268   4.963   5.423  1.1032 -0.4344  0.3888
 1006MOL0     H35803   8.210   4.804   5.473 -2.3355 -0.0811  2.8125
 1006MOL0     H35804   8.320   4.890   5.648 -0.7047 -1.8706  1.6410
 1006MOL0     H35805   8.245   5.055   5.627 -1.6399  0.0550 -1.4747
 1006MOL0     H35806   7.956   4.754   5.768  1.1279 -0.6688  2.2947
 1006MOL0     H35807   8.238   5.132   5.095  0.4863  4.3551 -1.5473
 1006MOL0     H35808   8.106   4.994   4.784 -0.9661 -2.3994  2.1460
 1006MOL0     H35809   8.223   5.134   4.797 -1.7353  0.2046  0.6438
 1006MOL0     H35810   8.257   4.998   4.879 -0.6381 -0.1263  0.2604
 1007MOL0     O35811   8.570   6.501   0.870  0.0468 -0.3066  0.2129
 1007MOL0     C35812   8.672   6.571   0.864  0.4645 -0.8175 -0.1968
 1007MOL0     O35813   8.678   6.699   0.928  0.9810  0.2439  0.5783
 1007MOL0     C35814   8.556   6.746   0.975 -0.0072 -0.1065 -0.2407
 1007MOL0     C35815   8.490   6.846   0.899  1.0399 -0.1366  0.1252
 1007MOL0     C35816   8.365   6.893   0.951 -0.3160  0.2118  0.7201
 1007MOL0     C35817   8.315   6.844   1.072  0.1617  0.0344 -0.1156
 1007MOL0     O35818   8.213   6.894   1.143  0.1706 -0.8563  0.2023
 1007MOL0     C35819   8.097   6.936   1.070 -0.7144  0.2694 -0.4670
 1007MOL0     C35820   7.988   6.983   1.164 -0.0259 -0.5033 -0.2387
 1007MOL0     C35821   8.030   7.065   1.290 -0.2030 -0.1282  0.0645
 1007MOL0     C35822   8.079   7.212   1.262  0.9253 -0.0059 -0.1493
 1007MOL0     C35823   8.049   7.294   1.391  0.4938  0.1020 -0.4831
 1007MOL0     C35824   8.121   7.428   1.367  0.3830  0.7710  0.5685
 1007MOL0     C35825   8.051   7.513   1.259 -0.7591  1.1141 -0.0340
 1007MOL0     C35826   8.103   7.653   1.257 -1.3525 -0.3653  0.0116
 1007MOL0     N35827   8.103   7.730   1.383 -0.0313  0.0425  0.3012
 1007MOL0     C35828   7.994   7.740   1.463  0.0635 -0.4798  0.4274
 1007MOL0     C35829   8.031   7.826   1.556 -0.2239  0.2279 -0.1078
 1007MOL0     C35830   7.946   7.879   1.664  0.1155 -0.1586 -0.2216
 1007MOL0     C35831   7.985   8.021   1.708  0.0875 -0.9038 -0.3939
 1007MOL0     C35832   7.898   8.088   1.811  0.3873  0.3743 -0.0099
 1007MOL0     C35833   7.896   8.026   1.950  0.2000  0.2521 -0.0616
 1007MOL0     O35834   7.854   7.894   1.960 -0.1832  0.6793 -1.2648
 1007MOL0     C35835   7.722   7.863   1.947  0.8071 -0.3836  0.1362
 1007MOL0     C35836   7.613   7.930   2.001  0.2229 -0.2635  0.8123
 1007MOL0     C35837   7.486   7.893   1.975 -0.2575  0.3517 -0.1508
 1007MOL0     C35838   7.453   7.784   1.900 -0.0353  0.1274 -0.9380
 1007MOL0     C35839   7.312   7.751   1.866  0.0860 -0.0955 -0.2588
 1007MOL0     O35840   7.215   7.790   1.965  0.4475 -0.3811  0.0240
 1007MOL0     C35841   7.089   7.755   1.939  0.6592  0.7113 -0.5508
 1007MOL0     C35842   6.999   7.860   1.907  0.7307 -1.0328  0.5054
 1007MOL0     C35843   6.862   7.828   1.890  0.3850 -0.3436  0.5661
 1007MOL0     C35844   6.818   7.697   1.900  0.3773  1.0959  0.3915
 1007MOL0     O35845   6.687   7.649   1.884 -0.7025  0.5164 -0.6360
 1007MOL0     C35846   6.604   7.725   1.806  0.6079 -0.9957 -0.7120
 1007MOL0     C35847   6.480   7.642   1.779  0.6518 -0.1189  0.7155
 1007MOL0     C35848   6.380   7.659   1.891  0.3520 -0.1812 -0.2827
 1007MOL0     C35849   6.250   7.583   1.853 -0.6257 -0.0906  0.5738
 1007MOL0     C35850   6.166   7.554   1.977  0.2449 -1.0730  0.1443
 1007MOL0     C35851   6.202   7.440   2.066  0.3425 -0.1423 -0.0766
 1007MOL0     C35852   6.118   7.443   2.206  0.1416  0.2869  0.6422
 1007MOL0     C35853   6.217   7.441   2.330 -0.3743 -0.6637 -0.0157
 1007MOL0    Cl35854   6.297   7.285   2.356 -0.2887  0.7245  0.1238
 1007MOL0     C35855   6.909   7.598   1.948  0.3546 -0.1782 -0.8409
 1007MOL0     C35856   7.043   7.624   1.964  0.1855 -0.5106 -0.9117
 1007MOL0     O35857   7.284   7.696   1.760 -1.3344  0.3441  0.0120
 1007MOL0     C35858   7.562   7.709   1.848  0.3103  0.1624 -0.3748
 1007MOL0     C35859   7.691   7.740   1.882 -0.2480 -0.0206 -0.4423
 1007MOL0     N35860   8.167   7.855   1.548 -0.0517 -0.4427  0.1109
 1007MOL0     N35861   8.202   7.804   1.437 -0.4082  0.6031  0.0512
 1007MOL0     C35862   8.387   6.751   1.141 -0.3978 -0.7341  0.4368
 1007MOL0     C35863   8.504   6.698   1.092  0.7326  0.3144 -0.6961
 1007MOL0     C35864   8.773   6.524   0.773 -1.3589  0.5415  0.2505
 1007MOL0     C35865   8.747   6.411   0.700 -0.1859  1.5735  1.0761
 1007MOL0     C35866   8.848   6.338   0.630 -1.0737 -0.1265  0.5618
 1007MOL0     C35867   8.976   6.393   0.624  0.2359 -0.3818  0.1478
 1007MOL0     O35868   9.080   6.347   0.552 -0.3762 -0.0467 -0.7500
 1007MOL0     C35869   9.091   6.214   0.501  0.5646  0.3527  0.8308
 1007MOL0     C35870   9.226   6.150   0.523 -1.0087 -0.5383 -0.1074
 1007MOL0     C35871   9.267   6.151   0.667  1.2436  0.6455  0.3464
 1007MOL0     C35872   9.384   6.051   0.694  0.1472 -0.6971 -0.1954
 1007MOL0     C35873   9.510   6.127   0.687  0.3545  0.3608 -0.3659
 1007MOL0     C35874   9.600   6.202   0.695  0.6078 -0.0294  0.6531
 1007MOL0     C35875   9.002   6.517   0.696  0.1371  0.2684  0.1896
 1007MOL0     C35876   8.903   6.575   0.773  0.5013 -0.3541  0.1375
 1007MOL0     C35877   8.945   6.695   0.859  0.0034  0.9207  0.7733
 1007MOL0     H35878   8.518   6.878   0.800 -0.7902  2.1588  0.2789
 1007MOL0     H35879   8.311   6.974   0.904 -1.8896 -1.5005 -0.5591
 1007MOL0     H35880   8.109   7.011   0.991  1.0147  0.1968 -0.2992
 1007MOL0     H35881   8.055   6.841   1.034 -2.0508  0.6485  0.0219
 1007MOL0     H35882   7.923   6.901   1.195 -0.6791  1.1717  3.4042
 1007MOL0     H35883   7.919   7.043   1.103  1.0004  2.6371  1.4754
 1007MOL0     H35884   8.103   7.006   1.347  0.2693  0.1252 -0.2767
 1007MOL0     H35885   7.933   7.071   1.341 -1.0630 -0.1058 -1.5105
 1007MOL0     H35886   8.186   7.203   1.241  0.8731  1.3345 -1.1331
 1007MOL0     H35887   8.021   7.257   1.181 -0.8794 -1.6534  0.1487
 1007MOL0     H35888   7.942   7.310   1.407  0.0902 -1.8996 -0.9400
 1007MOL0     H35889   8.096   7.245   1.477  1.1222  1.3865 -0.0564
 1007MOL0     H35890   8.119   7.478   1.465  3.8949  2.8108 -0.2479
 1007MOL0     H35891   8.227   7.414   1.345  0.3590  2.9272 -1.2761
 1007MOL0     H35892   7.945   7.527   1.283 -1.0338 -1.6179  0.6695
 1007MOL0     H35893   8.068   7.465   1.162 -0.8876  1.2423 -0.1214
 1007MOL0     H35894   8.207   7.644   1.223 -1.8125 -4.1465 -0.9514
 1007MOL0     H35895   8.050   7.709   1.180  0.3818  1.2034 -0.0985
 1007MOL0     H35896   7.893   7.701   1.451 -0.7449  1.1016  1.6698
 1007MOL0     H35897   7.845   7.897   1.624 -0.0356  2.9461  1.2504
 1007MOL0     H35898   7.947   7.816   1.753  2.5222 -0.6277 -0.5184
 1007MOL0     H35899   8.087   8.025   1.746 -0.4082  1.4704  0.8549
 1007MOL0     H35900   7.992   8.084   1.619 -1.9170 -3.3954 -2.5073
 1007MOL0     H35901   7.794   8.089   1.776  0.6349  1.5963 -0.7761
 1007MOL0     H35902   7.928   8.192   1.829 -0.9127  0.5989  1.0504
 1007MOL0     H35903   7.838   8.094   2.013  0.2080 -0.2631  0.5089
 1007MOL0     H35904   7.995   8.021   1.997  0.0413  1.2259  0.3970
 1007MOL0     H35905   7.633   8.010   2.072  2.6824  1.1227 -1.2830
 1007MOL0     H35906   7.408   7.960   2.009 -1.0024 -0.9926  0.9017
 1007MOL0     H35907   7.030   7.964   1.904 -0.0004 -0.6836  2.7393
 1007MOL0     H35908   6.800   7.915   1.868  1.0076 -0.2751 -1.0636
 1007MOL0     H35909   6.569   7.821   1.845 -0.6288 -0.0243 -3.9337
 1007MOL0     H35910   6.657   7.738   1.711  3.1070  0.2226  0.7298
 1007MOL0     H35911   6.440   7.671   1.681  2.3926  1.2758  0.3631
 1007MOL0     H35912   6.521   7.540   1.777  1.3518  0.1330 -1.6134
 1007MOL0     H35913   6.424   7.613   1.980 -2.2647 -2.0269  0.2063
 1007MOL0     H35914   6.350   7.762   1.911 -3.2333 -1.5915  2.9723
 1007MOL0     H35915   6.274   7.485   1.810  2.8808  0.7871  0.2503
 1007MOL0     H35916   6.194   7.643   1.781  1.1659  2.1896  0.9668
 1007MOL0     H35917   6.060   7.563   1.952  0.0695  0.7826  1.3600
 1007MOL0     H35918   6.170   7.649   2.031 -3.9964  1.9606 -4.0819
 1007MOL0     H35919   6.181   7.350   2.008  1.0288  1.4916 -3.0153
 1007MOL0     H35920   6.307   7.435   2.095  0.7105  0.6670 -1.2240
 1007MOL0     H35921   6.053   7.356   2.220 -1.4800  1.4399  0.4954
 1007MOL0     H35922   6.058   7.533   2.217  3.4508  2.9864 -1.2984
 1007MOL0     H35923   6.296   7.515   2.312 -0.1224 -1.2412 -1.3704
 1007MOL0     H35924   6.170   7.468   2.425  2.5961  3.9933  0.4984
 1007MOL0     H35925   6.862   7.501   1.956 -0.1971 -0.2477 -3.8918
 1007MOL0     H35926   7.114   7.543   1.981  0.2312 -0.9239 -2.8497
 1007MOL0     H35927   7.558   7.613   1.797 -0.3602  0.1223 -0.2624
 1007MOL0     H35928   7.768   7.671   1.849  0.0650  0.3294 -0.4467
 1007MOL0     H35929   8.349   6.722   1.238 -1.5015 -3.2866 -0.6612
 1007MOL0     H35930   8.558   6.628   1.154  2.5876  1.8071 -0.5232
 1007MOL0     H35931   8.651   6.361   0.711  0.5016  0.1703  0.9085
 1007MOL0     H35932   8.816   6.253   0.571 -1.3169 -1.0668  2.0080
 1007MOL0     H35933   9.087   6.232   0.393  3.8034 -1.6888  0.2018
 1007MOL0     H35934   9.004   6.151   0.520 -2.1251  2.5622 -2.7633
 1007MOL0     H35935   9.307   6.202   0.471  0.5778 -1.1095  1.6699
 1007MOL0     H35936   9.225   6.046   0.488  1.5147 -0.1060 -1.6792
 1007MOL0     H35937   9.180   6.116   0.723  0.5799 -0.7013 -1.4133
 1007MOL0     H35938   9.287   6.257   0.687  2.6721  0.3460  0.5538
 1007MOL0     H35939   9.386   6.021   0.799 -1.6263  0.5656  0.2452
 1007MOL0     H35940   9.375   5.965   0.627 -1.2847 -0.8783  0.2058
 1007MOL0     H35941   9.662   6.289   0.693 -2.8124  2.7847 -4.3683
 1007MOL0     H35942   9.103   6.557   0.697  1.2578 -2.3007 -0.8637
 1007MOL0     H35943   8.901   6.785   0.816  2.1075  1.9929  0.6998
 1007MOL0     H35944   8.918   6.673   0.963 -0.5114 -6.2683 -0.3361
 1007MOL0     H35945   9.054   6.706   0.857  0.0819  0.5330 -2.7945
 1008MOL0     O35946   5.062   9.059  11.282  0.7072  0.0066 -0.6073
 1008MOL0     C35947   5.120   9.030  11.186 -0.9363  0.0409  0.8336
 1008MOL0     O35948   5.148   8.890  11.141  0.3352 -0.2251  0.2296
 1008MOL0     C35949   5.074   8.779  11.192 -0.7505 -0.2972  1.1763
 1008MOL0     C35950   5.133   8.648  11.205  1.0834  0.3051 -0.3432
 1008MOL0     C35951   5.053   8.530  11.234  1.2130 -0.5671  0.4748
 1008MOL0     C35952   4.920   8.555  11.278 -0.6232 -0.3609 -0.0848
 1008MOL0     O35953   4.846   8.446  11.324 -0.1270 -0.6447 -0.2670
 1008MOL0     C35954   4.725   8.466  11.402 -1.6406 -0.7866 -0.6067
 1008MOL0     C35955   4.662   8.332  11.432 -0.1530 -0.8636  0.3652
 1008MOL0     C35956   4.545   8.347  11.537  0.5625  0.3403  0.0127
 1008MOL0     C35957   4.510   8.203  11.581  0.0523 -0.6067  0.3684
 1008MOL0     C35958   4.364   8.181  11.636  0.3827  0.0494 -0.6101
 1008MOL0     C35959   4.348   8.244  11.780 -0.8859  0.2716  0.0153
 1008MOL0     C35960   4.206   8.266  11.816  0.1347  0.0801 -0.1201
 1008MOL0     C35961   4.141   8.146  11.882 -0.1854  0.6465 -0.2476
 1008MOL0     N35962   3.996   8.165  11.913  0.3296  0.4477 -0.0960
 1008MOL0     C35963   3.913   8.262  11.862 -0.4115  0.4417  0.1234
 1008MOL0     C35964   3.787   8.229  11.905  0.0726  0.2189  0.0606
 1008MOL0     C35965   3.658   8.303  11.898 -0.0823 -0.5898  0.4626
 1008MOL0     C35966   3.680   8.454  11.884 -0.3942 -0.9705  0.2639
 1008MOL0     C35967   3.541   8.512  11.857  0.2008 -0.0337 -0.4692
 1008MOL0     C35968   3.463   8.535  11.986  0.0968 -0.3495 -1.4071
 1008MOL0     O35969   3.542   8.614  12.080  0.0745 -0.6405 -0.6758
 1008MOL0     C35970   3.557   8.577  12.214  0.3413 -0.2191 -1.1490
 1008MOL0     C35971   3.669   8.634  12.288  0.2330  0.1462 -0.7858
 1008MOL0     C35972   3.689   8.589  12.423 -0.0526 -0.9840  0.9786
 1008MOL0     C35973   3.610   8.496  12.490  0.6585 -0.6622  0.0968
 1008MOL0     C35974   3.637   8.449  12.623 -0.8543 -0.1778 -0.6608
 1008MOL0     O35975   3.764   8.482  12.674  0.2464  0.1611 -0.8231
 1008MOL0     C35976   3.759   8.502  12.811 -0.4410 -0.0300  0.8226
 1008MOL0     C35977   3.660   8.574  12.883 -0.5715  1.0730 -0.6673
 1008MOL0     C35978   3.674   8.595  13.012  0.4677 -0.3422 -1.1602
 1008MOL0     C35979   3.776   8.534  13.089  0.1918  0.8458  0.7432
 1008MOL0     O35980   3.768   8.545  13.226  0.3366  0.6791 -0.1344
 1008MOL0     C35981   3.849   8.456  13.304  0.2784 -0.8465  0.6566
 1008MOL0     C35982   3.813   8.451  13.444 -0.7456 -0.8847 -1.3502
 1008MOL0     C35983   3.918   8.387  13.542  0.5163  0.8890  0.0550
 1008MOL0     C35984   4.039   8.470  13.579  0.0990 -0.0609 -0.6760
 1008MOL0     C35985   4.149   8.375  13.626 -0.2694  0.2751 -0.2647
 1008MOL0     C35986   4.285   8.435  13.654 -0.1406  0.7457 -0.4449
 1008MOL0     C35987   4.358   8.457  13.531  0.6547 -0.3343 -0.7108
 1008MOL0     C35988   4.381   8.614  13.529 -0.4296 -0.3967  0.5608
 1008MOL0    Cl35989   4.453   8.671  13.684  0.4935 -0.5977  0.4326
 1008MOL0     C35990   3.880   8.469  13.020  0.3633  0.3412  0.6996
 1008MOL0     C35991   3.873   8.453  12.884  0.3272  0.6505  1.0521
 1008MOL0     O35992   3.559   8.367  12.668 -0.7823  0.1224  0.2584
 1008MOL0     C35993   3.506   8.446  12.416  0.4169 -0.5131  0.3545
 1008MOL0     C35994   3.476   8.484  12.284 -0.8791 -0.1413  0.0550
 1008MOL0     N35995   3.792   8.106  11.963 -0.1883  0.4200  0.2019
 1008MOL0     N35996   3.914   8.065  11.961 -0.7441  0.2837 -0.1101
 1008MOL0     C35997   4.871   8.686  11.281  0.3718 -0.7300 -0.1070
 1008MOL0     C35998   4.941   8.798  11.238 -0.3420  0.4289  0.6383
 1008MOL0     C35999   5.189   9.134  11.096  0.2737 -0.0440  0.0660
 1008MOL0     C36000   5.277   9.082  10.998  0.8754  0.3881 -0.0244
 1008MOL0     C36001   5.334   9.175  10.910  0.1120  0.3965  0.3729
 1008MOL0     C36002   5.303   9.304  10.907  0.4377 -0.6917 -0.3135
 1008MOL0     O36003   5.344   9.385  10.813 -0.1030 -0.8717  0.1548
 1008MOL0     C36004   5.424   9.492  10.866  1.2207  0.3351  0.6655
 1008MOL0     C36005   5.518   9.530  10.753  0.2511  0.2213  0.1355
 1008MOL0     C36006   5.447   9.587  10.634 -0.0585 -0.6691 -0.5912
 1008MOL0     C36007   5.538   9.646  10.534  0.1236 -0.3317  0.2691
 1008MOL0     C36008   5.474   9.697  10.423 -0.2071  0.0127  0.1713
 1008MOL0     C36009   5.415   9.736  10.331 -0.3020 -0.2549  0.5601
 1008MOL0     C36010   5.220   9.358  11.006  0.2144  0.4097  0.3757
 1008MOL0     C36011   5.158   9.280  11.103 -0.4306 -0.4124  0.3283
 1008MOL0     C36012   5.067   9.340  11.201  0.6799 -1.3026 -0.4845
 1008MOL0     H36013   5.237   8.630  11.178  0.6853 -0.5501 -1.3715
 1008MOL0     H36014   5.086   8.429  11.209 -1.8470 -1.3166 -1.0592
 1008MOL0     H36015   4.752   8.522  11.492 -1.4223  1.0823 -1.7670
 1008MOL0     H36016   4.656   8.536  11.353 -1.8161  0.5637  1.4305
 1008MOL0     H36017   4.745   8.275  11.474 -0.8312 -0.8122  1.8570
 1008MOL0     H36018   4.624   8.298  11.335  1.6505 -1.9928  0.0211
 1008MOL0     H36019   4.471   8.408  11.485 -1.6384 -0.3632  2.1188
 1008MOL0     H36020   4.568   8.404  11.627 -3.0835  1.6972  0.2300
 1008MOL0     H36021   4.524   8.138  11.494 -0.8415 -0.9964  0.4921
 1008MOL0     H36022   4.571   8.169  11.665 -1.3837 -4.0776  0.1793
 1008MOL0     H36023   4.286   8.221  11.570 -0.9870  3.3319  2.6705
 1008MOL0     H36024   4.361   8.073  11.650 -1.7012  0.2035  0.5430
 1008MOL0     H36025   4.403   8.182  11.852  0.7405  0.9606 -0.5715
 1008MOL0     H36026   4.386   8.345  11.760  0.0418  0.1384  0.9845
 1008MOL0     H36027   4.154   8.281  11.721 -1.2053  0.7029  0.6851
 1008MOL0     H36028   4.187   8.351  11.882  3.7000  0.7147  0.2975
 1008MOL0     H36029   4.145   8.061  11.813 -0.9842  0.5792 -0.2280
 1008MOL0     H36030   4.190   8.123  11.978 -1.7104  0.6937  0.5802
 1008MOL0     H36031   3.937   8.355  11.812  1.2775 -1.4395 -2.8994
 1008MOL0     H36032   3.608   8.267  11.809  1.4688  0.1121 -0.7464
 1008MOL0     H36033   3.598   8.272  11.985  0.7498 -1.0337  0.8950
 1008MOL0     H36034   3.717   8.491  11.980  1.7302 -0.2381 -0.7863
 1008MOL0     H36035   3.750   8.487  11.807 -0.9884  0.6466  0.3801
 1008MOL0     H36036   3.487   8.439  11.794  1.7441 -2.4432  0.8388
 1008MOL0     H36037   3.555   8.608  11.807 -1.7977  0.7557  0.3818
 1008MOL0     H36038   3.444   8.436  12.028  1.5048 -0.3616 -0.7617
 1008MOL0     H36039   3.366   8.580  11.963 -2.2394 -4.4214 -0.6152
 1008MOL0     H36040   3.739   8.703  12.242  2.9122 -0.4439  1.9798
 1008MOL0     H36041   3.764   8.650  12.472 -0.6132  1.8972 -1.4724
 1008MOL0     H36042   3.563   8.600  12.841 -1.7010 -1.8507 -0.1583
 1008MOL0     H36043   3.593   8.646  13.064  0.8251 -1.4732  0.6159
 1008MOL0     H36044   3.844   8.355  13.262  4.1839 -2.3301  3.1521
 1008MOL0     H36045   3.945   8.509  13.304 -0.9600  1.5618  2.1899
 1008MOL0     H36046   3.788   8.545  13.493  2.8228 -1.3931  1.9257
 1008MOL0     H36047   3.717   8.400  13.457 -1.2191 -0.0890 -1.6523
 1008MOL0     H36048   3.864   8.355  13.632  0.8553  0.4609  0.1108
 1008MOL0     H36049   3.960   8.299  13.494 -0.3599 -0.7185  2.0712
 1008MOL0     H36050   4.029   8.540  13.663  0.6560 -2.2602  1.3317
 1008MOL0     H36051   4.081   8.525  13.494 -0.4277  0.5746 -0.5301
 1008MOL0     H36052   4.157   8.293  13.554 -2.2899  0.3228 -0.5865
 1008MOL0     H36053   4.104   8.326  13.712 -0.0494  1.9614  0.8498
 1008MOL0     H36054   4.270   8.518  13.724  0.1526  0.3228  0.1395
 1008MOL0     H36055   4.353   8.363  13.702  1.8385  0.5369 -3.2858
 1008MOL0     H36056   4.293   8.425  13.449 -0.1446  1.5183 -0.8555
 1008MOL0     H36057   4.455   8.407  13.535  0.1606 -1.2698 -0.2178
 1008MOL0     H36058   4.451   8.629  13.446 -1.6345  1.7437 -0.1421
 1008MOL0     H36059   4.290   8.673  13.513 -0.2592 -0.1988  0.3110
 1008MOL0     H36060   3.973   8.432  13.064  0.4685  2.0092  1.9276
 1008MOL0     H36061   3.958   8.417  12.828 -1.5891 -0.4765 -1.3653
 1008MOL0     H36062   3.433   8.383  12.466  0.6920 -0.6126  0.6334
 1008MOL0     H36063   3.386   8.445  12.238 -1.1863  0.9273 -0.2732
 1008MOL0     H36064   4.770   8.707  11.317  2.3565  3.6660  4.0171
 1008MOL0     H36065   4.890   8.893  11.232  2.0881  1.7372 -2.5689
 1008MOL0     H36066   5.307   8.979  10.983 -1.5312 -0.1505 -1.7837
 1008MOL0     H36067   5.413   9.143  10.843 -1.0706 -2.3517  0.1550
 1008MOL0     H36068   5.476   9.461  10.957  0.6546  0.2207  0.9522
 1008MOL0     H36069   5.367   9.580  10.897  0.3742  0.9373 -2.2656
 1008MOL0     H36070   5.556   9.431  10.725 -3.5334 -1.5971  0.7912
 1008MOL0     H36071   5.591   9.599  10.796 -0.3363  0.6785  0.4088
 1008MOL0     H36072   5.383   9.666  10.676  0.8660  0.2024 -0.7715
 1008MOL0     H36073   5.382   9.513  10.586 -0.0882 -0.3871 -0.9956
 1008MOL0     H36074   5.601   9.723  10.580 -0.2385  1.6077 -2.3054
 1008MOL0     H36075   5.617   9.584  10.490  2.6791  4.2705 -2.3926
 1008MOL0     H36076   5.379   9.772  10.237 -1.1801  1.9746  1.6918
 1008MOL0     H36077   5.211   9.466  10.994  2.4861  0.6910  0.6968
 1008MOL0     H36078   5.006   9.422  11.163  1.1836 -1.8100 -2.5221
 1008MOL0     H36079   4.995   9.265  11.236 -0.7796 -0.1433 -0.8757
 1008MOL0     H36080   5.127   9.391  11.277  2.0535 -1.5954 -1.3367
 1009MOL0     O36081  11.338   4.144   9.002  0.4787  0.6967  0.7113
 1009MOL0     C36082  11.229   4.092   9.001  0.1018  0.8268 -0.1323
 1009MOL0     O36083  11.205   3.952   8.997  0.0638 -0.3996 -0.4840
 1009MOL0     C36084  11.279   3.856   9.061  0.9861  0.4431  0.3424
 1009MOL0     C36085  11.399   3.881   9.135 -0.6425  0.7770  0.0001
 1009MOL0     C36086  11.472   3.773   9.186 -0.0398 -0.2565  0.1329
 1009MOL0     C36087  11.422   3.645   9.185 -0.2132  0.1668 -1.0589
 1009MOL0     O36088  11.490   3.544   9.245 -0.3704 -0.2979 -0.3402
 1009MOL0     C36089  11.598   3.485   9.172  0.5892 -0.0963 -0.2666
 1009MOL0     C36090  11.615   3.345   9.212  0.3492  0.0215 -0.3697
 1009MOL0     C36091  11.710   3.279   9.116  0.0329  0.3814  0.2364
 1009MOL0     C36092  11.757   3.135   9.163 -0.9233 -1.2209  0.2071
 1009MOL0     C36093  11.849   3.141   9.290  0.5416  0.2322 -0.0013
 1009MOL0     C36094  11.918   3.009   9.324  0.9725 -0.3827 -1.0178
 1009MOL0     C36095  11.990   2.936   9.212 -0.0935  0.6710  0.0400
 1009MOL0     C36096  12.092   2.830   9.265  1.1389 -1.1828 -0.0506
 1009MOL0     N36097  12.026   2.733   9.342  0.6832  0.0478 -0.2929
 1009MOL0     C36098  12.034   2.722   9.480  0.4937 -0.0286  0.9604
 1009MOL0     C36099  11.956   2.608   9.499  0.6645  0.0826  0.6951
 1009MOL0     C36100  11.928   2.545   9.635  0.7338 -0.1751  0.8863
 1009MOL0     C36101  11.952   2.390   9.648 -0.0638 -0.0564  0.2030
 1009MOL0     C36102  12.087   2.344   9.574  0.6596  0.0522 -0.0356
 1009MOL0     C36103  12.115   2.190   9.582  0.6705  0.4653 -0.2871
 1009MOL0     O36104  12.255   2.159   9.576 -0.3511  0.6266 -0.7004
 1009MOL0     C36105  12.337   2.154   9.691  1.1802  0.4372  0.0647
 1009MOL0     C36106  12.304   2.201   9.816  0.0361 -0.2730  0.1287
 1009MOL0     C36107  12.390   2.196   9.925  0.3884  0.0282  0.3428
 1009MOL0     C36108  12.512   2.130   9.903 -0.2599 -0.1814  0.0007
 1009MOL0     C36109  12.605   2.119  10.020 -0.6963 -0.5543  0.4751
 1009MOL0     O36110  12.725   2.049  10.001 -0.1096 -0.5631 -0.1938
 1009MOL0     C36111  12.811   2.009  10.103  0.4599 -1.1268 -0.6345
 1009MOL0     C36112  12.798   2.038  10.243  0.2333  0.3003  0.2181
 1009MOL0     C36113  12.900   2.004  10.326 -0.0085 -0.9176  0.3368
 1009MOL0     C36114  13.018   1.949  10.288  0.0047 -0.3714 -0.9372
 1009MOL0     O36115  13.121   1.917  10.378  0.2749 -0.4304 -0.1803
 1009MOL0     C36116  13.091   1.874  10.510  0.4285  0.1010 -0.6874
 1009MOL0     C36117  13.216   1.834  10.584 -0.1734 -0.3179  0.0256
 1009MOL0     C36118  13.259   1.695  10.540 -0.4394 -0.3956  0.6584
 1009MOL0     C36119  13.175   1.569  10.587 -0.7778  0.8565 -0.6259
 1009MOL0     C36120  13.194   1.436  10.507 -0.6853  0.9665  0.1346
 1009MOL0     C36121  13.146   1.295  10.569 -0.0663 -0.1257 -0.1712
 1009MOL0     C36122  13.152   1.170  10.488  0.0843 -0.0297  0.8103
 1009MOL0     C36123  13.044   1.166  10.377  0.4235 -0.2713  0.6823
 1009MOL0    Cl36124  13.032   1.010  10.296  0.1224 -0.1298 -0.0223
 1009MOL0     C36125  13.040   1.926  10.156  0.5631 -0.0931  0.3391
 1009MOL0     C36126  12.939   1.964  10.066  0.6387  0.2059 -0.5110
 1009MOL0     O36127  12.562   2.147  10.132 -0.0169 -0.0634  0.7415
 1009MOL0     C36128  12.544   2.071   9.780  0.5270  0.1059  0.0067
 1009MOL0     C36129  12.459   2.084   9.673  0.0049 -0.2731  0.9306
 1009MOL0     N36130  11.881   2.574   9.386  0.6663  0.9433  0.3428
 1009MOL0     N36131  11.937   2.645   9.292 -0.1418 -0.0691  0.4622
 1009MOL0     C36132  11.309   3.617   9.117  0.7566 -0.2813  0.3639
 1009MOL0     C36133  11.236   3.725   9.055 -0.2823 -0.8462  0.8326
 1009MOL0     C36134  11.105   4.177   8.982  0.6907  0.6770  0.8567
 1009MOL0     C36135  10.977   4.118   8.964 -0.2736 -0.8213 -0.2243
 1009MOL0     C36136  10.864   4.205   8.944  0.1216  0.7197  0.3753
 1009MOL0     C36137  10.875   4.342   8.971  0.5582  0.8671  0.0629
 1009MOL0     O36138  10.768   4.421   8.995  0.1925  0.2526  0.0626
 1009MOL0     C36139  10.693   4.391   9.110  0.2862 -0.9254  0.2313
 1009MOL0     C36140  10.589   4.497   9.128  0.0863 -1.1776 -0.1488
 1009MOL0     C36141  10.468   4.483   9.037 -0.3723  0.0528  0.4659
 1009MOL0     C36142  10.347   4.562   9.069 -1.1134 -0.4176 -0.4803
 1009MOL0     C36143  10.374   4.713   9.065 -0.1231 -0.4175  0.2029
 1009MOL0     C36144  10.399   4.837   9.071 -0.0472 -0.3483  0.3088
 1009MOL0     C36145  10.993   4.401   8.985 -0.1059 -0.0277  0.2917
 1009MOL0     C36146  11.106   4.323   8.975  0.6314  0.0339  0.4786
 1009MOL0     C36147  11.235   4.395   8.953  0.7683 -0.3860 -0.0495
 1009MOL0     H36148  11.427   3.986   9.147 -0.9902  0.7627  1.0310
 1009MOL0     H36149  11.559   3.799   9.245 -0.9532  1.4720  0.7616
 1009MOL0     H36150  11.573   3.478   9.066 -1.0186 -1.6817  0.1768
 1009MOL0     H36151  11.692   3.542   9.180  1.7153 -2.0798  1.9199
 1009MOL0     H36152  11.512   3.307   9.209  0.9046 -1.5343 -0.8499
 1009MOL0     H36153  11.654   3.345   9.314  1.8890 -1.2100 -0.9288
 1009MOL0     H36154  11.802   3.333   9.095 -1.0187  1.0270 -3.4480
 1009MOL0     H36155  11.660   3.272   9.018 -1.4091 -1.7417  1.0444
 1009MOL0     H36156  11.670   3.074   9.188 -1.6173 -0.9271 -1.3778
 1009MOL0     H36157  11.807   3.093   9.076 -0.6596 -0.2600 -0.1219
 1009MOL0     H36158  11.921   3.223   9.293 -0.5014  1.1490  2.7506
 1009MOL0     H36159  11.778   3.165   9.369  1.2837 -0.8056  1.0206
 1009MOL0     H36160  11.987   3.039   9.403  0.3949  2.5070 -1.5114
 1009MOL0     H36161  11.834   2.958   9.373 -0.4539  2.2525 -0.5388
 1009MOL0     H36162  12.049   3.007   9.154 -0.5600 -1.2193 -2.9942
 1009MOL0     H36163  11.919   2.885   9.146  0.7028 -2.0800  1.1705
 1009MOL0     H36164  12.137   2.781   9.178  0.5392 -1.4575 -0.2087
 1009MOL0     H36165  12.168   2.883   9.325  0.3117 -1.8320  1.6346
 1009MOL0     H36166  12.080   2.779   9.560 -1.6223  1.7841  0.9769
 1009MOL0     H36167  11.994   2.588   9.712  1.5033  1.0768 -0.4238
 1009MOL0     H36168  11.826   2.559   9.673  0.6087 -3.6962  2.1792
 1009MOL0     H36169  11.955   2.372   9.756 -0.9091  2.7512  0.7817
 1009MOL0     H36170  11.865   2.336   9.609  1.0161 -1.8588  0.2148
 1009MOL0     H36171  12.176   2.395   9.612 -0.3693  0.6018  1.7526
 1009MOL0     H36172  12.075   2.365   9.467 -1.4704 -1.5160 -0.1766
 1009MOL0     H36173  12.060   2.146   9.499 -1.8998  0.2682  1.3798
 1009MOL0     H36174  12.067   2.164   9.677  0.6405  1.1974 -0.0951
 1009MOL0     H36175  12.203   2.241   9.825 -0.1356 -0.1432 -1.9860
 1009MOL0     H36176  12.371   2.241  10.022  3.3778  1.1649  0.5184
 1009MOL0     H36177  12.711   2.094  10.274  1.4341  2.6374 -0.3381
 1009MOL0     H36178  12.877   2.019  10.431  0.7063 -0.6991  0.4642
 1009MOL0     H36179  13.055   1.961  10.565  0.3649  0.2977 -1.0406
 1009MOL0     H36180  13.016   1.794  10.508  2.2177 -1.6509 -0.9640
 1009MOL0     H36181  13.300   1.902  10.574 -0.2737 -0.1387  0.3785
 1009MOL0     H36182  13.195   1.811  10.689 -0.6510 -0.6159 -0.1303
 1009MOL0     H36183  13.268   1.699  10.431  2.4598 -0.1432  0.8087
 1009MOL0     H36184  13.356   1.674  10.587  0.8487  0.3071 -1.5036
 1009MOL0     H36185  13.068   1.591  10.596 -1.1568 -0.8428 -0.6023
 1009MOL0     H36186  13.207   1.547  10.689  0.3379  1.1667 -0.9030
 1009MOL0     H36187  13.299   1.429  10.478 -0.2252 -1.4366  2.1154
 1009MOL0     H36188  13.144   1.448  10.410 -2.1350 -1.1480  0.5514
 1009MOL0     H36189  13.209   1.279  10.657 -0.4620  2.5376  0.6688
 1009MOL0     H36190  13.048   1.307  10.616  1.1754 -1.1386  3.0082
 1009MOL0     H36191  13.140   1.079  10.547 -4.2553  0.4894  1.0656
 1009MOL0     H36192  13.251   1.161  10.441  0.5584 -3.0090  2.1840
 1009MOL0     H36193  12.946   1.201  10.410 -0.2131  0.7986 -2.0450
 1009MOL0     H36194  13.075   1.247  10.311  0.6843  0.2460  1.4203
 1009MOL0     H36195  13.131   1.876  10.125 -0.3136 -0.5392 -1.6764
 1009MOL0     H36196  12.957   1.944   9.961  1.2680  0.6745 -0.5004
 1009MOL0     H36197  12.632   2.007   9.773 -0.0549 -0.6569 -0.5877
 1009MOL0     H36198  12.487   2.049   9.574  2.8308  3.3202  0.1932
 1009MOL0     H36199  11.270   3.516   9.118  1.8291 -0.7160  0.1922
 1009MOL0     H36200  11.153   3.694   8.993 -0.1798 -1.5488  1.0395
 1009MOL0     H36201  10.965   4.010   8.976  1.1292 -0.7311  2.8258
 1009MOL0     H36202  10.765   4.166   8.926 -0.8767  2.9559  0.6227
 1009MOL0     H36203  10.764   4.406   9.192  0.1950 -0.6192  0.2558
 1009MOL0     H36204  10.653   4.289   9.110 -0.5770 -0.6396 -1.9301
 1009MOL0     H36205  10.631   4.597   9.113 -0.1729 -0.5670  2.5593
 1009MOL0     H36206  10.546   4.494   9.229  0.8795  2.8850  0.4578
 1009MOL0     H36207  10.436   4.380   9.049  2.1884 -0.8178  0.4444
 1009MOL0     H36208  10.498   4.514   8.936 -1.6568  2.5929  0.7703
 1009MOL0     H36209  10.266   4.532   9.003 -1.0499  1.2782 -1.3707
 1009MOL0     H36210  10.327   4.546   9.176 -1.8263 -2.6331 -0.8969
 1009MOL0     H36211  10.408   4.944   9.067 -1.7746 -0.0773  1.9461
 1009MOL0     H36212  11.007   4.508   9.002  1.2851  0.5123 -3.3517
 1009MOL0     H36213  11.309   4.367   8.878  0.7098  2.0448 -1.1158
 1009MOL0     H36214  11.214   4.498   8.919  0.3120 -0.2110  0.7398
 1009MOL0     H36215  11.288   4.399   9.049 -1.0409 -1.1835  1.0349
 1010MOL0     O36216   4.358   6.520   2.459  0.5230  0.6537 -0.2130
 1010MOL0     C36217   4.362   6.441   2.364 -0.9654 -0.5811  0.5264
 1010MOL0     O36218   4.450   6.442   2.269  0.0667 -0.3430 -0.5082
 1010MOL0     C36219   4.572   6.491   2.301  1.4223  0.9699  0.2567
 1010MOL0     C36220   4.591   6.631   2.320  0.2876 -0.2058 -0.4348
 1010MOL0     C36221   4.719   6.687   2.348  0.0805 -0.0264  0.3088
 1010MOL0     C36222   4.836   6.599   2.353 -0.0972 -1.5879 -0.6658
 1010MOL0     O36223   4.956   6.648   2.396 -0.3962 -0.2655 -0.5096
 1010MOL0     C36224   5.079   6.569   2.386 -0.0074  0.1311 -0.3255
 1010MOL0     C36225   5.214   6.651   2.396  0.0855 -0.1295 -0.6747
 1010MOL0     C36226   5.223   6.758   2.287 -0.2098 -0.0759  0.3216
 1010MOL0     C36227   5.333   6.855   2.314 -0.1378  0.2039  0.3841
 1010MOL0     C36228   5.367   6.939   2.179  0.1397 -0.3557 -0.9343
 1010MOL0     C36229   5.273   7.056   2.147  0.5143  0.5707  0.7192
 1010MOL0     C36230   5.302   7.147   2.030  0.3967  0.0783  0.2103
 1010MOL0     C36231   5.307   7.066   1.898  0.9755 -0.5054 -0.0927
 1010MOL0     N36232   5.169   7.018   1.865  0.4716 -0.4234 -1.0371
 1010MOL0     C36233   5.125   6.897   1.913 -0.1226  0.1947 -0.0362
 1010MOL0     C36234   5.005   6.880   1.857 -0.0317 -0.8332 -0.5520
 1010MOL0     C36235   4.908   6.770   1.887 -0.5327  0.4023  0.5625
 1010MOL0     C36236   4.855   6.769   2.024 -0.3705  0.9113 -0.4252
 1010MOL0     C36237   4.780   6.894   2.069 -0.2533  0.2143 -0.4331
 1010MOL0     C36238   4.632   6.906   2.011  0.3265 -0.3427 -0.1549
 1010MOL0     O36239   4.553   7.022   2.058 -0.1855 -0.3110  0.1819
 1010MOL0     C36240   4.596   7.155   2.029  0.4920  0.6299 -0.1967
 1010MOL0     C36241   4.553   7.267   2.109 -0.2830  0.3408 -0.2669
 1010MOL0     C36242   4.605   7.394   2.101 -0.3458  0.5426  0.3883
 1010MOL0     C36243   4.709   7.427   2.006  0.7612 -0.4671  0.7699
 1010MOL0     C36244   4.767   7.564   2.002  0.1561  0.6097 -0.4936
 1010MOL0     O36245   4.871   7.581   1.903 -0.0162  0.1255 -0.7753
 1010MOL0     C36246   4.932   7.701   1.890  0.6307 -0.2232  0.4369
 1010MOL0     C36247   4.988   7.777   2.000 -0.0950 -1.0078 -0.7875
 1010MOL0     C36248   5.070   7.889   1.968 -1.2972  0.4003  0.8206
 1010MOL0     C36249   5.085   7.930   1.838  0.2500 -0.0287  0.4111
 1010MOL0     O36250   5.130   8.057   1.793 -0.1117  0.4750  0.1969
 1010MOL0     C36251   5.226   8.134   1.870  0.9798  0.4518 -0.0505
 1010MOL0     C36252   5.374   8.115   1.840 -0.0842 -0.1135 -0.6058
 1010MOL0     C36253   5.425   8.191   1.717 -0.2849  0.1160  0.5398
 1010MOL0     C36254   5.567   8.136   1.663  0.2857 -0.1450 -0.7016
 1010MOL0     C36255   5.613   8.205   1.527  0.1328 -0.2903 -0.1021
 1010MOL0     C36256   5.657   8.354   1.528  0.7386 -0.5753  0.0391
 1010MOL0     C36257   5.765   8.389   1.631 -0.4571 -0.8537 -0.2453
 1010MOL0     C36258   5.764   8.542   1.654 -0.1215  0.2607  0.5264
 1010MOL0    Cl36259   5.771   8.638   1.506 -0.0085 -0.0038  0.0218
 1010MOL0     C36260   5.038   7.852   1.735  0.5083 -0.0996 -0.2856
 1010MOL0     C36261   4.963   7.737   1.767 -0.2910 -0.3841  0.9224
 1010MOL0     O36262   4.733   7.649   2.088  0.0365  0.2867 -0.2860
 1010MOL0     C36263   4.736   7.329   1.908  0.0172 -0.1265 -0.0327
 1010MOL0     C36264   4.689   7.194   1.923  0.0227 -0.9359 -0.5741
 1010MOL0     N36265   4.964   6.994   1.790  0.3304  1.5529  0.1107
 1010MOL0     N36266   5.071   7.078   1.794 -0.5622 -0.2446 -0.1236
 1010MOL0     C36267   4.817   6.465   2.339  0.0577  0.7426 -0.2285
 1010MOL0     C36268   4.690   6.414   2.292 -0.1910 -0.0452 -0.0129
 1010MOL0     C36269   4.240   6.364   2.335  0.8329  0.2112 -0.1820
 1010MOL0     C36270   4.118   6.442   2.349 -0.3502  0.2377  0.1181
 1010MOL0     C36271   3.998   6.380   2.331  0.6669 -0.5004 -0.6301
 1010MOL0     C36272   3.983   6.245   2.313 -0.0457  0.2660  0.2786
 1010MOL0     O36273   3.863   6.190   2.281  0.8620  0.5058  0.2061
 1010MOL0     C36274   3.784   6.125   2.389  0.8101  0.2059 -0.6562
 1010MOL0     C36275   3.651   6.084   2.338 -0.1436  0.0460  0.1646
 1010MOL0     C36276   3.587   6.197   2.265 -0.4746 -0.2690  0.2976
 1010MOL0     C36277   3.436   6.185   2.238  0.2148 -0.4188 -0.2951
 1010MOL0     C36278   3.407   6.088   2.131 -0.2227 -0.2373 -0.3038
 1010MOL0     C36279   3.390   6.007   2.045 -0.0622  0.5007  0.7742
 1010MOL0     C36280   4.100   6.178   2.294 -0.5010  0.6612 -0.9697
 1010MOL0     C36281   4.227   6.230   2.297 -0.9197  0.4119  1.1733
 1010MOL0     C36282   4.342   6.138   2.279 -0.6159  0.3080  0.1245
 1010MOL0     H36283   4.510   6.700   2.340  0.0745 -0.4469 -0.4590
 1010MOL0     H36284   4.732   6.794   2.359  1.0229 -0.1351  0.3211
 1010MOL0     H36285   5.077   6.485   2.456 -3.2461 -0.2788 -0.7855
 1010MOL0     H36286   5.085   6.516   2.291 -0.9946 -2.5655  1.0058
 1010MOL0     H36287   5.302   6.585   2.389  1.1150  1.1059  0.2191
 1010MOL0     H36288   5.214   6.712   2.486 -1.1292 -0.0245 -0.7372
 1010MOL0     H36289   5.132   6.817   2.275  0.0394  1.6527  4.9431
 1010MOL0     H36290   5.231   6.703   2.193 -3.2463 -1.1386  0.5504
 1010MOL0     H36291   5.309   6.921   2.398 -0.6240 -0.4429  0.7620
 1010MOL0     H36292   5.422   6.793   2.329 -1.8407 -2.6247 -0.5761
 1010MOL0     H36293   5.472   6.971   2.185  0.6371 -2.0540  0.1775
 1010MOL0     H36294   5.377   6.876   2.091 -0.0763 -0.6209 -0.7694
 1010MOL0     H36295   5.172   7.015   2.134  1.1761 -0.6811 -0.8204
 1010MOL0     H36296   5.265   7.129   2.229 -4.9762  1.8488 -0.5441
 1010MOL0     H36297   5.403   7.187   2.040  2.2025 -2.9089 -3.5426
 1010MOL0     H36298   5.225   7.225   2.034 -3.2989 -3.2333  3.1735
 1010MOL0     H36299   5.356   7.131   1.825  3.8484 -1.2083  1.0870
 1010MOL0     H36300   5.377   6.982   1.894  1.1786 -0.4242  1.2439
 1010MOL0     H36301   5.186   6.836   1.980  0.5743 -1.7767 -2.2888
 1010MOL0     H36302   4.820   6.786   1.823 -1.1740  1.0657  1.5711
 1010MOL0     H36303   4.944   6.670   1.862 -0.7008  0.6121 -0.5752
 1010MOL0     H36304   4.790   6.681   2.019 -0.3748  0.8385  0.6798
 1010MOL0     H36305   4.942   6.760   2.089  0.1921 -0.0980 -1.2913
 1010MOL0     H36306   4.849   6.975   2.041 -0.1518  0.6814  1.0997
 1010MOL0     H36307   4.756   6.900   2.175 -1.8259 -0.4649 -0.7263
 1010MOL0     H36308   4.575   6.817   2.038  0.2885 -0.0331  0.8427
 1010MOL0     H36309   4.639   6.913   1.902  1.5362 -1.4583 -0.1718
 1010MOL0     H36310   4.472   7.258   2.180 -1.1846  2.5361 -0.9385
 1010MOL0     H36311   4.573   7.481   2.156  3.3591  2.8666 -0.7585
 1010MOL0     H36312   4.979   7.745   2.103  4.4310 -2.1285 -0.5416
 1010MOL0     H36313   5.120   7.940   2.049  2.2552  0.0180 -0.9053
 1010MOL0     H36314   5.199   8.238   1.851 -2.4064 -0.6404 -1.9756
 1010MOL0     H36315   5.204   8.124   1.977 -1.0557 -0.4790 -0.5229
 1010MOL0     H36316   5.430   8.150   1.927 -1.9114 -1.0555  1.0094
 1010MOL0     H36317   5.400   8.010   1.827  2.3423  0.6232 -2.5838
 1010MOL0     H36318   5.369   8.173   1.624  1.2961 -0.9350 -0.2710
 1010MOL0     H36319   5.417   8.299   1.731  1.4368  0.3373  0.0909
 1010MOL0     H36320   5.559   8.032   1.627  0.4772  0.5256 -2.8117
 1010MOL0     H36321   5.636   8.135   1.748  2.3908  1.3982 -2.2958
 1010MOL0     H36322   5.535   8.185   1.452 -0.8613  1.0044  0.5402
 1010MOL0     H36323   5.698   8.147   1.490  1.8134  2.2758 -0.5336
 1010MOL0     H36324   5.700   8.378   1.430  0.0299  1.2748  0.1348
 1010MOL0     H36325   5.562   8.407   1.540 -1.3416 -3.5229 -2.1230
 1010MOL0     H36326   5.851   8.353   1.574 -0.5269 -0.7209 -0.4367
 1010MOL0     H36327   5.778   8.331   1.723  2.2744 -2.0232 -1.2501
 1010MOL0     H36328   5.673   8.565   1.710 -1.9652  0.7280 -2.4562
 1010MOL0     H36329   5.856   8.567   1.708  2.1021 -2.2101 -1.7723
 1010MOL0     H36330   5.057   7.881   1.632  3.7069  0.6778  0.4162
 1010MOL0     H36331   4.940   7.673   1.683 -1.2013 -1.7885  2.1878
 1010MOL0     H36332   4.798   7.345   1.820 -0.5519 -2.1615 -0.8654
 1010MOL0     H36333   4.731   7.127   1.848 -0.4820  0.4443 -2.1290
 1010MOL0     H36334   4.895   6.391   2.349  0.9937  1.7605  0.1593
 1010MOL0     H36335   4.679   6.307   2.278  0.8412 -0.8208  3.8593
 1010MOL0     H36336   4.125   6.549   2.362 -0.1751  0.3258 -0.6203
 1010MOL0     H36337   3.907   6.438   2.345  1.6898  0.6587  1.8998
 1010MOL0     H36338   3.785   6.190   2.477  1.1849 -0.3353 -0.2581
 1010MOL0     H36339   3.839   6.034   2.414 -0.8757 -0.9994 -1.2150
 1010MOL0     H36340   3.593   6.050   2.424  0.6163  0.9277  1.0488
 1010MOL0     H36341   3.659   5.990   2.283  1.0680  0.1225  0.1776
 1010MOL0     H36342   3.637   6.211   2.169 -0.0417  2.2624  0.8120
 1010MOL0     H36343   3.609   6.285   2.325  0.0621  1.2900 -2.0545
 1010MOL0     H36344   3.388   6.151   2.330 -1.6970 -1.1490 -1.4920
 1010MOL0     H36345   3.387   6.281   2.223 -2.1794 -1.1169  2.2499
 1010MOL0     H36346   3.389   5.937   1.963  1.2525  0.9013  0.3790
 1010MOL0     H36347   4.093   6.072   2.272  3.5574 -0.0296  0.1842
 1010MOL0     H36348   4.436   6.187   2.308  0.7942 -0.2072 -3.1751
 1010MOL0     H36349   4.328   6.044   2.334 -1.8105  0.5840  0.3114
 1010MOL0     H36350   4.352   6.112   2.174 -2.2651  0.2726 -0.0374
 1011MOL0     O36351   3.788   2.283   4.247  0.5844  0.4541 -0.2562
 1011MOL0     C36352   3.894   2.336   4.289 -0.4449 -0.3790  0.0997
 1011MOL0     O36353   4.013   2.266   4.317 -0.0934 -0.4996  0.3804
 1011MOL0     C36354   4.033   2.145   4.258 -0.3125 -0.2910  0.7667
 1011MOL0     C36355   4.084   2.147   4.129 -0.1784  0.1514  0.6238
 1011MOL0     C36356   4.091   2.029   4.055 -0.1746  0.6672  0.3476
 1011MOL0     C36357   4.063   1.909   4.118 -0.0900  0.2267 -0.0008
 1011MOL0     O36358   4.104   1.796   4.050  0.3690 -0.4167 -0.0271
 1011MOL0     C36359   4.012   1.693   4.010  0.1071  0.2426  0.7872
 1011MOL0     C36360   4.060   1.606   3.894  0.1998 -0.4831  0.8942
 1011MOL0     C36361   4.185   1.519   3.940 -0.4529 -0.0641  0.3967
 1011MOL0     C36362   4.312   1.602   3.980  0.3706  0.7619  0.6389
 1011MOL0     C36363   4.439   1.516   3.984  0.8389  0.3575  0.3959
 1011MOL0     C36364   4.558   1.612   4.000 -0.4598  0.3462  0.0060
 1011MOL0     C36365   4.699   1.531   3.992  0.5168 -0.4982 -0.3810
 1011MOL0     C36366   4.818   1.625   4.043 -0.5117  0.5189 -0.4028
 1011MOL0     N36367   4.858   1.706   3.932  0.3493  0.3018  0.2425
 1011MOL0     C36368   4.790   1.819   3.894  0.1584 -0.2327  0.2746
 1011MOL0     C36369   4.856   1.854   3.778  0.2779 -0.5188  0.0799
 1011MOL0     C36370   4.847   1.977   3.685  0.2555 -0.3383 -1.0133
 1011MOL0     C36371   4.814   1.938   3.542  0.1738 -0.2939 -0.7402
 1011MOL0     C36372   4.914   2.000   3.442 -0.1911  0.0746  0.0165
 1011MOL0     C36373   4.924   2.146   3.417 -0.7857  0.0726 -0.9941
 1011MOL0     O36374   4.795   2.193   3.382 -0.2903 -0.2591 -0.3391
 1011MOL0     C36375   4.804   2.326   3.353  0.2127 -0.1093 -0.4255
 1011MOL0     C36376   4.774   2.352   3.222  0.3282  0.3590  1.5144
 1011MOL0     C36377   4.759   2.486   3.169 -0.1311 -0.5960 -0.3419
 1011MOL0     C36378   4.779   2.592   3.255  0.4089 -0.5549 -0.0438
 1011MOL0     C36379   4.752   2.726   3.193  0.4568  1.0045  0.0628
 1011MOL0     O36380   4.678   2.732   3.073 -0.0332  0.1646  0.1190
 1011MOL0     C36381   4.687   2.843   2.998  0.2891  0.3554 -0.1908
 1011MOL0     C36382   4.760   2.833   2.886  0.2434  0.4722  0.3371
 1011MOL0     C36383   4.744   2.941   2.790  0.2398 -1.1464 -0.6176
 1011MOL0     C36384   4.661   3.054   2.826 -0.5385 -0.4090  0.0293
 1011MOL0     O36385   4.638   3.155   2.732 -0.2200  0.8432 -0.4933
 1011MOL0     C36386   4.723   3.174   2.620  0.0397 -0.2316 -0.4822
 1011MOL0     C36387   4.706   3.312   2.567  0.1976 -0.6541  0.4351
 1011MOL0     C36388   4.575   3.348   2.511 -0.4266  0.1970 -0.7406
 1011MOL0     C36389   4.519   3.482   2.554 -0.9704  1.0584 -0.5438
 1011MOL0     C36390   4.384   3.502   2.489  0.0836  0.2649 -0.1820
 1011MOL0     C36391   4.332   3.648   2.493 -0.1389 -0.3370 -0.3671
 1011MOL0     C36392   4.198   3.654   2.419 -0.0248 -0.3829 -0.1139
 1011MOL0     C36393   4.205   3.644   2.262 -0.4946  0.1760 -1.1171
 1011MOL0    Cl36394   4.297   3.770   2.185 -0.2177 -0.5498  0.5622
 1011MOL0     C36395   4.589   3.055   2.949  0.5168 -0.7946 -0.0305
 1011MOL0     C36396   4.602   2.949   3.037 -0.3463  0.8727  0.8877
 1011MOL0     O36397   4.805   2.822   3.245 -0.8096  0.7687  0.4438
 1011MOL0     C36398   4.817   2.566   3.394  0.4044  0.0910 -0.1737
 1011MOL0     C36399   4.817   2.435   3.442  0.1904  0.1447  0.1708
 1011MOL0     N36400   4.951   1.759   3.750 -0.2780 -0.4223 -0.3951
 1011MOL0     N36401   4.959   1.669   3.840 -0.4412 -0.9439 -0.4058
 1011MOL0     C36402   4.008   1.906   4.247 -0.3510 -0.0628  1.0203
 1011MOL0     C36403   3.982   2.026   4.315 -0.7546 -0.4393 -0.1685
 1011MOL0     C36404   3.880   2.478   4.340  0.2289 -0.7458  0.6030
 1011MOL0     C36405   3.982   2.570   4.310 -0.3403  0.6238  0.4435
 1011MOL0     C36406   3.974   2.710   4.350  0.2554  0.1442  0.0211
 1011MOL0     C36407   3.852   2.760   4.403  0.7217 -0.4440 -0.6929
 1011MOL0     O36408   3.843   2.899   4.437 -0.7341  0.1315  0.5234
 1011MOL0     C36409   3.710   2.947   4.465 -0.5730  0.4369 -0.1435
 1011MOL0     C36410   3.702   3.101   4.480 -0.1083  0.8641  0.5581
 1011MOL0     C36411   3.779   3.154   4.597 -0.3076  0.0969  0.8685
 1011MOL0     C36412   3.770   3.306   4.589  0.2120 -0.4329  0.0041
 1011MOL0     C36413   3.834   3.354   4.714 -0.1045  0.5834 -0.0535
 1011MOL0     C36414   3.888   3.393   4.815  0.5750 -0.1030  0.1413
 1011MOL0     C36415   3.752   2.663   4.433 -0.4594 -0.3563  0.2005
 1011MOL0     C36416   3.770   2.525   4.409  0.8377 -0.4197 -0.1277
 1011MOL0     C36417   3.643   2.437   4.439  0.2079 -0.4082 -0.1128
 1011MOL0     H36418   4.122   2.244   4.099 -4.1979  2.1090  1.1466
 1011MOL0     H36419   4.129   2.033   3.953  0.5381  1.1513  0.6280
 1011MOL0     H36420   3.986   1.632   4.097 -1.2800 -3.3084 -1.8937
 1011MOL0     H36421   3.916   1.730   3.973  0.3472  0.6580  0.5718
 1011MOL0     H36422   4.098   1.671   3.815  3.7272  0.2647  3.0025
 1011MOL0     H36423   3.983   1.536   3.862  2.0788 -1.0219 -3.0091
 1011MOL0     H36424   4.209   1.466   3.847 -3.0258  0.6456 -0.7813
 1011MOL0     H36425   4.155   1.459   4.026  0.8961 -1.3144  0.0325
 1011MOL0     H36426   4.332   1.682   3.908  0.4936  1.4314  1.3963
 1011MOL0     H36427   4.315   1.655   4.075  0.4631 -2.0201  2.2898
 1011MOL0     H36428   4.433   1.442   4.065 -1.9704 -0.1722 -0.1823
 1011MOL0     H36429   4.464   1.462   3.892  0.4103  0.7748  0.0297
 1011MOL0     H36430   4.560   1.683   3.917  0.8868 -2.4810 -2.5659
 1011MOL0     H36431   4.545   1.675   4.089 -0.3076  2.4158 -1.3578
 1011MOL0     H36432   4.725   1.486   3.896  1.7372 -1.0500  0.1965
 1011MOL0     H36433   4.695   1.448   4.063  3.1942 -0.4575 -0.0854
 1011MOL0     H36434   4.777   1.689   4.121  1.0768 -1.1120  1.8876
 1011MOL0     H36435   4.898   1.561   4.080  0.9027  1.6180 -1.4680
 1011MOL0     H36436   4.718   1.887   3.939  0.4438  0.8750 -0.8767
 1011MOL0     H36437   4.780   2.044   3.740  1.8674 -1.5165  2.6586
 1011MOL0     H36438   4.947   2.020   3.696 -1.1952  2.9851  0.5733
 1011MOL0     H36439   4.812   1.831   3.519 -2.5900 -1.3622  3.3589
 1011MOL0     H36440   4.714   1.979   3.525  0.9788  1.1765 -2.1856
 1011MOL0     H36441   4.899   1.946   3.347  1.7064 -2.6234  1.1121
 1011MOL0     H36442   5.011   1.970   3.484 -1.3959 -2.2871  1.3016
 1011MOL0     H36443   5.015   2.168   3.359  3.1652 -3.3935  3.1398
 1011MOL0     H36444   4.938   2.199   3.511 -0.4103  0.2848 -1.1656
 1011MOL0     H36445   4.773   2.273   3.148  4.0405  1.7352 -0.2474
 1011MOL0     H36446   4.739   2.506   3.064  2.1734 -1.1847 -0.9673
 1011MOL0     H36447   4.815   2.742   2.863 -1.2409  0.5336 -4.5369
 1011MOL0     H36448   4.796   2.932   2.696  0.1032  1.0033 -0.9406
 1011MOL0     H36449   4.824   3.152   2.655 -0.3933 -0.9001  0.3941
 1011MOL0     H36450   4.702   3.093   2.549  0.0817 -2.7996  2.2290
 1011MOL0     H36451   4.730   3.390   2.640 -6.0013  0.2119  2.0701
 1011MOL0     H36452   4.777   3.325   2.484 -1.3571  1.5110 -0.6361
 1011MOL0     H36453   4.589   3.359   2.403 -0.7321 -3.4079 -1.2663
 1011MOL0     H36454   4.498   3.271   2.520 -0.6162  0.6370  2.8336
 1011MOL0     H36455   4.592   3.560   2.530  1.2435 -0.5566  0.5190
 1011MOL0     H36456   4.517   3.494   2.663  1.8860  1.1760 -0.4307
 1011MOL0     H36457   4.308   3.451   2.550 -0.1004  2.0781  1.2121
 1011MOL0     H36458   4.388   3.453   2.391 -1.0786 -0.1314 -0.0578
 1011MOL0     H36459   4.319   3.682   2.596  0.9308 -0.9154 -0.0226
 1011MOL0     H36460   4.400   3.718   2.444 -0.8026  0.1867 -0.5433
 1011MOL0     H36461   4.161   3.754   2.444  1.0099 -0.2664  1.0820
 1011MOL0     H36462   4.124   3.587   2.462  0.4208  0.9819  3.1278
 1011MOL0     H36463   4.248   3.545   2.242 -1.8607 -1.9793  4.7202
 1011MOL0     H36464   4.104   3.665   2.227 -0.0826  2.1610 -1.2064
 1011MOL0     H36465   4.534   3.146   2.974  2.9094  1.1969 -1.5841
 1011MOL0     H36466   4.557   2.946   3.136  0.7955 -2.1276  1.4441
 1011MOL0     H36467   4.840   2.650   3.460  1.5864 -0.3247 -0.0382
 1011MOL0     H36468   4.848   2.396   3.538  0.4592  0.3138  0.1535
 1011MOL0     H36469   3.975   1.812   4.288  0.6152 -0.9456 -0.1297
 1011MOL0     H36470   3.948   2.020   4.418  2.0098 -1.0674  0.7849
 1011MOL0     H36471   4.072   2.543   4.256  0.5960  1.5900  1.4761
 1011MOL0     H36472   4.047   2.786   4.325  1.8630 -0.0084  3.6040
 1011MOL0     H36473   3.689   2.918   4.568  2.2754 -1.2163  0.0680
 1011MOL0     H36474   3.636   2.899   4.399 -1.8317 -0.3840  1.7702
 1011MOL0     H36475   3.596   3.123   4.494  0.3501  1.9491  2.7182
 1011MOL0     H36476   3.747   3.147   4.391  0.7339  0.3432  0.6945
 1011MOL0     H36477   3.881   3.117   4.610 -0.9517 -0.8646  3.9926
 1011MOL0     H36478   3.728   3.103   4.679  2.2003 -1.4164  1.5964
 1011MOL0     H36479   3.830   3.332   4.502  0.4322 -0.4883  0.1397
 1011MOL0     H36480   3.667   3.344   4.584  0.5998  1.3597  3.1937
 1011MOL0     H36481   3.946   3.424   4.899  0.4051  0.0879  0.1904
 1011MOL0     H36482   3.657   2.702   4.469  0.7340  3.5580 -0.3864
 1011MOL0     H36483   3.582   2.420   4.350 -0.3196 -0.5215  0.2690
 1011MOL0     H36484   3.678   2.340   4.475  1.6864  0.9553  2.4545
 1011MOL0     H36485   3.583   2.484   4.517  1.6999 -0.0158  0.8351
 1012MOL0     O36486  10.420   3.417   2.795  1.0069 -0.0599 -0.4510
 1012MOL0     C36487  10.413   3.349   2.898  0.1936  0.2503  0.3765
 1012MOL0     O36488  10.300   3.285   2.945 -0.1847  0.0632  0.1772
 1012MOL0     C36489  10.188   3.254   2.871 -0.1675 -0.0845  0.3333
 1012MOL0     C36490  10.119   3.144   2.929 -0.6939 -0.6628 -0.8911
 1012MOL0     C36491  10.021   3.076   2.858 -0.7660 -0.0353 -0.1160
 1012MOL0     C36492   9.986   3.124   2.728 -0.0281 -0.1851  0.3511
 1012MOL0     O36493   9.894   3.064   2.654 -0.0845 -0.3180 -1.0913
 1012MOL0     C36494   9.756   3.107   2.683  0.3307  0.2611  0.2028
 1012MOL0     C36495   9.703   3.214   2.588 -0.4028 -0.4242  0.3465
 1012MOL0     C36496   9.555   3.212   2.580 -0.2266  0.2529 -0.5900
 1012MOL0     C36497   9.498   3.276   2.450 -0.3766  0.4171 -0.7133
 1012MOL0     C36498   9.344   3.308   2.460  0.2450  0.5163 -0.8263
 1012MOL0     C36499   9.257   3.188   2.505  0.1185  0.1448 -1.0248
 1012MOL0     C36500   9.275   3.061   2.411  0.7222 -0.2665 -0.4216
 1012MOL0     C36501   9.166   3.048   2.305  0.1504  0.3579 -1.2655
 1012MOL0     N36502   9.163   3.160   2.213  0.9648  0.0994  0.2786
 1012MOL0     C36503   9.255   3.182   2.118  0.3101 -0.3288 -0.2882
 1012MOL0     C36504   9.233   3.310   2.071  0.0727  0.0779 -0.8496
 1012MOL0     C36505   9.322   3.386   1.980 -0.1871 -0.5093 -0.2429
 1012MOL0     C36506   9.422   3.466   2.058  0.4124  0.5686 -0.3792
 1012MOL0     C36507   9.538   3.518   1.976 -0.3385  0.2908  0.1478
 1012MOL0     C36508   9.653   3.597   2.050  0.4472 -0.1431 -0.2821
 1012MOL0     O36509   9.725   3.505   2.132  1.2529 -0.6059  0.2203
 1012MOL0     C36510   9.812   3.417   2.068 -0.0551  0.2493 -0.0532
 1012MOL0     C36511   9.843   3.304   2.136 -0.6141  0.6794 -1.0897
 1012MOL0     C36512   9.938   3.215   2.088  0.3430 -0.0797 -0.4509
 1012MOL0     C36513  10.011   3.236   1.971  0.0267 -0.1520  0.9689
 1012MOL0     C36514  10.115   3.149   1.924 -0.1785 -0.5637 -0.6104
 1012MOL0     O36515  10.125   3.024   1.985 -0.5639  0.1339 -0.5940
 1012MOL0     C36516  10.213   2.938   1.922  0.8095  0.0918  0.3611
 1012MOL0     C36517  10.330   2.899   1.982  0.7523 -0.1193 -0.2508
 1012MOL0     C36518  10.410   2.803   1.924  0.4585 -0.2197 -0.4347
 1012MOL0     C36519  10.371   2.736   1.805  0.4251 -0.1254 -0.2550
 1012MOL0     O36520  10.447   2.632   1.759  0.6809 -0.2599 -0.3555
 1012MOL0     C36521  10.410   2.558   1.646  0.2746  1.1650  0.4473
 1012MOL0     C36522  10.511   2.449   1.613 -0.8044 -0.4980 -0.5136
 1012MOL0     C36523  10.637   2.498   1.540 -0.2157 -0.3131  0.6052
 1012MOL0     C36524  10.739   2.381   1.512  0.4715 -0.2744  0.2880
 1012MOL0     C36525  10.877   2.428   1.481  0.1742  0.0926  0.3688
 1012MOL0     C36526  10.979   2.319   1.461  0.8186  0.6417 -0.0515
 1012MOL0     C36527  11.120   2.363   1.516  0.3133  0.1080 -0.0682
 1012MOL0     C36528  11.224   2.255   1.474 -0.0602  0.0765 -1.3283
 1012MOL0    Cl36529  11.173   2.097   1.541  0.1963  0.2654  0.0788
 1012MOL0     C36530  10.261   2.780   1.742  0.4686 -0.1331 -0.7727
 1012MOL0     C36531  10.188   2.882   1.792  0.2600 -0.4499 -0.4410
 1012MOL0     O36532  10.194   3.193   1.844  0.2530  0.0010  0.5994
 1012MOL0     C36533   9.976   3.352   1.900  0.8106 -0.7669 -0.5416
 1012MOL0     C36534   9.870   3.434   1.938 -0.2749 -0.0568 -0.4014
 1012MOL0     N36535   9.116   3.359   2.137 -0.3952 -0.4569 -0.5616
 1012MOL0     N36536   9.077   3.265   2.221  0.2809  0.3918  0.2997
 1012MOL0     C36537  10.041   3.236   2.674  0.6291  0.2109 -0.4972
 1012MOL0     C36538  10.143   3.303   2.745  0.5699  0.8967 -0.3144
 1012MOL0     C36539  10.541   3.332   2.957  0.0093 -0.1842 -0.2786
 1012MOL0     C36540  10.592   3.192   2.969  0.0145 -0.0053  0.3903
 1012MOL0     C36541  10.711   3.174   3.031  0.9008 -0.7628  0.1274
 1012MOL0     C36542  10.799   3.282   3.071 -0.2544 -0.7394 -0.2615
 1012MOL0     O36543  10.926   3.258   3.112 -0.6405  0.3042  0.2261
 1012MOL0     C36544  10.960   3.143   3.185 -0.4277  1.0812 -1.3564
 1012MOL0     C36545  11.040   3.189   3.313  0.5681  0.5220  0.4979
 1012MOL0     C36546  11.175   3.248   3.284 -0.0392  0.1700  0.5978
 1012MOL0     C36547  11.278   3.263   3.406 -0.2535  0.0352 -0.0923
 1012MOL0     C36548  11.242   3.364   3.493  0.5171  0.0126 -0.3213
 1012MOL0     C36549  11.226   3.454   3.571  0.2842 -0.3617 -0.3153
 1012MOL0     C36550  10.755   3.419   3.051  0.4450  1.1714  0.3456
 1012MOL0     C36551  10.621   3.445   2.997 -0.3189  0.5152 -0.0893
 1012MOL0     C36552  10.581   3.593   2.974 -0.0668 -0.4502 -0.0632
 1012MOL0     H36553  10.148   3.118   3.030 -2.2693  0.6149 -0.0675
 1012MOL0     H36554   9.973   2.986   2.896  3.4702 -2.8824 -0.7767
 1012MOL0     H36555   9.686   3.026   2.661 -2.4985  2.9200 -1.2389
 1012MOL0     H36556   9.741   3.134   2.788 -0.5884  2.2937 -0.4006
 1012MOL0     H36557   9.751   3.193   2.492  2.8014  2.2462  1.1525
 1012MOL0     H36558   9.738   3.313   2.620 -0.4605 -1.1235  2.7707
 1012MOL0     H36559   9.517   3.269   2.666  1.5528 -0.3483  0.6596
 1012MOL0     H36560   9.514   3.111   2.585 -1.2978  0.5682 -2.1715
 1012MOL0     H36561   9.559   3.362   2.421  0.8538 -0.7336 -1.6774
 1012MOL0     H36562   9.520   3.199   2.376  0.8275  0.8911 -0.8666
 1012MOL0     H36563   9.331   3.392   2.528 -0.1432 -0.9424  0.9822
 1012MOL0     H36564   9.307   3.345   2.364  1.3403  1.3003 -0.9591
 1012MOL0     H36565   9.268   3.156   2.609  1.7170  2.3168 -0.4596
 1012MOL0     H36566   9.150   3.211   2.501  0.1597  0.9886  1.1283
 1012MOL0     H36567   9.252   2.977   2.478 -1.4186  2.4167  2.5409
 1012MOL0     H36568   9.375   3.043   2.369  1.0971 -1.1168  0.7752
 1012MOL0     H36569   9.182   2.953   2.252 -1.5005 -1.5555  1.4327
 1012MOL0     H36570   9.070   3.051   2.357  0.9781  1.3474  0.2715
 1012MOL0     H36571   9.335   3.118   2.082 -1.4988 -1.6972 -2.1041
 1012MOL0     H36572   9.380   3.316   1.921 -2.0323  0.2216 -3.1119
 1012MOL0     H36573   9.265   3.462   1.927  0.0557 -1.6569 -2.2216
 1012MOL0     H36574   9.362   3.546   2.101  0.2250  0.6774 -0.8365
 1012MOL0     H36575   9.453   3.402   2.141  0.1310  1.2049  0.2230
 1012MOL0     H36576   9.490   3.577   1.897 -2.1661 -1.2835  0.0021
 1012MOL0     H36577   9.587   3.432   1.929  0.0403 -0.9620  2.6806
 1012MOL0     H36578   9.600   3.674   2.106  0.0388 -0.5669 -0.0838
 1012MOL0     H36579   9.723   3.649   1.983 -1.0116 -0.3390 -2.0461
 1012MOL0     H36580   9.804   3.278   2.234 -0.7909  3.7033 -0.2631
 1012MOL0     H36581   9.944   3.121   2.143 -1.3752 -0.2417 -0.4769
 1012MOL0     H36582  10.357   2.948   2.075 -0.4107  1.1389 -0.5455
 1012MOL0     H36583  10.507   2.777   1.966 -0.8844  1.1959  4.1693
 1012MOL0     H36584  10.317   2.503   1.663  0.7452  0.5726  1.1190
 1012MOL0     H36585  10.413   2.625   1.560 -1.5762  0.7480  0.0082
 1012MOL0     H36586  10.535   2.392   1.703  0.7298 -0.4605 -0.8564
 1012MOL0     H36587  10.461   2.376   1.549 -0.5404 -0.3341 -0.9150
 1012MOL0     H36588  10.603   2.543   1.447  1.1945 -0.9632 -0.2680
 1012MOL0     H36589  10.693   2.576   1.592  0.7056 -2.2431  2.6841
 1012MOL0     H36590  10.705   2.324   1.425  1.2723  1.2574 -1.0838
 1012MOL0     H36591  10.745   2.310   1.595 -2.3524 -2.1602 -0.9495
 1012MOL0     H36592  10.909   2.477   1.573 -5.9566  1.5254  2.1630
 1012MOL0     H36593  10.878   2.498   1.397 -3.2955  2.4130  2.0403
 1012MOL0     H36594  10.954   2.230   1.519 -0.8330  1.5844  0.7522
 1012MOL0     H36595  10.988   2.302   1.354  1.8329  0.0143  0.1203
 1012MOL0     H36596  11.121   2.388   1.622  0.0961  0.4146 -0.1374
 1012MOL0     H36597  11.146   2.452   1.458  0.8248 -0.3073 -0.4950
 1012MOL0     H36598  11.221   2.240   1.366  2.2720 -0.4431 -1.3708
 1012MOL0     H36599  11.321   2.279   1.518 -0.6847  2.2035 -1.0175
 1012MOL0     H36600  10.223   2.746   1.646 -1.2189  0.5857 -0.3980
 1012MOL0     H36601  10.090   2.910   1.755 -1.8115 -2.8022  2.7155
 1012MOL0     H36602  10.010   3.364   1.798  0.4483 -0.2756 -0.6063
 1012MOL0     H36603   9.851   3.525   1.883 -2.0935 -0.8933 -1.2461
 1012MOL0     H36604  10.020   3.275   2.574 -1.5228  4.2318  1.2998
 1012MOL0     H36605  10.200   3.390   2.715 -0.3330  1.3064 -0.8596
 1012MOL0     H36606  10.541   3.105   2.929  0.0325 -1.1928  2.7216
 1012MOL0     H36607  10.751   3.073   3.037  1.0262 -0.6352  2.2200
 1012MOL0     H36608  11.023   3.081   3.121  1.1760 -0.3789  1.4449
 1012MOL0     H36609  10.871   3.090   3.221  1.3992 -1.3340 -0.1280
 1012MOL0     H36610  11.057   3.108   3.384 -2.2421 -0.8117 -0.2150
 1012MOL0     H36611  10.981   3.267   3.363 -1.4433 -0.2090 -0.5960
 1012MOL0     H36612  11.169   3.342   3.228 -0.7240 -0.1133  0.1798
 1012MOL0     H36613  11.217   3.179   3.210 -5.2122 -2.0127 -0.7150
 1012MOL0     H36614  11.284   3.169   3.462 -1.6630  0.4816  0.8683
 1012MOL0     H36615  11.377   3.280   3.363 -1.1801  0.7591 -2.1269
 1012MOL0     H36616  11.200   3.546   3.618 -2.9254 -0.1039 -2.3166
 1012MOL0     H36617  10.826   3.485   3.099  0.3781  0.4069  1.5248
 1012MOL0     H36618  10.502   3.622   3.044 -0.0860  1.0482 -0.6753
 1012MOL0     H36619  10.671   3.653   2.985  0.1909 -0.8552  0.0795
 1012MOL0     H36620  10.554   3.599   2.868 -0.1832 -1.0618 -0.0717
 1013MOL0     O36621   7.206   3.848   4.385 -0.0087 -0.2403 -0.2473
 1013MOL0     C36622   7.100   3.823   4.447 -0.7762  0.0030  1.0272
 1013MOL0     O36623   7.093   3.739   4.547  0.6591 -0.4236 -0.3818
 1013MOL0     C36624   7.205   3.686   4.601 -1.0843  0.4995 -0.6965
 1013MOL0     C36625   7.230   3.549   4.588 -0.2727 -0.0721 -0.7657
 1013MOL0     C36626   7.336   3.494   4.670 -0.0886 -0.5671 -0.2134
 1013MOL0     C36627   7.418   3.576   4.752  0.2891  0.2904  0.4669
 1013MOL0     O36628   7.504   3.512   4.839  0.3072  0.1170  1.3310
 1013MOL0     C36629   7.640   3.553   4.811 -0.3665 -0.6497 -0.6124
 1013MOL0     C36630   7.726   3.427   4.780  0.2321  0.5165  0.3211
 1013MOL0     C36631   7.809   3.364   4.898 -0.0959  0.4406 -0.9187
 1013MOL0     C36632   7.906   3.468   4.960 -0.0509  0.6571 -0.1456
 1013MOL0     C36633   8.020   3.384   5.026  0.7158 -0.2776  0.8833
 1013MOL0     C36634   8.136   3.476   5.087  0.0283  0.1948 -0.0618
 1013MOL0     C36635   8.261   3.467   5.002  0.0949  0.0745 -0.5150
 1013MOL0     C36636   8.376   3.548   5.057 -0.2970 -0.3284  0.7256
 1013MOL0     N36637   8.499   3.527   4.971  0.3547 -0.4007  0.4170
 1013MOL0     C36638   8.619   3.578   5.006  0.2977  0.2348 -0.1629
 1013MOL0     C36639   8.711   3.511   4.938  0.6328 -0.3753  0.0177
 1013MOL0     C36640   8.860   3.524   4.941 -0.7783  0.1482  0.3400
 1013MOL0     C36641   8.913   3.655   4.982 -0.8435  0.5655 -0.1467
 1013MOL0     C36642   8.875   3.775   4.890  0.6601  0.5974  0.3041
 1013MOL0     C36643   8.985   3.880   4.919 -0.5310  0.4827 -0.4776
 1013MOL0     O36644   8.941   4.007   4.876 -0.1903 -0.5913 -0.1152
 1013MOL0     C36645   9.012   4.117   4.894  0.2775 -0.5081  0.9153
 1013MOL0     C36646   8.942   4.235   4.857 -0.0479 -0.1201  0.1000
 1013MOL0     C36647   9.009   4.362   4.872  0.4866 -0.9404  0.8074
 1013MOL0     C36648   9.143   4.365   4.913 -0.2534 -0.3183 -0.1324
 1013MOL0     C36649   9.223   4.497   4.909  0.8532 -1.1152 -0.6394
 1013MOL0     O36650   9.158   4.608   4.868  0.2974 -0.4647  0.1576
 1013MOL0     C36651   9.233   4.721   4.848 -0.7505  0.4580 -0.5686
 1013MOL0     C36652   9.293   4.745   4.729 -0.9428 -0.8249 -0.1931
 1013MOL0     C36653   9.391   4.840   4.722  0.1547  0.1173 -0.9420
 1013MOL0     C36654   9.430   4.912   4.829 -0.5554 -1.1372 -0.5079
 1013MOL0     O36655   9.532   5.005   4.842 -0.3286 -0.1480  0.5018
 1013MOL0     C36656   9.629   5.006   4.736  0.6868  0.6678 -0.2482
 1013MOL0     C36657   9.698   5.136   4.725  0.8394 -0.0956  0.3542
 1013MOL0     C36658   9.735   5.155   4.574 -0.6949 -0.1772  1.1245
 1013MOL0     C36659   9.826   5.056   4.518 -0.7344  0.8366  0.2583
 1013MOL0     C36660   9.940   5.018   4.608 -0.1677 -0.4318 -0.0941
 1013MOL0     C36661  10.039   5.141   4.641  0.4751  0.1480  0.6846
 1013MOL0     C36662  10.169   5.116   4.716 -0.2000 -0.1703 -0.3985
 1013MOL0     C36663  10.295   5.150   4.638  0.3805  0.4828 -0.6346
 1013MOL0    Cl36664  10.341   5.034   4.513 -0.0842  0.0986 -0.6560
 1013MOL0     C36665   9.369   4.890   4.952 -0.4419 -0.4336 -0.8549
 1013MOL0     C36666   9.272   4.792   4.963  0.3233  0.4613  0.0780
 1013MOL0     O36667   9.344   4.482   4.926 -0.2113 -0.8250  0.7155
 1013MOL0     C36668   9.202   4.249   4.953 -0.8045  0.2183  0.5584
 1013MOL0     C36669   9.142   4.126   4.941  0.2258 -0.6012  1.0040
 1013MOL0     N36670   8.643   3.423   4.853 -0.2026  0.1236  0.2321
 1013MOL0     N36671   8.516   3.435   4.869 -0.0479  0.2298  0.9535
 1013MOL0     C36672   7.385   3.723   4.757  0.4243  0.4822 -0.3864
 1013MOL0     C36673   7.281   3.767   4.684  0.0267  0.2288  0.8361
 1013MOL0     C36674   6.972   3.883   4.396 -0.3754  0.3529 -0.2571
 1013MOL0     C36675   6.897   3.804   4.310  0.1091  0.7239 -0.2823
 1013MOL0     C36676   6.769   3.841   4.271  0.2338  0.0331  0.0908
 1013MOL0     C36677   6.718   3.964   4.311 -0.2076 -0.0231 -0.2236
 1013MOL0     O36678   6.601   3.983   4.259 -0.2567  0.2348 -0.2563
 1013MOL0     C36679   6.524   4.097   4.296  0.3410 -0.2559  0.0188
 1013MOL0     C36680   6.412   4.103   4.197  0.0103  0.7351 -0.2508
 1013MOL0     C36681   6.292   4.014   4.251  0.0902  0.2380  0.8100
 1013MOL0     C36682   6.229   4.054   4.390 -0.0165  0.6935  0.1915
 1013MOL0     C36683   6.130   3.950   4.430  0.1650 -0.3026 -0.3169
 1013MOL0     C36684   6.043   3.875   4.455  0.4397 -0.0683 -0.5278
 1013MOL0     C36685   6.787   4.039   4.403 -0.3085 -0.0355  0.3152
 1013MOL0     C36686   6.918   4.003   4.451 -0.5315  0.2984 -0.4898
 1013MOL0     C36687   6.988   4.083   4.545  1.3051  0.5917  0.7073
 1013MOL0     H36688   7.158   3.486   4.537 -1.5603 -2.7889  3.8249
 1013MOL0     H36689   7.344   3.386   4.680  3.7541 -0.4318 -0.2641
 1013MOL0     H36690   7.664   3.623   4.731  2.1990 -2.0286 -1.1811
 1013MOL0     H36691   7.684   3.602   4.898 -0.6432  1.2759 -1.5102
 1013MOL0     H36692   7.783   3.449   4.689 -1.2913  0.3471 -0.7188
 1013MOL0     H36693   7.670   3.342   4.740  0.3648  0.5957 -0.0427
 1013MOL0     H36694   7.867   3.286   4.849  2.3969  1.0698  0.8272
 1013MOL0     H36695   7.739   3.324   4.973  2.2299 -2.1233  0.0952
 1013MOL0     H36696   7.943   3.536   4.883 -4.2310  2.1230 -1.0783
 1013MOL0     H36697   7.858   3.528   5.037 -2.9539 -1.1443 -0.3847
 1013MOL0     H36698   7.990   3.314   5.104  0.5115 -0.9869  0.1857
 1013MOL0     H36699   8.057   3.323   4.943  2.3789  1.4423  0.2942
 1013MOL0     H36700   8.104   3.580   5.100 -1.7904 -0.3402  0.0160
 1013MOL0     H36701   8.166   3.436   5.184  1.3357 -0.7008 -0.8060
 1013MOL0     H36702   8.230   3.516   4.909 -0.3237  2.6748  0.8820
 1013MOL0     H36703   8.284   3.361   4.997 -0.4686 -0.1560  1.1014
 1013MOL0     H36704   8.341   3.651   5.049 -0.3359 -0.5051 -2.8765
 1013MOL0     H36705   8.388   3.518   5.161 -3.2106 -0.9860  0.9381
 1013MOL0     H36706   8.640   3.666   5.065 -2.1716  1.7326 -1.3354
 1013MOL0     H36707   8.892   3.458   5.022  0.0322 -0.9879 -0.8684
 1013MOL0     H36708   8.907   3.487   4.850  0.1949  2.2942 -0.0876
 1013MOL0     H36709   8.888   3.673   5.087  1.6487  0.6311  0.4858
 1013MOL0     H36710   9.022   3.651   4.981 -0.8836 -1.7661 -1.7809
 1013MOL0     H36711   8.771   3.805   4.906  0.4518  1.0274 -1.6406
 1013MOL0     H36712   8.873   3.753   4.783 -1.9038 -1.4775  0.6680
 1013MOL0     H36713   9.083   3.855   4.877 -0.4754 -0.0665 -0.0374
 1013MOL0     H36714   9.006   3.882   5.027  1.3692 -1.0594 -0.7644
 1013MOL0     H36715   8.846   4.220   4.810 -0.5502  1.5134  0.5190
 1013MOL0     H36716   8.959   4.455   4.844  3.3106  1.4818  3.1549
 1013MOL0     H36717   9.263   4.691   4.640  0.8602  1.5845 -2.4430
 1013MOL0     H36718   9.431   4.838   4.621 -1.1904 -0.6314 -1.4967
 1013MOL0     H36719   9.699   4.923   4.745  0.0518  0.2661  1.2974
 1013MOL0     H36720   9.569   4.992   4.645 -0.3713 -1.7028  0.7308
 1013MOL0     H36721   9.640   5.226   4.748  5.4622  3.5131 -0.4654
 1013MOL0     H36722   9.776   5.142   4.801 -0.0448  1.2889  1.1911
 1013MOL0     H36723   9.647   5.166   4.509 -1.5956  0.4968  2.3947
 1013MOL0     H36724   9.781   5.254   4.577 -0.4837 -0.2106 -0.4102
 1013MOL0     H36725   9.863   5.092   4.422  3.3254  1.8064  1.9894
 1013MOL0     H36726   9.763   4.967   4.506  0.7297 -0.0541 -1.1513
 1013MOL0     H36727   9.992   4.937   4.557 -2.5945 -1.0632 -1.7477
 1013MOL0     H36728   9.902   4.984   4.705 -0.5841 -0.0279 -0.1085
 1013MOL0     H36729  10.052   5.194   4.546 -0.8998 -1.0252 -0.2090
 1013MOL0     H36730   9.974   5.207   4.699  0.4067  0.8972 -0.2188
 1013MOL0     H36731  10.177   5.015   4.758 -0.6764  0.1240  0.4305
 1013MOL0     H36732  10.164   5.169   4.812 -2.8116 -0.5883 -0.2439
 1013MOL0     H36733  10.274   5.248   4.594  1.4789 -0.0080 -2.3862
 1013MOL0     H36734  10.377   5.153   4.710 -1.0430 -0.2340  1.1035
 1013MOL0     H36735   9.403   4.945   5.038  0.3375  0.1669 -1.5332
 1013MOL0     H36736   9.222   4.774   5.058 -0.9273  0.5154 -0.5585
 1013MOL0     H36737   9.305   4.250   4.987 -0.3618 -0.0739 -0.7106
 1013MOL0     H36738   9.187   4.035   4.980  0.1456 -1.6360 -1.1615
 1013MOL0     H36739   7.438   3.799   4.814 -0.6418  2.3240 -1.7582
 1013MOL0     H36740   7.253   3.871   4.683  0.3305  0.6148 -5.3959
 1013MOL0     H36741   6.923   3.712   4.259  1.2302  2.2880 -2.7124
 1013MOL0     H36742   6.704   3.784   4.206  0.1081 -2.1326  1.9963
 1013MOL0     H36743   6.594   4.175   4.266  4.7501 -3.2314  1.5090
 1013MOL0     H36744   6.501   4.105   4.403 -1.4176 -3.2464 -0.0141
 1013MOL0     H36745   6.449   4.066   4.101  1.5044  0.4495  0.4129
 1013MOL0     H36746   6.384   4.208   4.182  0.4065  0.6521 -1.7871
 1013MOL0     H36747   6.338   3.916   4.269  0.3351  0.7385  3.1213
 1013MOL0     H36748   6.208   4.013   4.180 -1.4615  0.2905  2.5725
 1013MOL0     H36749   6.317   4.053   4.456  1.5864  2.6566 -1.7802
 1013MOL0     H36750   6.169   4.145   4.390 -3.0277 -1.1317 -1.8521
 1013MOL0     H36751   5.970   3.810   4.498 -0.7298  2.1749  1.0471
 1013MOL0     H36752   6.743   4.131   4.439 -1.0742  0.0794 -0.8644
 1013MOL0     H36753   6.925   4.168   4.574  1.8910  1.4662 -0.4791
 1013MOL0     H36754   7.002   4.019   4.633 -0.5147 -1.7113 -0.5377
 1013MOL0     H36755   7.086   4.114   4.509  0.7635  1.3772 -0.1540
 1014MOL0     O36756   4.628   8.788   9.929 -0.1795  0.6160  0.2664
 1014MOL0     C36757   4.670   8.813   9.821 -0.5011 -0.7349 -0.4825
 1014MOL0     O36758   4.637   8.916   9.749  0.4490  0.0776 -0.2950
 1014MOL0     C36759   4.541   9.011   9.802  0.4762  0.1501  0.1899
 1014MOL0     C36760   4.541   9.065   9.931 -0.2773  0.2172  0.1552
 1014MOL0     C36761   4.456   9.161   9.973  0.5186  0.5945 -0.8856
 1014MOL0     C36762   4.368   9.223   9.884  0.7727 -0.6957  0.5380
 1014MOL0     O36763   4.281   9.328   9.928  0.0044  0.0136 -0.3834
 1014MOL0     C36764   4.224   9.297  10.057  0.4800 -0.9639 -0.5573
 1014MOL0     C36765   4.115   9.391  10.096  0.4509  0.6129 -0.1683
 1014MOL0     C36766   4.146   9.539  10.121 -0.2825 -0.7644 -0.0359
 1014MOL0     C36767   4.017   9.615  10.151  0.2220 -0.1011  1.0406
 1014MOL0     C36768   4.035   9.767  10.182 -1.0374 -0.4582  0.1595
 1014MOL0     C36769   4.103   9.780  10.318 -0.1995  0.0135  0.6657
 1014MOL0     C36770   4.149   9.924  10.343  1.1245  1.3637 -0.3939
 1014MOL0     C36771   4.219   9.933  10.476 -0.0180 -0.3111  0.4901
 1014MOL0     N36772   4.358   9.889  10.463 -0.4341  0.2279  0.2239
 1014MOL0     C36773   4.459   9.973  10.420  0.0199 -0.5268  0.1560
 1014MOL0     C36774   4.575   9.914  10.448 -0.9928  1.1056 -0.4627
 1014MOL0     C36775   4.712   9.979  10.421  0.0691 -0.2852  0.5897
 1014MOL0     C36776   4.816   9.876  10.422  0.5779 -0.6978  0.3914
 1014MOL0     C36777   4.952   9.932  10.385 -0.0063 -0.1275 -0.6079
 1014MOL0     C36778   5.031   9.999  10.506  0.5055  0.3564  0.3511
 1014MOL0     O36779   5.167  10.023  10.466  0.8005  0.6362 -0.2496
 1014MOL0     C36780   5.240  10.055  10.580  0.7071 -1.1897  0.5172
 1014MOL0     C36781   5.194  10.114  10.702 -0.1844  0.6337  0.4288
 1014MOL0     C36782   5.300  10.134  10.798  1.3417 -0.4043  0.0780
 1014MOL0     C36783   5.438  10.126  10.769 -0.7699  0.0412  0.0709
 1014MOL0     C36784   5.546  10.174  10.864 -0.0992  0.6206  0.4474
 1014MOL0     O36785   5.664  10.161  10.808  0.0840  0.6791  0.0029
 1014MOL0     C36786   5.785  10.177  10.876  0.0329  1.1197 -1.1212
 1014MOL0     C36787   5.807  10.171  11.024  1.2312 -0.6905  0.6992
 1014MOL0     C36788   5.935  10.219  11.078 -0.0648 -0.1279  1.0180
 1014MOL0     C36789   6.034  10.253  10.989 -0.3433  0.7234 -0.1126
 1014MOL0     O36790   6.153  10.301  11.044  0.0896 -0.0379 -0.2654
 1014MOL0     C36791   6.269  10.286  10.972 -0.2687  0.8235 -0.4296
 1014MOL0     C36792   6.389  10.278  11.063 -0.5455  0.5145  0.6900
 1014MOL0     C36793   6.381  10.155  11.154 -0.6106 -0.5432 -0.2393
 1014MOL0     C36794   6.509  10.118  11.225  0.3417  0.5509 -0.3066
 1014MOL0     C36795   6.528  10.202  11.356  0.3041 -0.0339 -0.4513
 1014MOL0     C36796   6.656  10.168  11.423 -0.1814 -1.0119  0.2520
 1014MOL0     C36797   6.682  10.241  11.549 -0.1985 -0.9185 -0.0208
 1014MOL0     C36798   6.682  10.386  11.529 -0.4065  0.8292  0.6949
 1014MOL0    Cl36799   6.834  10.429  11.447 -0.0733  0.0988 -0.2076
 1014MOL0     C36800   6.016  10.263  10.855  0.1022 -0.5929  0.5579
 1014MOL0     C36801   5.895  10.218  10.798  1.2246  0.4859  0.3202
 1014MOL0     O36802   5.527  10.211  10.977 -0.0276  0.6524 -0.1936
 1014MOL0     C36803   5.470  10.055  10.651  0.0577 -0.5922 -0.7582
 1014MOL0     C36804   5.372  10.024  10.561 -1.0474  0.4310  0.3932
 1014MOL0     N36805   4.549   9.784  10.486  0.6370  0.1181  0.7276
 1014MOL0     N36806   4.420   9.766  10.495  0.1455 -0.9133 -0.2203
 1014MOL0     C36807   4.377   9.188   9.747 -0.8558 -0.3935 -1.0418
 1014MOL0     C36808   4.457   9.074   9.712 -0.0431 -0.0178 -0.4215
 1014MOL0     C36809   4.770   8.732   9.758 -0.3176 -0.3949  0.7703
 1014MOL0     C36810   4.862   8.790   9.667 -0.3216 -0.2454 -0.3331
 1014MOL0     C36811   4.970   8.715   9.635 -0.1189  0.4607  1.0230
 1014MOL0     C36812   4.995   8.585   9.671 -0.0038  0.6098  0.6933
 1014MOL0     O36813   5.107   8.511   9.630  0.7316 -0.2366 -0.3638
 1014MOL0     C36814   5.158   8.532   9.497  1.1122  1.1072  0.3826
 1014MOL0     C36815   5.266   8.441   9.454  0.0941 -0.4101 -0.3636
 1014MOL0     C36816   5.387   8.451   9.537  0.3256 -0.6212  0.4447
 1014MOL0     C36817   5.486   8.560   9.488  0.1408 -0.5763  0.5561
 1014MOL0     C36818   5.534   8.541   9.347 -0.1245  0.8750 -0.9669
 1014MOL0     C36819   5.564   8.509   9.233 -0.0542  0.5850  0.1523
 1014MOL0     C36820   4.902   8.522   9.749  0.3082 -0.5733 -0.0016
 1014MOL0     C36821   4.790   8.594   9.797 -0.1956 -0.0622  0.7169
 1014MOL0     C36822   4.699   8.525   9.890  0.1080 -0.2337  0.1688
 1014MOL0     H36823   4.620   9.029   9.997 -0.9618  0.6211  1.2250
 1014MOL0     H36824   4.465   9.196  10.075 -2.9103 -0.8570  0.0834
 1014MOL0     H36825   4.169   9.203  10.047 -3.9568  1.3625 -0.5344
 1014MOL0     H36826   4.291   9.300  10.143  2.2909  2.2639 -1.9067
 1014MOL0     H36827   4.063   9.360  10.187 -0.5853  1.9080 -0.2960
 1014MOL0     H36828   4.034   9.391  10.023  2.1149  2.8722 -2.1692
 1014MOL0     H36829   4.183   9.580  10.026  3.8818 -2.7944  0.4956
 1014MOL0     H36830   4.219   9.547  10.202  1.1544  0.3408 -1.3759
 1014MOL0     H36831   3.937   9.598  10.078  0.4724 -0.1712  0.7823
 1014MOL0     H36832   3.977   9.563  10.238 -1.0162 -1.4436 -0.2643
 1014MOL0     H36833   4.091   9.817  10.102 -0.4151 -3.9282 -1.7524
 1014MOL0     H36834   3.938   9.817  10.181 -0.6430  0.3164  0.1873
 1014MOL0     H36835   4.042   9.738  10.398 -2.4691 -0.5928 -1.2856
 1014MOL0     H36836   4.194   9.721  10.300  0.1688  1.1936 -1.6623
 1014MOL0     H36837   4.060   9.988  10.341  1.0447  1.3636  1.5848
 1014MOL0     H36838   4.214   9.954  10.261  1.2521  0.7789 -0.5121
 1014MOL0     H36839   4.206  10.036  10.509 -1.1566  0.5840 -2.4072
 1014MOL0     H36840   4.168   9.865  10.545  1.1255 -2.4572 -0.6643
 1014MOL0     H36841   4.450  10.071  10.375 -0.6279  0.0129  1.3878
 1014MOL0     H36842   4.709  10.020  10.319  2.4086  2.3396  1.4539
 1014MOL0     H36843   4.733  10.064  10.487 -1.2325  0.1044  0.5422
 1014MOL0     H36844   4.818   9.824  10.519 -0.6254 -2.7641 -0.6234
 1014MOL0     H36845   4.783   9.807  10.344 -0.9846  1.6962 -1.1532
 1014MOL0     H36846   4.957  10.006  10.305  1.8907  0.7174  0.2125
 1014MOL0     H36847   5.013   9.848  10.352  0.8085  0.6365 -1.0818
 1014MOL0     H36848   5.041   9.927  10.588  1.2668 -1.5063 -1.2822
 1014MOL0     H36849   4.987  10.095  10.533 -0.0535  0.1075  0.3345
 1014MOL0     H36850   5.088  10.128  10.720 -0.0106 -0.2236  2.3606
 1014MOL0     H36851   5.276  10.188  10.889  0.6203  0.2449 -0.4715
 1014MOL0     H36852   5.732  10.151  11.100  1.7515 -2.8262  0.7148
 1014MOL0     H36853   5.938  10.215  11.186  0.9607 -0.5171  0.9851
 1014MOL0     H36854   6.269  10.192  10.917 -0.3269  1.2872 -1.2242
 1014MOL0     H36855   6.284  10.376  10.912  4.8739 -0.0543 -0.9294
 1014MOL0     H36856   6.479  10.264  11.001  0.4594  2.2251  1.6889
 1014MOL0     H36857   6.412  10.376  11.107  0.0038  0.1010  1.3382
 1014MOL0     H36858   6.299  10.165  11.226 -1.9528 -0.1845 -1.7732
 1014MOL0     H36859   6.355  10.069  11.092  1.8779 -3.5906  2.5142
 1014MOL0     H36860   6.594  10.140  11.161  0.2719  0.1047 -0.5509
 1014MOL0     H36861   6.502  10.011  11.246  2.3313  0.3314 -0.6428
 1014MOL0     H36862   6.441  10.169  11.414  0.0006 -0.1434 -0.9677
 1014MOL0     H36863   6.518  10.308  11.329  3.1610  0.8532  1.5666
 1014MOL0     H36864   6.661  10.061  11.446  4.3479 -1.2429 -0.9764
 1014MOL0     H36865   6.737  10.202  11.358 -2.8012  0.3783 -2.5302
 1014MOL0     H36866   6.776  10.212  11.596 -0.1182 -0.2647  0.2263
 1014MOL0     H36867   6.595  10.219  11.612 -2.3859  2.3440 -1.6362
 1014MOL0     H36868   6.597  10.425  11.472  0.3233 -0.9796 -1.8105
 1014MOL0     H36869   6.682  10.432  11.628  0.2994  1.3363  0.4683
 1014MOL0     H36870   6.089  10.303  10.785  0.9633 -3.5346 -0.3729
 1014MOL0     H36871   5.886  10.220  10.690  2.0997  3.4964  0.1929
 1014MOL0     H36872   5.572  10.029  10.623  0.3474  0.2837 -0.5709
 1014MOL0     H36873   5.384   9.965  10.471 -1.4416 -1.3739  1.4650
 1014MOL0     H36874   4.320   9.240   9.670 -1.2743 -1.8649 -1.7624
 1014MOL0     H36875   4.469   9.040   9.609 -1.3206  2.0709 -1.3257
 1014MOL0     H36876   4.853   8.891   9.627  1.0186 -0.4221 -1.1665
 1014MOL0     H36877   5.039   8.765   9.568  0.4483  0.8382  1.8824
 1014MOL0     H36878   5.190   8.636   9.487 -1.1936  1.8192 -0.2016
 1014MOL0     H36879   5.074   8.508   9.431  0.4744 -0.2739  1.6269
 1014MOL0     H36880   5.284   8.452   9.347  1.3298  1.2425 -0.0381
 1014MOL0     H36881   5.225   8.341   9.471 -1.7189  0.4228  0.3943
 1014MOL0     H36882   5.438   8.354   9.531  0.0186 -0.7250 -0.6811
 1014MOL0     H36883   5.366   8.488   9.638  3.7725  2.6138  0.1971
 1014MOL0     H36884   5.455   8.664   9.504  0.6707 -0.5376  1.3981
 1014MOL0     H36885   5.570   8.535   9.554  0.1105 -2.6770 -0.1374
 1014MOL0     H36886   5.581   8.486   9.130 -3.8131 -3.0845  0.0367
 1014MOL0     H36887   4.919   8.422   9.788  0.0794 -0.6171 -0.0116
 1014MOL0     H36888   4.731   8.555   9.990  0.6960 -2.1620  0.6019
 1014MOL0     H36889   4.595   8.546   9.864  0.9333  1.5237 -2.1284
 1014MOL0     H36890   4.715   8.417   9.886  0.5930 -0.2193  1.3066
 1015MOL0     O36891   2.517   5.063  11.341  0.0818 -0.0739  0.8197
 1015MOL0     C36892   2.634   5.061  11.376 -0.5059 -0.0389 -0.6923
 1015MOL0     O36893   2.707   4.946  11.410  0.3558  0.0555  0.7131
 1015MOL0     C36894   2.650   4.820  11.410 -0.0952 -0.0078 -0.5872
 1015MOL0     C36895   2.678   4.728  11.311 -0.7419 -0.2675  0.0809
 1015MOL0     C36896   2.631   4.601  11.318 -0.0345  0.4318 -0.4777
 1015MOL0     C36897   2.558   4.556  11.429 -0.2656  0.0140  0.7037
 1015MOL0     O36898   2.515   4.427  11.415  0.0991  0.2904 -1.0684
 1015MOL0     C36899   2.500   4.356  11.539 -0.0289  0.2247 -0.2995
 1015MOL0     C36900   2.461   4.217  11.506  0.4516 -0.1372  0.1945
 1015MOL0     C36901   2.580   4.138  11.437 -0.1292  0.2816  0.5114
 1015MOL0     C36902   2.548   3.994  11.426  0.8198 -0.1730  0.0590
 1015MOL0     C36903   2.653   3.895  11.377 -0.1160  0.5304  0.9025
 1015MOL0     C36904   2.721   3.949  11.251  0.5807 -0.7184 -0.1099
 1015MOL0     C36905   2.825   3.850  11.199 -0.0727 -0.3755  1.0508
 1015MOL0     C36906   2.916   3.917  11.101  0.2625  0.1950 -0.9777
 1015MOL0     N36907   2.978   3.804  11.020 -0.3807  0.0851  0.0229
 1015MOL0     C36908   2.914   3.703  10.949  0.2148 -0.6749  0.0913
 1015MOL0     C36909   3.014   3.620  10.904 -1.0933  0.5327  0.0357
 1015MOL0     C36910   2.997   3.501  10.815  0.4927 -0.2434 -0.3525
 1015MOL0     C36911   2.906   3.395  10.871  0.5320  0.4432 -0.2886
 1015MOL0     C36912   2.830   3.307  10.770 -0.4440 -1.0513  0.0443
 1015MOL0     C36913   2.684   3.330  10.782  0.1451  0.5247 -0.6177
 1015MOL0     O36914   2.655   3.460  10.725 -0.2110  0.0003  0.7457
 1015MOL0     C36915   2.605   3.569  10.798 -0.2756  0.6673  0.6510
 1015MOL0     C36916   2.576   3.686  10.730 -0.6040  0.8578 -0.0833
 1015MOL0     C36917   2.521   3.792  10.798  0.0506  0.7319  1.2404
 1015MOL0     C36918   2.494   3.791  10.933 -0.5488 -0.6950 -0.1005
 1015MOL0     C36919   2.426   3.903  10.995  0.6680 -0.0831 -0.8830
 1015MOL0     O36920   2.399   4.013  10.914  0.9113 -0.3127  0.1102
 1015MOL0     C36921   2.355   4.131  10.962 -0.0450 -0.6325  1.7319
 1015MOL0     C36922   2.407   4.189  11.077 -0.0825 -0.0262 -0.0699
 1015MOL0     C36923   2.370   4.317  11.110 -0.0818 -0.3854  0.6324
 1015MOL0     C36924   2.276   4.385  11.033 -0.5906  1.5840  0.4013
 1015MOL0     O36925   2.233   4.510  11.061 -0.2598  0.9244  0.3734
 1015MOL0     C36926   2.310   4.582  11.161 -0.1715 -0.8358 -0.2313
 1015MOL0     C36927   2.237   4.719  11.187  0.0331  0.7373 -0.1139
 1015MOL0     C36928   2.236   4.794  11.060  1.0199 -0.9085  0.9604
 1015MOL0     C36929   2.265   4.943  11.090  0.4198  0.2963 -0.2754
 1015MOL0     C36930   2.411   4.971  11.050  0.8333 -0.3078 -0.0228
 1015MOL0     C36931   2.435   5.126  11.067 -0.5975  0.7556  0.4912
 1015MOL0     C36932   2.413   5.199  10.932  0.8693 -0.2367  0.6578
 1015MOL0     C36933   2.403   5.351  10.939  0.9271  0.7308 -0.7377
 1015MOL0    Cl36934   2.409   5.405  10.777 -0.0824  0.1282 -0.3928
 1015MOL0     C36935   2.213   4.318  10.922 -0.7151 -0.0509 -0.1858
 1015MOL0     C36936   2.260   4.195  10.885  0.0146  0.7761  0.6705
 1015MOL0     O36937   2.392   3.895  11.112 -0.1823 -0.1083  0.2441
 1015MOL0     C36938   2.535   3.679  11.007  0.1810  0.8391 -0.0723
 1015MOL0     C36939   2.585   3.560  10.938  0.1043  0.5721  0.4723
 1015MOL0     N36940   3.130   3.660  10.970  0.1946  0.2895  0.4056
 1015MOL0     N36941   3.109   3.766  11.040 -0.3728 -0.0788  0.3421
 1015MOL0     C36942   2.544   4.647  11.528  0.0388  0.6089 -0.7254
 1015MOL0     C36943   2.579   4.776  11.519  0.4631  0.5810  0.4354
 1015MOL0     C36944   2.711   5.196  11.384  0.7318 -0.1419 -0.1857
 1015MOL0     C36945   2.849   5.185  11.410  0.3433  0.3774 -0.6836
 1015MOL0     C36946   2.928   5.295  11.425 -0.1833 -0.5240  0.2850
 1015MOL0     C36947   2.882   5.422  11.390  0.4494 -0.0235 -0.6824
 1015MOL0     O36948   2.953   5.538  11.396  0.4032 -0.0580 -0.1791
 1015MOL0     C36949   3.092   5.521  11.357 -0.6863 -0.5690 -1.2433
 1015MOL0     C36950   3.183   5.510  11.488  0.3241  0.6866  0.8620
 1015MOL0     C36951   3.192   5.643  11.566  0.0701 -0.3949  0.2372
 1015MOL0     C36952   3.286   5.740  11.499  0.3474  0.5185  0.5707
 1015MOL0     C36953   3.428   5.701  11.526 -1.2014 -0.5143 -0.0108
 1015MOL0     C36954   3.542   5.667  11.553  0.6254 -0.4394  0.3346
 1015MOL0     C36955   2.738   5.441  11.368 -0.1237 -0.3827 -0.6042
 1015MOL0     C36956   2.648   5.331  11.365 -0.3933  0.5856 -0.9478
 1015MOL0     C36957   2.499   5.354  11.347  0.4518  0.1708  0.2107
 1015MOL0     H36958   2.743   4.758  11.230  1.7371 -0.3432  1.9199
 1015MOL0     H36959   2.650   4.523  11.246  0.1388 -1.0218  1.0740
 1015MOL0     H36960   2.585   4.353  11.607  0.0115 -0.4515 -0.3749
 1015MOL0     H36961   2.409   4.392  11.587 -0.6107 -2.7228  1.0688
 1015MOL0     H36962   2.373   4.221  11.441  0.9239  4.3287 -0.4643
 1015MOL0     H36963   2.437   4.175  11.604 -1.7042  1.7516  0.5654
 1015MOL0     H36964   2.672   4.140  11.496 -0.3450 -3.1094  1.1474
 1015MOL0     H36965   2.613   4.170  11.338 -1.7669 -0.2014 -0.2084
 1015MOL0     H36966   2.514   3.952  11.522 -0.1667  2.0811  0.7596
 1015MOL0     H36967   2.471   4.002  11.349 -0.5598  4.6334  1.5598
 1015MOL0     H36968   2.720   3.870  11.460 -1.3626 -4.4339  0.7338
 1015MOL0     H36969   2.602   3.804  11.344 -2.8263 -0.0448  5.8012
 1015MOL0     H36970   2.648   3.998  11.187  2.7193  2.8063 -0.1107
 1015MOL0     H36971   2.787   4.030  11.282  1.2148 -1.4934  0.6333
 1015MOL0     H36972   2.762   3.780  11.143  0.1991  0.8802 -0.9351
 1015MOL0     H36973   2.887   3.807  11.278  2.3663 -0.2072 -0.6588
 1015MOL0     H36974   2.854   3.981  11.038 -4.6396 -1.9123  1.1985
 1015MOL0     H36975   3.000   3.962  11.153  3.9584 -3.2194 -3.3436
 1015MOL0     H36976   2.814   3.708  10.908  0.3279 -0.7213 -0.1968
 1015MOL0     H36977   2.947   3.537  10.725 -2.0089 -3.6796 -0.5453
 1015MOL0     H36978   3.089   3.447  10.792 -2.1134 -4.5157 -2.0633
 1015MOL0     H36979   2.971   3.329  10.929  0.7804  0.6362 -0.3433
 1015MOL0     H36980   2.830   3.422  10.945  0.6021  4.3226 -1.4446
 1015MOL0     H36981   2.864   3.206  10.798  1.5424 -1.1122 -2.2649
 1015MOL0     H36982   2.856   3.325  10.666  0.6548  3.0279  0.8422
 1015MOL0     H36983   2.650   3.297  10.881  1.9513 -2.1537 -0.7969
 1015MOL0     H36984   2.640   3.273  10.700  1.2000 -0.0861 -0.7797
 1015MOL0     H36985   2.590   3.699  10.623  2.1274  3.4261  0.4546
 1015MOL0     H36986   2.490   3.872  10.732  0.6662 -0.2483 -0.2898
 1015MOL0     H36987   2.482   4.137  11.136 -0.0384  0.8110  0.6211
 1015MOL0     H36988   2.422   4.365  11.192  1.5155  1.6085 -1.4225
 1015MOL0     H36989   2.316   4.527  11.256 -0.4916 -2.7620 -1.2883
 1015MOL0     H36990   2.408   4.614  11.126  0.0194 -2.6381 -1.4041
 1015MOL0     H36991   2.137   4.719  11.230  0.6246  1.8475  1.4021
 1015MOL0     H36992   2.295   4.771  11.264 -0.6467 -0.2138  1.0667
 1015MOL0     H36993   2.310   4.756  10.989 -0.5059 -2.3505  0.0597
 1015MOL0     H36994   2.144   4.789  11.001  0.3129 -0.8752  2.0393
 1015MOL0     H36995   2.253   4.958  11.197  3.4105 -1.4374  0.4254
 1015MOL0     H36996   2.201   5.001  11.022  0.6755 -2.6018 -3.2539
 1015MOL0     H36997   2.431   4.938  10.948  0.3533  1.2589 -0.6591
 1015MOL0     H36998   2.467   4.915  11.125 -0.3803 -0.2603  0.9630
 1015MOL0     H36999   2.369   5.164  11.146  0.5137  0.9023  1.3682
 1015MOL0     H37000   2.541   5.149  11.083  0.2128 -1.4068 -1.3179
 1015MOL0     H37001   2.318   5.175  10.883  1.3137 -0.2173 -0.2333
 1015MOL0     H37002   2.491   5.172  10.861  0.5589 -1.7477  0.8561
 1015MOL0     H37003   2.309   5.382  10.985  0.1350 -1.8213 -0.4917
 1015MOL0     H37004   2.486   5.398  10.993  0.8490  0.4620 -0.3815
 1015MOL0     H37005   2.142   4.377  10.866  1.3496  0.8556 -1.9708
 1015MOL0     H37006   2.217   4.147  10.798  3.3223  2.6499 -2.3116
 1015MOL0     H37007   2.512   3.675  11.113  0.9873  0.9060  0.1075
 1015MOL0     H37008   2.594   3.468  10.993 -2.9787  0.0708  0.3003
 1015MOL0     H37009   2.499   4.612  11.621  0.1946 -0.5969 -1.0865
 1015MOL0     H37010   2.563   4.854  11.593 -2.9658  1.0022 -0.5770
 1015MOL0     H37011   2.899   5.097  11.448 -1.9382  0.1059  1.9348
 1015MOL0     H37012   3.034   5.286  11.444  0.4190  1.1269 -1.8513
 1015MOL0     H37013   3.118   5.610  11.300 -1.0138  1.3173  1.3872
 1015MOL0     H37014   3.110   5.439  11.287 -1.5191 -0.9175 -1.0651
 1015MOL0     H37015   3.278   5.470  11.451 -0.7409  0.0349 -1.3354
 1015MOL0     H37016   3.138   5.432  11.550 -2.5251 -1.0408 -2.9708
 1015MOL0     H37017   3.222   5.629  11.670  0.4006 -0.8381  0.0894
 1015MOL0     H37018   3.095   5.691  11.561  0.2053 -0.2222 -1.9302
 1015MOL0     H37019   3.259   5.755  11.394 -0.6870  1.0429  0.9015
 1015MOL0     H37020   3.288   5.843  11.535  3.7489  1.6360 -2.2684
 1015MOL0     H37021   3.647   5.656  11.573  0.7249  2.1793  1.7017
 1015MOL0     H37022   2.707   5.544  11.353  0.5815 -0.4264 -2.7237
 1015MOL0     H37023   2.456   5.340  11.248  1.2857 -0.6297 -0.0609
 1015MOL0     H37024   2.440   5.285  11.409 -1.5501  0.1727 -1.5914
 1015MOL0     H37025   2.482   5.458  11.377  2.9139  1.4348 -2.3422
 1016MOL0     O37026   2.106   3.085   5.578 -0.4096 -0.3661 -0.3891
 1016MOL0     C37027   2.168   3.172   5.510  1.5363  1.0035  0.0067
 1016MOL0     O37028   2.188   3.161   5.376 -0.0587  1.0193  0.4893
 1016MOL0     C37029   2.139   3.047   5.301 -0.4131  0.3476  0.2062
 1016MOL0     C37030   2.035   2.958   5.325 -0.1247  0.7010  1.4123
 1016MOL0     C37031   2.010   2.849   5.244 -0.6797 -1.1469 -0.5546
 1016MOL0     C37032   2.089   2.822   5.128  0.2212 -0.7811  0.4463
 1016MOL0     O37033   2.069   2.705   5.065 -0.6362 -0.1425 -0.1700
 1016MOL0     C37034   2.158   2.653   4.965 -0.3113  1.0283  0.1904
 1016MOL0     C37035   2.095   2.519   4.908  0.3887  0.2783 -1.3350
 1016MOL0     C37036   2.179   2.462   4.798  0.8287 -0.3179 -0.1988
 1016MOL0     C37037   2.125   2.320   4.772 -0.0473  0.5811  0.9713
 1016MOL0     C37038   2.185   2.263   4.643  0.8391 -0.6438 -0.3217
 1016MOL0     C37039   2.155   2.110   4.620 -0.1937 -0.4053  0.9422
 1016MOL0     C37040   2.004   2.086   4.610 -0.0324  0.2594 -0.7423
 1016MOL0     C37041   1.965   1.946   4.580  0.3831  0.0198  0.4955
 1016MOL0     N37042   1.923   1.866   4.692 -0.9640  0.5561  1.0225
 1016MOL0     C37043   1.816   1.897   4.768  0.1017 -0.7343  0.2209
 1016MOL0     C37044   1.836   1.833   4.884 -1.0866 -0.0549  0.5794
 1016MOL0     C37045   1.742   1.852   5.004  0.1896 -0.1013  0.3270
 1016MOL0     C37046   1.597   1.817   4.977  0.4398 -0.7466 -0.8826
 1016MOL0     C37047   1.582   1.662   4.988 -1.1710 -0.5371  1.8109
 1016MOL0     C37048   1.459   1.615   5.076 -0.1557 -0.3668 -0.7287
 1016MOL0     O37049   1.336   1.704   5.066  0.0663  0.5246 -0.7246
 1016MOL0     C37050   1.205   1.664   5.084  0.7016 -1.5658  0.0680
 1016MOL0     C37051   1.153   1.541   5.093  0.1096  0.5056 -0.1616
 1016MOL0     C37052   1.014   1.510   5.080 -0.3880  0.5720  0.2036
 1016MOL0     C37053   0.920   1.613   5.082 -0.3124 -0.1838  0.4129
 1016MOL0     C37054   0.782   1.587   5.085 -0.4634  0.8983  0.0526
 1016MOL0     O37055   0.692   1.695   5.089  0.3099  0.0370 -0.2895
 1016MOL0     C37056   0.556   1.676   5.077  0.0889 -0.3903  0.0859
 1016MOL0     C37057   0.481   1.590   5.157  0.0393 -0.5846 -0.3737
 1016MOL0     C37058   0.344   1.601   5.149 -0.9372  0.1350 -0.5952
 1016MOL0     C37059   0.277   1.682   5.062 -0.4416 -0.3093 -0.5128
 1016MOL0     O37060   0.143   1.703   5.090 -0.8459  0.0325  0.2145
 1016MOL0     C37061   0.060   1.744   4.982  0.6015 -0.0947 -0.0551
 1016MOL0     C37062  -0.070   1.670   4.975 -0.3012 -0.1465 -0.7001
 1016MOL0     C37063  -0.179   1.728   4.880  0.2594  0.3103 -0.7978
 1016MOL0     C37064  -0.270   1.836   4.946 -0.5903  0.2509  0.3325
 1016MOL0     C37065  -0.326   1.948   4.852  0.1920  0.1109  0.5146
 1016MOL0     C37066  -0.422   1.889   4.750 -0.3375  1.1913 -0.3874
 1016MOL0     C37067  -0.453   1.990   4.636 -0.2455 -0.5373 -0.1898
 1016MOL0     C37068  -0.503   1.932   4.508  0.3075  0.5830  0.7391
 1016MOL0    Cl37069  -0.655   1.850   4.534 -0.0478 -0.0514 -0.4038
 1016MOL0     C37070   0.346   1.756   4.973 -1.4366  0.2684 -0.1722
 1016MOL0     C37071   0.484   1.749   4.976  0.3612 -0.0896 -0.6705
 1016MOL0     O37072   0.752   1.467   5.106  0.4340 -0.2020  0.4516
 1016MOL0     C37073   0.966   1.743   5.090 -0.1160 -0.8089 -0.0309
 1016MOL0     C37074   1.102   1.770   5.086 -0.0324  0.4353 -0.7225
 1016MOL0     N37075   1.945   1.748   4.870 -0.2561 -0.4144 -0.4396
 1016MOL0     N37076   2.001   1.766   4.747 -0.6265 -0.3607 -0.7233
 1016MOL0     C37077   2.177   2.922   5.085  0.3751  0.3016 -0.5745
 1016MOL0     C37078   2.208   3.022   5.176  0.7637 -0.2876 -0.1577
 1016MOL0     C37079   2.227   3.288   5.584 -0.1530 -0.2294 -0.0647
 1016MOL0     C37080   2.329   3.356   5.519  0.0662 -1.3307  0.5086
 1016MOL0     C37081   2.395   3.462   5.586  0.0415  0.6378 -0.4910
 1016MOL0     C37082   2.355   3.508   5.717 -0.1139  0.7197 -0.2868
 1016MOL0     O37083   2.403   3.614   5.785 -0.5859  0.3146 -0.4929
 1016MOL0     C37084   2.523   3.679   5.730 -0.3545 -0.0611 -1.0613
 1016MOL0     C37085   2.579   3.771   5.836 -0.2608  0.6934  0.0517
 1016MOL0     C37086   2.472   3.866   5.898 -0.4483 -0.4578 -0.4868
 1016MOL0     C37087   2.520   3.931   6.023 -0.3801 -0.3545 -0.1090
 1016MOL0     C37088   2.634   4.018   5.992 -0.8593 -0.2224 -0.1312
 1016MOL0     C37089   2.724   4.093   5.976 -0.0428 -0.6459  0.1726
 1016MOL0     C37090   2.252   3.438   5.781  0.4808 -0.4257  0.2242
 1016MOL0     C37091   2.179   3.335   5.713  0.6148  0.0568  0.1955
 1016MOL0     C37092   2.073   3.262   5.795 -0.0939 -0.4875 -0.3175
 1016MOL0     H37093   1.960   2.966   5.402 -3.7010 -2.1353 -1.4076
 1016MOL0     H37094   1.939   2.785   5.296  0.6774 -0.8641  1.8251
 1016MOL0     H37095   2.163   2.727   4.884  1.2429  0.6420 -0.0996
 1016MOL0     H37096   2.255   2.630   5.009 -0.3343  0.1127 -0.2196
 1016MOL0     H37097   1.992   2.534   4.873 -0.5543 -2.0003  0.2442
 1016MOL0     H37098   2.081   2.442   4.984 -0.1139  1.4533 -0.1919
 1016MOL0     H37099   2.285   2.447   4.821  0.3680 -4.1240  0.0776
 1016MOL0     H37100   2.176   2.535   4.716 -0.1658 -0.5563 -0.3885
 1016MOL0     H37101   2.140   2.253   4.857 -2.2247 -2.1314 -0.5987
 1016MOL0     H37102   2.015   2.319   4.763 -0.1711 -1.1149  2.2568
 1016MOL0     H37103   2.144   2.315   4.556 -0.4126 -0.4361  0.3724
 1016MOL0     H37104   2.293   2.281   4.638  0.3605  4.0738  1.6258
 1016MOL0     H37105   2.203   2.076   4.527  2.4401  1.2560  1.5915
 1016MOL0     H37106   2.203   2.050   4.697  1.4554  0.0755  0.3236
 1016MOL0     H37107   1.955   2.153   4.539 -0.8960  1.7593  1.1953
 1016MOL0     H37108   1.948   2.120   4.698  0.6021  3.2306 -1.3819
 1016MOL0     H37109   1.880   1.946   4.511  0.7606 -1.8657 -0.0098
 1016MOL0     H37110   2.051   1.897   4.534  1.3784  2.3869 -0.2982
 1016MOL0     H37111   1.739   1.972   4.760  0.5025 -0.2326  0.8829
 1016MOL0     H37112   1.781   1.793   5.088 -1.2711 -0.8392  0.5205
 1016MOL0     H37113   1.748   1.957   5.034  2.2571 -0.3197  0.8457
 1016MOL0     H37114   1.552   1.869   5.061  3.9855 -0.8429  1.2985
 1016MOL0     H37115   1.553   1.847   4.882 -0.7417 -0.6058 -0.3016
 1016MOL0     H37116   1.673   1.620   5.032  0.0699 -1.1433 -1.0824
 1016MOL0     H37117   1.569   1.615   4.890 -2.1119  0.4677  1.4298
 1016MOL0     H37118   1.504   1.610   5.176 -4.3198 -0.1078  1.3692
 1016MOL0     H37119   1.425   1.514   5.051 -2.2058 -0.4490  1.9197
 1016MOL0     H37120   1.216   1.454   5.109 -1.9442 -1.2513 -1.1021
 1016MOL0     H37121   0.977   1.409   5.093 -2.9784  1.4703  0.4219
 1016MOL0     H37122   0.534   1.544   5.240 -1.0306  1.4361  1.4940
 1016MOL0     H37123   0.275   1.560   5.221  0.7659  0.2186  1.1661
 1016MOL0     H37124   0.031   1.847   5.005 -0.0583 -0.2445 -0.1789
 1016MOL0     H37125   0.098   1.730   4.880 -0.0198 -2.4307 -0.0237
 1016MOL0     H37126  -0.040   1.571   4.939  1.6047  0.3504 -0.5783
 1016MOL0     H37127  -0.109   1.665   5.077  0.1323  1.6389 -0.4246
 1016MOL0     H37128  -0.129   1.778   4.797  0.6748  1.0938 -0.0852
 1016MOL0     H37129  -0.250   1.660   4.833 -2.1497  1.8486  0.4433
 1016MOL0     H37130  -0.204   1.881   5.022 -0.6411  0.0130  0.5204
 1016MOL0     H37131  -0.349   1.776   4.992  0.3624 -1.2953  0.0106
 1016MOL0     H37132  -0.246   2.009   4.809 -2.6039  3.1027 -0.8628
 1016MOL0     H37133  -0.383   2.025   4.904 -3.3662 -0.8791 -1.5145
 1016MOL0     H37134  -0.378   1.799   4.707 -0.9976  0.9807 -0.6445
 1016MOL0     H37135  -0.516   1.865   4.801  0.2689 -1.7279 -0.4398
 1016MOL0     H37136  -0.357   2.040   4.621  0.5858 -1.8801  0.4329
 1016MOL0     H37137  -0.524   2.065   4.673  0.0772 -0.5429  0.4497
 1016MOL0     H37138  -0.504   2.007   4.427  2.7111 -0.0148  0.0667
 1016MOL0     H37139  -0.433   1.856   4.471  0.2165  1.3456 -1.1520
 1016MOL0     H37140   0.294   1.835   4.919  2.5284  2.9310 -0.5320
 1016MOL0     H37141   0.537   1.827   4.922 -0.5049  1.3434  0.4963
 1016MOL0     H37142   0.885   1.815   5.089  0.3762 -0.2521 -0.3168
 1016MOL0     H37143   1.133   1.874   5.086 -0.5547  0.6089  0.5888
 1016MOL0     H37144   2.222   2.924   4.987 -0.4320 -0.8818 -0.9986
 1016MOL0     H37145   2.284   3.092   5.143  0.2771 -0.3083 -1.3436
 1016MOL0     H37146   2.373   3.319   5.427  0.1645 -1.0318  0.4330
 1016MOL0     H37147   2.477   3.502   5.527  0.1196  0.4362 -0.5212
 1016MOL0     H37148   2.490   3.734   5.640 -0.7847  1.8720  0.2137
 1016MOL0     H37149   2.600   3.605   5.707 -0.2457  0.0092 -0.9238
 1016MOL0     H37150   2.668   3.820   5.796  0.0294 -0.2685 -0.5059
 1016MOL0     H37151   2.609   3.709   5.921 -0.8157  1.6800  0.9979
 1016MOL0     H37152   2.375   3.822   5.923 -2.0612  3.8981  1.9812
 1016MOL0     H37153   2.450   3.943   5.824  2.3703 -0.3598 -1.3115
 1016MOL0     H37154   2.437   3.991   6.064  1.1710  0.8828  1.4057
 1016MOL0     H37155   2.547   3.856   6.098 -2.2528  0.0378  1.0330
 1016MOL0     H37156   2.804   4.161   5.957 -0.2990  0.1211  1.6353
 1016MOL0     H37157   2.233   3.463   5.885  3.0630  1.3259  0.3635
 1016MOL0     H37158   2.044   3.323   5.881 -2.1467  1.1944 -2.0791
 1016MOL0     H37159   1.982   3.250   5.735  1.4919  1.1806 -3.2653
 1016MOL0     H37160   2.114   3.164   5.823 -1.0007 -0.8497 -0.2228
 1017MOL0     O37161   1.450   0.946   2.587 -0.6060  0.1892  0.3662
 1017MOL0     C37162   1.373   1.018   2.655 -0.0974 -0.3903  0.8404
 1017MOL0     O37163   1.263   1.082   2.610  0.0227 -0.0947  0.5567
 1017MOL0     C37164   1.222   1.037   2.486  0.3065 -0.3688  0.0305
 1017MOL0     C37165   1.180   1.132   2.389  0.2671  0.6105  0.3055
 1017MOL0     C37166   1.128   1.083   2.271  0.3547 -0.4240  0.3027
 1017MOL0     C37167   1.123   0.951   2.230  0.5782 -1.0523 -1.1813
 1017MOL0     O37168   1.084   0.915   2.108 -0.8359  0.2982  0.1776
 1017MOL0     C37169   0.967   0.837   2.111 -0.3021 -0.1360  0.7949
 1017MOL0     C37170   0.946   0.803   1.958  0.2257  0.5559  0.2622
 1017MOL0     C37171   0.926   0.929   1.879  0.0313  0.4680  0.2179
 1017MOL0     C37172   0.793   0.906   1.794 -1.0256 -0.1937  0.7463
 1017MOL0     C37173   0.777   1.007   1.688 -0.9944 -0.5093  0.3469
 1017MOL0     C37174   0.677   0.980   1.579  0.5949 -0.3628 -0.5828
 1017MOL0     C37175   0.540   0.959   1.629  0.2016  0.6799 -0.3493
 1017MOL0     C37176   0.431   0.918   1.521  0.2584  0.3786 -0.2866
 1017MOL0     N37177   0.322   0.837   1.582  0.3672 -0.2463 -0.4151
 1017MOL0     C37178   0.311   0.696   1.585 -1.0460 -0.9296  0.4725
 1017MOL0     C37179   0.206   0.687   1.664  0.4211  0.0070  0.4810
 1017MOL0     C37180   0.133   0.557   1.703  0.2009  0.1261  0.7600
 1017MOL0     C37181   0.023   0.521   1.606  0.7801  0.4123  0.1725
 1017MOL0     C37182  -0.047   0.643   1.545 -0.4769 -1.3264  0.2112
 1017MOL0     C37183  -0.176   0.600   1.478 -0.1929 -0.2407  0.6823
 1017MOL0     O37184  -0.290   0.647   1.545 -0.1381 -0.5759  0.3454
 1017MOL0     C37185  -0.399   0.605   1.479  0.1349  0.9279 -0.5168
 1017MOL0     C37186  -0.452   0.477   1.502 -0.5888  0.6571 -0.2302
 1017MOL0     C37187  -0.551   0.420   1.419 -0.6065  0.0628 -0.5129
 1017MOL0     C37188  -0.608   0.494   1.317 -0.4708  0.0063 -0.9014
 1017MOL0     C37189  -0.688   0.429   1.207  0.7288 -0.6882 -0.4606
 1017MOL0     O37190  -0.739   0.314   1.228 -0.0437 -0.2170  0.5868
 1017MOL0     C37191  -0.836   0.271   1.139  0.3669  0.1208 -0.6942
 1017MOL0     C37192  -0.964   0.320   1.149  0.2240 -0.0017 -0.0845
 1017MOL0     C37193  -1.060   0.260   1.064 -0.9835 -0.9920 -0.1088
 1017MOL0     C37194  -1.039   0.164   0.961 -0.3508  0.5403 -0.2706
 1017MOL0     O37195  -1.140   0.114   0.883  0.3462  0.1269 -0.2670
 1017MOL0     C37196  -1.275   0.158   0.902 -0.0224 -0.5341 -0.1184
 1017MOL0     C37197  -1.351   0.097   0.789 -0.0474 -0.1470  0.3874
 1017MOL0     C37198  -1.498   0.154   0.759  0.8993 -0.6763  0.4856
 1017MOL0     C37199  -1.513   0.307   0.767 -0.4591 -0.2081 -0.1161
 1017MOL0     C37200  -1.653   0.337   0.712  0.8340  0.0354 -0.0176
 1017MOL0     C37201  -1.675   0.484   0.693 -0.4314 -0.5994 -0.5263
 1017MOL0     C37202  -1.817   0.515   0.644 -0.0798 -0.7912 -0.3386
 1017MOL0     C37203  -1.825   0.655   0.592 -0.8729  0.4977  0.3387
 1017MOL0    Cl37204  -1.814   0.776   0.732 -0.7519 -0.2078  0.2017
 1017MOL0     C37205  -0.906   0.118   0.966  0.3529 -0.2186 -1.0355
 1017MOL0     C37206  -0.806   0.160   1.056  1.1780  0.2701 -0.0057
 1017MOL0     O37207  -0.697   0.495   1.106 -0.7897 -0.0151  0.6275
 1017MOL0     C37208  -0.564   0.634   1.305  0.0297  0.1587 -0.5780
 1017MOL0     C37209  -0.458   0.687   1.386 -0.4779 -0.7709 -0.4943
 1017MOL0     N37210   0.159   0.805   1.704  0.0361 -0.4497 -0.3027
 1017MOL0     N37211   0.226   0.897   1.655  1.4084 -0.0565  0.0995
 1017MOL0     C37212   1.161   0.864   2.330  0.0177 -0.0120 -0.0349
 1017MOL0     C37213   1.205   0.900   2.456 -1.0303  0.0851  0.6214
 1017MOL0     C37214   1.383   1.011   2.809  0.4247  1.0519 -0.0388
 1017MOL0     C37215   1.330   1.125   2.879 -0.7945 -0.2524 -0.7386
 1017MOL0     C37216   1.364   1.134   3.017  0.2006 -0.3064  0.4658
 1017MOL0     C37217   1.428   1.038   3.092  0.0033 -0.5274  1.6983
 1017MOL0     O37218   1.435   1.060   3.227 -0.0185 -0.6993 -0.8580
 1017MOL0     C37219   1.555   0.999   3.294 -0.2646 -0.7219  0.4609
 1017MOL0     C37220   1.660   1.102   3.349  0.2690 -0.2314 -0.8638
 1017MOL0     C37221   1.683   1.082   3.508 -0.0109 -0.1244  0.6409
 1017MOL0     C37222   1.760   0.959   3.542 -0.1548 -0.6794  0.1170
 1017MOL0     C37223   1.734   0.904   3.681  0.0537 -0.3805 -0.7928
 1017MOL0     C37224   1.726   0.841   3.790 -1.0201 -0.0786 -0.7225
 1017MOL0     C37225   1.470   0.921   3.023  0.3767  0.5361  0.7260
 1017MOL0     C37226   1.452   0.909   2.885 -0.2942 -0.5085 -0.4731
 1017MOL0     C37227   1.518   0.794   2.819 -0.2439 -0.8642  0.1818
 1017MOL0     H37228   1.206   1.238   2.390  2.6454  0.1447 -1.9611
 1017MOL0     H37229   1.112   1.166   2.202  2.6605 -0.5950 -0.5139
 1017MOL0     H37230   0.980   0.738   2.156  0.6221 -0.1803  0.4485
 1017MOL0     H37231   0.886   0.893   2.158  0.5326  1.2445  0.6281
 1017MOL0     H37232   0.859   0.736   1.963  1.2937 -0.8079  3.0916
 1017MOL0     H37233   1.035   0.753   1.919  2.1894  1.6458  3.0064
 1017MOL0     H37234   1.018   0.944   1.821  1.5992 -2.0188  1.8914
 1017MOL0     H37235   0.915   1.015   1.947  1.8280  1.2590 -0.4212
 1017MOL0     H37236   0.803   0.813   1.737 -0.7849  0.5980 -0.5398
 1017MOL0     H37237   0.713   0.889   1.867 -0.6142 -2.4373  0.7390
 1017MOL0     H37238   0.755   1.099   1.745 -0.3494 -0.9262  1.2988
 1017MOL0     H37239   0.871   1.025   1.636 -1.0548 -2.0569 -0.3589
 1017MOL0     H37240   0.683   1.068   1.514 -0.1272  1.5498  1.8199
 1017MOL0     H37241   0.701   0.900   1.507 -3.1253 -0.6210 -1.7420
 1017MOL0     H37242   0.511   1.057   1.667  0.4075  0.6843 -0.2032
 1017MOL0     H37243   0.543   0.884   1.709  1.6050 -0.3841 -1.3590
 1017MOL0     H37244   0.385   1.010   1.483  0.3482  0.5301 -0.0344
 1017MOL0     H37245   0.474   0.859   1.440 -0.5124  1.5591 -1.6140
 1017MOL0     H37246   0.377   0.619   1.546  2.9523  0.7990  3.1153
 1017MOL0     H37247   0.193   0.466   1.713 -1.7681 -1.0384  3.0977
 1017MOL0     H37248   0.094   0.579   1.804  3.5557  1.6682  1.8692
 1017MOL0     H37249   0.073   0.478   1.518 -0.2419  1.7842 -1.1350
 1017MOL0     H37250  -0.042   0.443   1.647  0.6949  0.3054 -0.1583
 1017MOL0     H37251   0.009   0.696   1.468 -2.2521  1.9688  1.0351
 1017MOL0     H37252  -0.063   0.724   1.617  0.3446 -1.6559  0.7902
 1017MOL0     H37253  -0.160   0.493   1.461  1.4909  0.2191 -0.9934
 1017MOL0     H37254  -0.186   0.639   1.376 -2.5930  0.5715  1.1633
 1017MOL0     H37255  -0.400   0.422   1.579  2.0333  1.1193 -1.5707
 1017MOL0     H37256  -0.583   0.319   1.441  3.1655 -1.0976  0.2237
 1017MOL0     H37257  -0.985   0.390   1.229  2.3407 -0.1699  0.6976
 1017MOL0     H37258  -1.155   0.313   1.069 -0.2145  0.4326 -0.0238
 1017MOL0     H37259  -1.315   0.122   0.997 -0.9183  1.0441  0.1307
 1017MOL0     H37260  -1.275   0.268   0.902  1.3958 -0.4983 -1.2200
 1017MOL0     H37261  -1.285   0.101   0.702  0.3141  0.4063  0.6802
 1017MOL0     H37262  -1.358  -0.010   0.813  0.9310 -0.6461 -1.3854
 1017MOL0     H37263  -1.530   0.109   0.665  1.2691 -1.7320  0.8394
 1017MOL0     H37264  -1.568   0.100   0.824 -1.1525  1.9722  0.6253
 1017MOL0     H37265  -1.440   0.361   0.705  0.6890 -0.9818  0.5223
 1017MOL0     H37266  -1.496   0.345   0.868  1.5067 -1.0021 -0.0979
 1017MOL0     H37267  -1.727   0.300   0.783 -1.2848  1.1077 -1.5353
 1017MOL0     H37268  -1.659   0.280   0.619  3.9571 -2.2331  1.0058
 1017MOL0     H37269  -1.654   0.528   0.791 -0.1328 -1.6421 -0.0973
 1017MOL0     H37270  -1.600   0.518   0.621 -0.7239  0.2575 -0.4321
 1017MOL0     H37271  -1.888   0.513   0.728  1.1517  2.5229  0.9361
 1017MOL0     H37272  -1.854   0.442   0.571  1.7835 -3.9690  1.6379
 1017MOL0     H37273  -1.740   0.670   0.524  0.7811  0.1410  2.2314
 1017MOL0     H37274  -1.914   0.660   0.529  0.1769 -1.0266 -1.3644
 1017MOL0     H37275  -0.863   0.043   0.900  0.8713  0.6137 -1.6681
 1017MOL0     H37276  -0.702   0.128   1.057  0.9590 -0.5882  2.4167
 1017MOL0     H37277  -0.610   0.695   1.229  0.7364 -1.3624 -2.3151
 1017MOL0     H37278  -0.423   0.789   1.376 -2.2072  0.0656  1.2690
 1017MOL0     H37279   1.157   0.762   2.293 -0.4559 -0.0049 -0.0186
 1017MOL0     H37280   1.257   0.825   2.515  0.1665  0.6646  0.3507
 1017MOL0     H37281   1.288   1.214   2.833  0.6605 -0.8373 -3.4174
 1017MOL0     H37282   1.339   1.230   3.061 -0.4491 -1.7489  3.4954
 1017MOL0     H37283   1.604   0.919   3.238 -0.6229 -0.8898  0.3843
 1017MOL0     H37284   1.520   0.950   3.385  0.2725  1.2556  1.8137
 1017MOL0     H37285   1.628   1.205   3.327 -0.5167 -0.8022 -2.5471
 1017MOL0     H37286   1.759   1.097   3.304 -0.3105  1.9764 -2.5944
 1017MOL0     H37287   1.581   1.090   3.547 -0.1065  2.0091  0.0675
 1017MOL0     H37288   1.736   1.171   3.542 -1.7279  1.1220  0.2050
 1017MOL0     H37289   1.748   0.885   3.463  2.0001 -1.0478  0.0593
 1017MOL0     H37290   1.867   0.979   3.534 -0.8861  3.5012 -1.2486
 1017MOL0     H37291   1.734   0.776   3.874 -1.0355 -0.1042 -0.7405
 1017MOL0     H37292   1.517   0.834   3.069  2.3457  0.1782 -1.7791
 1017MOL0     H37293   1.552   0.719   2.891  0.0077 -1.3802 -0.4717
 1017MOL0     H37294   1.454   0.753   2.741  3.8507 -2.4218 -2.7173
 1017MOL0     H37295   1.601   0.829   2.757 -0.8456 -2.3140 -1.5076
 1018MOL0     O37296   2.025  11.028   3.666 -0.2010  0.7404 -0.0488
 1018MOL0     C37297   2.145  11.065   3.662  0.1179 -0.4957  0.6995
 1018MOL0     O37298   2.262  10.997   3.701  0.3216 -0.3134 -0.4568
 1018MOL0     C37299   2.234  10.894   3.785 -0.6088  0.6898 -0.4176
 1018MOL0     C37300   2.244  10.909   3.920  0.0138 -0.7393  0.5675
 1018MOL0     C37301   2.208  10.813   4.007  0.4116  0.0014  0.0672
 1018MOL0     C37302   2.156  10.694   3.968  0.4192 -0.0137 -0.2578
 1018MOL0     O37303   2.122  10.611   4.070 -0.2586 -0.3073  0.2015
 1018MOL0     C37304   2.104  10.463   4.045 -0.6894  0.3648 -1.6673
 1018MOL0     C37305   1.956  10.425   4.021 -0.1923 -0.2955 -0.1127
 1018MOL0     C37306   1.868  10.433   4.151 -0.2693  1.3253 -1.1864
 1018MOL0     C37307   1.722  10.400   4.121  0.1299 -0.5401 -0.2440
 1018MOL0     C37308   1.639  10.364   4.251 -0.7854  0.0752  0.5348
 1018MOL0     C37309   1.492  10.344   4.228 -0.4760  1.1071  0.5219
 1018MOL0     C37310   1.401  10.466   4.255  0.3851  0.3519 -0.8426
 1018MOL0     C37311   1.395  10.521   4.396  0.9824  0.5622  0.9863
 1018MOL0     N37312   1.307  10.449   4.488 -0.3361 -0.1293 -0.1027
 1018MOL0     C37313   1.167  10.451   4.492 -0.0478 -0.5117  0.0582
 1018MOL0     C37314   1.132  10.355   4.578 -0.0001 -1.0944  0.3313
 1018MOL0     C37315   0.980  10.320   4.626  0.1487  0.1882 -0.2596
 1018MOL0     C37316   0.935  10.378   4.769 -0.7124 -0.1977  0.3509
 1018MOL0     C37317   0.951  10.527   4.775 -0.6131  0.2887 -0.7761
 1018MOL0     C37318   0.864  10.610   4.685 -0.7738  0.4711 -0.1302
 1018MOL0     O37319   0.911  10.622   4.550  0.4941 -0.0394  0.7983
 1018MOL0     C37320   0.847  10.699   4.451  0.0843 -0.1391 -0.2435
 1018MOL0     C37321   0.920  10.752   4.344  0.1329 -0.5582 -0.4504
 1018MOL0     C37322   0.874  10.830   4.239 -0.2176 -0.5285  0.0825
 1018MOL0     C37323   0.732  10.849   4.236 -0.0189 -0.2450 -0.6256
 1018MOL0     C37324   0.668  10.926   4.123  0.2558  0.3304  0.2715
 1018MOL0     O37325   0.556  10.999   4.137 -0.1635  0.2199 -0.2761
 1018MOL0     C37326   0.490  11.067   4.037 -0.5350  0.1444  0.0637
 1018MOL0     C37327   0.446  11.195   4.065 -0.0998  0.3437 -0.5266
 1018MOL0     C37328   0.379  11.266   3.969  0.5482  0.2923 -1.1747
 1018MOL0     C37329   0.359  11.216   3.840 -0.2501 -0.8962  0.8321
 1018MOL0     O37330   0.285  11.302   3.755 -0.5160  0.6871 -0.5896
 1018MOL0     C37331   0.221  11.257   3.634 -0.0055 -0.6088  0.5008
 1018MOL0     C37332   0.074  11.221   3.664  0.4614  0.0320 -0.2419
 1018MOL0     C37333  -0.006  11.155   3.545  0.4187 -0.0579 -0.4476
 1018MOL0     C37334  -0.005  11.002   3.547  0.2808  0.2083 -0.4695
 1018MOL0     C37335  -0.078  10.940   3.658  0.4711  0.6340 -0.2200
 1018MOL0     C37336  -0.225  10.912   3.626  0.3891  0.8859 -0.3906
 1018MOL0     C37337  -0.249  10.807   3.504 -0.2355 -0.1111  0.1929
 1018MOL0     C37338  -0.340  10.696   3.539  0.3164  0.7635  0.2250
 1018MOL0    Cl37339  -0.486  10.753   3.611  0.4711  0.7673 -0.5951
 1018MOL0     C37340   0.423  11.099   3.799 -0.4586 -0.5045 -0.1419
 1018MOL0     C37341   0.485  11.018   3.899  0.1896 -0.5356 -0.5811
 1018MOL0     O37342   0.729  10.916   4.014  0.1869 -0.3052  0.5366
 1018MOL0     C37343   0.660  10.801   4.355  1.0073  0.2383 -0.4367
 1018MOL0     C37344   0.712  10.729   4.455  0.4532 -0.6552 -0.2849
 1018MOL0     N37345   1.242  10.292   4.622 -0.4429  0.1733  0.4405
 1018MOL0     N37346   1.351  10.344   4.564  0.0707  0.2066 -0.0847
 1018MOL0     C37347   2.152  10.666   3.832 -0.1255  0.1781  1.4518
 1018MOL0     C37348   2.191  10.766   3.734  0.0038  0.0211 -1.1038
 1018MOL0     C37349   2.167  11.192   3.610 -0.1087  0.3582  0.2022
 1018MOL0     C37350   2.204  11.207   3.471 -0.8941 -0.8845  0.4271
 1018MOL0     C37351   2.213  11.334   3.409 -0.5309 -0.1022 -0.6107
 1018MOL0     C37352   2.187  11.448   3.492  0.7169  0.3705  0.0051
 1018MOL0     O37353   2.203  11.571   3.442 -0.0576  0.3087 -0.4098
 1018MOL0     C37354   2.093  11.664   3.447 -0.3132 -0.1424  0.1770
 1018MOL0     C37355   2.050  11.716   3.313  0.0151  0.1084  0.5820
 1018MOL0     C37356   2.029  11.609   3.201 -0.1004 -0.0242 -0.3422
 1018MOL0     C37357   1.993  11.673   3.073  0.0045 -0.2798  0.3268
 1018MOL0     C37358   1.852  11.674   3.044 -0.4626 -0.7882  0.9129
 1018MOL0     C37359   1.732  11.687   3.036  0.6112 -0.0633  0.5900
 1018MOL0     C37360   2.171  11.431   3.631  0.4947  0.3454  0.0603
 1018MOL0     C37361   2.160  11.310   3.697 -0.0073  0.0363 -0.2028
 1018MOL0     C37362   2.155  11.304   3.854  0.1874  0.0757  0.2128
 1018MOL0     H37363   2.281  11.006   3.952  0.6239 -1.4646  2.1941
 1018MOL0     H37364   2.215  10.827   4.114  0.5490  0.5238 -0.0069
 1018MOL0     H37365   2.169  10.441   3.959  2.2560  0.8307  0.2994
 1018MOL0     H37366   2.139  10.412   4.135 -1.7281  1.4816 -0.5977
 1018MOL0     H37367   1.946  10.328   3.970 -2.2482  0.7160 -1.7944
 1018MOL0     H37368   1.912  10.497   3.952  0.5434  1.6918  1.4009
 1018MOL0     H37369   1.891  10.528   4.201  1.4706  0.8957 -1.1231
 1018MOL0     H37370   1.910  10.361   4.222  2.3714  2.8056 -1.1217
 1018MOL0     H37371   1.671  10.486   4.078  1.9380  0.5186 -0.3333
 1018MOL0     H37372   1.726  10.315   4.052  2.2097 -3.1072  2.6777
 1018MOL0     H37373   1.676  10.275   4.302 -0.0137  0.6015  0.9145
 1018MOL0     H37374   1.659  10.444   4.323  1.4737 -1.4548  1.7079
 1018MOL0     H37375   1.482  10.309   4.125  1.0874 -1.4374  1.1471
 1018MOL0     H37376   1.455  10.255   4.280 -2.6616  1.2635 -0.6657
 1018MOL0     H37377   1.302  10.432   4.224  0.3484 -0.8498  0.4942
 1018MOL0     H37378   1.435  10.553   4.197  0.4309  1.4453  0.7634
 1018MOL0     H37379   1.500  10.513   4.425  1.9025  0.6265 -1.9740
 1018MOL0     H37380   1.365  10.626   4.392  2.2726  1.0000  2.1421
 1018MOL0     H37381   1.105  10.523   4.438  0.7486 -0.4540 -0.8003
 1018MOL0     H37382   0.924  10.351   4.538  0.8823 -1.9034 -1.5306
 1018MOL0     H37383   0.966  10.212   4.637 -0.0622  0.2893  0.6015
 1018MOL0     H37384   0.829  10.356   4.774 -0.7799  0.0284  0.0182
 1018MOL0     H37385   0.981  10.316   4.846  1.1834 -1.7351 -1.8653
 1018MOL0     H37386   1.058  10.549   4.777 -0.8517  2.3877  4.4056
 1018MOL0     H37387   0.922  10.549   4.878  1.3882 -0.3947 -0.0115
 1018MOL0     H37388   0.851  10.709   4.729  1.1982  1.3001 -1.2913
 1018MOL0     H37389   0.767  10.559   4.677 -1.6208  2.1346 -1.2042
 1018MOL0     H37390   1.027  10.736   4.356 -0.1470 -2.7037 -0.3906
 1018MOL0     H37391   0.946  10.864   4.165 -0.8228 -1.6386 -1.0411
 1018MOL0     H37392   0.440  11.228   4.168 -2.1422 -3.6228  0.8424
 1018MOL0     H37393   0.354  11.365   4.005  5.8228  1.6519 -0.3630
 1018MOL0     H37394   0.231  11.342   3.566  1.2112 -1.1042  0.0344
 1018MOL0     H37395   0.261  11.164   3.591 -3.0882 -0.2195 -3.9110
 1018MOL0     H37396   0.059  11.165   3.758 -1.2113 -3.5019 -2.3820
 1018MOL0     H37397   0.031  11.319   3.684  1.4166  0.1830  1.2230
 1018MOL0     H37398  -0.111  11.187   3.542 -0.0249 -1.4573 -0.6807
 1018MOL0     H37399   0.056  11.172   3.457  3.9591 -0.3501  1.7611
 1018MOL0     H37400   0.100  10.983   3.570  0.8606  1.4348 -1.9156
 1018MOL0     H37401  -0.035  10.957   3.452 -1.2880  2.5947 -1.1953
 1018MOL0     H37402  -0.072  11.000   3.749  2.3633 -0.7277  0.6226
 1018MOL0     H37403  -0.033  10.841   3.672  0.9084  1.0724  1.8775
 1018MOL0     H37404  -0.276  10.869   3.713  2.2712  0.6946  0.6823
 1018MOL0     H37405  -0.277  11.006   3.609  1.0188  1.4682  0.7711
 1018MOL0     H37406  -0.161  10.755   3.465 -2.2344 -1.8655 -2.3506
 1018MOL0     H37407  -0.294  10.861   3.421  1.5583  0.3018 -0.5633
 1018MOL0     H37408  -0.372  10.657   3.442  0.6860 -2.5184  1.2942
 1018MOL0     H37409  -0.298  10.621   3.606 -3.6816  0.6068  2.9238
 1018MOL0     H37410   0.437  11.067   3.696 -0.9588 -0.0671 -0.3500
 1018MOL0     H37411   0.543  10.929   3.877  0.7674  0.2760 -2.5382
 1018MOL0     H37412   0.554  10.811   4.375  1.3932  0.4981  1.6046
 1018MOL0     H37413   0.651  10.691   4.536  0.4685  0.4152  0.2467
 1018MOL0     H37414   2.120  10.570   3.795 -0.4530  1.1242 -0.8741
 1018MOL0     H37415   2.197  10.752   3.626  0.5378 -1.2957 -0.9215
 1018MOL0     H37416   2.230  11.112   3.425 -1.5665 -0.7485 -0.2406
 1018MOL0     H37417   2.219  11.348   3.301 -0.2566 -0.4183 -0.6388
 1018MOL0     H37418   2.113  11.741   3.523 -2.5880  1.1226 -0.4206
 1018MOL0     H37419   2.003  11.611   3.482 -1.9151  1.1375 -1.8036
 1018MOL0     H37420   2.134  11.770   3.269  2.5018 -3.4247  0.6282
 1018MOL0     H37421   1.962  11.779   3.329 -0.7180 -1.0189  1.1174
 1018MOL0     H37422   1.958  11.530   3.227 -2.8718  1.7792 -1.8856
 1018MOL0     H37423   2.120  11.555   3.174  0.2239  1.5314 -2.7356
 1018MOL0     H37424   2.024  11.778   3.072  1.2242 -0.5408  2.6510
 1018MOL0     H37425   2.041  11.617   2.991  0.9605 -0.9379  1.3009
 1018MOL0     H37426   1.628  11.711   3.033  0.7783  0.6587  0.3349
 1018MOL0     H37427   2.151  11.517   3.693  0.2033  0.0149  0.4261
 1018MOL0     H37428   2.248  11.254   3.885  0.5109  1.1013  0.9398
 1018MOL0     H37429   2.170  11.402   3.899 -1.1882 -0.5215  2.1078
 1018MOL0     H37430   2.066  11.258   3.897  0.3488 -1.7744 -1.2810
 1019MOL0     O37431   0.026  10.735   6.207 -0.1871 -0.1018  0.5016
 1019MOL0     C37432   0.115  10.814   6.180 -0.5390  0.4877  0.2694
 1019MOL0     O37433   0.162  10.906   6.267 -0.0411 -0.0794  0.1327
 1019MOL0     C37434   0.081  10.938   6.368  0.3456 -0.3079  0.5086
 1019MOL0     C37435   0.003  11.058   6.372 -0.4439 -0.5769 -0.0584
 1019MOL0     C37436  -0.089  11.070   6.480 -0.4355  0.6476  0.5105
 1019MOL0     C37437  -0.111  10.965   6.575 -0.9050 -0.8047 -0.5248
 1019MOL0     O37438  -0.192  10.979   6.679  0.8416  0.2460  0.1357
 1019MOL0     C37439  -0.323  11.035   6.636 -1.1265 -0.8716 -0.4454
 1019MOL0     C37440  -0.407  10.992   6.752  0.2879  1.2470  0.0814
 1019MOL0     C37441  -0.540  11.063   6.733  0.2574 -0.5760 -0.7808
 1019MOL0     C37442  -0.635  10.992   6.822  0.5783 -0.0398 -0.1052
 1019MOL0     C37443  -0.746  11.082   6.877  0.0861 -0.4134  0.1438
 1019MOL0     C37444  -0.716  11.214   6.959 -0.5242  0.2738  0.0004
 1019MOL0     C37445  -0.626  11.185   7.085  0.3073  0.0626 -0.3014
 1019MOL0     C37446  -0.582  11.315   7.141 -0.6583 -0.2884  0.9434
 1019MOL0     N37447  -0.494  11.399   7.058  0.2883  0.4380  0.6350
 1019MOL0     C37448  -0.367  11.363   7.019 -1.1319  0.5456  0.1926
 1019MOL0     C37449  -0.315  11.473   6.962  0.1495  0.1669  0.1709
 1019MOL0     C37450  -0.169  11.485   6.927  0.7346  0.1825 -0.8926
 1019MOL0     C37451  -0.151  11.517   6.774 -0.6677 -0.5081  0.1635
 1019MOL0     C37452  -0.216  11.421   6.683 -0.6167 -0.4832  0.0455
 1019MOL0     C37453  -0.217  11.478   6.543 -0.1926 -1.5238 -0.2039
 1019MOL0     O37454  -0.283  11.396   6.450  0.2109 -0.0704  0.4177
 1019MOL0     C37455  -0.414  11.353   6.465  0.9457  0.0300  0.4887
 1019MOL0     C37456  -0.516  11.437   6.524 -0.2017 -0.6270  0.1822
 1019MOL0     C37457  -0.644  11.392   6.519  0.6158 -0.1418  0.3679
 1019MOL0     C37458  -0.678  11.264   6.466 -0.4434  0.0354  0.0691
 1019MOL0     C37459  -0.804  11.207   6.494  0.1674  0.4776 -0.5249
 1019MOL0     O37460  -0.911  11.282   6.534 -0.1633  0.6226  0.6072
 1019MOL0     C37461  -1.020  11.210   6.585 -0.0805  0.2806 -0.1078
 1019MOL0     C37462  -1.105  11.123   6.518 -1.2231 -0.2759 -0.4084
 1019MOL0     C37463  -1.218  11.082   6.577  0.9196  0.5955 -0.2386
 1019MOL0     C37464  -1.252  11.112   6.710  0.6540  0.6000  0.0773
 1019MOL0     O37465  -1.360  11.046   6.770 -0.0860  0.5371  0.1170
 1019MOL0     C37466  -1.323  10.922   6.830 -0.4468  0.3483 -0.7366
 1019MOL0     C37467  -1.361  10.925   6.981 -0.5853  0.1406 -0.4823
 1019MOL0     C37468  -1.257  10.992   7.081  0.2635 -0.6416 -0.1592
 1019MOL0     C37469  -1.289  10.955   7.225 -0.6722 -0.2104 -0.1221
 1019MOL0     C37470  -1.177  10.993   7.326  0.8941 -0.4671 -0.4595
 1019MOL0     C37471  -1.235  11.054   7.455 -0.5195 -0.0243 -0.5295
 1019MOL0     C37472  -1.128  11.131   7.540  0.6844 -0.1544  0.2349
 1019MOL0     C37473  -1.190  11.176   7.675 -0.9040 -0.3899 -0.0281
 1019MOL0    Cl37474  -1.236  11.036   7.770 -0.0167 -0.1865 -0.2012
 1019MOL0     C37475  -1.177  11.209   6.775  0.2592 -0.1040  0.7133
 1019MOL0     C37476  -1.066  11.261   6.712  0.0912 -0.9272 -0.6312
 1019MOL0     O37477  -0.806  11.085   6.476  0.2231 -0.7003 -0.0149
 1019MOL0     C37478  -0.580  11.197   6.397  1.2932 -0.1104  0.5462
 1019MOL0     C37479  -0.451  11.237   6.406 -0.0494 -0.1390  0.0662
 1019MOL0     N37480  -0.408  11.573   6.971 -0.2133 -0.2503 -0.3957
 1019MOL0     N37481  -0.516  11.529   7.027  0.6138  0.8380  0.0996
 1019MOL0     C37482  -0.019  10.858   6.567  0.0480 -0.2272 -0.9041
 1019MOL0     C37483   0.070  10.842   6.466 -0.0812 -0.9997 -0.3208
 1019MOL0     C37484   0.180  10.814   6.049 -0.2616  0.2614  0.0170
 1019MOL0     C37485   0.238  10.940   5.999 -0.2889  0.1529  0.4045
 1019MOL0     C37486   0.319  10.940   5.880 -0.2198 -0.3327  0.8883
 1019MOL0     C37487   0.330  10.827   5.802 -0.4292  0.7661 -0.4716
 1019MOL0     O37488   0.411  10.822   5.691  0.3151 -0.0472  0.4906
 1019MOL0     C37489   0.449  10.706   5.620  0.4606  0.7263  0.2174
 1019MOL0     C37490   0.531  10.738   5.495  1.2599  0.5129  1.0302
 1019MOL0     C37491   0.437  10.755   5.366 -0.6005 -1.1104 -0.4696
 1019MOL0     C37492   0.445  10.636   5.274  0.1378 -0.5596  0.2296
 1019MOL0     C37493   0.565  10.643   5.197 -0.5661 -0.4629  0.1253
 1019MOL0     C37494   0.683  10.656   5.162  0.1288 -0.4286  0.5464
 1019MOL0     C37495   0.261  10.708   5.845 -0.1671 -0.2590  0.6853
 1019MOL0     C37496   0.186  10.700   5.970 -0.7480  0.5471  0.0090
 1019MOL0     C37497   0.155  10.559   6.019 -0.1279 -0.6119  0.1275
 1019MOL0     H37498   0.017  11.141   6.302  1.2181  0.5053  1.4714
 1019MOL0     H37499  -0.141  11.165   6.487 -1.1530  0.2762  0.3755
 1019MOL0     H37500  -0.320  11.144   6.625  0.6483 -0.9877 -1.5842
 1019MOL0     H37501  -0.358  11.002   6.538 -3.9711  1.2856 -0.3031
 1019MOL0     H37502  -0.368  11.010   6.853  0.3609 -0.7385  0.4509
 1019MOL0     H37503  -0.427  10.885   6.745 -1.2136  1.4731  0.5988
 1019MOL0     H37504  -0.565  11.057   6.627 -0.5002 -0.4849 -0.6132
 1019MOL0     H37505  -0.530  11.170   6.749  1.9310 -0.7021 -0.7355
 1019MOL0     H37506  -0.674  10.904   6.770 -0.4371 -0.8126  1.8697
 1019MOL0     H37507  -0.582  10.950   6.908 -0.3698 -0.8313  0.1161
 1019MOL0     H37508  -0.801  11.116   6.789  2.9086  2.1207 -0.8278
 1019MOL0     H37509  -0.813  11.008   6.920 -0.3076 -1.6808 -2.4048
 1019MOL0     H37510  -0.657  11.281   6.896  0.3449 -0.8685 -0.4386
 1019MOL0     H37511  -0.806  11.266   6.993 -0.8163 -0.2786  0.0968
 1019MOL0     H37512  -0.537  11.123   7.073 -0.8473 -1.4891 -1.2100
 1019MOL0     H37513  -0.690  11.135   7.159  1.3232  1.1351  1.3888
 1019MOL0     H37514  -0.667  11.380   7.164 -0.0286  0.3967  1.3881
 1019MOL0     H37515  -0.529  11.301   7.236  0.8949 -2.7843 -0.1898
 1019MOL0     H37516  -0.304  11.276   7.036 -0.1548  0.4551 -3.2012
 1019MOL0     H37517  -0.122  11.563   6.988 -1.2569  0.5889  0.1833
 1019MOL0     H37518  -0.131  11.391   6.968 -1.0316  0.5184  1.7073
 1019MOL0     H37519  -0.193  11.617   6.765  0.9379 -0.0300 -3.6285
 1019MOL0     H37520  -0.046  11.533   6.747 -0.9768  0.1686 -0.6579
 1019MOL0     H37521  -0.312  11.391   6.726 -0.8702  2.1718  1.5538
 1019MOL0     H37522  -0.147  11.336   6.688  0.0138  0.0687  1.0923
 1019MOL0     H37523  -0.118  11.502   6.502 -0.0724  0.3888  1.1211
 1019MOL0     H37524  -0.292  11.556   6.556 -1.1619 -2.0597 -2.1461
 1019MOL0     H37525  -0.508  11.540   6.558  1.6347 -0.8393  0.4959
 1019MOL0     H37526  -0.721  11.448   6.570  0.9885  0.1732  0.5889
 1019MOL0     H37527  -1.085  11.110   6.412 -0.3794  0.3521 -0.3351
 1019MOL0     H37528  -1.292  11.033   6.515 -0.4127 -0.7000  2.2229
 1019MOL0     H37529  -1.385  10.845   6.782  0.4417  0.3277 -1.8906
 1019MOL0     H37530  -1.216  10.902   6.826 -0.5544 -0.2186 -0.9084
 1019MOL0     H37531  -1.461  10.967   6.999 -0.0119  1.3988 -0.0748
 1019MOL0     H37532  -1.372  10.822   7.016 -0.0556  0.3781  0.4388
 1019MOL0     H37533  -1.160  10.960   7.041 -1.1060  0.1935 -4.7856
 1019MOL0     H37534  -1.261  11.101   7.076 -2.2541 -0.5814  1.4324
 1019MOL0     H37535  -1.283  10.846   7.226 -0.7887 -0.3200  3.7965
 1019MOL0     H37536  -1.388  10.995   7.251 -0.2449  0.5202  0.4288
 1019MOL0     H37537  -1.118  11.063   7.267  0.3635 -2.3657 -3.4717
 1019MOL0     H37538  -1.115  10.905   7.348  1.1910 -0.3925 -0.9906
 1019MOL0     H37539  -1.313  11.128   7.436  1.0675  1.6730 -0.6892
 1019MOL0     H37540  -1.281  10.979   7.520  1.8471  1.1814  2.8435
 1019MOL0     H37541  -1.111  11.226   7.489 -0.7845 -0.2777 -0.5456
 1019MOL0     H37542  -1.039  11.069   7.557  1.3435 -0.2114 -2.8035
 1019MOL0     H37543  -1.121  11.227   7.744 -3.7200  2.3724  0.9709
 1019MOL0     H37544  -1.273  11.242   7.651 -0.8843 -0.6168 -0.7447
 1019MOL0     H37545  -1.221  11.251   6.865  1.1711 -2.6453  2.4590
 1019MOL0     H37546  -0.999  11.340   6.746 -1.0672 -0.2513  0.1467
 1019MOL0     H37547  -0.610  11.106   6.347  1.7007  0.3323 -0.5328
 1019MOL0     H37548  -0.375  11.172   6.364 -0.3401 -0.4886  0.0775
 1019MOL0     H37549  -0.012  10.771   6.631  1.8269 -0.3541 -1.2206
 1019MOL0     H37550   0.137  10.757   6.458  0.0369 -1.0886  1.3169
 1019MOL0     H37551   0.223  11.035   6.049 -2.5462  0.5545 -0.8726
 1019MOL0     H37552   0.366  11.030   5.842 -2.1191 -0.7404 -2.8149
 1019MOL0     H37553   0.364  10.640   5.597  0.1849  1.8869 -2.5228
 1019MOL0     H37554   0.515  10.649   5.685 -1.8371 -0.7518  1.3868
 1019MOL0     H37555   0.588  10.650   5.462 -1.0900 -0.2041 -1.5574
 1019MOL0     H37556   0.597  10.825   5.497 -0.8840  2.3741 -1.5381
 1019MOL0     H37557   0.468  10.851   5.322  2.5663 -2.3930 -1.3451
 1019MOL0     H37558   0.334  10.770   5.398 -0.5308 -0.2999 -0.5939
 1019MOL0     H37559   0.428  10.542   5.328 -0.2355 -1.0659 -0.7302
 1019MOL0     H37560   0.366  10.656   5.201 -0.9739  0.3447  1.6306
 1019MOL0     H37561   0.782  10.667   5.123 -0.9350  0.0542 -2.2844
 1019MOL0     H37562   0.273  10.610   5.799 -1.1840 -2.7832  5.1605
 1019MOL0     H37563   0.178  10.487   5.940  3.4808  0.2022  0.2516
 1019MOL0     H37564   0.233  10.521   6.085 -0.8297 -0.7692  0.8807
 1019MOL0     H37565   0.053  10.547   6.056  0.1586  2.7808  2.4732
 1020MOL0     O37566  11.339   3.519  11.116 -0.1868  0.0384 -0.3589
 1020MOL0     C37567  11.421   3.435  11.061 -1.0561  0.2292  0.6319
 1020MOL0     O37568  11.558   3.451  11.063 -0.3244  0.1436  0.2870
 1020MOL0     C37569  11.604   3.557  11.152 -0.4944  0.2811 -0.0314
 1020MOL0     C37570  11.579   3.548  11.286 -0.5826  0.2829 -0.3034
 1020MOL0     C37571  11.616   3.652  11.380 -0.1822  0.0414 -0.2973
 1020MOL0     C37572  11.700   3.759  11.332 -0.0486  0.2978  0.1504
 1020MOL0     O37573  11.739   3.864  11.410 -0.0469 -0.9132 -0.6949
 1020MOL0     C37574  11.696   3.886  11.546  0.8307  0.0129 -0.7486
 1020MOL0     C37575  11.815   3.864  11.644  0.3882  0.0460  0.4272
 1020MOL0     C37576  11.825   3.960  11.761 -0.6073  0.2844  1.1808
 1020MOL0     C37577  11.731   3.945  11.873 -0.7222  0.2517  0.0145
 1020MOL0     C37578  11.682   4.080  11.921  0.2729  0.0064  0.0108
 1020MOL0     C37579  11.575   4.075  12.039 -0.9588 -0.1238  0.5672
 1020MOL0     C37580  11.643   4.049  12.172 -0.7921  1.1869 -1.0424
 1020MOL0     C37581  11.548   4.057  12.297  0.1286 -1.0090  1.2197
 1020MOL0     N37582  11.470   3.933  12.298 -1.2040  0.0554  0.4326
 1020MOL0     C37583  11.513   3.816  12.350  1.0288  0.9766 -0.2949
 1020MOL0     C37584  11.404   3.733  12.350  0.0924  0.1797  0.2811
 1020MOL0     C37585  11.376   3.597  12.395  0.3152  1.1225  0.5546
 1020MOL0     C37586  11.439   3.557  12.533 -1.2773 -0.2591  0.5299
 1020MOL0     C37587  11.374   3.630  12.640 -0.6268  0.8985 -1.6087
 1020MOL0     C37588  11.440   3.595  12.780 -0.4656 -0.2665  0.9350
 1020MOL0     O37589  11.367   3.627  12.893  1.1785  0.2684 -0.3084
 1020MOL0     C37590  11.429   3.636  13.009  0.1486  0.3541 -0.2724
 1020MOL0     C37591  11.534   3.544  13.040  1.2087 -0.4510  0.3233
 1020MOL0     C37592  11.591   3.551  13.161 -0.2641 -0.7793 -0.2171
 1020MOL0     C37593  11.558   3.650  13.255  0.4874  0.0837 -0.7732
 1020MOL0     C37594  11.619   3.655  13.393 -0.0425 -0.5548  0.6571
 1020MOL0     O37595  11.708   3.555  13.415 -0.6004  0.0465 -0.0403
 1020MOL0     C37596  11.759   3.543  13.549 -0.1702 -1.3986  0.1152
 1020MOL0     C37597  11.829   3.649  13.620 -0.9412 -0.0346 -0.0351
 1020MOL0     C37598  11.877   3.619  13.751 -0.2729  0.2155  0.6884
 1020MOL0     C37599  11.850   3.495  13.816  0.1600  0.1760 -0.3085
 1020MOL0     O37600  11.877   3.496  13.951 -0.2843  0.2325  0.0812
 1020MOL0     C37601  11.787   3.424  14.040 -0.5473 -0.4905 -0.6745
 1020MOL0     C37602  11.822   3.436  14.191 -0.2058  0.5060 -0.3943
 1020MOL0     C37603  11.861   3.571  14.239  0.2075 -0.0510  0.6546
 1020MOL0     C37604  11.932   3.569  14.377  0.2012  0.8843 -0.5521
 1020MOL0     C37605  11.832   3.548  14.501  0.7687 -0.0681 -1.3094
 1020MOL0     C37606  11.754   3.418  14.507  0.0537 -0.5423 -0.1366
 1020MOL0     C37607  11.714   3.390  14.650  1.1185  0.9689 -0.4175
 1020MOL0     C37608  11.614   3.492  14.716 -1.2187  0.3437  0.5333
 1020MOL0    Cl37609  11.607   3.475  14.892 -0.1947 -0.1732 -0.1237
 1020MOL0     C37610  11.794   3.394  13.738 -0.3765 -1.0176  0.1636
 1020MOL0     C37611  11.760   3.417  13.601 -0.4886  0.2720 -1.0176
 1020MOL0     O37612  11.593   3.744  13.468  0.4181  0.1794 -0.2382
 1020MOL0     C37613  11.449   3.734  13.232 -0.3150 -0.3633  0.3313
 1020MOL0     C37614  11.386   3.728  13.108 -0.3077 -0.0325 -0.1959
 1020MOL0     N37615  11.297   3.807  12.300 -0.5548  0.0221 -0.7066
 1020MOL0     N37616  11.337   3.923  12.268 -0.6696  0.4985  0.0503
 1020MOL0     C37617  11.710   3.775  11.187  0.1518  0.7439  0.1393
 1020MOL0     C37618  11.660   3.675  11.094  0.6068  0.6010  1.1454
 1020MOL0     C37619  11.365   3.310  10.997 -1.5553 -0.4109  0.0948
 1020MOL0     C37620  11.449   3.253  10.897  0.6901 -0.2196  0.4212
 1020MOL0     C37621  11.394   3.151  10.812  0.0039  0.3081 -0.1314
 1020MOL0     C37622  11.278   3.087  10.839  0.4142  0.5706 -0.1206
 1020MOL0     O37623  11.238   2.988  10.755 -0.3124  0.2254  0.7334
 1020MOL0     C37624  11.111   2.918  10.782 -0.2178  0.7194 -0.1071
 1020MOL0     C37625  11.067   2.852  10.650 -0.1195  0.5469 -0.0906
 1020MOL0     C37626  10.941   2.761  10.651  0.3332 -1.1229 -1.0126
 1020MOL0     C37627  10.861   2.780  10.518 -0.0819  0.0323  0.4163
 1020MOL0     C37628  10.719   2.744  10.551 -0.1816 -0.4145  0.2785
 1020MOL0     C37629  10.599   2.712  10.561 -0.6276 -0.0929 -0.1683
 1020MOL0     C37630  11.207   3.140  10.953  0.0171  0.0204  0.0621
 1020MOL0     C37631  11.247   3.250  11.022  0.4646  0.4532 -0.1887
 1020MOL0     C37632  11.151   3.288  11.132  0.2841  0.3663  0.0212
 1020MOL0     H37633  11.533   3.456  11.320 -0.9391  0.8877  0.8952
 1020MOL0     H37634  11.600   3.635  11.486  1.2664  1.1700  0.1333
 1020MOL0     H37635  11.655   3.987  11.557 -1.6745 -1.0031 -0.0168
 1020MOL0     H37636  11.623   3.820  11.596  0.0543 -0.1466 -2.0534
 1020MOL0     H37637  11.912   3.880  11.597 -0.3677  2.3642 -0.4902
 1020MOL0     H37638  11.799   3.760  11.676 -0.9292  0.0156 -0.2343
 1020MOL0     H37639  11.792   4.051  11.710 -1.8133 -1.8184 -2.1359
 1020MOL0     H37640  11.922   3.975  11.810  0.6001  1.3317 -1.3131
 1020MOL0     H37641  11.644   3.890  11.836 -0.1807  1.4209 -3.3273
 1020MOL0     H37642  11.784   3.901  11.958  2.7442  2.2685 -0.8807
 1020MOL0     H37643  11.769   4.135  11.958  0.2061  0.4785 -0.5199
 1020MOL0     H37644  11.634   4.135  11.839  1.4430  1.9046  0.5286
 1020MOL0     H37645  11.531   4.175  12.044 -0.6974 -0.0556  1.7640
 1020MOL0     H37646  11.496   4.011  11.997 -0.7080  0.5130 -0.9415
 1020MOL0     H37647  11.726   4.119  12.180  0.9734 -0.9703  3.0270
 1020MOL0     H37648  11.689   3.950  12.161 -0.6678  1.0914  0.1819
 1020MOL0     H37649  11.586   4.073  12.398  0.0317 -0.6269  1.1971
 1020MOL0     H37650  11.484   4.142  12.270  0.8116 -1.1869 -1.2575
 1020MOL0     H37651  11.610   3.781  12.384  1.1248  0.9158 -0.6218
 1020MOL0     H37652  11.268   3.592  12.402 -0.0535  0.5676 -3.2447
 1020MOL0     H37653  11.412   3.530  12.316 -0.8885  2.7298 -1.4676
 1020MOL0     H37654  11.428   3.449  12.541  2.1459 -0.8987 -1.4990
 1020MOL0     H37655  11.548   3.570  12.527 -1.2374 -1.3460 -3.1989
 1020MOL0     H37656  11.269   3.602  12.645  0.0913 -1.9573 -0.2906
 1020MOL0     H37657  11.385   3.738  12.621 -0.5660  1.2908  0.3994
 1020MOL0     H37658  11.535   3.650  12.786 -0.2700 -0.6173  1.0702
 1020MOL0     H37659  11.456   3.487  12.778  2.1147  0.0236  1.9859
 1020MOL0     H37660  11.557   3.454  12.983  2.9656  0.7654 -0.9934
 1020MOL0     H37661  11.661   3.473  13.191 -2.0434 -1.5424  2.2480
 1020MOL0     H37662  11.852   3.747  13.580  2.5021  0.3723  2.4797
 1020MOL0     H37663  11.906   3.711  13.800 -3.3384  2.3811 -1.2004
 1020MOL0     H37664  11.685   3.464  14.044 -0.9136 -1.4613  0.0804
 1020MOL0     H37665  11.784   3.320  14.008 -0.2628 -0.0518 -2.1688
 1020MOL0     H37666  11.735   3.393  14.242  0.2823 -1.8526 -1.3772
 1020MOL0     H37667  11.908   3.370  14.207  2.3616  2.9556 -2.9714
 1020MOL0     H37668  11.928   3.613  14.162  1.1194 -0.0596  1.4210
 1020MOL0     H37669  11.774   3.636  14.243  0.1103 -0.0925 -0.3776
 1020MOL0     H37670  11.969   3.668  14.404  1.0436 -0.5677  4.8546
 1020MOL0     H37671  12.015   3.499  14.382  2.3399  3.2336 -1.1360
 1020MOL0     H37672  11.759   3.629  14.503 -0.2898 -1.0018  0.9589
 1020MOL0     H37673  11.882   3.563  14.596 -0.9525  2.4510 -0.7016
 1020MOL0     H37674  11.671   3.418  14.436 -0.3580  0.7543  0.3190
 1020MOL0     H37675  11.819   3.337  14.471 -2.1629 -1.6438 -1.8797
 1020MOL0     H37676  11.809   3.391  14.705  0.8302  0.7780  0.0942
 1020MOL0     H37677  11.672   3.290  14.657  1.9218  0.7383  2.3256
 1020MOL0     H37678  11.655   3.593  14.702  0.0385 -0.2341 -0.1604
 1020MOL0     H37679  11.520   3.484  14.661 -0.9683 -0.7251  0.2361
 1020MOL0     H37680  11.771   3.301  13.789 -1.3717 -0.3305  1.0325
 1020MOL0     H37681  11.716   3.335  13.545 -1.3413 -1.1643  1.6306
 1020MOL0     H37682  11.417   3.811  13.302 -1.7127 -2.0559  1.6547
 1020MOL0     H37683  11.311   3.801  13.080 -0.0028 -0.2917 -1.7298
 1020MOL0     H37684  11.755   3.864  11.144  0.2964 -0.5004 -2.4813
 1020MOL0     H37685  11.683   3.681  10.988  0.2280 -1.8699  0.8619
 1020MOL0     H37686  11.555   3.273  10.882  1.1773 -2.5827  0.3920
 1020MOL0     H37687  11.464   3.108  10.742  3.3798  1.2300  2.4458
 1020MOL0     H37688  11.028   2.984  10.809  1.1238  1.6018  2.1285
 1020MOL0     H37689  11.112   2.849  10.867 -3.1844  2.2309  1.3226
 1020MOL0     H37690  11.154   2.792  10.623 -1.4451 -1.4460 -0.0790
 1020MOL0     H37691  11.054   2.923  10.567 -1.9954 -1.1019 -1.2969
 1020MOL0     H37692  10.875   2.796  10.730 -0.7201 -2.5273 -1.2252
 1020MOL0     H37693  10.978   2.659  10.654  0.2600 -1.1760 -1.6106
 1020MOL0     H37694  10.859   2.886  10.491  4.5462  0.1247 -0.4505
 1020MOL0     H37695  10.894   2.715  10.436  0.4013  0.9294 -0.1145
 1020MOL0     H37696  10.501   2.671  10.548 -0.1352 -0.3182 -4.7013
 1020MOL0     H37697  11.112   3.094  10.978  1.1073 -1.0713  2.4493
 1020MOL0     H37698  11.198   3.313  11.228 -1.6724 -2.7445  2.0059
 1020MOL0     H37699  11.076   3.363  11.107  0.8166  0.4018 -1.5584
 1020MOL0     H37700  11.087   3.200  11.145 -2.7014  2.2445 -1.0003
 1021MOL0     O37701   4.688   0.187   2.481  0.1980 -0.0848 -0.2592
 1021MOL0     C37702   4.739   0.226   2.375  0.0520  0.0457  0.6217
 1021MOL0     O37703   4.837   0.327   2.367  0.1890  0.0344  0.4344
 1021MOL0     C37704   4.908   0.391   2.468  0.6761  0.2945 -0.7455
 1021MOL0     C37705   4.936   0.337   2.595 -0.4606 -0.1815 -0.2619
 1021MOL0     C37706   5.014   0.408   2.693 -0.7933  0.1508 -0.2776
 1021MOL0     C37707   5.057   0.537   2.660 -0.1728 -1.2168  0.0993
 1021MOL0     O37708   5.129   0.610   2.751  0.2753 -0.2987 -0.5266
 1021MOL0     C37709   5.199   0.736   2.722 -0.3469 -0.2000  0.1597
 1021MOL0     C37710   5.338   0.739   2.789  0.2242  0.1449 -0.1919
 1021MOL0     C37711   5.323   0.748   2.946 -0.7189  1.0639  0.0285
 1021MOL0     C37712   5.481   0.768   3.001  0.3955  0.8157  0.4244
 1021MOL0     C37713   5.490   0.795   3.148  0.2298 -0.3238  0.1409
 1021MOL0     C37714   5.629   0.815   3.179 -0.4722  0.0668 -1.2227
 1021MOL0     C37715   5.639   0.831   3.334 -0.2547 -0.4279 -0.9164
 1021MOL0     C37716   5.764   0.917   3.373 -0.3359  0.2185 -1.2143
 1021MOL0     N37717   5.893   0.882   3.315 -1.0746  0.3222  0.3253
 1021MOL0     C37718   5.999   0.793   3.345 -0.0130 -0.6123 -0.7028
 1021MOL0     C37719   6.094   0.813   3.265  0.3647 -0.1840  0.7201
 1021MOL0     C37720   6.233   0.753   3.258 -0.2257 -0.3955 -0.5911
 1021MOL0     C37721   6.287   0.723   3.400  0.1787 -0.1835 -0.1009
 1021MOL0     C37722   6.428   0.783   3.437 -0.1254 -0.0664  0.5298
 1021MOL0     C37723   6.530   0.755   3.339 -0.5267 -0.3235 -0.3512
 1021MOL0     O37724   6.638   0.685   3.396 -0.4231 -0.3160  0.7265
 1021MOL0     C37725   6.677   0.570   3.339 -0.2092  0.0477 -0.4035
 1021MOL0     C37726   6.705   0.464   3.420  0.2912 -0.0285  0.2317
 1021MOL0     C37727   6.767   0.351   3.369 -0.5430 -0.8164 -0.7454
 1021MOL0     C37728   6.793   0.348   3.235 -0.1420  0.6349 -0.3355
 1021MOL0     C37729   6.866   0.243   3.182 -0.1724 -0.1666  0.4393
 1021MOL0     O37730   6.975   0.210   3.249  0.7169 -0.1823 -0.6561
 1021MOL0     C37731   7.066   0.113   3.222  0.0418  0.4456  1.8515
 1021MOL0     C37732   7.192   0.154   3.221 -0.2967  0.9937 -0.3394
 1021MOL0     C37733   7.297   0.066   3.191  0.2477  0.2357 -0.8958
 1021MOL0     C37734   7.275  -0.071   3.176  0.5106  1.0825 -0.6579
 1021MOL0     O37735   7.371  -0.158   3.137 -0.5469  0.6621  0.2855
 1021MOL0     C37736   7.495  -0.153   3.198 -0.4793  0.2530  0.3112
 1021MOL0     C37737   7.547  -0.297   3.231 -0.1100 -0.0434  0.6587
 1021MOL0     C37738   7.638  -0.348   3.118 -1.0626  0.2220  0.0963
 1021MOL0     C37739   7.705  -0.487   3.151  1.0462  0.1072  0.1341
 1021MOL0     C37740   7.781  -0.544   3.032  0.0773 -0.5115 -0.2915
 1021MOL0     C37741   7.899  -0.451   2.984 -0.8103 -0.3514  0.8869
 1021MOL0     C37742   8.003  -0.397   3.081 -0.5148  0.4747 -0.5643
 1021MOL0     C37743   8.119  -0.495   3.082 -0.2477 -0.0110  0.5520
 1021MOL0    Cl37744   8.240  -0.439   3.201 -0.3772 -0.5350 -0.5435
 1021MOL0     C37745   7.139  -0.113   3.182  0.1983  0.2435  0.4890
 1021MOL0     C37746   7.038  -0.025   3.202  0.1930  0.9072 -0.0073
 1021MOL0     O37747   6.836   0.198   3.071 -0.0560 -0.1177  0.1629
 1021MOL0     C37748   6.758   0.451   3.147 -0.4442  1.0419 -0.4005
 1021MOL0     C37749   6.695   0.563   3.198  1.1407  0.1783 -0.1582
 1021MOL0     N37750   6.057   0.911   3.178  0.3296 -0.2617  0.3235
 1021MOL0     N37751   5.946   0.959   3.210  0.7378  0.4044 -0.6812
 1021MOL0     C37752   5.039   0.588   2.531 -0.7277  0.5978  0.2046
 1021MOL0     C37753   4.966   0.512   2.433  0.2891  0.4336  0.1224
 1021MOL0     C37754   4.708   0.157   2.250 -0.4799 -0.3758 -0.5072
 1021MOL0     C37755   4.594   0.069   2.241  0.1847 -0.0597 -0.4247
 1021MOL0     C37756   4.569  -0.003   2.133  0.4781  0.0140  0.1209
 1021MOL0     C37757   4.650  -0.007   2.021  0.3247  0.5656 -0.2541
 1021MOL0     O37758   4.617  -0.099   1.926  0.3194  0.1130 -0.1380
 1021MOL0     C37759   4.635  -0.050   1.793  0.0048 -0.7718 -0.0595
 1021MOL0     C37760   4.538  -0.124   1.706  0.1565 -1.2592  0.8728
 1021MOL0     C37761   4.559  -0.068   1.560  0.4861  0.3604  0.6531
 1021MOL0     C37762   4.440  -0.080   1.465 -0.1026 -0.2936 -0.4231
 1021MOL0     C37763   4.329   0.008   1.508  0.7472 -0.6625 -0.2919
 1021MOL0     C37764   4.241   0.069   1.557 -0.9015 -0.2258  0.2645
 1021MOL0     C37765   4.763   0.075   2.021 -0.4418 -0.9192 -0.1979
 1021MOL0     C37766   4.787   0.159   2.128  0.0177  0.1424 -0.5930
 1021MOL0     C37767   4.901   0.264   2.112  0.2674 -0.4563  1.0067
 1021MOL0     H37768   4.895   0.238   2.612 -0.6034  0.0894  1.1358
 1021MOL0     H37769   5.040   0.379   2.795 -0.7547 -0.6018 -0.4941
 1021MOL0     H37770   5.230   0.750   2.618  0.9166 -2.2152  0.2231
 1021MOL0     H37771   5.146   0.827   2.753  3.2818  2.1410  0.1077
 1021MOL0     H37772   5.393   0.826   2.753  0.6465 -0.2608 -0.5290
 1021MOL0     H37773   5.409   0.659   2.767 -0.2128  0.0363 -1.2721
 1021MOL0     H37774   5.287   0.659   3.000 -1.3599  1.4236  0.2050
 1021MOL0     H37775   5.259   0.828   2.984 -1.2964  0.0114  1.3752
 1021MOL0     H37776   5.544   0.682   2.974  0.5707  1.0676  0.0147
 1021MOL0     H37777   5.530   0.850   2.947  0.0088  0.3969 -0.5879
 1021MOL0     H37778   5.431   0.879   3.186 -0.9974 -1.8297  1.7474
 1021MOL0     H37779   5.453   0.707   3.202 -2.7852  0.4339 -0.5183
 1021MOL0     H37780   5.684   0.724   3.155 -1.0055 -0.7990  0.6519
 1021MOL0     H37781   5.672   0.905   3.133  0.3597  1.7471  2.4184
 1021MOL0     H37782   5.645   0.728   3.371 -1.8917 -0.0723  0.4231
 1021MOL0     H37783   5.562   0.885   3.390  1.7999  0.4188  1.2698
 1021MOL0     H37784   5.735   1.021   3.360 -0.5292  0.5034  1.0716
 1021MOL0     H37785   5.774   0.903   3.481 -1.1108  3.6817 -0.5848
 1021MOL0     H37786   6.004   0.729   3.432  2.1382 -0.0710 -0.3555
 1021MOL0     H37787   6.235   0.666   3.192  1.3418 -2.7548  2.3075
 1021MOL0     H37788   6.282   0.837   3.209 -2.5556  1.1398 -0.4472
 1021MOL0     H37789   6.220   0.750   3.482  3.9302 -1.1971  3.5830
 1021MOL0     H37790   6.307   0.615   3.403 -1.0469 -0.4058  1.8509
 1021MOL0     H37791   6.461   0.749   3.535  1.3594  2.7114  1.0781
 1021MOL0     H37792   6.409   0.891   3.435 -1.5959 -0.3175 -1.1798
 1021MOL0     H37793   6.566   0.851   3.301  0.7470 -1.5364 -2.3737
 1021MOL0     H37794   6.490   0.703   3.252 -1.3403  0.2805 -0.3552
 1021MOL0     H37795   6.693   0.476   3.528  1.8977 -0.3795  0.4688
 1021MOL0     H37796   6.794   0.277   3.444  0.4962  0.4075  0.1374
 1021MOL0     H37797   7.226   0.257   3.228  0.3690  0.9728 -2.5869
 1021MOL0     H37798   7.395   0.102   3.163  0.7804 -0.7455 -0.3420
 1021MOL0     H37799   7.566  -0.097   3.136 -0.9131 -1.1661 -1.5973
 1021MOL0     H37800   7.504  -0.106   3.296  1.5939 -0.6186  0.5980
 1021MOL0     H37801   7.614  -0.285   3.317  1.8045  1.7921 -0.9628
 1021MOL0     H37802   7.466  -0.369   3.239  1.7100 -2.2335  0.3730
 1021MOL0     H37803   7.592  -0.349   3.019  1.8916 -0.3141 -1.3863
 1021MOL0     H37804   7.717  -0.273   3.109  2.1757 -2.7095  1.5735
 1021MOL0     H37805   7.635  -0.566   3.181  3.1707 -1.0560  2.4370
 1021MOL0     H37806   7.774  -0.492   3.237 -0.3833 -0.1016  1.3037
 1021MOL0     H37807   7.701  -0.571   2.963 -1.1928  0.1515  0.8706
 1021MOL0     H37808   7.826  -0.638   3.065  1.8059  1.4542  3.7401
 1021MOL0     H37809   7.959  -0.498   2.906 -0.1797 -0.5844  1.4983
 1021MOL0     H37810   7.837  -0.368   2.949 -3.7466 -0.0488  5.8264
 1021MOL0     H37811   7.960  -0.391   3.181  0.9783 -0.5251  0.1912
 1021MOL0     H37812   8.037  -0.295   3.060  0.9349 -0.3321 -2.5717
 1021MOL0     H37813   8.095  -0.597   3.114  2.0651 -0.4634  1.0773
 1021MOL0     H37814   8.150  -0.501   2.977  1.3943 -0.8105  1.0390
 1021MOL0     H37815   7.113  -0.217   3.164  1.4782  0.0505 -0.3692
 1021MOL0     H37816   6.932  -0.046   3.218  0.0214 -0.0101 -2.1330
 1021MOL0     H37817   6.782   0.436   3.043 -1.1914 -0.2404 -0.4024
 1021MOL0     H37818   6.656   0.639   3.130  0.0823  0.0424  0.2699
 1021MOL0     H37819   5.070   0.686   2.497 -1.0565  0.9374  0.8535
 1021MOL0     H37820   4.972   0.556   2.333 -0.0064  0.6302  0.1899
 1021MOL0     H37821   4.518   0.071   2.318  0.3949 -0.8193 -0.1874
 1021MOL0     H37822   4.473  -0.053   2.120  0.2772  0.5805 -0.6574
 1021MOL0     H37823   4.740  -0.055   1.763  0.6553 -1.8960  2.1467
 1021MOL0     H37824   4.602   0.054   1.785 -0.9995 -1.0849 -0.1484
 1021MOL0     H37825   4.439  -0.106   1.749 -0.6282 -1.4350 -0.7896
 1021MOL0     H37826   4.556  -0.232   1.709  1.4152 -1.2223 -1.8386
 1021MOL0     H37827   4.647  -0.111   1.511  0.8318  3.8286 -2.1306
 1021MOL0     H37828   4.569   0.040   1.565 -2.2331  0.7396 -0.4983
 1021MOL0     H37829   4.465  -0.044   1.365 -3.4760  2.0210 -0.5787
 1021MOL0     H37830   4.410  -0.185   1.458 -0.6842 -0.0902 -1.1852
 1021MOL0     H37831   4.165   0.122   1.609 -1.3869 -0.0968 -0.5608
 1021MOL0     H37832   4.821   0.068   1.929  0.5423 -0.0308  0.3350
 1021MOL0     H37833   4.947   0.257   2.013  2.4632 -0.4958  1.9825
 1021MOL0     H37834   4.863   0.365   2.129  0.2726 -0.2333 -0.1924
 1021MOL0     H37835   4.980   0.249   2.186  2.1868  0.6773 -0.7117
 1022MOL0     O37836   6.899   5.186   0.965  0.2669  0.4976 -0.5124
 1022MOL0     C37837   6.931   5.208   1.084  0.5715 -0.3594  0.7642
 1022MOL0     O37838   6.898   5.318   1.154 -0.3367 -0.3613  0.2638
 1022MOL0     C37839   6.851   5.425   1.083  0.2421  0.5969  0.6406
 1022MOL0     C37840   6.714   5.454   1.099 -0.0691  0.4262 -0.3377
 1022MOL0     C37841   6.651   5.553   1.016 -0.1538 -0.2252  0.6328
 1022MOL0     C37842   6.726   5.620   0.917 -0.0530  0.1987 -1.2000
 1022MOL0     O37843   6.663   5.717   0.844 -0.0629 -0.5861 -0.2976
 1022MOL0     C37844   6.740   5.829   0.811 -0.2526  0.1635  0.3567
 1022MOL0     C37845   6.777   5.931   0.926 -1.0266  0.4017  0.9479
 1022MOL0     C37846   6.666   5.941   1.036 -0.2115  0.7693 -0.5593
 1022MOL0     C37847   6.535   6.007   0.978  0.6237  0.0943 -0.5498
 1022MOL0     C37848   6.430   6.002   1.086 -0.1929  0.4353 -1.1248
 1022MOL0     C37849   6.317   6.104   1.051 -0.3182  0.1588  0.5391
 1022MOL0     C37850   6.217   6.122   1.170 -0.8736  0.2347  0.9615
 1022MOL0     C37851   6.093   6.201   1.136  0.3528 -0.5167  0.5935
 1022MOL0     N37852   5.991   6.182   1.235 -0.4827 -0.3272  1.0400
 1022MOL0     C37853   5.906   6.079   1.236 -0.2333  0.5321 -0.0051
 1022MOL0     C37854   5.841   6.080   1.350 -0.1905 -0.2990  0.1773
 1022MOL0     C37855   5.738   5.977   1.391 -0.1263  0.2991 -0.8353
 1022MOL0     C37856   5.597   6.042   1.379 -0.3671  0.4984 -0.5528
 1022MOL0     C37857   5.561   6.114   1.242  0.6065 -1.2476  0.4926
 1022MOL0     C37858   5.579   6.024   1.115  0.1288 -0.9711  0.2662
 1022MOL0     O37859   5.500   5.904   1.133  0.5693 -0.3699  0.3808
 1022MOL0     C37860   5.366   5.930   1.128 -0.4079 -0.3547 -0.9493
 1022MOL0     C37861   5.306   6.015   1.033 -0.0716 -0.0976 -0.1876
 1022MOL0     C37862   5.175   6.048   1.028 -0.2306 -0.2152  0.6318
 1022MOL0     C37863   5.088   5.995   1.117 -0.3059 -0.0456 -0.7258
 1022MOL0     C37864   4.953   6.036   1.109 -0.0095 -0.2697  0.0193
 1022MOL0     O37865   4.915   6.106   1.000 -0.4556 -1.3740  0.4524
 1022MOL0     C37866   4.777   6.125   0.995 -0.3562 -0.4723  0.4552
 1022MOL0     C37867   4.690   6.040   0.923 -0.8521 -0.7270 -0.3477
 1022MOL0     C37868   4.552   6.072   0.921 -0.0250 -0.0594  0.0066
 1022MOL0     C37869   4.497   6.180   0.995 -0.3863 -0.8791 -0.0278
 1022MOL0     O37870   4.364   6.216   1.002 -0.1062 -0.2540  0.6784
 1022MOL0     C37871   4.273   6.154   0.902 -0.3208 -0.4825 -0.8258
 1022MOL0     C37872   4.221   6.025   0.968  0.4397 -0.2026  0.2857
 1022MOL0     C37873   4.129   5.950   0.870  0.4146 -0.2404 -0.7148
 1022MOL0     C37874   4.204   5.887   0.753  0.3622 -0.5184 -0.0076
 1022MOL0     C37875   4.114   5.777   0.680  0.1020 -0.4558 -0.4646
 1022MOL0     C37876   4.191   5.729   0.560  0.2983 -0.2400  0.3038
 1022MOL0     C37877   4.141   5.602   0.507  0.5722  0.4833 -0.2279
 1022MOL0     C37878   3.996   5.612   0.448 -0.8160 -0.6031 -0.8837
 1022MOL0    Cl37879   3.964   5.457   0.370 -0.0471  0.1341 -0.0336
 1022MOL0     C37880   4.588   6.258   1.061  0.9019 -0.5451  0.5257
 1022MOL0     C37881   4.721   6.229   1.065 -0.2950 -0.7788  0.2964
 1022MOL0     O37882   4.873   5.993   1.196 -1.0165  0.9222  0.6696
 1022MOL0     C37883   5.136   5.902   1.214 -0.7914  1.0273  0.2302
 1022MOL0     C37884   5.269   5.877   1.222 -0.1984  0.4719  0.6206
 1022MOL0     N37885   5.878   6.193   1.418 -0.4654  0.1411  1.1460
 1022MOL0     N37886   5.966   6.258   1.347  0.9226 -0.1038 -1.3254
 1022MOL0     C37887   6.868   5.594   0.913  0.5478  0.3735  0.8284
 1022MOL0     C37888   6.933   5.502   0.998  0.9586 -0.4432  0.8032
 1022MOL0     C37889   7.003   5.099   1.157 -0.3543  0.4112 -0.3537
 1022MOL0     C37890   6.991   5.085   1.299 -0.4356 -0.8318  0.4182
 1022MOL0     C37891   7.045   4.979   1.376  0.2033 -0.2762  0.5507
 1022MOL0     C37892   7.115   4.878   1.301  0.1401 -0.4568 -0.4668
 1022MOL0     O37893   7.160   4.760   1.357  0.1302  0.5711  0.2882
 1022MOL0     C37894   7.136   4.733   1.495 -0.1941 -0.0463 -0.4248
 1022MOL0     C37895   7.206   4.604   1.535 -0.1296 -0.1314  0.0089
 1022MOL0     C37896   7.352   4.600   1.508  0.7702 -0.1458  0.4766
 1022MOL0     C37897   7.430   4.484   1.559 -0.1942 -1.0013 -0.3721
 1022MOL0     C37898   7.417   4.367   1.469  0.3201  0.7520  0.0241
 1022MOL0     C37899   7.408   4.274   1.383  0.4189 -0.3371  0.6245
 1022MOL0     C37900   7.138   4.898   1.160 -0.2922  0.6502 -0.9505
 1022MOL0     C37901   7.093   5.012   1.094  0.1429  0.3158 -0.2352
 1022MOL0     C37902   7.132   5.035   0.946  0.0995 -0.0521 -0.1414
 1022MOL0     H37903   6.652   5.403   1.172 -1.1995  2.0655 -0.0958
 1022MOL0     H37904   6.544   5.570   1.011  0.1960  2.0813 -0.2596
 1022MOL0     H37905   6.833   5.797   0.764 -0.6098  0.3183 -0.4841
 1022MOL0     H37906   6.695   5.881   0.726  1.2876  1.6087  0.3695
 1022MOL0     H37907   6.788   6.031   0.882  1.5871  1.1823  3.0502
 1022MOL0     H37908   6.871   5.903   0.974  0.0778  1.0136 -0.7463
 1022MOL0     H37909   6.706   6.006   1.115  1.3957 -1.4713  0.5768
 1022MOL0     H37910   6.641   5.849   1.089  0.2904 -1.6268 -4.1600
 1022MOL0     H37911   6.558   6.110   0.948  0.5247 -0.0222 -1.0300
 1022MOL0     H37912   6.511   5.948   0.889 -2.2280 -2.2347  1.5872
 1022MOL0     H37913   6.386   5.903   1.098  0.7858 -0.0894 -1.8313
 1022MOL0     H37914   6.463   6.027   1.187 -0.2146  0.1524 -1.0468
 1022MOL0     H37915   6.369   6.197   1.026 -0.0695 -0.5441 -1.7197
 1022MOL0     H37916   6.263   6.084   0.958  1.9683  3.4869 -1.7166
 1022MOL0     H37917   6.276   6.182   1.241 -0.1566  1.3665 -0.5164
 1022MOL0     H37918   6.197   6.020   1.202  1.3743 -1.1149 -1.4698
 1022MOL0     H37919   6.108   6.309   1.126  0.3795 -0.6676 -1.1396
 1022MOL0     H37920   6.057   6.164   1.040  0.5307 -0.7253  0.6055
 1022MOL0     H37921   5.906   5.990   1.174  1.6076 -0.2280  0.9809
 1022MOL0     H37922   5.753   5.893   1.323 -1.0614 -0.5611 -0.0274
 1022MOL0     H37923   5.771   5.950   1.492  2.1993 -0.9601 -1.8439
 1022MOL0     H37924   5.524   5.967   1.409 -0.4662  0.4940 -0.7995
 1022MOL0     H37925   5.585   6.119   1.456 -1.2842 -1.1033  0.9845
 1022MOL0     H37926   5.630   6.198   1.229  0.7402 -1.2984  0.8670
 1022MOL0     H37927   5.457   6.145   1.256 -0.6344 -5.2468  1.3852
 1022MOL0     H37928   5.680   5.986   1.094 -0.5959 -1.2866 -3.3873
 1022MOL0     H37929   5.547   6.073   1.022 -0.8394 -1.6422  0.2375
 1022MOL0     H37930   5.367   6.061   0.956 -1.2446  1.4657 -0.2272
 1022MOL0     H37931   5.146   6.141   0.980 -0.2376 -0.2827  0.5037
 1022MOL0     H37932   4.723   5.954   0.865 -0.9516  0.4429 -2.2263
 1022MOL0     H37933   4.500   6.003   0.855  0.2793  0.8200 -1.1914
 1022MOL0     H37934   4.193   6.225   0.883 -2.9719 -2.6073  1.4821
 1022MOL0     H37935   4.328   6.130   0.811  0.6277 -2.4313  0.1892
 1022MOL0     H37936   4.306   5.964   1.000  1.8247  1.4327 -0.1017
 1022MOL0     H37937   4.158   6.051   1.053 -2.7987 -3.5774 -0.7960
 1022MOL0     H37938   4.085   5.863   0.920  0.1975 -0.6698 -1.6350
 1022MOL0     H37939   4.052   6.023   0.846  0.1675  1.6966  4.6156
 1022MOL0     H37940   4.285   5.828   0.797 -0.3277 -0.2253  1.7553
 1022MOL0     H37941   4.239   5.962   0.682 -3.6556  2.2093  0.5328
 1022MOL0     H37942   4.019   5.822   0.651  0.4699 -0.4060 -1.6429
 1022MOL0     H37943   4.095   5.688   0.741  1.2137 -1.2158 -1.1894
 1022MOL0     H37944   4.173   5.792   0.473 -4.2594 -3.2192 -1.2786
 1022MOL0     H37945   4.294   5.726   0.597  0.4300  0.5789  0.0210
 1022MOL0     H37946   4.147   5.527   0.586 -1.4552  1.4090  0.8689
 1022MOL0     H37947   4.214   5.579   0.429  2.0824 -0.9881  1.5403
 1022MOL0     H37948   3.923   5.623   0.530  1.2350  1.0860  0.8389
 1022MOL0     H37949   3.987   5.706   0.393  1.8664 -1.1431 -2.3953
 1022MOL0     H37950   4.540   6.340   1.114 -1.7071 -0.8766 -1.1458
 1022MOL0     H37951   4.791   6.298   1.111 -2.5580  2.0559 -0.2061
 1022MOL0     H37952   5.072   5.860   1.291  1.0151  2.4352  2.6400
 1022MOL0     H37953   5.296   5.806   1.300  0.7745  1.0611  0.8430
 1022MOL0     H37954   6.932   5.643   0.840 -0.2374  2.9109  1.7340
 1022MOL0     H37955   7.037   5.480   0.978  1.4589  2.0834  0.2911
 1022MOL0     H37956   6.937   5.165   1.349 -1.8397 -2.2850  1.3232
 1022MOL0     H37957   7.020   4.971   1.482  1.6257 -1.0357  0.8547
 1022MOL0     H37958   7.030   4.709   1.505  0.1809 -3.4479 -2.9382
 1022MOL0     H37959   7.173   4.812   1.562  1.5907 -0.6712 -0.6296
 1022MOL0     H37960   7.153   4.527   1.478 -1.6703 -0.1580  1.3990
 1022MOL0     H37961   7.186   4.579   1.640 -1.3739 -1.0965 -0.4206
 1022MOL0     H37962   7.399   4.697   1.526  1.7773 -0.9716  2.6091
 1022MOL0     H37963   7.362   4.600   1.399 -0.3448  0.5273  0.3568
 1022MOL0     H37964   7.539   4.497   1.554 -0.2273 -0.1160  0.7581
 1022MOL0     H37965   7.407   4.464   1.664  0.6285  0.1263  0.0463
 1022MOL0     H37966   7.394   4.204   1.303  0.0719  1.1267 -0.6481
 1022MOL0     H37967   7.194   4.820   1.110  0.7437  0.8929 -0.1885
 1022MOL0     H37968   7.150   5.142   0.931 -2.3241  0.8476  2.4289
 1022MOL0     H37969   7.220   4.974   0.923  0.3884  0.0070  0.7491
 1022MOL0     H37970   7.059   5.002   0.873  2.6568  1.1704 -3.5007
 1023MOL0     O37971   9.211   2.840   0.522 -0.2717  0.2406  0.0627
 1023MOL0     C37972   9.261   2.860   0.636  0.8430  0.3624 -0.2652
 1023MOL0     O37973   9.241   2.777   0.735 -0.5143 -0.0234  0.3488
 1023MOL0     C37974   9.156   2.672   0.734 -0.1636 -0.2956 -0.0336
 1023MOL0     C37975   9.020   2.691   0.705 -0.3008  0.1411 -0.0829
 1023MOL0     C37976   8.940   2.582   0.712  0.0150  0.0176 -0.9792
 1023MOL0     C37977   8.983   2.462   0.769 -0.1457 -0.3366 -0.8369
 1023MOL0     O37978   8.894   2.351   0.783 -0.5524 -0.4854  0.3506
 1023MOL0     C37979   8.758   2.378   0.820  0.4326  0.4753 -0.2000
 1023MOL0     C37980   8.679   2.241   0.814  0.3226  0.1445 -0.0416
 1023MOL0     C37981   8.743   2.140   0.918  1.0432 -0.2864 -0.2923
 1023MOL0     C37982   8.745   2.005   0.842  0.0359 -0.1957  0.2873
 1023MOL0     C37983   8.618   1.918   0.880 -0.4270  0.4366 -0.5266
 1023MOL0     C37984   8.607   1.804   0.776  0.2942 -0.1103 -0.2720
 1023MOL0     C37985   8.720   1.705   0.787 -0.4976 -0.3552  0.1907
 1023MOL0     C37986   8.674   1.591   0.698 -1.0212 -1.1837  0.6158
 1023MOL0     N37987   8.772   1.486   0.690  0.3318  0.3513 -0.1952
 1023MOL0     C37988   8.905   1.502   0.664  0.3973  0.6694 -0.4998
 1023MOL0     C37989   8.957   1.375   0.644 -0.1578 -1.6997 -0.1720
 1023MOL0     C37990   9.095   1.330   0.613 -0.2932  0.4752 -1.0355
 1023MOL0     C37991   9.192   1.413   0.700  0.0643 -1.1019 -0.0776
 1023MOL0     C37992   9.344   1.371   0.708 -0.3904  0.9727  0.0519
 1023MOL0     C37993   9.364   1.228   0.766 -0.8377 -0.1344  0.1322
 1023MOL0     O37994   9.289   1.231   0.893 -0.1958  0.6492 -0.2937
 1023MOL0     C37995   9.304   1.123   0.977 -0.2035  0.1068  0.2277
 1023MOL0     C37996   9.260   1.132   1.113  0.3100  0.0188 -0.4763
 1023MOL0     C37997   9.288   1.037   1.210  0.6782  0.8615 -0.3314
 1023MOL0     C37998   9.349   0.917   1.171 -0.4902 -0.0888  0.3219
 1023MOL0     C37999   9.353   0.801   1.255  0.1146  0.8736 -0.5712
 1023MOL0     O38000   9.243   0.784   1.337 -0.7387  0.1543 -0.0861
 1023MOL0     C38001   9.239   0.676   1.420 -0.3095  0.1325 -0.8914
 1023MOL0     C38002   9.277   0.543   1.374  0.0737 -1.2114 -0.6802
 1023MOL0     C38003   9.294   0.436   1.460  1.5759  0.0722  0.4670
 1023MOL0     C38004   9.254   0.461   1.592  0.3534  0.0575 -0.8628
 1023MOL0     O38005   9.242   0.357   1.682 -0.5794  0.0018 -0.7821
 1023MOL0     C38006   9.110   0.309   1.711 -0.7890  0.4531 -0.0111
 1023MOL0     C38007   9.118   0.159   1.728 -0.0043  0.8744  0.2768
 1023MOL0     C38008   8.991   0.090   1.761 -0.2863 -0.9804 -0.5128
 1023MOL0     C38009   8.999  -0.066   1.757 -0.2711 -0.4120  0.1027
 1023MOL0     C38010   8.869  -0.145   1.763 -0.6736 -0.6958  0.3302
 1023MOL0     C38011   8.807  -0.150   1.901 -1.1670  0.3362 -0.9267
 1023MOL0     C38012   8.683  -0.240   1.896  0.0011 -0.5750 -0.0042
 1023MOL0     C38013   8.567  -0.189   1.812  0.2860 -0.3554  1.1075
 1023MOL0    Cl38014   8.552  -0.023   1.807 -0.1844  0.1539 -0.2989
 1023MOL0     C38015   9.219   0.589   1.644  0.4119  0.8433 -0.5742
 1023MOL0     C38016   9.214   0.697   1.552  1.1555 -0.3887 -0.1983
 1023MOL0     O38017   9.455   0.727   1.250 -0.7402 -0.7191  1.0734
 1023MOL0     C38018   9.384   0.895   1.031  0.2553  0.1399  0.1280
 1023MOL0     C38019   9.361   0.994   0.933  0.2101  0.0519 -0.3545
 1023MOL0     N38020   8.849   1.288   0.650 -0.1986  0.4939  0.3459
 1023MOL0     N38021   8.748   1.358   0.677 -0.1122  0.4309  0.2606
 1023MOL0     C38022   9.116   2.445   0.799  0.2979 -0.2718 -1.0495
 1023MOL0     C38023   9.208   2.548   0.777  0.0868 -0.2212  0.0497
 1023MOL0     C38024   9.355   2.970   0.656  0.0795 -0.0345 -0.7362
 1023MOL0     C38025   9.446   3.007   0.554  0.1568 -0.3554  1.2209
 1023MOL0     C38026   9.536   3.108   0.571  0.9156 -0.4829 -0.3739
 1023MOL0     C38027   9.547   3.183   0.690 -0.1711 -0.5811 -0.0322
 1023MOL0     O38028   9.633   3.291   0.717 -0.5068 -0.5193 -0.6794
 1023MOL0     C38029   9.730   3.323   0.613 -0.1549 -0.1274 -0.6519
 1023MOL0     C38030   9.796   3.464   0.631  0.8697  1.3364  0.5378
 1023MOL0     C38031   9.882   3.485   0.764 -1.0395  0.3486 -0.0691
 1023MOL0     C38032   9.824   3.611   0.834  0.7701  0.6885  0.2953
 1023MOL0     C38033   9.902   3.630   0.965  0.4310 -0.3227  0.9235
 1023MOL0     C38034   9.949   3.656   1.073  0.0006  0.7320  0.0437
 1023MOL0     C38035   9.458   3.142   0.790 -0.0335  0.2657  0.4639
 1023MOL0     C38036   9.373   3.034   0.782  0.3619  0.9225  0.2765
 1023MOL0     C38037   9.267   3.026   0.888 -0.6688  0.1871  0.0535
 1023MOL0     H38038   8.995   2.793   0.676  0.2018  0.7835  1.6233
 1023MOL0     H38039   8.842   2.588   0.666 -0.2141  2.6317 -0.2934
 1023MOL0     H38040   8.761   2.411   0.925 -2.8631 -1.8789  0.7933
 1023MOL0     H38041   8.703   2.452   0.762 -1.1704 -2.1596 -2.2296
 1023MOL0     H38042   8.675   2.201   0.712 -0.4168  3.6629 -1.5321
 1023MOL0     H38043   8.577   2.250   0.853  0.0318 -2.3870 -0.0693
 1023MOL0     H38044   8.669   2.137   0.998 -1.0172  2.3730 -1.9333
 1023MOL0     H38045   8.841   2.163   0.962 -0.8829  1.3032  3.6266
 1023MOL0     H38046   8.761   2.006   0.734 -1.1759 -2.6992  0.0203
 1023MOL0     H38047   8.828   1.950   0.888  0.3613 -0.3946 -0.5364
 1023MOL0     H38048   8.632   1.895   0.986  0.8435  3.8858  0.1653
 1023MOL0     H38049   8.529   1.981   0.871 -1.0949 -0.5054 -0.7759
 1023MOL0     H38050   8.513   1.752   0.796 -2.4509  4.4527  0.1969
 1023MOL0     H38051   8.606   1.850   0.676  0.5194 -1.2376 -0.8136
 1023MOL0     H38052   8.738   1.653   0.882  0.5722  3.4796  2.2834
 1023MOL0     H38053   8.817   1.746   0.756 -1.9415  2.3233 -1.1010
 1023MOL0     H38054   8.590   1.543   0.750 -4.0862 -1.3652 -3.8943
 1023MOL0     H38055   8.644   1.628   0.599  2.5605 -1.2338 -0.6398
 1023MOL0     H38056   8.966   1.591   0.652 -1.2773  1.8493 -0.6105
 1023MOL0     H38057   9.109   1.228   0.648 -0.3486  0.6355 -0.5404
 1023MOL0     H38058   9.120   1.335   0.506 -2.8606  0.0809 -1.7261
 1023MOL0     H38059   9.193   1.517   0.666  1.0465 -0.7658  0.9177
 1023MOL0     H38060   9.155   1.428   0.801 -0.0264  3.7469 -0.5936
 1023MOL0     H38061   9.404   1.445   0.763  2.2561  0.7591 -2.3142
 1023MOL0     H38062   9.386   1.373   0.606 -1.2995 -0.8543 -0.3920
 1023MOL0     H38063   9.472   1.214   0.770 -0.9225 -1.0240 -0.3367
 1023MOL0     H38064   9.323   1.151   0.699  0.0964 -1.5415  1.1182
 1023MOL0     H38065   9.219   1.225   1.152 -1.2571 -1.5903  1.9846
 1023MOL0     H38066   9.256   1.061   1.311  1.0924  2.2508 -0.5124
 1023MOL0     H38067   9.295   0.525   1.268  1.5372  0.4994 -0.7613
 1023MOL0     H38068   9.301   0.341   1.409  0.6449  0.6997 -0.8947
 1023MOL0     H38069   9.079   0.356   1.805 -1.9790  2.7791 -1.4782
 1023MOL0     H38070   9.033   0.325   1.635 -0.6955 -0.7681 -0.3754
 1023MOL0     H38071   9.174   0.117   1.643  0.0119 -4.1532  2.4065
 1023MOL0     H38072   9.181   0.137   1.815  0.9454 -2.3719 -1.0537
 1023MOL0     H38073   8.969   0.125   1.863  0.0620  1.4920 -1.2333
 1023MOL0     H38074   8.911   0.118   1.693 -2.0266 -0.7348  1.5110
 1023MOL0     H38075   9.077  -0.104   1.823 -0.6324 -1.2232  0.0825
 1023MOL0     H38076   9.049  -0.087   1.662  1.3404 -3.4387  1.4734
 1023MOL0     H38077   8.887  -0.247   1.727 -0.7118 -0.3775 -0.6221
 1023MOL0     H38078   8.798  -0.096   1.697 -1.8832 -1.0531  1.3339
 1023MOL0     H38079   8.877  -0.191   1.974 -3.0178 -0.0977  0.6701
 1023MOL0     H38080   8.785  -0.050   1.939 -1.4403 -0.3126  0.7054
 1023MOL0     H38081   8.649  -0.229   1.999 -2.9496  2.9995 -1.1293
 1023MOL0     H38082   8.700  -0.348   1.892 -2.1759 -1.0499  1.3949
 1023MOL0     H38083   8.579  -0.230   1.711  1.6476 -1.3533  1.6400
 1023MOL0     H38084   8.475  -0.237   1.846 -1.1182 -1.8086 -3.8139
 1023MOL0     H38085   9.205   0.606   1.750  4.4146 -3.3658  0.9849
 1023MOL0     H38086   9.178   0.791   1.593  0.6564 -0.7246  0.1598
 1023MOL0     H38087   9.418   0.796   1.003  3.0076  0.8931  0.4351
 1023MOL0     H38088   9.396   0.983   0.831 -2.9804  1.3369 -1.6888
 1023MOL0     H38089   9.157   2.349   0.829 -0.1188  0.9105  4.1549
 1023MOL0     H38090   9.315   2.550   0.794  0.7548  2.0119 -3.3592
 1023MOL0     H38091   9.423   2.973   0.454 -1.4319  1.4425  0.9318
 1023MOL0     H38092   9.580   3.159   0.485  0.6087 -1.7706 -1.3330
 1023MOL0     H38093   9.693   3.313   0.511  0.7722 -2.7819 -0.7873
 1023MOL0     H38094   9.801   3.241   0.625 -1.6884 -1.6514 -1.5095
 1023MOL0     H38095   9.710   3.532   0.621  1.5142  2.2697  1.1070
 1023MOL0     H38096   9.857   3.474   0.541  2.1598  2.0789  1.4612
 1023MOL0     H38097   9.989   3.493   0.741 -1.6406  0.0980 -3.5318
 1023MOL0     H38098   9.862   3.402   0.833  0.8001  0.3767  0.5502
 1023MOL0     H38099   9.830   3.706   0.781 -0.1560  0.6086  0.0118
 1023MOL0     H38100   9.721   3.580   0.856  0.9879 -1.8805 -1.7282
 1023MOL0     H38101   9.975   3.685   1.173  0.8055  0.5441 -0.1083
 1023MOL0     H38102   9.462   3.185   0.890 -1.0902 -0.9691  1.0620
 1023MOL0     H38103   9.269   2.926   0.932  0.4779 -0.9647 -2.4116
 1023MOL0     H38104   9.281   3.106   0.961  2.2982  0.1879 -0.3851
 1023MOL0     H38105   9.169   3.040   0.841  0.1011  0.7140 -1.4557
 1024MOL0     O38106   0.720   4.448   8.554  0.5416 -0.5898 -0.4069
 1024MOL0     C38107   0.726   4.374   8.461 -0.1181  0.0017 -0.5316
 1024MOL0     O38108   0.767   4.407   8.340  0.2405 -0.4023 -0.1797
 1024MOL0     C38109   0.746   4.536   8.298 -0.4003 -0.5519 -0.0755
 1024MOL0     C38110   0.671   4.559   8.180  0.4723  0.4568 -1.0400
 1024MOL0     C38111   0.670   4.689   8.131  1.2235 -0.8035 -0.2242
 1024MOL0     C38112   0.720   4.800   8.194 -0.0144  1.3236  0.0195
 1024MOL0     O38113   0.711   4.923   8.124  0.0513  0.4678 -0.0132
 1024MOL0     C38114   0.756   5.034   8.208 -0.1610 -0.1983 -0.3749
 1024MOL0     C38115   0.743   5.166   8.123 -0.0860  0.1535 -0.9334
 1024MOL0     C38116   0.593   5.195   8.101 -0.0368 -0.1909  0.4229
 1024MOL0     C38117   0.566   5.345   8.076  0.8899  0.3422 -0.0991
 1024MOL0     C38118   0.423   5.370   8.024 -0.9910 -1.1291 -0.3194
 1024MOL0     C38119   0.416   5.511   7.959  0.5279  0.1217  0.3634
 1024MOL0     C38120   0.318   5.520   7.843  0.0999 -0.3770 -0.5729
 1024MOL0     C38121   0.359   5.440   7.720  0.3318  0.7718  0.0085
 1024MOL0     N38122   0.272   5.507   7.610  0.1085  0.4783  0.6519
 1024MOL0     C38123   0.309   5.609   7.521  0.0755 -0.9788 -0.3090
 1024MOL0     C38124   0.194   5.615   7.446  0.6735 -0.0663  1.0220
 1024MOL0     C38125   0.163   5.718   7.332  0.4387 -0.0377 -0.4483
 1024MOL0     C38126   0.230   5.690   7.198  0.4738  0.3163 -0.0932
 1024MOL0     C38127   0.371   5.761   7.174  0.0962 -0.1108 -0.6200
 1024MOL0     C38128   0.395   5.772   7.025 -0.0367  0.4037 -0.3397
 1024MOL0     O38129   0.529   5.806   7.030 -0.4609 -0.0734 -0.0982
 1024MOL0     C38130   0.554   5.901   6.934 -0.0634 -0.3247 -0.1380
 1024MOL0     C38131   0.558   6.040   6.967 -0.6904 -0.0097  0.4233
 1024MOL0     C38132   0.569   6.130   6.861 -0.0779  0.3428 -0.0010
 1024MOL0     C38133   0.589   6.094   6.732  0.6631 -0.6759 -0.4083
 1024MOL0     C38134   0.616   6.187   6.621  0.1244  0.4253 -0.2324
 1024MOL0     O38135   0.574   6.310   6.636  0.7066 -0.7542  0.0095
 1024MOL0     C38136   0.608   6.407   6.548 -0.2274 -0.4791 -0.3563
 1024MOL0     C38137   0.519   6.463   6.463  0.4890  0.8225  0.7114
 1024MOL0     C38138   0.550   6.550   6.362  0.0298 -0.0260  1.1866
 1024MOL0     C38139   0.686   6.578   6.348  0.3451  0.0824  0.2772
 1024MOL0     O38140   0.738   6.662   6.250 -0.2741  0.5340  0.6021
 1024MOL0     C38141   0.681   6.648   6.120  0.1127  0.4730 -0.2561
 1024MOL0     C38142   0.751   6.750   6.025 -0.6986 -0.1600 -0.0784
 1024MOL0     C38143   0.707   6.895   6.064  0.0739  0.0949  1.2660
 1024MOL0     C38144   0.792   6.995   5.985  1.0949 -0.4674 -0.2960
 1024MOL0     C38145   0.740   7.013   5.838  0.2796  0.0248  0.1353
 1024MOL0     C38146   0.819   7.104   5.744 -0.0886 -0.1654 -1.3154
 1024MOL0     C38147   0.966   7.070   5.719 -0.1654  0.1549 -0.0511
 1024MOL0     C38148   1.027   7.156   5.616 -0.0871  0.5103  0.3199
 1024MOL0    Cl38149   1.066   7.307   5.698  0.0941  0.1611  0.2662
 1024MOL0     C38150   0.787   6.526   6.428 -0.3395  0.2283 -0.6019
 1024MOL0     C38151   0.745   6.433   6.525  0.3789 -0.2018 -0.1812
 1024MOL0     O38152   0.678   6.152   6.521  0.0263  0.1585 -0.4383
 1024MOL0     C38153   0.593   5.957   6.702  0.3974  0.4066  0.2271
 1024MOL0     C38154   0.569   5.866   6.800 -0.3336 -0.6898 -0.3294
 1024MOL0     N38155   0.101   5.514   7.475  0.8449  0.3153 -0.5128
 1024MOL0     N38156   0.149   5.453   7.574 -0.3084  1.2630 -1.0912
 1024MOL0     C38157   0.782   4.779   8.313  0.1256 -0.3046 -0.1313
 1024MOL0     C38158   0.808   4.649   8.361 -0.7065 -0.2472 -0.1325
 1024MOL0     C38159   0.719   4.235   8.483  1.3460  0.5503  1.5005
 1024MOL0     C38160   0.836   4.158   8.448  0.0898  0.4114 -0.1136
 1024MOL0     C38161   0.837   4.014   8.480  0.4417 -0.5070 -0.3046
 1024MOL0     C38162   0.726   3.950   8.544 -0.2815  0.6997 -0.6302
 1024MOL0     O38163   0.739   3.810   8.567  0.6305  0.1666  0.1685
 1024MOL0     C38164   0.631   3.739   8.628 -0.6547 -0.2834  0.1605
 1024MOL0     C38165   0.654   3.586   8.614  0.3779  0.3778  0.6117
 1024MOL0     C38166   0.521   3.521   8.563  0.2575  0.6128  1.2464
 1024MOL0     C38167   0.524   3.380   8.603 -0.3254 -0.0846 -0.1067
 1024MOL0     C38168   0.423   3.305   8.531 -0.1333  0.1642 -0.2097
 1024MOL0     C38169   0.348   3.237   8.464 -0.1863 -0.5272 -1.0455
 1024MOL0     C38170   0.611   4.030   8.570  0.3100 -0.1482 -0.6410
 1024MOL0     C38171   0.606   4.168   8.543  0.4788 -0.1430  0.1112
 1024MOL0     C38172   0.468   4.226   8.566  0.5507 -1.0969  0.2657
 1024MOL0     H38173   0.633   4.478   8.119 -0.7256  0.7885 -0.7580
 1024MOL0     H38174   0.611   4.701   8.041  0.3755  1.6733  0.5592
 1024MOL0     H38175   0.700   5.041   8.302  3.5480  3.9457  1.9722
 1024MOL0     H38176   0.862   5.025   8.236  0.1381 -0.3694 -1.5250
 1024MOL0     H38177   0.789   5.149   8.025 -0.0793  1.0224 -1.0939
 1024MOL0     H38178   0.797   5.247   8.174  1.5063 -0.8083 -1.0268
 1024MOL0     H38179   0.535   5.160   8.187 -2.1152 -2.9029 -1.8762
 1024MOL0     H38180   0.546   5.138   8.020 -0.8857 -1.4544  1.7570
 1024MOL0     H38181   0.585   5.406   8.165  1.4427  1.5312 -0.9984
 1024MOL0     H38182   0.638   5.380   8.001  0.9443 -0.5389 -0.4715
 1024MOL0     H38183   0.407   5.295   7.946  0.4951 -1.7466 -0.0690
 1024MOL0     H38184   0.358   5.362   8.111 -0.1829  1.1510  0.5720
 1024MOL0     H38185   0.378   5.575   8.039 -0.3943 -0.7270  0.6279
 1024MOL0     H38186   0.512   5.554   7.930 -0.3589  6.5865  4.8129
 1024MOL0     H38187   0.302   5.623   7.809  1.5495  0.3953  0.9527
 1024MOL0     H38188   0.221   5.483   7.879 -1.7744  3.1221 -1.6037
 1024MOL0     H38189   0.464   5.437   7.691  0.8646 -2.4335  1.7294
 1024MOL0     H38190   0.322   5.339   7.739  0.7645  0.2251 -1.9070
 1024MOL0     H38191   0.391   5.680   7.528 -1.0942  0.2403  2.6197
 1024MOL0     H38192   0.053   5.717   7.329  0.2316  1.3844  2.5057
 1024MOL0     H38193   0.195   5.814   7.374  2.2342 -1.5044  1.8394
 1024MOL0     H38194   0.234   5.584   7.169 -1.9107  0.5841 -1.6249
 1024MOL0     H38195   0.162   5.728   7.122  1.5399  3.1415  0.2525
 1024MOL0     H38196   0.453   5.706   7.221  0.7878  0.6278 -0.9259
 1024MOL0     H38197   0.357   5.858   7.224 -0.4769 -0.7693  0.5334
 1024MOL0     H38198   0.337   5.852   6.979 -0.8177 -0.7043 -1.3564
 1024MOL0     H38199   0.382   5.679   6.968 -1.6549  0.8438 -0.7561
 1024MOL0     H38200   0.565   6.071   7.070  2.5578 -0.5319  0.4553
 1024MOL0     H38201   0.556   6.236   6.881  0.2724  0.9535 -2.6294
 1024MOL0     H38202   0.416   6.434   6.478  0.5847 -1.3058 -1.9396
 1024MOL0     H38203   0.475   6.596   6.298 -0.8328 -3.8314 -0.8156
 1024MOL0     H38204   0.702   6.547   6.083  1.6821  0.2613  1.0896
 1024MOL0     H38205   0.572   6.656   6.124  0.1367  0.7982 -0.2604
 1024MOL0     H38206   0.859   6.732   6.031 -1.0138 -3.3206 -1.6171
 1024MOL0     H38207   0.719   6.716   5.926 -2.0477 -4.3470  1.5661
 1024MOL0     H38208   0.602   6.909   6.040 -0.1039 -2.0911  0.5407
 1024MOL0     H38209   0.717   6.924   6.169 -0.2292  2.3610  0.7311
 1024MOL0     H38210   0.899   6.972   5.989  1.4287  0.2144 -3.1815
 1024MOL0     H38211   0.790   7.091   6.037  1.0294 -1.5995  1.9014
 1024MOL0     H38212   0.635   7.044   5.842 -0.5108 -1.8448 -2.8199
 1024MOL0     H38213   0.748   6.919   5.782 -0.2620  0.7506 -1.1972
 1024MOL0     H38214   0.758   7.115   5.654 -2.1218  2.6322  0.2218
 1024MOL0     H38215   0.803   7.204   5.787 -0.9716 -0.9143  0.1670
 1024MOL0     H38216   0.966   6.972   5.671 -0.8006  0.1102  0.0384
 1024MOL0     H38217   1.031   7.052   5.805  2.2941  1.8493 -1.4078
 1024MOL0     H38218   1.114   7.106   5.572 -1.6852 -1.6275 -0.5879
 1024MOL0     H38219   0.965   7.162   5.526 -0.1852  0.6552  0.3957
 1024MOL0     H38220   0.890   6.556   6.413  0.5972 -1.0849  2.4542
 1024MOL0     H38221   0.827   6.388   6.580 -1.2467 -3.6062 -0.3189
 1024MOL0     H38222   0.593   5.916   6.602 -1.1519  1.1951 -0.1363
 1024MOL0     H38223   0.552   5.763   6.769 -2.7204 -0.7542  0.8992
 1024MOL0     H38224   0.813   4.858   8.381 -2.6775 -0.3758  1.3932
 1024MOL0     H38225   0.867   4.639   8.451 -2.4785  1.0397  1.2488
 1024MOL0     H38226   0.919   4.212   8.404 -1.2802  3.3817  0.6666
 1024MOL0     H38227   0.928   3.959   8.455  0.7991  0.6666 -1.7261
 1024MOL0     H38228   0.545   3.771   8.568 -1.8951 -1.0140  1.4942
 1024MOL0     H38229   0.612   3.764   8.732 -0.6278  0.7777 -0.0833
 1024MOL0     H38230   0.685   3.533   8.704  3.4930 -2.0555 -1.6747
 1024MOL0     H38231   0.732   3.568   8.540 -0.6845 -2.1277  0.0086
 1024MOL0     H38232   0.507   3.520   8.455 -0.8165  0.9265  1.3624
 1024MOL0     H38233   0.431   3.572   8.600  0.9296  2.2986  0.6235
 1024MOL0     H38234   0.620   3.337   8.576 -0.6289 -1.5518  1.0354
 1024MOL0     H38235   0.509   3.366   8.711 -1.0028 -2.5042 -0.4513
 1024MOL0     H38236   0.288   3.177   8.400 -3.5675  5.0650 -3.8939
 1024MOL0     H38237   0.521   3.989   8.615  0.8158 -0.6728 -0.0788
 1024MOL0     H38238   0.474   4.332   8.540 -0.1636 -0.2143  3.3211
 1024MOL0     H38239   0.397   4.185   8.494 -0.2622  1.6601 -0.6400
 1024MOL0     H38240   0.425   4.221   8.667  1.0039 -0.4762  0.4967
  11.45154  11.45154  11.45154
